[ atomtypes ]
; name at.num mass charge ptype sigma epsilon
SI 14 28.08600 0.000000 A 0.4150 0.3891120
OM 8 15.99940 0.000000 A 0.3470 0.2259360
OA 8 15.99940 0.000000 A 0.3470 0.5104480
HG 1 2.01600 0.000000 A 0.1085 0.0627600
ha 1 1.008000 0.00000000 A 0.26254785 0.0673624
ca 6 12.010000 0.00000000 A 0.33152123 0.4133792
si 14 28.085000 0.00000000 A 0.4150 0.3891120

[ moleculetype ]
; name nrexcl
MSN_8_2 3

[ atoms ]
; nr type resnr resid atom cgnr charge mass
1 OM 1 OM OM1 1 -0.550000 15.99940
2 OM 2 OM OM1 2 -0.550000 15.99940
3 OM 3 OM OM1 3 -0.550000 15.99940
4 OM 4 OM OM1 4 -0.550000 15.99940
5 OM 5 OM OM1 5 -0.550000 15.99940
6 OM 6 OM OM1 6 -0.550000 15.99940
7 OM 7 OM OM1 7 -0.550000 15.99940
8 OM 8 OM OM1 8 -0.550000 15.99940
9 OM 9 OM OM1 9 -0.550000 15.99940
10 OM 10 OM OM1 10 -0.550000 15.99940
11 OM 11 OM OM1 11 -0.550000 15.99940
12 OM 12 OM OM1 12 -0.550000 15.99940
13 OM 13 OM OM1 13 -0.550000 15.99940
14 OM 14 OM OM1 14 -0.550000 15.99940
15 OM 15 OM OM1 15 -0.550000 15.99940
16 OM 16 OM OM1 16 -0.550000 15.99940
17 OM 17 OM OM1 17 -0.550000 15.99940
18 OM 18 OM OM1 18 -0.550000 15.99940
19 OM 19 OM OM1 19 -0.550000 15.99940
20 OM 20 OM OM1 20 -0.550000 15.99940
21 OM 21 OM OM1 21 -0.550000 15.99940
22 OM 22 OM OM1 22 -0.550000 15.99940
23 OM 23 OM OM1 23 -0.550000 15.99940
24 OM 24 OM OM1 24 -0.550000 15.99940
25 OM 25 OM OM1 25 -0.550000 15.99940
26 OM 26 OM OM1 26 -0.550000 15.99940
27 OM 27 OM OM1 27 -0.550000 15.99940
28 OM 28 OM OM1 28 -0.550000 15.99940
29 OM 29 OM OM1 29 -0.550000 15.99940
30 OM 30 OM OM1 30 -0.550000 15.99940
31 OM 31 OM OM1 31 -0.550000 15.99940
32 OM 32 OM OM1 32 -0.550000 15.99940
33 OM 33 OM OM1 33 -0.550000 15.99940
34 OM 34 OM OM1 34 -0.550000 15.99940
35 OM 35 OM OM1 35 -0.550000 15.99940
36 OM 36 OM OM1 36 -0.550000 15.99940
37 OM 37 OM OM1 37 -0.550000 15.99940
38 OM 38 OM OM1 38 -0.550000 15.99940
39 OM 39 OM OM1 39 -0.550000 15.99940
40 OM 40 OM OM1 40 -0.550000 15.99940
41 OM 41 OM OM1 41 -0.550000 15.99940
42 OM 42 OM OM1 42 -0.550000 15.99940
43 OM 43 OM OM1 43 -0.550000 15.99940
44 OM 44 OM OM1 44 -0.550000 15.99940
45 OM 45 OM OM1 45 -0.550000 15.99940
46 OM 46 OM OM1 46 -0.550000 15.99940
47 OM 47 OM OM1 47 -0.550000 15.99940
48 OM 48 OM OM1 48 -0.550000 15.99940
49 OM 49 OM OM1 49 -0.550000 15.99940
50 OM 50 OM OM1 50 -0.550000 15.99940
51 OM 51 OM OM1 51 -0.550000 15.99940
52 OM 52 OM OM1 52 -0.550000 15.99940
53 OM 53 OM OM1 53 -0.550000 15.99940
54 OM 54 OM OM1 54 -0.550000 15.99940
55 OM 55 OM OM1 55 -0.550000 15.99940
56 OM 56 OM OM1 56 -0.550000 15.99940
57 OM 57 OM OM1 57 -0.550000 15.99940
58 OM 58 OM OM1 58 -0.550000 15.99940
59 OM 59 OM OM1 59 -0.550000 15.99940
60 OM 60 OM OM1 60 -0.550000 15.99940
61 OM 61 OM OM1 61 -0.550000 15.99940
62 OM 62 OM OM1 62 -0.550000 15.99940
63 OM 63 OM OM1 63 -0.550000 15.99940
64 OM 64 OM OM1 64 -0.550000 15.99940
65 OM 65 OM OM1 65 -0.550000 15.99940
66 OM 66 OM OM1 66 -0.550000 15.99940
67 OM 67 OM OM1 67 -0.550000 15.99940
68 OM 68 OM OM1 68 -0.550000 15.99940
69 OM 69 OM OM1 69 -0.550000 15.99940
70 OM 70 OM OM1 70 -0.550000 15.99940
71 OM 71 OM OM1 71 -0.550000 15.99940
72 OM 72 OM OM1 72 -0.550000 15.99940
73 OM 73 OM OM1 73 -0.550000 15.99940
74 OM 74 OM OM1 74 -0.550000 15.99940
75 OM 75 OM OM1 75 -0.550000 15.99940
76 OM 76 OM OM1 76 -0.550000 15.99940
77 OM 77 OM OM1 77 -0.550000 15.99940
78 OM 78 OM OM1 78 -0.550000 15.99940
79 OM 79 OM OM1 79 -0.550000 15.99940
80 OM 80 OM OM1 80 -0.550000 15.99940
81 OM 81 OM OM1 81 -0.550000 15.99940
82 OM 82 OM OM1 82 -0.550000 15.99940
83 OM 83 OM OM1 83 -0.550000 15.99940
84 OM 84 OM OM1 84 -0.550000 15.99940
85 OM 85 OM OM1 85 -0.550000 15.99940
86 OM 86 OM OM1 86 -0.550000 15.99940
87 OM 87 OM OM1 87 -0.550000 15.99940
88 OM 88 OM OM1 88 -0.550000 15.99940
89 OM 89 OM OM1 89 -0.550000 15.99940
90 OM 90 OM OM1 90 -0.550000 15.99940
91 OM 91 OM OM1 91 -0.550000 15.99940
92 OM 92 OM OM1 92 -0.550000 15.99940
93 OM 93 OM OM1 93 -0.550000 15.99940
94 OM 94 OM OM1 94 -0.550000 15.99940
95 OM 95 OM OM1 95 -0.550000 15.99940
96 OM 96 OM OM1 96 -0.550000 15.99940
97 OM 97 OM OM1 97 -0.550000 15.99940
98 OM 98 OM OM1 98 -0.550000 15.99940
99 OM 99 OM OM1 99 -0.550000 15.99940
100 OM 100 OM OM1 100 -0.550000 15.99940
101 OM 101 OM OM1 101 -0.550000 15.99940
102 OM 102 OM OM1 102 -0.550000 15.99940
103 OM 103 OM OM1 103 -0.550000 15.99940
104 OM 104 OM OM1 104 -0.550000 15.99940
105 OM 105 OM OM1 105 -0.550000 15.99940
106 OM 106 OM OM1 106 -0.550000 15.99940
107 OM 107 OM OM1 107 -0.550000 15.99940
108 OM 108 OM OM1 108 -0.550000 15.99940
109 OM 109 OM OM1 109 -0.550000 15.99940
110 OM 110 OM OM1 110 -0.550000 15.99940
111 OM 111 OM OM1 111 -0.550000 15.99940
112 OM 112 OM OM1 112 -0.550000 15.99940
113 OM 113 OM OM1 113 -0.550000 15.99940
114 OM 114 OM OM1 114 -0.550000 15.99940
115 OM 115 OM OM1 115 -0.550000 15.99940
116 OM 116 OM OM1 116 -0.550000 15.99940
117 OM 117 OM OM1 117 -0.550000 15.99940
118 OM 118 OM OM1 118 -0.550000 15.99940
119 OM 119 OM OM1 119 -0.550000 15.99940
120 OM 120 OM OM1 120 -0.550000 15.99940
121 OM 121 OM OM1 121 -0.550000 15.99940
122 OM 122 OM OM1 122 -0.550000 15.99940
123 OM 123 OM OM1 123 -0.550000 15.99940
124 OM 124 OM OM1 124 -0.550000 15.99940
125 OM 125 OM OM1 125 -0.550000 15.99940
126 OM 126 OM OM1 126 -0.550000 15.99940
127 OM 127 OM OM1 127 -0.550000 15.99940
128 OM 128 OM OM1 128 -0.550000 15.99940
129 OM 129 OM OM1 129 -0.550000 15.99940
130 OM 130 OM OM1 130 -0.550000 15.99940
131 OM 131 OM OM1 131 -0.550000 15.99940
132 OM 132 OM OM1 132 -0.550000 15.99940
133 OM 133 OM OM1 133 -0.550000 15.99940
134 OM 134 OM OM1 134 -0.550000 15.99940
135 OM 135 OM OM1 135 -0.550000 15.99940
136 OM 136 OM OM1 136 -0.550000 15.99940
137 OM 137 OM OM1 137 -0.550000 15.99940
138 OM 138 OM OM1 138 -0.550000 15.99940
139 OM 139 OM OM1 139 -0.550000 15.99940
140 OM 140 OM OM1 140 -0.550000 15.99940
141 OM 141 OM OM1 141 -0.550000 15.99940
142 OM 142 OM OM1 142 -0.550000 15.99940
143 OM 143 OM OM1 143 -0.550000 15.99940
144 OM 144 OM OM1 144 -0.550000 15.99940
145 OM 145 OM OM1 145 -0.550000 15.99940
146 OM 146 OM OM1 146 -0.550000 15.99940
147 OM 147 OM OM1 147 -0.550000 15.99940
148 OM 148 OM OM1 148 -0.550000 15.99940
149 OM 149 OM OM1 149 -0.550000 15.99940
150 OM 150 OM OM1 150 -0.550000 15.99940
151 OM 151 OM OM1 151 -0.550000 15.99940
152 OM 152 OM OM1 152 -0.550000 15.99940
153 OM 153 OM OM1 153 -0.550000 15.99940
154 OM 154 OM OM1 154 -0.550000 15.99940
155 OM 155 OM OM1 155 -0.550000 15.99940
156 OM 156 OM OM1 156 -0.550000 15.99940
157 OM 157 OM OM1 157 -0.550000 15.99940
158 OM 158 OM OM1 158 -0.550000 15.99940
159 OM 159 OM OM1 159 -0.550000 15.99940
160 OM 160 OM OM1 160 -0.550000 15.99940
161 OM 161 OM OM1 161 -0.550000 15.99940
162 OM 162 OM OM1 162 -0.550000 15.99940
163 OM 163 OM OM1 163 -0.550000 15.99940
164 OM 164 OM OM1 164 -0.550000 15.99940
165 OM 165 OM OM1 165 -0.550000 15.99940
166 OM 166 OM OM1 166 -0.550000 15.99940
167 OM 167 OM OM1 167 -0.550000 15.99940
168 OM 168 OM OM1 168 -0.550000 15.99940
169 OM 169 OM OM1 169 -0.550000 15.99940
170 OM 170 OM OM1 170 -0.550000 15.99940
171 OM 171 OM OM1 171 -0.550000 15.99940
172 OM 172 OM OM1 172 -0.550000 15.99940
173 OM 173 OM OM1 173 -0.550000 15.99940
174 OM 174 OM OM1 174 -0.550000 15.99940
175 OM 175 OM OM1 175 -0.550000 15.99940
176 OM 176 OM OM1 176 -0.550000 15.99940
177 OM 177 OM OM1 177 -0.550000 15.99940
178 OM 178 OM OM1 178 -0.550000 15.99940
179 OM 179 OM OM1 179 -0.550000 15.99940
180 OM 180 OM OM1 180 -0.550000 15.99940
181 OM 181 OM OM1 181 -0.550000 15.99940
182 OM 182 OM OM1 182 -0.550000 15.99940
183 OM 183 OM OM1 183 -0.550000 15.99940
184 OM 184 OM OM1 184 -0.550000 15.99940
185 OM 185 OM OM1 185 -0.550000 15.99940
186 OM 186 OM OM1 186 -0.550000 15.99940
187 OM 187 OM OM1 187 -0.550000 15.99940
188 OM 188 OM OM1 188 -0.550000 15.99940
189 OM 189 OM OM1 189 -0.550000 15.99940
190 OM 190 OM OM1 190 -0.550000 15.99940
191 OM 191 OM OM1 191 -0.550000 15.99940
192 OM 192 OM OM1 192 -0.550000 15.99940
193 OM 193 OM OM1 193 -0.550000 15.99940
194 OM 194 OM OM1 194 -0.550000 15.99940
195 OM 195 OM OM1 195 -0.550000 15.99940
196 OM 196 OM OM1 196 -0.550000 15.99940
197 OM 197 OM OM1 197 -0.550000 15.99940
198 OM 198 OM OM1 198 -0.550000 15.99940
199 OM 199 OM OM1 199 -0.550000 15.99940
200 OM 200 OM OM1 200 -0.550000 15.99940
201 OM 201 OM OM1 201 -0.550000 15.99940
202 OM 202 OM OM1 202 -0.550000 15.99940
203 OM 203 OM OM1 203 -0.550000 15.99940
204 OM 204 OM OM1 204 -0.550000 15.99940
205 OM 205 OM OM1 205 -0.550000 15.99940
206 OM 206 OM OM1 206 -0.550000 15.99940
207 OM 207 OM OM1 207 -0.550000 15.99940
208 OM 208 OM OM1 208 -0.550000 15.99940
209 OM 209 OM OM1 209 -0.550000 15.99940
210 OM 210 OM OM1 210 -0.550000 15.99940
211 OM 211 OM OM1 211 -0.550000 15.99940
212 OM 212 OM OM1 212 -0.550000 15.99940
213 OM 213 OM OM1 213 -0.550000 15.99940
214 OM 214 OM OM1 214 -0.550000 15.99940
215 OM 215 OM OM1 215 -0.550000 15.99940
216 OM 216 OM OM1 216 -0.550000 15.99940
217 OM 217 OM OM1 217 -0.550000 15.99940
218 OM 218 OM OM1 218 -0.550000 15.99940
219 OM 219 OM OM1 219 -0.550000 15.99940
220 OM 220 OM OM1 220 -0.550000 15.99940
221 OM 221 OM OM1 221 -0.550000 15.99940
222 OM 222 OM OM1 222 -0.550000 15.99940
223 OM 223 OM OM1 223 -0.550000 15.99940
224 OM 224 OM OM1 224 -0.550000 15.99940
225 OM 225 OM OM1 225 -0.550000 15.99940
226 OM 226 OM OM1 226 -0.550000 15.99940
227 OM 227 OM OM1 227 -0.550000 15.99940
228 OM 228 OM OM1 228 -0.550000 15.99940
229 OM 229 OM OM1 229 -0.550000 15.99940
230 OM 230 OM OM1 230 -0.550000 15.99940
231 OM 231 OM OM1 231 -0.550000 15.99940
232 OM 232 OM OM1 232 -0.550000 15.99940
233 OM 233 OM OM1 233 -0.550000 15.99940
234 OM 234 OM OM1 234 -0.550000 15.99940
235 OM 235 OM OM1 235 -0.550000 15.99940
236 OM 236 OM OM1 236 -0.550000 15.99940
237 OM 237 OM OM1 237 -0.550000 15.99940
238 OM 238 OM OM1 238 -0.550000 15.99940
239 OM 239 OM OM1 239 -0.550000 15.99940
240 OM 240 OM OM1 240 -0.550000 15.99940
241 OM 241 OM OM1 241 -0.550000 15.99940
242 OM 242 OM OM1 242 -0.550000 15.99940
243 OM 243 OM OM1 243 -0.550000 15.99940
244 OM 244 OM OM1 244 -0.550000 15.99940
245 OM 245 OM OM1 245 -0.550000 15.99940
246 OM 246 OM OM1 246 -0.550000 15.99940
247 OM 247 OM OM1 247 -0.550000 15.99940
248 OM 248 OM OM1 248 -0.550000 15.99940
249 OM 249 OM OM1 249 -0.550000 15.99940
250 OM 250 OM OM1 250 -0.550000 15.99940
251 OM 251 OM OM1 251 -0.550000 15.99940
252 OM 252 OM OM1 252 -0.550000 15.99940
253 OM 253 OM OM1 253 -0.550000 15.99940
254 OM 254 OM OM1 254 -0.550000 15.99940
255 OM 255 OM OM1 255 -0.550000 15.99940
256 OM 256 OM OM1 256 -0.550000 15.99940
257 OM 257 OM OM1 257 -0.550000 15.99940
258 OM 258 OM OM1 258 -0.550000 15.99940
259 OM 259 OM OM1 259 -0.550000 15.99940
260 OM 260 OM OM1 260 -0.550000 15.99940
261 OM 261 OM OM1 261 -0.550000 15.99940
262 OM 262 OM OM1 262 -0.550000 15.99940
263 OM 263 OM OM1 263 -0.550000 15.99940
264 OM 264 OM OM1 264 -0.550000 15.99940
265 OM 265 OM OM1 265 -0.550000 15.99940
266 OM 266 OM OM1 266 -0.550000 15.99940
267 OM 267 OM OM1 267 -0.550000 15.99940
268 OM 268 OM OM1 268 -0.550000 15.99940
269 OM 269 OM OM1 269 -0.550000 15.99940
270 OM 270 OM OM1 270 -0.550000 15.99940
271 OM 271 OM OM1 271 -0.550000 15.99940
272 OM 272 OM OM1 272 -0.550000 15.99940
273 OM 273 OM OM1 273 -0.550000 15.99940
274 OM 274 OM OM1 274 -0.550000 15.99940
275 OM 275 OM OM1 275 -0.550000 15.99940
276 OM 276 OM OM1 276 -0.550000 15.99940
277 OM 277 OM OM1 277 -0.550000 15.99940
278 OM 278 OM OM1 278 -0.550000 15.99940
279 OM 279 OM OM1 279 -0.550000 15.99940
280 OM 280 OM OM1 280 -0.550000 15.99940
281 OM 281 OM OM1 281 -0.550000 15.99940
282 OM 282 OM OM1 282 -0.550000 15.99940
283 OM 283 OM OM1 283 -0.550000 15.99940
284 OM 284 OM OM1 284 -0.550000 15.99940
285 OM 285 OM OM1 285 -0.550000 15.99940
286 OM 286 OM OM1 286 -0.550000 15.99940
287 OM 287 OM OM1 287 -0.550000 15.99940
288 OM 288 OM OM1 288 -0.550000 15.99940
289 OM 289 OM OM1 289 -0.550000 15.99940
290 OM 290 OM OM1 290 -0.550000 15.99940
291 OM 291 OM OM1 291 -0.550000 15.99940
292 OM 292 OM OM1 292 -0.550000 15.99940
293 OM 293 OM OM1 293 -0.550000 15.99940
294 OM 294 OM OM1 294 -0.550000 15.99940
295 OM 295 OM OM1 295 -0.550000 15.99940
296 OM 296 OM OM1 296 -0.550000 15.99940
297 OM 297 OM OM1 297 -0.550000 15.99940
298 OM 298 OM OM1 298 -0.550000 15.99940
299 OM 299 OM OM1 299 -0.550000 15.99940
300 OM 300 OM OM1 300 -0.550000 15.99940
301 OM 301 OM OM1 301 -0.550000 15.99940
302 OM 302 OM OM1 302 -0.550000 15.99940
303 OM 303 OM OM1 303 -0.550000 15.99940
304 OM 304 OM OM1 304 -0.550000 15.99940
305 OM 305 OM OM1 305 -0.550000 15.99940
306 OM 306 OM OM1 306 -0.550000 15.99940
307 OM 307 OM OM1 307 -0.550000 15.99940
308 OM 308 OM OM1 308 -0.550000 15.99940
309 OM 309 OM OM1 309 -0.550000 15.99940
310 OM 310 OM OM1 310 -0.550000 15.99940
311 OM 311 OM OM1 311 -0.550000 15.99940
312 OM 312 OM OM1 312 -0.550000 15.99940
313 OM 313 OM OM1 313 -0.550000 15.99940
314 OM 314 OM OM1 314 -0.550000 15.99940
315 OM 315 OM OM1 315 -0.550000 15.99940
316 OM 316 OM OM1 316 -0.550000 15.99940
317 OM 317 OM OM1 317 -0.550000 15.99940
318 OM 318 OM OM1 318 -0.550000 15.99940
319 OM 319 OM OM1 319 -0.550000 15.99940
320 OM 320 OM OM1 320 -0.550000 15.99940
321 OM 321 OM OM1 321 -0.550000 15.99940
322 OM 322 OM OM1 322 -0.550000 15.99940
323 OM 323 OM OM1 323 -0.550000 15.99940
324 OM 324 OM OM1 324 -0.550000 15.99940
325 OM 325 OM OM1 325 -0.550000 15.99940
326 OM 326 OM OM1 326 -0.550000 15.99940
327 OM 327 OM OM1 327 -0.550000 15.99940
328 OM 328 OM OM1 328 -0.550000 15.99940
329 OM 329 OM OM1 329 -0.550000 15.99940
330 OM 330 OM OM1 330 -0.550000 15.99940
331 OM 331 OM OM1 331 -0.550000 15.99940
332 OM 332 OM OM1 332 -0.550000 15.99940
333 OM 333 OM OM1 333 -0.550000 15.99940
334 OM 334 OM OM1 334 -0.550000 15.99940
335 OM 335 OM OM1 335 -0.550000 15.99940
336 OM 336 OM OM1 336 -0.550000 15.99940
337 OM 337 OM OM1 337 -0.550000 15.99940
338 OM 338 OM OM1 338 -0.550000 15.99940
339 OM 339 OM OM1 339 -0.550000 15.99940
340 OM 340 OM OM1 340 -0.550000 15.99940
341 OM 341 OM OM1 341 -0.550000 15.99940
342 OM 342 OM OM1 342 -0.550000 15.99940
343 OM 343 OM OM1 343 -0.550000 15.99940
344 OM 344 OM OM1 344 -0.550000 15.99940
345 OM 345 OM OM1 345 -0.550000 15.99940
346 OM 346 OM OM1 346 -0.550000 15.99940
347 OM 347 OM OM1 347 -0.550000 15.99940
348 OM 348 OM OM1 348 -0.550000 15.99940
349 OM 349 OM OM1 349 -0.550000 15.99940
350 OM 350 OM OM1 350 -0.550000 15.99940
351 OM 351 OM OM1 351 -0.550000 15.99940
352 OM 352 OM OM1 352 -0.550000 15.99940
353 OM 353 OM OM1 353 -0.550000 15.99940
354 OM 354 OM OM1 354 -0.550000 15.99940
355 OM 355 OM OM1 355 -0.550000 15.99940
356 OM 356 OM OM1 356 -0.550000 15.99940
357 OM 357 OM OM1 357 -0.550000 15.99940
358 OM 358 OM OM1 358 -0.550000 15.99940
359 OM 359 OM OM1 359 -0.550000 15.99940
360 OM 360 OM OM1 360 -0.550000 15.99940
361 OM 361 OM OM1 361 -0.550000 15.99940
362 OM 362 OM OM1 362 -0.550000 15.99940
363 OM 363 OM OM1 363 -0.550000 15.99940
364 OM 364 OM OM1 364 -0.550000 15.99940
365 OM 365 OM OM1 365 -0.550000 15.99940
366 OM 366 OM OM1 366 -0.550000 15.99940
367 OM 367 OM OM1 367 -0.550000 15.99940
368 OM 368 OM OM1 368 -0.550000 15.99940
369 OM 369 OM OM1 369 -0.550000 15.99940
370 OM 370 OM OM1 370 -0.550000 15.99940
371 OM 371 OM OM1 371 -0.550000 15.99940
372 OM 372 OM OM1 372 -0.550000 15.99940
373 OM 373 OM OM1 373 -0.550000 15.99940
374 OM 374 OM OM1 374 -0.550000 15.99940
375 OM 375 OM OM1 375 -0.550000 15.99940
376 OM 376 OM OM1 376 -0.550000 15.99940
377 OM 377 OM OM1 377 -0.550000 15.99940
378 OM 378 OM OM1 378 -0.550000 15.99940
379 OM 379 OM OM1 379 -0.550000 15.99940
380 OM 380 OM OM1 380 -0.550000 15.99940
381 OM 381 OM OM1 381 -0.550000 15.99940
382 OM 382 OM OM1 382 -0.550000 15.99940
383 OM 383 OM OM1 383 -0.550000 15.99940
384 OM 384 OM OM1 384 -0.550000 15.99940
385 OM 385 OM OM1 385 -0.550000 15.99940
386 OM 386 OM OM1 386 -0.550000 15.99940
387 OM 387 OM OM1 387 -0.550000 15.99940
388 OM 388 OM OM1 388 -0.550000 15.99940
389 OM 389 OM OM1 389 -0.550000 15.99940
390 OM 390 OM OM1 390 -0.550000 15.99940
391 OM 391 OM OM1 391 -0.550000 15.99940
392 OM 392 OM OM1 392 -0.550000 15.99940
393 OM 393 OM OM1 393 -0.550000 15.99940
394 OM 394 OM OM1 394 -0.550000 15.99940
395 OM 395 OM OM1 395 -0.550000 15.99940
396 OM 396 OM OM1 396 -0.550000 15.99940
397 OM 397 OM OM1 397 -0.550000 15.99940
398 OM 398 OM OM1 398 -0.550000 15.99940
399 OM 399 OM OM1 399 -0.550000 15.99940
400 OM 400 OM OM1 400 -0.550000 15.99940
401 OM 401 OM OM1 401 -0.550000 15.99940
402 OM 402 OM OM1 402 -0.550000 15.99940
403 OM 403 OM OM1 403 -0.550000 15.99940
404 OM 404 OM OM1 404 -0.550000 15.99940
405 OM 405 OM OM1 405 -0.550000 15.99940
406 OM 406 OM OM1 406 -0.550000 15.99940
407 OM 407 OM OM1 407 -0.550000 15.99940
408 OM 408 OM OM1 408 -0.550000 15.99940
409 OM 409 OM OM1 409 -0.550000 15.99940
410 OM 410 OM OM1 410 -0.550000 15.99940
411 OM 411 OM OM1 411 -0.550000 15.99940
412 OM 412 OM OM1 412 -0.550000 15.99940
413 OM 413 OM OM1 413 -0.550000 15.99940
414 OM 414 OM OM1 414 -0.550000 15.99940
415 OM 415 OM OM1 415 -0.550000 15.99940
416 OM 416 OM OM1 416 -0.550000 15.99940
417 OM 417 OM OM1 417 -0.550000 15.99940
418 OM 418 OM OM1 418 -0.550000 15.99940
419 OM 419 OM OM1 419 -0.550000 15.99940
420 OM 420 OM OM1 420 -0.550000 15.99940
421 OM 421 OM OM1 421 -0.550000 15.99940
422 OM 422 OM OM1 422 -0.550000 15.99940
423 OM 423 OM OM1 423 -0.550000 15.99940
424 OM 424 OM OM1 424 -0.550000 15.99940
425 OM 425 OM OM1 425 -0.550000 15.99940
426 OM 426 OM OM1 426 -0.550000 15.99940
427 OM 427 OM OM1 427 -0.550000 15.99940
428 OM 428 OM OM1 428 -0.550000 15.99940
429 OM 429 OM OM1 429 -0.550000 15.99940
430 OM 430 OM OM1 430 -0.550000 15.99940
431 OM 431 OM OM1 431 -0.550000 15.99940
432 OM 432 OM OM1 432 -0.550000 15.99940
433 OM 433 OM OM1 433 -0.550000 15.99940
434 OM 434 OM OM1 434 -0.550000 15.99940
435 OM 435 OM OM1 435 -0.550000 15.99940
436 OM 436 OM OM1 436 -0.550000 15.99940
437 OM 437 OM OM1 437 -0.550000 15.99940
438 OM 438 OM OM1 438 -0.550000 15.99940
439 OM 439 OM OM1 439 -0.550000 15.99940
440 OM 440 OM OM1 440 -0.550000 15.99940
441 OM 441 OM OM1 441 -0.550000 15.99940
442 OM 442 OM OM1 442 -0.550000 15.99940
443 OM 443 OM OM1 443 -0.550000 15.99940
444 OM 444 OM OM1 444 -0.550000 15.99940
445 OM 445 OM OM1 445 -0.550000 15.99940
446 OM 446 OM OM1 446 -0.550000 15.99940
447 OM 447 OM OM1 447 -0.550000 15.99940
448 OM 448 OM OM1 448 -0.550000 15.99940
449 OM 449 OM OM1 449 -0.550000 15.99940
450 OM 450 OM OM1 450 -0.550000 15.99940
451 OM 451 OM OM1 451 -0.550000 15.99940
452 OM 452 OM OM1 452 -0.550000 15.99940
453 OM 453 OM OM1 453 -0.550000 15.99940
454 OM 454 OM OM1 454 -0.550000 15.99940
455 OM 455 OM OM1 455 -0.550000 15.99940
456 OM 456 OM OM1 456 -0.550000 15.99940
457 OM 457 OM OM1 457 -0.550000 15.99940
458 OM 458 OM OM1 458 -0.550000 15.99940
459 OM 459 OM OM1 459 -0.550000 15.99940
460 OM 460 OM OM1 460 -0.550000 15.99940
461 OM 461 OM OM1 461 -0.550000 15.99940
462 OM 462 OM OM1 462 -0.550000 15.99940
463 OM 463 OM OM1 463 -0.550000 15.99940
464 OM 464 OM OM1 464 -0.550000 15.99940
465 OM 465 OM OM1 465 -0.550000 15.99940
466 OM 466 OM OM1 466 -0.550000 15.99940
467 OM 467 OM OM1 467 -0.550000 15.99940
468 OM 468 OM OM1 468 -0.550000 15.99940
469 OM 469 OM OM1 469 -0.550000 15.99940
470 OM 470 OM OM1 470 -0.550000 15.99940
471 OM 471 OM OM1 471 -0.550000 15.99940
472 OM 472 OM OM1 472 -0.550000 15.99940
473 OM 473 OM OM1 473 -0.550000 15.99940
474 OM 474 OM OM1 474 -0.550000 15.99940
475 OM 475 OM OM1 475 -0.550000 15.99940
476 OM 476 OM OM1 476 -0.550000 15.99940
477 OM 477 OM OM1 477 -0.550000 15.99940
478 OM 478 OM OM1 478 -0.550000 15.99940
479 OM 479 OM OM1 479 -0.550000 15.99940
480 OM 480 OM OM1 480 -0.550000 15.99940
481 OM 481 OM OM1 481 -0.550000 15.99940
482 OM 482 OM OM1 482 -0.550000 15.99940
483 OM 483 OM OM1 483 -0.550000 15.99940
484 OM 484 OM OM1 484 -0.550000 15.99940
485 OM 485 OM OM1 485 -0.550000 15.99940
486 OM 486 OM OM1 486 -0.550000 15.99940
487 OM 487 OM OM1 487 -0.550000 15.99940
488 OM 488 OM OM1 488 -0.550000 15.99940
489 OM 489 OM OM1 489 -0.550000 15.99940
490 OM 490 OM OM1 490 -0.550000 15.99940
491 OM 491 OM OM1 491 -0.550000 15.99940
492 OM 492 OM OM1 492 -0.550000 15.99940
493 OM 493 OM OM1 493 -0.550000 15.99940
494 OM 494 OM OM1 494 -0.550000 15.99940
495 OM 495 OM OM1 495 -0.550000 15.99940
496 OM 496 OM OM1 496 -0.550000 15.99940
497 OM 497 OM OM1 497 -0.550000 15.99940
498 OM 498 OM OM1 498 -0.550000 15.99940
499 OM 499 OM OM1 499 -0.550000 15.99940
500 OM 500 OM OM1 500 -0.550000 15.99940
501 OM 501 OM OM1 501 -0.550000 15.99940
502 OM 502 OM OM1 502 -0.550000 15.99940
503 OM 503 OM OM1 503 -0.550000 15.99940
504 OM 504 OM OM1 504 -0.550000 15.99940
505 OM 505 OM OM1 505 -0.550000 15.99940
506 OM 506 OM OM1 506 -0.550000 15.99940
507 OM 507 OM OM1 507 -0.550000 15.99940
508 OM 508 OM OM1 508 -0.550000 15.99940
509 OM 509 OM OM1 509 -0.550000 15.99940
510 OM 510 OM OM1 510 -0.550000 15.99940
511 OM 511 OM OM1 511 -0.550000 15.99940
512 OM 512 OM OM1 512 -0.550000 15.99940
513 OM 513 OM OM1 513 -0.550000 15.99940
514 OM 514 OM OM1 514 -0.550000 15.99940
515 OM 515 OM OM1 515 -0.550000 15.99940
516 OM 516 OM OM1 516 -0.550000 15.99940
517 OM 517 OM OM1 517 -0.550000 15.99940
518 OM 518 OM OM1 518 -0.550000 15.99940
519 OM 519 OM OM1 519 -0.550000 15.99940
520 OM 520 OM OM1 520 -0.550000 15.99940
521 OM 521 OM OM1 521 -0.550000 15.99940
522 OM 522 OM OM1 522 -0.550000 15.99940
523 OM 523 OM OM1 523 -0.550000 15.99940
524 OM 524 OM OM1 524 -0.550000 15.99940
525 OM 525 OM OM1 525 -0.550000 15.99940
526 OM 526 OM OM1 526 -0.550000 15.99940
527 OM 527 OM OM1 527 -0.550000 15.99940
528 OM 528 OM OM1 528 -0.550000 15.99940
529 OM 529 OM OM1 529 -0.550000 15.99940
530 OM 530 OM OM1 530 -0.550000 15.99940
531 OM 531 OM OM1 531 -0.550000 15.99940
532 OM 532 OM OM1 532 -0.550000 15.99940
533 OM 533 OM OM1 533 -0.550000 15.99940
534 OM 534 OM OM1 534 -0.550000 15.99940
535 OM 535 OM OM1 535 -0.550000 15.99940
536 OM 536 OM OM1 536 -0.550000 15.99940
537 OM 537 OM OM1 537 -0.550000 15.99940
538 OM 538 OM OM1 538 -0.550000 15.99940
539 OM 539 OM OM1 539 -0.550000 15.99940
540 OM 540 OM OM1 540 -0.550000 15.99940
541 OM 541 OM OM1 541 -0.550000 15.99940
542 OM 542 OM OM1 542 -0.550000 15.99940
543 OM 543 OM OM1 543 -0.550000 15.99940
544 OM 544 OM OM1 544 -0.550000 15.99940
545 OM 545 OM OM1 545 -0.550000 15.99940
546 OM 546 OM OM1 546 -0.550000 15.99940
547 OM 547 OM OM1 547 -0.550000 15.99940
548 OM 548 OM OM1 548 -0.550000 15.99940
549 OM 549 OM OM1 549 -0.550000 15.99940
550 OM 550 OM OM1 550 -0.550000 15.99940
551 OM 551 OM OM1 551 -0.550000 15.99940
552 OM 552 OM OM1 552 -0.550000 15.99940
553 OM 553 OM OM1 553 -0.550000 15.99940
554 OM 554 OM OM1 554 -0.550000 15.99940
555 OM 555 OM OM1 555 -0.550000 15.99940
556 OM 556 OM OM1 556 -0.550000 15.99940
557 OM 557 OM OM1 557 -0.550000 15.99940
558 OM 558 OM OM1 558 -0.550000 15.99940
559 OM 559 OM OM1 559 -0.550000 15.99940
560 OM 560 OM OM1 560 -0.550000 15.99940
561 OM 561 OM OM1 561 -0.550000 15.99940
562 OM 562 OM OM1 562 -0.550000 15.99940
563 OM 563 OM OM1 563 -0.550000 15.99940
564 OM 564 OM OM1 564 -0.550000 15.99940
565 OM 565 OM OM1 565 -0.550000 15.99940
566 OM 566 OM OM1 566 -0.550000 15.99940
567 OM 567 OM OM1 567 -0.550000 15.99940
568 OM 568 OM OM1 568 -0.550000 15.99940
569 OM 569 OM OM1 569 -0.550000 15.99940
570 OM 570 OM OM1 570 -0.550000 15.99940
571 OM 571 OM OM1 571 -0.550000 15.99940
572 OM 572 OM OM1 572 -0.550000 15.99940
573 OM 573 OM OM1 573 -0.550000 15.99940
574 OM 574 OM OM1 574 -0.550000 15.99940
575 OM 575 OM OM1 575 -0.550000 15.99940
576 OM 576 OM OM1 576 -0.550000 15.99940
577 OM 577 OM OM1 577 -0.550000 15.99940
578 OM 578 OM OM1 578 -0.550000 15.99940
579 OM 579 OM OM1 579 -0.550000 15.99940
580 OM 580 OM OM1 580 -0.550000 15.99940
581 OM 581 OM OM1 581 -0.550000 15.99940
582 OM 582 OM OM1 582 -0.550000 15.99940
583 OM 583 OM OM1 583 -0.550000 15.99940
584 OM 584 OM OM1 584 -0.550000 15.99940
585 OM 585 OM OM1 585 -0.550000 15.99940
586 OM 586 OM OM1 586 -0.550000 15.99940
587 OM 587 OM OM1 587 -0.550000 15.99940
588 OM 588 OM OM1 588 -0.550000 15.99940
589 OM 589 OM OM1 589 -0.550000 15.99940
590 OM 590 OM OM1 590 -0.550000 15.99940
591 OM 591 OM OM1 591 -0.550000 15.99940
592 OM 592 OM OM1 592 -0.550000 15.99940
593 OM 593 OM OM1 593 -0.550000 15.99940
594 OM 594 OM OM1 594 -0.550000 15.99940
595 OM 595 OM OM1 595 -0.550000 15.99940
596 OM 596 OM OM1 596 -0.550000 15.99940
597 OM 597 OM OM1 597 -0.550000 15.99940
598 OM 598 OM OM1 598 -0.550000 15.99940
599 OM 599 OM OM1 599 -0.550000 15.99940
600 OM 600 OM OM1 600 -0.550000 15.99940
601 OM 601 OM OM1 601 -0.550000 15.99940
602 OM 602 OM OM1 602 -0.550000 15.99940
603 OM 603 OM OM1 603 -0.550000 15.99940
604 OM 604 OM OM1 604 -0.550000 15.99940
605 OM 605 OM OM1 605 -0.550000 15.99940
606 OM 606 OM OM1 606 -0.550000 15.99940
607 OM 607 OM OM1 607 -0.550000 15.99940
608 OM 608 OM OM1 608 -0.550000 15.99940
609 OM 609 OM OM1 609 -0.550000 15.99940
610 OM 610 OM OM1 610 -0.550000 15.99940
611 OM 611 OM OM1 611 -0.550000 15.99940
612 OM 612 OM OM1 612 -0.550000 15.99940
613 OM 613 OM OM1 613 -0.550000 15.99940
614 OM 614 OM OM1 614 -0.550000 15.99940
615 OM 615 OM OM1 615 -0.550000 15.99940
616 OM 616 OM OM1 616 -0.550000 15.99940
617 OM 617 OM OM1 617 -0.550000 15.99940
618 OM 618 OM OM1 618 -0.550000 15.99940
619 OM 619 OM OM1 619 -0.550000 15.99940
620 OM 620 OM OM1 620 -0.550000 15.99940
621 OM 621 OM OM1 621 -0.550000 15.99940
622 OM 622 OM OM1 622 -0.550000 15.99940
623 OM 623 OM OM1 623 -0.550000 15.99940
624 OM 624 OM OM1 624 -0.550000 15.99940
625 OM 625 OM OM1 625 -0.550000 15.99940
626 OM 626 OM OM1 626 -0.550000 15.99940
627 OM 627 OM OM1 627 -0.550000 15.99940
628 OM 628 OM OM1 628 -0.550000 15.99940
629 OM 629 OM OM1 629 -0.550000 15.99940
630 OM 630 OM OM1 630 -0.550000 15.99940
631 OM 631 OM OM1 631 -0.550000 15.99940
632 OM 632 OM OM1 632 -0.550000 15.99940
633 OM 633 OM OM1 633 -0.550000 15.99940
634 OM 634 OM OM1 634 -0.550000 15.99940
635 OM 635 OM OM1 635 -0.550000 15.99940
636 OM 636 OM OM1 636 -0.550000 15.99940
637 OM 637 OM OM1 637 -0.550000 15.99940
638 OM 638 OM OM1 638 -0.550000 15.99940
639 OM 639 OM OM1 639 -0.550000 15.99940
640 OM 640 OM OM1 640 -0.550000 15.99940
641 OM 641 OM OM1 641 -0.550000 15.99940
642 OM 642 OM OM1 642 -0.550000 15.99940
643 OM 643 OM OM1 643 -0.550000 15.99940
644 OM 644 OM OM1 644 -0.550000 15.99940
645 OM 645 OM OM1 645 -0.550000 15.99940
646 OM 646 OM OM1 646 -0.550000 15.99940
647 OM 647 OM OM1 647 -0.550000 15.99940
648 OM 648 OM OM1 648 -0.550000 15.99940
649 OM 649 OM OM1 649 -0.550000 15.99940
650 OM 650 OM OM1 650 -0.550000 15.99940
651 OM 651 OM OM1 651 -0.550000 15.99940
652 OM 652 OM OM1 652 -0.550000 15.99940
653 OM 653 OM OM1 653 -0.550000 15.99940
654 OM 654 OM OM1 654 -0.550000 15.99940
655 OM 655 OM OM1 655 -0.550000 15.99940
656 OM 656 OM OM1 656 -0.550000 15.99940
657 OM 657 OM OM1 657 -0.550000 15.99940
658 OM 658 OM OM1 658 -0.550000 15.99940
659 OM 659 OM OM1 659 -0.550000 15.99940
660 OM 660 OM OM1 660 -0.550000 15.99940
661 OM 661 OM OM1 661 -0.550000 15.99940
662 OM 662 OM OM1 662 -0.550000 15.99940
663 OM 663 OM OM1 663 -0.550000 15.99940
664 OM 664 OM OM1 664 -0.550000 15.99940
665 OM 665 OM OM1 665 -0.550000 15.99940
666 OM 666 OM OM1 666 -0.550000 15.99940
667 OM 667 OM OM1 667 -0.550000 15.99940
668 OM 668 OM OM1 668 -0.550000 15.99940
669 OM 669 OM OM1 669 -0.550000 15.99940
670 OM 670 OM OM1 670 -0.550000 15.99940
671 OM 671 OM OM1 671 -0.550000 15.99940
672 OM 672 OM OM1 672 -0.550000 15.99940
673 OM 673 OM OM1 673 -0.550000 15.99940
674 OM 674 OM OM1 674 -0.550000 15.99940
675 OM 675 OM OM1 675 -0.550000 15.99940
676 OM 676 OM OM1 676 -0.550000 15.99940
677 OM 677 OM OM1 677 -0.550000 15.99940
678 OM 678 OM OM1 678 -0.550000 15.99940
679 OM 679 OM OM1 679 -0.550000 15.99940
680 OM 680 OM OM1 680 -0.550000 15.99940
681 OM 681 OM OM1 681 -0.550000 15.99940
682 OM 682 OM OM1 682 -0.550000 15.99940
683 OM 683 OM OM1 683 -0.550000 15.99940
684 OM 684 OM OM1 684 -0.550000 15.99940
685 OM 685 OM OM1 685 -0.550000 15.99940
686 OM 686 OM OM1 686 -0.550000 15.99940
687 OM 687 OM OM1 687 -0.550000 15.99940
688 OM 688 OM OM1 688 -0.550000 15.99940
689 OM 689 OM OM1 689 -0.550000 15.99940
690 OM 690 OM OM1 690 -0.550000 15.99940
691 OM 691 OM OM1 691 -0.550000 15.99940
692 OM 692 OM OM1 692 -0.550000 15.99940
693 OM 693 OM OM1 693 -0.550000 15.99940
694 OM 694 OM OM1 694 -0.550000 15.99940
695 OM 695 OM OM1 695 -0.550000 15.99940
696 OM 696 OM OM1 696 -0.550000 15.99940
697 OM 697 OM OM1 697 -0.550000 15.99940
698 OM 698 OM OM1 698 -0.550000 15.99940
699 OM 699 OM OM1 699 -0.550000 15.99940
700 OM 700 OM OM1 700 -0.550000 15.99940
701 OM 701 OM OM1 701 -0.550000 15.99940
702 OM 702 OM OM1 702 -0.550000 15.99940
703 OM 703 OM OM1 703 -0.550000 15.99940
704 OM 704 OM OM1 704 -0.550000 15.99940
705 OM 705 OM OM1 705 -0.550000 15.99940
706 OM 706 OM OM1 706 -0.550000 15.99940
707 OM 707 OM OM1 707 -0.550000 15.99940
708 OM 708 OM OM1 708 -0.550000 15.99940
709 OM 709 OM OM1 709 -0.550000 15.99940
710 OM 710 OM OM1 710 -0.550000 15.99940
711 OM 711 OM OM1 711 -0.550000 15.99940
712 OM 712 OM OM1 712 -0.550000 15.99940
713 OM 713 OM OM1 713 -0.550000 15.99940
714 OM 714 OM OM1 714 -0.550000 15.99940
715 OM 715 OM OM1 715 -0.550000 15.99940
716 OM 716 OM OM1 716 -0.550000 15.99940
717 OM 717 OM OM1 717 -0.550000 15.99940
718 OM 718 OM OM1 718 -0.550000 15.99940
719 OM 719 OM OM1 719 -0.550000 15.99940
720 OM 720 OM OM1 720 -0.550000 15.99940
721 OM 721 OM OM1 721 -0.550000 15.99940
722 OM 722 OM OM1 722 -0.550000 15.99940
723 OM 723 OM OM1 723 -0.550000 15.99940
724 OM 724 OM OM1 724 -0.550000 15.99940
725 OM 725 OM OM1 725 -0.550000 15.99940
726 OM 726 OM OM1 726 -0.550000 15.99940
727 OM 727 OM OM1 727 -0.550000 15.99940
728 OM 728 OM OM1 728 -0.550000 15.99940
729 OM 729 OM OM1 729 -0.550000 15.99940
730 OM 730 OM OM1 730 -0.550000 15.99940
731 OM 731 OM OM1 731 -0.550000 15.99940
732 OM 732 OM OM1 732 -0.550000 15.99940
733 OM 733 OM OM1 733 -0.550000 15.99940
734 OM 734 OM OM1 734 -0.550000 15.99940
735 OM 735 OM OM1 735 -0.550000 15.99940
736 OM 736 OM OM1 736 -0.550000 15.99940
737 OM 737 OM OM1 737 -0.550000 15.99940
738 OM 738 OM OM1 738 -0.550000 15.99940
739 OM 739 OM OM1 739 -0.550000 15.99940
740 OM 740 OM OM1 740 -0.550000 15.99940
741 OM 741 OM OM1 741 -0.550000 15.99940
742 OM 742 OM OM1 742 -0.550000 15.99940
743 OM 743 OM OM1 743 -0.550000 15.99940
744 OM 744 OM OM1 744 -0.550000 15.99940
745 OM 745 OM OM1 745 -0.550000 15.99940
746 OM 746 OM OM1 746 -0.550000 15.99940
747 OM 747 OM OM1 747 -0.550000 15.99940
748 OM 748 OM OM1 748 -0.550000 15.99940
749 OM 749 OM OM1 749 -0.550000 15.99940
750 OM 750 OM OM1 750 -0.550000 15.99940
751 OM 751 OM OM1 751 -0.550000 15.99940
752 OM 752 OM OM1 752 -0.550000 15.99940
753 OM 753 OM OM1 753 -0.550000 15.99940
754 OM 754 OM OM1 754 -0.550000 15.99940
755 OM 755 OM OM1 755 -0.550000 15.99940
756 OM 756 OM OM1 756 -0.550000 15.99940
757 OM 757 OM OM1 757 -0.550000 15.99940
758 OM 758 OM OM1 758 -0.550000 15.99940
759 OM 759 OM OM1 759 -0.550000 15.99940
760 OM 760 OM OM1 760 -0.550000 15.99940
761 OM 761 OM OM1 761 -0.550000 15.99940
762 OM 762 OM OM1 762 -0.550000 15.99940
763 OM 763 OM OM1 763 -0.550000 15.99940
764 OM 764 OM OM1 764 -0.550000 15.99940
765 OM 765 OM OM1 765 -0.550000 15.99940
766 OM 766 OM OM1 766 -0.550000 15.99940
767 OM 767 OM OM1 767 -0.550000 15.99940
768 OM 768 OM OM1 768 -0.550000 15.99940
769 OM 769 OM OM1 769 -0.550000 15.99940
770 OM 770 OM OM1 770 -0.550000 15.99940
771 OM 771 OM OM1 771 -0.550000 15.99940
772 OM 772 OM OM1 772 -0.550000 15.99940
773 OM 773 OM OM1 773 -0.550000 15.99940
774 OM 774 OM OM1 774 -0.550000 15.99940
775 OM 775 OM OM1 775 -0.550000 15.99940
776 OM 776 OM OM1 776 -0.550000 15.99940
777 OM 777 OM OM1 777 -0.550000 15.99940
778 OM 778 OM OM1 778 -0.550000 15.99940
779 OM 779 OM OM1 779 -0.550000 15.99940
780 OM 780 OM OM1 780 -0.550000 15.99940
781 OM 781 OM OM1 781 -0.550000 15.99940
782 OM 782 OM OM1 782 -0.550000 15.99940
783 OM 783 OM OM1 783 -0.550000 15.99940
784 OM 784 OM OM1 784 -0.550000 15.99940
785 OM 785 OM OM1 785 -0.550000 15.99940
786 OM 786 OM OM1 786 -0.550000 15.99940
787 OM 787 OM OM1 787 -0.550000 15.99940
788 OM 788 OM OM1 788 -0.550000 15.99940
789 OM 789 OM OM1 789 -0.550000 15.99940
790 OM 790 OM OM1 790 -0.550000 15.99940
791 OM 791 OM OM1 791 -0.550000 15.99940
792 OM 792 OM OM1 792 -0.550000 15.99940
793 OM 793 OM OM1 793 -0.550000 15.99940
794 OM 794 OM OM1 794 -0.550000 15.99940
795 OM 795 OM OM1 795 -0.550000 15.99940
796 OM 796 OM OM1 796 -0.550000 15.99940
797 OM 797 OM OM1 797 -0.550000 15.99940
798 OM 798 OM OM1 798 -0.550000 15.99940
799 OM 799 OM OM1 799 -0.550000 15.99940
800 OM 800 OM OM1 800 -0.550000 15.99940
801 OM 801 OM OM1 801 -0.550000 15.99940
802 OM 802 OM OM1 802 -0.550000 15.99940
803 OM 803 OM OM1 803 -0.550000 15.99940
804 OM 804 OM OM1 804 -0.550000 15.99940
805 OM 805 OM OM1 805 -0.550000 15.99940
806 OM 806 OM OM1 806 -0.550000 15.99940
807 OM 807 OM OM1 807 -0.550000 15.99940
808 OM 808 OM OM1 808 -0.550000 15.99940
809 OM 809 OM OM1 809 -0.550000 15.99940
810 OM 810 OM OM1 810 -0.550000 15.99940
811 OM 811 OM OM1 811 -0.550000 15.99940
812 OM 812 OM OM1 812 -0.550000 15.99940
813 OM 813 OM OM1 813 -0.550000 15.99940
814 OM 814 OM OM1 814 -0.550000 15.99940
815 OM 815 OM OM1 815 -0.550000 15.99940
816 OM 816 OM OM1 816 -0.550000 15.99940
817 OM 817 OM OM1 817 -0.550000 15.99940
818 OM 818 OM OM1 818 -0.550000 15.99940
819 OM 819 OM OM1 819 -0.550000 15.99940
820 OM 820 OM OM1 820 -0.550000 15.99940
821 OM 821 OM OM1 821 -0.550000 15.99940
822 OM 822 OM OM1 822 -0.550000 15.99940
823 OM 823 OM OM1 823 -0.550000 15.99940
824 OM 824 OM OM1 824 -0.550000 15.99940
825 OM 825 OM OM1 825 -0.550000 15.99940
826 OM 826 OM OM1 826 -0.550000 15.99940
827 OM 827 OM OM1 827 -0.550000 15.99940
828 OM 828 OM OM1 828 -0.550000 15.99940
829 OM 829 OM OM1 829 -0.550000 15.99940
830 OM 830 OM OM1 830 -0.550000 15.99940
831 OM 831 OM OM1 831 -0.550000 15.99940
832 OM 832 OM OM1 832 -0.550000 15.99940
833 OM 833 OM OM1 833 -0.550000 15.99940
834 OM 834 OM OM1 834 -0.550000 15.99940
835 OM 835 OM OM1 835 -0.550000 15.99940
836 OM 836 OM OM1 836 -0.550000 15.99940
837 OM 837 OM OM1 837 -0.550000 15.99940
838 OM 838 OM OM1 838 -0.550000 15.99940
839 OM 839 OM OM1 839 -0.550000 15.99940
840 OM 840 OM OM1 840 -0.550000 15.99940
841 OM 841 OM OM1 841 -0.550000 15.99940
842 OM 842 OM OM1 842 -0.550000 15.99940
843 OM 843 OM OM1 843 -0.550000 15.99940
844 OM 844 OM OM1 844 -0.550000 15.99940
845 OM 845 OM OM1 845 -0.550000 15.99940
846 OM 846 OM OM1 846 -0.550000 15.99940
847 OM 847 OM OM1 847 -0.550000 15.99940
848 OM 848 OM OM1 848 -0.550000 15.99940
849 OM 849 OM OM1 849 -0.550000 15.99940
850 OM 850 OM OM1 850 -0.550000 15.99940
851 OM 851 OM OM1 851 -0.550000 15.99940
852 OM 852 OM OM1 852 -0.550000 15.99940
853 OM 853 OM OM1 853 -0.550000 15.99940
854 OM 854 OM OM1 854 -0.550000 15.99940
855 OM 855 OM OM1 855 -0.550000 15.99940
856 OM 856 OM OM1 856 -0.550000 15.99940
857 OM 857 OM OM1 857 -0.550000 15.99940
858 OM 858 OM OM1 858 -0.550000 15.99940
859 OM 859 OM OM1 859 -0.550000 15.99940
860 OM 860 OM OM1 860 -0.550000 15.99940
861 OM 861 OM OM1 861 -0.550000 15.99940
862 OM 862 OM OM1 862 -0.550000 15.99940
863 OM 863 OM OM1 863 -0.550000 15.99940
864 OM 864 OM OM1 864 -0.550000 15.99940
865 OM 865 OM OM1 865 -0.550000 15.99940
866 OM 866 OM OM1 866 -0.550000 15.99940
867 OM 867 OM OM1 867 -0.550000 15.99940
868 OM 868 OM OM1 868 -0.550000 15.99940
869 OM 869 OM OM1 869 -0.550000 15.99940
870 OM 870 OM OM1 870 -0.550000 15.99940
871 OM 871 OM OM1 871 -0.550000 15.99940
872 OM 872 OM OM1 872 -0.550000 15.99940
873 OM 873 OM OM1 873 -0.550000 15.99940
874 OM 874 OM OM1 874 -0.550000 15.99940
875 OM 875 OM OM1 875 -0.550000 15.99940
876 OM 876 OM OM1 876 -0.550000 15.99940
877 OM 877 OM OM1 877 -0.550000 15.99940
878 OM 878 OM OM1 878 -0.550000 15.99940
879 OM 879 OM OM1 879 -0.550000 15.99940
880 OM 880 OM OM1 880 -0.550000 15.99940
881 OM 881 OM OM1 881 -0.550000 15.99940
882 OM 882 OM OM1 882 -0.550000 15.99940
883 OM 883 OM OM1 883 -0.550000 15.99940
884 OM 884 OM OM1 884 -0.550000 15.99940
885 OM 885 OM OM1 885 -0.550000 15.99940
886 OM 886 OM OM1 886 -0.550000 15.99940
887 OM 887 OM OM1 887 -0.550000 15.99940
888 OM 888 OM OM1 888 -0.550000 15.99940
889 OM 889 OM OM1 889 -0.550000 15.99940
890 OM 890 OM OM1 890 -0.550000 15.99940
891 OM 891 OM OM1 891 -0.550000 15.99940
892 OM 892 OM OM1 892 -0.550000 15.99940
893 OM 893 OM OM1 893 -0.550000 15.99940
894 OM 894 OM OM1 894 -0.550000 15.99940
895 OM 895 OM OM1 895 -0.550000 15.99940
896 OM 896 OM OM1 896 -0.550000 15.99940
897 OM 897 OM OM1 897 -0.550000 15.99940
898 OM 898 OM OM1 898 -0.550000 15.99940
899 OM 899 OM OM1 899 -0.550000 15.99940
900 OM 900 OM OM1 900 -0.550000 15.99940
901 OM 901 OM OM1 901 -0.550000 15.99940
902 OM 902 OM OM1 902 -0.550000 15.99940
903 OM 903 OM OM1 903 -0.550000 15.99940
904 OM 904 OM OM1 904 -0.550000 15.99940
905 OM 905 OM OM1 905 -0.550000 15.99940
906 OM 906 OM OM1 906 -0.550000 15.99940
907 OM 907 OM OM1 907 -0.550000 15.99940
908 OM 908 OM OM1 908 -0.550000 15.99940
909 OM 909 OM OM1 909 -0.550000 15.99940
910 OM 910 OM OM1 910 -0.550000 15.99940
911 OM 911 OM OM1 911 -0.550000 15.99940
912 OM 912 OM OM1 912 -0.550000 15.99940
913 OM 913 OM OM1 913 -0.550000 15.99940
914 OM 914 OM OM1 914 -0.550000 15.99940
915 OM 915 OM OM1 915 -0.550000 15.99940
916 OM 916 OM OM1 916 -0.550000 15.99940
917 OM 917 OM OM1 917 -0.550000 15.99940
918 OM 918 OM OM1 918 -0.550000 15.99940
919 OM 919 OM OM1 919 -0.550000 15.99940
920 OM 920 OM OM1 920 -0.550000 15.99940
921 OM 921 OM OM1 921 -0.550000 15.99940
922 OM 922 OM OM1 922 -0.550000 15.99940
923 OM 923 OM OM1 923 -0.550000 15.99940
924 OM 924 OM OM1 924 -0.550000 15.99940
925 OM 925 OM OM1 925 -0.550000 15.99940
926 OM 926 OM OM1 926 -0.550000 15.99940
927 OM 927 OM OM1 927 -0.550000 15.99940
928 OM 928 OM OM1 928 -0.550000 15.99940
929 OM 929 OM OM1 929 -0.550000 15.99940
930 OM 930 OM OM1 930 -0.550000 15.99940
931 OM 931 OM OM1 931 -0.550000 15.99940
932 OM 932 OM OM1 932 -0.550000 15.99940
933 OM 933 OM OM1 933 -0.550000 15.99940
934 OM 934 OM OM1 934 -0.550000 15.99940
935 OM 935 OM OM1 935 -0.550000 15.99940
936 OM 936 OM OM1 936 -0.550000 15.99940
937 OM 937 OM OM1 937 -0.550000 15.99940
938 OM 938 OM OM1 938 -0.550000 15.99940
939 OM 939 OM OM1 939 -0.550000 15.99940
940 OM 940 OM OM1 940 -0.550000 15.99940
941 OM 941 OM OM1 941 -0.550000 15.99940
942 OM 942 OM OM1 942 -0.550000 15.99940
943 OM 943 OM OM1 943 -0.550000 15.99940
944 OM 944 OM OM1 944 -0.550000 15.99940
945 OM 945 OM OM1 945 -0.550000 15.99940
946 OM 946 OM OM1 946 -0.550000 15.99940
947 OM 947 OM OM1 947 -0.550000 15.99940
948 OM 948 OM OM1 948 -0.550000 15.99940
949 OM 949 OM OM1 949 -0.550000 15.99940
950 OM 950 OM OM1 950 -0.550000 15.99940
951 OM 951 OM OM1 951 -0.550000 15.99940
952 OM 952 OM OM1 952 -0.550000 15.99940
953 OM 953 OM OM1 953 -0.550000 15.99940
954 OM 954 OM OM1 954 -0.550000 15.99940
955 OM 955 OM OM1 955 -0.550000 15.99940
956 OM 956 OM OM1 956 -0.550000 15.99940
957 OM 957 OM OM1 957 -0.550000 15.99940
958 OM 958 OM OM1 958 -0.550000 15.99940
959 OM 959 OM OM1 959 -0.550000 15.99940
960 OM 960 OM OM1 960 -0.550000 15.99940
961 OM 961 OM OM1 961 -0.550000 15.99940
962 OM 962 OM OM1 962 -0.550000 15.99940
963 OM 963 OM OM1 963 -0.550000 15.99940
964 OM 964 OM OM1 964 -0.550000 15.99940
965 OM 965 OM OM1 965 -0.550000 15.99940
966 OM 966 OM OM1 966 -0.550000 15.99940
967 OM 967 OM OM1 967 -0.550000 15.99940
968 OM 968 OM OM1 968 -0.550000 15.99940
969 OM 969 OM OM1 969 -0.550000 15.99940
970 OM 970 OM OM1 970 -0.550000 15.99940
971 OM 971 OM OM1 971 -0.550000 15.99940
972 OM 972 OM OM1 972 -0.550000 15.99940
973 OM 973 OM OM1 973 -0.550000 15.99940
974 OM 974 OM OM1 974 -0.550000 15.99940
975 OM 975 OM OM1 975 -0.550000 15.99940
976 OM 976 OM OM1 976 -0.550000 15.99940
977 OM 977 OM OM1 977 -0.550000 15.99940
978 OM 978 OM OM1 978 -0.550000 15.99940
979 OM 979 OM OM1 979 -0.550000 15.99940
980 OM 980 OM OM1 980 -0.550000 15.99940
981 OM 981 OM OM1 981 -0.550000 15.99940
982 OM 982 OM OM1 982 -0.550000 15.99940
983 OM 983 OM OM1 983 -0.550000 15.99940
984 OM 984 OM OM1 984 -0.550000 15.99940
985 OM 985 OM OM1 985 -0.550000 15.99940
986 OM 986 OM OM1 986 -0.550000 15.99940
987 OM 987 OM OM1 987 -0.550000 15.99940
988 OM 988 OM OM1 988 -0.550000 15.99940
989 OM 989 OM OM1 989 -0.550000 15.99940
990 OM 990 OM OM1 990 -0.550000 15.99940
991 OM 991 OM OM1 991 -0.550000 15.99940
992 OM 992 OM OM1 992 -0.550000 15.99940
993 OM 993 OM OM1 993 -0.550000 15.99940
994 OM 994 OM OM1 994 -0.550000 15.99940
995 OM 995 OM OM1 995 -0.550000 15.99940
996 OM 996 OM OM1 996 -0.550000 15.99940
997 OM 997 OM OM1 997 -0.550000 15.99940
998 OM 998 OM OM1 998 -0.550000 15.99940
999 OM 999 OM OM1 999 -0.550000 15.99940
1000 OM 1000 OM OM1 1000 -0.550000 15.99940
1001 OM 1001 OM OM1 1001 -0.550000 15.99940
1002 OM 1002 OM OM1 1002 -0.550000 15.99940
1003 OM 1003 OM OM1 1003 -0.550000 15.99940
1004 OM 1004 OM OM1 1004 -0.550000 15.99940
1005 OM 1005 OM OM1 1005 -0.550000 15.99940
1006 OM 1006 OM OM1 1006 -0.550000 15.99940
1007 OM 1007 OM OM1 1007 -0.550000 15.99940
1008 OM 1008 OM OM1 1008 -0.550000 15.99940
1009 OM 1009 OM OM1 1009 -0.550000 15.99940
1010 OM 1010 OM OM1 1010 -0.550000 15.99940
1011 OM 1011 OM OM1 1011 -0.550000 15.99940
1012 OM 1012 OM OM1 1012 -0.550000 15.99940
1013 OM 1013 OM OM1 1013 -0.550000 15.99940
1014 OM 1014 OM OM1 1014 -0.550000 15.99940
1015 OM 1015 OM OM1 1015 -0.550000 15.99940
1016 OM 1016 OM OM1 1016 -0.550000 15.99940
1017 OM 1017 OM OM1 1017 -0.550000 15.99940
1018 OM 1018 OM OM1 1018 -0.550000 15.99940
1019 OM 1019 OM OM1 1019 -0.550000 15.99940
1020 OM 1020 OM OM1 1020 -0.550000 15.99940
1021 OM 1021 OM OM1 1021 -0.550000 15.99940
1022 OM 1022 OM OM1 1022 -0.550000 15.99940
1023 OM 1023 OM OM1 1023 -0.550000 15.99940
1024 OM 1024 OM OM1 1024 -0.550000 15.99940
1025 OM 1025 OM OM1 1025 -0.550000 15.99940
1026 OM 1026 OM OM1 1026 -0.550000 15.99940
1027 OM 1027 OM OM1 1027 -0.550000 15.99940
1028 OM 1028 OM OM1 1028 -0.550000 15.99940
1029 OM 1029 OM OM1 1029 -0.550000 15.99940
1030 OM 1030 OM OM1 1030 -0.550000 15.99940
1031 OM 1031 OM OM1 1031 -0.550000 15.99940
1032 OM 1032 OM OM1 1032 -0.550000 15.99940
1033 OM 1033 OM OM1 1033 -0.550000 15.99940
1034 OM 1034 OM OM1 1034 -0.550000 15.99940
1035 OM 1035 OM OM1 1035 -0.550000 15.99940
1036 OM 1036 OM OM1 1036 -0.550000 15.99940
1037 OM 1037 OM OM1 1037 -0.550000 15.99940
1038 OM 1038 OM OM1 1038 -0.550000 15.99940
1039 OM 1039 OM OM1 1039 -0.550000 15.99940
1040 OM 1040 OM OM1 1040 -0.550000 15.99940
1041 OM 1041 OM OM1 1041 -0.550000 15.99940
1042 OM 1042 OM OM1 1042 -0.550000 15.99940
1043 OM 1043 OM OM1 1043 -0.550000 15.99940
1044 OM 1044 OM OM1 1044 -0.550000 15.99940
1045 OM 1045 OM OM1 1045 -0.550000 15.99940
1046 OM 1046 OM OM1 1046 -0.550000 15.99940
1047 OM 1047 OM OM1 1047 -0.550000 15.99940
1048 OM 1048 OM OM1 1048 -0.550000 15.99940
1049 OM 1049 OM OM1 1049 -0.550000 15.99940
1050 OM 1050 OM OM1 1050 -0.550000 15.99940
1051 OM 1051 OM OM1 1051 -0.550000 15.99940
1052 OM 1052 OM OM1 1052 -0.550000 15.99940
1053 OM 1053 OM OM1 1053 -0.550000 15.99940
1054 OM 1054 OM OM1 1054 -0.550000 15.99940
1055 OM 1055 OM OM1 1055 -0.550000 15.99940
1056 OM 1056 OM OM1 1056 -0.550000 15.99940
1057 OM 1057 OM OM1 1057 -0.550000 15.99940
1058 OM 1058 OM OM1 1058 -0.550000 15.99940
1059 OM 1059 OM OM1 1059 -0.550000 15.99940
1060 OM 1060 OM OM1 1060 -0.550000 15.99940
1061 OM 1061 OM OM1 1061 -0.550000 15.99940
1062 OM 1062 OM OM1 1062 -0.550000 15.99940
1063 OM 1063 OM OM1 1063 -0.550000 15.99940
1064 OM 1064 OM OM1 1064 -0.550000 15.99940
1065 OM 1065 OM OM1 1065 -0.550000 15.99940
1066 OM 1066 OM OM1 1066 -0.550000 15.99940
1067 OM 1067 OM OM1 1067 -0.550000 15.99940
1068 OM 1068 OM OM1 1068 -0.550000 15.99940
1069 OM 1069 OM OM1 1069 -0.550000 15.99940
1070 OM 1070 OM OM1 1070 -0.550000 15.99940
1071 OM 1071 OM OM1 1071 -0.550000 15.99940
1072 OM 1072 OM OM1 1072 -0.550000 15.99940
1073 OM 1073 OM OM1 1073 -0.550000 15.99940
1074 OM 1074 OM OM1 1074 -0.550000 15.99940
1075 OM 1075 OM OM1 1075 -0.550000 15.99940
1076 OM 1076 OM OM1 1076 -0.550000 15.99940
1077 OM 1077 OM OM1 1077 -0.550000 15.99940
1078 OM 1078 OM OM1 1078 -0.550000 15.99940
1079 OM 1079 OM OM1 1079 -0.550000 15.99940
1080 OM 1080 OM OM1 1080 -0.550000 15.99940
1081 OM 1081 OM OM1 1081 -0.550000 15.99940
1082 OM 1082 OM OM1 1082 -0.550000 15.99940
1083 OM 1083 OM OM1 1083 -0.550000 15.99940
1084 OM 1084 OM OM1 1084 -0.550000 15.99940
1085 OM 1085 OM OM1 1085 -0.550000 15.99940
1086 OM 1086 OM OM1 1086 -0.550000 15.99940
1087 OM 1087 OM OM1 1087 -0.550000 15.99940
1088 OM 1088 OM OM1 1088 -0.550000 15.99940
1089 OM 1089 OM OM1 1089 -0.550000 15.99940
1090 OM 1090 OM OM1 1090 -0.550000 15.99940
1091 OM 1091 OM OM1 1091 -0.550000 15.99940
1092 OM 1092 OM OM1 1092 -0.550000 15.99940
1093 OM 1093 OM OM1 1093 -0.550000 15.99940
1094 OM 1094 OM OM1 1094 -0.550000 15.99940
1095 OM 1095 OM OM1 1095 -0.550000 15.99940
1096 OM 1096 OM OM1 1096 -0.550000 15.99940
1097 OM 1097 OM OM1 1097 -0.550000 15.99940
1098 OM 1098 OM OM1 1098 -0.550000 15.99940
1099 OM 1099 OM OM1 1099 -0.550000 15.99940
1100 OM 1100 OM OM1 1100 -0.550000 15.99940
1101 OM 1101 OM OM1 1101 -0.550000 15.99940
1102 OM 1102 OM OM1 1102 -0.550000 15.99940
1103 OM 1103 OM OM1 1103 -0.550000 15.99940
1104 OM 1104 OM OM1 1104 -0.550000 15.99940
1105 OM 1105 OM OM1 1105 -0.550000 15.99940
1106 OM 1106 OM OM1 1106 -0.550000 15.99940
1107 OM 1107 OM OM1 1107 -0.550000 15.99940
1108 OM 1108 OM OM1 1108 -0.550000 15.99940
1109 OM 1109 OM OM1 1109 -0.550000 15.99940
1110 OM 1110 OM OM1 1110 -0.550000 15.99940
1111 OM 1111 OM OM1 1111 -0.550000 15.99940
1112 OM 1112 OM OM1 1112 -0.550000 15.99940
1113 OM 1113 OM OM1 1113 -0.550000 15.99940
1114 OM 1114 OM OM1 1114 -0.550000 15.99940
1115 OM 1115 OM OM1 1115 -0.550000 15.99940
1116 OM 1116 OM OM1 1116 -0.550000 15.99940
1117 OM 1117 OM OM1 1117 -0.550000 15.99940
1118 OM 1118 OM OM1 1118 -0.550000 15.99940
1119 OM 1119 OM OM1 1119 -0.550000 15.99940
1120 OM 1120 OM OM1 1120 -0.550000 15.99940
1121 OM 1121 OM OM1 1121 -0.550000 15.99940
1122 OM 1122 OM OM1 1122 -0.550000 15.99940
1123 OM 1123 OM OM1 1123 -0.550000 15.99940
1124 OM 1124 OM OM1 1124 -0.550000 15.99940
1125 OM 1125 OM OM1 1125 -0.550000 15.99940
1126 OM 1126 OM OM1 1126 -0.550000 15.99940
1127 OM 1127 OM OM1 1127 -0.550000 15.99940
1128 OM 1128 OM OM1 1128 -0.550000 15.99940
1129 OM 1129 OM OM1 1129 -0.550000 15.99940
1130 OM 1130 OM OM1 1130 -0.550000 15.99940
1131 OM 1131 OM OM1 1131 -0.550000 15.99940
1132 OM 1132 OM OM1 1132 -0.550000 15.99940
1133 OM 1133 OM OM1 1133 -0.550000 15.99940
1134 OM 1134 OM OM1 1134 -0.550000 15.99940
1135 OM 1135 OM OM1 1135 -0.550000 15.99940
1136 OM 1136 OM OM1 1136 -0.550000 15.99940
1137 OM 1137 OM OM1 1137 -0.550000 15.99940
1138 OM 1138 OM OM1 1138 -0.550000 15.99940
1139 OM 1139 OM OM1 1139 -0.550000 15.99940
1140 OM 1140 OM OM1 1140 -0.550000 15.99940
1141 OM 1141 OM OM1 1141 -0.550000 15.99940
1142 OM 1142 OM OM1 1142 -0.550000 15.99940
1143 OM 1143 OM OM1 1143 -0.550000 15.99940
1144 OM 1144 OM OM1 1144 -0.550000 15.99940
1145 OM 1145 OM OM1 1145 -0.550000 15.99940
1146 OM 1146 OM OM1 1146 -0.550000 15.99940
1147 OM 1147 OM OM1 1147 -0.550000 15.99940
1148 OM 1148 OM OM1 1148 -0.550000 15.99940
1149 OM 1149 OM OM1 1149 -0.550000 15.99940
1150 OM 1150 OM OM1 1150 -0.550000 15.99940
1151 OM 1151 OM OM1 1151 -0.550000 15.99940
1152 OM 1152 OM OM1 1152 -0.550000 15.99940
1153 OM 1153 OM OM1 1153 -0.550000 15.99940
1154 OM 1154 OM OM1 1154 -0.550000 15.99940
1155 OM 1155 OM OM1 1155 -0.550000 15.99940
1156 OM 1156 OM OM1 1156 -0.550000 15.99940
1157 OM 1157 OM OM1 1157 -0.550000 15.99940
1158 OM 1158 OM OM1 1158 -0.550000 15.99940
1159 OM 1159 OM OM1 1159 -0.550000 15.99940
1160 OM 1160 OM OM1 1160 -0.550000 15.99940
1161 OM 1161 OM OM1 1161 -0.550000 15.99940
1162 OM 1162 OM OM1 1162 -0.550000 15.99940
1163 OM 1163 OM OM1 1163 -0.550000 15.99940
1164 OM 1164 OM OM1 1164 -0.550000 15.99940
1165 OM 1165 OM OM1 1165 -0.550000 15.99940
1166 OM 1166 OM OM1 1166 -0.550000 15.99940
1167 OM 1167 OM OM1 1167 -0.550000 15.99940
1168 OM 1168 OM OM1 1168 -0.550000 15.99940
1169 OM 1169 OM OM1 1169 -0.550000 15.99940
1170 OM 1170 OM OM1 1170 -0.550000 15.99940
1171 OM 1171 OM OM1 1171 -0.550000 15.99940
1172 OM 1172 OM OM1 1172 -0.550000 15.99940
1173 OM 1173 OM OM1 1173 -0.550000 15.99940
1174 OM 1174 OM OM1 1174 -0.550000 15.99940
1175 OM 1175 OM OM1 1175 -0.550000 15.99940
1176 OM 1176 OM OM1 1176 -0.550000 15.99940
1177 OM 1177 OM OM1 1177 -0.550000 15.99940
1178 OM 1178 OM OM1 1178 -0.550000 15.99940
1179 OM 1179 OM OM1 1179 -0.550000 15.99940
1180 OM 1180 OM OM1 1180 -0.550000 15.99940
1181 OM 1181 OM OM1 1181 -0.550000 15.99940
1182 OM 1182 OM OM1 1182 -0.550000 15.99940
1183 OM 1183 OM OM1 1183 -0.550000 15.99940
1184 OM 1184 OM OM1 1184 -0.550000 15.99940
1185 OM 1185 OM OM1 1185 -0.550000 15.99940
1186 OM 1186 OM OM1 1186 -0.550000 15.99940
1187 OM 1187 OM OM1 1187 -0.550000 15.99940
1188 OM 1188 OM OM1 1188 -0.550000 15.99940
1189 OM 1189 OM OM1 1189 -0.550000 15.99940
1190 OM 1190 OM OM1 1190 -0.550000 15.99940
1191 OM 1191 OM OM1 1191 -0.550000 15.99940
1192 OM 1192 OM OM1 1192 -0.550000 15.99940
1193 OM 1193 OM OM1 1193 -0.550000 15.99940
1194 OM 1194 OM OM1 1194 -0.550000 15.99940
1195 OM 1195 OM OM1 1195 -0.550000 15.99940
1196 OM 1196 OM OM1 1196 -0.550000 15.99940
1197 OM 1197 OM OM1 1197 -0.550000 15.99940
1198 OM 1198 OM OM1 1198 -0.550000 15.99940
1199 OM 1199 OM OM1 1199 -0.550000 15.99940
1200 OM 1200 OM OM1 1200 -0.550000 15.99940
1201 OM 1201 OM OM1 1201 -0.550000 15.99940
1202 OM 1202 OM OM1 1202 -0.550000 15.99940
1203 OM 1203 OM OM1 1203 -0.550000 15.99940
1204 OM 1204 OM OM1 1204 -0.550000 15.99940
1205 OM 1205 OM OM1 1205 -0.550000 15.99940
1206 OM 1206 OM OM1 1206 -0.550000 15.99940
1207 OM 1207 OM OM1 1207 -0.550000 15.99940
1208 OM 1208 OM OM1 1208 -0.550000 15.99940
1209 OM 1209 OM OM1 1209 -0.550000 15.99940
1210 OM 1210 OM OM1 1210 -0.550000 15.99940
1211 OM 1211 OM OM1 1211 -0.550000 15.99940
1212 OM 1212 OM OM1 1212 -0.550000 15.99940
1213 OM 1213 OM OM1 1213 -0.550000 15.99940
1214 OM 1214 OM OM1 1214 -0.550000 15.99940
1215 OM 1215 OM OM1 1215 -0.550000 15.99940
1216 OM 1216 OM OM1 1216 -0.550000 15.99940
1217 OM 1217 OM OM1 1217 -0.550000 15.99940
1218 OM 1218 OM OM1 1218 -0.550000 15.99940
1219 OM 1219 OM OM1 1219 -0.550000 15.99940
1220 OM 1220 OM OM1 1220 -0.550000 15.99940
1221 OM 1221 OM OM1 1221 -0.550000 15.99940
1222 OM 1222 OM OM1 1222 -0.550000 15.99940
1223 OM 1223 OM OM1 1223 -0.550000 15.99940
1224 OM 1224 OM OM1 1224 -0.550000 15.99940
1225 OM 1225 OM OM1 1225 -0.550000 15.99940
1226 OM 1226 OM OM1 1226 -0.550000 15.99940
1227 OM 1227 OM OM1 1227 -0.550000 15.99940
1228 OM 1228 OM OM1 1228 -0.550000 15.99940
1229 OM 1229 OM OM1 1229 -0.550000 15.99940
1230 OM 1230 OM OM1 1230 -0.550000 15.99940
1231 OM 1231 OM OM1 1231 -0.550000 15.99940
1232 OM 1232 OM OM1 1232 -0.550000 15.99940
1233 OM 1233 OM OM1 1233 -0.550000 15.99940
1234 OM 1234 OM OM1 1234 -0.550000 15.99940
1235 OM 1235 OM OM1 1235 -0.550000 15.99940
1236 OM 1236 OM OM1 1236 -0.550000 15.99940
1237 OM 1237 OM OM1 1237 -0.550000 15.99940
1238 OM 1238 OM OM1 1238 -0.550000 15.99940
1239 OM 1239 OM OM1 1239 -0.550000 15.99940
1240 OM 1240 OM OM1 1240 -0.550000 15.99940
1241 OM 1241 OM OM1 1241 -0.550000 15.99940
1242 OM 1242 OM OM1 1242 -0.550000 15.99940
1243 OM 1243 OM OM1 1243 -0.550000 15.99940
1244 OM 1244 OM OM1 1244 -0.550000 15.99940
1245 OM 1245 OM OM1 1245 -0.550000 15.99940
1246 OM 1246 OM OM1 1246 -0.550000 15.99940
1247 OM 1247 OM OM1 1247 -0.550000 15.99940
1248 OM 1248 OM OM1 1248 -0.550000 15.99940
1249 OM 1249 OM OM1 1249 -0.550000 15.99940
1250 OM 1250 OM OM1 1250 -0.550000 15.99940
1251 OM 1251 OM OM1 1251 -0.550000 15.99940
1252 OM 1252 OM OM1 1252 -0.550000 15.99940
1253 OM 1253 OM OM1 1253 -0.550000 15.99940
1254 OM 1254 OM OM1 1254 -0.550000 15.99940
1255 OM 1255 OM OM1 1255 -0.550000 15.99940
1256 OM 1256 OM OM1 1256 -0.550000 15.99940
1257 OM 1257 OM OM1 1257 -0.550000 15.99940
1258 OM 1258 OM OM1 1258 -0.550000 15.99940
1259 OM 1259 OM OM1 1259 -0.550000 15.99940
1260 OM 1260 OM OM1 1260 -0.550000 15.99940
1261 OM 1261 OM OM1 1261 -0.550000 15.99940
1262 OM 1262 OM OM1 1262 -0.550000 15.99940
1263 OM 1263 OM OM1 1263 -0.550000 15.99940
1264 OM 1264 OM OM1 1264 -0.550000 15.99940
1265 OM 1265 OM OM1 1265 -0.550000 15.99940
1266 OM 1266 OM OM1 1266 -0.550000 15.99940
1267 OM 1267 OM OM1 1267 -0.550000 15.99940
1268 OM 1268 OM OM1 1268 -0.550000 15.99940
1269 OM 1269 OM OM1 1269 -0.550000 15.99940
1270 OM 1270 OM OM1 1270 -0.550000 15.99940
1271 OM 1271 OM OM1 1271 -0.550000 15.99940
1272 OM 1272 OM OM1 1272 -0.550000 15.99940
1273 OM 1273 OM OM1 1273 -0.550000 15.99940
1274 OM 1274 OM OM1 1274 -0.550000 15.99940
1275 OM 1275 OM OM1 1275 -0.550000 15.99940
1276 OM 1276 OM OM1 1276 -0.550000 15.99940
1277 OM 1277 OM OM1 1277 -0.550000 15.99940
1278 OM 1278 OM OM1 1278 -0.550000 15.99940
1279 OM 1279 OM OM1 1279 -0.550000 15.99940
1280 OM 1280 OM OM1 1280 -0.550000 15.99940
1281 OM 1281 OM OM1 1281 -0.550000 15.99940
1282 OM 1282 OM OM1 1282 -0.550000 15.99940
1283 OM 1283 OM OM1 1283 -0.550000 15.99940
1284 OM 1284 OM OM1 1284 -0.550000 15.99940
1285 OM 1285 OM OM1 1285 -0.550000 15.99940
1286 OM 1286 OM OM1 1286 -0.550000 15.99940
1287 OM 1287 OM OM1 1287 -0.550000 15.99940
1288 OM 1288 OM OM1 1288 -0.550000 15.99940
1289 OM 1289 OM OM1 1289 -0.550000 15.99940
1290 OM 1290 OM OM1 1290 -0.550000 15.99940
1291 OM 1291 OM OM1 1291 -0.550000 15.99940
1292 OM 1292 OM OM1 1292 -0.550000 15.99940
1293 OM 1293 OM OM1 1293 -0.550000 15.99940
1294 OM 1294 OM OM1 1294 -0.550000 15.99940
1295 OM 1295 OM OM1 1295 -0.550000 15.99940
1296 OM 1296 OM OM1 1296 -0.550000 15.99940
1297 OM 1297 OM OM1 1297 -0.550000 15.99940
1298 OM 1298 OM OM1 1298 -0.550000 15.99940
1299 OM 1299 OM OM1 1299 -0.550000 15.99940
1300 OM 1300 OM OM1 1300 -0.550000 15.99940
1301 OM 1301 OM OM1 1301 -0.550000 15.99940
1302 OM 1302 OM OM1 1302 -0.550000 15.99940
1303 OM 1303 OM OM1 1303 -0.550000 15.99940
1304 OM 1304 OM OM1 1304 -0.550000 15.99940
1305 OM 1305 OM OM1 1305 -0.550000 15.99940
1306 OM 1306 OM OM1 1306 -0.550000 15.99940
1307 OM 1307 OM OM1 1307 -0.550000 15.99940
1308 OM 1308 OM OM1 1308 -0.550000 15.99940
1309 OM 1309 OM OM1 1309 -0.550000 15.99940
1310 OM 1310 OM OM1 1310 -0.550000 15.99940
1311 OM 1311 OM OM1 1311 -0.550000 15.99940
1312 OM 1312 OM OM1 1312 -0.550000 15.99940
1313 OM 1313 OM OM1 1313 -0.550000 15.99940
1314 OM 1314 OM OM1 1314 -0.550000 15.99940
1315 OM 1315 OM OM1 1315 -0.550000 15.99940
1316 OM 1316 OM OM1 1316 -0.550000 15.99940
1317 OM 1317 OM OM1 1317 -0.550000 15.99940
1318 OM 1318 OM OM1 1318 -0.550000 15.99940
1319 OM 1319 OM OM1 1319 -0.550000 15.99940
1320 OM 1320 OM OM1 1320 -0.550000 15.99940
1321 OM 1321 OM OM1 1321 -0.550000 15.99940
1322 OM 1322 OM OM1 1322 -0.550000 15.99940
1323 OM 1323 OM OM1 1323 -0.550000 15.99940
1324 OM 1324 OM OM1 1324 -0.550000 15.99940
1325 OM 1325 OM OM1 1325 -0.550000 15.99940
1326 OM 1326 OM OM1 1326 -0.550000 15.99940
1327 OM 1327 OM OM1 1327 -0.550000 15.99940
1328 OM 1328 OM OM1 1328 -0.550000 15.99940
1329 OM 1329 OM OM1 1329 -0.550000 15.99940
1330 OM 1330 OM OM1 1330 -0.550000 15.99940
1331 OM 1331 OM OM1 1331 -0.550000 15.99940
1332 OM 1332 OM OM1 1332 -0.550000 15.99940
1333 OM 1333 OM OM1 1333 -0.550000 15.99940
1334 OM 1334 OM OM1 1334 -0.550000 15.99940
1335 OM 1335 OM OM1 1335 -0.550000 15.99940
1336 OM 1336 OM OM1 1336 -0.550000 15.99940
1337 OM 1337 OM OM1 1337 -0.550000 15.99940
1338 OM 1338 OM OM1 1338 -0.550000 15.99940
1339 OM 1339 OM OM1 1339 -0.550000 15.99940
1340 OM 1340 OM OM1 1340 -0.550000 15.99940
1341 OM 1341 OM OM1 1341 -0.550000 15.99940
1342 OM 1342 OM OM1 1342 -0.550000 15.99940
1343 OM 1343 OM OM1 1343 -0.550000 15.99940
1344 OM 1344 OM OM1 1344 -0.550000 15.99940
1345 OM 1345 OM OM1 1345 -0.550000 15.99940
1346 OM 1346 OM OM1 1346 -0.550000 15.99940
1347 OM 1347 OM OM1 1347 -0.550000 15.99940
1348 OM 1348 OM OM1 1348 -0.550000 15.99940
1349 OM 1349 OM OM1 1349 -0.550000 15.99940
1350 OM 1350 OM OM1 1350 -0.550000 15.99940
1351 OM 1351 OM OM1 1351 -0.550000 15.99940
1352 OM 1352 OM OM1 1352 -0.550000 15.99940
1353 OM 1353 OM OM1 1353 -0.550000 15.99940
1354 OM 1354 OM OM1 1354 -0.550000 15.99940
1355 OM 1355 OM OM1 1355 -0.550000 15.99940
1356 OM 1356 OM OM1 1356 -0.550000 15.99940
1357 OM 1357 OM OM1 1357 -0.550000 15.99940
1358 OM 1358 OM OM1 1358 -0.550000 15.99940
1359 OM 1359 OM OM1 1359 -0.550000 15.99940
1360 OM 1360 OM OM1 1360 -0.550000 15.99940
1361 OM 1361 OM OM1 1361 -0.550000 15.99940
1362 OM 1362 OM OM1 1362 -0.550000 15.99940
1363 OM 1363 OM OM1 1363 -0.550000 15.99940
1364 OM 1364 OM OM1 1364 -0.550000 15.99940
1365 OM 1365 OM OM1 1365 -0.550000 15.99940
1366 OM 1366 OM OM1 1366 -0.550000 15.99940
1367 OM 1367 OM OM1 1367 -0.550000 15.99940
1368 OM 1368 OM OM1 1368 -0.550000 15.99940
1369 OM 1369 OM OM1 1369 -0.550000 15.99940
1370 OM 1370 OM OM1 1370 -0.550000 15.99940
1371 OM 1371 OM OM1 1371 -0.550000 15.99940
1372 OM 1372 OM OM1 1372 -0.550000 15.99940
1373 OM 1373 OM OM1 1373 -0.550000 15.99940
1374 OM 1374 OM OM1 1374 -0.550000 15.99940
1375 OM 1375 OM OM1 1375 -0.550000 15.99940
1376 OM 1376 OM OM1 1376 -0.550000 15.99940
1377 OM 1377 OM OM1 1377 -0.550000 15.99940
1378 OM 1378 OM OM1 1378 -0.550000 15.99940
1379 OM 1379 OM OM1 1379 -0.550000 15.99940
1380 OM 1380 OM OM1 1380 -0.550000 15.99940
1381 OM 1381 OM OM1 1381 -0.550000 15.99940
1382 OM 1382 OM OM1 1382 -0.550000 15.99940
1383 OM 1383 OM OM1 1383 -0.550000 15.99940
1384 OM 1384 OM OM1 1384 -0.550000 15.99940
1385 OM 1385 OM OM1 1385 -0.550000 15.99940
1386 OM 1386 OM OM1 1386 -0.550000 15.99940
1387 OM 1387 OM OM1 1387 -0.550000 15.99940
1388 OM 1388 OM OM1 1388 -0.550000 15.99940
1389 OM 1389 OM OM1 1389 -0.550000 15.99940
1390 OM 1390 OM OM1 1390 -0.550000 15.99940
1391 OM 1391 OM OM1 1391 -0.550000 15.99940
1392 OM 1392 OM OM1 1392 -0.550000 15.99940
1393 OM 1393 OM OM1 1393 -0.550000 15.99940
1394 OM 1394 OM OM1 1394 -0.550000 15.99940
1395 OM 1395 OM OM1 1395 -0.550000 15.99940
1396 OM 1396 OM OM1 1396 -0.550000 15.99940
1397 OM 1397 OM OM1 1397 -0.550000 15.99940
1398 OM 1398 OM OM1 1398 -0.550000 15.99940
1399 OM 1399 OM OM1 1399 -0.550000 15.99940
1400 OM 1400 OM OM1 1400 -0.550000 15.99940
1401 OM 1401 OM OM1 1401 -0.550000 15.99940
1402 OM 1402 OM OM1 1402 -0.550000 15.99940
1403 OM 1403 OM OM1 1403 -0.550000 15.99940
1404 OM 1404 OM OM1 1404 -0.550000 15.99940
1405 OM 1405 OM OM1 1405 -0.550000 15.99940
1406 OM 1406 OM OM1 1406 -0.550000 15.99940
1407 OM 1407 OM OM1 1407 -0.550000 15.99940
1408 OM 1408 OM OM1 1408 -0.550000 15.99940
1409 OM 1409 OM OM1 1409 -0.550000 15.99940
1410 OM 1410 OM OM1 1410 -0.550000 15.99940
1411 OM 1411 OM OM1 1411 -0.550000 15.99940
1412 OM 1412 OM OM1 1412 -0.550000 15.99940
1413 OM 1413 OM OM1 1413 -0.550000 15.99940
1414 OM 1414 OM OM1 1414 -0.550000 15.99940
1415 OM 1415 OM OM1 1415 -0.550000 15.99940
1416 OM 1416 OM OM1 1416 -0.550000 15.99940
1417 OM 1417 OM OM1 1417 -0.550000 15.99940
1418 OM 1418 OM OM1 1418 -0.550000 15.99940
1419 OM 1419 OM OM1 1419 -0.550000 15.99940
1420 OM 1420 OM OM1 1420 -0.550000 15.99940
1421 OM 1421 OM OM1 1421 -0.550000 15.99940
1422 OM 1422 OM OM1 1422 -0.550000 15.99940
1423 OM 1423 OM OM1 1423 -0.550000 15.99940
1424 OM 1424 OM OM1 1424 -0.550000 15.99940
1425 OM 1425 OM OM1 1425 -0.550000 15.99940
1426 OM 1426 OM OM1 1426 -0.550000 15.99940
1427 OM 1427 OM OM1 1427 -0.550000 15.99940
1428 OM 1428 OM OM1 1428 -0.550000 15.99940
1429 OM 1429 OM OM1 1429 -0.550000 15.99940
1430 OM 1430 OM OM1 1430 -0.550000 15.99940
1431 OM 1431 OM OM1 1431 -0.550000 15.99940
1432 OM 1432 OM OM1 1432 -0.550000 15.99940
1433 OM 1433 OM OM1 1433 -0.550000 15.99940
1434 OM 1434 OM OM1 1434 -0.550000 15.99940
1435 OM 1435 OM OM1 1435 -0.550000 15.99940
1436 OM 1436 OM OM1 1436 -0.550000 15.99940
1437 OM 1437 OM OM1 1437 -0.550000 15.99940
1438 OM 1438 OM OM1 1438 -0.550000 15.99940
1439 OM 1439 OM OM1 1439 -0.550000 15.99940
1440 OM 1440 OM OM1 1440 -0.550000 15.99940
1441 OM 1441 OM OM1 1441 -0.550000 15.99940
1442 OM 1442 OM OM1 1442 -0.550000 15.99940
1443 OM 1443 OM OM1 1443 -0.550000 15.99940
1444 OM 1444 OM OM1 1444 -0.550000 15.99940
1445 OM 1445 OM OM1 1445 -0.550000 15.99940
1446 OM 1446 OM OM1 1446 -0.550000 15.99940
1447 OM 1447 OM OM1 1447 -0.550000 15.99940
1448 OM 1448 OM OM1 1448 -0.550000 15.99940
1449 OM 1449 OM OM1 1449 -0.550000 15.99940
1450 OM 1450 OM OM1 1450 -0.550000 15.99940
1451 OM 1451 OM OM1 1451 -0.550000 15.99940
1452 OM 1452 OM OM1 1452 -0.550000 15.99940
1453 OM 1453 OM OM1 1453 -0.550000 15.99940
1454 OM 1454 OM OM1 1454 -0.550000 15.99940
1455 OM 1455 OM OM1 1455 -0.550000 15.99940
1456 OM 1456 OM OM1 1456 -0.550000 15.99940
1457 OM 1457 OM OM1 1457 -0.550000 15.99940
1458 OM 1458 OM OM1 1458 -0.550000 15.99940
1459 OM 1459 OM OM1 1459 -0.550000 15.99940
1460 OM 1460 OM OM1 1460 -0.550000 15.99940
1461 OM 1461 OM OM1 1461 -0.550000 15.99940
1462 OM 1462 OM OM1 1462 -0.550000 15.99940
1463 OM 1463 OM OM1 1463 -0.550000 15.99940
1464 OM 1464 OM OM1 1464 -0.550000 15.99940
1465 OM 1465 OM OM1 1465 -0.550000 15.99940
1466 OM 1466 OM OM1 1466 -0.550000 15.99940
1467 OM 1467 OM OM1 1467 -0.550000 15.99940
1468 OM 1468 OM OM1 1468 -0.550000 15.99940
1469 OM 1469 OM OM1 1469 -0.550000 15.99940
1470 OM 1470 OM OM1 1470 -0.550000 15.99940
1471 OM 1471 OM OM1 1471 -0.550000 15.99940
1472 OM 1472 OM OM1 1472 -0.550000 15.99940
1473 OM 1473 OM OM1 1473 -0.550000 15.99940
1474 OM 1474 OM OM1 1474 -0.550000 15.99940
1475 OM 1475 OM OM1 1475 -0.550000 15.99940
1476 OM 1476 OM OM1 1476 -0.550000 15.99940
1477 OM 1477 OM OM1 1477 -0.550000 15.99940
1478 OM 1478 OM OM1 1478 -0.550000 15.99940
1479 OM 1479 OM OM1 1479 -0.550000 15.99940
1480 OM 1480 OM OM1 1480 -0.550000 15.99940
1481 OM 1481 OM OM1 1481 -0.550000 15.99940
1482 OM 1482 OM OM1 1482 -0.550000 15.99940
1483 OM 1483 OM OM1 1483 -0.550000 15.99940
1484 OM 1484 OM OM1 1484 -0.550000 15.99940
1485 OM 1485 OM OM1 1485 -0.550000 15.99940
1486 OM 1486 OM OM1 1486 -0.550000 15.99940
1487 OM 1487 OM OM1 1487 -0.550000 15.99940
1488 OM 1488 OM OM1 1488 -0.550000 15.99940
1489 OM 1489 OM OM1 1489 -0.550000 15.99940
1490 OM 1490 OM OM1 1490 -0.550000 15.99940
1491 OM 1491 OM OM1 1491 -0.550000 15.99940
1492 OM 1492 OM OM1 1492 -0.550000 15.99940
1493 OM 1493 OM OM1 1493 -0.550000 15.99940
1494 OM 1494 OM OM1 1494 -0.550000 15.99940
1495 OM 1495 OM OM1 1495 -0.550000 15.99940
1496 OM 1496 OM OM1 1496 -0.550000 15.99940
1497 OM 1497 OM OM1 1497 -0.550000 15.99940
1498 OM 1498 OM OM1 1498 -0.550000 15.99940
1499 OM 1499 OM OM1 1499 -0.550000 15.99940
1500 OM 1500 OM OM1 1500 -0.550000 15.99940
1501 OM 1501 OM OM1 1501 -0.550000 15.99940
1502 OM 1502 OM OM1 1502 -0.550000 15.99940
1503 OM 1503 OM OM1 1503 -0.550000 15.99940
1504 OM 1504 OM OM1 1504 -0.550000 15.99940
1505 OM 1505 OM OM1 1505 -0.550000 15.99940
1506 OM 1506 OM OM1 1506 -0.550000 15.99940
1507 OM 1507 OM OM1 1507 -0.550000 15.99940
1508 OM 1508 OM OM1 1508 -0.550000 15.99940
1509 OM 1509 OM OM1 1509 -0.550000 15.99940
1510 OM 1510 OM OM1 1510 -0.550000 15.99940
1511 OM 1511 OM OM1 1511 -0.550000 15.99940
1512 OM 1512 OM OM1 1512 -0.550000 15.99940
1513 OM 1513 OM OM1 1513 -0.550000 15.99940
1514 OM 1514 OM OM1 1514 -0.550000 15.99940
1515 OM 1515 OM OM1 1515 -0.550000 15.99940
1516 OM 1516 OM OM1 1516 -0.550000 15.99940
1517 OM 1517 OM OM1 1517 -0.550000 15.99940
1518 OM 1518 OM OM1 1518 -0.550000 15.99940
1519 OM 1519 OM OM1 1519 -0.550000 15.99940
1520 OM 1520 OM OM1 1520 -0.550000 15.99940
1521 OM 1521 OM OM1 1521 -0.550000 15.99940
1522 OM 1522 OM OM1 1522 -0.550000 15.99940
1523 OM 1523 OM OM1 1523 -0.550000 15.99940
1524 OM 1524 OM OM1 1524 -0.550000 15.99940
1525 OM 1525 OM OM1 1525 -0.550000 15.99940
1526 OM 1526 OM OM1 1526 -0.550000 15.99940
1527 OM 1527 OM OM1 1527 -0.550000 15.99940
1528 OM 1528 OM OM1 1528 -0.550000 15.99940
1529 OM 1529 OM OM1 1529 -0.550000 15.99940
1530 OM 1530 OM OM1 1530 -0.550000 15.99940
1531 OM 1531 OM OM1 1531 -0.550000 15.99940
1532 OM 1532 OM OM1 1532 -0.550000 15.99940
1533 OM 1533 OM OM1 1533 -0.550000 15.99940
1534 OM 1534 OM OM1 1534 -0.550000 15.99940
1535 OM 1535 OM OM1 1535 -0.550000 15.99940
1536 OM 1536 OM OM1 1536 -0.550000 15.99940
1537 OM 1537 OM OM1 1537 -0.550000 15.99940
1538 OM 1538 OM OM1 1538 -0.550000 15.99940
1539 OM 1539 OM OM1 1539 -0.550000 15.99940
1540 OM 1540 OM OM1 1540 -0.550000 15.99940
1541 OM 1541 OM OM1 1541 -0.550000 15.99940
1542 OM 1542 OM OM1 1542 -0.550000 15.99940
1543 OM 1543 OM OM1 1543 -0.550000 15.99940
1544 OM 1544 OM OM1 1544 -0.550000 15.99940
1545 OM 1545 OM OM1 1545 -0.550000 15.99940
1546 OM 1546 OM OM1 1546 -0.550000 15.99940
1547 OM 1547 OM OM1 1547 -0.550000 15.99940
1548 OM 1548 OM OM1 1548 -0.550000 15.99940
1549 OM 1549 OM OM1 1549 -0.550000 15.99940
1550 OM 1550 OM OM1 1550 -0.550000 15.99940
1551 OM 1551 OM OM1 1551 -0.550000 15.99940
1552 OM 1552 OM OM1 1552 -0.550000 15.99940
1553 OM 1553 OM OM1 1553 -0.550000 15.99940
1554 OM 1554 OM OM1 1554 -0.550000 15.99940
1555 OM 1555 OM OM1 1555 -0.550000 15.99940
1556 OM 1556 OM OM1 1556 -0.550000 15.99940
1557 OM 1557 OM OM1 1557 -0.550000 15.99940
1558 OM 1558 OM OM1 1558 -0.550000 15.99940
1559 OM 1559 OM OM1 1559 -0.550000 15.99940
1560 OM 1560 OM OM1 1560 -0.550000 15.99940
1561 OM 1561 OM OM1 1561 -0.550000 15.99940
1562 OM 1562 OM OM1 1562 -0.550000 15.99940
1563 OM 1563 OM OM1 1563 -0.550000 15.99940
1564 OM 1564 OM OM1 1564 -0.550000 15.99940
1565 OM 1565 OM OM1 1565 -0.550000 15.99940
1566 OM 1566 OM OM1 1566 -0.550000 15.99940
1567 OM 1567 OM OM1 1567 -0.550000 15.99940
1568 OM 1568 OM OM1 1568 -0.550000 15.99940
1569 OM 1569 OM OM1 1569 -0.550000 15.99940
1570 OM 1570 OM OM1 1570 -0.550000 15.99940
1571 OM 1571 OM OM1 1571 -0.550000 15.99940
1572 OM 1572 OM OM1 1572 -0.550000 15.99940
1573 OM 1573 OM OM1 1573 -0.550000 15.99940
1574 OM 1574 OM OM1 1574 -0.550000 15.99940
1575 OM 1575 OM OM1 1575 -0.550000 15.99940
1576 OM 1576 OM OM1 1576 -0.550000 15.99940
1577 OM 1577 OM OM1 1577 -0.550000 15.99940
1578 OM 1578 OM OM1 1578 -0.550000 15.99940
1579 OM 1579 OM OM1 1579 -0.550000 15.99940
1580 OM 1580 OM OM1 1580 -0.550000 15.99940
1581 OM 1581 OM OM1 1581 -0.550000 15.99940
1582 OM 1582 OM OM1 1582 -0.550000 15.99940
1583 OM 1583 OM OM1 1583 -0.550000 15.99940
1584 OM 1584 OM OM1 1584 -0.550000 15.99940
1585 OM 1585 OM OM1 1585 -0.550000 15.99940
1586 OM 1586 OM OM1 1586 -0.550000 15.99940
1587 OM 1587 OM OM1 1587 -0.550000 15.99940
1588 OM 1588 OM OM1 1588 -0.550000 15.99940
1589 OM 1589 OM OM1 1589 -0.550000 15.99940
1590 OM 1590 OM OM1 1590 -0.550000 15.99940
1591 OM 1591 OM OM1 1591 -0.550000 15.99940
1592 OM 1592 OM OM1 1592 -0.550000 15.99940
1593 OM 1593 OM OM1 1593 -0.550000 15.99940
1594 OM 1594 OM OM1 1594 -0.550000 15.99940
1595 OM 1595 OM OM1 1595 -0.550000 15.99940
1596 OM 1596 OM OM1 1596 -0.550000 15.99940
1597 OM 1597 OM OM1 1597 -0.550000 15.99940
1598 OM 1598 OM OM1 1598 -0.550000 15.99940
1599 OM 1599 OM OM1 1599 -0.550000 15.99940
1600 OM 1600 OM OM1 1600 -0.550000 15.99940
1601 OM 1601 OM OM1 1601 -0.550000 15.99940
1602 OM 1602 OM OM1 1602 -0.550000 15.99940
1603 OM 1603 OM OM1 1603 -0.550000 15.99940
1604 OM 1604 OM OM1 1604 -0.550000 15.99940
1605 OM 1605 OM OM1 1605 -0.550000 15.99940
1606 OM 1606 OM OM1 1606 -0.550000 15.99940
1607 OM 1607 OM OM1 1607 -0.550000 15.99940
1608 OM 1608 OM OM1 1608 -0.550000 15.99940
1609 OM 1609 OM OM1 1609 -0.550000 15.99940
1610 OM 1610 OM OM1 1610 -0.550000 15.99940
1611 OM 1611 OM OM1 1611 -0.550000 15.99940
1612 OM 1612 OM OM1 1612 -0.550000 15.99940
1613 OM 1613 OM OM1 1613 -0.550000 15.99940
1614 OM 1614 OM OM1 1614 -0.550000 15.99940
1615 OM 1615 OM OM1 1615 -0.550000 15.99940
1616 OM 1616 OM OM1 1616 -0.550000 15.99940
1617 OM 1617 OM OM1 1617 -0.550000 15.99940
1618 OM 1618 OM OM1 1618 -0.550000 15.99940
1619 OM 1619 OM OM1 1619 -0.550000 15.99940
1620 OM 1620 OM OM1 1620 -0.550000 15.99940
1621 OM 1621 OM OM1 1621 -0.550000 15.99940
1622 OM 1622 OM OM1 1622 -0.550000 15.99940
1623 OM 1623 OM OM1 1623 -0.550000 15.99940
1624 OM 1624 OM OM1 1624 -0.550000 15.99940
1625 OM 1625 OM OM1 1625 -0.550000 15.99940
1626 OM 1626 OM OM1 1626 -0.550000 15.99940
1627 OM 1627 OM OM1 1627 -0.550000 15.99940
1628 OM 1628 OM OM1 1628 -0.550000 15.99940
1629 OM 1629 OM OM1 1629 -0.550000 15.99940
1630 OM 1630 OM OM1 1630 -0.550000 15.99940
1631 OM 1631 OM OM1 1631 -0.550000 15.99940
1632 OM 1632 OM OM1 1632 -0.550000 15.99940
1633 OM 1633 OM OM1 1633 -0.550000 15.99940
1634 OM 1634 OM OM1 1634 -0.550000 15.99940
1635 OM 1635 OM OM1 1635 -0.550000 15.99940
1636 OM 1636 OM OM1 1636 -0.550000 15.99940
1637 OM 1637 OM OM1 1637 -0.550000 15.99940
1638 OM 1638 OM OM1 1638 -0.550000 15.99940
1639 OM 1639 OM OM1 1639 -0.550000 15.99940
1640 OM 1640 OM OM1 1640 -0.550000 15.99940
1641 OM 1641 OM OM1 1641 -0.550000 15.99940
1642 OM 1642 OM OM1 1642 -0.550000 15.99940
1643 OM 1643 OM OM1 1643 -0.550000 15.99940
1644 OM 1644 OM OM1 1644 -0.550000 15.99940
1645 OM 1645 OM OM1 1645 -0.550000 15.99940
1646 OM 1646 OM OM1 1646 -0.550000 15.99940
1647 OM 1647 OM OM1 1647 -0.550000 15.99940
1648 OM 1648 OM OM1 1648 -0.550000 15.99940
1649 OM 1649 OM OM1 1649 -0.550000 15.99940
1650 OM 1650 OM OM1 1650 -0.550000 15.99940
1651 OM 1651 OM OM1 1651 -0.550000 15.99940
1652 OM 1652 OM OM1 1652 -0.550000 15.99940
1653 OM 1653 OM OM1 1653 -0.550000 15.99940
1654 OM 1654 OM OM1 1654 -0.550000 15.99940
1655 OM 1655 OM OM1 1655 -0.550000 15.99940
1656 OM 1656 OM OM1 1656 -0.550000 15.99940
1657 OM 1657 OM OM1 1657 -0.550000 15.99940
1658 OM 1658 OM OM1 1658 -0.550000 15.99940
1659 OM 1659 OM OM1 1659 -0.550000 15.99940
1660 OM 1660 OM OM1 1660 -0.550000 15.99940
1661 OM 1661 OM OM1 1661 -0.550000 15.99940
1662 OM 1662 OM OM1 1662 -0.550000 15.99940
1663 OM 1663 OM OM1 1663 -0.550000 15.99940
1664 OM 1664 OM OM1 1664 -0.550000 15.99940
1665 OM 1665 OM OM1 1665 -0.550000 15.99940
1666 OM 1666 OM OM1 1666 -0.550000 15.99940
1667 OM 1667 OM OM1 1667 -0.550000 15.99940
1668 OM 1668 OM OM1 1668 -0.550000 15.99940
1669 OM 1669 OM OM1 1669 -0.550000 15.99940
1670 OM 1670 OM OM1 1670 -0.550000 15.99940
1671 OM 1671 OM OM1 1671 -0.550000 15.99940
1672 OM 1672 OM OM1 1672 -0.550000 15.99940
1673 OM 1673 OM OM1 1673 -0.550000 15.99940
1674 OM 1674 OM OM1 1674 -0.550000 15.99940
1675 OM 1675 OM OM1 1675 -0.550000 15.99940
1676 OM 1676 OM OM1 1676 -0.550000 15.99940
1677 OM 1677 OM OM1 1677 -0.550000 15.99940
1678 OM 1678 OM OM1 1678 -0.550000 15.99940
1679 OM 1679 OM OM1 1679 -0.550000 15.99940
1680 OM 1680 OM OM1 1680 -0.550000 15.99940
1681 OM 1681 OM OM1 1681 -0.550000 15.99940
1682 OM 1682 OM OM1 1682 -0.550000 15.99940
1683 OM 1683 OM OM1 1683 -0.550000 15.99940
1684 OM 1684 OM OM1 1684 -0.550000 15.99940
1685 OM 1685 OM OM1 1685 -0.550000 15.99940
1686 OM 1686 OM OM1 1686 -0.550000 15.99940
1687 OM 1687 OM OM1 1687 -0.550000 15.99940
1688 OM 1688 OM OM1 1688 -0.550000 15.99940
1689 OM 1689 OM OM1 1689 -0.550000 15.99940
1690 OM 1690 OM OM1 1690 -0.550000 15.99940
1691 OM 1691 OM OM1 1691 -0.550000 15.99940
1692 OM 1692 OM OM1 1692 -0.550000 15.99940
1693 OM 1693 OM OM1 1693 -0.550000 15.99940
1694 OM 1694 OM OM1 1694 -0.550000 15.99940
1695 OM 1695 OM OM1 1695 -0.550000 15.99940
1696 OM 1696 OM OM1 1696 -0.550000 15.99940
1697 OM 1697 OM OM1 1697 -0.550000 15.99940
1698 OM 1698 OM OM1 1698 -0.550000 15.99940
1699 OM 1699 OM OM1 1699 -0.550000 15.99940
1700 OM 1700 OM OM1 1700 -0.550000 15.99940
1701 OM 1701 OM OM1 1701 -0.550000 15.99940
1702 OM 1702 OM OM1 1702 -0.550000 15.99940
1703 OM 1703 OM OM1 1703 -0.550000 15.99940
1704 OM 1704 OM OM1 1704 -0.550000 15.99940
1705 OM 1705 OM OM1 1705 -0.550000 15.99940
1706 OM 1706 OM OM1 1706 -0.550000 15.99940
1707 OM 1707 OM OM1 1707 -0.550000 15.99940
1708 OM 1708 OM OM1 1708 -0.550000 15.99940
1709 OM 1709 OM OM1 1709 -0.550000 15.99940
1710 OM 1710 OM OM1 1710 -0.550000 15.99940
1711 OM 1711 OM OM1 1711 -0.550000 15.99940
1712 OM 1712 OM OM1 1712 -0.550000 15.99940
1713 OM 1713 OM OM1 1713 -0.550000 15.99940
1714 OM 1714 OM OM1 1714 -0.550000 15.99940
1715 OM 1715 OM OM1 1715 -0.550000 15.99940
1716 OM 1716 OM OM1 1716 -0.550000 15.99940
1717 OM 1717 OM OM1 1717 -0.550000 15.99940
1718 OM 1718 OM OM1 1718 -0.550000 15.99940
1719 OM 1719 OM OM1 1719 -0.550000 15.99940
1720 OM 1720 OM OM1 1720 -0.550000 15.99940
1721 OM 1721 OM OM1 1721 -0.550000 15.99940
1722 OM 1722 OM OM1 1722 -0.550000 15.99940
1723 OM 1723 OM OM1 1723 -0.550000 15.99940
1724 OM 1724 OM OM1 1724 -0.550000 15.99940
1725 OM 1725 OM OM1 1725 -0.550000 15.99940
1726 OM 1726 OM OM1 1726 -0.550000 15.99940
1727 OM 1727 OM OM1 1727 -0.550000 15.99940
1728 OM 1728 OM OM1 1728 -0.550000 15.99940
1729 OM 1729 OM OM1 1729 -0.550000 15.99940
1730 OM 1730 OM OM1 1730 -0.550000 15.99940
1731 OM 1731 OM OM1 1731 -0.550000 15.99940
1732 OM 1732 OM OM1 1732 -0.550000 15.99940
1733 OM 1733 OM OM1 1733 -0.550000 15.99940
1734 OM 1734 OM OM1 1734 -0.550000 15.99940
1735 OM 1735 OM OM1 1735 -0.550000 15.99940
1736 OM 1736 OM OM1 1736 -0.550000 15.99940
1737 OM 1737 OM OM1 1737 -0.550000 15.99940
1738 OM 1738 OM OM1 1738 -0.550000 15.99940
1739 OM 1739 OM OM1 1739 -0.550000 15.99940
1740 OM 1740 OM OM1 1740 -0.550000 15.99940
1741 OM 1741 OM OM1 1741 -0.550000 15.99940
1742 OM 1742 OM OM1 1742 -0.550000 15.99940
1743 OM 1743 OM OM1 1743 -0.550000 15.99940
1744 OM 1744 OM OM1 1744 -0.550000 15.99940
1745 OM 1745 OM OM1 1745 -0.550000 15.99940
1746 OM 1746 OM OM1 1746 -0.550000 15.99940
1747 OM 1747 OM OM1 1747 -0.550000 15.99940
1748 OM 1748 OM OM1 1748 -0.550000 15.99940
1749 OM 1749 OM OM1 1749 -0.550000 15.99940
1750 OM 1750 OM OM1 1750 -0.550000 15.99940
1751 OM 1751 OM OM1 1751 -0.550000 15.99940
1752 OM 1752 OM OM1 1752 -0.550000 15.99940
1753 OM 1753 OM OM1 1753 -0.550000 15.99940
1754 OM 1754 OM OM1 1754 -0.550000 15.99940
1755 OM 1755 OM OM1 1755 -0.550000 15.99940
1756 OM 1756 OM OM1 1756 -0.550000 15.99940
1757 OM 1757 OM OM1 1757 -0.550000 15.99940
1758 OM 1758 OM OM1 1758 -0.550000 15.99940
1759 OM 1759 OM OM1 1759 -0.550000 15.99940
1760 OM 1760 OM OM1 1760 -0.550000 15.99940
1761 OM 1761 OM OM1 1761 -0.550000 15.99940
1762 OM 1762 OM OM1 1762 -0.550000 15.99940
1763 OM 1763 OM OM1 1763 -0.550000 15.99940
1764 OM 1764 OM OM1 1764 -0.550000 15.99940
1765 OM 1765 OM OM1 1765 -0.550000 15.99940
1766 OM 1766 OM OM1 1766 -0.550000 15.99940
1767 OM 1767 OM OM1 1767 -0.550000 15.99940
1768 OM 1768 OM OM1 1768 -0.550000 15.99940
1769 OM 1769 OM OM1 1769 -0.550000 15.99940
1770 OM 1770 OM OM1 1770 -0.550000 15.99940
1771 OM 1771 OM OM1 1771 -0.550000 15.99940
1772 OM 1772 OM OM1 1772 -0.550000 15.99940
1773 OM 1773 OM OM1 1773 -0.550000 15.99940
1774 OM 1774 OM OM1 1774 -0.550000 15.99940
1775 OM 1775 OM OM1 1775 -0.550000 15.99940
1776 OM 1776 OM OM1 1776 -0.550000 15.99940
1777 OM 1777 OM OM1 1777 -0.550000 15.99940
1778 OM 1778 OM OM1 1778 -0.550000 15.99940
1779 OM 1779 OM OM1 1779 -0.550000 15.99940
1780 OM 1780 OM OM1 1780 -0.550000 15.99940
1781 OM 1781 OM OM1 1781 -0.550000 15.99940
1782 OM 1782 OM OM1 1782 -0.550000 15.99940
1783 OM 1783 OM OM1 1783 -0.550000 15.99940
1784 OM 1784 OM OM1 1784 -0.550000 15.99940
1785 OM 1785 OM OM1 1785 -0.550000 15.99940
1786 OM 1786 OM OM1 1786 -0.550000 15.99940
1787 OM 1787 OM OM1 1787 -0.550000 15.99940
1788 OM 1788 OM OM1 1788 -0.550000 15.99940
1789 OM 1789 OM OM1 1789 -0.550000 15.99940
1790 OM 1790 OM OM1 1790 -0.550000 15.99940
1791 OM 1791 OM OM1 1791 -0.550000 15.99940
1792 OM 1792 OM OM1 1792 -0.550000 15.99940
1793 OM 1793 OM OM1 1793 -0.550000 15.99940
1794 OM 1794 OM OM1 1794 -0.550000 15.99940
1795 OM 1795 OM OM1 1795 -0.550000 15.99940
1796 OM 1796 OM OM1 1796 -0.550000 15.99940
1797 OM 1797 OM OM1 1797 -0.550000 15.99940
1798 OM 1798 OM OM1 1798 -0.550000 15.99940
1799 OM 1799 OM OM1 1799 -0.550000 15.99940
1800 OM 1800 OM OM1 1800 -0.550000 15.99940
1801 OM 1801 OM OM1 1801 -0.550000 15.99940
1802 OM 1802 OM OM1 1802 -0.550000 15.99940
1803 OM 1803 OM OM1 1803 -0.550000 15.99940
1804 OM 1804 OM OM1 1804 -0.550000 15.99940
1805 OM 1805 OM OM1 1805 -0.550000 15.99940
1806 OM 1806 OM OM1 1806 -0.550000 15.99940
1807 OM 1807 OM OM1 1807 -0.550000 15.99940
1808 OM 1808 OM OM1 1808 -0.550000 15.99940
1809 OM 1809 OM OM1 1809 -0.550000 15.99940
1810 OM 1810 OM OM1 1810 -0.550000 15.99940
1811 OM 1811 OM OM1 1811 -0.550000 15.99940
1812 OM 1812 OM OM1 1812 -0.550000 15.99940
1813 OM 1813 OM OM1 1813 -0.550000 15.99940
1814 OM 1814 OM OM1 1814 -0.550000 15.99940
1815 OM 1815 OM OM1 1815 -0.550000 15.99940
1816 OM 1816 OM OM1 1816 -0.550000 15.99940
1817 OM 1817 OM OM1 1817 -0.550000 15.99940
1818 OM 1818 OM OM1 1818 -0.550000 15.99940
1819 OM 1819 OM OM1 1819 -0.550000 15.99940
1820 OM 1820 OM OM1 1820 -0.550000 15.99940
1821 OM 1821 OM OM1 1821 -0.550000 15.99940
1822 OM 1822 OM OM1 1822 -0.550000 15.99940
1823 OM 1823 OM OM1 1823 -0.550000 15.99940
1824 OM 1824 OM OM1 1824 -0.550000 15.99940
1825 OM 1825 OM OM1 1825 -0.550000 15.99940
1826 OM 1826 OM OM1 1826 -0.550000 15.99940
1827 OM 1827 OM OM1 1827 -0.550000 15.99940
1828 OM 1828 OM OM1 1828 -0.550000 15.99940
1829 OM 1829 OM OM1 1829 -0.550000 15.99940
1830 OM 1830 OM OM1 1830 -0.550000 15.99940
1831 OM 1831 OM OM1 1831 -0.550000 15.99940
1832 OM 1832 OM OM1 1832 -0.550000 15.99940
1833 OM 1833 OM OM1 1833 -0.550000 15.99940
1834 OM 1834 OM OM1 1834 -0.550000 15.99940
1835 OM 1835 OM OM1 1835 -0.550000 15.99940
1836 OM 1836 OM OM1 1836 -0.550000 15.99940
1837 OM 1837 OM OM1 1837 -0.550000 15.99940
1838 OM 1838 OM OM1 1838 -0.550000 15.99940
1839 OM 1839 OM OM1 1839 -0.550000 15.99940
1840 OM 1840 OM OM1 1840 -0.550000 15.99940
1841 OM 1841 OM OM1 1841 -0.550000 15.99940
1842 OM 1842 OM OM1 1842 -0.550000 15.99940
1843 OM 1843 OM OM1 1843 -0.550000 15.99940
1844 OM 1844 OM OM1 1844 -0.550000 15.99940
1845 OM 1845 OM OM1 1845 -0.550000 15.99940
1846 OM 1846 OM OM1 1846 -0.550000 15.99940
1847 OM 1847 OM OM1 1847 -0.550000 15.99940
1848 OM 1848 OM OM1 1848 -0.550000 15.99940
1849 OM 1849 OM OM1 1849 -0.550000 15.99940
1850 OM 1850 OM OM1 1850 -0.550000 15.99940
1851 OM 1851 OM OM1 1851 -0.550000 15.99940
1852 OM 1852 OM OM1 1852 -0.550000 15.99940
1853 OM 1853 OM OM1 1853 -0.550000 15.99940
1854 OM 1854 OM OM1 1854 -0.550000 15.99940
1855 OM 1855 OM OM1 1855 -0.550000 15.99940
1856 OM 1856 OM OM1 1856 -0.550000 15.99940
1857 OM 1857 OM OM1 1857 -0.550000 15.99940
1858 OM 1858 OM OM1 1858 -0.550000 15.99940
1859 OM 1859 OM OM1 1859 -0.550000 15.99940
1860 OM 1860 OM OM1 1860 -0.550000 15.99940
1861 OM 1861 OM OM1 1861 -0.550000 15.99940
1862 OM 1862 OM OM1 1862 -0.550000 15.99940
1863 OM 1863 OM OM1 1863 -0.550000 15.99940
1864 OM 1864 OM OM1 1864 -0.550000 15.99940
1865 OM 1865 OM OM1 1865 -0.550000 15.99940
1866 OM 1866 OM OM1 1866 -0.550000 15.99940
1867 OM 1867 OM OM1 1867 -0.550000 15.99940
1868 OM 1868 OM OM1 1868 -0.550000 15.99940
1869 OM 1869 OM OM1 1869 -0.550000 15.99940
1870 OM 1870 OM OM1 1870 -0.550000 15.99940
1871 OM 1871 OM OM1 1871 -0.550000 15.99940
1872 OM 1872 OM OM1 1872 -0.550000 15.99940
1873 OM 1873 OM OM1 1873 -0.550000 15.99940
1874 OM 1874 OM OM1 1874 -0.550000 15.99940
1875 OM 1875 OM OM1 1875 -0.550000 15.99940
1876 OM 1876 OM OM1 1876 -0.550000 15.99940
1877 OM 1877 OM OM1 1877 -0.550000 15.99940
1878 OM 1878 OM OM1 1878 -0.550000 15.99940
1879 OM 1879 OM OM1 1879 -0.550000 15.99940
1880 OM 1880 OM OM1 1880 -0.550000 15.99940
1881 OM 1881 OM OM1 1881 -0.550000 15.99940
1882 OM 1882 OM OM1 1882 -0.550000 15.99940
1883 OM 1883 OM OM1 1883 -0.550000 15.99940
1884 OM 1884 OM OM1 1884 -0.550000 15.99940
1885 OM 1885 OM OM1 1885 -0.550000 15.99940
1886 OM 1886 OM OM1 1886 -0.550000 15.99940
1887 OM 1887 OM OM1 1887 -0.550000 15.99940
1888 OM 1888 OM OM1 1888 -0.550000 15.99940
1889 OM 1889 OM OM1 1889 -0.550000 15.99940
1890 OM 1890 OM OM1 1890 -0.550000 15.99940
1891 OM 1891 OM OM1 1891 -0.550000 15.99940
1892 OM 1892 OM OM1 1892 -0.550000 15.99940
1893 OM 1893 OM OM1 1893 -0.550000 15.99940
1894 OM 1894 OM OM1 1894 -0.550000 15.99940
1895 OM 1895 OM OM1 1895 -0.550000 15.99940
1896 OM 1896 OM OM1 1896 -0.550000 15.99940
1897 OM 1897 OM OM1 1897 -0.550000 15.99940
1898 OM 1898 OM OM1 1898 -0.550000 15.99940
1899 OM 1899 OM OM1 1899 -0.550000 15.99940
1900 OM 1900 OM OM1 1900 -0.550000 15.99940
1901 OM 1901 OM OM1 1901 -0.550000 15.99940
1902 OM 1902 OM OM1 1902 -0.550000 15.99940
1903 OM 1903 OM OM1 1903 -0.550000 15.99940
1904 OM 1904 OM OM1 1904 -0.550000 15.99940
1905 OM 1905 OM OM1 1905 -0.550000 15.99940
1906 OM 1906 OM OM1 1906 -0.550000 15.99940
1907 OM 1907 OM OM1 1907 -0.550000 15.99940
1908 OM 1908 OM OM1 1908 -0.550000 15.99940
1909 OM 1909 OM OM1 1909 -0.550000 15.99940
1910 OM 1910 OM OM1 1910 -0.550000 15.99940
1911 OM 1911 OM OM1 1911 -0.550000 15.99940
1912 OM 1912 OM OM1 1912 -0.550000 15.99940
1913 OM 1913 OM OM1 1913 -0.550000 15.99940
1914 OM 1914 OM OM1 1914 -0.550000 15.99940
1915 OM 1915 OM OM1 1915 -0.550000 15.99940
1916 OM 1916 OM OM1 1916 -0.550000 15.99940
1917 OM 1917 OM OM1 1917 -0.550000 15.99940
1918 OM 1918 OM OM1 1918 -0.550000 15.99940
1919 OM 1919 OM OM1 1919 -0.550000 15.99940
1920 OM 1920 OM OM1 1920 -0.550000 15.99940
1921 OM 1921 OM OM1 1921 -0.550000 15.99940
1922 OM 1922 OM OM1 1922 -0.550000 15.99940
1923 OM 1923 OM OM1 1923 -0.550000 15.99940
1924 OM 1924 OM OM1 1924 -0.550000 15.99940
1925 OM 1925 OM OM1 1925 -0.550000 15.99940
1926 OM 1926 OM OM1 1926 -0.550000 15.99940
1927 OM 1927 OM OM1 1927 -0.550000 15.99940
1928 OM 1928 OM OM1 1928 -0.550000 15.99940
1929 OM 1929 OM OM1 1929 -0.550000 15.99940
1930 OM 1930 OM OM1 1930 -0.550000 15.99940
1931 OM 1931 OM OM1 1931 -0.550000 15.99940
1932 OM 1932 OM OM1 1932 -0.550000 15.99940
1933 OM 1933 OM OM1 1933 -0.550000 15.99940
1934 OM 1934 OM OM1 1934 -0.550000 15.99940
1935 OM 1935 OM OM1 1935 -0.550000 15.99940
1936 OM 1936 OM OM1 1936 -0.550000 15.99940
1937 OM 1937 OM OM1 1937 -0.550000 15.99940
1938 OM 1938 OM OM1 1938 -0.550000 15.99940
1939 OM 1939 OM OM1 1939 -0.550000 15.99940
1940 OM 1940 OM OM1 1940 -0.550000 15.99940
1941 OM 1941 OM OM1 1941 -0.550000 15.99940
1942 OM 1942 OM OM1 1942 -0.550000 15.99940
1943 OM 1943 OM OM1 1943 -0.550000 15.99940
1944 OM 1944 OM OM1 1944 -0.550000 15.99940
1945 OM 1945 OM OM1 1945 -0.550000 15.99940
1946 OM 1946 OM OM1 1946 -0.550000 15.99940
1947 OM 1947 OM OM1 1947 -0.550000 15.99940
1948 OM 1948 OM OM1 1948 -0.550000 15.99940
1949 OM 1949 OM OM1 1949 -0.550000 15.99940
1950 OM 1950 OM OM1 1950 -0.550000 15.99940
1951 OM 1951 OM OM1 1951 -0.550000 15.99940
1952 OM 1952 OM OM1 1952 -0.550000 15.99940
1953 OM 1953 OM OM1 1953 -0.550000 15.99940
1954 OM 1954 OM OM1 1954 -0.550000 15.99940
1955 OM 1955 OM OM1 1955 -0.550000 15.99940
1956 OM 1956 OM OM1 1956 -0.550000 15.99940
1957 OM 1957 OM OM1 1957 -0.550000 15.99940
1958 OM 1958 OM OM1 1958 -0.550000 15.99940
1959 OM 1959 OM OM1 1959 -0.550000 15.99940
1960 OM 1960 OM OM1 1960 -0.550000 15.99940
1961 OM 1961 OM OM1 1961 -0.550000 15.99940
1962 OM 1962 OM OM1 1962 -0.550000 15.99940
1963 OM 1963 OM OM1 1963 -0.550000 15.99940
1964 OM 1964 OM OM1 1964 -0.550000 15.99940
1965 OM 1965 OM OM1 1965 -0.550000 15.99940
1966 OM 1966 OM OM1 1966 -0.550000 15.99940
1967 OM 1967 OM OM1 1967 -0.550000 15.99940
1968 OM 1968 OM OM1 1968 -0.550000 15.99940
1969 OM 1969 OM OM1 1969 -0.550000 15.99940
1970 OM 1970 OM OM1 1970 -0.550000 15.99940
1971 OM 1971 OM OM1 1971 -0.550000 15.99940
1972 OM 1972 OM OM1 1972 -0.550000 15.99940
1973 OM 1973 OM OM1 1973 -0.550000 15.99940
1974 OM 1974 OM OM1 1974 -0.550000 15.99940
1975 OM 1975 OM OM1 1975 -0.550000 15.99940
1976 OM 1976 OM OM1 1976 -0.550000 15.99940
1977 OM 1977 OM OM1 1977 -0.550000 15.99940
1978 OM 1978 OM OM1 1978 -0.550000 15.99940
1979 OM 1979 OM OM1 1979 -0.550000 15.99940
1980 OM 1980 OM OM1 1980 -0.550000 15.99940
1981 OM 1981 OM OM1 1981 -0.550000 15.99940
1982 OM 1982 OM OM1 1982 -0.550000 15.99940
1983 OM 1983 OM OM1 1983 -0.550000 15.99940
1984 OM 1984 OM OM1 1984 -0.550000 15.99940
1985 OM 1985 OM OM1 1985 -0.550000 15.99940
1986 OM 1986 OM OM1 1986 -0.550000 15.99940
1987 OM 1987 OM OM1 1987 -0.550000 15.99940
1988 OM 1988 OM OM1 1988 -0.550000 15.99940
1989 OM 1989 OM OM1 1989 -0.550000 15.99940
1990 OM 1990 OM OM1 1990 -0.550000 15.99940
1991 OM 1991 OM OM1 1991 -0.550000 15.99940
1992 OM 1992 OM OM1 1992 -0.550000 15.99940
1993 OM 1993 OM OM1 1993 -0.550000 15.99940
1994 OM 1994 OM OM1 1994 -0.550000 15.99940
1995 OM 1995 OM OM1 1995 -0.550000 15.99940
1996 OM 1996 OM OM1 1996 -0.550000 15.99940
1997 OM 1997 OM OM1 1997 -0.550000 15.99940
1998 OM 1998 OM OM1 1998 -0.550000 15.99940
1999 OM 1999 OM OM1 1999 -0.550000 15.99940
2000 OM 2000 OM OM1 2000 -0.550000 15.99940
2001 OM 2001 OM OM1 2001 -0.550000 15.99940
2002 OM 2002 OM OM1 2002 -0.550000 15.99940
2003 OM 2003 OM OM1 2003 -0.550000 15.99940
2004 OM 2004 OM OM1 2004 -0.550000 15.99940
2005 OM 2005 OM OM1 2005 -0.550000 15.99940
2006 OM 2006 OM OM1 2006 -0.550000 15.99940
2007 OM 2007 OM OM1 2007 -0.550000 15.99940
2008 OM 2008 OM OM1 2008 -0.550000 15.99940
2009 OM 2009 OM OM1 2009 -0.550000 15.99940
2010 OM 2010 OM OM1 2010 -0.550000 15.99940
2011 OM 2011 OM OM1 2011 -0.550000 15.99940
2012 OM 2012 OM OM1 2012 -0.550000 15.99940
2013 OM 2013 OM OM1 2013 -0.550000 15.99940
2014 OM 2014 OM OM1 2014 -0.550000 15.99940
2015 OM 2015 OM OM1 2015 -0.550000 15.99940
2016 OM 2016 OM OM1 2016 -0.550000 15.99940
2017 OM 2017 OM OM1 2017 -0.550000 15.99940
2018 OM 2018 OM OM1 2018 -0.550000 15.99940
2019 OM 2019 OM OM1 2019 -0.550000 15.99940
2020 OM 2020 OM OM1 2020 -0.550000 15.99940
2021 OM 2021 OM OM1 2021 -0.550000 15.99940
2022 OM 2022 OM OM1 2022 -0.550000 15.99940
2023 OM 2023 OM OM1 2023 -0.550000 15.99940
2024 OM 2024 OM OM1 2024 -0.550000 15.99940
2025 OM 2025 OM OM1 2025 -0.550000 15.99940
2026 OM 2026 OM OM1 2026 -0.550000 15.99940
2027 OM 2027 OM OM1 2027 -0.550000 15.99940
2028 OM 2028 OM OM1 2028 -0.550000 15.99940
2029 OM 2029 OM OM1 2029 -0.550000 15.99940
2030 OM 2030 OM OM1 2030 -0.550000 15.99940
2031 OM 2031 OM OM1 2031 -0.550000 15.99940
2032 OM 2032 OM OM1 2032 -0.550000 15.99940
2033 OM 2033 OM OM1 2033 -0.550000 15.99940
2034 OM 2034 OM OM1 2034 -0.550000 15.99940
2035 OM 2035 OM OM1 2035 -0.550000 15.99940
2036 OM 2036 OM OM1 2036 -0.550000 15.99940
2037 OM 2037 OM OM1 2037 -0.550000 15.99940
2038 OM 2038 OM OM1 2038 -0.550000 15.99940
2039 OM 2039 OM OM1 2039 -0.550000 15.99940
2040 OM 2040 OM OM1 2040 -0.550000 15.99940
2041 OM 2041 OM OM1 2041 -0.550000 15.99940
2042 OM 2042 OM OM1 2042 -0.550000 15.99940
2043 OM 2043 OM OM1 2043 -0.550000 15.99940
2044 OM 2044 OM OM1 2044 -0.550000 15.99940
2045 OM 2045 OM OM1 2045 -0.550000 15.99940
2046 OM 2046 OM OM1 2046 -0.550000 15.99940
2047 OM 2047 OM OM1 2047 -0.550000 15.99940
2048 OM 2048 OM OM1 2048 -0.550000 15.99940
2049 OM 2049 OM OM1 2049 -0.550000 15.99940
2050 OM 2050 OM OM1 2050 -0.550000 15.99940
2051 OM 2051 OM OM1 2051 -0.550000 15.99940
2052 OM 2052 OM OM1 2052 -0.550000 15.99940
2053 OM 2053 OM OM1 2053 -0.550000 15.99940
2054 OM 2054 OM OM1 2054 -0.550000 15.99940
2055 OM 2055 OM OM1 2055 -0.550000 15.99940
2056 OM 2056 OM OM1 2056 -0.550000 15.99940
2057 OM 2057 OM OM1 2057 -0.550000 15.99940
2058 OM 2058 OM OM1 2058 -0.550000 15.99940
2059 OM 2059 OM OM1 2059 -0.550000 15.99940
2060 OM 2060 OM OM1 2060 -0.550000 15.99940
2061 OM 2061 OM OM1 2061 -0.550000 15.99940
2062 OM 2062 OM OM1 2062 -0.550000 15.99940
2063 OM 2063 OM OM1 2063 -0.550000 15.99940
2064 OM 2064 OM OM1 2064 -0.550000 15.99940
2065 OM 2065 OM OM1 2065 -0.550000 15.99940
2066 OM 2066 OM OM1 2066 -0.550000 15.99940
2067 OM 2067 OM OM1 2067 -0.550000 15.99940
2068 OM 2068 OM OM1 2068 -0.550000 15.99940
2069 OM 2069 OM OM1 2069 -0.550000 15.99940
2070 OM 2070 OM OM1 2070 -0.550000 15.99940
2071 OM 2071 OM OM1 2071 -0.550000 15.99940
2072 OM 2072 OM OM1 2072 -0.550000 15.99940
2073 OM 2073 OM OM1 2073 -0.550000 15.99940
2074 OM 2074 OM OM1 2074 -0.550000 15.99940
2075 OM 2075 OM OM1 2075 -0.550000 15.99940
2076 OM 2076 OM OM1 2076 -0.550000 15.99940
2077 OM 2077 OM OM1 2077 -0.550000 15.99940
2078 OM 2078 OM OM1 2078 -0.550000 15.99940
2079 OM 2079 OM OM1 2079 -0.550000 15.99940
2080 OM 2080 OM OM1 2080 -0.550000 15.99940
2081 OM 2081 OM OM1 2081 -0.550000 15.99940
2082 OM 2082 OM OM1 2082 -0.550000 15.99940
2083 OM 2083 OM OM1 2083 -0.550000 15.99940
2084 OM 2084 OM OM1 2084 -0.550000 15.99940
2085 OM 2085 OM OM1 2085 -0.550000 15.99940
2086 OM 2086 OM OM1 2086 -0.550000 15.99940
2087 OM 2087 OM OM1 2087 -0.550000 15.99940
2088 OM 2088 OM OM1 2088 -0.550000 15.99940
2089 OM 2089 OM OM1 2089 -0.550000 15.99940
2090 OM 2090 OM OM1 2090 -0.550000 15.99940
2091 OM 2091 OM OM1 2091 -0.550000 15.99940
2092 OM 2092 OM OM1 2092 -0.550000 15.99940
2093 OM 2093 OM OM1 2093 -0.550000 15.99940
2094 OM 2094 OM OM1 2094 -0.550000 15.99940
2095 OM 2095 OM OM1 2095 -0.550000 15.99940
2096 OM 2096 OM OM1 2096 -0.550000 15.99940
2097 OM 2097 OM OM1 2097 -0.550000 15.99940
2098 OM 2098 OM OM1 2098 -0.550000 15.99940
2099 OM 2099 OM OM1 2099 -0.550000 15.99940
2100 OM 2100 OM OM1 2100 -0.550000 15.99940
2101 OM 2101 OM OM1 2101 -0.550000 15.99940
2102 OM 2102 OM OM1 2102 -0.550000 15.99940
2103 OM 2103 OM OM1 2103 -0.550000 15.99940
2104 OM 2104 OM OM1 2104 -0.550000 15.99940
2105 OM 2105 OM OM1 2105 -0.550000 15.99940
2106 OM 2106 OM OM1 2106 -0.550000 15.99940
2107 OM 2107 OM OM1 2107 -0.550000 15.99940
2108 OM 2108 OM OM1 2108 -0.550000 15.99940
2109 OM 2109 OM OM1 2109 -0.550000 15.99940
2110 OM 2110 OM OM1 2110 -0.550000 15.99940
2111 OM 2111 OM OM1 2111 -0.550000 15.99940
2112 OM 2112 OM OM1 2112 -0.550000 15.99940
2113 OM 2113 OM OM1 2113 -0.550000 15.99940
2114 OM 2114 OM OM1 2114 -0.550000 15.99940
2115 OM 2115 OM OM1 2115 -0.550000 15.99940
2116 OM 2116 OM OM1 2116 -0.550000 15.99940
2117 OM 2117 OM OM1 2117 -0.550000 15.99940
2118 OM 2118 OM OM1 2118 -0.550000 15.99940
2119 OM 2119 OM OM1 2119 -0.550000 15.99940
2120 OM 2120 OM OM1 2120 -0.550000 15.99940
2121 OM 2121 OM OM1 2121 -0.550000 15.99940
2122 OM 2122 OM OM1 2122 -0.550000 15.99940
2123 OM 2123 OM OM1 2123 -0.550000 15.99940
2124 OM 2124 OM OM1 2124 -0.550000 15.99940
2125 OM 2125 OM OM1 2125 -0.550000 15.99940
2126 OM 2126 OM OM1 2126 -0.550000 15.99940
2127 OM 2127 OM OM1 2127 -0.550000 15.99940
2128 OM 2128 OM OM1 2128 -0.550000 15.99940
2129 OM 2129 OM OM1 2129 -0.550000 15.99940
2130 OM 2130 OM OM1 2130 -0.550000 15.99940
2131 OM 2131 OM OM1 2131 -0.550000 15.99940
2132 OM 2132 OM OM1 2132 -0.550000 15.99940
2133 OM 2133 OM OM1 2133 -0.550000 15.99940
2134 OM 2134 OM OM1 2134 -0.550000 15.99940
2135 OM 2135 OM OM1 2135 -0.550000 15.99940
2136 OM 2136 OM OM1 2136 -0.550000 15.99940
2137 OM 2137 OM OM1 2137 -0.550000 15.99940
2138 OM 2138 OM OM1 2138 -0.550000 15.99940
2139 OM 2139 OM OM1 2139 -0.550000 15.99940
2140 OM 2140 OM OM1 2140 -0.550000 15.99940
2141 OM 2141 OM OM1 2141 -0.550000 15.99940
2142 OM 2142 OM OM1 2142 -0.550000 15.99940
2143 OM 2143 OM OM1 2143 -0.550000 15.99940
2144 OM 2144 OM OM1 2144 -0.550000 15.99940
2145 OM 2145 OM OM1 2145 -0.550000 15.99940
2146 OM 2146 OM OM1 2146 -0.550000 15.99940
2147 OM 2147 OM OM1 2147 -0.550000 15.99940
2148 OM 2148 OM OM1 2148 -0.550000 15.99940
2149 OM 2149 OM OM1 2149 -0.550000 15.99940
2150 OM 2150 OM OM1 2150 -0.550000 15.99940
2151 OM 2151 OM OM1 2151 -0.550000 15.99940
2152 OM 2152 OM OM1 2152 -0.550000 15.99940
2153 OM 2153 OM OM1 2153 -0.550000 15.99940
2154 OM 2154 OM OM1 2154 -0.550000 15.99940
2155 OM 2155 OM OM1 2155 -0.550000 15.99940
2156 OM 2156 OM OM1 2156 -0.550000 15.99940
2157 OM 2157 OM OM1 2157 -0.550000 15.99940
2158 OM 2158 OM OM1 2158 -0.550000 15.99940
2159 OM 2159 OM OM1 2159 -0.550000 15.99940
2160 OM 2160 OM OM1 2160 -0.550000 15.99940
2161 OM 2161 OM OM1 2161 -0.550000 15.99940
2162 OM 2162 OM OM1 2162 -0.550000 15.99940
2163 OM 2163 OM OM1 2163 -0.550000 15.99940
2164 OM 2164 OM OM1 2164 -0.550000 15.99940
2165 OM 2165 OM OM1 2165 -0.550000 15.99940
2166 OM 2166 OM OM1 2166 -0.550000 15.99940
2167 OM 2167 OM OM1 2167 -0.550000 15.99940
2168 OM 2168 OM OM1 2168 -0.550000 15.99940
2169 OM 2169 OM OM1 2169 -0.550000 15.99940
2170 OM 2170 OM OM1 2170 -0.550000 15.99940
2171 OM 2171 OM OM1 2171 -0.550000 15.99940
2172 OM 2172 OM OM1 2172 -0.550000 15.99940
2173 OM 2173 OM OM1 2173 -0.550000 15.99940
2174 OM 2174 OM OM1 2174 -0.550000 15.99940
2175 OM 2175 OM OM1 2175 -0.550000 15.99940
2176 OM 2176 OM OM1 2176 -0.550000 15.99940
2177 OM 2177 OM OM1 2177 -0.550000 15.99940
2178 OM 2178 OM OM1 2178 -0.550000 15.99940
2179 OM 2179 OM OM1 2179 -0.550000 15.99940
2180 OM 2180 OM OM1 2180 -0.550000 15.99940
2181 OM 2181 OM OM1 2181 -0.550000 15.99940
2182 OM 2182 OM OM1 2182 -0.550000 15.99940
2183 OM 2183 OM OM1 2183 -0.550000 15.99940
2184 OM 2184 OM OM1 2184 -0.550000 15.99940
2185 OM 2185 OM OM1 2185 -0.550000 15.99940
2186 OM 2186 OM OM1 2186 -0.550000 15.99940
2187 OM 2187 OM OM1 2187 -0.550000 15.99940
2188 OM 2188 OM OM1 2188 -0.550000 15.99940
2189 OM 2189 OM OM1 2189 -0.550000 15.99940
2190 OM 2190 OM OM1 2190 -0.550000 15.99940
2191 OM 2191 OM OM1 2191 -0.550000 15.99940
2192 OM 2192 OM OM1 2192 -0.550000 15.99940
2193 OM 2193 OM OM1 2193 -0.550000 15.99940
2194 OM 2194 OM OM1 2194 -0.550000 15.99940
2195 OM 2195 OM OM1 2195 -0.550000 15.99940
2196 OM 2196 OM OM1 2196 -0.550000 15.99940
2197 OM 2197 OM OM1 2197 -0.550000 15.99940
2198 OM 2198 OM OM1 2198 -0.550000 15.99940
2199 OM 2199 OM OM1 2199 -0.550000 15.99940
2200 OM 2200 OM OM1 2200 -0.550000 15.99940
2201 OM 2201 OM OM1 2201 -0.550000 15.99940
2202 OM 2202 OM OM1 2202 -0.550000 15.99940
2203 OM 2203 OM OM1 2203 -0.550000 15.99940
2204 OM 2204 OM OM1 2204 -0.550000 15.99940
2205 OM 2205 OM OM1 2205 -0.550000 15.99940
2206 OM 2206 OM OM1 2206 -0.550000 15.99940
2207 OM 2207 OM OM1 2207 -0.550000 15.99940
2208 OM 2208 OM OM1 2208 -0.550000 15.99940
2209 OM 2209 OM OM1 2209 -0.550000 15.99940
2210 OM 2210 OM OM1 2210 -0.550000 15.99940
2211 OM 2211 OM OM1 2211 -0.550000 15.99940
2212 OM 2212 OM OM1 2212 -0.550000 15.99940
2213 OM 2213 OM OM1 2213 -0.550000 15.99940
2214 OM 2214 OM OM1 2214 -0.550000 15.99940
2215 OM 2215 OM OM1 2215 -0.550000 15.99940
2216 OM 2216 OM OM1 2216 -0.550000 15.99940
2217 OM 2217 OM OM1 2217 -0.550000 15.99940
2218 OM 2218 OM OM1 2218 -0.550000 15.99940
2219 OM 2219 OM OM1 2219 -0.550000 15.99940
2220 OM 2220 OM OM1 2220 -0.550000 15.99940
2221 OM 2221 OM OM1 2221 -0.550000 15.99940
2222 OM 2222 OM OM1 2222 -0.550000 15.99940
2223 OM 2223 OM OM1 2223 -0.550000 15.99940
2224 OM 2224 OM OM1 2224 -0.550000 15.99940
2225 OM 2225 OM OM1 2225 -0.550000 15.99940
2226 OM 2226 OM OM1 2226 -0.550000 15.99940
2227 OM 2227 OM OM1 2227 -0.550000 15.99940
2228 OM 2228 OM OM1 2228 -0.550000 15.99940
2229 OM 2229 OM OM1 2229 -0.550000 15.99940
2230 OM 2230 OM OM1 2230 -0.550000 15.99940
2231 OM 2231 OM OM1 2231 -0.550000 15.99940
2232 OM 2232 OM OM1 2232 -0.550000 15.99940
2233 OM 2233 OM OM1 2233 -0.550000 15.99940
2234 OM 2234 OM OM1 2234 -0.550000 15.99940
2235 OM 2235 OM OM1 2235 -0.550000 15.99940
2236 OM 2236 OM OM1 2236 -0.550000 15.99940
2237 OM 2237 OM OM1 2237 -0.550000 15.99940
2238 OM 2238 OM OM1 2238 -0.550000 15.99940
2239 OM 2239 OM OM1 2239 -0.550000 15.99940
2240 OM 2240 OM OM1 2240 -0.550000 15.99940
2241 OM 2241 OM OM1 2241 -0.550000 15.99940
2242 OM 2242 OM OM1 2242 -0.550000 15.99940
2243 OM 2243 OM OM1 2243 -0.550000 15.99940
2244 OM 2244 OM OM1 2244 -0.550000 15.99940
2245 OM 2245 OM OM1 2245 -0.550000 15.99940
2246 OM 2246 OM OM1 2246 -0.550000 15.99940
2247 OM 2247 OM OM1 2247 -0.550000 15.99940
2248 OM 2248 OM OM1 2248 -0.550000 15.99940
2249 OM 2249 OM OM1 2249 -0.550000 15.99940
2250 OM 2250 OM OM1 2250 -0.550000 15.99940
2251 OM 2251 OM OM1 2251 -0.550000 15.99940
2252 OM 2252 OM OM1 2252 -0.550000 15.99940
2253 OM 2253 OM OM1 2253 -0.550000 15.99940
2254 OM 2254 OM OM1 2254 -0.550000 15.99940
2255 OM 2255 OM OM1 2255 -0.550000 15.99940
2256 OM 2256 OM OM1 2256 -0.550000 15.99940
2257 OM 2257 OM OM1 2257 -0.550000 15.99940
2258 OM 2258 OM OM1 2258 -0.550000 15.99940
2259 OM 2259 OM OM1 2259 -0.550000 15.99940
2260 OM 2260 OM OM1 2260 -0.550000 15.99940
2261 OM 2261 OM OM1 2261 -0.550000 15.99940
2262 OM 2262 OM OM1 2262 -0.550000 15.99940
2263 OM 2263 OM OM1 2263 -0.550000 15.99940
2264 OM 2264 OM OM1 2264 -0.550000 15.99940
2265 OM 2265 OM OM1 2265 -0.550000 15.99940
2266 OM 2266 OM OM1 2266 -0.550000 15.99940
2267 OM 2267 OM OM1 2267 -0.550000 15.99940
2268 OM 2268 OM OM1 2268 -0.550000 15.99940
2269 OM 2269 OM OM1 2269 -0.550000 15.99940
2270 OM 2270 OM OM1 2270 -0.550000 15.99940
2271 OM 2271 OM OM1 2271 -0.550000 15.99940
2272 OM 2272 OM OM1 2272 -0.550000 15.99940
2273 OM 2273 OM OM1 2273 -0.550000 15.99940
2274 OM 2274 OM OM1 2274 -0.550000 15.99940
2275 OM 2275 OM OM1 2275 -0.550000 15.99940
2276 OM 2276 OM OM1 2276 -0.550000 15.99940
2277 OM 2277 OM OM1 2277 -0.550000 15.99940
2278 OM 2278 OM OM1 2278 -0.550000 15.99940
2279 OM 2279 OM OM1 2279 -0.550000 15.99940
2280 OM 2280 OM OM1 2280 -0.550000 15.99940
2281 OM 2281 OM OM1 2281 -0.550000 15.99940
2282 OM 2282 OM OM1 2282 -0.550000 15.99940
2283 OM 2283 OM OM1 2283 -0.550000 15.99940
2284 OM 2284 OM OM1 2284 -0.550000 15.99940
2285 OM 2285 OM OM1 2285 -0.550000 15.99940
2286 OM 2286 OM OM1 2286 -0.550000 15.99940
2287 OM 2287 OM OM1 2287 -0.550000 15.99940
2288 OM 2288 OM OM1 2288 -0.550000 15.99940
2289 OM 2289 OM OM1 2289 -0.550000 15.99940
2290 OM 2290 OM OM1 2290 -0.550000 15.99940
2291 OM 2291 OM OM1 2291 -0.550000 15.99940
2292 OM 2292 OM OM1 2292 -0.550000 15.99940
2293 OM 2293 OM OM1 2293 -0.550000 15.99940
2294 OM 2294 OM OM1 2294 -0.550000 15.99940
2295 OM 2295 OM OM1 2295 -0.550000 15.99940
2296 OM 2296 OM OM1 2296 -0.550000 15.99940
2297 OM 2297 OM OM1 2297 -0.550000 15.99940
2298 OM 2298 OM OM1 2298 -0.550000 15.99940
2299 OM 2299 OM OM1 2299 -0.550000 15.99940
2300 OM 2300 OM OM1 2300 -0.550000 15.99940
2301 OM 2301 OM OM1 2301 -0.550000 15.99940
2302 OM 2302 OM OM1 2302 -0.550000 15.99940
2303 OM 2303 OM OM1 2303 -0.550000 15.99940
2304 OM 2304 OM OM1 2304 -0.550000 15.99940
2305 OM 2305 OM OM1 2305 -0.550000 15.99940
2306 OM 2306 OM OM1 2306 -0.550000 15.99940
2307 OM 2307 OM OM1 2307 -0.550000 15.99940
2308 OM 2308 OM OM1 2308 -0.550000 15.99940
2309 OM 2309 OM OM1 2309 -0.550000 15.99940
2310 OM 2310 OM OM1 2310 -0.550000 15.99940
2311 OM 2311 OM OM1 2311 -0.550000 15.99940
2312 OM 2312 OM OM1 2312 -0.550000 15.99940
2313 OM 2313 OM OM1 2313 -0.550000 15.99940
2314 OM 2314 OM OM1 2314 -0.550000 15.99940
2315 OM 2315 OM OM1 2315 -0.550000 15.99940
2316 OM 2316 OM OM1 2316 -0.550000 15.99940
2317 OM 2317 OM OM1 2317 -0.550000 15.99940
2318 OM 2318 OM OM1 2318 -0.550000 15.99940
2319 OM 2319 OM OM1 2319 -0.550000 15.99940
2320 OM 2320 OM OM1 2320 -0.550000 15.99940
2321 OM 2321 OM OM1 2321 -0.550000 15.99940
2322 OM 2322 OM OM1 2322 -0.550000 15.99940
2323 OM 2323 OM OM1 2323 -0.550000 15.99940
2324 OM 2324 OM OM1 2324 -0.550000 15.99940
2325 OM 2325 OM OM1 2325 -0.550000 15.99940
2326 OM 2326 OM OM1 2326 -0.550000 15.99940
2327 OM 2327 OM OM1 2327 -0.550000 15.99940
2328 OM 2328 OM OM1 2328 -0.550000 15.99940
2329 OM 2329 OM OM1 2329 -0.550000 15.99940
2330 OM 2330 OM OM1 2330 -0.550000 15.99940
2331 OM 2331 OM OM1 2331 -0.550000 15.99940
2332 OM 2332 OM OM1 2332 -0.550000 15.99940
2333 OM 2333 OM OM1 2333 -0.550000 15.99940
2334 OM 2334 OM OM1 2334 -0.550000 15.99940
2335 OM 2335 OM OM1 2335 -0.550000 15.99940
2336 OM 2336 OM OM1 2336 -0.550000 15.99940
2337 OM 2337 OM OM1 2337 -0.550000 15.99940
2338 OM 2338 OM OM1 2338 -0.550000 15.99940
2339 OM 2339 OM OM1 2339 -0.550000 15.99940
2340 OM 2340 OM OM1 2340 -0.550000 15.99940
2341 OM 2341 OM OM1 2341 -0.550000 15.99940
2342 OM 2342 OM OM1 2342 -0.550000 15.99940
2343 OM 2343 OM OM1 2343 -0.550000 15.99940
2344 OM 2344 OM OM1 2344 -0.550000 15.99940
2345 OM 2345 OM OM1 2345 -0.550000 15.99940
2346 OM 2346 OM OM1 2346 -0.550000 15.99940
2347 OM 2347 OM OM1 2347 -0.550000 15.99940
2348 OM 2348 OM OM1 2348 -0.550000 15.99940
2349 OM 2349 OM OM1 2349 -0.550000 15.99940
2350 OM 2350 OM OM1 2350 -0.550000 15.99940
2351 OM 2351 OM OM1 2351 -0.550000 15.99940
2352 OM 2352 OM OM1 2352 -0.550000 15.99940
2353 OM 2353 OM OM1 2353 -0.550000 15.99940
2354 OM 2354 OM OM1 2354 -0.550000 15.99940
2355 OM 2355 OM OM1 2355 -0.550000 15.99940
2356 OM 2356 OM OM1 2356 -0.550000 15.99940
2357 OM 2357 OM OM1 2357 -0.550000 15.99940
2358 OM 2358 OM OM1 2358 -0.550000 15.99940
2359 OM 2359 OM OM1 2359 -0.550000 15.99940
2360 OM 2360 OM OM1 2360 -0.550000 15.99940
2361 OM 2361 OM OM1 2361 -0.550000 15.99940
2362 OM 2362 OM OM1 2362 -0.550000 15.99940
2363 OM 2363 OM OM1 2363 -0.550000 15.99940
2364 OM 2364 OM OM1 2364 -0.550000 15.99940
2365 OM 2365 OM OM1 2365 -0.550000 15.99940
2366 OM 2366 OM OM1 2366 -0.550000 15.99940
2367 OM 2367 OM OM1 2367 -0.550000 15.99940
2368 OM 2368 OM OM1 2368 -0.550000 15.99940
2369 OM 2369 OM OM1 2369 -0.550000 15.99940
2370 OM 2370 OM OM1 2370 -0.550000 15.99940
2371 OM 2371 OM OM1 2371 -0.550000 15.99940
2372 OM 2372 OM OM1 2372 -0.550000 15.99940
2373 OM 2373 OM OM1 2373 -0.550000 15.99940
2374 OM 2374 OM OM1 2374 -0.550000 15.99940
2375 OM 2375 OM OM1 2375 -0.550000 15.99940
2376 OM 2376 OM OM1 2376 -0.550000 15.99940
2377 OM 2377 OM OM1 2377 -0.550000 15.99940
2378 OM 2378 OM OM1 2378 -0.550000 15.99940
2379 OM 2379 OM OM1 2379 -0.550000 15.99940
2380 OM 2380 OM OM1 2380 -0.550000 15.99940
2381 OM 2381 OM OM1 2381 -0.550000 15.99940
2382 OM 2382 OM OM1 2382 -0.550000 15.99940
2383 OM 2383 OM OM1 2383 -0.550000 15.99940
2384 OM 2384 OM OM1 2384 -0.550000 15.99940
2385 OM 2385 OM OM1 2385 -0.550000 15.99940
2386 OM 2386 OM OM1 2386 -0.550000 15.99940
2387 OM 2387 OM OM1 2387 -0.550000 15.99940
2388 OM 2388 OM OM1 2388 -0.550000 15.99940
2389 OM 2389 OM OM1 2389 -0.550000 15.99940
2390 OM 2390 OM OM1 2390 -0.550000 15.99940
2391 OM 2391 OM OM1 2391 -0.550000 15.99940
2392 OM 2392 OM OM1 2392 -0.550000 15.99940
2393 OM 2393 OM OM1 2393 -0.550000 15.99940
2394 OM 2394 OM OM1 2394 -0.550000 15.99940
2395 OM 2395 OM OM1 2395 -0.550000 15.99940
2396 OM 2396 OM OM1 2396 -0.550000 15.99940
2397 OM 2397 OM OM1 2397 -0.550000 15.99940
2398 OM 2398 OM OM1 2398 -0.550000 15.99940
2399 OM 2399 OM OM1 2399 -0.550000 15.99940
2400 OM 2400 OM OM1 2400 -0.550000 15.99940
2401 OM 2401 OM OM1 2401 -0.550000 15.99940
2402 OM 2402 OM OM1 2402 -0.550000 15.99940
2403 OM 2403 OM OM1 2403 -0.550000 15.99940
2404 OM 2404 OM OM1 2404 -0.550000 15.99940
2405 OM 2405 OM OM1 2405 -0.550000 15.99940
2406 OM 2406 OM OM1 2406 -0.550000 15.99940
2407 OM 2407 OM OM1 2407 -0.550000 15.99940
2408 OM 2408 OM OM1 2408 -0.550000 15.99940
2409 OM 2409 OM OM1 2409 -0.550000 15.99940
2410 OM 2410 OM OM1 2410 -0.550000 15.99940
2411 OM 2411 OM OM1 2411 -0.550000 15.99940
2412 OM 2412 OM OM1 2412 -0.550000 15.99940
2413 OM 2413 OM OM1 2413 -0.550000 15.99940
2414 OM 2414 OM OM1 2414 -0.550000 15.99940
2415 OM 2415 OM OM1 2415 -0.550000 15.99940
2416 OM 2416 OM OM1 2416 -0.550000 15.99940
2417 OM 2417 OM OM1 2417 -0.550000 15.99940
2418 OM 2418 OM OM1 2418 -0.550000 15.99940
2419 OM 2419 OM OM1 2419 -0.550000 15.99940
2420 OM 2420 OM OM1 2420 -0.550000 15.99940
2421 OM 2421 OM OM1 2421 -0.550000 15.99940
2422 OM 2422 OM OM1 2422 -0.550000 15.99940
2423 OM 2423 OM OM1 2423 -0.550000 15.99940
2424 OM 2424 OM OM1 2424 -0.550000 15.99940
2425 OM 2425 OM OM1 2425 -0.550000 15.99940
2426 OM 2426 OM OM1 2426 -0.550000 15.99940
2427 OM 2427 OM OM1 2427 -0.550000 15.99940
2428 OM 2428 OM OM1 2428 -0.550000 15.99940
2429 OM 2429 OM OM1 2429 -0.550000 15.99940
2430 OM 2430 OM OM1 2430 -0.550000 15.99940
2431 OM 2431 OM OM1 2431 -0.550000 15.99940
2432 OM 2432 OM OM1 2432 -0.550000 15.99940
2433 OM 2433 OM OM1 2433 -0.550000 15.99940
2434 OM 2434 OM OM1 2434 -0.550000 15.99940
2435 OM 2435 OM OM1 2435 -0.550000 15.99940
2436 OM 2436 OM OM1 2436 -0.550000 15.99940
2437 OM 2437 OM OM1 2437 -0.550000 15.99940
2438 OM 2438 OM OM1 2438 -0.550000 15.99940
2439 OM 2439 OM OM1 2439 -0.550000 15.99940
2440 OM 2440 OM OM1 2440 -0.550000 15.99940
2441 OM 2441 OM OM1 2441 -0.550000 15.99940
2442 OM 2442 OM OM1 2442 -0.550000 15.99940
2443 OM 2443 OM OM1 2443 -0.550000 15.99940
2444 OM 2444 OM OM1 2444 -0.550000 15.99940
2445 OM 2445 OM OM1 2445 -0.550000 15.99940
2446 OM 2446 OM OM1 2446 -0.550000 15.99940
2447 OM 2447 OM OM1 2447 -0.550000 15.99940
2448 OM 2448 OM OM1 2448 -0.550000 15.99940
2449 OM 2449 OM OM1 2449 -0.550000 15.99940
2450 OM 2450 OM OM1 2450 -0.550000 15.99940
2451 OM 2451 OM OM1 2451 -0.550000 15.99940
2452 OM 2452 OM OM1 2452 -0.550000 15.99940
2453 OM 2453 OM OM1 2453 -0.550000 15.99940
2454 OM 2454 OM OM1 2454 -0.550000 15.99940
2455 OM 2455 OM OM1 2455 -0.550000 15.99940
2456 OM 2456 OM OM1 2456 -0.550000 15.99940
2457 OM 2457 OM OM1 2457 -0.550000 15.99940
2458 OM 2458 OM OM1 2458 -0.550000 15.99940
2459 OM 2459 OM OM1 2459 -0.550000 15.99940
2460 OM 2460 OM OM1 2460 -0.550000 15.99940
2461 OM 2461 OM OM1 2461 -0.550000 15.99940
2462 OM 2462 OM OM1 2462 -0.550000 15.99940
2463 OM 2463 OM OM1 2463 -0.550000 15.99940
2464 OM 2464 OM OM1 2464 -0.550000 15.99940
2465 OM 2465 OM OM1 2465 -0.550000 15.99940
2466 OM 2466 OM OM1 2466 -0.550000 15.99940
2467 OM 2467 OM OM1 2467 -0.550000 15.99940
2468 OM 2468 OM OM1 2468 -0.550000 15.99940
2469 OM 2469 OM OM1 2469 -0.550000 15.99940
2470 OM 2470 OM OM1 2470 -0.550000 15.99940
2471 OM 2471 OM OM1 2471 -0.550000 15.99940
2472 OM 2472 OM OM1 2472 -0.550000 15.99940
2473 OM 2473 OM OM1 2473 -0.550000 15.99940
2474 OM 2474 OM OM1 2474 -0.550000 15.99940
2475 OM 2475 OM OM1 2475 -0.550000 15.99940
2476 OM 2476 OM OM1 2476 -0.550000 15.99940
2477 OM 2477 OM OM1 2477 -0.550000 15.99940
2478 OM 2478 OM OM1 2478 -0.550000 15.99940
2479 OM 2479 OM OM1 2479 -0.550000 15.99940
2480 OM 2480 OM OM1 2480 -0.550000 15.99940
2481 OM 2481 OM OM1 2481 -0.550000 15.99940
2482 OM 2482 OM OM1 2482 -0.550000 15.99940
2483 OM 2483 OM OM1 2483 -0.550000 15.99940
2484 OM 2484 OM OM1 2484 -0.550000 15.99940
2485 OM 2485 OM OM1 2485 -0.550000 15.99940
2486 OM 2486 OM OM1 2486 -0.550000 15.99940
2487 OM 2487 OM OM1 2487 -0.550000 15.99940
2488 OM 2488 OM OM1 2488 -0.550000 15.99940
2489 OM 2489 OM OM1 2489 -0.550000 15.99940
2490 OM 2490 OM OM1 2490 -0.550000 15.99940
2491 OM 2491 OM OM1 2491 -0.550000 15.99940
2492 OM 2492 OM OM1 2492 -0.550000 15.99940
2493 OM 2493 OM OM1 2493 -0.550000 15.99940
2494 OM 2494 OM OM1 2494 -0.550000 15.99940
2495 OM 2495 OM OM1 2495 -0.550000 15.99940
2496 OM 2496 OM OM1 2496 -0.550000 15.99940
2497 OM 2497 OM OM1 2497 -0.550000 15.99940
2498 OM 2498 OM OM1 2498 -0.550000 15.99940
2499 OM 2499 OM OM1 2499 -0.550000 15.99940
2500 OM 2500 OM OM1 2500 -0.550000 15.99940
2501 OM 2501 OM OM1 2501 -0.550000 15.99940
2502 OM 2502 OM OM1 2502 -0.550000 15.99940
2503 OM 2503 OM OM1 2503 -0.550000 15.99940
2504 OM 2504 OM OM1 2504 -0.550000 15.99940
2505 OM 2505 OM OM1 2505 -0.550000 15.99940
2506 OM 2506 OM OM1 2506 -0.550000 15.99940
2507 OM 2507 OM OM1 2507 -0.550000 15.99940
2508 OM 2508 OM OM1 2508 -0.550000 15.99940
2509 OM 2509 OM OM1 2509 -0.550000 15.99940
2510 OM 2510 OM OM1 2510 -0.550000 15.99940
2511 OM 2511 OM OM1 2511 -0.550000 15.99940
2512 OM 2512 OM OM1 2512 -0.550000 15.99940
2513 OM 2513 OM OM1 2513 -0.550000 15.99940
2514 OM 2514 OM OM1 2514 -0.550000 15.99940
2515 OM 2515 OM OM1 2515 -0.550000 15.99940
2516 OM 2516 OM OM1 2516 -0.550000 15.99940
2517 OM 2517 OM OM1 2517 -0.550000 15.99940
2518 OM 2518 OM OM1 2518 -0.550000 15.99940
2519 OM 2519 OM OM1 2519 -0.550000 15.99940
2520 OM 2520 OM OM1 2520 -0.550000 15.99940
2521 OM 2521 OM OM1 2521 -0.550000 15.99940
2522 OM 2522 OM OM1 2522 -0.550000 15.99940
2523 OM 2523 OM OM1 2523 -0.550000 15.99940
2524 OM 2524 OM OM1 2524 -0.550000 15.99940
2525 OM 2525 OM OM1 2525 -0.550000 15.99940
2526 OM 2526 OM OM1 2526 -0.550000 15.99940
2527 OM 2527 OM OM1 2527 -0.550000 15.99940
2528 OM 2528 OM OM1 2528 -0.550000 15.99940
2529 OM 2529 OM OM1 2529 -0.550000 15.99940
2530 OM 2530 OM OM1 2530 -0.550000 15.99940
2531 OM 2531 OM OM1 2531 -0.550000 15.99940
2532 OM 2532 OM OM1 2532 -0.550000 15.99940
2533 OM 2533 OM OM1 2533 -0.550000 15.99940
2534 OM 2534 OM OM1 2534 -0.550000 15.99940
2535 OM 2535 OM OM1 2535 -0.550000 15.99940
2536 OM 2536 OM OM1 2536 -0.550000 15.99940
2537 OM 2537 OM OM1 2537 -0.550000 15.99940
2538 OM 2538 OM OM1 2538 -0.550000 15.99940
2539 OM 2539 OM OM1 2539 -0.550000 15.99940
2540 OM 2540 OM OM1 2540 -0.550000 15.99940
2541 OM 2541 OM OM1 2541 -0.550000 15.99940
2542 OM 2542 OM OM1 2542 -0.550000 15.99940
2543 OM 2543 OM OM1 2543 -0.550000 15.99940
2544 OM 2544 OM OM1 2544 -0.550000 15.99940
2545 OM 2545 OM OM1 2545 -0.550000 15.99940
2546 OM 2546 OM OM1 2546 -0.550000 15.99940
2547 OM 2547 OM OM1 2547 -0.550000 15.99940
2548 OM 2548 OM OM1 2548 -0.550000 15.99940
2549 OM 2549 OM OM1 2549 -0.550000 15.99940
2550 OM 2550 OM OM1 2550 -0.550000 15.99940
2551 OM 2551 OM OM1 2551 -0.550000 15.99940
2552 OM 2552 OM OM1 2552 -0.550000 15.99940
2553 OM 2553 OM OM1 2553 -0.550000 15.99940
2554 OM 2554 OM OM1 2554 -0.550000 15.99940
2555 OM 2555 OM OM1 2555 -0.550000 15.99940
2556 OM 2556 OM OM1 2556 -0.550000 15.99940
2557 OM 2557 OM OM1 2557 -0.550000 15.99940
2558 OM 2558 OM OM1 2558 -0.550000 15.99940
2559 OM 2559 OM OM1 2559 -0.550000 15.99940
2560 OM 2560 OM OM1 2560 -0.550000 15.99940
2561 OM 2561 OM OM1 2561 -0.550000 15.99940
2562 OM 2562 OM OM1 2562 -0.550000 15.99940
2563 OM 2563 OM OM1 2563 -0.550000 15.99940
2564 OM 2564 OM OM1 2564 -0.550000 15.99940
2565 OM 2565 OM OM1 2565 -0.550000 15.99940
2566 OM 2566 OM OM1 2566 -0.550000 15.99940
2567 OM 2567 OM OM1 2567 -0.550000 15.99940
2568 OM 2568 OM OM1 2568 -0.550000 15.99940
2569 OM 2569 OM OM1 2569 -0.550000 15.99940
2570 OM 2570 OM OM1 2570 -0.550000 15.99940
2571 OM 2571 OM OM1 2571 -0.550000 15.99940
2572 OM 2572 OM OM1 2572 -0.550000 15.99940
2573 OM 2573 OM OM1 2573 -0.550000 15.99940
2574 OM 2574 OM OM1 2574 -0.550000 15.99940
2575 OM 2575 OM OM1 2575 -0.550000 15.99940
2576 OM 2576 OM OM1 2576 -0.550000 15.99940
2577 OM 2577 OM OM1 2577 -0.550000 15.99940
2578 OM 2578 OM OM1 2578 -0.550000 15.99940
2579 OM 2579 OM OM1 2579 -0.550000 15.99940
2580 OM 2580 OM OM1 2580 -0.550000 15.99940
2581 OM 2581 OM OM1 2581 -0.550000 15.99940
2582 OM 2582 OM OM1 2582 -0.550000 15.99940
2583 OM 2583 OM OM1 2583 -0.550000 15.99940
2584 OM 2584 OM OM1 2584 -0.550000 15.99940
2585 OM 2585 OM OM1 2585 -0.550000 15.99940
2586 OM 2586 OM OM1 2586 -0.550000 15.99940
2587 OM 2587 OM OM1 2587 -0.550000 15.99940
2588 OM 2588 OM OM1 2588 -0.550000 15.99940
2589 OM 2589 OM OM1 2589 -0.550000 15.99940
2590 OM 2590 OM OM1 2590 -0.550000 15.99940
2591 OM 2591 OM OM1 2591 -0.550000 15.99940
2592 OM 2592 OM OM1 2592 -0.550000 15.99940
2593 OM 2593 OM OM1 2593 -0.550000 15.99940
2594 OM 2594 OM OM1 2594 -0.550000 15.99940
2595 OM 2595 OM OM1 2595 -0.550000 15.99940
2596 OM 2596 OM OM1 2596 -0.550000 15.99940
2597 OM 2597 OM OM1 2597 -0.550000 15.99940
2598 OM 2598 OM OM1 2598 -0.550000 15.99940
2599 OM 2599 OM OM1 2599 -0.550000 15.99940
2600 OM 2600 OM OM1 2600 -0.550000 15.99940
2601 OM 2601 OM OM1 2601 -0.550000 15.99940
2602 OM 2602 OM OM1 2602 -0.550000 15.99940
2603 OM 2603 OM OM1 2603 -0.550000 15.99940
2604 OM 2604 OM OM1 2604 -0.550000 15.99940
2605 OM 2605 OM OM1 2605 -0.550000 15.99940
2606 OM 2606 OM OM1 2606 -0.550000 15.99940
2607 OM 2607 OM OM1 2607 -0.550000 15.99940
2608 OM 2608 OM OM1 2608 -0.550000 15.99940
2609 OM 2609 OM OM1 2609 -0.550000 15.99940
2610 OM 2610 OM OM1 2610 -0.550000 15.99940
2611 OM 2611 OM OM1 2611 -0.550000 15.99940
2612 OM 2612 OM OM1 2612 -0.550000 15.99940
2613 OM 2613 OM OM1 2613 -0.550000 15.99940
2614 OM 2614 OM OM1 2614 -0.550000 15.99940
2615 OM 2615 OM OM1 2615 -0.550000 15.99940
2616 OM 2616 OM OM1 2616 -0.550000 15.99940
2617 OM 2617 OM OM1 2617 -0.550000 15.99940
2618 OM 2618 OM OM1 2618 -0.550000 15.99940
2619 OM 2619 OM OM1 2619 -0.550000 15.99940
2620 OM 2620 OM OM1 2620 -0.550000 15.99940
2621 OM 2621 OM OM1 2621 -0.550000 15.99940
2622 OM 2622 OM OM1 2622 -0.550000 15.99940
2623 OM 2623 OM OM1 2623 -0.550000 15.99940
2624 OM 2624 OM OM1 2624 -0.550000 15.99940
2625 OM 2625 OM OM1 2625 -0.550000 15.99940
2626 OM 2626 OM OM1 2626 -0.550000 15.99940
2627 OM 2627 OM OM1 2627 -0.550000 15.99940
2628 OM 2628 OM OM1 2628 -0.550000 15.99940
2629 OM 2629 OM OM1 2629 -0.550000 15.99940
2630 OM 2630 OM OM1 2630 -0.550000 15.99940
2631 OM 2631 OM OM1 2631 -0.550000 15.99940
2632 OM 2632 OM OM1 2632 -0.550000 15.99940
2633 OM 2633 OM OM1 2633 -0.550000 15.99940
2634 OM 2634 OM OM1 2634 -0.550000 15.99940
2635 OM 2635 OM OM1 2635 -0.550000 15.99940
2636 OM 2636 OM OM1 2636 -0.550000 15.99940
2637 OM 2637 OM OM1 2637 -0.550000 15.99940
2638 OM 2638 OM OM1 2638 -0.550000 15.99940
2639 OM 2639 OM OM1 2639 -0.550000 15.99940
2640 OM 2640 OM OM1 2640 -0.550000 15.99940
2641 OM 2641 OM OM1 2641 -0.550000 15.99940
2642 OM 2642 OM OM1 2642 -0.550000 15.99940
2643 OM 2643 OM OM1 2643 -0.550000 15.99940
2644 OM 2644 OM OM1 2644 -0.550000 15.99940
2645 OM 2645 OM OM1 2645 -0.550000 15.99940
2646 OM 2646 OM OM1 2646 -0.550000 15.99940
2647 OM 2647 OM OM1 2647 -0.550000 15.99940
2648 OM 2648 OM OM1 2648 -0.550000 15.99940
2649 OM 2649 OM OM1 2649 -0.550000 15.99940
2650 OM 2650 OM OM1 2650 -0.550000 15.99940
2651 OM 2651 OM OM1 2651 -0.550000 15.99940
2652 OM 2652 OM OM1 2652 -0.550000 15.99940
2653 OM 2653 OM OM1 2653 -0.550000 15.99940
2654 OM 2654 OM OM1 2654 -0.550000 15.99940
2655 OM 2655 OM OM1 2655 -0.550000 15.99940
2656 OM 2656 OM OM1 2656 -0.550000 15.99940
2657 OM 2657 OM OM1 2657 -0.550000 15.99940
2658 OM 2658 OM OM1 2658 -0.550000 15.99940
2659 OM 2659 OM OM1 2659 -0.550000 15.99940
2660 OM 2660 OM OM1 2660 -0.550000 15.99940
2661 OM 2661 OM OM1 2661 -0.550000 15.99940
2662 OM 2662 OM OM1 2662 -0.550000 15.99940
2663 OM 2663 OM OM1 2663 -0.550000 15.99940
2664 OM 2664 OM OM1 2664 -0.550000 15.99940
2665 OM 2665 OM OM1 2665 -0.550000 15.99940
2666 OM 2666 OM OM1 2666 -0.550000 15.99940
2667 OM 2667 OM OM1 2667 -0.550000 15.99940
2668 OM 2668 OM OM1 2668 -0.550000 15.99940
2669 OM 2669 OM OM1 2669 -0.550000 15.99940
2670 OM 2670 OM OM1 2670 -0.550000 15.99940
2671 OM 2671 OM OM1 2671 -0.550000 15.99940
2672 OM 2672 OM OM1 2672 -0.550000 15.99940
2673 OM 2673 OM OM1 2673 -0.550000 15.99940
2674 OM 2674 OM OM1 2674 -0.550000 15.99940
2675 OM 2675 OM OM1 2675 -0.550000 15.99940
2676 OM 2676 OM OM1 2676 -0.550000 15.99940
2677 OM 2677 OM OM1 2677 -0.550000 15.99940
2678 OM 2678 OM OM1 2678 -0.550000 15.99940
2679 OM 2679 OM OM1 2679 -0.550000 15.99940
2680 OM 2680 OM OM1 2680 -0.550000 15.99940
2681 OM 2681 OM OM1 2681 -0.550000 15.99940
2682 OM 2682 OM OM1 2682 -0.550000 15.99940
2683 OM 2683 OM OM1 2683 -0.550000 15.99940
2684 OM 2684 OM OM1 2684 -0.550000 15.99940
2685 OM 2685 OM OM1 2685 -0.550000 15.99940
2686 OM 2686 OM OM1 2686 -0.550000 15.99940
2687 OM 2687 OM OM1 2687 -0.550000 15.99940
2688 OM 2688 OM OM1 2688 -0.550000 15.99940
2689 OM 2689 OM OM1 2689 -0.550000 15.99940
2690 OM 2690 OM OM1 2690 -0.550000 15.99940
2691 OM 2691 OM OM1 2691 -0.550000 15.99940
2692 OM 2692 OM OM1 2692 -0.550000 15.99940
2693 OM 2693 OM OM1 2693 -0.550000 15.99940
2694 OM 2694 OM OM1 2694 -0.550000 15.99940
2695 OM 2695 OM OM1 2695 -0.550000 15.99940
2696 OM 2696 OM OM1 2696 -0.550000 15.99940
2697 OM 2697 OM OM1 2697 -0.550000 15.99940
2698 OM 2698 OM OM1 2698 -0.550000 15.99940
2699 OM 2699 OM OM1 2699 -0.550000 15.99940
2700 OM 2700 OM OM1 2700 -0.550000 15.99940
2701 OM 2701 OM OM1 2701 -0.550000 15.99940
2702 OM 2702 OM OM1 2702 -0.550000 15.99940
2703 OM 2703 OM OM1 2703 -0.550000 15.99940
2704 OM 2704 OM OM1 2704 -0.550000 15.99940
2705 OM 2705 OM OM1 2705 -0.550000 15.99940
2706 OM 2706 OM OM1 2706 -0.550000 15.99940
2707 OM 2707 OM OM1 2707 -0.550000 15.99940
2708 OM 2708 OM OM1 2708 -0.550000 15.99940
2709 OM 2709 OM OM1 2709 -0.550000 15.99940
2710 OM 2710 OM OM1 2710 -0.550000 15.99940
2711 OM 2711 OM OM1 2711 -0.550000 15.99940
2712 OM 2712 OM OM1 2712 -0.550000 15.99940
2713 OM 2713 OM OM1 2713 -0.550000 15.99940
2714 OM 2714 OM OM1 2714 -0.550000 15.99940
2715 OM 2715 OM OM1 2715 -0.550000 15.99940
2716 OM 2716 OM OM1 2716 -0.550000 15.99940
2717 OM 2717 OM OM1 2717 -0.550000 15.99940
2718 OM 2718 OM OM1 2718 -0.550000 15.99940
2719 OM 2719 OM OM1 2719 -0.550000 15.99940
2720 OM 2720 OM OM1 2720 -0.550000 15.99940
2721 OM 2721 OM OM1 2721 -0.550000 15.99940
2722 OM 2722 OM OM1 2722 -0.550000 15.99940
2723 OM 2723 OM OM1 2723 -0.550000 15.99940
2724 OM 2724 OM OM1 2724 -0.550000 15.99940
2725 OM 2725 OM OM1 2725 -0.550000 15.99940
2726 OM 2726 OM OM1 2726 -0.550000 15.99940
2727 OM 2727 OM OM1 2727 -0.550000 15.99940
2728 OM 2728 OM OM1 2728 -0.550000 15.99940
2729 OM 2729 OM OM1 2729 -0.550000 15.99940
2730 OM 2730 OM OM1 2730 -0.550000 15.99940
2731 OM 2731 OM OM1 2731 -0.550000 15.99940
2732 OM 2732 OM OM1 2732 -0.550000 15.99940
2733 OM 2733 OM OM1 2733 -0.550000 15.99940
2734 OM 2734 OM OM1 2734 -0.550000 15.99940
2735 OM 2735 OM OM1 2735 -0.550000 15.99940
2736 OM 2736 OM OM1 2736 -0.550000 15.99940
2737 OM 2737 OM OM1 2737 -0.550000 15.99940
2738 OM 2738 OM OM1 2738 -0.550000 15.99940
2739 OM 2739 OM OM1 2739 -0.550000 15.99940
2740 OM 2740 OM OM1 2740 -0.550000 15.99940
2741 OM 2741 OM OM1 2741 -0.550000 15.99940
2742 OM 2742 OM OM1 2742 -0.550000 15.99940
2743 OM 2743 OM OM1 2743 -0.550000 15.99940
2744 OM 2744 OM OM1 2744 -0.550000 15.99940
2745 OM 2745 OM OM1 2745 -0.550000 15.99940
2746 OM 2746 OM OM1 2746 -0.550000 15.99940
2747 OM 2747 OM OM1 2747 -0.550000 15.99940
2748 OM 2748 OM OM1 2748 -0.550000 15.99940
2749 OM 2749 OM OM1 2749 -0.550000 15.99940
2750 OM 2750 OM OM1 2750 -0.550000 15.99940
2751 OM 2751 OM OM1 2751 -0.550000 15.99940
2752 OM 2752 OM OM1 2752 -0.550000 15.99940
2753 OM 2753 OM OM1 2753 -0.550000 15.99940
2754 OM 2754 OM OM1 2754 -0.550000 15.99940
2755 OM 2755 OM OM1 2755 -0.550000 15.99940
2756 OM 2756 OM OM1 2756 -0.550000 15.99940
2757 OM 2757 OM OM1 2757 -0.550000 15.99940
2758 OM 2758 OM OM1 2758 -0.550000 15.99940
2759 OM 2759 OM OM1 2759 -0.550000 15.99940
2760 OM 2760 OM OM1 2760 -0.550000 15.99940
2761 OM 2761 OM OM1 2761 -0.550000 15.99940
2762 OM 2762 OM OM1 2762 -0.550000 15.99940
2763 OM 2763 OM OM1 2763 -0.550000 15.99940
2764 OM 2764 OM OM1 2764 -0.550000 15.99940
2765 OM 2765 OM OM1 2765 -0.550000 15.99940
2766 OM 2766 OM OM1 2766 -0.550000 15.99940
2767 OM 2767 OM OM1 2767 -0.550000 15.99940
2768 OM 2768 OM OM1 2768 -0.550000 15.99940
2769 OM 2769 OM OM1 2769 -0.550000 15.99940
2770 OM 2770 OM OM1 2770 -0.550000 15.99940
2771 OM 2771 OM OM1 2771 -0.550000 15.99940
2772 OM 2772 OM OM1 2772 -0.550000 15.99940
2773 OM 2773 OM OM1 2773 -0.550000 15.99940
2774 OM 2774 OM OM1 2774 -0.550000 15.99940
2775 OM 2775 OM OM1 2775 -0.550000 15.99940
2776 OM 2776 OM OM1 2776 -0.550000 15.99940
2777 OM 2777 OM OM1 2777 -0.550000 15.99940
2778 OM 2778 OM OM1 2778 -0.550000 15.99940
2779 OM 2779 OM OM1 2779 -0.550000 15.99940
2780 OM 2780 OM OM1 2780 -0.550000 15.99940
2781 OM 2781 OM OM1 2781 -0.550000 15.99940
2782 OM 2782 OM OM1 2782 -0.550000 15.99940
2783 OM 2783 OM OM1 2783 -0.550000 15.99940
2784 OM 2784 OM OM1 2784 -0.550000 15.99940
2785 OM 2785 OM OM1 2785 -0.550000 15.99940
2786 OM 2786 OM OM1 2786 -0.550000 15.99940
2787 OM 2787 OM OM1 2787 -0.550000 15.99940
2788 OM 2788 OM OM1 2788 -0.550000 15.99940
2789 OM 2789 OM OM1 2789 -0.550000 15.99940
2790 OM 2790 OM OM1 2790 -0.550000 15.99940
2791 OM 2791 OM OM1 2791 -0.550000 15.99940
2792 OM 2792 OM OM1 2792 -0.550000 15.99940
2793 OM 2793 OM OM1 2793 -0.550000 15.99940
2794 OM 2794 OM OM1 2794 -0.550000 15.99940
2795 OM 2795 OM OM1 2795 -0.550000 15.99940
2796 OM 2796 OM OM1 2796 -0.550000 15.99940
2797 OM 2797 OM OM1 2797 -0.550000 15.99940
2798 OM 2798 OM OM1 2798 -0.550000 15.99940
2799 OM 2799 OM OM1 2799 -0.550000 15.99940
2800 OM 2800 OM OM1 2800 -0.550000 15.99940
2801 OM 2801 OM OM1 2801 -0.550000 15.99940
2802 OM 2802 OM OM1 2802 -0.550000 15.99940
2803 OM 2803 OM OM1 2803 -0.550000 15.99940
2804 OM 2804 OM OM1 2804 -0.550000 15.99940
2805 OM 2805 OM OM1 2805 -0.550000 15.99940
2806 OM 2806 OM OM1 2806 -0.550000 15.99940
2807 OM 2807 OM OM1 2807 -0.550000 15.99940
2808 OM 2808 OM OM1 2808 -0.550000 15.99940
2809 OM 2809 OM OM1 2809 -0.550000 15.99940
2810 OM 2810 OM OM1 2810 -0.550000 15.99940
2811 OM 2811 OM OM1 2811 -0.550000 15.99940
2812 OM 2812 OM OM1 2812 -0.550000 15.99940
2813 OM 2813 OM OM1 2813 -0.550000 15.99940
2814 OM 2814 OM OM1 2814 -0.550000 15.99940
2815 OM 2815 OM OM1 2815 -0.550000 15.99940
2816 OM 2816 OM OM1 2816 -0.550000 15.99940
2817 OM 2817 OM OM1 2817 -0.550000 15.99940
2818 OM 2818 OM OM1 2818 -0.550000 15.99940
2819 OM 2819 OM OM1 2819 -0.550000 15.99940
2820 OM 2820 OM OM1 2820 -0.550000 15.99940
2821 OM 2821 OM OM1 2821 -0.550000 15.99940
2822 OM 2822 OM OM1 2822 -0.550000 15.99940
2823 OM 2823 OM OM1 2823 -0.550000 15.99940
2824 OM 2824 OM OM1 2824 -0.550000 15.99940
2825 OM 2825 OM OM1 2825 -0.550000 15.99940
2826 OM 2826 OM OM1 2826 -0.550000 15.99940
2827 OM 2827 OM OM1 2827 -0.550000 15.99940
2828 OM 2828 OM OM1 2828 -0.550000 15.99940
2829 OM 2829 OM OM1 2829 -0.550000 15.99940
2830 OM 2830 OM OM1 2830 -0.550000 15.99940
2831 OM 2831 OM OM1 2831 -0.550000 15.99940
2832 OM 2832 OM OM1 2832 -0.550000 15.99940
2833 OM 2833 OM OM1 2833 -0.550000 15.99940
2834 OM 2834 OM OM1 2834 -0.550000 15.99940
2835 OM 2835 OM OM1 2835 -0.550000 15.99940
2836 OM 2836 OM OM1 2836 -0.550000 15.99940
2837 OM 2837 OM OM1 2837 -0.550000 15.99940
2838 OM 2838 OM OM1 2838 -0.550000 15.99940
2839 OM 2839 OM OM1 2839 -0.550000 15.99940
2840 OM 2840 OM OM1 2840 -0.550000 15.99940
2841 OM 2841 OM OM1 2841 -0.550000 15.99940
2842 OM 2842 OM OM1 2842 -0.550000 15.99940
2843 OM 2843 OM OM1 2843 -0.550000 15.99940
2844 OM 2844 OM OM1 2844 -0.550000 15.99940
2845 OM 2845 OM OM1 2845 -0.550000 15.99940
2846 OM 2846 OM OM1 2846 -0.550000 15.99940
2847 OM 2847 OM OM1 2847 -0.550000 15.99940
2848 OM 2848 OM OM1 2848 -0.550000 15.99940
2849 OM 2849 OM OM1 2849 -0.550000 15.99940
2850 OM 2850 OM OM1 2850 -0.550000 15.99940
2851 OM 2851 OM OM1 2851 -0.550000 15.99940
2852 OM 2852 OM OM1 2852 -0.550000 15.99940
2853 OM 2853 OM OM1 2853 -0.550000 15.99940
2854 OM 2854 OM OM1 2854 -0.550000 15.99940
2855 OM 2855 OM OM1 2855 -0.550000 15.99940
2856 OM 2856 OM OM1 2856 -0.550000 15.99940
2857 OM 2857 OM OM1 2857 -0.550000 15.99940
2858 OM 2858 OM OM1 2858 -0.550000 15.99940
2859 OM 2859 OM OM1 2859 -0.550000 15.99940
2860 OM 2860 OM OM1 2860 -0.550000 15.99940
2861 OM 2861 OM OM1 2861 -0.550000 15.99940
2862 OM 2862 OM OM1 2862 -0.550000 15.99940
2863 OM 2863 OM OM1 2863 -0.550000 15.99940
2864 OM 2864 OM OM1 2864 -0.550000 15.99940
2865 OM 2865 OM OM1 2865 -0.550000 15.99940
2866 OM 2866 OM OM1 2866 -0.550000 15.99940
2867 OM 2867 OM OM1 2867 -0.550000 15.99940
2868 OM 2868 OM OM1 2868 -0.550000 15.99940
2869 OM 2869 OM OM1 2869 -0.550000 15.99940
2870 OM 2870 OM OM1 2870 -0.550000 15.99940
2871 OM 2871 OM OM1 2871 -0.550000 15.99940
2872 OM 2872 OM OM1 2872 -0.550000 15.99940
2873 OM 2873 OM OM1 2873 -0.550000 15.99940
2874 OM 2874 OM OM1 2874 -0.550000 15.99940
2875 OM 2875 OM OM1 2875 -0.550000 15.99940
2876 OM 2876 OM OM1 2876 -0.550000 15.99940
2877 OM 2877 OM OM1 2877 -0.550000 15.99940
2878 OM 2878 OM OM1 2878 -0.550000 15.99940
2879 OM 2879 OM OM1 2879 -0.550000 15.99940
2880 OM 2880 OM OM1 2880 -0.550000 15.99940
2881 OM 2881 OM OM1 2881 -0.550000 15.99940
2882 OM 2882 OM OM1 2882 -0.550000 15.99940
2883 OM 2883 OM OM1 2883 -0.550000 15.99940
2884 OM 2884 OM OM1 2884 -0.550000 15.99940
2885 OM 2885 OM OM1 2885 -0.550000 15.99940
2886 OM 2886 OM OM1 2886 -0.550000 15.99940
2887 OM 2887 OM OM1 2887 -0.550000 15.99940
2888 OM 2888 OM OM1 2888 -0.550000 15.99940
2889 OM 2889 OM OM1 2889 -0.550000 15.99940
2890 OM 2890 OM OM1 2890 -0.550000 15.99940
2891 OM 2891 OM OM1 2891 -0.550000 15.99940
2892 OM 2892 OM OM1 2892 -0.550000 15.99940
2893 OM 2893 OM OM1 2893 -0.550000 15.99940
2894 OM 2894 OM OM1 2894 -0.550000 15.99940
2895 OM 2895 OM OM1 2895 -0.550000 15.99940
2896 OM 2896 OM OM1 2896 -0.550000 15.99940
2897 OM 2897 OM OM1 2897 -0.550000 15.99940
2898 OM 2898 OM OM1 2898 -0.550000 15.99940
2899 OM 2899 OM OM1 2899 -0.550000 15.99940
2900 OM 2900 OM OM1 2900 -0.550000 15.99940
2901 OM 2901 OM OM1 2901 -0.550000 15.99940
2902 OM 2902 OM OM1 2902 -0.550000 15.99940
2903 OM 2903 OM OM1 2903 -0.550000 15.99940
2904 OM 2904 OM OM1 2904 -0.550000 15.99940
2905 OM 2905 OM OM1 2905 -0.550000 15.99940
2906 OM 2906 OM OM1 2906 -0.550000 15.99940
2907 OM 2907 OM OM1 2907 -0.550000 15.99940
2908 OM 2908 OM OM1 2908 -0.550000 15.99940
2909 OM 2909 OM OM1 2909 -0.550000 15.99940
2910 OM 2910 OM OM1 2910 -0.550000 15.99940
2911 OM 2911 OM OM1 2911 -0.550000 15.99940
2912 OM 2912 OM OM1 2912 -0.550000 15.99940
2913 OM 2913 OM OM1 2913 -0.550000 15.99940
2914 OM 2914 OM OM1 2914 -0.550000 15.99940
2915 OM 2915 OM OM1 2915 -0.550000 15.99940
2916 OM 2916 OM OM1 2916 -0.550000 15.99940
2917 OM 2917 OM OM1 2917 -0.550000 15.99940
2918 OM 2918 OM OM1 2918 -0.550000 15.99940
2919 OM 2919 OM OM1 2919 -0.550000 15.99940
2920 OM 2920 OM OM1 2920 -0.550000 15.99940
2921 OM 2921 OM OM1 2921 -0.550000 15.99940
2922 OM 2922 OM OM1 2922 -0.550000 15.99940
2923 OM 2923 OM OM1 2923 -0.550000 15.99940
2924 OM 2924 OM OM1 2924 -0.550000 15.99940
2925 OM 2925 OM OM1 2925 -0.550000 15.99940
2926 OM 2926 OM OM1 2926 -0.550000 15.99940
2927 OM 2927 OM OM1 2927 -0.550000 15.99940
2928 OM 2928 OM OM1 2928 -0.550000 15.99940
2929 OM 2929 OM OM1 2929 -0.550000 15.99940
2930 OM 2930 OM OM1 2930 -0.550000 15.99940
2931 OM 2931 OM OM1 2931 -0.550000 15.99940
2932 OM 2932 OM OM1 2932 -0.550000 15.99940
2933 OM 2933 OM OM1 2933 -0.550000 15.99940
2934 OM 2934 OM OM1 2934 -0.550000 15.99940
2935 OM 2935 OM OM1 2935 -0.550000 15.99940
2936 OM 2936 OM OM1 2936 -0.550000 15.99940
2937 OM 2937 OM OM1 2937 -0.550000 15.99940
2938 OM 2938 OM OM1 2938 -0.550000 15.99940
2939 OM 2939 OM OM1 2939 -0.550000 15.99940
2940 OM 2940 OM OM1 2940 -0.550000 15.99940
2941 OM 2941 OM OM1 2941 -0.550000 15.99940
2942 OM 2942 OM OM1 2942 -0.550000 15.99940
2943 OM 2943 OM OM1 2943 -0.550000 15.99940
2944 OM 2944 OM OM1 2944 -0.550000 15.99940
2945 OM 2945 OM OM1 2945 -0.550000 15.99940
2946 OM 2946 OM OM1 2946 -0.550000 15.99940
2947 OM 2947 OM OM1 2947 -0.550000 15.99940
2948 OM 2948 OM OM1 2948 -0.550000 15.99940
2949 OM 2949 OM OM1 2949 -0.550000 15.99940
2950 OM 2950 OM OM1 2950 -0.550000 15.99940
2951 OM 2951 OM OM1 2951 -0.550000 15.99940
2952 OM 2952 OM OM1 2952 -0.550000 15.99940
2953 OM 2953 OM OM1 2953 -0.550000 15.99940
2954 OM 2954 OM OM1 2954 -0.550000 15.99940
2955 OM 2955 OM OM1 2955 -0.550000 15.99940
2956 OM 2956 OM OM1 2956 -0.550000 15.99940
2957 OM 2957 OM OM1 2957 -0.550000 15.99940
2958 OM 2958 OM OM1 2958 -0.550000 15.99940
2959 OM 2959 OM OM1 2959 -0.550000 15.99940
2960 OM 2960 OM OM1 2960 -0.550000 15.99940
2961 OM 2961 OM OM1 2961 -0.550000 15.99940
2962 OM 2962 OM OM1 2962 -0.550000 15.99940
2963 OM 2963 OM OM1 2963 -0.550000 15.99940
2964 OM 2964 OM OM1 2964 -0.550000 15.99940
2965 OM 2965 OM OM1 2965 -0.550000 15.99940
2966 OM 2966 OM OM1 2966 -0.550000 15.99940
2967 OM 2967 OM OM1 2967 -0.550000 15.99940
2968 OM 2968 OM OM1 2968 -0.550000 15.99940
2969 OM 2969 OM OM1 2969 -0.550000 15.99940
2970 OM 2970 OM OM1 2970 -0.550000 15.99940
2971 OM 2971 OM OM1 2971 -0.550000 15.99940
2972 OM 2972 OM OM1 2972 -0.550000 15.99940
2973 OM 2973 OM OM1 2973 -0.550000 15.99940
2974 OM 2974 OM OM1 2974 -0.550000 15.99940
2975 OM 2975 OM OM1 2975 -0.550000 15.99940
2976 OM 2976 OM OM1 2976 -0.550000 15.99940
2977 OM 2977 OM OM1 2977 -0.550000 15.99940
2978 OM 2978 OM OM1 2978 -0.550000 15.99940
2979 OM 2979 OM OM1 2979 -0.550000 15.99940
2980 OM 2980 OM OM1 2980 -0.550000 15.99940
2981 OM 2981 OM OM1 2981 -0.550000 15.99940
2982 OM 2982 OM OM1 2982 -0.550000 15.99940
2983 OM 2983 OM OM1 2983 -0.550000 15.99940
2984 OM 2984 OM OM1 2984 -0.550000 15.99940
2985 OM 2985 OM OM1 2985 -0.550000 15.99940
2986 OM 2986 OM OM1 2986 -0.550000 15.99940
2987 OM 2987 OM OM1 2987 -0.550000 15.99940
2988 OM 2988 OM OM1 2988 -0.550000 15.99940
2989 OM 2989 OM OM1 2989 -0.550000 15.99940
2990 OM 2990 OM OM1 2990 -0.550000 15.99940
2991 OM 2991 OM OM1 2991 -0.550000 15.99940
2992 OM 2992 OM OM1 2992 -0.550000 15.99940
2993 OM 2993 OM OM1 2993 -0.550000 15.99940
2994 OM 2994 OM OM1 2994 -0.550000 15.99940
2995 OM 2995 OM OM1 2995 -0.550000 15.99940
2996 OM 2996 OM OM1 2996 -0.550000 15.99940
2997 OM 2997 OM OM1 2997 -0.550000 15.99940
2998 OM 2998 OM OM1 2998 -0.550000 15.99940
2999 OM 2999 OM OM1 2999 -0.550000 15.99940
3000 OM 3000 OM OM1 3000 -0.550000 15.99940
3001 OM 3001 OM OM1 3001 -0.550000 15.99940
3002 OM 3002 OM OM1 3002 -0.550000 15.99940
3003 OM 3003 OM OM1 3003 -0.550000 15.99940
3004 OM 3004 OM OM1 3004 -0.550000 15.99940
3005 OM 3005 OM OM1 3005 -0.550000 15.99940
3006 OM 3006 OM OM1 3006 -0.550000 15.99940
3007 OM 3007 OM OM1 3007 -0.550000 15.99940
3008 OM 3008 OM OM1 3008 -0.550000 15.99940
3009 OM 3009 OM OM1 3009 -0.550000 15.99940
3010 OM 3010 OM OM1 3010 -0.550000 15.99940
3011 OM 3011 OM OM1 3011 -0.550000 15.99940
3012 OM 3012 OM OM1 3012 -0.550000 15.99940
3013 OM 3013 OM OM1 3013 -0.550000 15.99940
3014 OM 3014 OM OM1 3014 -0.550000 15.99940
3015 OM 3015 OM OM1 3015 -0.550000 15.99940
3016 OM 3016 OM OM1 3016 -0.550000 15.99940
3017 OM 3017 OM OM1 3017 -0.550000 15.99940
3018 OM 3018 OM OM1 3018 -0.550000 15.99940
3019 OM 3019 OM OM1 3019 -0.550000 15.99940
3020 OM 3020 OM OM1 3020 -0.550000 15.99940
3021 OM 3021 OM OM1 3021 -0.550000 15.99940
3022 OM 3022 OM OM1 3022 -0.550000 15.99940
3023 OM 3023 OM OM1 3023 -0.550000 15.99940
3024 OM 3024 OM OM1 3024 -0.550000 15.99940
3025 OM 3025 OM OM1 3025 -0.550000 15.99940
3026 OM 3026 OM OM1 3026 -0.550000 15.99940
3027 OM 3027 OM OM1 3027 -0.550000 15.99940
3028 OM 3028 OM OM1 3028 -0.550000 15.99940
3029 OM 3029 OM OM1 3029 -0.550000 15.99940
3030 OM 3030 OM OM1 3030 -0.550000 15.99940
3031 OM 3031 OM OM1 3031 -0.550000 15.99940
3032 OM 3032 OM OM1 3032 -0.550000 15.99940
3033 OM 3033 OM OM1 3033 -0.550000 15.99940
3034 OM 3034 OM OM1 3034 -0.550000 15.99940
3035 OM 3035 OM OM1 3035 -0.550000 15.99940
3036 OM 3036 OM OM1 3036 -0.550000 15.99940
3037 OM 3037 OM OM1 3037 -0.550000 15.99940
3038 OM 3038 OM OM1 3038 -0.550000 15.99940
3039 OM 3039 OM OM1 3039 -0.550000 15.99940
3040 OM 3040 OM OM1 3040 -0.550000 15.99940
3041 OM 3041 OM OM1 3041 -0.550000 15.99940
3042 OM 3042 OM OM1 3042 -0.550000 15.99940
3043 OM 3043 OM OM1 3043 -0.550000 15.99940
3044 OM 3044 OM OM1 3044 -0.550000 15.99940
3045 OM 3045 OM OM1 3045 -0.550000 15.99940
3046 OM 3046 OM OM1 3046 -0.550000 15.99940
3047 OM 3047 OM OM1 3047 -0.550000 15.99940
3048 OM 3048 OM OM1 3048 -0.550000 15.99940
3049 OM 3049 OM OM1 3049 -0.550000 15.99940
3050 OM 3050 OM OM1 3050 -0.550000 15.99940
3051 OM 3051 OM OM1 3051 -0.550000 15.99940
3052 OM 3052 OM OM1 3052 -0.550000 15.99940
3053 OM 3053 OM OM1 3053 -0.550000 15.99940
3054 OM 3054 OM OM1 3054 -0.550000 15.99940
3055 OM 3055 OM OM1 3055 -0.550000 15.99940
3056 OM 3056 OM OM1 3056 -0.550000 15.99940
3057 OM 3057 OM OM1 3057 -0.550000 15.99940
3058 OM 3058 OM OM1 3058 -0.550000 15.99940
3059 OM 3059 OM OM1 3059 -0.550000 15.99940
3060 OM 3060 OM OM1 3060 -0.550000 15.99940
3061 OM 3061 OM OM1 3061 -0.550000 15.99940
3062 OM 3062 OM OM1 3062 -0.550000 15.99940
3063 OM 3063 OM OM1 3063 -0.550000 15.99940
3064 OM 3064 OM OM1 3064 -0.550000 15.99940
3065 OM 3065 OM OM1 3065 -0.550000 15.99940
3066 OM 3066 OM OM1 3066 -0.550000 15.99940
3067 OM 3067 OM OM1 3067 -0.550000 15.99940
3068 OM 3068 OM OM1 3068 -0.550000 15.99940
3069 OM 3069 OM OM1 3069 -0.550000 15.99940
3070 OM 3070 OM OM1 3070 -0.550000 15.99940
3071 OM 3071 OM OM1 3071 -0.550000 15.99940
3072 OM 3072 OM OM1 3072 -0.550000 15.99940
3073 OM 3073 OM OM1 3073 -0.550000 15.99940
3074 OM 3074 OM OM1 3074 -0.550000 15.99940
3075 OM 3075 OM OM1 3075 -0.550000 15.99940
3076 OM 3076 OM OM1 3076 -0.550000 15.99940
3077 OM 3077 OM OM1 3077 -0.550000 15.99940
3078 OM 3078 OM OM1 3078 -0.550000 15.99940
3079 OM 3079 OM OM1 3079 -0.550000 15.99940
3080 OM 3080 OM OM1 3080 -0.550000 15.99940
3081 OM 3081 OM OM1 3081 -0.550000 15.99940
3082 OM 3082 OM OM1 3082 -0.550000 15.99940
3083 OM 3083 OM OM1 3083 -0.550000 15.99940
3084 OM 3084 OM OM1 3084 -0.550000 15.99940
3085 OM 3085 OM OM1 3085 -0.550000 15.99940
3086 OM 3086 OM OM1 3086 -0.550000 15.99940
3087 OM 3087 OM OM1 3087 -0.550000 15.99940
3088 OM 3088 OM OM1 3088 -0.550000 15.99940
3089 OM 3089 OM OM1 3089 -0.550000 15.99940
3090 OM 3090 OM OM1 3090 -0.550000 15.99940
3091 OM 3091 OM OM1 3091 -0.550000 15.99940
3092 OM 3092 OM OM1 3092 -0.550000 15.99940
3093 OM 3093 OM OM1 3093 -0.550000 15.99940
3094 OM 3094 OM OM1 3094 -0.550000 15.99940
3095 OM 3095 OM OM1 3095 -0.550000 15.99940
3096 OM 3096 OM OM1 3096 -0.550000 15.99940
3097 OM 3097 OM OM1 3097 -0.550000 15.99940
3098 OM 3098 OM OM1 3098 -0.550000 15.99940
3099 OM 3099 OM OM1 3099 -0.550000 15.99940
3100 OM 3100 OM OM1 3100 -0.550000 15.99940
3101 OM 3101 OM OM1 3101 -0.550000 15.99940
3102 OM 3102 OM OM1 3102 -0.550000 15.99940
3103 OM 3103 OM OM1 3103 -0.550000 15.99940
3104 OM 3104 OM OM1 3104 -0.550000 15.99940
3105 OM 3105 OM OM1 3105 -0.550000 15.99940
3106 OM 3106 OM OM1 3106 -0.550000 15.99940
3107 OM 3107 OM OM1 3107 -0.550000 15.99940
3108 OM 3108 OM OM1 3108 -0.550000 15.99940
3109 OM 3109 OM OM1 3109 -0.550000 15.99940
3110 OM 3110 OM OM1 3110 -0.550000 15.99940
3111 OM 3111 OM OM1 3111 -0.550000 15.99940
3112 OM 3112 OM OM1 3112 -0.550000 15.99940
3113 OM 3113 OM OM1 3113 -0.550000 15.99940
3114 OM 3114 OM OM1 3114 -0.550000 15.99940
3115 OM 3115 OM OM1 3115 -0.550000 15.99940
3116 OM 3116 OM OM1 3116 -0.550000 15.99940
3117 OM 3117 OM OM1 3117 -0.550000 15.99940
3118 OM 3118 OM OM1 3118 -0.550000 15.99940
3119 OM 3119 OM OM1 3119 -0.550000 15.99940
3120 OM 3120 OM OM1 3120 -0.550000 15.99940
3121 OM 3121 OM OM1 3121 -0.550000 15.99940
3122 OM 3122 OM OM1 3122 -0.550000 15.99940
3123 OM 3123 OM OM1 3123 -0.550000 15.99940
3124 OM 3124 OM OM1 3124 -0.550000 15.99940
3125 OM 3125 OM OM1 3125 -0.550000 15.99940
3126 OM 3126 OM OM1 3126 -0.550000 15.99940
3127 OM 3127 OM OM1 3127 -0.550000 15.99940
3128 OM 3128 OM OM1 3128 -0.550000 15.99940
3129 OM 3129 OM OM1 3129 -0.550000 15.99940
3130 OM 3130 OM OM1 3130 -0.550000 15.99940
3131 OM 3131 OM OM1 3131 -0.550000 15.99940
3132 OM 3132 OM OM1 3132 -0.550000 15.99940
3133 OM 3133 OM OM1 3133 -0.550000 15.99940
3134 OM 3134 OM OM1 3134 -0.550000 15.99940
3135 OM 3135 OM OM1 3135 -0.550000 15.99940
3136 OM 3136 OM OM1 3136 -0.550000 15.99940
3137 OM 3137 OM OM1 3137 -0.550000 15.99940
3138 OM 3138 OM OM1 3138 -0.550000 15.99940
3139 OM 3139 OM OM1 3139 -0.550000 15.99940
3140 OM 3140 OM OM1 3140 -0.550000 15.99940
3141 OM 3141 OM OM1 3141 -0.550000 15.99940
3142 OM 3142 OM OM1 3142 -0.550000 15.99940
3143 OM 3143 OM OM1 3143 -0.550000 15.99940
3144 OM 3144 OM OM1 3144 -0.550000 15.99940
3145 OM 3145 OM OM1 3145 -0.550000 15.99940
3146 OM 3146 OM OM1 3146 -0.550000 15.99940
3147 OM 3147 OM OM1 3147 -0.550000 15.99940
3148 OM 3148 OM OM1 3148 -0.550000 15.99940
3149 OM 3149 OM OM1 3149 -0.550000 15.99940
3150 OM 3150 OM OM1 3150 -0.550000 15.99940
3151 OM 3151 OM OM1 3151 -0.550000 15.99940
3152 OM 3152 OM OM1 3152 -0.550000 15.99940
3153 OM 3153 OM OM1 3153 -0.550000 15.99940
3154 OM 3154 OM OM1 3154 -0.550000 15.99940
3155 OM 3155 OM OM1 3155 -0.550000 15.99940
3156 OM 3156 OM OM1 3156 -0.550000 15.99940
3157 OM 3157 OM OM1 3157 -0.550000 15.99940
3158 OM 3158 OM OM1 3158 -0.550000 15.99940
3159 OM 3159 OM OM1 3159 -0.550000 15.99940
3160 OM 3160 OM OM1 3160 -0.550000 15.99940
3161 OM 3161 OM OM1 3161 -0.550000 15.99940
3162 OM 3162 OM OM1 3162 -0.550000 15.99940
3163 OM 3163 OM OM1 3163 -0.550000 15.99940
3164 OM 3164 OM OM1 3164 -0.550000 15.99940
3165 OM 3165 OM OM1 3165 -0.550000 15.99940
3166 OM 3166 OM OM1 3166 -0.550000 15.99940
3167 OM 3167 OM OM1 3167 -0.550000 15.99940
3168 OM 3168 OM OM1 3168 -0.550000 15.99940
3169 OM 3169 OM OM1 3169 -0.550000 15.99940
3170 OM 3170 OM OM1 3170 -0.550000 15.99940
3171 OM 3171 OM OM1 3171 -0.550000 15.99940
3172 OM 3172 OM OM1 3172 -0.550000 15.99940
3173 OM 3173 OM OM1 3173 -0.550000 15.99940
3174 OM 3174 OM OM1 3174 -0.550000 15.99940
3175 OM 3175 OM OM1 3175 -0.550000 15.99940
3176 OM 3176 OM OM1 3176 -0.550000 15.99940
3177 OM 3177 OM OM1 3177 -0.550000 15.99940
3178 OM 3178 OM OM1 3178 -0.550000 15.99940
3179 OM 3179 OM OM1 3179 -0.550000 15.99940
3180 OM 3180 OM OM1 3180 -0.550000 15.99940
3181 OM 3181 OM OM1 3181 -0.550000 15.99940
3182 OM 3182 OM OM1 3182 -0.550000 15.99940
3183 OM 3183 OM OM1 3183 -0.550000 15.99940
3184 OM 3184 OM OM1 3184 -0.550000 15.99940
3185 OM 3185 OM OM1 3185 -0.550000 15.99940
3186 OM 3186 OM OM1 3186 -0.550000 15.99940
3187 OM 3187 OM OM1 3187 -0.550000 15.99940
3188 OM 3188 OM OM1 3188 -0.550000 15.99940
3189 OM 3189 OM OM1 3189 -0.550000 15.99940
3190 OM 3190 OM OM1 3190 -0.550000 15.99940
3191 OM 3191 OM OM1 3191 -0.550000 15.99940
3192 OM 3192 OM OM1 3192 -0.550000 15.99940
3193 OM 3193 OM OM1 3193 -0.550000 15.99940
3194 OM 3194 OM OM1 3194 -0.550000 15.99940
3195 OM 3195 OM OM1 3195 -0.550000 15.99940
3196 OM 3196 OM OM1 3196 -0.550000 15.99940
3197 OM 3197 OM OM1 3197 -0.550000 15.99940
3198 OM 3198 OM OM1 3198 -0.550000 15.99940
3199 OM 3199 OM OM1 3199 -0.550000 15.99940
3200 OM 3200 OM OM1 3200 -0.550000 15.99940
3201 OM 3201 OM OM1 3201 -0.550000 15.99940
3202 OM 3202 OM OM1 3202 -0.550000 15.99940
3203 OM 3203 OM OM1 3203 -0.550000 15.99940
3204 OM 3204 OM OM1 3204 -0.550000 15.99940
3205 OM 3205 OM OM1 3205 -0.550000 15.99940
3206 OM 3206 OM OM1 3206 -0.550000 15.99940
3207 OM 3207 OM OM1 3207 -0.550000 15.99940
3208 OM 3208 OM OM1 3208 -0.550000 15.99940
3209 OM 3209 OM OM1 3209 -0.550000 15.99940
3210 OM 3210 OM OM1 3210 -0.550000 15.99940
3211 OM 3211 OM OM1 3211 -0.550000 15.99940
3212 OM 3212 OM OM1 3212 -0.550000 15.99940
3213 OM 3213 OM OM1 3213 -0.550000 15.99940
3214 OM 3214 OM OM1 3214 -0.550000 15.99940
3215 OM 3215 OM OM1 3215 -0.550000 15.99940
3216 OM 3216 OM OM1 3216 -0.550000 15.99940
3217 OM 3217 OM OM1 3217 -0.550000 15.99940
3218 OM 3218 OM OM1 3218 -0.550000 15.99940
3219 OM 3219 OM OM1 3219 -0.550000 15.99940
3220 OM 3220 OM OM1 3220 -0.550000 15.99940
3221 OM 3221 OM OM1 3221 -0.550000 15.99940
3222 OM 3222 OM OM1 3222 -0.550000 15.99940
3223 OM 3223 OM OM1 3223 -0.550000 15.99940
3224 OM 3224 OM OM1 3224 -0.550000 15.99940
3225 OM 3225 OM OM1 3225 -0.550000 15.99940
3226 OM 3226 OM OM1 3226 -0.550000 15.99940
3227 OM 3227 OM OM1 3227 -0.550000 15.99940
3228 OM 3228 OM OM1 3228 -0.550000 15.99940
3229 OM 3229 OM OM1 3229 -0.550000 15.99940
3230 OM 3230 OM OM1 3230 -0.550000 15.99940
3231 OM 3231 OM OM1 3231 -0.550000 15.99940
3232 OM 3232 OM OM1 3232 -0.550000 15.99940
3233 OM 3233 OM OM1 3233 -0.550000 15.99940
3234 OM 3234 OM OM1 3234 -0.550000 15.99940
3235 OM 3235 OM OM1 3235 -0.550000 15.99940
3236 OM 3236 OM OM1 3236 -0.550000 15.99940
3237 OM 3237 OM OM1 3237 -0.550000 15.99940
3238 OM 3238 OM OM1 3238 -0.550000 15.99940
3239 OM 3239 OM OM1 3239 -0.550000 15.99940
3240 OM 3240 OM OM1 3240 -0.550000 15.99940
3241 OM 3241 OM OM1 3241 -0.550000 15.99940
3242 OM 3242 OM OM1 3242 -0.550000 15.99940
3243 OM 3243 OM OM1 3243 -0.550000 15.99940
3244 OM 3244 OM OM1 3244 -0.550000 15.99940
3245 OM 3245 OM OM1 3245 -0.550000 15.99940
3246 OM 3246 OM OM1 3246 -0.550000 15.99940
3247 OM 3247 OM OM1 3247 -0.550000 15.99940
3248 OM 3248 OM OM1 3248 -0.550000 15.99940
3249 OM 3249 OM OM1 3249 -0.550000 15.99940
3250 OM 3250 OM OM1 3250 -0.550000 15.99940
3251 OM 3251 OM OM1 3251 -0.550000 15.99940
3252 OM 3252 OM OM1 3252 -0.550000 15.99940
3253 OM 3253 OM OM1 3253 -0.550000 15.99940
3254 OM 3254 OM OM1 3254 -0.550000 15.99940
3255 OM 3255 OM OM1 3255 -0.550000 15.99940
3256 OM 3256 OM OM1 3256 -0.550000 15.99940
3257 OM 3257 OM OM1 3257 -0.550000 15.99940
3258 OM 3258 OM OM1 3258 -0.550000 15.99940
3259 OM 3259 OM OM1 3259 -0.550000 15.99940
3260 OM 3260 OM OM1 3260 -0.550000 15.99940
3261 OM 3261 OM OM1 3261 -0.550000 15.99940
3262 OM 3262 OM OM1 3262 -0.550000 15.99940
3263 OM 3263 OM OM1 3263 -0.550000 15.99940
3264 OM 3264 OM OM1 3264 -0.550000 15.99940
3265 OM 3265 OM OM1 3265 -0.550000 15.99940
3266 OM 3266 OM OM1 3266 -0.550000 15.99940
3267 OM 3267 OM OM1 3267 -0.550000 15.99940
3268 OM 3268 OM OM1 3268 -0.550000 15.99940
3269 OM 3269 OM OM1 3269 -0.550000 15.99940
3270 OM 3270 OM OM1 3270 -0.550000 15.99940
3271 OM 3271 OM OM1 3271 -0.550000 15.99940
3272 OM 3272 OM OM1 3272 -0.550000 15.99940
3273 OM 3273 OM OM1 3273 -0.550000 15.99940
3274 OM 3274 OM OM1 3274 -0.550000 15.99940
3275 OM 3275 OM OM1 3275 -0.550000 15.99940
3276 OM 3276 OM OM1 3276 -0.550000 15.99940
3277 OM 3277 OM OM1 3277 -0.550000 15.99940
3278 OM 3278 OM OM1 3278 -0.550000 15.99940
3279 OM 3279 OM OM1 3279 -0.550000 15.99940
3280 OM 3280 OM OM1 3280 -0.550000 15.99940
3281 OM 3281 OM OM1 3281 -0.550000 15.99940
3282 OM 3282 OM OM1 3282 -0.550000 15.99940
3283 OM 3283 OM OM1 3283 -0.550000 15.99940
3284 OM 3284 OM OM1 3284 -0.550000 15.99940
3285 OM 3285 OM OM1 3285 -0.550000 15.99940
3286 OM 3286 OM OM1 3286 -0.550000 15.99940
3287 OM 3287 OM OM1 3287 -0.550000 15.99940
3288 OM 3288 OM OM1 3288 -0.550000 15.99940
3289 OM 3289 OM OM1 3289 -0.550000 15.99940
3290 OM 3290 OM OM1 3290 -0.550000 15.99940
3291 OM 3291 OM OM1 3291 -0.550000 15.99940
3292 OM 3292 OM OM1 3292 -0.550000 15.99940
3293 OM 3293 OM OM1 3293 -0.550000 15.99940
3294 OM 3294 OM OM1 3294 -0.550000 15.99940
3295 OM 3295 OM OM1 3295 -0.550000 15.99940
3296 OM 3296 OM OM1 3296 -0.550000 15.99940
3297 OM 3297 OM OM1 3297 -0.550000 15.99940
3298 OM 3298 OM OM1 3298 -0.550000 15.99940
3299 OM 3299 OM OM1 3299 -0.550000 15.99940
3300 OM 3300 OM OM1 3300 -0.550000 15.99940
3301 OM 3301 OM OM1 3301 -0.550000 15.99940
3302 OM 3302 OM OM1 3302 -0.550000 15.99940
3303 OM 3303 OM OM1 3303 -0.550000 15.99940
3304 OM 3304 OM OM1 3304 -0.550000 15.99940
3305 OM 3305 OM OM1 3305 -0.550000 15.99940
3306 OM 3306 OM OM1 3306 -0.550000 15.99940
3307 OM 3307 OM OM1 3307 -0.550000 15.99940
3308 OM 3308 OM OM1 3308 -0.550000 15.99940
3309 OM 3309 OM OM1 3309 -0.550000 15.99940
3310 OM 3310 OM OM1 3310 -0.550000 15.99940
3311 OM 3311 OM OM1 3311 -0.550000 15.99940
3312 OM 3312 OM OM1 3312 -0.550000 15.99940
3313 OM 3313 OM OM1 3313 -0.550000 15.99940
3314 OM 3314 OM OM1 3314 -0.550000 15.99940
3315 OM 3315 OM OM1 3315 -0.550000 15.99940
3316 OM 3316 OM OM1 3316 -0.550000 15.99940
3317 OM 3317 OM OM1 3317 -0.550000 15.99940
3318 OM 3318 OM OM1 3318 -0.550000 15.99940
3319 OM 3319 OM OM1 3319 -0.550000 15.99940
3320 OM 3320 OM OM1 3320 -0.550000 15.99940
3321 OM 3321 OM OM1 3321 -0.550000 15.99940
3322 OM 3322 OM OM1 3322 -0.550000 15.99940
3323 OM 3323 OM OM1 3323 -0.550000 15.99940
3324 OM 3324 OM OM1 3324 -0.550000 15.99940
3325 OM 3325 OM OM1 3325 -0.550000 15.99940
3326 OM 3326 OM OM1 3326 -0.550000 15.99940
3327 OM 3327 OM OM1 3327 -0.550000 15.99940
3328 OM 3328 OM OM1 3328 -0.550000 15.99940
3329 OM 3329 OM OM1 3329 -0.550000 15.99940
3330 OM 3330 OM OM1 3330 -0.550000 15.99940
3331 OM 3331 OM OM1 3331 -0.550000 15.99940
3332 OM 3332 OM OM1 3332 -0.550000 15.99940
3333 OM 3333 OM OM1 3333 -0.550000 15.99940
3334 OM 3334 OM OM1 3334 -0.550000 15.99940
3335 OM 3335 OM OM1 3335 -0.550000 15.99940
3336 OM 3336 OM OM1 3336 -0.550000 15.99940
3337 OM 3337 OM OM1 3337 -0.550000 15.99940
3338 OM 3338 OM OM1 3338 -0.550000 15.99940
3339 OM 3339 OM OM1 3339 -0.550000 15.99940
3340 OM 3340 OM OM1 3340 -0.550000 15.99940
3341 OM 3341 OM OM1 3341 -0.550000 15.99940
3342 OM 3342 OM OM1 3342 -0.550000 15.99940
3343 OM 3343 OM OM1 3343 -0.550000 15.99940
3344 OM 3344 OM OM1 3344 -0.550000 15.99940
3345 OM 3345 OM OM1 3345 -0.550000 15.99940
3346 OM 3346 OM OM1 3346 -0.550000 15.99940
3347 OM 3347 OM OM1 3347 -0.550000 15.99940
3348 OM 3348 OM OM1 3348 -0.550000 15.99940
3349 OM 3349 OM OM1 3349 -0.550000 15.99940
3350 OM 3350 OM OM1 3350 -0.550000 15.99940
3351 OM 3351 OM OM1 3351 -0.550000 15.99940
3352 OM 3352 OM OM1 3352 -0.550000 15.99940
3353 OM 3353 OM OM1 3353 -0.550000 15.99940
3354 OM 3354 OM OM1 3354 -0.550000 15.99940
3355 OM 3355 OM OM1 3355 -0.550000 15.99940
3356 OM 3356 OM OM1 3356 -0.550000 15.99940
3357 OM 3357 OM OM1 3357 -0.550000 15.99940
3358 OM 3358 OM OM1 3358 -0.550000 15.99940
3359 OM 3359 OM OM1 3359 -0.550000 15.99940
3360 OM 3360 OM OM1 3360 -0.550000 15.99940
3361 OM 3361 OM OM1 3361 -0.550000 15.99940
3362 OM 3362 OM OM1 3362 -0.550000 15.99940
3363 OM 3363 OM OM1 3363 -0.550000 15.99940
3364 OM 3364 OM OM1 3364 -0.550000 15.99940
3365 OM 3365 OM OM1 3365 -0.550000 15.99940
3366 OM 3366 OM OM1 3366 -0.550000 15.99940
3367 OM 3367 OM OM1 3367 -0.550000 15.99940
3368 OM 3368 OM OM1 3368 -0.550000 15.99940
3369 OM 3369 OM OM1 3369 -0.550000 15.99940
3370 OM 3370 OM OM1 3370 -0.550000 15.99940
3371 OM 3371 OM OM1 3371 -0.550000 15.99940
3372 OM 3372 OM OM1 3372 -0.550000 15.99940
3373 OM 3373 OM OM1 3373 -0.550000 15.99940
3374 OM 3374 OM OM1 3374 -0.550000 15.99940
3375 OM 3375 OM OM1 3375 -0.550000 15.99940
3376 OM 3376 OM OM1 3376 -0.550000 15.99940
3377 OM 3377 OM OM1 3377 -0.550000 15.99940
3378 OM 3378 OM OM1 3378 -0.550000 15.99940
3379 OM 3379 OM OM1 3379 -0.550000 15.99940
3380 OM 3380 OM OM1 3380 -0.550000 15.99940
3381 OM 3381 OM OM1 3381 -0.550000 15.99940
3382 OM 3382 OM OM1 3382 -0.550000 15.99940
3383 OM 3383 OM OM1 3383 -0.550000 15.99940
3384 OM 3384 OM OM1 3384 -0.550000 15.99940
3385 OM 3385 OM OM1 3385 -0.550000 15.99940
3386 OM 3386 OM OM1 3386 -0.550000 15.99940
3387 OM 3387 OM OM1 3387 -0.550000 15.99940
3388 OM 3388 OM OM1 3388 -0.550000 15.99940
3389 OM 3389 OM OM1 3389 -0.550000 15.99940
3390 OM 3390 OM OM1 3390 -0.550000 15.99940
3391 OM 3391 OM OM1 3391 -0.550000 15.99940
3392 OM 3392 OM OM1 3392 -0.550000 15.99940
3393 OM 3393 OM OM1 3393 -0.550000 15.99940
3394 OM 3394 OM OM1 3394 -0.550000 15.99940
3395 OM 3395 OM OM1 3395 -0.550000 15.99940
3396 OM 3396 OM OM1 3396 -0.550000 15.99940
3397 OM 3397 OM OM1 3397 -0.550000 15.99940
3398 OM 3398 OM OM1 3398 -0.550000 15.99940
3399 OM 3399 OM OM1 3399 -0.550000 15.99940
3400 OM 3400 OM OM1 3400 -0.550000 15.99940
3401 OM 3401 OM OM1 3401 -0.550000 15.99940
3402 OM 3402 OM OM1 3402 -0.550000 15.99940
3403 OM 3403 OM OM1 3403 -0.550000 15.99940
3404 OM 3404 OM OM1 3404 -0.550000 15.99940
3405 OM 3405 OM OM1 3405 -0.550000 15.99940
3406 OM 3406 OM OM1 3406 -0.550000 15.99940
3407 OM 3407 OM OM1 3407 -0.550000 15.99940
3408 OM 3408 OM OM1 3408 -0.550000 15.99940
3409 OM 3409 OM OM1 3409 -0.550000 15.99940
3410 OM 3410 OM OM1 3410 -0.550000 15.99940
3411 OM 3411 OM OM1 3411 -0.550000 15.99940
3412 OM 3412 OM OM1 3412 -0.550000 15.99940
3413 OM 3413 OM OM1 3413 -0.550000 15.99940
3414 OM 3414 OM OM1 3414 -0.550000 15.99940
3415 OM 3415 OM OM1 3415 -0.550000 15.99940
3416 OM 3416 OM OM1 3416 -0.550000 15.99940
3417 OM 3417 OM OM1 3417 -0.550000 15.99940
3418 OM 3418 OM OM1 3418 -0.550000 15.99940
3419 OM 3419 OM OM1 3419 -0.550000 15.99940
3420 OM 3420 OM OM1 3420 -0.550000 15.99940
3421 OM 3421 OM OM1 3421 -0.550000 15.99940
3422 OM 3422 OM OM1 3422 -0.550000 15.99940
3423 OM 3423 OM OM1 3423 -0.550000 15.99940
3424 OM 3424 OM OM1 3424 -0.550000 15.99940
3425 OM 3425 OM OM1 3425 -0.550000 15.99940
3426 OM 3426 OM OM1 3426 -0.550000 15.99940
3427 OM 3427 OM OM1 3427 -0.550000 15.99940
3428 OM 3428 OM OM1 3428 -0.550000 15.99940
3429 OM 3429 OM OM1 3429 -0.550000 15.99940
3430 OM 3430 OM OM1 3430 -0.550000 15.99940
3431 OM 3431 OM OM1 3431 -0.550000 15.99940
3432 OM 3432 OM OM1 3432 -0.550000 15.99940
3433 OM 3433 OM OM1 3433 -0.550000 15.99940
3434 OM 3434 OM OM1 3434 -0.550000 15.99940
3435 OM 3435 OM OM1 3435 -0.550000 15.99940
3436 OM 3436 OM OM1 3436 -0.550000 15.99940
3437 OM 3437 OM OM1 3437 -0.550000 15.99940
3438 OM 3438 OM OM1 3438 -0.550000 15.99940
3439 OM 3439 OM OM1 3439 -0.550000 15.99940
3440 OM 3440 OM OM1 3440 -0.550000 15.99940
3441 OM 3441 OM OM1 3441 -0.550000 15.99940
3442 OM 3442 OM OM1 3442 -0.550000 15.99940
3443 OM 3443 OM OM1 3443 -0.550000 15.99940
3444 OM 3444 OM OM1 3444 -0.550000 15.99940
3445 OM 3445 OM OM1 3445 -0.550000 15.99940
3446 OM 3446 OM OM1 3446 -0.550000 15.99940
3447 OM 3447 OM OM1 3447 -0.550000 15.99940
3448 OM 3448 OM OM1 3448 -0.550000 15.99940
3449 OM 3449 OM OM1 3449 -0.550000 15.99940
3450 OM 3450 OM OM1 3450 -0.550000 15.99940
3451 OM 3451 OM OM1 3451 -0.550000 15.99940
3452 OM 3452 OM OM1 3452 -0.550000 15.99940
3453 OM 3453 OM OM1 3453 -0.550000 15.99940
3454 OM 3454 OM OM1 3454 -0.550000 15.99940
3455 OM 3455 OM OM1 3455 -0.550000 15.99940
3456 OM 3456 OM OM1 3456 -0.550000 15.99940
3457 OM 3457 OM OM1 3457 -0.550000 15.99940
3458 OM 3458 OM OM1 3458 -0.550000 15.99940
3459 OM 3459 OM OM1 3459 -0.550000 15.99940
3460 OM 3460 OM OM1 3460 -0.550000 15.99940
3461 OM 3461 OM OM1 3461 -0.550000 15.99940
3462 OM 3462 OM OM1 3462 -0.550000 15.99940
3463 OM 3463 OM OM1 3463 -0.550000 15.99940
3464 OM 3464 OM OM1 3464 -0.550000 15.99940
3465 OM 3465 OM OM1 3465 -0.550000 15.99940
3466 OM 3466 OM OM1 3466 -0.550000 15.99940
3467 OM 3467 OM OM1 3467 -0.550000 15.99940
3468 OM 3468 OM OM1 3468 -0.550000 15.99940
3469 OM 3469 OM OM1 3469 -0.550000 15.99940
3470 OM 3470 OM OM1 3470 -0.550000 15.99940
3471 OM 3471 OM OM1 3471 -0.550000 15.99940
3472 OM 3472 OM OM1 3472 -0.550000 15.99940
3473 OM 3473 OM OM1 3473 -0.550000 15.99940
3474 OM 3474 OM OM1 3474 -0.550000 15.99940
3475 OM 3475 OM OM1 3475 -0.550000 15.99940
3476 OM 3476 OM OM1 3476 -0.550000 15.99940
3477 OM 3477 OM OM1 3477 -0.550000 15.99940
3478 OM 3478 OM OM1 3478 -0.550000 15.99940
3479 OM 3479 OM OM1 3479 -0.550000 15.99940
3480 OM 3480 OM OM1 3480 -0.550000 15.99940
3481 OM 3481 OM OM1 3481 -0.550000 15.99940
3482 OM 3482 OM OM1 3482 -0.550000 15.99940
3483 OM 3483 OM OM1 3483 -0.550000 15.99940
3484 OM 3484 OM OM1 3484 -0.550000 15.99940
3485 OM 3485 OM OM1 3485 -0.550000 15.99940
3486 OM 3486 OM OM1 3486 -0.550000 15.99940
3487 OM 3487 OM OM1 3487 -0.550000 15.99940
3488 OM 3488 OM OM1 3488 -0.550000 15.99940
3489 OM 3489 OM OM1 3489 -0.550000 15.99940
3490 OM 3490 OM OM1 3490 -0.550000 15.99940
3491 OM 3491 OM OM1 3491 -0.550000 15.99940
3492 OM 3492 OM OM1 3492 -0.550000 15.99940
3493 OM 3493 OM OM1 3493 -0.550000 15.99940
3494 OM 3494 OM OM1 3494 -0.550000 15.99940
3495 OM 3495 OM OM1 3495 -0.550000 15.99940
3496 OM 3496 OM OM1 3496 -0.550000 15.99940
3497 OM 3497 OM OM1 3497 -0.550000 15.99940
3498 OM 3498 OM OM1 3498 -0.550000 15.99940
3499 OM 3499 OM OM1 3499 -0.550000 15.99940
3500 OM 3500 OM OM1 3500 -0.550000 15.99940
3501 OM 3501 OM OM1 3501 -0.550000 15.99940
3502 OM 3502 OM OM1 3502 -0.550000 15.99940
3503 OM 3503 OM OM1 3503 -0.550000 15.99940
3504 OM 3504 OM OM1 3504 -0.550000 15.99940
3505 OM 3505 OM OM1 3505 -0.550000 15.99940
3506 OM 3506 OM OM1 3506 -0.550000 15.99940
3507 OM 3507 OM OM1 3507 -0.550000 15.99940
3508 OM 3508 OM OM1 3508 -0.550000 15.99940
3509 OM 3509 OM OM1 3509 -0.550000 15.99940
3510 OM 3510 OM OM1 3510 -0.550000 15.99940
3511 OM 3511 OM OM1 3511 -0.550000 15.99940
3512 OM 3512 OM OM1 3512 -0.550000 15.99940
3513 OM 3513 OM OM1 3513 -0.550000 15.99940
3514 OM 3514 OM OM1 3514 -0.550000 15.99940
3515 OM 3515 OM OM1 3515 -0.550000 15.99940
3516 OM 3516 OM OM1 3516 -0.550000 15.99940
3517 OM 3517 OM OM1 3517 -0.550000 15.99940
3518 OM 3518 OM OM1 3518 -0.550000 15.99940
3519 OM 3519 OM OM1 3519 -0.550000 15.99940
3520 OM 3520 OM OM1 3520 -0.550000 15.99940
3521 OM 3521 OM OM1 3521 -0.550000 15.99940
3522 OM 3522 OM OM1 3522 -0.550000 15.99940
3523 OM 3523 OM OM1 3523 -0.550000 15.99940
3524 OM 3524 OM OM1 3524 -0.550000 15.99940
3525 OM 3525 OM OM1 3525 -0.550000 15.99940
3526 OM 3526 OM OM1 3526 -0.550000 15.99940
3527 OM 3527 OM OM1 3527 -0.550000 15.99940
3528 OM 3528 OM OM1 3528 -0.550000 15.99940
3529 OM 3529 OM OM1 3529 -0.550000 15.99940
3530 OM 3530 OM OM1 3530 -0.550000 15.99940
3531 OM 3531 OM OM1 3531 -0.550000 15.99940
3532 OM 3532 OM OM1 3532 -0.550000 15.99940
3533 OM 3533 OM OM1 3533 -0.550000 15.99940
3534 OM 3534 OM OM1 3534 -0.550000 15.99940
3535 OM 3535 OM OM1 3535 -0.550000 15.99940
3536 OM 3536 OM OM1 3536 -0.550000 15.99940
3537 OM 3537 OM OM1 3537 -0.550000 15.99940
3538 OM 3538 OM OM1 3538 -0.550000 15.99940
3539 OM 3539 OM OM1 3539 -0.550000 15.99940
3540 OM 3540 OM OM1 3540 -0.550000 15.99940
3541 OM 3541 OM OM1 3541 -0.550000 15.99940
3542 OM 3542 OM OM1 3542 -0.550000 15.99940
3543 OM 3543 OM OM1 3543 -0.550000 15.99940
3544 OM 3544 OM OM1 3544 -0.550000 15.99940
3545 OM 3545 OM OM1 3545 -0.550000 15.99940
3546 OM 3546 OM OM1 3546 -0.550000 15.99940
3547 OM 3547 OM OM1 3547 -0.550000 15.99940
3548 OM 3548 OM OM1 3548 -0.550000 15.99940
3549 OM 3549 OM OM1 3549 -0.550000 15.99940
3550 OM 3550 OM OM1 3550 -0.550000 15.99940
3551 OM 3551 OM OM1 3551 -0.550000 15.99940
3552 OM 3552 OM OM1 3552 -0.550000 15.99940
3553 OM 3553 OM OM1 3553 -0.550000 15.99940
3554 OM 3554 OM OM1 3554 -0.550000 15.99940
3555 OM 3555 OM OM1 3555 -0.550000 15.99940
3556 OM 3556 OM OM1 3556 -0.550000 15.99940
3557 OM 3557 OM OM1 3557 -0.550000 15.99940
3558 OM 3558 OM OM1 3558 -0.550000 15.99940
3559 OM 3559 OM OM1 3559 -0.550000 15.99940
3560 OM 3560 OM OM1 3560 -0.550000 15.99940
3561 OM 3561 OM OM1 3561 -0.550000 15.99940
3562 OM 3562 OM OM1 3562 -0.550000 15.99940
3563 OM 3563 OM OM1 3563 -0.550000 15.99940
3564 OM 3564 OM OM1 3564 -0.550000 15.99940
3565 OM 3565 OM OM1 3565 -0.550000 15.99940
3566 OM 3566 OM OM1 3566 -0.550000 15.99940
3567 OM 3567 OM OM1 3567 -0.550000 15.99940
3568 OM 3568 OM OM1 3568 -0.550000 15.99940
3569 OM 3569 OM OM1 3569 -0.550000 15.99940
3570 OM 3570 OM OM1 3570 -0.550000 15.99940
3571 OM 3571 OM OM1 3571 -0.550000 15.99940
3572 OM 3572 OM OM1 3572 -0.550000 15.99940
3573 OM 3573 OM OM1 3573 -0.550000 15.99940
3574 OM 3574 OM OM1 3574 -0.550000 15.99940
3575 OM 3575 OM OM1 3575 -0.550000 15.99940
3576 OM 3576 OM OM1 3576 -0.550000 15.99940
3577 OM 3577 OM OM1 3577 -0.550000 15.99940
3578 OM 3578 OM OM1 3578 -0.550000 15.99940
3579 OM 3579 OM OM1 3579 -0.550000 15.99940
3580 OM 3580 OM OM1 3580 -0.550000 15.99940
3581 OM 3581 OM OM1 3581 -0.550000 15.99940
3582 OM 3582 OM OM1 3582 -0.550000 15.99940
3583 OM 3583 OM OM1 3583 -0.550000 15.99940
3584 OM 3584 OM OM1 3584 -0.550000 15.99940
3585 OM 3585 OM OM1 3585 -0.550000 15.99940
3586 OM 3586 OM OM1 3586 -0.550000 15.99940
3587 OM 3587 OM OM1 3587 -0.550000 15.99940
3588 OM 3588 OM OM1 3588 -0.550000 15.99940
3589 OM 3589 OM OM1 3589 -0.550000 15.99940
3590 OM 3590 OM OM1 3590 -0.550000 15.99940
3591 OM 3591 OM OM1 3591 -0.550000 15.99940
3592 OM 3592 OM OM1 3592 -0.550000 15.99940
3593 OM 3593 OM OM1 3593 -0.550000 15.99940
3594 OM 3594 OM OM1 3594 -0.550000 15.99940
3595 OM 3595 OM OM1 3595 -0.550000 15.99940
3596 OM 3596 OM OM1 3596 -0.550000 15.99940
3597 OM 3597 OM OM1 3597 -0.550000 15.99940
3598 OM 3598 OM OM1 3598 -0.550000 15.99940
3599 OM 3599 OM OM1 3599 -0.550000 15.99940
3600 OM 3600 OM OM1 3600 -0.550000 15.99940
3601 OM 3601 OM OM1 3601 -0.550000 15.99940
3602 OM 3602 OM OM1 3602 -0.550000 15.99940
3603 OM 3603 OM OM1 3603 -0.550000 15.99940
3604 OM 3604 OM OM1 3604 -0.550000 15.99940
3605 OM 3605 OM OM1 3605 -0.550000 15.99940
3606 OM 3606 OM OM1 3606 -0.550000 15.99940
3607 OM 3607 OM OM1 3607 -0.550000 15.99940
3608 OM 3608 OM OM1 3608 -0.550000 15.99940
3609 OM 3609 OM OM1 3609 -0.550000 15.99940
3610 OM 3610 OM OM1 3610 -0.550000 15.99940
3611 OM 3611 OM OM1 3611 -0.550000 15.99940
3612 OM 3612 OM OM1 3612 -0.550000 15.99940
3613 OM 3613 OM OM1 3613 -0.550000 15.99940
3614 OM 3614 OM OM1 3614 -0.550000 15.99940
3615 OM 3615 OM OM1 3615 -0.550000 15.99940
3616 OM 3616 OM OM1 3616 -0.550000 15.99940
3617 OM 3617 OM OM1 3617 -0.550000 15.99940
3618 OM 3618 OM OM1 3618 -0.550000 15.99940
3619 OM 3619 OM OM1 3619 -0.550000 15.99940
3620 OM 3620 OM OM1 3620 -0.550000 15.99940
3621 OM 3621 OM OM1 3621 -0.550000 15.99940
3622 OM 3622 OM OM1 3622 -0.550000 15.99940
3623 OM 3623 OM OM1 3623 -0.550000 15.99940
3624 OM 3624 OM OM1 3624 -0.550000 15.99940
3625 OM 3625 OM OM1 3625 -0.550000 15.99940
3626 OM 3626 OM OM1 3626 -0.550000 15.99940
3627 OM 3627 OM OM1 3627 -0.550000 15.99940
3628 OM 3628 OM OM1 3628 -0.550000 15.99940
3629 OM 3629 OM OM1 3629 -0.550000 15.99940
3630 OM 3630 OM OM1 3630 -0.550000 15.99940
3631 OM 3631 OM OM1 3631 -0.550000 15.99940
3632 OM 3632 OM OM1 3632 -0.550000 15.99940
3633 OM 3633 OM OM1 3633 -0.550000 15.99940
3634 OM 3634 OM OM1 3634 -0.550000 15.99940
3635 OM 3635 OM OM1 3635 -0.550000 15.99940
3636 OM 3636 OM OM1 3636 -0.550000 15.99940
3637 OM 3637 OM OM1 3637 -0.550000 15.99940
3638 OM 3638 OM OM1 3638 -0.550000 15.99940
3639 OM 3639 OM OM1 3639 -0.550000 15.99940
3640 OM 3640 OM OM1 3640 -0.550000 15.99940
3641 OM 3641 OM OM1 3641 -0.550000 15.99940
3642 OM 3642 OM OM1 3642 -0.550000 15.99940
3643 OM 3643 OM OM1 3643 -0.550000 15.99940
3644 OM 3644 OM OM1 3644 -0.550000 15.99940
3645 OM 3645 OM OM1 3645 -0.550000 15.99940
3646 OM 3646 OM OM1 3646 -0.550000 15.99940
3647 OM 3647 OM OM1 3647 -0.550000 15.99940
3648 OM 3648 OM OM1 3648 -0.550000 15.99940
3649 OM 3649 OM OM1 3649 -0.550000 15.99940
3650 OM 3650 OM OM1 3650 -0.550000 15.99940
3651 OM 3651 OM OM1 3651 -0.550000 15.99940
3652 OM 3652 OM OM1 3652 -0.550000 15.99940
3653 OM 3653 OM OM1 3653 -0.550000 15.99940
3654 OM 3654 OM OM1 3654 -0.550000 15.99940
3655 OM 3655 OM OM1 3655 -0.550000 15.99940
3656 OM 3656 OM OM1 3656 -0.550000 15.99940
3657 OM 3657 OM OM1 3657 -0.550000 15.99940
3658 OM 3658 OM OM1 3658 -0.550000 15.99940
3659 OM 3659 OM OM1 3659 -0.550000 15.99940
3660 OM 3660 OM OM1 3660 -0.550000 15.99940
3661 OM 3661 OM OM1 3661 -0.550000 15.99940
3662 OM 3662 OM OM1 3662 -0.550000 15.99940
3663 OM 3663 OM OM1 3663 -0.550000 15.99940
3664 OM 3664 OM OM1 3664 -0.550000 15.99940
3665 OM 3665 OM OM1 3665 -0.550000 15.99940
3666 OM 3666 OM OM1 3666 -0.550000 15.99940
3667 OM 3667 OM OM1 3667 -0.550000 15.99940
3668 OM 3668 OM OM1 3668 -0.550000 15.99940
3669 OM 3669 OM OM1 3669 -0.550000 15.99940
3670 OM 3670 OM OM1 3670 -0.550000 15.99940
3671 OM 3671 OM OM1 3671 -0.550000 15.99940
3672 OM 3672 OM OM1 3672 -0.550000 15.99940
3673 OM 3673 OM OM1 3673 -0.550000 15.99940
3674 OM 3674 OM OM1 3674 -0.550000 15.99940
3675 OM 3675 OM OM1 3675 -0.550000 15.99940
3676 OM 3676 OM OM1 3676 -0.550000 15.99940
3677 OM 3677 OM OM1 3677 -0.550000 15.99940
3678 OM 3678 OM OM1 3678 -0.550000 15.99940
3679 OM 3679 OM OM1 3679 -0.550000 15.99940
3680 OM 3680 OM OM1 3680 -0.550000 15.99940
3681 OM 3681 OM OM1 3681 -0.550000 15.99940
3682 OM 3682 OM OM1 3682 -0.550000 15.99940
3683 OM 3683 OM OM1 3683 -0.550000 15.99940
3684 OM 3684 OM OM1 3684 -0.550000 15.99940
3685 OM 3685 OM OM1 3685 -0.550000 15.99940
3686 OM 3686 OM OM1 3686 -0.550000 15.99940
3687 OM 3687 OM OM1 3687 -0.550000 15.99940
3688 OM 3688 OM OM1 3688 -0.550000 15.99940
3689 OM 3689 OM OM1 3689 -0.550000 15.99940
3690 OM 3690 OM OM1 3690 -0.550000 15.99940
3691 OM 3691 OM OM1 3691 -0.550000 15.99940
3692 OM 3692 OM OM1 3692 -0.550000 15.99940
3693 OM 3693 OM OM1 3693 -0.550000 15.99940
3694 OM 3694 OM OM1 3694 -0.550000 15.99940
3695 OM 3695 OM OM1 3695 -0.550000 15.99940
3696 OM 3696 OM OM1 3696 -0.550000 15.99940
3697 OM 3697 OM OM1 3697 -0.550000 15.99940
3698 OM 3698 OM OM1 3698 -0.550000 15.99940
3699 OM 3699 OM OM1 3699 -0.550000 15.99940
3700 OM 3700 OM OM1 3700 -0.550000 15.99940
3701 OM 3701 OM OM1 3701 -0.550000 15.99940
3702 OM 3702 OM OM1 3702 -0.550000 15.99940
3703 OM 3703 OM OM1 3703 -0.550000 15.99940
3704 OM 3704 OM OM1 3704 -0.550000 15.99940
3705 OM 3705 OM OM1 3705 -0.550000 15.99940
3706 OM 3706 OM OM1 3706 -0.550000 15.99940
3707 OM 3707 OM OM1 3707 -0.550000 15.99940
3708 OM 3708 OM OM1 3708 -0.550000 15.99940
3709 OM 3709 OM OM1 3709 -0.550000 15.99940
3710 OM 3710 OM OM1 3710 -0.550000 15.99940
3711 OM 3711 OM OM1 3711 -0.550000 15.99940
3712 OM 3712 OM OM1 3712 -0.550000 15.99940
3713 OM 3713 OM OM1 3713 -0.550000 15.99940
3714 OM 3714 OM OM1 3714 -0.550000 15.99940
3715 OM 3715 OM OM1 3715 -0.550000 15.99940
3716 OM 3716 OM OM1 3716 -0.550000 15.99940
3717 OM 3717 OM OM1 3717 -0.550000 15.99940
3718 OM 3718 OM OM1 3718 -0.550000 15.99940
3719 OM 3719 OM OM1 3719 -0.550000 15.99940
3720 OM 3720 OM OM1 3720 -0.550000 15.99940
3721 OM 3721 OM OM1 3721 -0.550000 15.99940
3722 OM 3722 OM OM1 3722 -0.550000 15.99940
3723 OM 3723 OM OM1 3723 -0.550000 15.99940
3724 OM 3724 OM OM1 3724 -0.550000 15.99940
3725 OM 3725 OM OM1 3725 -0.550000 15.99940
3726 OM 3726 OM OM1 3726 -0.550000 15.99940
3727 OM 3727 OM OM1 3727 -0.550000 15.99940
3728 OM 3728 OM OM1 3728 -0.550000 15.99940
3729 OM 3729 OM OM1 3729 -0.550000 15.99940
3730 OM 3730 OM OM1 3730 -0.550000 15.99940
3731 OM 3731 OM OM1 3731 -0.550000 15.99940
3732 OM 3732 OM OM1 3732 -0.550000 15.99940
3733 OM 3733 OM OM1 3733 -0.550000 15.99940
3734 OM 3734 OM OM1 3734 -0.550000 15.99940
3735 OM 3735 OM OM1 3735 -0.550000 15.99940
3736 OM 3736 OM OM1 3736 -0.550000 15.99940
3737 OM 3737 OM OM1 3737 -0.550000 15.99940
3738 OM 3738 OM OM1 3738 -0.550000 15.99940
3739 OM 3739 OM OM1 3739 -0.550000 15.99940
3740 OM 3740 OM OM1 3740 -0.550000 15.99940
3741 OM 3741 OM OM1 3741 -0.550000 15.99940
3742 OM 3742 OM OM1 3742 -0.550000 15.99940
3743 OM 3743 OM OM1 3743 -0.550000 15.99940
3744 OM 3744 OM OM1 3744 -0.550000 15.99940
3745 OM 3745 OM OM1 3745 -0.550000 15.99940
3746 OM 3746 OM OM1 3746 -0.550000 15.99940
3747 OM 3747 OM OM1 3747 -0.550000 15.99940
3748 OM 3748 OM OM1 3748 -0.550000 15.99940
3749 OM 3749 OM OM1 3749 -0.550000 15.99940
3750 OM 3750 OM OM1 3750 -0.550000 15.99940
3751 OM 3751 OM OM1 3751 -0.550000 15.99940
3752 OM 3752 OM OM1 3752 -0.550000 15.99940
3753 OM 3753 OM OM1 3753 -0.550000 15.99940
3754 OM 3754 OM OM1 3754 -0.550000 15.99940
3755 OM 3755 OM OM1 3755 -0.550000 15.99940
3756 OM 3756 OM OM1 3756 -0.550000 15.99940
3757 OM 3757 OM OM1 3757 -0.550000 15.99940
3758 OM 3758 OM OM1 3758 -0.550000 15.99940
3759 OM 3759 OM OM1 3759 -0.550000 15.99940
3760 OM 3760 OM OM1 3760 -0.550000 15.99940
3761 OM 3761 OM OM1 3761 -0.550000 15.99940
3762 OM 3762 OM OM1 3762 -0.550000 15.99940
3763 OM 3763 OM OM1 3763 -0.550000 15.99940
3764 OM 3764 OM OM1 3764 -0.550000 15.99940
3765 OM 3765 OM OM1 3765 -0.550000 15.99940
3766 OM 3766 OM OM1 3766 -0.550000 15.99940
3767 OM 3767 OM OM1 3767 -0.550000 15.99940
3768 OM 3768 OM OM1 3768 -0.550000 15.99940
3769 OM 3769 OM OM1 3769 -0.550000 15.99940
3770 OM 3770 OM OM1 3770 -0.550000 15.99940
3771 OM 3771 OM OM1 3771 -0.550000 15.99940
3772 OM 3772 OM OM1 3772 -0.550000 15.99940
3773 OM 3773 OM OM1 3773 -0.550000 15.99940
3774 OM 3774 OM OM1 3774 -0.550000 15.99940
3775 OM 3775 OM OM1 3775 -0.550000 15.99940
3776 OM 3776 OM OM1 3776 -0.550000 15.99940
3777 OM 3777 OM OM1 3777 -0.550000 15.99940
3778 OM 3778 OM OM1 3778 -0.550000 15.99940
3779 OM 3779 OM OM1 3779 -0.550000 15.99940
3780 OM 3780 OM OM1 3780 -0.550000 15.99940
3781 OM 3781 OM OM1 3781 -0.550000 15.99940
3782 OM 3782 OM OM1 3782 -0.550000 15.99940
3783 OM 3783 OM OM1 3783 -0.550000 15.99940
3784 OM 3784 OM OM1 3784 -0.550000 15.99940
3785 OM 3785 OM OM1 3785 -0.550000 15.99940
3786 OM 3786 OM OM1 3786 -0.550000 15.99940
3787 OM 3787 OM OM1 3787 -0.550000 15.99940
3788 OM 3788 OM OM1 3788 -0.550000 15.99940
3789 OM 3789 OM OM1 3789 -0.550000 15.99940
3790 OM 3790 OM OM1 3790 -0.550000 15.99940
3791 OM 3791 OM OM1 3791 -0.550000 15.99940
3792 OM 3792 OM OM1 3792 -0.550000 15.99940
3793 OM 3793 OM OM1 3793 -0.550000 15.99940
3794 OM 3794 OM OM1 3794 -0.550000 15.99940
3795 OM 3795 OM OM1 3795 -0.550000 15.99940
3796 OM 3796 OM OM1 3796 -0.550000 15.99940
3797 OM 3797 OM OM1 3797 -0.550000 15.99940
3798 OM 3798 OM OM1 3798 -0.550000 15.99940
3799 OM 3799 OM OM1 3799 -0.550000 15.99940
3800 OM 3800 OM OM1 3800 -0.550000 15.99940
3801 OM 3801 OM OM1 3801 -0.550000 15.99940
3802 OM 3802 OM OM1 3802 -0.550000 15.99940
3803 OM 3803 OM OM1 3803 -0.550000 15.99940
3804 OM 3804 OM OM1 3804 -0.550000 15.99940
3805 OM 3805 OM OM1 3805 -0.550000 15.99940
3806 OM 3806 OM OM1 3806 -0.550000 15.99940
3807 OM 3807 OM OM1 3807 -0.550000 15.99940
3808 OM 3808 OM OM1 3808 -0.550000 15.99940
3809 OM 3809 OM OM1 3809 -0.550000 15.99940
3810 OM 3810 OM OM1 3810 -0.550000 15.99940
3811 OM 3811 OM OM1 3811 -0.550000 15.99940
3812 OM 3812 OM OM1 3812 -0.550000 15.99940
3813 OM 3813 OM OM1 3813 -0.550000 15.99940
3814 OM 3814 OM OM1 3814 -0.550000 15.99940
3815 OM 3815 OM OM1 3815 -0.550000 15.99940
3816 OM 3816 OM OM1 3816 -0.550000 15.99940
3817 OM 3817 OM OM1 3817 -0.550000 15.99940
3818 OM 3818 OM OM1 3818 -0.550000 15.99940
3819 OM 3819 OM OM1 3819 -0.550000 15.99940
3820 OM 3820 OM OM1 3820 -0.550000 15.99940
3821 OM 3821 OM OM1 3821 -0.550000 15.99940
3822 OM 3822 OM OM1 3822 -0.550000 15.99940
3823 OM 3823 OM OM1 3823 -0.550000 15.99940
3824 OM 3824 OM OM1 3824 -0.550000 15.99940
3825 OM 3825 OM OM1 3825 -0.550000 15.99940
3826 OM 3826 OM OM1 3826 -0.550000 15.99940
3827 OM 3827 OM OM1 3827 -0.550000 15.99940
3828 OM 3828 OM OM1 3828 -0.550000 15.99940
3829 OM 3829 OM OM1 3829 -0.550000 15.99940
3830 OM 3830 OM OM1 3830 -0.550000 15.99940
3831 OM 3831 OM OM1 3831 -0.550000 15.99940
3832 OM 3832 OM OM1 3832 -0.550000 15.99940
3833 OM 3833 OM OM1 3833 -0.550000 15.99940
3834 OM 3834 OM OM1 3834 -0.550000 15.99940
3835 OM 3835 OM OM1 3835 -0.550000 15.99940
3836 OM 3836 OM OM1 3836 -0.550000 15.99940
3837 OM 3837 OM OM1 3837 -0.550000 15.99940
3838 OM 3838 OM OM1 3838 -0.550000 15.99940
3839 OM 3839 OM OM1 3839 -0.550000 15.99940
3840 OM 3840 OM OM1 3840 -0.550000 15.99940
3841 OM 3841 OM OM1 3841 -0.550000 15.99940
3842 OM 3842 OM OM1 3842 -0.550000 15.99940
3843 OM 3843 OM OM1 3843 -0.550000 15.99940
3844 OM 3844 OM OM1 3844 -0.550000 15.99940
3845 OM 3845 OM OM1 3845 -0.550000 15.99940
3846 OM 3846 OM OM1 3846 -0.550000 15.99940
3847 OM 3847 OM OM1 3847 -0.550000 15.99940
3848 OM 3848 OM OM1 3848 -0.550000 15.99940
3849 OM 3849 OM OM1 3849 -0.550000 15.99940
3850 OM 3850 OM OM1 3850 -0.550000 15.99940
3851 OM 3851 OM OM1 3851 -0.550000 15.99940
3852 OM 3852 OM OM1 3852 -0.550000 15.99940
3853 OM 3853 OM OM1 3853 -0.550000 15.99940
3854 OM 3854 OM OM1 3854 -0.550000 15.99940
3855 OM 3855 OM OM1 3855 -0.550000 15.99940
3856 OM 3856 OM OM1 3856 -0.550000 15.99940
3857 OM 3857 OM OM1 3857 -0.550000 15.99940
3858 OM 3858 OM OM1 3858 -0.550000 15.99940
3859 OM 3859 OM OM1 3859 -0.550000 15.99940
3860 OM 3860 OM OM1 3860 -0.550000 15.99940
3861 OM 3861 OM OM1 3861 -0.550000 15.99940
3862 OM 3862 OM OM1 3862 -0.550000 15.99940
3863 OM 3863 OM OM1 3863 -0.550000 15.99940
3864 OM 3864 OM OM1 3864 -0.550000 15.99940
3865 OM 3865 OM OM1 3865 -0.550000 15.99940
3866 OM 3866 OM OM1 3866 -0.550000 15.99940
3867 OM 3867 OM OM1 3867 -0.550000 15.99940
3868 OM 3868 OM OM1 3868 -0.550000 15.99940
3869 OM 3869 OM OM1 3869 -0.550000 15.99940
3870 OM 3870 OM OM1 3870 -0.550000 15.99940
3871 OM 3871 OM OM1 3871 -0.550000 15.99940
3872 OM 3872 OM OM1 3872 -0.550000 15.99940
3873 OM 3873 OM OM1 3873 -0.550000 15.99940
3874 OM 3874 OM OM1 3874 -0.550000 15.99940
3875 OM 3875 OM OM1 3875 -0.550000 15.99940
3876 OM 3876 OM OM1 3876 -0.550000 15.99940
3877 OM 3877 OM OM1 3877 -0.550000 15.99940
3878 OM 3878 OM OM1 3878 -0.550000 15.99940
3879 OM 3879 OM OM1 3879 -0.550000 15.99940
3880 OM 3880 OM OM1 3880 -0.550000 15.99940
3881 OM 3881 OM OM1 3881 -0.550000 15.99940
3882 OM 3882 OM OM1 3882 -0.550000 15.99940
3883 OM 3883 OM OM1 3883 -0.550000 15.99940
3884 OM 3884 OM OM1 3884 -0.550000 15.99940
3885 OM 3885 OM OM1 3885 -0.550000 15.99940
3886 OM 3886 OM OM1 3886 -0.550000 15.99940
3887 OM 3887 OM OM1 3887 -0.550000 15.99940
3888 OM 3888 OM OM1 3888 -0.550000 15.99940
3889 OM 3889 OM OM1 3889 -0.550000 15.99940
3890 OM 3890 OM OM1 3890 -0.550000 15.99940
3891 OM 3891 OM OM1 3891 -0.550000 15.99940
3892 OM 3892 OM OM1 3892 -0.550000 15.99940
3893 OM 3893 OM OM1 3893 -0.550000 15.99940
3894 OM 3894 OM OM1 3894 -0.550000 15.99940
3895 OM 3895 OM OM1 3895 -0.550000 15.99940
3896 OM 3896 OM OM1 3896 -0.550000 15.99940
3897 OM 3897 OM OM1 3897 -0.550000 15.99940
3898 OM 3898 OM OM1 3898 -0.550000 15.99940
3899 OM 3899 OM OM1 3899 -0.550000 15.99940
3900 OM 3900 OM OM1 3900 -0.550000 15.99940
3901 OM 3901 OM OM1 3901 -0.550000 15.99940
3902 OM 3902 OM OM1 3902 -0.550000 15.99940
3903 OM 3903 OM OM1 3903 -0.550000 15.99940
3904 OM 3904 OM OM1 3904 -0.550000 15.99940
3905 OM 3905 OM OM1 3905 -0.550000 15.99940
3906 OM 3906 OM OM1 3906 -0.550000 15.99940
3907 OM 3907 OM OM1 3907 -0.550000 15.99940
3908 OM 3908 OM OM1 3908 -0.550000 15.99940
3909 OM 3909 OM OM1 3909 -0.550000 15.99940
3910 OM 3910 OM OM1 3910 -0.550000 15.99940
3911 OM 3911 OM OM1 3911 -0.550000 15.99940
3912 OM 3912 OM OM1 3912 -0.550000 15.99940
3913 OM 3913 OM OM1 3913 -0.550000 15.99940
3914 OM 3914 OM OM1 3914 -0.550000 15.99940
3915 OM 3915 OM OM1 3915 -0.550000 15.99940
3916 OM 3916 OM OM1 3916 -0.550000 15.99940
3917 OM 3917 OM OM1 3917 -0.550000 15.99940
3918 OM 3918 OM OM1 3918 -0.550000 15.99940
3919 OM 3919 OM OM1 3919 -0.550000 15.99940
3920 OM 3920 OM OM1 3920 -0.550000 15.99940
3921 OM 3921 OM OM1 3921 -0.550000 15.99940
3922 OM 3922 OM OM1 3922 -0.550000 15.99940
3923 OM 3923 OM OM1 3923 -0.550000 15.99940
3924 OM 3924 OM OM1 3924 -0.550000 15.99940
3925 OM 3925 OM OM1 3925 -0.550000 15.99940
3926 OM 3926 OM OM1 3926 -0.550000 15.99940
3927 OM 3927 OM OM1 3927 -0.550000 15.99940
3928 OM 3928 OM OM1 3928 -0.550000 15.99940
3929 OM 3929 OM OM1 3929 -0.550000 15.99940
3930 OM 3930 OM OM1 3930 -0.550000 15.99940
3931 OM 3931 OM OM1 3931 -0.550000 15.99940
3932 OM 3932 OM OM1 3932 -0.550000 15.99940
3933 OM 3933 OM OM1 3933 -0.550000 15.99940
3934 OM 3934 OM OM1 3934 -0.550000 15.99940
3935 OM 3935 OM OM1 3935 -0.550000 15.99940
3936 OM 3936 OM OM1 3936 -0.550000 15.99940
3937 OM 3937 OM OM1 3937 -0.550000 15.99940
3938 OM 3938 OM OM1 3938 -0.550000 15.99940
3939 OM 3939 OM OM1 3939 -0.550000 15.99940
3940 OM 3940 OM OM1 3940 -0.550000 15.99940
3941 OM 3941 OM OM1 3941 -0.550000 15.99940
3942 OM 3942 OM OM1 3942 -0.550000 15.99940
3943 OM 3943 OM OM1 3943 -0.550000 15.99940
3944 OM 3944 OM OM1 3944 -0.550000 15.99940
3945 OM 3945 OM OM1 3945 -0.550000 15.99940
3946 OM 3946 OM OM1 3946 -0.550000 15.99940
3947 OM 3947 OM OM1 3947 -0.550000 15.99940
3948 OM 3948 OM OM1 3948 -0.550000 15.99940
3949 OM 3949 OM OM1 3949 -0.550000 15.99940
3950 OM 3950 OM OM1 3950 -0.550000 15.99940
3951 OM 3951 OM OM1 3951 -0.550000 15.99940
3952 OM 3952 OM OM1 3952 -0.550000 15.99940
3953 OM 3953 OM OM1 3953 -0.550000 15.99940
3954 OM 3954 OM OM1 3954 -0.550000 15.99940
3955 OM 3955 OM OM1 3955 -0.550000 15.99940
3956 OM 3956 OM OM1 3956 -0.550000 15.99940
3957 OM 3957 OM OM1 3957 -0.550000 15.99940
3958 OM 3958 OM OM1 3958 -0.550000 15.99940
3959 OM 3959 OM OM1 3959 -0.550000 15.99940
3960 OM 3960 OM OM1 3960 -0.550000 15.99940
3961 OM 3961 OM OM1 3961 -0.550000 15.99940
3962 OM 3962 OM OM1 3962 -0.550000 15.99940
3963 OM 3963 OM OM1 3963 -0.550000 15.99940
3964 OM 3964 OM OM1 3964 -0.550000 15.99940
3965 OM 3965 OM OM1 3965 -0.550000 15.99940
3966 OM 3966 OM OM1 3966 -0.550000 15.99940
3967 OM 3967 OM OM1 3967 -0.550000 15.99940
3968 OM 3968 OM OM1 3968 -0.550000 15.99940
3969 OM 3969 OM OM1 3969 -0.550000 15.99940
3970 OM 3970 OM OM1 3970 -0.550000 15.99940
3971 OM 3971 OM OM1 3971 -0.550000 15.99940
3972 OM 3972 OM OM1 3972 -0.550000 15.99940
3973 OM 3973 OM OM1 3973 -0.550000 15.99940
3974 OM 3974 OM OM1 3974 -0.550000 15.99940
3975 OM 3975 OM OM1 3975 -0.550000 15.99940
3976 OM 3976 OM OM1 3976 -0.550000 15.99940
3977 OM 3977 OM OM1 3977 -0.550000 15.99940
3978 OM 3978 OM OM1 3978 -0.550000 15.99940
3979 OM 3979 OM OM1 3979 -0.550000 15.99940
3980 OM 3980 OM OM1 3980 -0.550000 15.99940
3981 OM 3981 OM OM1 3981 -0.550000 15.99940
3982 OM 3982 OM OM1 3982 -0.550000 15.99940
3983 OM 3983 OM OM1 3983 -0.550000 15.99940
3984 OM 3984 OM OM1 3984 -0.550000 15.99940
3985 OM 3985 OM OM1 3985 -0.550000 15.99940
3986 OM 3986 OM OM1 3986 -0.550000 15.99940
3987 OM 3987 OM OM1 3987 -0.550000 15.99940
3988 OM 3988 OM OM1 3988 -0.550000 15.99940
3989 OM 3989 OM OM1 3989 -0.550000 15.99940
3990 OM 3990 OM OM1 3990 -0.550000 15.99940
3991 OM 3991 OM OM1 3991 -0.550000 15.99940
3992 OM 3992 OM OM1 3992 -0.550000 15.99940
3993 OM 3993 OM OM1 3993 -0.550000 15.99940
3994 OM 3994 OM OM1 3994 -0.550000 15.99940
3995 OM 3995 OM OM1 3995 -0.550000 15.99940
3996 OM 3996 OM OM1 3996 -0.550000 15.99940
3997 OM 3997 OM OM1 3997 -0.550000 15.99940
3998 OM 3998 OM OM1 3998 -0.550000 15.99940
3999 OM 3999 OM OM1 3999 -0.550000 15.99940
4000 OM 4000 OM OM1 4000 -0.550000 15.99940
4001 OM 4001 OM OM1 4001 -0.550000 15.99940
4002 OM 4002 OM OM1 4002 -0.550000 15.99940
4003 OM 4003 OM OM1 4003 -0.550000 15.99940
4004 OM 4004 OM OM1 4004 -0.550000 15.99940
4005 OM 4005 OM OM1 4005 -0.550000 15.99940
4006 OM 4006 OM OM1 4006 -0.550000 15.99940
4007 OM 4007 OM OM1 4007 -0.550000 15.99940
4008 OM 4008 OM OM1 4008 -0.550000 15.99940
4009 OM 4009 OM OM1 4009 -0.550000 15.99940
4010 OM 4010 OM OM1 4010 -0.550000 15.99940
4011 OM 4011 OM OM1 4011 -0.550000 15.99940
4012 OM 4012 OM OM1 4012 -0.550000 15.99940
4013 OM 4013 OM OM1 4013 -0.550000 15.99940
4014 OM 4014 OM OM1 4014 -0.550000 15.99940
4015 OM 4015 OM OM1 4015 -0.550000 15.99940
4016 OM 4016 OM OM1 4016 -0.550000 15.99940
4017 OM 4017 OM OM1 4017 -0.550000 15.99940
4018 OM 4018 OM OM1 4018 -0.550000 15.99940
4019 OM 4019 OM OM1 4019 -0.550000 15.99940
4020 OM 4020 OM OM1 4020 -0.550000 15.99940
4021 OM 4021 OM OM1 4021 -0.550000 15.99940
4022 OM 4022 OM OM1 4022 -0.550000 15.99940
4023 OM 4023 OM OM1 4023 -0.550000 15.99940
4024 OM 4024 OM OM1 4024 -0.550000 15.99940
4025 OM 4025 OM OM1 4025 -0.550000 15.99940
4026 OM 4026 OM OM1 4026 -0.550000 15.99940
4027 OM 4027 OM OM1 4027 -0.550000 15.99940
4028 OM 4028 OM OM1 4028 -0.550000 15.99940
4029 OM 4029 OM OM1 4029 -0.550000 15.99940
4030 OM 4030 OM OM1 4030 -0.550000 15.99940
4031 OM 4031 OM OM1 4031 -0.550000 15.99940
4032 OM 4032 OM OM1 4032 -0.550000 15.99940
4033 OM 4033 OM OM1 4033 -0.550000 15.99940
4034 OM 4034 OM OM1 4034 -0.550000 15.99940
4035 OM 4035 OM OM1 4035 -0.550000 15.99940
4036 OM 4036 OM OM1 4036 -0.550000 15.99940
4037 OM 4037 OM OM1 4037 -0.550000 15.99940
4038 OM 4038 OM OM1 4038 -0.550000 15.99940
4039 OM 4039 OM OM1 4039 -0.550000 15.99940
4040 OM 4040 OM OM1 4040 -0.550000 15.99940
4041 OM 4041 OM OM1 4041 -0.550000 15.99940
4042 OM 4042 OM OM1 4042 -0.550000 15.99940
4043 OM 4043 OM OM1 4043 -0.550000 15.99940
4044 OM 4044 OM OM1 4044 -0.550000 15.99940
4045 OM 4045 OM OM1 4045 -0.550000 15.99940
4046 OM 4046 OM OM1 4046 -0.550000 15.99940
4047 OM 4047 OM OM1 4047 -0.550000 15.99940
4048 OM 4048 OM OM1 4048 -0.550000 15.99940
4049 OM 4049 OM OM1 4049 -0.550000 15.99940
4050 OM 4050 OM OM1 4050 -0.550000 15.99940
4051 OM 4051 OM OM1 4051 -0.550000 15.99940
4052 OM 4052 OM OM1 4052 -0.550000 15.99940
4053 OM 4053 OM OM1 4053 -0.550000 15.99940
4054 OM 4054 OM OM1 4054 -0.550000 15.99940
4055 OM 4055 OM OM1 4055 -0.550000 15.99940
4056 OM 4056 OM OM1 4056 -0.550000 15.99940
4057 OM 4057 OM OM1 4057 -0.550000 15.99940
4058 OM 4058 OM OM1 4058 -0.550000 15.99940
4059 OM 4059 OM OM1 4059 -0.550000 15.99940
4060 OM 4060 OM OM1 4060 -0.550000 15.99940
4061 OM 4061 OM OM1 4061 -0.550000 15.99940
4062 OM 4062 OM OM1 4062 -0.550000 15.99940
4063 OM 4063 OM OM1 4063 -0.550000 15.99940
4064 OM 4064 OM OM1 4064 -0.550000 15.99940
4065 OM 4065 OM OM1 4065 -0.550000 15.99940
4066 OM 4066 OM OM1 4066 -0.550000 15.99940
4067 OM 4067 OM OM1 4067 -0.550000 15.99940
4068 OM 4068 OM OM1 4068 -0.550000 15.99940
4069 OM 4069 OM OM1 4069 -0.550000 15.99940
4070 OM 4070 OM OM1 4070 -0.550000 15.99940
4071 OM 4071 OM OM1 4071 -0.550000 15.99940
4072 OM 4072 OM OM1 4072 -0.550000 15.99940
4073 OM 4073 OM OM1 4073 -0.550000 15.99940
4074 OM 4074 OM OM1 4074 -0.550000 15.99940
4075 OM 4075 OM OM1 4075 -0.550000 15.99940
4076 OM 4076 OM OM1 4076 -0.550000 15.99940
4077 OM 4077 OM OM1 4077 -0.550000 15.99940
4078 OM 4078 OM OM1 4078 -0.550000 15.99940
4079 OM 4079 OM OM1 4079 -0.550000 15.99940
4080 OM 4080 OM OM1 4080 -0.550000 15.99940
4081 OM 4081 OM OM1 4081 -0.550000 15.99940
4082 OM 4082 OM OM1 4082 -0.550000 15.99940
4083 OM 4083 OM OM1 4083 -0.550000 15.99940
4084 OM 4084 OM OM1 4084 -0.550000 15.99940
4085 OM 4085 OM OM1 4085 -0.550000 15.99940
4086 OM 4086 OM OM1 4086 -0.550000 15.99940
4087 OM 4087 OM OM1 4087 -0.550000 15.99940
4088 OM 4088 OM OM1 4088 -0.550000 15.99940
4089 OM 4089 OM OM1 4089 -0.550000 15.99940
4090 OM 4090 OM OM1 4090 -0.550000 15.99940
4091 OM 4091 OM OM1 4091 -0.550000 15.99940
4092 OM 4092 OM OM1 4092 -0.550000 15.99940
4093 OM 4093 OM OM1 4093 -0.550000 15.99940
4094 OM 4094 OM OM1 4094 -0.550000 15.99940
4095 OM 4095 OM OM1 4095 -0.550000 15.99940
4096 OM 4096 OM OM1 4096 -0.550000 15.99940
4097 OM 4097 OM OM1 4097 -0.550000 15.99940
4098 OM 4098 OM OM1 4098 -0.550000 15.99940
4099 OM 4099 OM OM1 4099 -0.550000 15.99940
4100 OM 4100 OM OM1 4100 -0.550000 15.99940
4101 OM 4101 OM OM1 4101 -0.550000 15.99940
4102 OM 4102 OM OM1 4102 -0.550000 15.99940
4103 OM 4103 OM OM1 4103 -0.550000 15.99940
4104 OM 4104 OM OM1 4104 -0.550000 15.99940
4105 OM 4105 OM OM1 4105 -0.550000 15.99940
4106 OM 4106 OM OM1 4106 -0.550000 15.99940
4107 OM 4107 OM OM1 4107 -0.550000 15.99940
4108 OM 4108 OM OM1 4108 -0.550000 15.99940
4109 OM 4109 OM OM1 4109 -0.550000 15.99940
4110 OM 4110 OM OM1 4110 -0.550000 15.99940
4111 OM 4111 OM OM1 4111 -0.550000 15.99940
4112 OM 4112 OM OM1 4112 -0.550000 15.99940
4113 OM 4113 OM OM1 4113 -0.550000 15.99940
4114 OM 4114 OM OM1 4114 -0.550000 15.99940
4115 OM 4115 OM OM1 4115 -0.550000 15.99940
4116 OM 4116 OM OM1 4116 -0.550000 15.99940
4117 OM 4117 OM OM1 4117 -0.550000 15.99940
4118 OM 4118 OM OM1 4118 -0.550000 15.99940
4119 OM 4119 OM OM1 4119 -0.550000 15.99940
4120 OM 4120 OM OM1 4120 -0.550000 15.99940
4121 OM 4121 OM OM1 4121 -0.550000 15.99940
4122 OM 4122 OM OM1 4122 -0.550000 15.99940
4123 OM 4123 OM OM1 4123 -0.550000 15.99940
4124 OM 4124 OM OM1 4124 -0.550000 15.99940
4125 OM 4125 OM OM1 4125 -0.550000 15.99940
4126 OM 4126 OM OM1 4126 -0.550000 15.99940
4127 OM 4127 OM OM1 4127 -0.550000 15.99940
4128 OM 4128 OM OM1 4128 -0.550000 15.99940
4129 OM 4129 OM OM1 4129 -0.550000 15.99940
4130 OM 4130 OM OM1 4130 -0.550000 15.99940
4131 OM 4131 OM OM1 4131 -0.550000 15.99940
4132 OM 4132 OM OM1 4132 -0.550000 15.99940
4133 OM 4133 OM OM1 4133 -0.550000 15.99940
4134 OM 4134 OM OM1 4134 -0.550000 15.99940
4135 OM 4135 OM OM1 4135 -0.550000 15.99940
4136 OM 4136 OM OM1 4136 -0.550000 15.99940
4137 OM 4137 OM OM1 4137 -0.550000 15.99940
4138 OM 4138 OM OM1 4138 -0.550000 15.99940
4139 OM 4139 OM OM1 4139 -0.550000 15.99940
4140 OM 4140 OM OM1 4140 -0.550000 15.99940
4141 OM 4141 OM OM1 4141 -0.550000 15.99940
4142 OM 4142 OM OM1 4142 -0.550000 15.99940
4143 OM 4143 OM OM1 4143 -0.550000 15.99940
4144 OM 4144 OM OM1 4144 -0.550000 15.99940
4145 OM 4145 OM OM1 4145 -0.550000 15.99940
4146 OM 4146 OM OM1 4146 -0.550000 15.99940
4147 OM 4147 OM OM1 4147 -0.550000 15.99940
4148 OM 4148 OM OM1 4148 -0.550000 15.99940
4149 OM 4149 OM OM1 4149 -0.550000 15.99940
4150 OM 4150 OM OM1 4150 -0.550000 15.99940
4151 OM 4151 OM OM1 4151 -0.550000 15.99940
4152 OM 4152 OM OM1 4152 -0.550000 15.99940
4153 OM 4153 OM OM1 4153 -0.550000 15.99940
4154 OM 4154 OM OM1 4154 -0.550000 15.99940
4155 OM 4155 OM OM1 4155 -0.550000 15.99940
4156 OM 4156 OM OM1 4156 -0.550000 15.99940
4157 OM 4157 OM OM1 4157 -0.550000 15.99940
4158 OM 4158 OM OM1 4158 -0.550000 15.99940
4159 OM 4159 OM OM1 4159 -0.550000 15.99940
4160 OM 4160 OM OM1 4160 -0.550000 15.99940
4161 OM 4161 OM OM1 4161 -0.550000 15.99940
4162 OM 4162 OM OM1 4162 -0.550000 15.99940
4163 OM 4163 OM OM1 4163 -0.550000 15.99940
4164 OM 4164 OM OM1 4164 -0.550000 15.99940
4165 OM 4165 OM OM1 4165 -0.550000 15.99940
4166 OM 4166 OM OM1 4166 -0.550000 15.99940
4167 OM 4167 OM OM1 4167 -0.550000 15.99940
4168 OM 4168 OM OM1 4168 -0.550000 15.99940
4169 OM 4169 OM OM1 4169 -0.550000 15.99940
4170 OM 4170 OM OM1 4170 -0.550000 15.99940
4171 OM 4171 OM OM1 4171 -0.550000 15.99940
4172 OM 4172 OM OM1 4172 -0.550000 15.99940
4173 OM 4173 OM OM1 4173 -0.550000 15.99940
4174 OM 4174 OM OM1 4174 -0.550000 15.99940
4175 OM 4175 OM OM1 4175 -0.550000 15.99940
4176 OM 4176 OM OM1 4176 -0.550000 15.99940
4177 OM 4177 OM OM1 4177 -0.550000 15.99940
4178 OM 4178 OM OM1 4178 -0.550000 15.99940
4179 OM 4179 OM OM1 4179 -0.550000 15.99940
4180 OM 4180 OM OM1 4180 -0.550000 15.99940
4181 OM 4181 OM OM1 4181 -0.550000 15.99940
4182 OM 4182 OM OM1 4182 -0.550000 15.99940
4183 OM 4183 OM OM1 4183 -0.550000 15.99940
4184 OM 4184 OM OM1 4184 -0.550000 15.99940
4185 OM 4185 OM OM1 4185 -0.550000 15.99940
4186 OM 4186 OM OM1 4186 -0.550000 15.99940
4187 OM 4187 OM OM1 4187 -0.550000 15.99940
4188 OM 4188 OM OM1 4188 -0.550000 15.99940
4189 OM 4189 OM OM1 4189 -0.550000 15.99940
4190 OM 4190 OM OM1 4190 -0.550000 15.99940
4191 OM 4191 OM OM1 4191 -0.550000 15.99940
4192 OM 4192 OM OM1 4192 -0.550000 15.99940
4193 OM 4193 OM OM1 4193 -0.550000 15.99940
4194 OM 4194 OM OM1 4194 -0.550000 15.99940
4195 OM 4195 OM OM1 4195 -0.550000 15.99940
4196 OM 4196 OM OM1 4196 -0.550000 15.99940
4197 OM 4197 OM OM1 4197 -0.550000 15.99940
4198 OM 4198 OM OM1 4198 -0.550000 15.99940
4199 OM 4199 OM OM1 4199 -0.550000 15.99940
4200 OM 4200 OM OM1 4200 -0.550000 15.99940
4201 OM 4201 OM OM1 4201 -0.550000 15.99940
4202 OM 4202 OM OM1 4202 -0.550000 15.99940
4203 OM 4203 OM OM1 4203 -0.550000 15.99940
4204 OM 4204 OM OM1 4204 -0.550000 15.99940
4205 OM 4205 OM OM1 4205 -0.550000 15.99940
4206 OM 4206 OM OM1 4206 -0.550000 15.99940
4207 OM 4207 OM OM1 4207 -0.550000 15.99940
4208 OM 4208 OM OM1 4208 -0.550000 15.99940
4209 OM 4209 OM OM1 4209 -0.550000 15.99940
4210 OM 4210 OM OM1 4210 -0.550000 15.99940
4211 OM 4211 OM OM1 4211 -0.550000 15.99940
4212 OM 4212 OM OM1 4212 -0.550000 15.99940
4213 OM 4213 OM OM1 4213 -0.550000 15.99940
4214 OM 4214 OM OM1 4214 -0.550000 15.99940
4215 OM 4215 OM OM1 4215 -0.550000 15.99940
4216 OM 4216 OM OM1 4216 -0.550000 15.99940
4217 OM 4217 OM OM1 4217 -0.550000 15.99940
4218 OM 4218 OM OM1 4218 -0.550000 15.99940
4219 OM 4219 OM OM1 4219 -0.550000 15.99940
4220 OM 4220 OM OM1 4220 -0.550000 15.99940
4221 OM 4221 OM OM1 4221 -0.550000 15.99940
4222 OM 4222 OM OM1 4222 -0.550000 15.99940
4223 OM 4223 OM OM1 4223 -0.550000 15.99940
4224 OM 4224 OM OM1 4224 -0.550000 15.99940
4225 OM 4225 OM OM1 4225 -0.550000 15.99940
4226 OM 4226 OM OM1 4226 -0.550000 15.99940
4227 OM 4227 OM OM1 4227 -0.550000 15.99940
4228 OM 4228 OM OM1 4228 -0.550000 15.99940
4229 OM 4229 OM OM1 4229 -0.550000 15.99940
4230 OM 4230 OM OM1 4230 -0.550000 15.99940
4231 OM 4231 OM OM1 4231 -0.550000 15.99940
4232 OM 4232 OM OM1 4232 -0.550000 15.99940
4233 OM 4233 OM OM1 4233 -0.550000 15.99940
4234 OM 4234 OM OM1 4234 -0.550000 15.99940
4235 OM 4235 OM OM1 4235 -0.550000 15.99940
4236 OM 4236 OM OM1 4236 -0.550000 15.99940
4237 OM 4237 OM OM1 4237 -0.550000 15.99940
4238 OM 4238 OM OM1 4238 -0.550000 15.99940
4239 OM 4239 OM OM1 4239 -0.550000 15.99940
4240 OM 4240 OM OM1 4240 -0.550000 15.99940
4241 OM 4241 OM OM1 4241 -0.550000 15.99940
4242 OM 4242 OM OM1 4242 -0.550000 15.99940
4243 OM 4243 OM OM1 4243 -0.550000 15.99940
4244 OM 4244 OM OM1 4244 -0.550000 15.99940
4245 OM 4245 OM OM1 4245 -0.550000 15.99940
4246 OM 4246 OM OM1 4246 -0.550000 15.99940
4247 OM 4247 OM OM1 4247 -0.550000 15.99940
4248 OM 4248 OM OM1 4248 -0.550000 15.99940
4249 OM 4249 OM OM1 4249 -0.550000 15.99940
4250 OM 4250 OM OM1 4250 -0.550000 15.99940
4251 OM 4251 OM OM1 4251 -0.550000 15.99940
4252 OM 4252 OM OM1 4252 -0.550000 15.99940
4253 OM 4253 OM OM1 4253 -0.550000 15.99940
4254 OM 4254 OM OM1 4254 -0.550000 15.99940
4255 OM 4255 OM OM1 4255 -0.550000 15.99940
4256 OM 4256 OM OM1 4256 -0.550000 15.99940
4257 OM 4257 OM OM1 4257 -0.550000 15.99940
4258 OM 4258 OM OM1 4258 -0.550000 15.99940
4259 OM 4259 OM OM1 4259 -0.550000 15.99940
4260 OM 4260 OM OM1 4260 -0.550000 15.99940
4261 OM 4261 OM OM1 4261 -0.550000 15.99940
4262 OM 4262 OM OM1 4262 -0.550000 15.99940
4263 OM 4263 OM OM1 4263 -0.550000 15.99940
4264 OM 4264 OM OM1 4264 -0.550000 15.99940
4265 OM 4265 OM OM1 4265 -0.550000 15.99940
4266 OM 4266 OM OM1 4266 -0.550000 15.99940
4267 OM 4267 OM OM1 4267 -0.550000 15.99940
4268 OM 4268 OM OM1 4268 -0.550000 15.99940
4269 OM 4269 OM OM1 4269 -0.550000 15.99940
4270 OM 4270 OM OM1 4270 -0.550000 15.99940
4271 OM 4271 OM OM1 4271 -0.550000 15.99940
4272 OM 4272 OM OM1 4272 -0.550000 15.99940
4273 OM 4273 OM OM1 4273 -0.550000 15.99940
4274 OM 4274 OM OM1 4274 -0.550000 15.99940
4275 OM 4275 OM OM1 4275 -0.550000 15.99940
4276 OM 4276 OM OM1 4276 -0.550000 15.99940
4277 OM 4277 OM OM1 4277 -0.550000 15.99940
4278 OM 4278 OM OM1 4278 -0.550000 15.99940
4279 OM 4279 OM OM1 4279 -0.550000 15.99940
4280 OM 4280 OM OM1 4280 -0.550000 15.99940
4281 OM 4281 OM OM1 4281 -0.550000 15.99940
4282 OM 4282 OM OM1 4282 -0.550000 15.99940
4283 OM 4283 OM OM1 4283 -0.550000 15.99940
4284 OM 4284 OM OM1 4284 -0.550000 15.99940
4285 OM 4285 OM OM1 4285 -0.550000 15.99940
4286 OM 4286 OM OM1 4286 -0.550000 15.99940
4287 OM 4287 OM OM1 4287 -0.550000 15.99940
4288 OM 4288 OM OM1 4288 -0.550000 15.99940
4289 OM 4289 OM OM1 4289 -0.550000 15.99940
4290 OM 4290 OM OM1 4290 -0.550000 15.99940
4291 OM 4291 OM OM1 4291 -0.550000 15.99940
4292 OM 4292 OM OM1 4292 -0.550000 15.99940
4293 OM 4293 OM OM1 4293 -0.550000 15.99940
4294 OM 4294 OM OM1 4294 -0.550000 15.99940
4295 OM 4295 OM OM1 4295 -0.550000 15.99940
4296 OM 4296 OM OM1 4296 -0.550000 15.99940
4297 OM 4297 OM OM1 4297 -0.550000 15.99940
4298 OM 4298 OM OM1 4298 -0.550000 15.99940
4299 OM 4299 OM OM1 4299 -0.550000 15.99940
4300 OM 4300 OM OM1 4300 -0.550000 15.99940
4301 OM 4301 OM OM1 4301 -0.550000 15.99940
4302 OM 4302 OM OM1 4302 -0.550000 15.99940
4303 OM 4303 OM OM1 4303 -0.550000 15.99940
4304 OM 4304 OM OM1 4304 -0.550000 15.99940
4305 OM 4305 OM OM1 4305 -0.550000 15.99940
4306 OM 4306 OM OM1 4306 -0.550000 15.99940
4307 OM 4307 OM OM1 4307 -0.550000 15.99940
4308 OM 4308 OM OM1 4308 -0.550000 15.99940
4309 OM 4309 OM OM1 4309 -0.550000 15.99940
4310 OM 4310 OM OM1 4310 -0.550000 15.99940
4311 OM 4311 OM OM1 4311 -0.550000 15.99940
4312 OM 4312 OM OM1 4312 -0.550000 15.99940
4313 OM 4313 OM OM1 4313 -0.550000 15.99940
4314 OM 4314 OM OM1 4314 -0.550000 15.99940
4315 OM 4315 OM OM1 4315 -0.550000 15.99940
4316 OM 4316 OM OM1 4316 -0.550000 15.99940
4317 OM 4317 OM OM1 4317 -0.550000 15.99940
4318 OM 4318 OM OM1 4318 -0.550000 15.99940
4319 OM 4319 OM OM1 4319 -0.550000 15.99940
4320 OM 4320 OM OM1 4320 -0.550000 15.99940
4321 OM 4321 OM OM1 4321 -0.550000 15.99940
4322 OM 4322 OM OM1 4322 -0.550000 15.99940
4323 OM 4323 OM OM1 4323 -0.550000 15.99940
4324 OM 4324 OM OM1 4324 -0.550000 15.99940
4325 OM 4325 OM OM1 4325 -0.550000 15.99940
4326 OM 4326 OM OM1 4326 -0.550000 15.99940
4327 OM 4327 OM OM1 4327 -0.550000 15.99940
4328 OM 4328 OM OM1 4328 -0.550000 15.99940
4329 OM 4329 OM OM1 4329 -0.550000 15.99940
4330 OM 4330 OM OM1 4330 -0.550000 15.99940
4331 OM 4331 OM OM1 4331 -0.550000 15.99940
4332 OM 4332 OM OM1 4332 -0.550000 15.99940
4333 OM 4333 OM OM1 4333 -0.550000 15.99940
4334 OM 4334 OM OM1 4334 -0.550000 15.99940
4335 OM 4335 OM OM1 4335 -0.550000 15.99940
4336 OM 4336 OM OM1 4336 -0.550000 15.99940
4337 OM 4337 OM OM1 4337 -0.550000 15.99940
4338 OM 4338 OM OM1 4338 -0.550000 15.99940
4339 OM 4339 OM OM1 4339 -0.550000 15.99940
4340 OM 4340 OM OM1 4340 -0.550000 15.99940
4341 OM 4341 OM OM1 4341 -0.550000 15.99940
4342 OM 4342 OM OM1 4342 -0.550000 15.99940
4343 OM 4343 OM OM1 4343 -0.550000 15.99940
4344 OM 4344 OM OM1 4344 -0.550000 15.99940
4345 OM 4345 OM OM1 4345 -0.550000 15.99940
4346 OM 4346 OM OM1 4346 -0.550000 15.99940
4347 OM 4347 OM OM1 4347 -0.550000 15.99940
4348 OM 4348 OM OM1 4348 -0.550000 15.99940
4349 OM 4349 OM OM1 4349 -0.550000 15.99940
4350 OM 4350 OM OM1 4350 -0.550000 15.99940
4351 OM 4351 OM OM1 4351 -0.550000 15.99940
4352 OM 4352 OM OM1 4352 -0.550000 15.99940
4353 OM 4353 OM OM1 4353 -0.550000 15.99940
4354 OM 4354 OM OM1 4354 -0.550000 15.99940
4355 OM 4355 OM OM1 4355 -0.550000 15.99940
4356 OM 4356 OM OM1 4356 -0.550000 15.99940
4357 OM 4357 OM OM1 4357 -0.550000 15.99940
4358 OM 4358 OM OM1 4358 -0.550000 15.99940
4359 OM 4359 OM OM1 4359 -0.550000 15.99940
4360 OM 4360 OM OM1 4360 -0.550000 15.99940
4361 OM 4361 OM OM1 4361 -0.550000 15.99940
4362 OM 4362 OM OM1 4362 -0.550000 15.99940
4363 OM 4363 OM OM1 4363 -0.550000 15.99940
4364 OM 4364 OM OM1 4364 -0.550000 15.99940
4365 OM 4365 OM OM1 4365 -0.550000 15.99940
4366 OM 4366 OM OM1 4366 -0.550000 15.99940
4367 OM 4367 OM OM1 4367 -0.550000 15.99940
4368 OM 4368 OM OM1 4368 -0.550000 15.99940
4369 OM 4369 OM OM1 4369 -0.550000 15.99940
4370 OM 4370 OM OM1 4370 -0.550000 15.99940
4371 OM 4371 OM OM1 4371 -0.550000 15.99940
4372 OM 4372 OM OM1 4372 -0.550000 15.99940
4373 OM 4373 OM OM1 4373 -0.550000 15.99940
4374 OM 4374 OM OM1 4374 -0.550000 15.99940
4375 OM 4375 OM OM1 4375 -0.550000 15.99940
4376 OM 4376 OM OM1 4376 -0.550000 15.99940
4377 OM 4377 OM OM1 4377 -0.550000 15.99940
4378 OM 4378 OM OM1 4378 -0.550000 15.99940
4379 OM 4379 OM OM1 4379 -0.550000 15.99940
4380 OM 4380 OM OM1 4380 -0.550000 15.99940
4381 OM 4381 OM OM1 4381 -0.550000 15.99940
4382 OM 4382 OM OM1 4382 -0.550000 15.99940
4383 OM 4383 OM OM1 4383 -0.550000 15.99940
4384 OM 4384 OM OM1 4384 -0.550000 15.99940
4385 OM 4385 OM OM1 4385 -0.550000 15.99940
4386 OM 4386 OM OM1 4386 -0.550000 15.99940
4387 OM 4387 OM OM1 4387 -0.550000 15.99940
4388 OM 4388 OM OM1 4388 -0.550000 15.99940
4389 OM 4389 OM OM1 4389 -0.550000 15.99940
4390 OM 4390 OM OM1 4390 -0.550000 15.99940
4391 OM 4391 OM OM1 4391 -0.550000 15.99940
4392 OM 4392 OM OM1 4392 -0.550000 15.99940
4393 OM 4393 OM OM1 4393 -0.550000 15.99940
4394 OM 4394 OM OM1 4394 -0.550000 15.99940
4395 OM 4395 OM OM1 4395 -0.550000 15.99940
4396 OM 4396 OM OM1 4396 -0.550000 15.99940
4397 OM 4397 OM OM1 4397 -0.550000 15.99940
4398 OM 4398 OM OM1 4398 -0.550000 15.99940
4399 OM 4399 OM OM1 4399 -0.550000 15.99940
4400 OM 4400 OM OM1 4400 -0.550000 15.99940
4401 OM 4401 OM OM1 4401 -0.550000 15.99940
4402 OM 4402 OM OM1 4402 -0.550000 15.99940
4403 OM 4403 OM OM1 4403 -0.550000 15.99940
4404 OM 4404 OM OM1 4404 -0.550000 15.99940
4405 OM 4405 OM OM1 4405 -0.550000 15.99940
4406 OM 4406 OM OM1 4406 -0.550000 15.99940
4407 OM 4407 OM OM1 4407 -0.550000 15.99940
4408 OM 4408 OM OM1 4408 -0.550000 15.99940
4409 OM 4409 OM OM1 4409 -0.550000 15.99940
4410 OM 4410 OM OM1 4410 -0.550000 15.99940
4411 OM 4411 OM OM1 4411 -0.550000 15.99940
4412 OM 4412 OM OM1 4412 -0.550000 15.99940
4413 OM 4413 OM OM1 4413 -0.550000 15.99940
4414 OM 4414 OM OM1 4414 -0.550000 15.99940
4415 OM 4415 OM OM1 4415 -0.550000 15.99940
4416 OM 4416 OM OM1 4416 -0.550000 15.99940
4417 OM 4417 OM OM1 4417 -0.550000 15.99940
4418 OM 4418 OM OM1 4418 -0.550000 15.99940
4419 OM 4419 OM OM1 4419 -0.550000 15.99940
4420 OM 4420 OM OM1 4420 -0.550000 15.99940
4421 OM 4421 OM OM1 4421 -0.550000 15.99940
4422 OM 4422 OM OM1 4422 -0.550000 15.99940
4423 OM 4423 OM OM1 4423 -0.550000 15.99940
4424 OM 4424 OM OM1 4424 -0.550000 15.99940
4425 OM 4425 OM OM1 4425 -0.550000 15.99940
4426 OM 4426 OM OM1 4426 -0.550000 15.99940
4427 OM 4427 OM OM1 4427 -0.550000 15.99940
4428 OM 4428 OM OM1 4428 -0.550000 15.99940
4429 OM 4429 OM OM1 4429 -0.550000 15.99940
4430 OM 4430 OM OM1 4430 -0.550000 15.99940
4431 OM 4431 OM OM1 4431 -0.550000 15.99940
4432 OM 4432 OM OM1 4432 -0.550000 15.99940
4433 OM 4433 OM OM1 4433 -0.550000 15.99940
4434 OM 4434 OM OM1 4434 -0.550000 15.99940
4435 OM 4435 OM OM1 4435 -0.550000 15.99940
4436 OM 4436 OM OM1 4436 -0.550000 15.99940
4437 OM 4437 OM OM1 4437 -0.550000 15.99940
4438 OM 4438 OM OM1 4438 -0.550000 15.99940
4439 OM 4439 OM OM1 4439 -0.550000 15.99940
4440 OM 4440 OM OM1 4440 -0.550000 15.99940
4441 OM 4441 OM OM1 4441 -0.550000 15.99940
4442 OM 4442 OM OM1 4442 -0.550000 15.99940
4443 OM 4443 OM OM1 4443 -0.550000 15.99940
4444 OM 4444 OM OM1 4444 -0.550000 15.99940
4445 OM 4445 OM OM1 4445 -0.550000 15.99940
4446 OM 4446 OM OM1 4446 -0.550000 15.99940
4447 OM 4447 OM OM1 4447 -0.550000 15.99940
4448 OM 4448 OM OM1 4448 -0.550000 15.99940
4449 OM 4449 OM OM1 4449 -0.550000 15.99940
4450 OM 4450 OM OM1 4450 -0.550000 15.99940
4451 OM 4451 OM OM1 4451 -0.550000 15.99940
4452 OM 4452 OM OM1 4452 -0.550000 15.99940
4453 OM 4453 OM OM1 4453 -0.550000 15.99940
4454 OM 4454 OM OM1 4454 -0.550000 15.99940
4455 OM 4455 OM OM1 4455 -0.550000 15.99940
4456 OM 4456 OM OM1 4456 -0.550000 15.99940
4457 OM 4457 OM OM1 4457 -0.550000 15.99940
4458 OM 4458 OM OM1 4458 -0.550000 15.99940
4459 OM 4459 OM OM1 4459 -0.550000 15.99940
4460 OM 4460 OM OM1 4460 -0.550000 15.99940
4461 OM 4461 OM OM1 4461 -0.550000 15.99940
4462 OM 4462 OM OM1 4462 -0.550000 15.99940
4463 OM 4463 OM OM1 4463 -0.550000 15.99940
4464 OM 4464 OM OM1 4464 -0.550000 15.99940
4465 OM 4465 OM OM1 4465 -0.550000 15.99940
4466 OM 4466 OM OM1 4466 -0.550000 15.99940
4467 OM 4467 OM OM1 4467 -0.550000 15.99940
4468 OM 4468 OM OM1 4468 -0.550000 15.99940
4469 OM 4469 OM OM1 4469 -0.550000 15.99940
4470 OM 4470 OM OM1 4470 -0.550000 15.99940
4471 OM 4471 OM OM1 4471 -0.550000 15.99940
4472 OM 4472 OM OM1 4472 -0.550000 15.99940
4473 OM 4473 OM OM1 4473 -0.550000 15.99940
4474 OM 4474 OM OM1 4474 -0.550000 15.99940
4475 OM 4475 OM OM1 4475 -0.550000 15.99940
4476 OM 4476 OM OM1 4476 -0.550000 15.99940
4477 OM 4477 OM OM1 4477 -0.550000 15.99940
4478 OM 4478 OM OM1 4478 -0.550000 15.99940
4479 OM 4479 OM OM1 4479 -0.550000 15.99940
4480 OM 4480 OM OM1 4480 -0.550000 15.99940
4481 OM 4481 OM OM1 4481 -0.550000 15.99940
4482 OM 4482 OM OM1 4482 -0.550000 15.99940
4483 OM 4483 OM OM1 4483 -0.550000 15.99940
4484 OM 4484 OM OM1 4484 -0.550000 15.99940
4485 OM 4485 OM OM1 4485 -0.550000 15.99940
4486 OM 4486 OM OM1 4486 -0.550000 15.99940
4487 OM 4487 OM OM1 4487 -0.550000 15.99940
4488 OM 4488 OM OM1 4488 -0.550000 15.99940
4489 OM 4489 OM OM1 4489 -0.550000 15.99940
4490 OM 4490 OM OM1 4490 -0.550000 15.99940
4491 OM 4491 OM OM1 4491 -0.550000 15.99940
4492 OM 4492 OM OM1 4492 -0.550000 15.99940
4493 OM 4493 OM OM1 4493 -0.550000 15.99940
4494 OM 4494 OM OM1 4494 -0.550000 15.99940
4495 OM 4495 OM OM1 4495 -0.550000 15.99940
4496 OM 4496 OM OM1 4496 -0.550000 15.99940
4497 OM 4497 OM OM1 4497 -0.550000 15.99940
4498 OM 4498 OM OM1 4498 -0.550000 15.99940
4499 OM 4499 OM OM1 4499 -0.550000 15.99940
4500 OM 4500 OM OM1 4500 -0.550000 15.99940
4501 OM 4501 OM OM1 4501 -0.550000 15.99940
4502 OM 4502 OM OM1 4502 -0.550000 15.99940
4503 OM 4503 OM OM1 4503 -0.550000 15.99940
4504 OM 4504 OM OM1 4504 -0.550000 15.99940
4505 OM 4505 OM OM1 4505 -0.550000 15.99940
4506 OM 4506 OM OM1 4506 -0.550000 15.99940
4507 OM 4507 OM OM1 4507 -0.550000 15.99940
4508 OM 4508 OM OM1 4508 -0.550000 15.99940
4509 OM 4509 OM OM1 4509 -0.550000 15.99940
4510 OM 4510 OM OM1 4510 -0.550000 15.99940
4511 OM 4511 OM OM1 4511 -0.550000 15.99940
4512 OM 4512 OM OM1 4512 -0.550000 15.99940
4513 OM 4513 OM OM1 4513 -0.550000 15.99940
4514 OM 4514 OM OM1 4514 -0.550000 15.99940
4515 OM 4515 OM OM1 4515 -0.550000 15.99940
4516 OM 4516 OM OM1 4516 -0.550000 15.99940
4517 OM 4517 OM OM1 4517 -0.550000 15.99940
4518 OM 4518 OM OM1 4518 -0.550000 15.99940
4519 OM 4519 OM OM1 4519 -0.550000 15.99940
4520 OM 4520 OM OM1 4520 -0.550000 15.99940
4521 OM 4521 OM OM1 4521 -0.550000 15.99940
4522 OM 4522 OM OM1 4522 -0.550000 15.99940
4523 OM 4523 OM OM1 4523 -0.550000 15.99940
4524 OM 4524 OM OM1 4524 -0.550000 15.99940
4525 OM 4525 OM OM1 4525 -0.550000 15.99940
4526 OM 4526 OM OM1 4526 -0.550000 15.99940
4527 OM 4527 OM OM1 4527 -0.550000 15.99940
4528 OM 4528 OM OM1 4528 -0.550000 15.99940
4529 OM 4529 OM OM1 4529 -0.550000 15.99940
4530 OM 4530 OM OM1 4530 -0.550000 15.99940
4531 OM 4531 OM OM1 4531 -0.550000 15.99940
4532 OM 4532 OM OM1 4532 -0.550000 15.99940
4533 OM 4533 OM OM1 4533 -0.550000 15.99940
4534 OM 4534 OM OM1 4534 -0.550000 15.99940
4535 OM 4535 OM OM1 4535 -0.550000 15.99940
4536 OM 4536 OM OM1 4536 -0.550000 15.99940
4537 OM 4537 OM OM1 4537 -0.550000 15.99940
4538 OM 4538 OM OM1 4538 -0.550000 15.99940
4539 OM 4539 OM OM1 4539 -0.550000 15.99940
4540 OM 4540 OM OM1 4540 -0.550000 15.99940
4541 OM 4541 OM OM1 4541 -0.550000 15.99940
4542 OM 4542 OM OM1 4542 -0.550000 15.99940
4543 OM 4543 OM OM1 4543 -0.550000 15.99940
4544 OM 4544 OM OM1 4544 -0.550000 15.99940
4545 OM 4545 OM OM1 4545 -0.550000 15.99940
4546 OM 4546 OM OM1 4546 -0.550000 15.99940
4547 OM 4547 OM OM1 4547 -0.550000 15.99940
4548 OM 4548 OM OM1 4548 -0.550000 15.99940
4549 OM 4549 OM OM1 4549 -0.550000 15.99940
4550 OM 4550 OM OM1 4550 -0.550000 15.99940
4551 OM 4551 OM OM1 4551 -0.550000 15.99940
4552 OM 4552 OM OM1 4552 -0.550000 15.99940
4553 OM 4553 OM OM1 4553 -0.550000 15.99940
4554 OM 4554 OM OM1 4554 -0.550000 15.99940
4555 OM 4555 OM OM1 4555 -0.550000 15.99940
4556 OM 4556 OM OM1 4556 -0.550000 15.99940
4557 OM 4557 OM OM1 4557 -0.550000 15.99940
4558 OM 4558 OM OM1 4558 -0.550000 15.99940
4559 OM 4559 OM OM1 4559 -0.550000 15.99940
4560 OM 4560 OM OM1 4560 -0.550000 15.99940
4561 OM 4561 OM OM1 4561 -0.550000 15.99940
4562 OM 4562 OM OM1 4562 -0.550000 15.99940
4563 OM 4563 OM OM1 4563 -0.550000 15.99940
4564 OM 4564 OM OM1 4564 -0.550000 15.99940
4565 OM 4565 OM OM1 4565 -0.550000 15.99940
4566 OM 4566 OM OM1 4566 -0.550000 15.99940
4567 OM 4567 OM OM1 4567 -0.550000 15.99940
4568 OM 4568 OM OM1 4568 -0.550000 15.99940
4569 OM 4569 OM OM1 4569 -0.550000 15.99940
4570 OM 4570 OM OM1 4570 -0.550000 15.99940
4571 OM 4571 OM OM1 4571 -0.550000 15.99940
4572 OM 4572 OM OM1 4572 -0.550000 15.99940
4573 OM 4573 OM OM1 4573 -0.550000 15.99940
4574 OM 4574 OM OM1 4574 -0.550000 15.99940
4575 OM 4575 OM OM1 4575 -0.550000 15.99940
4576 OM 4576 OM OM1 4576 -0.550000 15.99940
4577 OM 4577 OM OM1 4577 -0.550000 15.99940
4578 OM 4578 OM OM1 4578 -0.550000 15.99940
4579 OM 4579 OM OM1 4579 -0.550000 15.99940
4580 OM 4580 OM OM1 4580 -0.550000 15.99940
4581 OM 4581 OM OM1 4581 -0.550000 15.99940
4582 OM 4582 OM OM1 4582 -0.550000 15.99940
4583 OM 4583 OM OM1 4583 -0.550000 15.99940
4584 OM 4584 OM OM1 4584 -0.550000 15.99940
4585 OM 4585 OM OM1 4585 -0.550000 15.99940
4586 OM 4586 OM OM1 4586 -0.550000 15.99940
4587 OM 4587 OM OM1 4587 -0.550000 15.99940
4588 OM 4588 OM OM1 4588 -0.550000 15.99940
4589 OM 4589 OM OM1 4589 -0.550000 15.99940
4590 OM 4590 OM OM1 4590 -0.550000 15.99940
4591 OM 4591 OM OM1 4591 -0.550000 15.99940
4592 OM 4592 OM OM1 4592 -0.550000 15.99940
4593 OM 4593 OM OM1 4593 -0.550000 15.99940
4594 OM 4594 OM OM1 4594 -0.550000 15.99940
4595 OM 4595 OM OM1 4595 -0.550000 15.99940
4596 OM 4596 OM OM1 4596 -0.550000 15.99940
4597 OM 4597 OM OM1 4597 -0.550000 15.99940
4598 OM 4598 OM OM1 4598 -0.550000 15.99940
4599 OM 4599 OM OM1 4599 -0.550000 15.99940
4600 OM 4600 OM OM1 4600 -0.550000 15.99940
4601 OM 4601 OM OM1 4601 -0.550000 15.99940
4602 OM 4602 OM OM1 4602 -0.550000 15.99940
4603 OM 4603 OM OM1 4603 -0.550000 15.99940
4604 OM 4604 OM OM1 4604 -0.550000 15.99940
4605 OM 4605 OM OM1 4605 -0.550000 15.99940
4606 OM 4606 OM OM1 4606 -0.550000 15.99940
4607 OM 4607 OM OM1 4607 -0.550000 15.99940
4608 OM 4608 OM OM1 4608 -0.550000 15.99940
4609 OM 4609 OM OM1 4609 -0.550000 15.99940
4610 OM 4610 OM OM1 4610 -0.550000 15.99940
4611 OM 4611 OM OM1 4611 -0.550000 15.99940
4612 OM 4612 OM OM1 4612 -0.550000 15.99940
4613 OM 4613 OM OM1 4613 -0.550000 15.99940
4614 OM 4614 OM OM1 4614 -0.550000 15.99940
4615 OM 4615 OM OM1 4615 -0.550000 15.99940
4616 OM 4616 OM OM1 4616 -0.550000 15.99940
4617 OM 4617 OM OM1 4617 -0.550000 15.99940
4618 OM 4618 OM OM1 4618 -0.550000 15.99940
4619 OM 4619 OM OM1 4619 -0.550000 15.99940
4620 OM 4620 OM OM1 4620 -0.550000 15.99940
4621 OM 4621 OM OM1 4621 -0.550000 15.99940
4622 OM 4622 OM OM1 4622 -0.550000 15.99940
4623 OM 4623 OM OM1 4623 -0.550000 15.99940
4624 OM 4624 OM OM1 4624 -0.550000 15.99940
4625 OM 4625 OM OM1 4625 -0.550000 15.99940
4626 OM 4626 OM OM1 4626 -0.550000 15.99940
4627 OM 4627 OM OM1 4627 -0.550000 15.99940
4628 OM 4628 OM OM1 4628 -0.550000 15.99940
4629 OM 4629 OM OM1 4629 -0.550000 15.99940
4630 OM 4630 OM OM1 4630 -0.550000 15.99940
4631 OM 4631 OM OM1 4631 -0.550000 15.99940
4632 OM 4632 OM OM1 4632 -0.550000 15.99940
4633 OM 4633 OM OM1 4633 -0.550000 15.99940
4634 OM 4634 OM OM1 4634 -0.550000 15.99940
4635 OM 4635 OM OM1 4635 -0.550000 15.99940
4636 OM 4636 OM OM1 4636 -0.550000 15.99940
4637 OM 4637 OM OM1 4637 -0.550000 15.99940
4638 OM 4638 OM OM1 4638 -0.550000 15.99940
4639 OM 4639 OM OM1 4639 -0.550000 15.99940
4640 OM 4640 OM OM1 4640 -0.550000 15.99940
4641 OM 4641 OM OM1 4641 -0.550000 15.99940
4642 OM 4642 OM OM1 4642 -0.550000 15.99940
4643 OM 4643 OM OM1 4643 -0.550000 15.99940
4644 OM 4644 OM OM1 4644 -0.550000 15.99940
4645 OM 4645 OM OM1 4645 -0.550000 15.99940
4646 OM 4646 OM OM1 4646 -0.550000 15.99940
4647 OM 4647 OM OM1 4647 -0.550000 15.99940
4648 OM 4648 OM OM1 4648 -0.550000 15.99940
4649 OM 4649 OM OM1 4649 -0.550000 15.99940
4650 OM 4650 OM OM1 4650 -0.550000 15.99940
4651 OM 4651 OM OM1 4651 -0.550000 15.99940
4652 OM 4652 OM OM1 4652 -0.550000 15.99940
4653 OM 4653 OM OM1 4653 -0.550000 15.99940
4654 OM 4654 OM OM1 4654 -0.550000 15.99940
4655 OM 4655 OM OM1 4655 -0.550000 15.99940
4656 OM 4656 OM OM1 4656 -0.550000 15.99940
4657 OM 4657 OM OM1 4657 -0.550000 15.99940
4658 OM 4658 OM OM1 4658 -0.550000 15.99940
4659 OM 4659 OM OM1 4659 -0.550000 15.99940
4660 OM 4660 OM OM1 4660 -0.550000 15.99940
4661 OM 4661 OM OM1 4661 -0.550000 15.99940
4662 OM 4662 OM OM1 4662 -0.550000 15.99940
4663 OM 4663 OM OM1 4663 -0.550000 15.99940
4664 OM 4664 OM OM1 4664 -0.550000 15.99940
4665 OM 4665 OM OM1 4665 -0.550000 15.99940
4666 OM 4666 OM OM1 4666 -0.550000 15.99940
4667 OM 4667 OM OM1 4667 -0.550000 15.99940
4668 OM 4668 OM OM1 4668 -0.550000 15.99940
4669 OM 4669 OM OM1 4669 -0.550000 15.99940
4670 OM 4670 OM OM1 4670 -0.550000 15.99940
4671 OM 4671 OM OM1 4671 -0.550000 15.99940
4672 OM 4672 OM OM1 4672 -0.550000 15.99940
4673 OM 4673 OM OM1 4673 -0.550000 15.99940
4674 OM 4674 OM OM1 4674 -0.550000 15.99940
4675 OM 4675 OM OM1 4675 -0.550000 15.99940
4676 OM 4676 OM OM1 4676 -0.550000 15.99940
4677 OM 4677 OM OM1 4677 -0.550000 15.99940
4678 OM 4678 OM OM1 4678 -0.550000 15.99940
4679 OM 4679 OM OM1 4679 -0.550000 15.99940
4680 OM 4680 OM OM1 4680 -0.550000 15.99940
4681 OM 4681 OM OM1 4681 -0.550000 15.99940
4682 OM 4682 OM OM1 4682 -0.550000 15.99940
4683 OM 4683 OM OM1 4683 -0.550000 15.99940
4684 OM 4684 OM OM1 4684 -0.550000 15.99940
4685 OM 4685 OM OM1 4685 -0.550000 15.99940
4686 OM 4686 OM OM1 4686 -0.550000 15.99940
4687 OM 4687 OM OM1 4687 -0.550000 15.99940
4688 OM 4688 OM OM1 4688 -0.550000 15.99940
4689 OM 4689 OM OM1 4689 -0.550000 15.99940
4690 OM 4690 OM OM1 4690 -0.550000 15.99940
4691 OM 4691 OM OM1 4691 -0.550000 15.99940
4692 OM 4692 OM OM1 4692 -0.550000 15.99940
4693 OM 4693 OM OM1 4693 -0.550000 15.99940
4694 OM 4694 OM OM1 4694 -0.550000 15.99940
4695 OM 4695 OM OM1 4695 -0.550000 15.99940
4696 OM 4696 OM OM1 4696 -0.550000 15.99940
4697 OM 4697 OM OM1 4697 -0.550000 15.99940
4698 OM 4698 OM OM1 4698 -0.550000 15.99940
4699 OM 4699 OM OM1 4699 -0.550000 15.99940
4700 OM 4700 OM OM1 4700 -0.550000 15.99940
4701 OM 4701 OM OM1 4701 -0.550000 15.99940
4702 OM 4702 OM OM1 4702 -0.550000 15.99940
4703 OM 4703 OM OM1 4703 -0.550000 15.99940
4704 OM 4704 OM OM1 4704 -0.550000 15.99940
4705 OM 4705 OM OM1 4705 -0.550000 15.99940
4706 OM 4706 OM OM1 4706 -0.550000 15.99940
4707 OM 4707 OM OM1 4707 -0.550000 15.99940
4708 OM 4708 OM OM1 4708 -0.550000 15.99940
4709 OM 4709 OM OM1 4709 -0.550000 15.99940
4710 OM 4710 OM OM1 4710 -0.550000 15.99940
4711 OM 4711 OM OM1 4711 -0.550000 15.99940
4712 OM 4712 OM OM1 4712 -0.550000 15.99940
4713 OM 4713 OM OM1 4713 -0.550000 15.99940
4714 OM 4714 OM OM1 4714 -0.550000 15.99940
4715 OM 4715 OM OM1 4715 -0.550000 15.99940
4716 OM 4716 OM OM1 4716 -0.550000 15.99940
4717 OM 4717 OM OM1 4717 -0.550000 15.99940
4718 OM 4718 OM OM1 4718 -0.550000 15.99940
4719 OM 4719 OM OM1 4719 -0.550000 15.99940
4720 OM 4720 OM OM1 4720 -0.550000 15.99940
4721 OM 4721 OM OM1 4721 -0.550000 15.99940
4722 OM 4722 OM OM1 4722 -0.550000 15.99940
4723 OM 4723 OM OM1 4723 -0.550000 15.99940
4724 OM 4724 OM OM1 4724 -0.550000 15.99940
4725 OM 4725 OM OM1 4725 -0.550000 15.99940
4726 OM 4726 OM OM1 4726 -0.550000 15.99940
4727 OM 4727 OM OM1 4727 -0.550000 15.99940
4728 OM 4728 OM OM1 4728 -0.550000 15.99940
4729 OM 4729 OM OM1 4729 -0.550000 15.99940
4730 OM 4730 OM OM1 4730 -0.550000 15.99940
4731 OM 4731 OM OM1 4731 -0.550000 15.99940
4732 OM 4732 OM OM1 4732 -0.550000 15.99940
4733 OM 4733 OM OM1 4733 -0.550000 15.99940
4734 OM 4734 OM OM1 4734 -0.550000 15.99940
4735 OM 4735 OM OM1 4735 -0.550000 15.99940
4736 OM 4736 OM OM1 4736 -0.550000 15.99940
4737 OM 4737 OM OM1 4737 -0.550000 15.99940
4738 OM 4738 OM OM1 4738 -0.550000 15.99940
4739 OM 4739 OM OM1 4739 -0.550000 15.99940
4740 OM 4740 OM OM1 4740 -0.550000 15.99940
4741 OM 4741 OM OM1 4741 -0.550000 15.99940
4742 OM 4742 OM OM1 4742 -0.550000 15.99940
4743 OM 4743 OM OM1 4743 -0.550000 15.99940
4744 OM 4744 OM OM1 4744 -0.550000 15.99940
4745 OM 4745 OM OM1 4745 -0.550000 15.99940
4746 OM 4746 OM OM1 4746 -0.550000 15.99940
4747 OM 4747 OM OM1 4747 -0.550000 15.99940
4748 OM 4748 OM OM1 4748 -0.550000 15.99940
4749 OM 4749 OM OM1 4749 -0.550000 15.99940
4750 OM 4750 OM OM1 4750 -0.550000 15.99940
4751 OM 4751 OM OM1 4751 -0.550000 15.99940
4752 OM 4752 OM OM1 4752 -0.550000 15.99940
4753 OM 4753 OM OM1 4753 -0.550000 15.99940
4754 OM 4754 OM OM1 4754 -0.550000 15.99940
4755 OM 4755 OM OM1 4755 -0.550000 15.99940
4756 OM 4756 OM OM1 4756 -0.550000 15.99940
4757 OM 4757 OM OM1 4757 -0.550000 15.99940
4758 OM 4758 OM OM1 4758 -0.550000 15.99940
4759 OM 4759 OM OM1 4759 -0.550000 15.99940
4760 OM 4760 OM OM1 4760 -0.550000 15.99940
4761 OM 4761 OM OM1 4761 -0.550000 15.99940
4762 OM 4762 OM OM1 4762 -0.550000 15.99940
4763 OM 4763 OM OM1 4763 -0.550000 15.99940
4764 OM 4764 OM OM1 4764 -0.550000 15.99940
4765 OM 4765 OM OM1 4765 -0.550000 15.99940
4766 OM 4766 OM OM1 4766 -0.550000 15.99940
4767 OM 4767 OM OM1 4767 -0.550000 15.99940
4768 OM 4768 OM OM1 4768 -0.550000 15.99940
4769 OM 4769 OM OM1 4769 -0.550000 15.99940
4770 OM 4770 OM OM1 4770 -0.550000 15.99940
4771 OM 4771 OM OM1 4771 -0.550000 15.99940
4772 OM 4772 OM OM1 4772 -0.550000 15.99940
4773 OM 4773 OM OM1 4773 -0.550000 15.99940
4774 OM 4774 OM OM1 4774 -0.550000 15.99940
4775 OM 4775 OM OM1 4775 -0.550000 15.99940
4776 OM 4776 OM OM1 4776 -0.550000 15.99940
4777 OM 4777 OM OM1 4777 -0.550000 15.99940
4778 OM 4778 OM OM1 4778 -0.550000 15.99940
4779 OM 4779 OM OM1 4779 -0.550000 15.99940
4780 OM 4780 OM OM1 4780 -0.550000 15.99940
4781 OM 4781 OM OM1 4781 -0.550000 15.99940
4782 OM 4782 OM OM1 4782 -0.550000 15.99940
4783 OM 4783 OM OM1 4783 -0.550000 15.99940
4784 OM 4784 OM OM1 4784 -0.550000 15.99940
4785 OM 4785 OM OM1 4785 -0.550000 15.99940
4786 OM 4786 OM OM1 4786 -0.550000 15.99940
4787 OM 4787 OM OM1 4787 -0.550000 15.99940
4788 OM 4788 OM OM1 4788 -0.550000 15.99940
4789 OM 4789 OM OM1 4789 -0.550000 15.99940
4790 OM 4790 OM OM1 4790 -0.550000 15.99940
4791 OM 4791 OM OM1 4791 -0.550000 15.99940
4792 OM 4792 OM OM1 4792 -0.550000 15.99940
4793 OM 4793 OM OM1 4793 -0.550000 15.99940
4794 OM 4794 OM OM1 4794 -0.550000 15.99940
4795 OM 4795 OM OM1 4795 -0.550000 15.99940
4796 OM 4796 OM OM1 4796 -0.550000 15.99940
4797 OM 4797 OM OM1 4797 -0.550000 15.99940
4798 OM 4798 OM OM1 4798 -0.550000 15.99940
4799 OM 4799 OM OM1 4799 -0.550000 15.99940
4800 OM 4800 OM OM1 4800 -0.550000 15.99940
4801 OM 4801 OM OM1 4801 -0.550000 15.99940
4802 OM 4802 OM OM1 4802 -0.550000 15.99940
4803 OM 4803 OM OM1 4803 -0.550000 15.99940
4804 OM 4804 OM OM1 4804 -0.550000 15.99940
4805 OM 4805 OM OM1 4805 -0.550000 15.99940
4806 OM 4806 OM OM1 4806 -0.550000 15.99940
4807 OM 4807 OM OM1 4807 -0.550000 15.99940
4808 OM 4808 OM OM1 4808 -0.550000 15.99940
4809 OM 4809 OM OM1 4809 -0.550000 15.99940
4810 OM 4810 OM OM1 4810 -0.550000 15.99940
4811 OM 4811 OM OM1 4811 -0.550000 15.99940
4812 OM 4812 OM OM1 4812 -0.550000 15.99940
4813 OM 4813 OM OM1 4813 -0.550000 15.99940
4814 OM 4814 OM OM1 4814 -0.550000 15.99940
4815 OM 4815 OM OM1 4815 -0.550000 15.99940
4816 OM 4816 OM OM1 4816 -0.550000 15.99940
4817 OM 4817 OM OM1 4817 -0.550000 15.99940
4818 OM 4818 OM OM1 4818 -0.550000 15.99940
4819 OM 4819 OM OM1 4819 -0.550000 15.99940
4820 OM 4820 OM OM1 4820 -0.550000 15.99940
4821 OM 4821 OM OM1 4821 -0.550000 15.99940
4822 OM 4822 OM OM1 4822 -0.550000 15.99940
4823 OM 4823 OM OM1 4823 -0.550000 15.99940
4824 OM 4824 OM OM1 4824 -0.550000 15.99940
4825 OM 4825 OM OM1 4825 -0.550000 15.99940
4826 OM 4826 OM OM1 4826 -0.550000 15.99940
4827 OM 4827 OM OM1 4827 -0.550000 15.99940
4828 OM 4828 OM OM1 4828 -0.550000 15.99940
4829 OM 4829 OM OM1 4829 -0.550000 15.99940
4830 OM 4830 OM OM1 4830 -0.550000 15.99940
4831 OM 4831 OM OM1 4831 -0.550000 15.99940
4832 OM 4832 OM OM1 4832 -0.550000 15.99940
4833 OM 4833 OM OM1 4833 -0.550000 15.99940
4834 OM 4834 OM OM1 4834 -0.550000 15.99940
4835 OM 4835 OM OM1 4835 -0.550000 15.99940
4836 OM 4836 OM OM1 4836 -0.550000 15.99940
4837 OM 4837 OM OM1 4837 -0.550000 15.99940
4838 OM 4838 OM OM1 4838 -0.550000 15.99940
4839 OM 4839 OM OM1 4839 -0.550000 15.99940
4840 OM 4840 OM OM1 4840 -0.550000 15.99940
4841 OM 4841 OM OM1 4841 -0.550000 15.99940
4842 OM 4842 OM OM1 4842 -0.550000 15.99940
4843 OM 4843 OM OM1 4843 -0.550000 15.99940
4844 OM 4844 OM OM1 4844 -0.550000 15.99940
4845 OM 4845 OM OM1 4845 -0.550000 15.99940
4846 OM 4846 OM OM1 4846 -0.550000 15.99940
4847 OM 4847 OM OM1 4847 -0.550000 15.99940
4848 OM 4848 OM OM1 4848 -0.550000 15.99940
4849 OM 4849 OM OM1 4849 -0.550000 15.99940
4850 OM 4850 OM OM1 4850 -0.550000 15.99940
4851 OM 4851 OM OM1 4851 -0.550000 15.99940
4852 OM 4852 OM OM1 4852 -0.550000 15.99940
4853 OM 4853 OM OM1 4853 -0.550000 15.99940
4854 OM 4854 OM OM1 4854 -0.550000 15.99940
4855 OM 4855 OM OM1 4855 -0.550000 15.99940
4856 OM 4856 OM OM1 4856 -0.550000 15.99940
4857 OM 4857 OM OM1 4857 -0.550000 15.99940
4858 OM 4858 OM OM1 4858 -0.550000 15.99940
4859 OM 4859 OM OM1 4859 -0.550000 15.99940
4860 OM 4860 OM OM1 4860 -0.550000 15.99940
4861 OM 4861 OM OM1 4861 -0.550000 15.99940
4862 OM 4862 OM OM1 4862 -0.550000 15.99940
4863 OM 4863 OM OM1 4863 -0.550000 15.99940
4864 OM 4864 OM OM1 4864 -0.550000 15.99940
4865 OM 4865 OM OM1 4865 -0.550000 15.99940
4866 OM 4866 OM OM1 4866 -0.550000 15.99940
4867 OM 4867 OM OM1 4867 -0.550000 15.99940
4868 OM 4868 OM OM1 4868 -0.550000 15.99940
4869 OM 4869 OM OM1 4869 -0.550000 15.99940
4870 OM 4870 OM OM1 4870 -0.550000 15.99940
4871 OM 4871 OM OM1 4871 -0.550000 15.99940
4872 OM 4872 OM OM1 4872 -0.550000 15.99940
4873 OM 4873 OM OM1 4873 -0.550000 15.99940
4874 OM 4874 OM OM1 4874 -0.550000 15.99940
4875 OM 4875 OM OM1 4875 -0.550000 15.99940
4876 OM 4876 OM OM1 4876 -0.550000 15.99940
4877 OM 4877 OM OM1 4877 -0.550000 15.99940
4878 OM 4878 OM OM1 4878 -0.550000 15.99940
4879 OM 4879 OM OM1 4879 -0.550000 15.99940
4880 OM 4880 OM OM1 4880 -0.550000 15.99940
4881 OM 4881 OM OM1 4881 -0.550000 15.99940
4882 OM 4882 OM OM1 4882 -0.550000 15.99940
4883 OM 4883 OM OM1 4883 -0.550000 15.99940
4884 OM 4884 OM OM1 4884 -0.550000 15.99940
4885 OM 4885 OM OM1 4885 -0.550000 15.99940
4886 OM 4886 OM OM1 4886 -0.550000 15.99940
4887 OM 4887 OM OM1 4887 -0.550000 15.99940
4888 OM 4888 OM OM1 4888 -0.550000 15.99940
4889 OM 4889 OM OM1 4889 -0.550000 15.99940
4890 OM 4890 OM OM1 4890 -0.550000 15.99940
4891 OM 4891 OM OM1 4891 -0.550000 15.99940
4892 OM 4892 OM OM1 4892 -0.550000 15.99940
4893 OM 4893 OM OM1 4893 -0.550000 15.99940
4894 OM 4894 OM OM1 4894 -0.550000 15.99940
4895 OM 4895 OM OM1 4895 -0.550000 15.99940
4896 OM 4896 OM OM1 4896 -0.550000 15.99940
4897 OM 4897 OM OM1 4897 -0.550000 15.99940
4898 OM 4898 OM OM1 4898 -0.550000 15.99940
4899 OM 4899 OM OM1 4899 -0.550000 15.99940
4900 OM 4900 OM OM1 4900 -0.550000 15.99940
4901 OM 4901 OM OM1 4901 -0.550000 15.99940
4902 OM 4902 OM OM1 4902 -0.550000 15.99940
4903 OM 4903 OM OM1 4903 -0.550000 15.99940
4904 OM 4904 OM OM1 4904 -0.550000 15.99940
4905 OM 4905 OM OM1 4905 -0.550000 15.99940
4906 OM 4906 OM OM1 4906 -0.550000 15.99940
4907 OM 4907 OM OM1 4907 -0.550000 15.99940
4908 OM 4908 OM OM1 4908 -0.550000 15.99940
4909 OM 4909 OM OM1 4909 -0.550000 15.99940
4910 OM 4910 OM OM1 4910 -0.550000 15.99940
4911 OM 4911 OM OM1 4911 -0.550000 15.99940
4912 OM 4912 OM OM1 4912 -0.550000 15.99940
4913 OM 4913 OM OM1 4913 -0.550000 15.99940
4914 OM 4914 OM OM1 4914 -0.550000 15.99940
4915 OM 4915 OM OM1 4915 -0.550000 15.99940
4916 OM 4916 OM OM1 4916 -0.550000 15.99940
4917 OM 4917 OM OM1 4917 -0.550000 15.99940
4918 OM 4918 OM OM1 4918 -0.550000 15.99940
4919 OM 4919 OM OM1 4919 -0.550000 15.99940
4920 OM 4920 OM OM1 4920 -0.550000 15.99940
4921 OM 4921 OM OM1 4921 -0.550000 15.99940
4922 OM 4922 OM OM1 4922 -0.550000 15.99940
4923 OM 4923 OM OM1 4923 -0.550000 15.99940
4924 OM 4924 OM OM1 4924 -0.550000 15.99940
4925 OM 4925 OM OM1 4925 -0.550000 15.99940
4926 OM 4926 OM OM1 4926 -0.550000 15.99940
4927 OM 4927 OM OM1 4927 -0.550000 15.99940
4928 OM 4928 OM OM1 4928 -0.550000 15.99940
4929 OM 4929 OM OM1 4929 -0.550000 15.99940
4930 OM 4930 OM OM1 4930 -0.550000 15.99940
4931 OM 4931 OM OM1 4931 -0.550000 15.99940
4932 OM 4932 OM OM1 4932 -0.550000 15.99940
4933 OM 4933 OM OM1 4933 -0.550000 15.99940
4934 OM 4934 OM OM1 4934 -0.550000 15.99940
4935 OM 4935 OM OM1 4935 -0.550000 15.99940
4936 OM 4936 OM OM1 4936 -0.550000 15.99940
4937 OM 4937 OM OM1 4937 -0.550000 15.99940
4938 OM 4938 OM OM1 4938 -0.550000 15.99940
4939 OM 4939 OM OM1 4939 -0.550000 15.99940
4940 OM 4940 OM OM1 4940 -0.550000 15.99940
4941 OM 4941 OM OM1 4941 -0.550000 15.99940
4942 OM 4942 OM OM1 4942 -0.550000 15.99940
4943 OM 4943 OM OM1 4943 -0.550000 15.99940
4944 OM 4944 OM OM1 4944 -0.550000 15.99940
4945 OM 4945 OM OM1 4945 -0.550000 15.99940
4946 OM 4946 OM OM1 4946 -0.550000 15.99940
4947 OM 4947 OM OM1 4947 -0.550000 15.99940
4948 OM 4948 OM OM1 4948 -0.550000 15.99940
4949 OM 4949 OM OM1 4949 -0.550000 15.99940
4950 OM 4950 OM OM1 4950 -0.550000 15.99940
4951 OM 4951 OM OM1 4951 -0.550000 15.99940
4952 OM 4952 OM OM1 4952 -0.550000 15.99940
4953 OM 4953 OM OM1 4953 -0.550000 15.99940
4954 OM 4954 OM OM1 4954 -0.550000 15.99940
4955 OM 4955 OM OM1 4955 -0.550000 15.99940
4956 OM 4956 OM OM1 4956 -0.550000 15.99940
4957 OM 4957 OM OM1 4957 -0.550000 15.99940
4958 OM 4958 OM OM1 4958 -0.550000 15.99940
4959 OM 4959 OM OM1 4959 -0.550000 15.99940
4960 OM 4960 OM OM1 4960 -0.550000 15.99940
4961 OM 4961 OM OM1 4961 -0.550000 15.99940
4962 OM 4962 OM OM1 4962 -0.550000 15.99940
4963 OM 4963 OM OM1 4963 -0.550000 15.99940
4964 OM 4964 OM OM1 4964 -0.550000 15.99940
4965 OM 4965 OM OM1 4965 -0.550000 15.99940
4966 OM 4966 OM OM1 4966 -0.550000 15.99940
4967 OM 4967 OM OM1 4967 -0.550000 15.99940
4968 OM 4968 OM OM1 4968 -0.550000 15.99940
4969 OM 4969 OM OM1 4969 -0.550000 15.99940
4970 OM 4970 OM OM1 4970 -0.550000 15.99940
4971 OM 4971 OM OM1 4971 -0.550000 15.99940
4972 OM 4972 OM OM1 4972 -0.550000 15.99940
4973 OM 4973 OM OM1 4973 -0.550000 15.99940
4974 OM 4974 OM OM1 4974 -0.550000 15.99940
4975 OM 4975 OM OM1 4975 -0.550000 15.99940
4976 OM 4976 OM OM1 4976 -0.550000 15.99940
4977 OM 4977 OM OM1 4977 -0.550000 15.99940
4978 OM 4978 OM OM1 4978 -0.550000 15.99940
4979 OM 4979 OM OM1 4979 -0.550000 15.99940
4980 OM 4980 OM OM1 4980 -0.550000 15.99940
4981 OM 4981 OM OM1 4981 -0.550000 15.99940
4982 OM 4982 OM OM1 4982 -0.550000 15.99940
4983 OM 4983 OM OM1 4983 -0.550000 15.99940
4984 OM 4984 OM OM1 4984 -0.550000 15.99940
4985 OM 4985 OM OM1 4985 -0.550000 15.99940
4986 OM 4986 OM OM1 4986 -0.550000 15.99940
4987 OM 4987 OM OM1 4987 -0.550000 15.99940
4988 OM 4988 OM OM1 4988 -0.550000 15.99940
4989 OM 4989 OM OM1 4989 -0.550000 15.99940
4990 OM 4990 OM OM1 4990 -0.550000 15.99940
4991 OM 4991 OM OM1 4991 -0.550000 15.99940
4992 OM 4992 OM OM1 4992 -0.550000 15.99940
4993 OM 4993 OM OM1 4993 -0.550000 15.99940
4994 OM 4994 OM OM1 4994 -0.550000 15.99940
4995 OM 4995 OM OM1 4995 -0.550000 15.99940
4996 OM 4996 OM OM1 4996 -0.550000 15.99940
4997 OM 4997 OM OM1 4997 -0.550000 15.99940
4998 OM 4998 OM OM1 4998 -0.550000 15.99940
4999 OM 4999 OM OM1 4999 -0.550000 15.99940
5000 OM 5000 OM OM1 5000 -0.550000 15.99940
5001 OM 5001 OM OM1 5001 -0.550000 15.99940
5002 OM 5002 OM OM1 5002 -0.550000 15.99940
5003 OM 5003 OM OM1 5003 -0.550000 15.99940
5004 OM 5004 OM OM1 5004 -0.550000 15.99940
5005 OM 5005 OM OM1 5005 -0.550000 15.99940
5006 OM 5006 OM OM1 5006 -0.550000 15.99940
5007 OM 5007 OM OM1 5007 -0.550000 15.99940
5008 OM 5008 OM OM1 5008 -0.550000 15.99940
5009 OM 5009 OM OM1 5009 -0.550000 15.99940
5010 OM 5010 OM OM1 5010 -0.550000 15.99940
5011 OM 5011 OM OM1 5011 -0.550000 15.99940
5012 OM 5012 OM OM1 5012 -0.550000 15.99940
5013 OM 5013 OM OM1 5013 -0.550000 15.99940
5014 OM 5014 OM OM1 5014 -0.550000 15.99940
5015 OM 5015 OM OM1 5015 -0.550000 15.99940
5016 OM 5016 OM OM1 5016 -0.550000 15.99940
5017 OM 5017 OM OM1 5017 -0.550000 15.99940
5018 OM 5018 OM OM1 5018 -0.550000 15.99940
5019 OM 5019 OM OM1 5019 -0.550000 15.99940
5020 OM 5020 OM OM1 5020 -0.550000 15.99940
5021 OM 5021 OM OM1 5021 -0.550000 15.99940
5022 OM 5022 OM OM1 5022 -0.550000 15.99940
5023 OM 5023 OM OM1 5023 -0.550000 15.99940
5024 OM 5024 OM OM1 5024 -0.550000 15.99940
5025 OM 5025 OM OM1 5025 -0.550000 15.99940
5026 OM 5026 OM OM1 5026 -0.550000 15.99940
5027 OM 5027 OM OM1 5027 -0.550000 15.99940
5028 OM 5028 OM OM1 5028 -0.550000 15.99940
5029 OM 5029 OM OM1 5029 -0.550000 15.99940
5030 OM 5030 OM OM1 5030 -0.550000 15.99940
5031 OM 5031 OM OM1 5031 -0.550000 15.99940
5032 OM 5032 OM OM1 5032 -0.550000 15.99940
5033 OM 5033 OM OM1 5033 -0.550000 15.99940
5034 OM 5034 OM OM1 5034 -0.550000 15.99940
5035 OM 5035 OM OM1 5035 -0.550000 15.99940
5036 OM 5036 OM OM1 5036 -0.550000 15.99940
5037 OM 5037 OM OM1 5037 -0.550000 15.99940
5038 OM 5038 OM OM1 5038 -0.550000 15.99940
5039 OM 5039 OM OM1 5039 -0.550000 15.99940
5040 OM 5040 OM OM1 5040 -0.550000 15.99940
5041 OM 5041 OM OM1 5041 -0.550000 15.99940
5042 OM 5042 OM OM1 5042 -0.550000 15.99940
5043 OM 5043 OM OM1 5043 -0.550000 15.99940
5044 OM 5044 OM OM1 5044 -0.550000 15.99940
5045 OM 5045 OM OM1 5045 -0.550000 15.99940
5046 OM 5046 OM OM1 5046 -0.550000 15.99940
5047 OM 5047 OM OM1 5047 -0.550000 15.99940
5048 OM 5048 OM OM1 5048 -0.550000 15.99940
5049 OM 5049 OM OM1 5049 -0.550000 15.99940
5050 OM 5050 OM OM1 5050 -0.550000 15.99940
5051 OM 5051 OM OM1 5051 -0.550000 15.99940
5052 OM 5052 OM OM1 5052 -0.550000 15.99940
5053 OM 5053 OM OM1 5053 -0.550000 15.99940
5054 OM 5054 OM OM1 5054 -0.550000 15.99940
5055 OM 5055 OM OM1 5055 -0.550000 15.99940
5056 OM 5056 OM OM1 5056 -0.550000 15.99940
5057 OM 5057 OM OM1 5057 -0.550000 15.99940
5058 OM 5058 OM OM1 5058 -0.550000 15.99940
5059 OM 5059 OM OM1 5059 -0.550000 15.99940
5060 OM 5060 OM OM1 5060 -0.550000 15.99940
5061 OM 5061 OM OM1 5061 -0.550000 15.99940
5062 OM 5062 OM OM1 5062 -0.550000 15.99940
5063 OM 5063 OM OM1 5063 -0.550000 15.99940
5064 OM 5064 OM OM1 5064 -0.550000 15.99940
5065 OM 5065 OM OM1 5065 -0.550000 15.99940
5066 OM 5066 OM OM1 5066 -0.550000 15.99940
5067 OM 5067 OM OM1 5067 -0.550000 15.99940
5068 OM 5068 OM OM1 5068 -0.550000 15.99940
5069 OM 5069 OM OM1 5069 -0.550000 15.99940
5070 OM 5070 OM OM1 5070 -0.550000 15.99940
5071 OM 5071 OM OM1 5071 -0.550000 15.99940
5072 OM 5072 OM OM1 5072 -0.550000 15.99940
5073 OM 5073 OM OM1 5073 -0.550000 15.99940
5074 OM 5074 OM OM1 5074 -0.550000 15.99940
5075 OM 5075 OM OM1 5075 -0.550000 15.99940
5076 OM 5076 OM OM1 5076 -0.550000 15.99940
5077 OM 5077 OM OM1 5077 -0.550000 15.99940
5078 OM 5078 OM OM1 5078 -0.550000 15.99940
5079 OM 5079 OM OM1 5079 -0.550000 15.99940
5080 OM 5080 OM OM1 5080 -0.550000 15.99940
5081 OM 5081 OM OM1 5081 -0.550000 15.99940
5082 OM 5082 OM OM1 5082 -0.550000 15.99940
5083 OM 5083 OM OM1 5083 -0.550000 15.99940
5084 OM 5084 OM OM1 5084 -0.550000 15.99940
5085 OM 5085 OM OM1 5085 -0.550000 15.99940
5086 OM 5086 OM OM1 5086 -0.550000 15.99940
5087 OM 5087 OM OM1 5087 -0.550000 15.99940
5088 OM 5088 OM OM1 5088 -0.550000 15.99940
5089 OM 5089 OM OM1 5089 -0.550000 15.99940
5090 OM 5090 OM OM1 5090 -0.550000 15.99940
5091 OM 5091 OM OM1 5091 -0.550000 15.99940
5092 OM 5092 OM OM1 5092 -0.550000 15.99940
5093 OM 5093 OM OM1 5093 -0.550000 15.99940
5094 OM 5094 OM OM1 5094 -0.550000 15.99940
5095 OM 5095 OM OM1 5095 -0.550000 15.99940
5096 OM 5096 OM OM1 5096 -0.550000 15.99940
5097 OM 5097 OM OM1 5097 -0.550000 15.99940
5098 OM 5098 OM OM1 5098 -0.550000 15.99940
5099 OM 5099 OM OM1 5099 -0.550000 15.99940
5100 OM 5100 OM OM1 5100 -0.550000 15.99940
5101 OM 5101 OM OM1 5101 -0.550000 15.99940
5102 OM 5102 OM OM1 5102 -0.550000 15.99940
5103 OM 5103 OM OM1 5103 -0.550000 15.99940
5104 OM 5104 OM OM1 5104 -0.550000 15.99940
5105 OM 5105 OM OM1 5105 -0.550000 15.99940
5106 OM 5106 OM OM1 5106 -0.550000 15.99940
5107 OM 5107 OM OM1 5107 -0.550000 15.99940
5108 OM 5108 OM OM1 5108 -0.550000 15.99940
5109 OM 5109 OM OM1 5109 -0.550000 15.99940
5110 OM 5110 OM OM1 5110 -0.550000 15.99940
5111 OM 5111 OM OM1 5111 -0.550000 15.99940
5112 OM 5112 OM OM1 5112 -0.550000 15.99940
5113 OM 5113 OM OM1 5113 -0.550000 15.99940
5114 OM 5114 OM OM1 5114 -0.550000 15.99940
5115 OM 5115 OM OM1 5115 -0.550000 15.99940
5116 OM 5116 OM OM1 5116 -0.550000 15.99940
5117 OM 5117 OM OM1 5117 -0.550000 15.99940
5118 OM 5118 OM OM1 5118 -0.550000 15.99940
5119 OM 5119 OM OM1 5119 -0.550000 15.99940
5120 OM 5120 OM OM1 5120 -0.550000 15.99940
5121 OM 5121 OM OM1 5121 -0.550000 15.99940
5122 OM 5122 OM OM1 5122 -0.550000 15.99940
5123 OM 5123 OM OM1 5123 -0.550000 15.99940
5124 OM 5124 OM OM1 5124 -0.550000 15.99940
5125 OM 5125 OM OM1 5125 -0.550000 15.99940
5126 OM 5126 OM OM1 5126 -0.550000 15.99940
5127 OM 5127 OM OM1 5127 -0.550000 15.99940
5128 OM 5128 OM OM1 5128 -0.550000 15.99940
5129 OM 5129 OM OM1 5129 -0.550000 15.99940
5130 OM 5130 OM OM1 5130 -0.550000 15.99940
5131 OM 5131 OM OM1 5131 -0.550000 15.99940
5132 OM 5132 OM OM1 5132 -0.550000 15.99940
5133 OM 5133 OM OM1 5133 -0.550000 15.99940
5134 OM 5134 OM OM1 5134 -0.550000 15.99940
5135 OM 5135 OM OM1 5135 -0.550000 15.99940
5136 OM 5136 OM OM1 5136 -0.550000 15.99940
5137 OM 5137 OM OM1 5137 -0.550000 15.99940
5138 OM 5138 OM OM1 5138 -0.550000 15.99940
5139 OM 5139 OM OM1 5139 -0.550000 15.99940
5140 OM 5140 OM OM1 5140 -0.550000 15.99940
5141 OM 5141 OM OM1 5141 -0.550000 15.99940
5142 OM 5142 OM OM1 5142 -0.550000 15.99940
5143 OM 5143 OM OM1 5143 -0.550000 15.99940
5144 OM 5144 OM OM1 5144 -0.550000 15.99940
5145 OM 5145 OM OM1 5145 -0.550000 15.99940
5146 OM 5146 OM OM1 5146 -0.550000 15.99940
5147 OM 5147 OM OM1 5147 -0.550000 15.99940
5148 OM 5148 OM OM1 5148 -0.550000 15.99940
5149 OM 5149 OM OM1 5149 -0.550000 15.99940
5150 OM 5150 OM OM1 5150 -0.550000 15.99940
5151 OM 5151 OM OM1 5151 -0.550000 15.99940
5152 OM 5152 OM OM1 5152 -0.550000 15.99940
5153 OM 5153 OM OM1 5153 -0.550000 15.99940
5154 OM 5154 OM OM1 5154 -0.550000 15.99940
5155 OM 5155 OM OM1 5155 -0.550000 15.99940
5156 OM 5156 OM OM1 5156 -0.550000 15.99940
5157 OM 5157 OM OM1 5157 -0.550000 15.99940
5158 OM 5158 OM OM1 5158 -0.550000 15.99940
5159 OM 5159 OM OM1 5159 -0.550000 15.99940
5160 OM 5160 OM OM1 5160 -0.550000 15.99940
5161 OM 5161 OM OM1 5161 -0.550000 15.99940
5162 OM 5162 OM OM1 5162 -0.550000 15.99940
5163 OM 5163 OM OM1 5163 -0.550000 15.99940
5164 OM 5164 OM OM1 5164 -0.550000 15.99940
5165 OM 5165 OM OM1 5165 -0.550000 15.99940
5166 OM 5166 OM OM1 5166 -0.550000 15.99940
5167 OM 5167 OM OM1 5167 -0.550000 15.99940
5168 OM 5168 OM OM1 5168 -0.550000 15.99940
5169 OM 5169 OM OM1 5169 -0.550000 15.99940
5170 OM 5170 OM OM1 5170 -0.550000 15.99940
5171 OM 5171 OM OM1 5171 -0.550000 15.99940
5172 OM 5172 OM OM1 5172 -0.550000 15.99940
5173 OM 5173 OM OM1 5173 -0.550000 15.99940
5174 OM 5174 OM OM1 5174 -0.550000 15.99940
5175 OM 5175 OM OM1 5175 -0.550000 15.99940
5176 OM 5176 OM OM1 5176 -0.550000 15.99940
5177 OM 5177 OM OM1 5177 -0.550000 15.99940
5178 OM 5178 OM OM1 5178 -0.550000 15.99940
5179 OM 5179 OM OM1 5179 -0.550000 15.99940
5180 OM 5180 OM OM1 5180 -0.550000 15.99940
5181 OM 5181 OM OM1 5181 -0.550000 15.99940
5182 OM 5182 OM OM1 5182 -0.550000 15.99940
5183 OM 5183 OM OM1 5183 -0.550000 15.99940
5184 OM 5184 OM OM1 5184 -0.550000 15.99940
5185 OM 5185 OM OM1 5185 -0.550000 15.99940
5186 OM 5186 OM OM1 5186 -0.550000 15.99940
5187 OM 5187 OM OM1 5187 -0.550000 15.99940
5188 OM 5188 OM OM1 5188 -0.550000 15.99940
5189 OM 5189 OM OM1 5189 -0.550000 15.99940
5190 OM 5190 OM OM1 5190 -0.550000 15.99940
5191 OM 5191 OM OM1 5191 -0.550000 15.99940
5192 OM 5192 OM OM1 5192 -0.550000 15.99940
5193 OM 5193 OM OM1 5193 -0.550000 15.99940
5194 OM 5194 OM OM1 5194 -0.550000 15.99940
5195 OM 5195 OM OM1 5195 -0.550000 15.99940
5196 OM 5196 OM OM1 5196 -0.550000 15.99940
5197 OM 5197 OM OM1 5197 -0.550000 15.99940
5198 OM 5198 OM OM1 5198 -0.550000 15.99940
5199 OM 5199 OM OM1 5199 -0.550000 15.99940
5200 OM 5200 OM OM1 5200 -0.550000 15.99940
5201 OM 5201 OM OM1 5201 -0.550000 15.99940
5202 OM 5202 OM OM1 5202 -0.550000 15.99940
5203 OM 5203 OM OM1 5203 -0.550000 15.99940
5204 OM 5204 OM OM1 5204 -0.550000 15.99940
5205 OM 5205 OM OM1 5205 -0.550000 15.99940
5206 OM 5206 OM OM1 5206 -0.550000 15.99940
5207 OM 5207 OM OM1 5207 -0.550000 15.99940
5208 OM 5208 OM OM1 5208 -0.550000 15.99940
5209 OM 5209 OM OM1 5209 -0.550000 15.99940
5210 OM 5210 OM OM1 5210 -0.550000 15.99940
5211 OM 5211 OM OM1 5211 -0.550000 15.99940
5212 OM 5212 OM OM1 5212 -0.550000 15.99940
5213 OM 5213 OM OM1 5213 -0.550000 15.99940
5214 OM 5214 OM OM1 5214 -0.550000 15.99940
5215 OM 5215 OM OM1 5215 -0.550000 15.99940
5216 OM 5216 OM OM1 5216 -0.550000 15.99940
5217 OM 5217 OM OM1 5217 -0.550000 15.99940
5218 OM 5218 OM OM1 5218 -0.550000 15.99940
5219 OM 5219 OM OM1 5219 -0.550000 15.99940
5220 OM 5220 OM OM1 5220 -0.550000 15.99940
5221 OM 5221 OM OM1 5221 -0.550000 15.99940
5222 OM 5222 OM OM1 5222 -0.550000 15.99940
5223 OM 5223 OM OM1 5223 -0.550000 15.99940
5224 OM 5224 OM OM1 5224 -0.550000 15.99940
5225 OM 5225 OM OM1 5225 -0.550000 15.99940
5226 OM 5226 OM OM1 5226 -0.550000 15.99940
5227 OM 5227 OM OM1 5227 -0.550000 15.99940
5228 OM 5228 OM OM1 5228 -0.550000 15.99940
5229 OM 5229 OM OM1 5229 -0.550000 15.99940
5230 OM 5230 OM OM1 5230 -0.550000 15.99940
5231 OM 5231 OM OM1 5231 -0.550000 15.99940
5232 OM 5232 OM OM1 5232 -0.550000 15.99940
5233 OM 5233 OM OM1 5233 -0.550000 15.99940
5234 OM 5234 OM OM1 5234 -0.550000 15.99940
5235 OM 5235 OM OM1 5235 -0.550000 15.99940
5236 OM 5236 OM OM1 5236 -0.550000 15.99940
5237 OM 5237 OM OM1 5237 -0.550000 15.99940
5238 OM 5238 OM OM1 5238 -0.550000 15.99940
5239 OM 5239 OM OM1 5239 -0.550000 15.99940
5240 OM 5240 OM OM1 5240 -0.550000 15.99940
5241 OM 5241 OM OM1 5241 -0.550000 15.99940
5242 OM 5242 OM OM1 5242 -0.550000 15.99940
5243 OM 5243 OM OM1 5243 -0.550000 15.99940
5244 OM 5244 OM OM1 5244 -0.550000 15.99940
5245 OM 5245 OM OM1 5245 -0.550000 15.99940
5246 OM 5246 OM OM1 5246 -0.550000 15.99940
5247 OM 5247 OM OM1 5247 -0.550000 15.99940
5248 OM 5248 OM OM1 5248 -0.550000 15.99940
5249 OM 5249 OM OM1 5249 -0.550000 15.99940
5250 OM 5250 OM OM1 5250 -0.550000 15.99940
5251 OM 5251 OM OM1 5251 -0.550000 15.99940
5252 OM 5252 OM OM1 5252 -0.550000 15.99940
5253 OM 5253 OM OM1 5253 -0.550000 15.99940
5254 OM 5254 OM OM1 5254 -0.550000 15.99940
5255 OM 5255 OM OM1 5255 -0.550000 15.99940
5256 OM 5256 OM OM1 5256 -0.550000 15.99940
5257 OM 5257 OM OM1 5257 -0.550000 15.99940
5258 OM 5258 OM OM1 5258 -0.550000 15.99940
5259 OM 5259 OM OM1 5259 -0.550000 15.99940
5260 OM 5260 OM OM1 5260 -0.550000 15.99940
5261 OM 5261 OM OM1 5261 -0.550000 15.99940
5262 OM 5262 OM OM1 5262 -0.550000 15.99940
5263 OM 5263 OM OM1 5263 -0.550000 15.99940
5264 OM 5264 OM OM1 5264 -0.550000 15.99940
5265 OM 5265 OM OM1 5265 -0.550000 15.99940
5266 OM 5266 OM OM1 5266 -0.550000 15.99940
5267 OM 5267 OM OM1 5267 -0.550000 15.99940
5268 OM 5268 OM OM1 5268 -0.550000 15.99940
5269 OM 5269 OM OM1 5269 -0.550000 15.99940
5270 OM 5270 OM OM1 5270 -0.550000 15.99940
5271 OM 5271 OM OM1 5271 -0.550000 15.99940
5272 OM 5272 OM OM1 5272 -0.550000 15.99940
5273 OM 5273 OM OM1 5273 -0.550000 15.99940
5274 OM 5274 OM OM1 5274 -0.550000 15.99940
5275 OM 5275 OM OM1 5275 -0.550000 15.99940
5276 OM 5276 OM OM1 5276 -0.550000 15.99940
5277 OM 5277 OM OM1 5277 -0.550000 15.99940
5278 OM 5278 OM OM1 5278 -0.550000 15.99940
5279 OM 5279 OM OM1 5279 -0.550000 15.99940
5280 OM 5280 OM OM1 5280 -0.550000 15.99940
5281 OM 5281 OM OM1 5281 -0.550000 15.99940
5282 OM 5282 OM OM1 5282 -0.550000 15.99940
5283 OM 5283 OM OM1 5283 -0.550000 15.99940
5284 OM 5284 OM OM1 5284 -0.550000 15.99940
5285 OM 5285 OM OM1 5285 -0.550000 15.99940
5286 OM 5286 OM OM1 5286 -0.550000 15.99940
5287 OM 5287 OM OM1 5287 -0.550000 15.99940
5288 OM 5288 OM OM1 5288 -0.550000 15.99940
5289 OM 5289 OM OM1 5289 -0.550000 15.99940
5290 OM 5290 OM OM1 5290 -0.550000 15.99940
5291 OM 5291 OM OM1 5291 -0.550000 15.99940
5292 OM 5292 OM OM1 5292 -0.550000 15.99940
5293 OM 5293 OM OM1 5293 -0.550000 15.99940
5294 OM 5294 OM OM1 5294 -0.550000 15.99940
5295 OM 5295 OM OM1 5295 -0.550000 15.99940
5296 OM 5296 OM OM1 5296 -0.550000 15.99940
5297 OM 5297 OM OM1 5297 -0.550000 15.99940
5298 OM 5298 OM OM1 5298 -0.550000 15.99940
5299 OM 5299 OM OM1 5299 -0.550000 15.99940
5300 OM 5300 OM OM1 5300 -0.550000 15.99940
5301 OM 5301 OM OM1 5301 -0.550000 15.99940
5302 OM 5302 OM OM1 5302 -0.550000 15.99940
5303 OM 5303 OM OM1 5303 -0.550000 15.99940
5304 OM 5304 OM OM1 5304 -0.550000 15.99940
5305 OM 5305 OM OM1 5305 -0.550000 15.99940
5306 OM 5306 OM OM1 5306 -0.550000 15.99940
5307 OM 5307 OM OM1 5307 -0.550000 15.99940
5308 OM 5308 OM OM1 5308 -0.550000 15.99940
5309 OM 5309 OM OM1 5309 -0.550000 15.99940
5310 OM 5310 OM OM1 5310 -0.550000 15.99940
5311 OM 5311 OM OM1 5311 -0.550000 15.99940
5312 OM 5312 OM OM1 5312 -0.550000 15.99940
5313 OM 5313 OM OM1 5313 -0.550000 15.99940
5314 OM 5314 OM OM1 5314 -0.550000 15.99940
5315 OM 5315 OM OM1 5315 -0.550000 15.99940
5316 OM 5316 OM OM1 5316 -0.550000 15.99940
5317 OM 5317 OM OM1 5317 -0.550000 15.99940
5318 OM 5318 OM OM1 5318 -0.550000 15.99940
5319 OM 5319 OM OM1 5319 -0.550000 15.99940
5320 OM 5320 OM OM1 5320 -0.550000 15.99940
5321 OM 5321 OM OM1 5321 -0.550000 15.99940
5322 OM 5322 OM OM1 5322 -0.550000 15.99940
5323 OM 5323 OM OM1 5323 -0.550000 15.99940
5324 OM 5324 OM OM1 5324 -0.550000 15.99940
5325 OM 5325 OM OM1 5325 -0.550000 15.99940
5326 OM 5326 OM OM1 5326 -0.550000 15.99940
5327 OM 5327 OM OM1 5327 -0.550000 15.99940
5328 OM 5328 OM OM1 5328 -0.550000 15.99940
5329 OM 5329 OM OM1 5329 -0.550000 15.99940
5330 OM 5330 OM OM1 5330 -0.550000 15.99940
5331 OM 5331 OM OM1 5331 -0.550000 15.99940
5332 OM 5332 OM OM1 5332 -0.550000 15.99940
5333 OM 5333 OM OM1 5333 -0.550000 15.99940
5334 OM 5334 OM OM1 5334 -0.550000 15.99940
5335 OM 5335 OM OM1 5335 -0.550000 15.99940
5336 OM 5336 OM OM1 5336 -0.550000 15.99940
5337 OM 5337 OM OM1 5337 -0.550000 15.99940
5338 OM 5338 OM OM1 5338 -0.550000 15.99940
5339 OM 5339 OM OM1 5339 -0.550000 15.99940
5340 OM 5340 OM OM1 5340 -0.550000 15.99940
5341 OM 5341 OM OM1 5341 -0.550000 15.99940
5342 OM 5342 OM OM1 5342 -0.550000 15.99940
5343 OM 5343 OM OM1 5343 -0.550000 15.99940
5344 OM 5344 OM OM1 5344 -0.550000 15.99940
5345 OM 5345 OM OM1 5345 -0.550000 15.99940
5346 OM 5346 OM OM1 5346 -0.550000 15.99940
5347 OM 5347 OM OM1 5347 -0.550000 15.99940
5348 OM 5348 OM OM1 5348 -0.550000 15.99940
5349 OM 5349 OM OM1 5349 -0.550000 15.99940
5350 OM 5350 OM OM1 5350 -0.550000 15.99940
5351 OM 5351 OM OM1 5351 -0.550000 15.99940
5352 OM 5352 OM OM1 5352 -0.550000 15.99940
5353 OM 5353 OM OM1 5353 -0.550000 15.99940
5354 OM 5354 OM OM1 5354 -0.550000 15.99940
5355 OM 5355 OM OM1 5355 -0.550000 15.99940
5356 OM 5356 OM OM1 5356 -0.550000 15.99940
5357 OM 5357 OM OM1 5357 -0.550000 15.99940
5358 OM 5358 OM OM1 5358 -0.550000 15.99940
5359 OM 5359 OM OM1 5359 -0.550000 15.99940
5360 OM 5360 OM OM1 5360 -0.550000 15.99940
5361 OM 5361 OM OM1 5361 -0.550000 15.99940
5362 OM 5362 OM OM1 5362 -0.550000 15.99940
5363 OM 5363 OM OM1 5363 -0.550000 15.99940
5364 OM 5364 OM OM1 5364 -0.550000 15.99940
5365 OM 5365 OM OM1 5365 -0.550000 15.99940
5366 OM 5366 OM OM1 5366 -0.550000 15.99940
5367 OM 5367 OM OM1 5367 -0.550000 15.99940
5368 OM 5368 OM OM1 5368 -0.550000 15.99940
5369 OM 5369 OM OM1 5369 -0.550000 15.99940
5370 OM 5370 OM OM1 5370 -0.550000 15.99940
5371 OM 5371 OM OM1 5371 -0.550000 15.99940
5372 OM 5372 OM OM1 5372 -0.550000 15.99940
5373 OM 5373 OM OM1 5373 -0.550000 15.99940
5374 OM 5374 OM OM1 5374 -0.550000 15.99940
5375 OM 5375 OM OM1 5375 -0.550000 15.99940
5376 OM 5376 OM OM1 5376 -0.550000 15.99940
5377 OM 5377 OM OM1 5377 -0.550000 15.99940
5378 OM 5378 OM OM1 5378 -0.550000 15.99940
5379 OM 5379 OM OM1 5379 -0.550000 15.99940
5380 OM 5380 OM OM1 5380 -0.550000 15.99940
5381 OM 5381 OM OM1 5381 -0.550000 15.99940
5382 OM 5382 OM OM1 5382 -0.550000 15.99940
5383 OM 5383 OM OM1 5383 -0.550000 15.99940
5384 OM 5384 OM OM1 5384 -0.550000 15.99940
5385 OM 5385 OM OM1 5385 -0.550000 15.99940
5386 OM 5386 OM OM1 5386 -0.550000 15.99940
5387 OM 5387 OM OM1 5387 -0.550000 15.99940
5388 OM 5388 OM OM1 5388 -0.550000 15.99940
5389 OM 5389 OM OM1 5389 -0.550000 15.99940
5390 OM 5390 OM OM1 5390 -0.550000 15.99940
5391 OM 5391 OM OM1 5391 -0.550000 15.99940
5392 OM 5392 OM OM1 5392 -0.550000 15.99940
5393 OM 5393 OM OM1 5393 -0.550000 15.99940
5394 OM 5394 OM OM1 5394 -0.550000 15.99940
5395 OM 5395 OM OM1 5395 -0.550000 15.99940
5396 OM 5396 OM OM1 5396 -0.550000 15.99940
5397 OM 5397 OM OM1 5397 -0.550000 15.99940
5398 OM 5398 OM OM1 5398 -0.550000 15.99940
5399 OM 5399 OM OM1 5399 -0.550000 15.99940
5400 OM 5400 OM OM1 5400 -0.550000 15.99940
5401 OM 5401 OM OM1 5401 -0.550000 15.99940
5402 OM 5402 OM OM1 5402 -0.550000 15.99940
5403 OM 5403 OM OM1 5403 -0.550000 15.99940
5404 OM 5404 OM OM1 5404 -0.550000 15.99940
5405 OM 5405 OM OM1 5405 -0.550000 15.99940
5406 OM 5406 OM OM1 5406 -0.550000 15.99940
5407 OM 5407 OM OM1 5407 -0.550000 15.99940
5408 OM 5408 OM OM1 5408 -0.550000 15.99940
5409 OM 5409 OM OM1 5409 -0.550000 15.99940
5410 OM 5410 OM OM1 5410 -0.550000 15.99940
5411 OM 5411 OM OM1 5411 -0.550000 15.99940
5412 OM 5412 OM OM1 5412 -0.550000 15.99940
5413 OM 5413 OM OM1 5413 -0.550000 15.99940
5414 OM 5414 OM OM1 5414 -0.550000 15.99940
5415 OM 5415 OM OM1 5415 -0.550000 15.99940
5416 OM 5416 OM OM1 5416 -0.550000 15.99940
5417 OM 5417 OM OM1 5417 -0.550000 15.99940
5418 OM 5418 OM OM1 5418 -0.550000 15.99940
5419 OM 5419 OM OM1 5419 -0.550000 15.99940
5420 OM 5420 OM OM1 5420 -0.550000 15.99940
5421 OM 5421 OM OM1 5421 -0.550000 15.99940
5422 OM 5422 OM OM1 5422 -0.550000 15.99940
5423 OM 5423 OM OM1 5423 -0.550000 15.99940
5424 OM 5424 OM OM1 5424 -0.550000 15.99940
5425 OM 5425 OM OM1 5425 -0.550000 15.99940
5426 OM 5426 OM OM1 5426 -0.550000 15.99940
5427 OM 5427 OM OM1 5427 -0.550000 15.99940
5428 OM 5428 OM OM1 5428 -0.550000 15.99940
5429 OM 5429 OM OM1 5429 -0.550000 15.99940
5430 OM 5430 OM OM1 5430 -0.550000 15.99940
5431 OM 5431 OM OM1 5431 -0.550000 15.99940
5432 OM 5432 OM OM1 5432 -0.550000 15.99940
5433 OM 5433 OM OM1 5433 -0.550000 15.99940
5434 OM 5434 OM OM1 5434 -0.550000 15.99940
5435 OM 5435 OM OM1 5435 -0.550000 15.99940
5436 OM 5436 OM OM1 5436 -0.550000 15.99940
5437 OM 5437 OM OM1 5437 -0.550000 15.99940
5438 OM 5438 OM OM1 5438 -0.550000 15.99940
5439 OM 5439 OM OM1 5439 -0.550000 15.99940
5440 OM 5440 OM OM1 5440 -0.550000 15.99940
5441 OM 5441 OM OM1 5441 -0.550000 15.99940
5442 OM 5442 OM OM1 5442 -0.550000 15.99940
5443 OM 5443 OM OM1 5443 -0.550000 15.99940
5444 OM 5444 OM OM1 5444 -0.550000 15.99940
5445 OM 5445 OM OM1 5445 -0.550000 15.99940
5446 OM 5446 OM OM1 5446 -0.550000 15.99940
5447 OM 5447 OM OM1 5447 -0.550000 15.99940
5448 OM 5448 OM OM1 5448 -0.550000 15.99940
5449 OM 5449 OM OM1 5449 -0.550000 15.99940
5450 OM 5450 OM OM1 5450 -0.550000 15.99940
5451 OM 5451 OM OM1 5451 -0.550000 15.99940
5452 OM 5452 OM OM1 5452 -0.550000 15.99940
5453 OM 5453 OM OM1 5453 -0.550000 15.99940
5454 OM 5454 OM OM1 5454 -0.550000 15.99940
5455 OM 5455 OM OM1 5455 -0.550000 15.99940
5456 OM 5456 OM OM1 5456 -0.550000 15.99940
5457 OM 5457 OM OM1 5457 -0.550000 15.99940
5458 OM 5458 OM OM1 5458 -0.550000 15.99940
5459 OM 5459 OM OM1 5459 -0.550000 15.99940
5460 OM 5460 OM OM1 5460 -0.550000 15.99940
5461 OM 5461 OM OM1 5461 -0.550000 15.99940
5462 OM 5462 OM OM1 5462 -0.550000 15.99940
5463 OM 5463 OM OM1 5463 -0.550000 15.99940
5464 OM 5464 OM OM1 5464 -0.550000 15.99940
5465 OM 5465 OM OM1 5465 -0.550000 15.99940
5466 OM 5466 OM OM1 5466 -0.550000 15.99940
5467 OM 5467 OM OM1 5467 -0.550000 15.99940
5468 OM 5468 OM OM1 5468 -0.550000 15.99940
5469 OM 5469 OM OM1 5469 -0.550000 15.99940
5470 OM 5470 OM OM1 5470 -0.550000 15.99940
5471 OM 5471 OM OM1 5471 -0.550000 15.99940
5472 OM 5472 OM OM1 5472 -0.550000 15.99940
5473 OM 5473 OM OM1 5473 -0.550000 15.99940
5474 OM 5474 OM OM1 5474 -0.550000 15.99940
5475 OM 5475 OM OM1 5475 -0.550000 15.99940
5476 OM 5476 OM OM1 5476 -0.550000 15.99940
5477 OM 5477 OM OM1 5477 -0.550000 15.99940
5478 OM 5478 OM OM1 5478 -0.550000 15.99940
5479 OM 5479 OM OM1 5479 -0.550000 15.99940
5480 OM 5480 OM OM1 5480 -0.550000 15.99940
5481 OM 5481 OM OM1 5481 -0.550000 15.99940
5482 OM 5482 OM OM1 5482 -0.550000 15.99940
5483 OM 5483 OM OM1 5483 -0.550000 15.99940
5484 OM 5484 OM OM1 5484 -0.550000 15.99940
5485 OM 5485 OM OM1 5485 -0.550000 15.99940
5486 OM 5486 OM OM1 5486 -0.550000 15.99940
5487 OM 5487 OM OM1 5487 -0.550000 15.99940
5488 OM 5488 OM OM1 5488 -0.550000 15.99940
5489 OM 5489 OM OM1 5489 -0.550000 15.99940
5490 OM 5490 OM OM1 5490 -0.550000 15.99940
5491 OM 5491 OM OM1 5491 -0.550000 15.99940
5492 OM 5492 OM OM1 5492 -0.550000 15.99940
5493 OM 5493 OM OM1 5493 -0.550000 15.99940
5494 OM 5494 OM OM1 5494 -0.550000 15.99940
5495 OM 5495 OM OM1 5495 -0.550000 15.99940
5496 OM 5496 OM OM1 5496 -0.550000 15.99940
5497 OM 5497 OM OM1 5497 -0.550000 15.99940
5498 OM 5498 OM OM1 5498 -0.550000 15.99940
5499 OM 5499 OM OM1 5499 -0.550000 15.99940
5500 OM 5500 OM OM1 5500 -0.550000 15.99940
5501 OM 5501 OM OM1 5501 -0.550000 15.99940
5502 OM 5502 OM OM1 5502 -0.550000 15.99940
5503 OM 5503 OM OM1 5503 -0.550000 15.99940
5504 OM 5504 OM OM1 5504 -0.550000 15.99940
5505 OM 5505 OM OM1 5505 -0.550000 15.99940
5506 OM 5506 OM OM1 5506 -0.550000 15.99940
5507 OM 5507 OM OM1 5507 -0.550000 15.99940
5508 OM 5508 OM OM1 5508 -0.550000 15.99940
5509 OM 5509 OM OM1 5509 -0.550000 15.99940
5510 OM 5510 OM OM1 5510 -0.550000 15.99940
5511 OM 5511 OM OM1 5511 -0.550000 15.99940
5512 OM 5512 OM OM1 5512 -0.550000 15.99940
5513 OM 5513 OM OM1 5513 -0.550000 15.99940
5514 OM 5514 OM OM1 5514 -0.550000 15.99940
5515 OM 5515 OM OM1 5515 -0.550000 15.99940
5516 OM 5516 OM OM1 5516 -0.550000 15.99940
5517 OM 5517 OM OM1 5517 -0.550000 15.99940
5518 OM 5518 OM OM1 5518 -0.550000 15.99940
5519 OM 5519 OM OM1 5519 -0.550000 15.99940
5520 OM 5520 OM OM1 5520 -0.550000 15.99940
5521 OM 5521 OM OM1 5521 -0.550000 15.99940
5522 OM 5522 OM OM1 5522 -0.550000 15.99940
5523 OM 5523 OM OM1 5523 -0.550000 15.99940
5524 OM 5524 OM OM1 5524 -0.550000 15.99940
5525 OM 5525 OM OM1 5525 -0.550000 15.99940
5526 OM 5526 OM OM1 5526 -0.550000 15.99940
5527 OM 5527 OM OM1 5527 -0.550000 15.99940
5528 OM 5528 OM OM1 5528 -0.550000 15.99940
5529 OM 5529 OM OM1 5529 -0.550000 15.99940
5530 OM 5530 OM OM1 5530 -0.550000 15.99940
5531 OM 5531 OM OM1 5531 -0.550000 15.99940
5532 OM 5532 OM OM1 5532 -0.550000 15.99940
5533 OM 5533 OM OM1 5533 -0.550000 15.99940
5534 OM 5534 OM OM1 5534 -0.550000 15.99940
5535 OM 5535 OM OM1 5535 -0.550000 15.99940
5536 OM 5536 OM OM1 5536 -0.550000 15.99940
5537 OM 5537 OM OM1 5537 -0.550000 15.99940
5538 OM 5538 OM OM1 5538 -0.550000 15.99940
5539 OM 5539 OM OM1 5539 -0.550000 15.99940
5540 OM 5540 OM OM1 5540 -0.550000 15.99940
5541 OM 5541 OM OM1 5541 -0.550000 15.99940
5542 OM 5542 OM OM1 5542 -0.550000 15.99940
5543 OM 5543 OM OM1 5543 -0.550000 15.99940
5544 OM 5544 OM OM1 5544 -0.550000 15.99940
5545 OM 5545 OM OM1 5545 -0.550000 15.99940
5546 OM 5546 OM OM1 5546 -0.550000 15.99940
5547 OM 5547 OM OM1 5547 -0.550000 15.99940
5548 OM 5548 OM OM1 5548 -0.550000 15.99940
5549 OM 5549 OM OM1 5549 -0.550000 15.99940
5550 OM 5550 OM OM1 5550 -0.550000 15.99940
5551 OM 5551 OM OM1 5551 -0.550000 15.99940
5552 OM 5552 OM OM1 5552 -0.550000 15.99940
5553 OM 5553 OM OM1 5553 -0.550000 15.99940
5554 OM 5554 OM OM1 5554 -0.550000 15.99940
5555 OM 5555 OM OM1 5555 -0.550000 15.99940
5556 OM 5556 OM OM1 5556 -0.550000 15.99940
5557 OM 5557 OM OM1 5557 -0.550000 15.99940
5558 OM 5558 OM OM1 5558 -0.550000 15.99940
5559 OM 5559 OM OM1 5559 -0.550000 15.99940
5560 OM 5560 OM OM1 5560 -0.550000 15.99940
5561 OM 5561 OM OM1 5561 -0.550000 15.99940
5562 OM 5562 OM OM1 5562 -0.550000 15.99940
5563 OM 5563 OM OM1 5563 -0.550000 15.99940
5564 OM 5564 OM OM1 5564 -0.550000 15.99940
5565 OM 5565 OM OM1 5565 -0.550000 15.99940
5566 OM 5566 OM OM1 5566 -0.550000 15.99940
5567 OM 5567 OM OM1 5567 -0.550000 15.99940
5568 OM 5568 OM OM1 5568 -0.550000 15.99940
5569 OM 5569 OM OM1 5569 -0.550000 15.99940
5570 OM 5570 OM OM1 5570 -0.550000 15.99940
5571 OM 5571 OM OM1 5571 -0.550000 15.99940
5572 OM 5572 OM OM1 5572 -0.550000 15.99940
5573 OM 5573 OM OM1 5573 -0.550000 15.99940
5574 OM 5574 OM OM1 5574 -0.550000 15.99940
5575 OM 5575 OM OM1 5575 -0.550000 15.99940
5576 OM 5576 OM OM1 5576 -0.550000 15.99940
5577 OM 5577 OM OM1 5577 -0.550000 15.99940
5578 OM 5578 OM OM1 5578 -0.550000 15.99940
5579 OM 5579 OM OM1 5579 -0.550000 15.99940
5580 OM 5580 OM OM1 5580 -0.550000 15.99940
5581 OM 5581 OM OM1 5581 -0.550000 15.99940
5582 OM 5582 OM OM1 5582 -0.550000 15.99940
5583 OM 5583 OM OM1 5583 -0.550000 15.99940
5584 OM 5584 OM OM1 5584 -0.550000 15.99940
5585 OM 5585 OM OM1 5585 -0.550000 15.99940
5586 OM 5586 OM OM1 5586 -0.550000 15.99940
5587 OM 5587 OM OM1 5587 -0.550000 15.99940
5588 OM 5588 OM OM1 5588 -0.550000 15.99940
5589 OM 5589 OM OM1 5589 -0.550000 15.99940
5590 OM 5590 OM OM1 5590 -0.550000 15.99940
5591 OM 5591 OM OM1 5591 -0.550000 15.99940
5592 OM 5592 OM OM1 5592 -0.550000 15.99940
5593 OM 5593 OM OM1 5593 -0.550000 15.99940
5594 OM 5594 OM OM1 5594 -0.550000 15.99940
5595 OM 5595 OM OM1 5595 -0.550000 15.99940
5596 OM 5596 OM OM1 5596 -0.550000 15.99940
5597 OM 5597 OM OM1 5597 -0.550000 15.99940
5598 OM 5598 OM OM1 5598 -0.550000 15.99940
5599 OM 5599 OM OM1 5599 -0.550000 15.99940
5600 OM 5600 OM OM1 5600 -0.550000 15.99940
5601 OM 5601 OM OM1 5601 -0.550000 15.99940
5602 OM 5602 OM OM1 5602 -0.550000 15.99940
5603 OM 5603 OM OM1 5603 -0.550000 15.99940
5604 OM 5604 OM OM1 5604 -0.550000 15.99940
5605 OM 5605 OM OM1 5605 -0.550000 15.99940
5606 OM 5606 OM OM1 5606 -0.550000 15.99940
5607 OM 5607 OM OM1 5607 -0.550000 15.99940
5608 OM 5608 OM OM1 5608 -0.550000 15.99940
5609 OM 5609 OM OM1 5609 -0.550000 15.99940
5610 OM 5610 OM OM1 5610 -0.550000 15.99940
5611 OM 5611 OM OM1 5611 -0.550000 15.99940
5612 OM 5612 OM OM1 5612 -0.550000 15.99940
5613 OM 5613 OM OM1 5613 -0.550000 15.99940
5614 OM 5614 OM OM1 5614 -0.550000 15.99940
5615 OM 5615 OM OM1 5615 -0.550000 15.99940
5616 OM 5616 OM OM1 5616 -0.550000 15.99940
5617 OM 5617 OM OM1 5617 -0.550000 15.99940
5618 OM 5618 OM OM1 5618 -0.550000 15.99940
5619 OM 5619 OM OM1 5619 -0.550000 15.99940
5620 OM 5620 OM OM1 5620 -0.550000 15.99940
5621 OM 5621 OM OM1 5621 -0.550000 15.99940
5622 OM 5622 OM OM1 5622 -0.550000 15.99940
5623 OM 5623 OM OM1 5623 -0.550000 15.99940
5624 OM 5624 OM OM1 5624 -0.550000 15.99940
5625 OM 5625 OM OM1 5625 -0.550000 15.99940
5626 OM 5626 OM OM1 5626 -0.550000 15.99940
5627 OM 5627 OM OM1 5627 -0.550000 15.99940
5628 OM 5628 OM OM1 5628 -0.550000 15.99940
5629 OM 5629 OM OM1 5629 -0.550000 15.99940
5630 OM 5630 OM OM1 5630 -0.550000 15.99940
5631 OM 5631 OM OM1 5631 -0.550000 15.99940
5632 OM 5632 OM OM1 5632 -0.550000 15.99940
5633 OM 5633 OM OM1 5633 -0.550000 15.99940
5634 OM 5634 OM OM1 5634 -0.550000 15.99940
5635 OM 5635 OM OM1 5635 -0.550000 15.99940
5636 OM 5636 OM OM1 5636 -0.550000 15.99940
5637 OM 5637 OM OM1 5637 -0.550000 15.99940
5638 OM 5638 OM OM1 5638 -0.550000 15.99940
5639 OM 5639 OM OM1 5639 -0.550000 15.99940
5640 OM 5640 OM OM1 5640 -0.550000 15.99940
5641 OM 5641 OM OM1 5641 -0.550000 15.99940
5642 OM 5642 OM OM1 5642 -0.550000 15.99940
5643 OM 5643 OM OM1 5643 -0.550000 15.99940
5644 OM 5644 OM OM1 5644 -0.550000 15.99940
5645 OM 5645 OM OM1 5645 -0.550000 15.99940
5646 OM 5646 OM OM1 5646 -0.550000 15.99940
5647 OM 5647 OM OM1 5647 -0.550000 15.99940
5648 OM 5648 OM OM1 5648 -0.550000 15.99940
5649 OM 5649 OM OM1 5649 -0.550000 15.99940
5650 OM 5650 OM OM1 5650 -0.550000 15.99940
5651 OM 5651 OM OM1 5651 -0.550000 15.99940
5652 OM 5652 OM OM1 5652 -0.550000 15.99940
5653 OM 5653 OM OM1 5653 -0.550000 15.99940
5654 OM 5654 OM OM1 5654 -0.550000 15.99940
5655 OM 5655 OM OM1 5655 -0.550000 15.99940
5656 OM 5656 OM OM1 5656 -0.550000 15.99940
5657 OM 5657 OM OM1 5657 -0.550000 15.99940
5658 OM 5658 OM OM1 5658 -0.550000 15.99940
5659 OM 5659 OM OM1 5659 -0.550000 15.99940
5660 OM 5660 OM OM1 5660 -0.550000 15.99940
5661 OM 5661 OM OM1 5661 -0.550000 15.99940
5662 OM 5662 OM OM1 5662 -0.550000 15.99940
5663 OM 5663 OM OM1 5663 -0.550000 15.99940
5664 OM 5664 OM OM1 5664 -0.550000 15.99940
5665 OM 5665 OM OM1 5665 -0.550000 15.99940
5666 OM 5666 OM OM1 5666 -0.550000 15.99940
5667 OM 5667 OM OM1 5667 -0.550000 15.99940
5668 OM 5668 OM OM1 5668 -0.550000 15.99940
5669 OM 5669 OM OM1 5669 -0.550000 15.99940
5670 OM 5670 OM OM1 5670 -0.550000 15.99940
5671 OM 5671 OM OM1 5671 -0.550000 15.99940
5672 OM 5672 OM OM1 5672 -0.550000 15.99940
5673 OM 5673 OM OM1 5673 -0.550000 15.99940
5674 OM 5674 OM OM1 5674 -0.550000 15.99940
5675 OM 5675 OM OM1 5675 -0.550000 15.99940
5676 OM 5676 OM OM1 5676 -0.550000 15.99940
5677 OM 5677 OM OM1 5677 -0.550000 15.99940
5678 OM 5678 OM OM1 5678 -0.550000 15.99940
5679 OM 5679 OM OM1 5679 -0.550000 15.99940
5680 OM 5680 OM OM1 5680 -0.550000 15.99940
5681 OM 5681 OM OM1 5681 -0.550000 15.99940
5682 OM 5682 OM OM1 5682 -0.550000 15.99940
5683 OM 5683 OM OM1 5683 -0.550000 15.99940
5684 OM 5684 OM OM1 5684 -0.550000 15.99940
5685 OM 5685 OM OM1 5685 -0.550000 15.99940
5686 OM 5686 OM OM1 5686 -0.550000 15.99940
5687 OM 5687 OM OM1 5687 -0.550000 15.99940
5688 OM 5688 OM OM1 5688 -0.550000 15.99940
5689 OM 5689 OM OM1 5689 -0.550000 15.99940
5690 OM 5690 OM OM1 5690 -0.550000 15.99940
5691 OM 5691 OM OM1 5691 -0.550000 15.99940
5692 OM 5692 OM OM1 5692 -0.550000 15.99940
5693 OM 5693 OM OM1 5693 -0.550000 15.99940
5694 OM 5694 OM OM1 5694 -0.550000 15.99940
5695 OM 5695 OM OM1 5695 -0.550000 15.99940
5696 OM 5696 OM OM1 5696 -0.550000 15.99940
5697 OM 5697 OM OM1 5697 -0.550000 15.99940
5698 OM 5698 OM OM1 5698 -0.550000 15.99940
5699 OM 5699 OM OM1 5699 -0.550000 15.99940
5700 OM 5700 OM OM1 5700 -0.550000 15.99940
5701 OM 5701 OM OM1 5701 -0.550000 15.99940
5702 OM 5702 OM OM1 5702 -0.550000 15.99940
5703 OM 5703 OM OM1 5703 -0.550000 15.99940
5704 OM 5704 OM OM1 5704 -0.550000 15.99940
5705 OM 5705 OM OM1 5705 -0.550000 15.99940
5706 OM 5706 OM OM1 5706 -0.550000 15.99940
5707 OM 5707 OM OM1 5707 -0.550000 15.99940
5708 OM 5708 OM OM1 5708 -0.550000 15.99940
5709 OM 5709 OM OM1 5709 -0.550000 15.99940
5710 OM 5710 OM OM1 5710 -0.550000 15.99940
5711 OM 5711 OM OM1 5711 -0.550000 15.99940
5712 OM 5712 OM OM1 5712 -0.550000 15.99940
5713 OM 5713 OM OM1 5713 -0.550000 15.99940
5714 OM 5714 OM OM1 5714 -0.550000 15.99940
5715 OM 5715 OM OM1 5715 -0.550000 15.99940
5716 OM 5716 OM OM1 5716 -0.550000 15.99940
5717 OM 5717 OM OM1 5717 -0.550000 15.99940
5718 OM 5718 OM OM1 5718 -0.550000 15.99940
5719 OM 5719 OM OM1 5719 -0.550000 15.99940
5720 OM 5720 OM OM1 5720 -0.550000 15.99940
5721 OM 5721 OM OM1 5721 -0.550000 15.99940
5722 OM 5722 OM OM1 5722 -0.550000 15.99940
5723 OM 5723 OM OM1 5723 -0.550000 15.99940
5724 OM 5724 OM OM1 5724 -0.550000 15.99940
5725 OM 5725 OM OM1 5725 -0.550000 15.99940
5726 OM 5726 OM OM1 5726 -0.550000 15.99940
5727 OM 5727 OM OM1 5727 -0.550000 15.99940
5728 OM 5728 OM OM1 5728 -0.550000 15.99940
5729 OM 5729 OM OM1 5729 -0.550000 15.99940
5730 OM 5730 OM OM1 5730 -0.550000 15.99940
5731 OM 5731 OM OM1 5731 -0.550000 15.99940
5732 OM 5732 OM OM1 5732 -0.550000 15.99940
5733 OM 5733 OM OM1 5733 -0.550000 15.99940
5734 OM 5734 OM OM1 5734 -0.550000 15.99940
5735 OM 5735 OM OM1 5735 -0.550000 15.99940
5736 OM 5736 OM OM1 5736 -0.550000 15.99940
5737 OM 5737 OM OM1 5737 -0.550000 15.99940
5738 OM 5738 OM OM1 5738 -0.550000 15.99940
5739 OM 5739 OM OM1 5739 -0.550000 15.99940
5740 OM 5740 OM OM1 5740 -0.550000 15.99940
5741 OM 5741 OM OM1 5741 -0.550000 15.99940
5742 OM 5742 OM OM1 5742 -0.550000 15.99940
5743 OM 5743 OM OM1 5743 -0.550000 15.99940
5744 OM 5744 OM OM1 5744 -0.550000 15.99940
5745 OM 5745 OM OM1 5745 -0.550000 15.99940
5746 OM 5746 OM OM1 5746 -0.550000 15.99940
5747 OM 5747 OM OM1 5747 -0.550000 15.99940
5748 OM 5748 OM OM1 5748 -0.550000 15.99940
5749 OM 5749 OM OM1 5749 -0.550000 15.99940
5750 OM 5750 OM OM1 5750 -0.550000 15.99940
5751 OM 5751 OM OM1 5751 -0.550000 15.99940
5752 OM 5752 OM OM1 5752 -0.550000 15.99940
5753 OM 5753 OM OM1 5753 -0.550000 15.99940
5754 OM 5754 OM OM1 5754 -0.550000 15.99940
5755 OM 5755 OM OM1 5755 -0.550000 15.99940
5756 OM 5756 OM OM1 5756 -0.550000 15.99940
5757 OM 5757 OM OM1 5757 -0.550000 15.99940
5758 OM 5758 OM OM1 5758 -0.550000 15.99940
5759 OM 5759 OM OM1 5759 -0.550000 15.99940
5760 OM 5760 OM OM1 5760 -0.550000 15.99940
5761 OM 5761 OM OM1 5761 -0.550000 15.99940
5762 OM 5762 OM OM1 5762 -0.550000 15.99940
5763 OM 5763 OM OM1 5763 -0.550000 15.99940
5764 OM 5764 OM OM1 5764 -0.550000 15.99940
5765 OM 5765 OM OM1 5765 -0.550000 15.99940
5766 OM 5766 OM OM1 5766 -0.550000 15.99940
5767 OM 5767 OM OM1 5767 -0.550000 15.99940
5768 OM 5768 OM OM1 5768 -0.550000 15.99940
5769 OM 5769 OM OM1 5769 -0.550000 15.99940
5770 OM 5770 OM OM1 5770 -0.550000 15.99940
5771 OM 5771 OM OM1 5771 -0.550000 15.99940
5772 OM 5772 OM OM1 5772 -0.550000 15.99940
5773 OM 5773 OM OM1 5773 -0.550000 15.99940
5774 OM 5774 OM OM1 5774 -0.550000 15.99940
5775 OM 5775 OM OM1 5775 -0.550000 15.99940
5776 OM 5776 OM OM1 5776 -0.550000 15.99940
5777 OM 5777 OM OM1 5777 -0.550000 15.99940
5778 OM 5778 OM OM1 5778 -0.550000 15.99940
5779 OM 5779 OM OM1 5779 -0.550000 15.99940
5780 OM 5780 OM OM1 5780 -0.550000 15.99940
5781 OM 5781 OM OM1 5781 -0.550000 15.99940
5782 OM 5782 OM OM1 5782 -0.550000 15.99940
5783 OM 5783 OM OM1 5783 -0.550000 15.99940
5784 OM 5784 OM OM1 5784 -0.550000 15.99940
5785 OM 5785 OM OM1 5785 -0.550000 15.99940
5786 OM 5786 OM OM1 5786 -0.550000 15.99940
5787 OM 5787 OM OM1 5787 -0.550000 15.99940
5788 OM 5788 OM OM1 5788 -0.550000 15.99940
5789 OM 5789 OM OM1 5789 -0.550000 15.99940
5790 OM 5790 OM OM1 5790 -0.550000 15.99940
5791 OM 5791 OM OM1 5791 -0.550000 15.99940
5792 OM 5792 OM OM1 5792 -0.550000 15.99940
5793 OM 5793 OM OM1 5793 -0.550000 15.99940
5794 OM 5794 OM OM1 5794 -0.550000 15.99940
5795 OM 5795 OM OM1 5795 -0.550000 15.99940
5796 OM 5796 OM OM1 5796 -0.550000 15.99940
5797 OM 5797 OM OM1 5797 -0.550000 15.99940
5798 OM 5798 OM OM1 5798 -0.550000 15.99940
5799 OM 5799 OM OM1 5799 -0.550000 15.99940
5800 OM 5800 OM OM1 5800 -0.550000 15.99940
5801 OM 5801 OM OM1 5801 -0.550000 15.99940
5802 OM 5802 OM OM1 5802 -0.550000 15.99940
5803 OM 5803 OM OM1 5803 -0.550000 15.99940
5804 OM 5804 OM OM1 5804 -0.550000 15.99940
5805 OM 5805 OM OM1 5805 -0.550000 15.99940
5806 OM 5806 OM OM1 5806 -0.550000 15.99940
5807 OM 5807 OM OM1 5807 -0.550000 15.99940
5808 OM 5808 OM OM1 5808 -0.550000 15.99940
5809 OM 5809 OM OM1 5809 -0.550000 15.99940
5810 OM 5810 OM OM1 5810 -0.550000 15.99940
5811 OM 5811 OM OM1 5811 -0.550000 15.99940
5812 OM 5812 OM OM1 5812 -0.550000 15.99940
5813 OM 5813 OM OM1 5813 -0.550000 15.99940
5814 OM 5814 OM OM1 5814 -0.550000 15.99940
5815 OM 5815 OM OM1 5815 -0.550000 15.99940
5816 OM 5816 OM OM1 5816 -0.550000 15.99940
5817 OM 5817 OM OM1 5817 -0.550000 15.99940
5818 OM 5818 OM OM1 5818 -0.550000 15.99940
5819 OM 5819 OM OM1 5819 -0.550000 15.99940
5820 OM 5820 OM OM1 5820 -0.550000 15.99940
5821 OM 5821 OM OM1 5821 -0.550000 15.99940
5822 OM 5822 OM OM1 5822 -0.550000 15.99940
5823 OM 5823 OM OM1 5823 -0.550000 15.99940
5824 OM 5824 OM OM1 5824 -0.550000 15.99940
5825 OM 5825 OM OM1 5825 -0.550000 15.99940
5826 OM 5826 OM OM1 5826 -0.550000 15.99940
5827 OM 5827 OM OM1 5827 -0.550000 15.99940
5828 OM 5828 OM OM1 5828 -0.550000 15.99940
5829 OM 5829 OM OM1 5829 -0.550000 15.99940
5830 OM 5830 OM OM1 5830 -0.550000 15.99940
5831 OM 5831 OM OM1 5831 -0.550000 15.99940
5832 OM 5832 OM OM1 5832 -0.550000 15.99940
5833 OM 5833 OM OM1 5833 -0.550000 15.99940
5834 OM 5834 OM OM1 5834 -0.550000 15.99940
5835 OM 5835 OM OM1 5835 -0.550000 15.99940
5836 OM 5836 OM OM1 5836 -0.550000 15.99940
5837 OM 5837 OM OM1 5837 -0.550000 15.99940
5838 OM 5838 OM OM1 5838 -0.550000 15.99940
5839 OM 5839 OM OM1 5839 -0.550000 15.99940
5840 OM 5840 OM OM1 5840 -0.550000 15.99940
5841 OM 5841 OM OM1 5841 -0.550000 15.99940
5842 OM 5842 OM OM1 5842 -0.550000 15.99940
5843 OM 5843 OM OM1 5843 -0.550000 15.99940
5844 OM 5844 OM OM1 5844 -0.550000 15.99940
5845 OM 5845 OM OM1 5845 -0.550000 15.99940
5846 OM 5846 OM OM1 5846 -0.550000 15.99940
5847 OM 5847 OM OM1 5847 -0.550000 15.99940
5848 OM 5848 OM OM1 5848 -0.550000 15.99940
5849 OM 5849 OM OM1 5849 -0.550000 15.99940
5850 OM 5850 OM OM1 5850 -0.550000 15.99940
5851 OM 5851 OM OM1 5851 -0.550000 15.99940
5852 OM 5852 OM OM1 5852 -0.550000 15.99940
5853 OM 5853 OM OM1 5853 -0.550000 15.99940
5854 OM 5854 OM OM1 5854 -0.550000 15.99940
5855 OM 5855 OM OM1 5855 -0.550000 15.99940
5856 OM 5856 OM OM1 5856 -0.550000 15.99940
5857 OM 5857 OM OM1 5857 -0.550000 15.99940
5858 OM 5858 OM OM1 5858 -0.550000 15.99940
5859 OM 5859 OM OM1 5859 -0.550000 15.99940
5860 OM 5860 OM OM1 5860 -0.550000 15.99940
5861 OM 5861 OM OM1 5861 -0.550000 15.99940
5862 OM 5862 OM OM1 5862 -0.550000 15.99940
5863 OM 5863 OM OM1 5863 -0.550000 15.99940
5864 OM 5864 OM OM1 5864 -0.550000 15.99940
5865 OM 5865 OM OM1 5865 -0.550000 15.99940
5866 OM 5866 OM OM1 5866 -0.550000 15.99940
5867 OM 5867 OM OM1 5867 -0.550000 15.99940
5868 OM 5868 OM OM1 5868 -0.550000 15.99940
5869 OM 5869 OM OM1 5869 -0.550000 15.99940
5870 OM 5870 OM OM1 5870 -0.550000 15.99940
5871 OM 5871 OM OM1 5871 -0.550000 15.99940
5872 OM 5872 OM OM1 5872 -0.550000 15.99940
5873 OM 5873 OM OM1 5873 -0.550000 15.99940
5874 OM 5874 OM OM1 5874 -0.550000 15.99940
5875 OM 5875 OM OM1 5875 -0.550000 15.99940
5876 OM 5876 OM OM1 5876 -0.550000 15.99940
5877 OM 5877 OM OM1 5877 -0.550000 15.99940
5878 OM 5878 OM OM1 5878 -0.550000 15.99940
5879 OM 5879 OM OM1 5879 -0.550000 15.99940
5880 OM 5880 OM OM1 5880 -0.550000 15.99940
5881 OM 5881 OM OM1 5881 -0.550000 15.99940
5882 OM 5882 OM OM1 5882 -0.550000 15.99940
5883 OM 5883 OM OM1 5883 -0.550000 15.99940
5884 OM 5884 OM OM1 5884 -0.550000 15.99940
5885 OM 5885 OM OM1 5885 -0.550000 15.99940
5886 OM 5886 OM OM1 5886 -0.550000 15.99940
5887 OM 5887 OM OM1 5887 -0.550000 15.99940
5888 OM 5888 OM OM1 5888 -0.550000 15.99940
5889 OM 5889 OM OM1 5889 -0.550000 15.99940
5890 OM 5890 OM OM1 5890 -0.550000 15.99940
5891 OM 5891 OM OM1 5891 -0.550000 15.99940
5892 OM 5892 OM OM1 5892 -0.550000 15.99940
5893 OM 5893 OM OM1 5893 -0.550000 15.99940
5894 OM 5894 OM OM1 5894 -0.550000 15.99940
5895 OM 5895 OM OM1 5895 -0.550000 15.99940
5896 OM 5896 OM OM1 5896 -0.550000 15.99940
5897 OM 5897 OM OM1 5897 -0.550000 15.99940
5898 OM 5898 OM OM1 5898 -0.550000 15.99940
5899 OM 5899 OM OM1 5899 -0.550000 15.99940
5900 OM 5900 OM OM1 5900 -0.550000 15.99940
5901 OM 5901 OM OM1 5901 -0.550000 15.99940
5902 OM 5902 OM OM1 5902 -0.550000 15.99940
5903 OM 5903 OM OM1 5903 -0.550000 15.99940
5904 OM 5904 OM OM1 5904 -0.550000 15.99940
5905 OM 5905 OM OM1 5905 -0.550000 15.99940
5906 OM 5906 OM OM1 5906 -0.550000 15.99940
5907 OM 5907 OM OM1 5907 -0.550000 15.99940
5908 OM 5908 OM OM1 5908 -0.550000 15.99940
5909 OM 5909 OM OM1 5909 -0.550000 15.99940
5910 OM 5910 OM OM1 5910 -0.550000 15.99940
5911 OM 5911 OM OM1 5911 -0.550000 15.99940
5912 OM 5912 OM OM1 5912 -0.550000 15.99940
5913 OM 5913 OM OM1 5913 -0.550000 15.99940
5914 OM 5914 OM OM1 5914 -0.550000 15.99940
5915 OM 5915 OM OM1 5915 -0.550000 15.99940
5916 OM 5916 OM OM1 5916 -0.550000 15.99940
5917 OM 5917 OM OM1 5917 -0.550000 15.99940
5918 OM 5918 OM OM1 5918 -0.550000 15.99940
5919 OM 5919 OM OM1 5919 -0.550000 15.99940
5920 OM 5920 OM OM1 5920 -0.550000 15.99940
5921 OM 5921 OM OM1 5921 -0.550000 15.99940
5922 OM 5922 OM OM1 5922 -0.550000 15.99940
5923 OM 5923 OM OM1 5923 -0.550000 15.99940
5924 OM 5924 OM OM1 5924 -0.550000 15.99940
5925 OM 5925 OM OM1 5925 -0.550000 15.99940
5926 OM 5926 OM OM1 5926 -0.550000 15.99940
5927 OM 5927 OM OM1 5927 -0.550000 15.99940
5928 OM 5928 OM OM1 5928 -0.550000 15.99940
5929 OM 5929 OM OM1 5929 -0.550000 15.99940
5930 OM 5930 OM OM1 5930 -0.550000 15.99940
5931 OM 5931 OM OM1 5931 -0.550000 15.99940
5932 OM 5932 OM OM1 5932 -0.550000 15.99940
5933 OM 5933 OM OM1 5933 -0.550000 15.99940
5934 OM 5934 OM OM1 5934 -0.550000 15.99940
5935 OM 5935 OM OM1 5935 -0.550000 15.99940
5936 OM 5936 OM OM1 5936 -0.550000 15.99940
5937 OM 5937 OM OM1 5937 -0.550000 15.99940
5938 OM 5938 OM OM1 5938 -0.550000 15.99940
5939 OM 5939 OM OM1 5939 -0.550000 15.99940
5940 OM 5940 OM OM1 5940 -0.550000 15.99940
5941 OM 5941 OM OM1 5941 -0.550000 15.99940
5942 OM 5942 OM OM1 5942 -0.550000 15.99940
5943 OM 5943 OM OM1 5943 -0.550000 15.99940
5944 OM 5944 OM OM1 5944 -0.550000 15.99940
5945 OM 5945 OM OM1 5945 -0.550000 15.99940
5946 OM 5946 OM OM1 5946 -0.550000 15.99940
5947 OM 5947 OM OM1 5947 -0.550000 15.99940
5948 OM 5948 OM OM1 5948 -0.550000 15.99940
5949 OM 5949 OM OM1 5949 -0.550000 15.99940
5950 OM 5950 OM OM1 5950 -0.550000 15.99940
5951 OM 5951 OM OM1 5951 -0.550000 15.99940
5952 OM 5952 OM OM1 5952 -0.550000 15.99940
5953 OM 5953 OM OM1 5953 -0.550000 15.99940
5954 OM 5954 OM OM1 5954 -0.550000 15.99940
5955 OM 5955 OM OM1 5955 -0.550000 15.99940
5956 OM 5956 OM OM1 5956 -0.550000 15.99940
5957 OM 5957 OM OM1 5957 -0.550000 15.99940
5958 OM 5958 OM OM1 5958 -0.550000 15.99940
5959 OM 5959 OM OM1 5959 -0.550000 15.99940
5960 OM 5960 OM OM1 5960 -0.550000 15.99940
5961 OM 5961 OM OM1 5961 -0.550000 15.99940
5962 OM 5962 OM OM1 5962 -0.550000 15.99940
5963 OM 5963 OM OM1 5963 -0.550000 15.99940
5964 OM 5964 OM OM1 5964 -0.550000 15.99940
5965 OM 5965 OM OM1 5965 -0.550000 15.99940
5966 OM 5966 OM OM1 5966 -0.550000 15.99940
5967 OM 5967 OM OM1 5967 -0.550000 15.99940
5968 OM 5968 OM OM1 5968 -0.550000 15.99940
5969 OM 5969 OM OM1 5969 -0.550000 15.99940
5970 OM 5970 OM OM1 5970 -0.550000 15.99940
5971 OM 5971 OM OM1 5971 -0.550000 15.99940
5972 OM 5972 OM OM1 5972 -0.550000 15.99940
5973 OM 5973 OM OM1 5973 -0.550000 15.99940
5974 OM 5974 OM OM1 5974 -0.550000 15.99940
5975 OM 5975 OM OM1 5975 -0.550000 15.99940
5976 OM 5976 OM OM1 5976 -0.550000 15.99940
5977 OM 5977 OM OM1 5977 -0.550000 15.99940
5978 OM 5978 OM OM1 5978 -0.550000 15.99940
5979 OM 5979 OM OM1 5979 -0.550000 15.99940
5980 OM 5980 OM OM1 5980 -0.550000 15.99940
5981 OM 5981 OM OM1 5981 -0.550000 15.99940
5982 OM 5982 OM OM1 5982 -0.550000 15.99940
5983 OM 5983 OM OM1 5983 -0.550000 15.99940
5984 OM 5984 OM OM1 5984 -0.550000 15.99940
5985 OM 5985 OM OM1 5985 -0.550000 15.99940
5986 OM 5986 OM OM1 5986 -0.550000 15.99940
5987 OM 5987 OM OM1 5987 -0.550000 15.99940
5988 OM 5988 OM OM1 5988 -0.550000 15.99940
5989 OM 5989 OM OM1 5989 -0.550000 15.99940
5990 OM 5990 OM OM1 5990 -0.550000 15.99940
5991 OM 5991 OM OM1 5991 -0.550000 15.99940
5992 OM 5992 OM OM1 5992 -0.550000 15.99940
5993 OM 5993 OM OM1 5993 -0.550000 15.99940
5994 OM 5994 OM OM1 5994 -0.550000 15.99940
5995 OM 5995 OM OM1 5995 -0.550000 15.99940
5996 OM 5996 OM OM1 5996 -0.550000 15.99940
5997 OM 5997 OM OM1 5997 -0.550000 15.99940
5998 OM 5998 OM OM1 5998 -0.550000 15.99940
5999 OM 5999 OM OM1 5999 -0.550000 15.99940
6000 OM 6000 OM OM1 6000 -0.550000 15.99940
6001 OM 6001 OM OM1 6001 -0.550000 15.99940
6002 OM 6002 OM OM1 6002 -0.550000 15.99940
6003 OM 6003 OM OM1 6003 -0.550000 15.99940
6004 OM 6004 OM OM1 6004 -0.550000 15.99940
6005 OM 6005 OM OM1 6005 -0.550000 15.99940
6006 OM 6006 OM OM1 6006 -0.550000 15.99940
6007 OM 6007 OM OM1 6007 -0.550000 15.99940
6008 OM 6008 OM OM1 6008 -0.550000 15.99940
6009 OM 6009 OM OM1 6009 -0.550000 15.99940
6010 OM 6010 OM OM1 6010 -0.550000 15.99940
6011 OM 6011 OM OM1 6011 -0.550000 15.99940
6012 OM 6012 OM OM1 6012 -0.550000 15.99940
6013 OM 6013 OM OM1 6013 -0.550000 15.99940
6014 OM 6014 OM OM1 6014 -0.550000 15.99940
6015 OM 6015 OM OM1 6015 -0.550000 15.99940
6016 OM 6016 OM OM1 6016 -0.550000 15.99940
6017 OM 6017 OM OM1 6017 -0.550000 15.99940
6018 OM 6018 OM OM1 6018 -0.550000 15.99940
6019 OM 6019 OM OM1 6019 -0.550000 15.99940
6020 OM 6020 OM OM1 6020 -0.550000 15.99940
6021 OM 6021 OM OM1 6021 -0.550000 15.99940
6022 OM 6022 OM OM1 6022 -0.550000 15.99940
6023 OM 6023 OM OM1 6023 -0.550000 15.99940
6024 OM 6024 OM OM1 6024 -0.550000 15.99940
6025 OM 6025 OM OM1 6025 -0.550000 15.99940
6026 OM 6026 OM OM1 6026 -0.550000 15.99940
6027 OM 6027 OM OM1 6027 -0.550000 15.99940
6028 OM 6028 OM OM1 6028 -0.550000 15.99940
6029 OM 6029 OM OM1 6029 -0.550000 15.99940
6030 OM 6030 OM OM1 6030 -0.550000 15.99940
6031 OM 6031 OM OM1 6031 -0.550000 15.99940
6032 OM 6032 OM OM1 6032 -0.550000 15.99940
6033 OM 6033 OM OM1 6033 -0.550000 15.99940
6034 OM 6034 OM OM1 6034 -0.550000 15.99940
6035 OM 6035 OM OM1 6035 -0.550000 15.99940
6036 OM 6036 OM OM1 6036 -0.550000 15.99940
6037 OM 6037 OM OM1 6037 -0.550000 15.99940
6038 OM 6038 OM OM1 6038 -0.550000 15.99940
6039 OM 6039 OM OM1 6039 -0.550000 15.99940
6040 OM 6040 OM OM1 6040 -0.550000 15.99940
6041 OM 6041 OM OM1 6041 -0.550000 15.99940
6042 OM 6042 OM OM1 6042 -0.550000 15.99940
6043 OM 6043 OM OM1 6043 -0.550000 15.99940
6044 OM 6044 OM OM1 6044 -0.550000 15.99940
6045 OM 6045 OM OM1 6045 -0.550000 15.99940
6046 OM 6046 OM OM1 6046 -0.550000 15.99940
6047 OM 6047 OM OM1 6047 -0.550000 15.99940
6048 OM 6048 OM OM1 6048 -0.550000 15.99940
6049 OM 6049 OM OM1 6049 -0.550000 15.99940
6050 OM 6050 OM OM1 6050 -0.550000 15.99940
6051 OM 6051 OM OM1 6051 -0.550000 15.99940
6052 OM 6052 OM OM1 6052 -0.550000 15.99940
6053 OM 6053 OM OM1 6053 -0.550000 15.99940
6054 OM 6054 OM OM1 6054 -0.550000 15.99940
6055 OM 6055 OM OM1 6055 -0.550000 15.99940
6056 OM 6056 OM OM1 6056 -0.550000 15.99940
6057 OM 6057 OM OM1 6057 -0.550000 15.99940
6058 OM 6058 OM OM1 6058 -0.550000 15.99940
6059 OM 6059 OM OM1 6059 -0.550000 15.99940
6060 OM 6060 OM OM1 6060 -0.550000 15.99940
6061 OM 6061 OM OM1 6061 -0.550000 15.99940
6062 OM 6062 OM OM1 6062 -0.550000 15.99940
6063 OM 6063 OM OM1 6063 -0.550000 15.99940
6064 OM 6064 OM OM1 6064 -0.550000 15.99940
6065 OM 6065 OM OM1 6065 -0.550000 15.99940
6066 OM 6066 OM OM1 6066 -0.550000 15.99940
6067 OM 6067 OM OM1 6067 -0.550000 15.99940
6068 OM 6068 OM OM1 6068 -0.550000 15.99940
6069 OM 6069 OM OM1 6069 -0.550000 15.99940
6070 OM 6070 OM OM1 6070 -0.550000 15.99940
6071 OM 6071 OM OM1 6071 -0.550000 15.99940
6072 OM 6072 OM OM1 6072 -0.550000 15.99940
6073 OM 6073 OM OM1 6073 -0.550000 15.99940
6074 OM 6074 OM OM1 6074 -0.550000 15.99940
6075 OM 6075 OM OM1 6075 -0.550000 15.99940
6076 OM 6076 OM OM1 6076 -0.550000 15.99940
6077 OM 6077 OM OM1 6077 -0.550000 15.99940
6078 OM 6078 OM OM1 6078 -0.550000 15.99940
6079 OM 6079 OM OM1 6079 -0.550000 15.99940
6080 OM 6080 OM OM1 6080 -0.550000 15.99940
6081 OM 6081 OM OM1 6081 -0.550000 15.99940
6082 OM 6082 OM OM1 6082 -0.550000 15.99940
6083 OM 6083 OM OM1 6083 -0.550000 15.99940
6084 OM 6084 OM OM1 6084 -0.550000 15.99940
6085 OM 6085 OM OM1 6085 -0.550000 15.99940
6086 OM 6086 OM OM1 6086 -0.550000 15.99940
6087 OM 6087 OM OM1 6087 -0.550000 15.99940
6088 OM 6088 OM OM1 6088 -0.550000 15.99940
6089 OM 6089 OM OM1 6089 -0.550000 15.99940
6090 OM 6090 OM OM1 6090 -0.550000 15.99940
6091 OM 6091 OM OM1 6091 -0.550000 15.99940
6092 OM 6092 OM OM1 6092 -0.550000 15.99940
6093 OM 6093 OM OM1 6093 -0.550000 15.99940
6094 OM 6094 OM OM1 6094 -0.550000 15.99940
6095 OM 6095 OM OM1 6095 -0.550000 15.99940
6096 OM 6096 OM OM1 6096 -0.550000 15.99940
6097 OM 6097 OM OM1 6097 -0.550000 15.99940
6098 OM 6098 OM OM1 6098 -0.550000 15.99940
6099 OM 6099 OM OM1 6099 -0.550000 15.99940
6100 OM 6100 OM OM1 6100 -0.550000 15.99940
6101 OM 6101 OM OM1 6101 -0.550000 15.99940
6102 OM 6102 OM OM1 6102 -0.550000 15.99940
6103 OM 6103 OM OM1 6103 -0.550000 15.99940
6104 OM 6104 OM OM1 6104 -0.550000 15.99940
6105 OM 6105 OM OM1 6105 -0.550000 15.99940
6106 OM 6106 OM OM1 6106 -0.550000 15.99940
6107 OM 6107 OM OM1 6107 -0.550000 15.99940
6108 OM 6108 OM OM1 6108 -0.550000 15.99940
6109 OM 6109 OM OM1 6109 -0.550000 15.99940
6110 OM 6110 OM OM1 6110 -0.550000 15.99940
6111 OM 6111 OM OM1 6111 -0.550000 15.99940
6112 OM 6112 OM OM1 6112 -0.550000 15.99940
6113 OM 6113 OM OM1 6113 -0.550000 15.99940
6114 OM 6114 OM OM1 6114 -0.550000 15.99940
6115 OM 6115 OM OM1 6115 -0.550000 15.99940
6116 OM 6116 OM OM1 6116 -0.550000 15.99940
6117 OM 6117 OM OM1 6117 -0.550000 15.99940
6118 OM 6118 OM OM1 6118 -0.550000 15.99940
6119 OM 6119 OM OM1 6119 -0.550000 15.99940
6120 OM 6120 OM OM1 6120 -0.550000 15.99940
6121 OM 6121 OM OM1 6121 -0.550000 15.99940
6122 OM 6122 OM OM1 6122 -0.550000 15.99940
6123 OM 6123 OM OM1 6123 -0.550000 15.99940
6124 OM 6124 OM OM1 6124 -0.550000 15.99940
6125 OM 6125 OM OM1 6125 -0.550000 15.99940
6126 OM 6126 OM OM1 6126 -0.550000 15.99940
6127 OM 6127 OM OM1 6127 -0.550000 15.99940
6128 OM 6128 OM OM1 6128 -0.550000 15.99940
6129 OM 6129 OM OM1 6129 -0.550000 15.99940
6130 OM 6130 OM OM1 6130 -0.550000 15.99940
6131 OM 6131 OM OM1 6131 -0.550000 15.99940
6132 OM 6132 OM OM1 6132 -0.550000 15.99940
6133 OM 6133 OM OM1 6133 -0.550000 15.99940
6134 OM 6134 OM OM1 6134 -0.550000 15.99940
6135 OM 6135 OM OM1 6135 -0.550000 15.99940
6136 OM 6136 OM OM1 6136 -0.550000 15.99940
6137 OM 6137 OM OM1 6137 -0.550000 15.99940
6138 OM 6138 OM OM1 6138 -0.550000 15.99940
6139 OM 6139 OM OM1 6139 -0.550000 15.99940
6140 OM 6140 OM OM1 6140 -0.550000 15.99940
6141 OM 6141 OM OM1 6141 -0.550000 15.99940
6142 OM 6142 OM OM1 6142 -0.550000 15.99940
6143 OM 6143 OM OM1 6143 -0.550000 15.99940
6144 OM 6144 OM OM1 6144 -0.550000 15.99940
6145 OM 6145 OM OM1 6145 -0.550000 15.99940
6146 OM 6146 OM OM1 6146 -0.550000 15.99940
6147 OM 6147 OM OM1 6147 -0.550000 15.99940
6148 OM 6148 OM OM1 6148 -0.550000 15.99940
6149 OM 6149 OM OM1 6149 -0.550000 15.99940
6150 OM 6150 OM OM1 6150 -0.550000 15.99940
6151 OM 6151 OM OM1 6151 -0.550000 15.99940
6152 OM 6152 OM OM1 6152 -0.550000 15.99940
6153 OM 6153 OM OM1 6153 -0.550000 15.99940
6154 OM 6154 OM OM1 6154 -0.550000 15.99940
6155 OM 6155 OM OM1 6155 -0.550000 15.99940
6156 OM 6156 OM OM1 6156 -0.550000 15.99940
6157 OM 6157 OM OM1 6157 -0.550000 15.99940
6158 OM 6158 OM OM1 6158 -0.550000 15.99940
6159 OM 6159 OM OM1 6159 -0.550000 15.99940
6160 OM 6160 OM OM1 6160 -0.550000 15.99940
6161 OM 6161 OM OM1 6161 -0.550000 15.99940
6162 OM 6162 OM OM1 6162 -0.550000 15.99940
6163 OM 6163 OM OM1 6163 -0.550000 15.99940
6164 OM 6164 OM OM1 6164 -0.550000 15.99940
6165 OM 6165 OM OM1 6165 -0.550000 15.99940
6166 OM 6166 OM OM1 6166 -0.550000 15.99940
6167 OM 6167 OM OM1 6167 -0.550000 15.99940
6168 OM 6168 OM OM1 6168 -0.550000 15.99940
6169 OM 6169 OM OM1 6169 -0.550000 15.99940
6170 OM 6170 OM OM1 6170 -0.550000 15.99940
6171 OM 6171 OM OM1 6171 -0.550000 15.99940
6172 OM 6172 OM OM1 6172 -0.550000 15.99940
6173 OM 6173 OM OM1 6173 -0.550000 15.99940
6174 OM 6174 OM OM1 6174 -0.550000 15.99940
6175 OM 6175 OM OM1 6175 -0.550000 15.99940
6176 OM 6176 OM OM1 6176 -0.550000 15.99940
6177 OM 6177 OM OM1 6177 -0.550000 15.99940
6178 OM 6178 OM OM1 6178 -0.550000 15.99940
6179 OM 6179 OM OM1 6179 -0.550000 15.99940
6180 OM 6180 OM OM1 6180 -0.550000 15.99940
6181 OM 6181 OM OM1 6181 -0.550000 15.99940
6182 OM 6182 OM OM1 6182 -0.550000 15.99940
6183 OM 6183 OM OM1 6183 -0.550000 15.99940
6184 OM 6184 OM OM1 6184 -0.550000 15.99940
6185 OM 6185 OM OM1 6185 -0.550000 15.99940
6186 OM 6186 OM OM1 6186 -0.550000 15.99940
6187 OM 6187 OM OM1 6187 -0.550000 15.99940
6188 OM 6188 OM OM1 6188 -0.550000 15.99940
6189 OM 6189 OM OM1 6189 -0.550000 15.99940
6190 OM 6190 OM OM1 6190 -0.550000 15.99940
6191 OM 6191 OM OM1 6191 -0.550000 15.99940
6192 OM 6192 OM OM1 6192 -0.550000 15.99940
6193 OM 6193 OM OM1 6193 -0.550000 15.99940
6194 OM 6194 OM OM1 6194 -0.550000 15.99940
6195 OM 6195 OM OM1 6195 -0.550000 15.99940
6196 OM 6196 OM OM1 6196 -0.550000 15.99940
6197 OM 6197 OM OM1 6197 -0.550000 15.99940
6198 OM 6198 OM OM1 6198 -0.550000 15.99940
6199 OM 6199 OM OM1 6199 -0.550000 15.99940
6200 OM 6200 OM OM1 6200 -0.550000 15.99940
6201 OM 6201 OM OM1 6201 -0.550000 15.99940
6202 OM 6202 OM OM1 6202 -0.550000 15.99940
6203 OM 6203 OM OM1 6203 -0.550000 15.99940
6204 OM 6204 OM OM1 6204 -0.550000 15.99940
6205 OM 6205 OM OM1 6205 -0.550000 15.99940
6206 OM 6206 OM OM1 6206 -0.550000 15.99940
6207 OM 6207 OM OM1 6207 -0.550000 15.99940
6208 OM 6208 OM OM1 6208 -0.550000 15.99940
6209 OM 6209 OM OM1 6209 -0.550000 15.99940
6210 OM 6210 OM OM1 6210 -0.550000 15.99940
6211 OM 6211 OM OM1 6211 -0.550000 15.99940
6212 OM 6212 OM OM1 6212 -0.550000 15.99940
6213 OM 6213 OM OM1 6213 -0.550000 15.99940
6214 OM 6214 OM OM1 6214 -0.550000 15.99940
6215 OM 6215 OM OM1 6215 -0.550000 15.99940
6216 OM 6216 OM OM1 6216 -0.550000 15.99940
6217 OM 6217 OM OM1 6217 -0.550000 15.99940
6218 OM 6218 OM OM1 6218 -0.550000 15.99940
6219 OM 6219 OM OM1 6219 -0.550000 15.99940
6220 OM 6220 OM OM1 6220 -0.550000 15.99940
6221 OM 6221 OM OM1 6221 -0.550000 15.99940
6222 OM 6222 OM OM1 6222 -0.550000 15.99940
6223 OM 6223 OM OM1 6223 -0.550000 15.99940
6224 OM 6224 OM OM1 6224 -0.550000 15.99940
6225 OM 6225 OM OM1 6225 -0.550000 15.99940
6226 OM 6226 OM OM1 6226 -0.550000 15.99940
6227 OM 6227 OM OM1 6227 -0.550000 15.99940
6228 OM 6228 OM OM1 6228 -0.550000 15.99940
6229 OM 6229 OM OM1 6229 -0.550000 15.99940
6230 OM 6230 OM OM1 6230 -0.550000 15.99940
6231 OM 6231 OM OM1 6231 -0.550000 15.99940
6232 OM 6232 OM OM1 6232 -0.550000 15.99940
6233 OM 6233 OM OM1 6233 -0.550000 15.99940
6234 OM 6234 OM OM1 6234 -0.550000 15.99940
6235 OM 6235 OM OM1 6235 -0.550000 15.99940
6236 OM 6236 OM OM1 6236 -0.550000 15.99940
6237 OM 6237 OM OM1 6237 -0.550000 15.99940
6238 OM 6238 OM OM1 6238 -0.550000 15.99940
6239 OM 6239 OM OM1 6239 -0.550000 15.99940
6240 OM 6240 OM OM1 6240 -0.550000 15.99940
6241 OM 6241 OM OM1 6241 -0.550000 15.99940
6242 OM 6242 OM OM1 6242 -0.550000 15.99940
6243 OM 6243 OM OM1 6243 -0.550000 15.99940
6244 OM 6244 OM OM1 6244 -0.550000 15.99940
6245 OM 6245 OM OM1 6245 -0.550000 15.99940
6246 OM 6246 OM OM1 6246 -0.550000 15.99940
6247 OM 6247 OM OM1 6247 -0.550000 15.99940
6248 OM 6248 OM OM1 6248 -0.550000 15.99940
6249 OM 6249 OM OM1 6249 -0.550000 15.99940
6250 OM 6250 OM OM1 6250 -0.550000 15.99940
6251 OM 6251 OM OM1 6251 -0.550000 15.99940
6252 OM 6252 OM OM1 6252 -0.550000 15.99940
6253 OM 6253 OM OM1 6253 -0.550000 15.99940
6254 OM 6254 OM OM1 6254 -0.550000 15.99940
6255 OM 6255 OM OM1 6255 -0.550000 15.99940
6256 OM 6256 OM OM1 6256 -0.550000 15.99940
6257 OM 6257 OM OM1 6257 -0.550000 15.99940
6258 OM 6258 OM OM1 6258 -0.550000 15.99940
6259 OM 6259 OM OM1 6259 -0.550000 15.99940
6260 OM 6260 OM OM1 6260 -0.550000 15.99940
6261 OM 6261 OM OM1 6261 -0.550000 15.99940
6262 OM 6262 OM OM1 6262 -0.550000 15.99940
6263 OM 6263 OM OM1 6263 -0.550000 15.99940
6264 OM 6264 OM OM1 6264 -0.550000 15.99940
6265 OM 6265 OM OM1 6265 -0.550000 15.99940
6266 OM 6266 OM OM1 6266 -0.550000 15.99940
6267 OM 6267 OM OM1 6267 -0.550000 15.99940
6268 OM 6268 OM OM1 6268 -0.550000 15.99940
6269 OM 6269 OM OM1 6269 -0.550000 15.99940
6270 OM 6270 OM OM1 6270 -0.550000 15.99940
6271 OM 6271 OM OM1 6271 -0.550000 15.99940
6272 OM 6272 OM OM1 6272 -0.550000 15.99940
6273 OM 6273 OM OM1 6273 -0.550000 15.99940
6274 OM 6274 OM OM1 6274 -0.550000 15.99940
6275 OM 6275 OM OM1 6275 -0.550000 15.99940
6276 OM 6276 OM OM1 6276 -0.550000 15.99940
6277 OM 6277 OM OM1 6277 -0.550000 15.99940
6278 OM 6278 OM OM1 6278 -0.550000 15.99940
6279 OM 6279 OM OM1 6279 -0.550000 15.99940
6280 OM 6280 OM OM1 6280 -0.550000 15.99940
6281 OM 6281 OM OM1 6281 -0.550000 15.99940
6282 OM 6282 OM OM1 6282 -0.550000 15.99940
6283 OM 6283 OM OM1 6283 -0.550000 15.99940
6284 OM 6284 OM OM1 6284 -0.550000 15.99940
6285 OM 6285 OM OM1 6285 -0.550000 15.99940
6286 OM 6286 OM OM1 6286 -0.550000 15.99940
6287 OM 6287 OM OM1 6287 -0.550000 15.99940
6288 OM 6288 OM OM1 6288 -0.550000 15.99940
6289 OM 6289 OM OM1 6289 -0.550000 15.99940
6290 OM 6290 OM OM1 6290 -0.550000 15.99940
6291 OM 6291 OM OM1 6291 -0.550000 15.99940
6292 OM 6292 OM OM1 6292 -0.550000 15.99940
6293 OM 6293 OM OM1 6293 -0.550000 15.99940
6294 OM 6294 OM OM1 6294 -0.550000 15.99940
6295 OM 6295 OM OM1 6295 -0.550000 15.99940
6296 OM 6296 OM OM1 6296 -0.550000 15.99940
6297 OM 6297 OM OM1 6297 -0.550000 15.99940
6298 OM 6298 OM OM1 6298 -0.550000 15.99940
6299 OM 6299 OM OM1 6299 -0.550000 15.99940
6300 OM 6300 OM OM1 6300 -0.550000 15.99940
6301 OM 6301 OM OM1 6301 -0.550000 15.99940
6302 OM 6302 OM OM1 6302 -0.550000 15.99940
6303 OM 6303 OM OM1 6303 -0.550000 15.99940
6304 OM 6304 OM OM1 6304 -0.550000 15.99940
6305 OM 6305 OM OM1 6305 -0.550000 15.99940
6306 OM 6306 OM OM1 6306 -0.550000 15.99940
6307 OM 6307 OM OM1 6307 -0.550000 15.99940
6308 OM 6308 OM OM1 6308 -0.550000 15.99940
6309 OM 6309 OM OM1 6309 -0.550000 15.99940
6310 OM 6310 OM OM1 6310 -0.550000 15.99940
6311 OM 6311 OM OM1 6311 -0.550000 15.99940
6312 OM 6312 OM OM1 6312 -0.550000 15.99940
6313 OM 6313 OM OM1 6313 -0.550000 15.99940
6314 OM 6314 OM OM1 6314 -0.550000 15.99940
6315 OM 6315 OM OM1 6315 -0.550000 15.99940
6316 OM 6316 OM OM1 6316 -0.550000 15.99940
6317 OM 6317 OM OM1 6317 -0.550000 15.99940
6318 OM 6318 OM OM1 6318 -0.550000 15.99940
6319 OM 6319 OM OM1 6319 -0.550000 15.99940
6320 OM 6320 OM OM1 6320 -0.550000 15.99940
6321 OM 6321 OM OM1 6321 -0.550000 15.99940
6322 OM 6322 OM OM1 6322 -0.550000 15.99940
6323 OM 6323 OM OM1 6323 -0.550000 15.99940
6324 OM 6324 OM OM1 6324 -0.550000 15.99940
6325 OM 6325 OM OM1 6325 -0.550000 15.99940
6326 OM 6326 OM OM1 6326 -0.550000 15.99940
6327 OM 6327 OM OM1 6327 -0.550000 15.99940
6328 OM 6328 OM OM1 6328 -0.550000 15.99940
6329 OM 6329 OM OM1 6329 -0.550000 15.99940
6330 OM 6330 OM OM1 6330 -0.550000 15.99940
6331 OM 6331 OM OM1 6331 -0.550000 15.99940
6332 OM 6332 OM OM1 6332 -0.550000 15.99940
6333 OM 6333 OM OM1 6333 -0.550000 15.99940
6334 OM 6334 OM OM1 6334 -0.550000 15.99940
6335 OM 6335 OM OM1 6335 -0.550000 15.99940
6336 OM 6336 OM OM1 6336 -0.550000 15.99940
6337 OM 6337 OM OM1 6337 -0.550000 15.99940
6338 OM 6338 OM OM1 6338 -0.550000 15.99940
6339 OM 6339 OM OM1 6339 -0.550000 15.99940
6340 OM 6340 OM OM1 6340 -0.550000 15.99940
6341 OM 6341 OM OM1 6341 -0.550000 15.99940
6342 OM 6342 OM OM1 6342 -0.550000 15.99940
6343 OM 6343 OM OM1 6343 -0.550000 15.99940
6344 OM 6344 OM OM1 6344 -0.550000 15.99940
6345 OM 6345 OM OM1 6345 -0.550000 15.99940
6346 OM 6346 OM OM1 6346 -0.550000 15.99940
6347 OM 6347 OM OM1 6347 -0.550000 15.99940
6348 OM 6348 OM OM1 6348 -0.550000 15.99940
6349 OM 6349 OM OM1 6349 -0.550000 15.99940
6350 OM 6350 OM OM1 6350 -0.550000 15.99940
6351 OM 6351 OM OM1 6351 -0.550000 15.99940
6352 OM 6352 OM OM1 6352 -0.550000 15.99940
6353 OM 6353 OM OM1 6353 -0.550000 15.99940
6354 OM 6354 OM OM1 6354 -0.550000 15.99940
6355 OM 6355 OM OM1 6355 -0.550000 15.99940
6356 OM 6356 OM OM1 6356 -0.550000 15.99940
6357 OM 6357 OM OM1 6357 -0.550000 15.99940
6358 OM 6358 OM OM1 6358 -0.550000 15.99940
6359 OM 6359 OM OM1 6359 -0.550000 15.99940
6360 OM 6360 OM OM1 6360 -0.550000 15.99940
6361 OM 6361 OM OM1 6361 -0.550000 15.99940
6362 OM 6362 OM OM1 6362 -0.550000 15.99940
6363 OM 6363 OM OM1 6363 -0.550000 15.99940
6364 OM 6364 OM OM1 6364 -0.550000 15.99940
6365 OM 6365 OM OM1 6365 -0.550000 15.99940
6366 OM 6366 OM OM1 6366 -0.550000 15.99940
6367 OM 6367 OM OM1 6367 -0.550000 15.99940
6368 OM 6368 OM OM1 6368 -0.550000 15.99940
6369 OM 6369 OM OM1 6369 -0.550000 15.99940
6370 OM 6370 OM OM1 6370 -0.550000 15.99940
6371 OM 6371 OM OM1 6371 -0.550000 15.99940
6372 OM 6372 OM OM1 6372 -0.550000 15.99940
6373 OM 6373 OM OM1 6373 -0.550000 15.99940
6374 OM 6374 OM OM1 6374 -0.550000 15.99940
6375 OM 6375 OM OM1 6375 -0.550000 15.99940
6376 OM 6376 OM OM1 6376 -0.550000 15.99940
6377 OM 6377 OM OM1 6377 -0.550000 15.99940
6378 OM 6378 OM OM1 6378 -0.550000 15.99940
6379 OM 6379 OM OM1 6379 -0.550000 15.99940
6380 OM 6380 OM OM1 6380 -0.550000 15.99940
6381 OM 6381 OM OM1 6381 -0.550000 15.99940
6382 OM 6382 OM OM1 6382 -0.550000 15.99940
6383 OM 6383 OM OM1 6383 -0.550000 15.99940
6384 OM 6384 OM OM1 6384 -0.550000 15.99940
6385 OM 6385 OM OM1 6385 -0.550000 15.99940
6386 OM 6386 OM OM1 6386 -0.550000 15.99940
6387 OM 6387 OM OM1 6387 -0.550000 15.99940
6388 OM 6388 OM OM1 6388 -0.550000 15.99940
6389 OM 6389 OM OM1 6389 -0.550000 15.99940
6390 OM 6390 OM OM1 6390 -0.550000 15.99940
6391 OM 6391 OM OM1 6391 -0.550000 15.99940
6392 OM 6392 OM OM1 6392 -0.550000 15.99940
6393 OM 6393 OM OM1 6393 -0.550000 15.99940
6394 OM 6394 OM OM1 6394 -0.550000 15.99940
6395 OM 6395 OM OM1 6395 -0.550000 15.99940
6396 OM 6396 OM OM1 6396 -0.550000 15.99940
6397 OM 6397 OM OM1 6397 -0.550000 15.99940
6398 OM 6398 OM OM1 6398 -0.550000 15.99940
6399 OM 6399 OM OM1 6399 -0.550000 15.99940
6400 OM 6400 OM OM1 6400 -0.550000 15.99940
6401 OM 6401 OM OM1 6401 -0.550000 15.99940
6402 OM 6402 OM OM1 6402 -0.550000 15.99940
6403 OM 6403 OM OM1 6403 -0.550000 15.99940
6404 OM 6404 OM OM1 6404 -0.550000 15.99940
6405 OM 6405 OM OM1 6405 -0.550000 15.99940
6406 OM 6406 OM OM1 6406 -0.550000 15.99940
6407 OM 6407 OM OM1 6407 -0.550000 15.99940
6408 OM 6408 OM OM1 6408 -0.550000 15.99940
6409 OM 6409 OM OM1 6409 -0.550000 15.99940
6410 OM 6410 OM OM1 6410 -0.550000 15.99940
6411 OM 6411 OM OM1 6411 -0.550000 15.99940
6412 OM 6412 OM OM1 6412 -0.550000 15.99940
6413 OM 6413 OM OM1 6413 -0.550000 15.99940
6414 OM 6414 OM OM1 6414 -0.550000 15.99940
6415 OM 6415 OM OM1 6415 -0.550000 15.99940
6416 OM 6416 OM OM1 6416 -0.550000 15.99940
6417 OM 6417 OM OM1 6417 -0.550000 15.99940
6418 OM 6418 OM OM1 6418 -0.550000 15.99940
6419 OM 6419 OM OM1 6419 -0.550000 15.99940
6420 OM 6420 OM OM1 6420 -0.550000 15.99940
6421 OM 6421 OM OM1 6421 -0.550000 15.99940
6422 OM 6422 OM OM1 6422 -0.550000 15.99940
6423 OM 6423 OM OM1 6423 -0.550000 15.99940
6424 OM 6424 OM OM1 6424 -0.550000 15.99940
6425 OM 6425 OM OM1 6425 -0.550000 15.99940
6426 OM 6426 OM OM1 6426 -0.550000 15.99940
6427 OM 6427 OM OM1 6427 -0.550000 15.99940
6428 OM 6428 OM OM1 6428 -0.550000 15.99940
6429 OM 6429 OM OM1 6429 -0.550000 15.99940
6430 OM 6430 OM OM1 6430 -0.550000 15.99940
6431 OM 6431 OM OM1 6431 -0.550000 15.99940
6432 OM 6432 OM OM1 6432 -0.550000 15.99940
6433 OM 6433 OM OM1 6433 -0.550000 15.99940
6434 OM 6434 OM OM1 6434 -0.550000 15.99940
6435 OM 6435 OM OM1 6435 -0.550000 15.99940
6436 OM 6436 OM OM1 6436 -0.550000 15.99940
6437 OM 6437 OM OM1 6437 -0.550000 15.99940
6438 OM 6438 OM OM1 6438 -0.550000 15.99940
6439 OM 6439 OM OM1 6439 -0.550000 15.99940
6440 OM 6440 OM OM1 6440 -0.550000 15.99940
6441 OM 6441 OM OM1 6441 -0.550000 15.99940
6442 OM 6442 OM OM1 6442 -0.550000 15.99940
6443 OM 6443 OM OM1 6443 -0.550000 15.99940
6444 OM 6444 OM OM1 6444 -0.550000 15.99940
6445 OM 6445 OM OM1 6445 -0.550000 15.99940
6446 OM 6446 OM OM1 6446 -0.550000 15.99940
6447 OM 6447 OM OM1 6447 -0.550000 15.99940
6448 OM 6448 OM OM1 6448 -0.550000 15.99940
6449 OM 6449 OM OM1 6449 -0.550000 15.99940
6450 OM 6450 OM OM1 6450 -0.550000 15.99940
6451 OM 6451 OM OM1 6451 -0.550000 15.99940
6452 OM 6452 OM OM1 6452 -0.550000 15.99940
6453 OM 6453 OM OM1 6453 -0.550000 15.99940
6454 OM 6454 OM OM1 6454 -0.550000 15.99940
6455 OM 6455 OM OM1 6455 -0.550000 15.99940
6456 OM 6456 OM OM1 6456 -0.550000 15.99940
6457 OM 6457 OM OM1 6457 -0.550000 15.99940
6458 OM 6458 OM OM1 6458 -0.550000 15.99940
6459 OM 6459 OM OM1 6459 -0.550000 15.99940
6460 OM 6460 OM OM1 6460 -0.550000 15.99940
6461 OM 6461 OM OM1 6461 -0.550000 15.99940
6462 OM 6462 OM OM1 6462 -0.550000 15.99940
6463 OM 6463 OM OM1 6463 -0.550000 15.99940
6464 OM 6464 OM OM1 6464 -0.550000 15.99940
6465 OM 6465 OM OM1 6465 -0.550000 15.99940
6466 OM 6466 OM OM1 6466 -0.550000 15.99940
6467 OM 6467 OM OM1 6467 -0.550000 15.99940
6468 OM 6468 OM OM1 6468 -0.550000 15.99940
6469 OM 6469 OM OM1 6469 -0.550000 15.99940
6470 OM 6470 OM OM1 6470 -0.550000 15.99940
6471 OM 6471 OM OM1 6471 -0.550000 15.99940
6472 OM 6472 OM OM1 6472 -0.550000 15.99940
6473 OM 6473 OM OM1 6473 -0.550000 15.99940
6474 OM 6474 OM OM1 6474 -0.550000 15.99940
6475 OM 6475 OM OM1 6475 -0.550000 15.99940
6476 OM 6476 OM OM1 6476 -0.550000 15.99940
6477 OM 6477 OM OM1 6477 -0.550000 15.99940
6478 OM 6478 OM OM1 6478 -0.550000 15.99940
6479 OM 6479 OM OM1 6479 -0.550000 15.99940
6480 OM 6480 OM OM1 6480 -0.550000 15.99940
6481 OM 6481 OM OM1 6481 -0.550000 15.99940
6482 OM 6482 OM OM1 6482 -0.550000 15.99940
6483 OM 6483 OM OM1 6483 -0.550000 15.99940
6484 OM 6484 OM OM1 6484 -0.550000 15.99940
6485 OM 6485 OM OM1 6485 -0.550000 15.99940
6486 OM 6486 OM OM1 6486 -0.550000 15.99940
6487 OM 6487 OM OM1 6487 -0.550000 15.99940
6488 OM 6488 OM OM1 6488 -0.550000 15.99940
6489 OM 6489 OM OM1 6489 -0.550000 15.99940
6490 OM 6490 OM OM1 6490 -0.550000 15.99940
6491 OM 6491 OM OM1 6491 -0.550000 15.99940
6492 OM 6492 OM OM1 6492 -0.550000 15.99940
6493 OM 6493 OM OM1 6493 -0.550000 15.99940
6494 OM 6494 OM OM1 6494 -0.550000 15.99940
6495 OM 6495 OM OM1 6495 -0.550000 15.99940
6496 OM 6496 OM OM1 6496 -0.550000 15.99940
6497 OM 6497 OM OM1 6497 -0.550000 15.99940
6498 OM 6498 OM OM1 6498 -0.550000 15.99940
6499 OM 6499 OM OM1 6499 -0.550000 15.99940
6500 OM 6500 OM OM1 6500 -0.550000 15.99940
6501 OM 6501 OM OM1 6501 -0.550000 15.99940
6502 OM 6502 OM OM1 6502 -0.550000 15.99940
6503 OM 6503 OM OM1 6503 -0.550000 15.99940
6504 OM 6504 OM OM1 6504 -0.550000 15.99940
6505 OM 6505 OM OM1 6505 -0.550000 15.99940
6506 OM 6506 OM OM1 6506 -0.550000 15.99940
6507 OM 6507 OM OM1 6507 -0.550000 15.99940
6508 OM 6508 OM OM1 6508 -0.550000 15.99940
6509 OM 6509 OM OM1 6509 -0.550000 15.99940
6510 OM 6510 OM OM1 6510 -0.550000 15.99940
6511 OM 6511 OM OM1 6511 -0.550000 15.99940
6512 OM 6512 OM OM1 6512 -0.550000 15.99940
6513 OM 6513 OM OM1 6513 -0.550000 15.99940
6514 OM 6514 OM OM1 6514 -0.550000 15.99940
6515 OM 6515 OM OM1 6515 -0.550000 15.99940
6516 OM 6516 OM OM1 6516 -0.550000 15.99940
6517 OM 6517 OM OM1 6517 -0.550000 15.99940
6518 OM 6518 OM OM1 6518 -0.550000 15.99940
6519 OM 6519 OM OM1 6519 -0.550000 15.99940
6520 OM 6520 OM OM1 6520 -0.550000 15.99940
6521 OM 6521 OM OM1 6521 -0.550000 15.99940
6522 OM 6522 OM OM1 6522 -0.550000 15.99940
6523 OM 6523 OM OM1 6523 -0.550000 15.99940
6524 OM 6524 OM OM1 6524 -0.550000 15.99940
6525 OM 6525 OM OM1 6525 -0.550000 15.99940
6526 OM 6526 OM OM1 6526 -0.550000 15.99940
6527 OM 6527 OM OM1 6527 -0.550000 15.99940
6528 OM 6528 OM OM1 6528 -0.550000 15.99940
6529 OM 6529 OM OM1 6529 -0.550000 15.99940
6530 OM 6530 OM OM1 6530 -0.550000 15.99940
6531 OM 6531 OM OM1 6531 -0.550000 15.99940
6532 OM 6532 OM OM1 6532 -0.550000 15.99940
6533 OM 6533 OM OM1 6533 -0.550000 15.99940
6534 OM 6534 OM OM1 6534 -0.550000 15.99940
6535 OM 6535 OM OM1 6535 -0.550000 15.99940
6536 OM 6536 OM OM1 6536 -0.550000 15.99940
6537 OM 6537 OM OM1 6537 -0.550000 15.99940
6538 OM 6538 OM OM1 6538 -0.550000 15.99940
6539 OM 6539 OM OM1 6539 -0.550000 15.99940
6540 OM 6540 OM OM1 6540 -0.550000 15.99940
6541 OM 6541 OM OM1 6541 -0.550000 15.99940
6542 OM 6542 OM OM1 6542 -0.550000 15.99940
6543 OM 6543 OM OM1 6543 -0.550000 15.99940
6544 OM 6544 OM OM1 6544 -0.550000 15.99940
6545 OM 6545 OM OM1 6545 -0.550000 15.99940
6546 OM 6546 OM OM1 6546 -0.550000 15.99940
6547 OM 6547 OM OM1 6547 -0.550000 15.99940
6548 OM 6548 OM OM1 6548 -0.550000 15.99940
6549 OM 6549 OM OM1 6549 -0.550000 15.99940
6550 OM 6550 OM OM1 6550 -0.550000 15.99940
6551 OM 6551 OM OM1 6551 -0.550000 15.99940
6552 OM 6552 OM OM1 6552 -0.550000 15.99940
6553 OM 6553 OM OM1 6553 -0.550000 15.99940
6554 OM 6554 OM OM1 6554 -0.550000 15.99940
6555 OM 6555 OM OM1 6555 -0.550000 15.99940
6556 OM 6556 OM OM1 6556 -0.550000 15.99940
6557 OM 6557 OM OM1 6557 -0.550000 15.99940
6558 OM 6558 OM OM1 6558 -0.550000 15.99940
6559 OM 6559 OM OM1 6559 -0.550000 15.99940
6560 OM 6560 OM OM1 6560 -0.550000 15.99940
6561 OM 6561 OM OM1 6561 -0.550000 15.99940
6562 OM 6562 OM OM1 6562 -0.550000 15.99940
6563 OM 6563 OM OM1 6563 -0.550000 15.99940
6564 OM 6564 OM OM1 6564 -0.550000 15.99940
6565 OM 6565 OM OM1 6565 -0.550000 15.99940
6566 OM 6566 OM OM1 6566 -0.550000 15.99940
6567 OM 6567 OM OM1 6567 -0.550000 15.99940
6568 OM 6568 OM OM1 6568 -0.550000 15.99940
6569 OM 6569 OM OM1 6569 -0.550000 15.99940
6570 OM 6570 OM OM1 6570 -0.550000 15.99940
6571 OM 6571 OM OM1 6571 -0.550000 15.99940
6572 OM 6572 OM OM1 6572 -0.550000 15.99940
6573 OM 6573 OM OM1 6573 -0.550000 15.99940
6574 OM 6574 OM OM1 6574 -0.550000 15.99940
6575 OM 6575 OM OM1 6575 -0.550000 15.99940
6576 OM 6576 OM OM1 6576 -0.550000 15.99940
6577 OM 6577 OM OM1 6577 -0.550000 15.99940
6578 OM 6578 OM OM1 6578 -0.550000 15.99940
6579 OM 6579 OM OM1 6579 -0.550000 15.99940
6580 OM 6580 OM OM1 6580 -0.550000 15.99940
6581 OM 6581 OM OM1 6581 -0.550000 15.99940
6582 OM 6582 OM OM1 6582 -0.550000 15.99940
6583 OM 6583 OM OM1 6583 -0.550000 15.99940
6584 OM 6584 OM OM1 6584 -0.550000 15.99940
6585 OM 6585 OM OM1 6585 -0.550000 15.99940
6586 OM 6586 OM OM1 6586 -0.550000 15.99940
6587 OM 6587 OM OM1 6587 -0.550000 15.99940
6588 OM 6588 OM OM1 6588 -0.550000 15.99940
6589 OM 6589 OM OM1 6589 -0.550000 15.99940
6590 OM 6590 OM OM1 6590 -0.550000 15.99940
6591 OM 6591 OM OM1 6591 -0.550000 15.99940
6592 OM 6592 OM OM1 6592 -0.550000 15.99940
6593 OM 6593 OM OM1 6593 -0.550000 15.99940
6594 OM 6594 OM OM1 6594 -0.550000 15.99940
6595 OM 6595 OM OM1 6595 -0.550000 15.99940
6596 OM 6596 OM OM1 6596 -0.550000 15.99940
6597 OM 6597 OM OM1 6597 -0.550000 15.99940
6598 OM 6598 OM OM1 6598 -0.550000 15.99940
6599 OM 6599 OM OM1 6599 -0.550000 15.99940
6600 OM 6600 OM OM1 6600 -0.550000 15.99940
6601 OM 6601 OM OM1 6601 -0.550000 15.99940
6602 OM 6602 OM OM1 6602 -0.550000 15.99940
6603 OM 6603 OM OM1 6603 -0.550000 15.99940
6604 OM 6604 OM OM1 6604 -0.550000 15.99940
6605 OM 6605 OM OM1 6605 -0.550000 15.99940
6606 OM 6606 OM OM1 6606 -0.550000 15.99940
6607 OM 6607 OM OM1 6607 -0.550000 15.99940
6608 OM 6608 OM OM1 6608 -0.550000 15.99940
6609 OM 6609 OM OM1 6609 -0.550000 15.99940
6610 OM 6610 OM OM1 6610 -0.550000 15.99940
6611 OM 6611 OM OM1 6611 -0.550000 15.99940
6612 OM 6612 OM OM1 6612 -0.550000 15.99940
6613 OM 6613 OM OM1 6613 -0.550000 15.99940
6614 OM 6614 OM OM1 6614 -0.550000 15.99940
6615 OM 6615 OM OM1 6615 -0.550000 15.99940
6616 OM 6616 OM OM1 6616 -0.550000 15.99940
6617 OM 6617 OM OM1 6617 -0.550000 15.99940
6618 OM 6618 OM OM1 6618 -0.550000 15.99940
6619 OM 6619 OM OM1 6619 -0.550000 15.99940
6620 OM 6620 OM OM1 6620 -0.550000 15.99940
6621 OM 6621 OM OM1 6621 -0.550000 15.99940
6622 OM 6622 OM OM1 6622 -0.550000 15.99940
6623 OM 6623 OM OM1 6623 -0.550000 15.99940
6624 OM 6624 OM OM1 6624 -0.550000 15.99940
6625 OM 6625 OM OM1 6625 -0.550000 15.99940
6626 OM 6626 OM OM1 6626 -0.550000 15.99940
6627 OM 6627 OM OM1 6627 -0.550000 15.99940
6628 OM 6628 OM OM1 6628 -0.550000 15.99940
6629 OM 6629 OM OM1 6629 -0.550000 15.99940
6630 OM 6630 OM OM1 6630 -0.550000 15.99940
6631 OM 6631 OM OM1 6631 -0.550000 15.99940
6632 OM 6632 OM OM1 6632 -0.550000 15.99940
6633 OM 6633 OM OM1 6633 -0.550000 15.99940
6634 OM 6634 OM OM1 6634 -0.550000 15.99940
6635 OM 6635 OM OM1 6635 -0.550000 15.99940
6636 OM 6636 OM OM1 6636 -0.550000 15.99940
6637 OM 6637 OM OM1 6637 -0.550000 15.99940
6638 OM 6638 OM OM1 6638 -0.550000 15.99940
6639 OM 6639 OM OM1 6639 -0.550000 15.99940
6640 OM 6640 OM OM1 6640 -0.550000 15.99940
6641 OM 6641 OM OM1 6641 -0.550000 15.99940
6642 OM 6642 OM OM1 6642 -0.550000 15.99940
6643 OM 6643 OM OM1 6643 -0.550000 15.99940
6644 OM 6644 OM OM1 6644 -0.550000 15.99940
6645 OM 6645 OM OM1 6645 -0.550000 15.99940
6646 OM 6646 OM OM1 6646 -0.550000 15.99940
6647 OM 6647 OM OM1 6647 -0.550000 15.99940
6648 OM 6648 OM OM1 6648 -0.550000 15.99940
6649 OM 6649 OM OM1 6649 -0.550000 15.99940
6650 OM 6650 OM OM1 6650 -0.550000 15.99940
6651 OM 6651 OM OM1 6651 -0.550000 15.99940
6652 OM 6652 OM OM1 6652 -0.550000 15.99940
6653 OM 6653 OM OM1 6653 -0.550000 15.99940
6654 OM 6654 OM OM1 6654 -0.550000 15.99940
6655 OM 6655 OM OM1 6655 -0.550000 15.99940
6656 OM 6656 OM OM1 6656 -0.550000 15.99940
6657 OM 6657 OM OM1 6657 -0.550000 15.99940
6658 OM 6658 OM OM1 6658 -0.550000 15.99940
6659 OM 6659 OM OM1 6659 -0.550000 15.99940
6660 OM 6660 OM OM1 6660 -0.550000 15.99940
6661 OM 6661 OM OM1 6661 -0.550000 15.99940
6662 OM 6662 OM OM1 6662 -0.550000 15.99940
6663 OM 6663 OM OM1 6663 -0.550000 15.99940
6664 OM 6664 OM OM1 6664 -0.550000 15.99940
6665 OM 6665 OM OM1 6665 -0.550000 15.99940
6666 OM 6666 OM OM1 6666 -0.550000 15.99940
6667 OM 6667 OM OM1 6667 -0.550000 15.99940
6668 OM 6668 OM OM1 6668 -0.550000 15.99940
6669 OM 6669 OM OM1 6669 -0.550000 15.99940
6670 OM 6670 OM OM1 6670 -0.550000 15.99940
6671 OM 6671 OM OM1 6671 -0.550000 15.99940
6672 OM 6672 OM OM1 6672 -0.550000 15.99940
6673 OM 6673 OM OM1 6673 -0.550000 15.99940
6674 OM 6674 OM OM1 6674 -0.550000 15.99940
6675 OM 6675 OM OM1 6675 -0.550000 15.99940
6676 OM 6676 OM OM1 6676 -0.550000 15.99940
6677 OM 6677 OM OM1 6677 -0.550000 15.99940
6678 OM 6678 OM OM1 6678 -0.550000 15.99940
6679 OM 6679 OM OM1 6679 -0.550000 15.99940
6680 OM 6680 OM OM1 6680 -0.550000 15.99940
6681 OM 6681 OM OM1 6681 -0.550000 15.99940
6682 OM 6682 OM OM1 6682 -0.550000 15.99940
6683 OM 6683 OM OM1 6683 -0.550000 15.99940
6684 OM 6684 OM OM1 6684 -0.550000 15.99940
6685 OM 6685 OM OM1 6685 -0.550000 15.99940
6686 OM 6686 OM OM1 6686 -0.550000 15.99940
6687 OM 6687 OM OM1 6687 -0.550000 15.99940
6688 OM 6688 OM OM1 6688 -0.550000 15.99940
6689 OM 6689 OM OM1 6689 -0.550000 15.99940
6690 OM 6690 OM OM1 6690 -0.550000 15.99940
6691 OM 6691 OM OM1 6691 -0.550000 15.99940
6692 OM 6692 OM OM1 6692 -0.550000 15.99940
6693 OM 6693 OM OM1 6693 -0.550000 15.99940
6694 OM 6694 OM OM1 6694 -0.550000 15.99940
6695 OM 6695 OM OM1 6695 -0.550000 15.99940
6696 OM 6696 OM OM1 6696 -0.550000 15.99940
6697 OM 6697 OM OM1 6697 -0.550000 15.99940
6698 OM 6698 OM OM1 6698 -0.550000 15.99940
6699 OM 6699 OM OM1 6699 -0.550000 15.99940
6700 OM 6700 OM OM1 6700 -0.550000 15.99940
6701 OM 6701 OM OM1 6701 -0.550000 15.99940
6702 OM 6702 OM OM1 6702 -0.550000 15.99940
6703 OM 6703 OM OM1 6703 -0.550000 15.99940
6704 OM 6704 OM OM1 6704 -0.550000 15.99940
6705 OM 6705 OM OM1 6705 -0.550000 15.99940
6706 OM 6706 OM OM1 6706 -0.550000 15.99940
6707 OM 6707 OM OM1 6707 -0.550000 15.99940
6708 OM 6708 OM OM1 6708 -0.550000 15.99940
6709 OM 6709 OM OM1 6709 -0.550000 15.99940
6710 OM 6710 OM OM1 6710 -0.550000 15.99940
6711 OM 6711 OM OM1 6711 -0.550000 15.99940
6712 OM 6712 OM OM1 6712 -0.550000 15.99940
6713 OM 6713 OM OM1 6713 -0.550000 15.99940
6714 OM 6714 OM OM1 6714 -0.550000 15.99940
6715 OM 6715 OM OM1 6715 -0.550000 15.99940
6716 OM 6716 OM OM1 6716 -0.550000 15.99940
6717 OM 6717 OM OM1 6717 -0.550000 15.99940
6718 OM 6718 OM OM1 6718 -0.550000 15.99940
6719 OM 6719 OM OM1 6719 -0.550000 15.99940
6720 OM 6720 OM OM1 6720 -0.550000 15.99940
6721 OM 6721 OM OM1 6721 -0.550000 15.99940
6722 OM 6722 OM OM1 6722 -0.550000 15.99940
6723 OM 6723 OM OM1 6723 -0.550000 15.99940
6724 OM 6724 OM OM1 6724 -0.550000 15.99940
6725 OM 6725 OM OM1 6725 -0.550000 15.99940
6726 OM 6726 OM OM1 6726 -0.550000 15.99940
6727 OM 6727 OM OM1 6727 -0.550000 15.99940
6728 OM 6728 OM OM1 6728 -0.550000 15.99940
6729 OM 6729 OM OM1 6729 -0.550000 15.99940
6730 OM 6730 OM OM1 6730 -0.550000 15.99940
6731 OM 6731 OM OM1 6731 -0.550000 15.99940
6732 OM 6732 OM OM1 6732 -0.550000 15.99940
6733 OM 6733 OM OM1 6733 -0.550000 15.99940
6734 OM 6734 OM OM1 6734 -0.550000 15.99940
6735 OM 6735 OM OM1 6735 -0.550000 15.99940
6736 OM 6736 OM OM1 6736 -0.550000 15.99940
6737 OM 6737 OM OM1 6737 -0.550000 15.99940
6738 OM 6738 OM OM1 6738 -0.550000 15.99940
6739 OM 6739 OM OM1 6739 -0.550000 15.99940
6740 OM 6740 OM OM1 6740 -0.550000 15.99940
6741 OM 6741 OM OM1 6741 -0.550000 15.99940
6742 OM 6742 OM OM1 6742 -0.550000 15.99940
6743 OM 6743 OM OM1 6743 -0.550000 15.99940
6744 OM 6744 OM OM1 6744 -0.550000 15.99940
6745 OM 6745 OM OM1 6745 -0.550000 15.99940
6746 OM 6746 OM OM1 6746 -0.550000 15.99940
6747 OM 6747 OM OM1 6747 -0.550000 15.99940
6748 OM 6748 OM OM1 6748 -0.550000 15.99940
6749 OM 6749 OM OM1 6749 -0.550000 15.99940
6750 OM 6750 OM OM1 6750 -0.550000 15.99940
6751 OM 6751 OM OM1 6751 -0.550000 15.99940
6752 OM 6752 OM OM1 6752 -0.550000 15.99940
6753 OM 6753 OM OM1 6753 -0.550000 15.99940
6754 OM 6754 OM OM1 6754 -0.550000 15.99940
6755 OM 6755 OM OM1 6755 -0.550000 15.99940
6756 OM 6756 OM OM1 6756 -0.550000 15.99940
6757 OM 6757 OM OM1 6757 -0.550000 15.99940
6758 OM 6758 OM OM1 6758 -0.550000 15.99940
6759 OM 6759 OM OM1 6759 -0.550000 15.99940
6760 OM 6760 OM OM1 6760 -0.550000 15.99940
6761 OM 6761 OM OM1 6761 -0.550000 15.99940
6762 OM 6762 OM OM1 6762 -0.550000 15.99940
6763 OM 6763 OM OM1 6763 -0.550000 15.99940
6764 OM 6764 OM OM1 6764 -0.550000 15.99940
6765 OM 6765 OM OM1 6765 -0.550000 15.99940
6766 OM 6766 OM OM1 6766 -0.550000 15.99940
6767 OM 6767 OM OM1 6767 -0.550000 15.99940
6768 OM 6768 OM OM1 6768 -0.550000 15.99940
6769 OM 6769 OM OM1 6769 -0.550000 15.99940
6770 OM 6770 OM OM1 6770 -0.550000 15.99940
6771 OM 6771 OM OM1 6771 -0.550000 15.99940
6772 OM 6772 OM OM1 6772 -0.550000 15.99940
6773 OM 6773 OM OM1 6773 -0.550000 15.99940
6774 OM 6774 OM OM1 6774 -0.550000 15.99940
6775 OM 6775 OM OM1 6775 -0.550000 15.99940
6776 OM 6776 OM OM1 6776 -0.550000 15.99940
6777 OM 6777 OM OM1 6777 -0.550000 15.99940
6778 OM 6778 OM OM1 6778 -0.550000 15.99940
6779 OM 6779 OM OM1 6779 -0.550000 15.99940
6780 OM 6780 OM OM1 6780 -0.550000 15.99940
6781 OM 6781 OM OM1 6781 -0.550000 15.99940
6782 OM 6782 OM OM1 6782 -0.550000 15.99940
6783 OM 6783 OM OM1 6783 -0.550000 15.99940
6784 OM 6784 OM OM1 6784 -0.550000 15.99940
6785 OM 6785 OM OM1 6785 -0.550000 15.99940
6786 OM 6786 OM OM1 6786 -0.550000 15.99940
6787 OM 6787 OM OM1 6787 -0.550000 15.99940
6788 OM 6788 OM OM1 6788 -0.550000 15.99940
6789 OM 6789 OM OM1 6789 -0.550000 15.99940
6790 OM 6790 OM OM1 6790 -0.550000 15.99940
6791 OM 6791 OM OM1 6791 -0.550000 15.99940
6792 OM 6792 OM OM1 6792 -0.550000 15.99940
6793 OM 6793 OM OM1 6793 -0.550000 15.99940
6794 OM 6794 OM OM1 6794 -0.550000 15.99940
6795 OM 6795 OM OM1 6795 -0.550000 15.99940
6796 OM 6796 OM OM1 6796 -0.550000 15.99940
6797 OM 6797 OM OM1 6797 -0.550000 15.99940
6798 OM 6798 OM OM1 6798 -0.550000 15.99940
6799 OM 6799 OM OM1 6799 -0.550000 15.99940
6800 OM 6800 OM OM1 6800 -0.550000 15.99940
6801 OM 6801 OM OM1 6801 -0.550000 15.99940
6802 OM 6802 OM OM1 6802 -0.550000 15.99940
6803 OM 6803 OM OM1 6803 -0.550000 15.99940
6804 OM 6804 OM OM1 6804 -0.550000 15.99940
6805 OM 6805 OM OM1 6805 -0.550000 15.99940
6806 OM 6806 OM OM1 6806 -0.550000 15.99940
6807 OM 6807 OM OM1 6807 -0.550000 15.99940
6808 OM 6808 OM OM1 6808 -0.550000 15.99940
6809 OM 6809 OM OM1 6809 -0.550000 15.99940
6810 OM 6810 OM OM1 6810 -0.550000 15.99940
6811 OM 6811 OM OM1 6811 -0.550000 15.99940
6812 OM 6812 OM OM1 6812 -0.550000 15.99940
6813 OM 6813 OM OM1 6813 -0.550000 15.99940
6814 OM 6814 OM OM1 6814 -0.550000 15.99940
6815 OM 6815 OM OM1 6815 -0.550000 15.99940
6816 OM 6816 OM OM1 6816 -0.550000 15.99940
6817 OM 6817 OM OM1 6817 -0.550000 15.99940
6818 OM 6818 OM OM1 6818 -0.550000 15.99940
6819 OM 6819 OM OM1 6819 -0.550000 15.99940
6820 OM 6820 OM OM1 6820 -0.550000 15.99940
6821 OM 6821 OM OM1 6821 -0.550000 15.99940
6822 OM 6822 OM OM1 6822 -0.550000 15.99940
6823 OM 6823 OM OM1 6823 -0.550000 15.99940
6824 OM 6824 OM OM1 6824 -0.550000 15.99940
6825 OM 6825 OM OM1 6825 -0.550000 15.99940
6826 OM 6826 OM OM1 6826 -0.550000 15.99940
6827 OM 6827 OM OM1 6827 -0.550000 15.99940
6828 OM 6828 OM OM1 6828 -0.550000 15.99940
6829 OM 6829 OM OM1 6829 -0.550000 15.99940
6830 OM 6830 OM OM1 6830 -0.550000 15.99940
6831 OM 6831 OM OM1 6831 -0.550000 15.99940
6832 OM 6832 OM OM1 6832 -0.550000 15.99940
6833 OM 6833 OM OM1 6833 -0.550000 15.99940
6834 OM 6834 OM OM1 6834 -0.550000 15.99940
6835 OM 6835 OM OM1 6835 -0.550000 15.99940
6836 OM 6836 OM OM1 6836 -0.550000 15.99940
6837 OM 6837 OM OM1 6837 -0.550000 15.99940
6838 OM 6838 OM OM1 6838 -0.550000 15.99940
6839 OM 6839 OM OM1 6839 -0.550000 15.99940
6840 OM 6840 OM OM1 6840 -0.550000 15.99940
6841 OM 6841 OM OM1 6841 -0.550000 15.99940
6842 OM 6842 OM OM1 6842 -0.550000 15.99940
6843 OM 6843 OM OM1 6843 -0.550000 15.99940
6844 OM 6844 OM OM1 6844 -0.550000 15.99940
6845 OM 6845 OM OM1 6845 -0.550000 15.99940
6846 OM 6846 OM OM1 6846 -0.550000 15.99940
6847 OM 6847 OM OM1 6847 -0.550000 15.99940
6848 OM 6848 OM OM1 6848 -0.550000 15.99940
6849 OM 6849 OM OM1 6849 -0.550000 15.99940
6850 OM 6850 OM OM1 6850 -0.550000 15.99940
6851 OM 6851 OM OM1 6851 -0.550000 15.99940
6852 OM 6852 OM OM1 6852 -0.550000 15.99940
6853 OM 6853 OM OM1 6853 -0.550000 15.99940
6854 OM 6854 OM OM1 6854 -0.550000 15.99940
6855 OM 6855 OM OM1 6855 -0.550000 15.99940
6856 OM 6856 OM OM1 6856 -0.550000 15.99940
6857 OM 6857 OM OM1 6857 -0.550000 15.99940
6858 OM 6858 OM OM1 6858 -0.550000 15.99940
6859 OM 6859 OM OM1 6859 -0.550000 15.99940
6860 OM 6860 OM OM1 6860 -0.550000 15.99940
6861 OM 6861 OM OM1 6861 -0.550000 15.99940
6862 OM 6862 OM OM1 6862 -0.550000 15.99940
6863 OM 6863 OM OM1 6863 -0.550000 15.99940
6864 OM 6864 OM OM1 6864 -0.550000 15.99940
6865 OM 6865 OM OM1 6865 -0.550000 15.99940
6866 OM 6866 OM OM1 6866 -0.550000 15.99940
6867 OM 6867 OM OM1 6867 -0.550000 15.99940
6868 OM 6868 OM OM1 6868 -0.550000 15.99940
6869 OM 6869 OM OM1 6869 -0.550000 15.99940
6870 OM 6870 OM OM1 6870 -0.550000 15.99940
6871 OM 6871 OM OM1 6871 -0.550000 15.99940
6872 OM 6872 OM OM1 6872 -0.550000 15.99940
6873 OM 6873 OM OM1 6873 -0.550000 15.99940
6874 OM 6874 OM OM1 6874 -0.550000 15.99940
6875 OM 6875 OM OM1 6875 -0.550000 15.99940
6876 OM 6876 OM OM1 6876 -0.550000 15.99940
6877 OM 6877 OM OM1 6877 -0.550000 15.99940
6878 OM 6878 OM OM1 6878 -0.550000 15.99940
6879 OM 6879 OM OM1 6879 -0.550000 15.99940
6880 OM 6880 OM OM1 6880 -0.550000 15.99940
6881 OM 6881 OM OM1 6881 -0.550000 15.99940
6882 OM 6882 OM OM1 6882 -0.550000 15.99940
6883 OM 6883 OM OM1 6883 -0.550000 15.99940
6884 OM 6884 OM OM1 6884 -0.550000 15.99940
6885 OM 6885 OM OM1 6885 -0.550000 15.99940
6886 OM 6886 OM OM1 6886 -0.550000 15.99940
6887 OM 6887 OM OM1 6887 -0.550000 15.99940
6888 OM 6888 OM OM1 6888 -0.550000 15.99940
6889 OM 6889 OM OM1 6889 -0.550000 15.99940
6890 OM 6890 OM OM1 6890 -0.550000 15.99940
6891 OM 6891 OM OM1 6891 -0.550000 15.99940
6892 OM 6892 OM OM1 6892 -0.550000 15.99940
6893 OM 6893 OM OM1 6893 -0.550000 15.99940
6894 OM 6894 OM OM1 6894 -0.550000 15.99940
6895 OM 6895 OM OM1 6895 -0.550000 15.99940
6896 OM 6896 OM OM1 6896 -0.550000 15.99940
6897 OM 6897 OM OM1 6897 -0.550000 15.99940
6898 OM 6898 OM OM1 6898 -0.550000 15.99940
6899 OM 6899 OM OM1 6899 -0.550000 15.99940
6900 OM 6900 OM OM1 6900 -0.550000 15.99940
6901 OM 6901 OM OM1 6901 -0.550000 15.99940
6902 OM 6902 OM OM1 6902 -0.550000 15.99940
6903 OM 6903 OM OM1 6903 -0.550000 15.99940
6904 OM 6904 OM OM1 6904 -0.550000 15.99940
6905 OM 6905 OM OM1 6905 -0.550000 15.99940
6906 OM 6906 OM OM1 6906 -0.550000 15.99940
6907 OM 6907 OM OM1 6907 -0.550000 15.99940
6908 OM 6908 OM OM1 6908 -0.550000 15.99940
6909 OM 6909 OM OM1 6909 -0.550000 15.99940
6910 OM 6910 OM OM1 6910 -0.550000 15.99940
6911 OM 6911 OM OM1 6911 -0.550000 15.99940
6912 OM 6912 OM OM1 6912 -0.550000 15.99940
6913 OM 6913 OM OM1 6913 -0.550000 15.99940
6914 OM 6914 OM OM1 6914 -0.550000 15.99940
6915 OM 6915 OM OM1 6915 -0.550000 15.99940
6916 OM 6916 OM OM1 6916 -0.550000 15.99940
6917 OM 6917 OM OM1 6917 -0.550000 15.99940
6918 OM 6918 OM OM1 6918 -0.550000 15.99940
6919 OM 6919 OM OM1 6919 -0.550000 15.99940
6920 OM 6920 OM OM1 6920 -0.550000 15.99940
6921 OM 6921 OM OM1 6921 -0.550000 15.99940
6922 OM 6922 OM OM1 6922 -0.550000 15.99940
6923 OM 6923 OM OM1 6923 -0.550000 15.99940
6924 OM 6924 OM OM1 6924 -0.550000 15.99940
6925 OM 6925 OM OM1 6925 -0.550000 15.99940
6926 OM 6926 OM OM1 6926 -0.550000 15.99940
6927 OM 6927 OM OM1 6927 -0.550000 15.99940
6928 OM 6928 OM OM1 6928 -0.550000 15.99940
6929 OM 6929 OM OM1 6929 -0.550000 15.99940
6930 OM 6930 OM OM1 6930 -0.550000 15.99940
6931 OM 6931 OM OM1 6931 -0.550000 15.99940
6932 OM 6932 OM OM1 6932 -0.550000 15.99940
6933 OM 6933 OM OM1 6933 -0.550000 15.99940
6934 OM 6934 OM OM1 6934 -0.550000 15.99940
6935 OM 6935 OM OM1 6935 -0.550000 15.99940
6936 OM 6936 OM OM1 6936 -0.550000 15.99940
6937 OM 6937 OM OM1 6937 -0.550000 15.99940
6938 OM 6938 OM OM1 6938 -0.550000 15.99940
6939 OM 6939 OM OM1 6939 -0.550000 15.99940
6940 OM 6940 OM OM1 6940 -0.550000 15.99940
6941 OM 6941 OM OM1 6941 -0.550000 15.99940
6942 OM 6942 OM OM1 6942 -0.550000 15.99940
6943 OM 6943 OM OM1 6943 -0.550000 15.99940
6944 OM 6944 OM OM1 6944 -0.550000 15.99940
6945 OM 6945 OM OM1 6945 -0.550000 15.99940
6946 OM 6946 OM OM1 6946 -0.550000 15.99940
6947 OM 6947 OM OM1 6947 -0.550000 15.99940
6948 OM 6948 OM OM1 6948 -0.550000 15.99940
6949 OM 6949 OM OM1 6949 -0.550000 15.99940
6950 OM 6950 OM OM1 6950 -0.550000 15.99940
6951 OM 6951 OM OM1 6951 -0.550000 15.99940
6952 OM 6952 OM OM1 6952 -0.550000 15.99940
6953 OM 6953 OM OM1 6953 -0.550000 15.99940
6954 OM 6954 OM OM1 6954 -0.550000 15.99940
6955 OM 6955 OM OM1 6955 -0.550000 15.99940
6956 OM 6956 OM OM1 6956 -0.550000 15.99940
6957 OM 6957 OM OM1 6957 -0.550000 15.99940
6958 OM 6958 OM OM1 6958 -0.550000 15.99940
6959 OM 6959 OM OM1 6959 -0.550000 15.99940
6960 OM 6960 OM OM1 6960 -0.550000 15.99940
6961 OM 6961 OM OM1 6961 -0.550000 15.99940
6962 OM 6962 OM OM1 6962 -0.550000 15.99940
6963 OM 6963 OM OM1 6963 -0.550000 15.99940
6964 OM 6964 OM OM1 6964 -0.550000 15.99940
6965 OM 6965 OM OM1 6965 -0.550000 15.99940
6966 OM 6966 OM OM1 6966 -0.550000 15.99940
6967 OM 6967 OM OM1 6967 -0.550000 15.99940
6968 OM 6968 OM OM1 6968 -0.550000 15.99940
6969 OM 6969 OM OM1 6969 -0.550000 15.99940
6970 OM 6970 OM OM1 6970 -0.550000 15.99940
6971 OM 6971 OM OM1 6971 -0.550000 15.99940
6972 OM 6972 OM OM1 6972 -0.550000 15.99940
6973 OM 6973 OM OM1 6973 -0.550000 15.99940
6974 OM 6974 OM OM1 6974 -0.550000 15.99940
6975 OM 6975 OM OM1 6975 -0.550000 15.99940
6976 OM 6976 OM OM1 6976 -0.550000 15.99940
6977 OM 6977 OM OM1 6977 -0.550000 15.99940
6978 OM 6978 OM OM1 6978 -0.550000 15.99940
6979 OM 6979 OM OM1 6979 -0.550000 15.99940
6980 OM 6980 OM OM1 6980 -0.550000 15.99940
6981 OM 6981 OM OM1 6981 -0.550000 15.99940
6982 OM 6982 OM OM1 6982 -0.550000 15.99940
6983 OM 6983 OM OM1 6983 -0.550000 15.99940
6984 OM 6984 OM OM1 6984 -0.550000 15.99940
6985 OM 6985 OM OM1 6985 -0.550000 15.99940
6986 OM 6986 OM OM1 6986 -0.550000 15.99940
6987 OM 6987 OM OM1 6987 -0.550000 15.99940
6988 OM 6988 OM OM1 6988 -0.550000 15.99940
6989 OM 6989 OM OM1 6989 -0.550000 15.99940
6990 OM 6990 OM OM1 6990 -0.550000 15.99940
6991 OM 6991 OM OM1 6991 -0.550000 15.99940
6992 OM 6992 OM OM1 6992 -0.550000 15.99940
6993 OM 6993 OM OM1 6993 -0.550000 15.99940
6994 OM 6994 OM OM1 6994 -0.550000 15.99940
6995 OM 6995 OM OM1 6995 -0.550000 15.99940
6996 OM 6996 OM OM1 6996 -0.550000 15.99940
6997 OM 6997 OM OM1 6997 -0.550000 15.99940
6998 OM 6998 OM OM1 6998 -0.550000 15.99940
6999 OM 6999 OM OM1 6999 -0.550000 15.99940
7000 OM 7000 OM OM1 7000 -0.550000 15.99940
7001 OM 7001 OM OM1 7001 -0.550000 15.99940
7002 OM 7002 OM OM1 7002 -0.550000 15.99940
7003 OM 7003 OM OM1 7003 -0.550000 15.99940
7004 OM 7004 OM OM1 7004 -0.550000 15.99940
7005 OM 7005 OM OM1 7005 -0.550000 15.99940
7006 OM 7006 OM OM1 7006 -0.550000 15.99940
7007 OM 7007 OM OM1 7007 -0.550000 15.99940
7008 OM 7008 OM OM1 7008 -0.550000 15.99940
7009 OM 7009 OM OM1 7009 -0.550000 15.99940
7010 OM 7010 OM OM1 7010 -0.550000 15.99940
7011 OM 7011 OM OM1 7011 -0.550000 15.99940
7012 OM 7012 OM OM1 7012 -0.550000 15.99940
7013 OM 7013 OM OM1 7013 -0.550000 15.99940
7014 OM 7014 OM OM1 7014 -0.550000 15.99940
7015 OM 7015 OM OM1 7015 -0.550000 15.99940
7016 OM 7016 OM OM1 7016 -0.550000 15.99940
7017 OM 7017 OM OM1 7017 -0.550000 15.99940
7018 OM 7018 OM OM1 7018 -0.550000 15.99940
7019 OM 7019 OM OM1 7019 -0.550000 15.99940
7020 OM 7020 OM OM1 7020 -0.550000 15.99940
7021 OM 7021 OM OM1 7021 -0.550000 15.99940
7022 OM 7022 OM OM1 7022 -0.550000 15.99940
7023 OM 7023 OM OM1 7023 -0.550000 15.99940
7024 OM 7024 OM OM1 7024 -0.550000 15.99940
7025 OM 7025 OM OM1 7025 -0.550000 15.99940
7026 OM 7026 OM OM1 7026 -0.550000 15.99940
7027 OM 7027 OM OM1 7027 -0.550000 15.99940
7028 OM 7028 OM OM1 7028 -0.550000 15.99940
7029 OM 7029 OM OM1 7029 -0.550000 15.99940
7030 OM 7030 OM OM1 7030 -0.550000 15.99940
7031 OM 7031 OM OM1 7031 -0.550000 15.99940
7032 OM 7032 OM OM1 7032 -0.550000 15.99940
7033 OM 7033 OM OM1 7033 -0.550000 15.99940
7034 OM 7034 OM OM1 7034 -0.550000 15.99940
7035 OM 7035 OM OM1 7035 -0.550000 15.99940
7036 OM 7036 OM OM1 7036 -0.550000 15.99940
7037 OM 7037 OM OM1 7037 -0.550000 15.99940
7038 OM 7038 OM OM1 7038 -0.550000 15.99940
7039 OM 7039 OM OM1 7039 -0.550000 15.99940
7040 OM 7040 OM OM1 7040 -0.550000 15.99940
7041 OM 7041 OM OM1 7041 -0.550000 15.99940
7042 OM 7042 OM OM1 7042 -0.550000 15.99940
7043 OM 7043 OM OM1 7043 -0.550000 15.99940
7044 OM 7044 OM OM1 7044 -0.550000 15.99940
7045 OM 7045 OM OM1 7045 -0.550000 15.99940
7046 OM 7046 OM OM1 7046 -0.550000 15.99940
7047 OM 7047 OM OM1 7047 -0.550000 15.99940
7048 OM 7048 OM OM1 7048 -0.550000 15.99940
7049 OM 7049 OM OM1 7049 -0.550000 15.99940
7050 OM 7050 OM OM1 7050 -0.550000 15.99940
7051 OM 7051 OM OM1 7051 -0.550000 15.99940
7052 OM 7052 OM OM1 7052 -0.550000 15.99940
7053 OM 7053 OM OM1 7053 -0.550000 15.99940
7054 OM 7054 OM OM1 7054 -0.550000 15.99940
7055 OM 7055 OM OM1 7055 -0.550000 15.99940
7056 OM 7056 OM OM1 7056 -0.550000 15.99940
7057 OM 7057 OM OM1 7057 -0.550000 15.99940
7058 OM 7058 OM OM1 7058 -0.550000 15.99940
7059 OM 7059 OM OM1 7059 -0.550000 15.99940
7060 OM 7060 OM OM1 7060 -0.550000 15.99940
7061 OM 7061 OM OM1 7061 -0.550000 15.99940
7062 OM 7062 OM OM1 7062 -0.550000 15.99940
7063 OM 7063 OM OM1 7063 -0.550000 15.99940
7064 OM 7064 OM OM1 7064 -0.550000 15.99940
7065 OM 7065 OM OM1 7065 -0.550000 15.99940
7066 OM 7066 OM OM1 7066 -0.550000 15.99940
7067 OM 7067 OM OM1 7067 -0.550000 15.99940
7068 OM 7068 OM OM1 7068 -0.550000 15.99940
7069 OM 7069 OM OM1 7069 -0.550000 15.99940
7070 OM 7070 OM OM1 7070 -0.550000 15.99940
7071 OM 7071 OM OM1 7071 -0.550000 15.99940
7072 OM 7072 OM OM1 7072 -0.550000 15.99940
7073 OM 7073 OM OM1 7073 -0.550000 15.99940
7074 OM 7074 OM OM1 7074 -0.550000 15.99940
7075 OM 7075 OM OM1 7075 -0.550000 15.99940
7076 OM 7076 OM OM1 7076 -0.550000 15.99940
7077 OM 7077 OM OM1 7077 -0.550000 15.99940
7078 OM 7078 OM OM1 7078 -0.550000 15.99940
7079 OM 7079 OM OM1 7079 -0.550000 15.99940
7080 OM 7080 OM OM1 7080 -0.550000 15.99940
7081 OM 7081 OM OM1 7081 -0.550000 15.99940
7082 OM 7082 OM OM1 7082 -0.550000 15.99940
7083 OM 7083 OM OM1 7083 -0.550000 15.99940
7084 OM 7084 OM OM1 7084 -0.550000 15.99940
7085 OM 7085 OM OM1 7085 -0.550000 15.99940
7086 OM 7086 OM OM1 7086 -0.550000 15.99940
7087 OM 7087 OM OM1 7087 -0.550000 15.99940
7088 OM 7088 OM OM1 7088 -0.550000 15.99940
7089 OM 7089 OM OM1 7089 -0.550000 15.99940
7090 OM 7090 OM OM1 7090 -0.550000 15.99940
7091 OM 7091 OM OM1 7091 -0.550000 15.99940
7092 OM 7092 OM OM1 7092 -0.550000 15.99940
7093 OM 7093 OM OM1 7093 -0.550000 15.99940
7094 OM 7094 OM OM1 7094 -0.550000 15.99940
7095 OM 7095 OM OM1 7095 -0.550000 15.99940
7096 OM 7096 OM OM1 7096 -0.550000 15.99940
7097 OM 7097 OM OM1 7097 -0.550000 15.99940
7098 OM 7098 OM OM1 7098 -0.550000 15.99940
7099 OM 7099 OM OM1 7099 -0.550000 15.99940
7100 OM 7100 OM OM1 7100 -0.550000 15.99940
7101 OM 7101 OM OM1 7101 -0.550000 15.99940
7102 OM 7102 OM OM1 7102 -0.550000 15.99940
7103 OM 7103 OM OM1 7103 -0.550000 15.99940
7104 OM 7104 OM OM1 7104 -0.550000 15.99940
7105 OM 7105 OM OM1 7105 -0.550000 15.99940
7106 OM 7106 OM OM1 7106 -0.550000 15.99940
7107 OM 7107 OM OM1 7107 -0.550000 15.99940
7108 OM 7108 OM OM1 7108 -0.550000 15.99940
7109 OM 7109 OM OM1 7109 -0.550000 15.99940
7110 OM 7110 OM OM1 7110 -0.550000 15.99940
7111 OM 7111 OM OM1 7111 -0.550000 15.99940
7112 OM 7112 OM OM1 7112 -0.550000 15.99940
7113 OM 7113 OM OM1 7113 -0.550000 15.99940
7114 OM 7114 OM OM1 7114 -0.550000 15.99940
7115 OM 7115 OM OM1 7115 -0.550000 15.99940
7116 OM 7116 OM OM1 7116 -0.550000 15.99940
7117 OM 7117 OM OM1 7117 -0.550000 15.99940
7118 OM 7118 OM OM1 7118 -0.550000 15.99940
7119 OM 7119 OM OM1 7119 -0.550000 15.99940
7120 OM 7120 OM OM1 7120 -0.550000 15.99940
7121 OM 7121 OM OM1 7121 -0.550000 15.99940
7122 OM 7122 OM OM1 7122 -0.550000 15.99940
7123 OM 7123 OM OM1 7123 -0.550000 15.99940
7124 OM 7124 OM OM1 7124 -0.550000 15.99940
7125 OM 7125 OM OM1 7125 -0.550000 15.99940
7126 OM 7126 OM OM1 7126 -0.550000 15.99940
7127 OM 7127 OM OM1 7127 -0.550000 15.99940
7128 OM 7128 OM OM1 7128 -0.550000 15.99940
7129 OM 7129 OM OM1 7129 -0.550000 15.99940
7130 OM 7130 OM OM1 7130 -0.550000 15.99940
7131 OM 7131 OM OM1 7131 -0.550000 15.99940
7132 OM 7132 OM OM1 7132 -0.550000 15.99940
7133 OM 7133 OM OM1 7133 -0.550000 15.99940
7134 OM 7134 OM OM1 7134 -0.550000 15.99940
7135 OM 7135 OM OM1 7135 -0.550000 15.99940
7136 OM 7136 OM OM1 7136 -0.550000 15.99940
7137 OM 7137 OM OM1 7137 -0.550000 15.99940
7138 OM 7138 OM OM1 7138 -0.550000 15.99940
7139 OM 7139 OM OM1 7139 -0.550000 15.99940
7140 OM 7140 OM OM1 7140 -0.550000 15.99940
7141 OM 7141 OM OM1 7141 -0.550000 15.99940
7142 OM 7142 OM OM1 7142 -0.550000 15.99940
7143 OM 7143 OM OM1 7143 -0.550000 15.99940
7144 OM 7144 OM OM1 7144 -0.550000 15.99940
7145 OM 7145 OM OM1 7145 -0.550000 15.99940
7146 OM 7146 OM OM1 7146 -0.550000 15.99940
7147 OM 7147 OM OM1 7147 -0.550000 15.99940
7148 OM 7148 OM OM1 7148 -0.550000 15.99940
7149 OM 7149 OM OM1 7149 -0.550000 15.99940
7150 OM 7150 OM OM1 7150 -0.550000 15.99940
7151 OM 7151 OM OM1 7151 -0.550000 15.99940
7152 OM 7152 OM OM1 7152 -0.550000 15.99940
7153 OM 7153 OM OM1 7153 -0.550000 15.99940
7154 OM 7154 OM OM1 7154 -0.550000 15.99940
7155 OM 7155 OM OM1 7155 -0.550000 15.99940
7156 OM 7156 OM OM1 7156 -0.550000 15.99940
7157 OM 7157 OM OM1 7157 -0.550000 15.99940
7158 OM 7158 OM OM1 7158 -0.550000 15.99940
7159 OM 7159 OM OM1 7159 -0.550000 15.99940
7160 OM 7160 OM OM1 7160 -0.550000 15.99940
7161 OM 7161 OM OM1 7161 -0.550000 15.99940
7162 OM 7162 OM OM1 7162 -0.550000 15.99940
7163 OM 7163 OM OM1 7163 -0.550000 15.99940
7164 OM 7164 OM OM1 7164 -0.550000 15.99940
7165 OM 7165 OM OM1 7165 -0.550000 15.99940
7166 OM 7166 OM OM1 7166 -0.550000 15.99940
7167 OM 7167 OM OM1 7167 -0.550000 15.99940
7168 OM 7168 OM OM1 7168 -0.550000 15.99940
7169 OM 7169 OM OM1 7169 -0.550000 15.99940
7170 OM 7170 OM OM1 7170 -0.550000 15.99940
7171 OM 7171 OM OM1 7171 -0.550000 15.99940
7172 OM 7172 OM OM1 7172 -0.550000 15.99940
7173 OM 7173 OM OM1 7173 -0.550000 15.99940
7174 OM 7174 OM OM1 7174 -0.550000 15.99940
7175 OM 7175 OM OM1 7175 -0.550000 15.99940
7176 OM 7176 OM OM1 7176 -0.550000 15.99940
7177 OM 7177 OM OM1 7177 -0.550000 15.99940
7178 OM 7178 OM OM1 7178 -0.550000 15.99940
7179 OM 7179 OM OM1 7179 -0.550000 15.99940
7180 OM 7180 OM OM1 7180 -0.550000 15.99940
7181 OM 7181 OM OM1 7181 -0.550000 15.99940
7182 OM 7182 OM OM1 7182 -0.550000 15.99940
7183 OM 7183 OM OM1 7183 -0.550000 15.99940
7184 OM 7184 OM OM1 7184 -0.550000 15.99940
7185 OM 7185 OM OM1 7185 -0.550000 15.99940
7186 OM 7186 OM OM1 7186 -0.550000 15.99940
7187 OM 7187 OM OM1 7187 -0.550000 15.99940
7188 OM 7188 OM OM1 7188 -0.550000 15.99940
7189 OM 7189 OM OM1 7189 -0.550000 15.99940
7190 OM 7190 OM OM1 7190 -0.550000 15.99940
7191 OM 7191 OM OM1 7191 -0.550000 15.99940
7192 OM 7192 OM OM1 7192 -0.550000 15.99940
7193 OM 7193 OM OM1 7193 -0.550000 15.99940
7194 OM 7194 OM OM1 7194 -0.550000 15.99940
7195 OM 7195 OM OM1 7195 -0.550000 15.99940
7196 OM 7196 OM OM1 7196 -0.550000 15.99940
7197 OM 7197 OM OM1 7197 -0.550000 15.99940
7198 OM 7198 OM OM1 7198 -0.550000 15.99940
7199 OM 7199 OM OM1 7199 -0.550000 15.99940
7200 OM 7200 OM OM1 7200 -0.550000 15.99940
7201 OM 7201 OM OM1 7201 -0.550000 15.99940
7202 OM 7202 OM OM1 7202 -0.550000 15.99940
7203 OM 7203 OM OM1 7203 -0.550000 15.99940
7204 OM 7204 OM OM1 7204 -0.550000 15.99940
7205 OM 7205 OM OM1 7205 -0.550000 15.99940
7206 OM 7206 OM OM1 7206 -0.550000 15.99940
7207 OM 7207 OM OM1 7207 -0.550000 15.99940
7208 OM 7208 OM OM1 7208 -0.550000 15.99940
7209 OM 7209 OM OM1 7209 -0.550000 15.99940
7210 OM 7210 OM OM1 7210 -0.550000 15.99940
7211 OM 7211 OM OM1 7211 -0.550000 15.99940
7212 OM 7212 OM OM1 7212 -0.550000 15.99940
7213 OM 7213 OM OM1 7213 -0.550000 15.99940
7214 OM 7214 OM OM1 7214 -0.550000 15.99940
7215 OM 7215 OM OM1 7215 -0.550000 15.99940
7216 OM 7216 OM OM1 7216 -0.550000 15.99940
7217 OM 7217 OM OM1 7217 -0.550000 15.99940
7218 OM 7218 OM OM1 7218 -0.550000 15.99940
7219 OM 7219 OM OM1 7219 -0.550000 15.99940
7220 OM 7220 OM OM1 7220 -0.550000 15.99940
7221 OM 7221 OM OM1 7221 -0.550000 15.99940
7222 OM 7222 OM OM1 7222 -0.550000 15.99940
7223 OM 7223 OM OM1 7223 -0.550000 15.99940
7224 OM 7224 OM OM1 7224 -0.550000 15.99940
7225 OM 7225 OM OM1 7225 -0.550000 15.99940
7226 OM 7226 OM OM1 7226 -0.550000 15.99940
7227 OM 7227 OM OM1 7227 -0.550000 15.99940
7228 OM 7228 OM OM1 7228 -0.550000 15.99940
7229 OM 7229 OM OM1 7229 -0.550000 15.99940
7230 OM 7230 OM OM1 7230 -0.550000 15.99940
7231 OM 7231 OM OM1 7231 -0.550000 15.99940
7232 OM 7232 OM OM1 7232 -0.550000 15.99940
7233 OM 7233 OM OM1 7233 -0.550000 15.99940
7234 OM 7234 OM OM1 7234 -0.550000 15.99940
7235 OM 7235 OM OM1 7235 -0.550000 15.99940
7236 OM 7236 OM OM1 7236 -0.550000 15.99940
7237 OM 7237 OM OM1 7237 -0.550000 15.99940
7238 OM 7238 OM OM1 7238 -0.550000 15.99940
7239 OM 7239 OM OM1 7239 -0.550000 15.99940
7240 OM 7240 OM OM1 7240 -0.550000 15.99940
7241 OM 7241 OM OM1 7241 -0.550000 15.99940
7242 OM 7242 OM OM1 7242 -0.550000 15.99940
7243 OM 7243 OM OM1 7243 -0.550000 15.99940
7244 OM 7244 OM OM1 7244 -0.550000 15.99940
7245 OM 7245 OM OM1 7245 -0.550000 15.99940
7246 OM 7246 OM OM1 7246 -0.550000 15.99940
7247 OM 7247 OM OM1 7247 -0.550000 15.99940
7248 OM 7248 OM OM1 7248 -0.550000 15.99940
7249 OM 7249 OM OM1 7249 -0.550000 15.99940
7250 OM 7250 OM OM1 7250 -0.550000 15.99940
7251 OM 7251 OM OM1 7251 -0.550000 15.99940
7252 OM 7252 OM OM1 7252 -0.550000 15.99940
7253 OM 7253 OM OM1 7253 -0.550000 15.99940
7254 OM 7254 OM OM1 7254 -0.550000 15.99940
7255 OM 7255 OM OM1 7255 -0.550000 15.99940
7256 OM 7256 OM OM1 7256 -0.550000 15.99940
7257 OM 7257 OM OM1 7257 -0.550000 15.99940
7258 OM 7258 OM OM1 7258 -0.550000 15.99940
7259 OM 7259 OM OM1 7259 -0.550000 15.99940
7260 OM 7260 OM OM1 7260 -0.550000 15.99940
7261 OM 7261 OM OM1 7261 -0.550000 15.99940
7262 OM 7262 OM OM1 7262 -0.550000 15.99940
7263 OM 7263 OM OM1 7263 -0.550000 15.99940
7264 OM 7264 OM OM1 7264 -0.550000 15.99940
7265 OM 7265 OM OM1 7265 -0.550000 15.99940
7266 OM 7266 OM OM1 7266 -0.550000 15.99940
7267 OM 7267 OM OM1 7267 -0.550000 15.99940
7268 OM 7268 OM OM1 7268 -0.550000 15.99940
7269 OM 7269 OM OM1 7269 -0.550000 15.99940
7270 OM 7270 OM OM1 7270 -0.550000 15.99940
7271 OM 7271 OM OM1 7271 -0.550000 15.99940
7272 OM 7272 OM OM1 7272 -0.550000 15.99940
7273 OM 7273 OM OM1 7273 -0.550000 15.99940
7274 OM 7274 OM OM1 7274 -0.550000 15.99940
7275 OM 7275 OM OM1 7275 -0.550000 15.99940
7276 OM 7276 OM OM1 7276 -0.550000 15.99940
7277 OM 7277 OM OM1 7277 -0.550000 15.99940
7278 OM 7278 OM OM1 7278 -0.550000 15.99940
7279 OM 7279 OM OM1 7279 -0.550000 15.99940
7280 OM 7280 OM OM1 7280 -0.550000 15.99940
7281 OM 7281 OM OM1 7281 -0.550000 15.99940
7282 OM 7282 OM OM1 7282 -0.550000 15.99940
7283 OM 7283 OM OM1 7283 -0.550000 15.99940
7284 OM 7284 OM OM1 7284 -0.550000 15.99940
7285 OM 7285 OM OM1 7285 -0.550000 15.99940
7286 OM 7286 OM OM1 7286 -0.550000 15.99940
7287 OM 7287 OM OM1 7287 -0.550000 15.99940
7288 OM 7288 OM OM1 7288 -0.550000 15.99940
7289 OM 7289 OM OM1 7289 -0.550000 15.99940
7290 OM 7290 OM OM1 7290 -0.550000 15.99940
7291 OM 7291 OM OM1 7291 -0.550000 15.99940
7292 OM 7292 OM OM1 7292 -0.550000 15.99940
7293 OM 7293 OM OM1 7293 -0.550000 15.99940
7294 OM 7294 OM OM1 7294 -0.550000 15.99940
7295 OM 7295 OM OM1 7295 -0.550000 15.99940
7296 OM 7296 OM OM1 7296 -0.550000 15.99940
7297 OM 7297 OM OM1 7297 -0.550000 15.99940
7298 OM 7298 OM OM1 7298 -0.550000 15.99940
7299 OM 7299 OM OM1 7299 -0.550000 15.99940
7300 OM 7300 OM OM1 7300 -0.550000 15.99940
7301 OM 7301 OM OM1 7301 -0.550000 15.99940
7302 OM 7302 OM OM1 7302 -0.550000 15.99940
7303 OM 7303 OM OM1 7303 -0.550000 15.99940
7304 OM 7304 OM OM1 7304 -0.550000 15.99940
7305 OM 7305 OM OM1 7305 -0.550000 15.99940
7306 OM 7306 OM OM1 7306 -0.550000 15.99940
7307 OM 7307 OM OM1 7307 -0.550000 15.99940
7308 OM 7308 OM OM1 7308 -0.550000 15.99940
7309 OM 7309 OM OM1 7309 -0.550000 15.99940
7310 OM 7310 OM OM1 7310 -0.550000 15.99940
7311 OM 7311 OM OM1 7311 -0.550000 15.99940
7312 OM 7312 OM OM1 7312 -0.550000 15.99940
7313 OM 7313 OM OM1 7313 -0.550000 15.99940
7314 OM 7314 OM OM1 7314 -0.550000 15.99940
7315 OM 7315 OM OM1 7315 -0.550000 15.99940
7316 OM 7316 OM OM1 7316 -0.550000 15.99940
7317 OM 7317 OM OM1 7317 -0.550000 15.99940
7318 OM 7318 OM OM1 7318 -0.550000 15.99940
7319 OM 7319 OM OM1 7319 -0.550000 15.99940
7320 OM 7320 OM OM1 7320 -0.550000 15.99940
7321 OM 7321 OM OM1 7321 -0.550000 15.99940
7322 OM 7322 OM OM1 7322 -0.550000 15.99940
7323 OM 7323 OM OM1 7323 -0.550000 15.99940
7324 OM 7324 OM OM1 7324 -0.550000 15.99940
7325 OM 7325 OM OM1 7325 -0.550000 15.99940
7326 OM 7326 OM OM1 7326 -0.550000 15.99940
7327 OM 7327 OM OM1 7327 -0.550000 15.99940
7328 OM 7328 OM OM1 7328 -0.550000 15.99940
7329 OM 7329 OM OM1 7329 -0.550000 15.99940
7330 OM 7330 OM OM1 7330 -0.550000 15.99940
7331 OM 7331 OM OM1 7331 -0.550000 15.99940
7332 OM 7332 OM OM1 7332 -0.550000 15.99940
7333 OM 7333 OM OM1 7333 -0.550000 15.99940
7334 OM 7334 OM OM1 7334 -0.550000 15.99940
7335 OM 7335 OM OM1 7335 -0.550000 15.99940
7336 OM 7336 OM OM1 7336 -0.550000 15.99940
7337 OM 7337 OM OM1 7337 -0.550000 15.99940
7338 OM 7338 OM OM1 7338 -0.550000 15.99940
7339 OM 7339 OM OM1 7339 -0.550000 15.99940
7340 OM 7340 OM OM1 7340 -0.550000 15.99940
7341 OM 7341 OM OM1 7341 -0.550000 15.99940
7342 OM 7342 OM OM1 7342 -0.550000 15.99940
7343 OM 7343 OM OM1 7343 -0.550000 15.99940
7344 OM 7344 OM OM1 7344 -0.550000 15.99940
7345 OM 7345 OM OM1 7345 -0.550000 15.99940
7346 OM 7346 OM OM1 7346 -0.550000 15.99940
7347 OM 7347 OM OM1 7347 -0.550000 15.99940
7348 OM 7348 OM OM1 7348 -0.550000 15.99940
7349 OM 7349 OM OM1 7349 -0.550000 15.99940
7350 OM 7350 OM OM1 7350 -0.550000 15.99940
7351 OM 7351 OM OM1 7351 -0.550000 15.99940
7352 OM 7352 OM OM1 7352 -0.550000 15.99940
7353 OM 7353 OM OM1 7353 -0.550000 15.99940
7354 OM 7354 OM OM1 7354 -0.550000 15.99940
7355 OM 7355 OM OM1 7355 -0.550000 15.99940
7356 OM 7356 OM OM1 7356 -0.550000 15.99940
7357 OM 7357 OM OM1 7357 -0.550000 15.99940
7358 OM 7358 OM OM1 7358 -0.550000 15.99940
7359 OM 7359 OM OM1 7359 -0.550000 15.99940
7360 OM 7360 OM OM1 7360 -0.550000 15.99940
7361 OM 7361 OM OM1 7361 -0.550000 15.99940
7362 OM 7362 OM OM1 7362 -0.550000 15.99940
7363 OM 7363 OM OM1 7363 -0.550000 15.99940
7364 OM 7364 OM OM1 7364 -0.550000 15.99940
7365 OM 7365 OM OM1 7365 -0.550000 15.99940
7366 OM 7366 OM OM1 7366 -0.550000 15.99940
7367 OM 7367 OM OM1 7367 -0.550000 15.99940
7368 OM 7368 OM OM1 7368 -0.550000 15.99940
7369 OM 7369 OM OM1 7369 -0.550000 15.99940
7370 OM 7370 OM OM1 7370 -0.550000 15.99940
7371 OM 7371 OM OM1 7371 -0.550000 15.99940
7372 OM 7372 OM OM1 7372 -0.550000 15.99940
7373 OM 7373 OM OM1 7373 -0.550000 15.99940
7374 OM 7374 OM OM1 7374 -0.550000 15.99940
7375 OM 7375 OM OM1 7375 -0.550000 15.99940
7376 OM 7376 OM OM1 7376 -0.550000 15.99940
7377 OM 7377 OM OM1 7377 -0.550000 15.99940
7378 OM 7378 OM OM1 7378 -0.550000 15.99940
7379 OM 7379 OM OM1 7379 -0.550000 15.99940
7380 OM 7380 OM OM1 7380 -0.550000 15.99940
7381 OM 7381 OM OM1 7381 -0.550000 15.99940
7382 OM 7382 OM OM1 7382 -0.550000 15.99940
7383 OM 7383 OM OM1 7383 -0.550000 15.99940
7384 OM 7384 OM OM1 7384 -0.550000 15.99940
7385 OM 7385 OM OM1 7385 -0.550000 15.99940
7386 OM 7386 OM OM1 7386 -0.550000 15.99940
7387 OM 7387 OM OM1 7387 -0.550000 15.99940
7388 OM 7388 OM OM1 7388 -0.550000 15.99940
7389 OM 7389 OM OM1 7389 -0.550000 15.99940
7390 OM 7390 OM OM1 7390 -0.550000 15.99940
7391 OM 7391 OM OM1 7391 -0.550000 15.99940
7392 OM 7392 OM OM1 7392 -0.550000 15.99940
7393 OM 7393 OM OM1 7393 -0.550000 15.99940
7394 OM 7394 OM OM1 7394 -0.550000 15.99940
7395 OM 7395 OM OM1 7395 -0.550000 15.99940
7396 OM 7396 OM OM1 7396 -0.550000 15.99940
7397 OM 7397 OM OM1 7397 -0.550000 15.99940
7398 OM 7398 OM OM1 7398 -0.550000 15.99940
7399 OM 7399 OM OM1 7399 -0.550000 15.99940
7400 OM 7400 OM OM1 7400 -0.550000 15.99940
7401 OM 7401 OM OM1 7401 -0.550000 15.99940
7402 OM 7402 OM OM1 7402 -0.550000 15.99940
7403 OM 7403 OM OM1 7403 -0.550000 15.99940
7404 OM 7404 OM OM1 7404 -0.550000 15.99940
7405 OM 7405 OM OM1 7405 -0.550000 15.99940
7406 OM 7406 OM OM1 7406 -0.550000 15.99940
7407 OM 7407 OM OM1 7407 -0.550000 15.99940
7408 OM 7408 OM OM1 7408 -0.550000 15.99940
7409 OM 7409 OM OM1 7409 -0.550000 15.99940
7410 OM 7410 OM OM1 7410 -0.550000 15.99940
7411 OM 7411 OM OM1 7411 -0.550000 15.99940
7412 OM 7412 OM OM1 7412 -0.550000 15.99940
7413 OM 7413 OM OM1 7413 -0.550000 15.99940
7414 OM 7414 OM OM1 7414 -0.550000 15.99940
7415 OM 7415 OM OM1 7415 -0.550000 15.99940
7416 OM 7416 OM OM1 7416 -0.550000 15.99940
7417 OM 7417 OM OM1 7417 -0.550000 15.99940
7418 OM 7418 OM OM1 7418 -0.550000 15.99940
7419 OM 7419 OM OM1 7419 -0.550000 15.99940
7420 OM 7420 OM OM1 7420 -0.550000 15.99940
7421 OM 7421 OM OM1 7421 -0.550000 15.99940
7422 OM 7422 OM OM1 7422 -0.550000 15.99940
7423 OM 7423 OM OM1 7423 -0.550000 15.99940
7424 OM 7424 OM OM1 7424 -0.550000 15.99940
7425 OM 7425 OM OM1 7425 -0.550000 15.99940
7426 OM 7426 OM OM1 7426 -0.550000 15.99940
7427 OM 7427 OM OM1 7427 -0.550000 15.99940
7428 OM 7428 OM OM1 7428 -0.550000 15.99940
7429 OM 7429 OM OM1 7429 -0.550000 15.99940
7430 OM 7430 OM OM1 7430 -0.550000 15.99940
7431 OM 7431 OM OM1 7431 -0.550000 15.99940
7432 OM 7432 OM OM1 7432 -0.550000 15.99940
7433 OM 7433 OM OM1 7433 -0.550000 15.99940
7434 OM 7434 OM OM1 7434 -0.550000 15.99940
7435 OM 7435 OM OM1 7435 -0.550000 15.99940
7436 OM 7436 OM OM1 7436 -0.550000 15.99940
7437 OM 7437 OM OM1 7437 -0.550000 15.99940
7438 OM 7438 OM OM1 7438 -0.550000 15.99940
7439 OM 7439 OM OM1 7439 -0.550000 15.99940
7440 OM 7440 OM OM1 7440 -0.550000 15.99940
7441 OM 7441 OM OM1 7441 -0.550000 15.99940
7442 OM 7442 OM OM1 7442 -0.550000 15.99940
7443 OM 7443 OM OM1 7443 -0.550000 15.99940
7444 OM 7444 OM OM1 7444 -0.550000 15.99940
7445 OM 7445 OM OM1 7445 -0.550000 15.99940
7446 OM 7446 OM OM1 7446 -0.550000 15.99940
7447 OM 7447 OM OM1 7447 -0.550000 15.99940
7448 OM 7448 OM OM1 7448 -0.550000 15.99940
7449 OM 7449 OM OM1 7449 -0.550000 15.99940
7450 OM 7450 OM OM1 7450 -0.550000 15.99940
7451 OM 7451 OM OM1 7451 -0.550000 15.99940
7452 OM 7452 OM OM1 7452 -0.550000 15.99940
7453 OM 7453 OM OM1 7453 -0.550000 15.99940
7454 OM 7454 OM OM1 7454 -0.550000 15.99940
7455 OM 7455 OM OM1 7455 -0.550000 15.99940
7456 OM 7456 OM OM1 7456 -0.550000 15.99940
7457 OM 7457 OM OM1 7457 -0.550000 15.99940
7458 OM 7458 OM OM1 7458 -0.550000 15.99940
7459 OM 7459 OM OM1 7459 -0.550000 15.99940
7460 OM 7460 OM OM1 7460 -0.550000 15.99940
7461 OM 7461 OM OM1 7461 -0.550000 15.99940
7462 OM 7462 OM OM1 7462 -0.550000 15.99940
7463 OM 7463 OM OM1 7463 -0.550000 15.99940
7464 OM 7464 OM OM1 7464 -0.550000 15.99940
7465 OM 7465 OM OM1 7465 -0.550000 15.99940
7466 OM 7466 OM OM1 7466 -0.550000 15.99940
7467 OM 7467 OM OM1 7467 -0.550000 15.99940
7468 OM 7468 OM OM1 7468 -0.550000 15.99940
7469 OM 7469 OM OM1 7469 -0.550000 15.99940
7470 OM 7470 OM OM1 7470 -0.550000 15.99940
7471 OM 7471 OM OM1 7471 -0.550000 15.99940
7472 OM 7472 OM OM1 7472 -0.550000 15.99940
7473 OM 7473 OM OM1 7473 -0.550000 15.99940
7474 OM 7474 OM OM1 7474 -0.550000 15.99940
7475 OM 7475 OM OM1 7475 -0.550000 15.99940
7476 OM 7476 OM OM1 7476 -0.550000 15.99940
7477 OM 7477 OM OM1 7477 -0.550000 15.99940
7478 OM 7478 OM OM1 7478 -0.550000 15.99940
7479 OM 7479 OM OM1 7479 -0.550000 15.99940
7480 OM 7480 OM OM1 7480 -0.550000 15.99940
7481 OM 7481 OM OM1 7481 -0.550000 15.99940
7482 OM 7482 OM OM1 7482 -0.550000 15.99940
7483 OM 7483 OM OM1 7483 -0.550000 15.99940
7484 OM 7484 OM OM1 7484 -0.550000 15.99940
7485 OM 7485 OM OM1 7485 -0.550000 15.99940
7486 OM 7486 OM OM1 7486 -0.550000 15.99940
7487 OM 7487 OM OM1 7487 -0.550000 15.99940
7488 OM 7488 OM OM1 7488 -0.550000 15.99940
7489 OM 7489 OM OM1 7489 -0.550000 15.99940
7490 OM 7490 OM OM1 7490 -0.550000 15.99940
7491 OM 7491 OM OM1 7491 -0.550000 15.99940
7492 OM 7492 OM OM1 7492 -0.550000 15.99940
7493 OM 7493 OM OM1 7493 -0.550000 15.99940
7494 OM 7494 OM OM1 7494 -0.550000 15.99940
7495 OM 7495 OM OM1 7495 -0.550000 15.99940
7496 OM 7496 OM OM1 7496 -0.550000 15.99940
7497 OM 7497 OM OM1 7497 -0.550000 15.99940
7498 OM 7498 OM OM1 7498 -0.550000 15.99940
7499 OM 7499 OM OM1 7499 -0.550000 15.99940
7500 OM 7500 OM OM1 7500 -0.550000 15.99940
7501 OM 7501 OM OM1 7501 -0.550000 15.99940
7502 OM 7502 OM OM1 7502 -0.550000 15.99940
7503 OM 7503 OM OM1 7503 -0.550000 15.99940
7504 OM 7504 OM OM1 7504 -0.550000 15.99940
7505 OM 7505 OM OM1 7505 -0.550000 15.99940
7506 OM 7506 OM OM1 7506 -0.550000 15.99940
7507 OM 7507 OM OM1 7507 -0.550000 15.99940
7508 OM 7508 OM OM1 7508 -0.550000 15.99940
7509 OM 7509 OM OM1 7509 -0.550000 15.99940
7510 OM 7510 OM OM1 7510 -0.550000 15.99940
7511 OM 7511 OM OM1 7511 -0.550000 15.99940
7512 OM 7512 OM OM1 7512 -0.550000 15.99940
7513 OM 7513 OM OM1 7513 -0.550000 15.99940
7514 OM 7514 OM OM1 7514 -0.550000 15.99940
7515 OM 7515 OM OM1 7515 -0.550000 15.99940
7516 OM 7516 OM OM1 7516 -0.550000 15.99940
7517 OM 7517 OM OM1 7517 -0.550000 15.99940
7518 OM 7518 OM OM1 7518 -0.550000 15.99940
7519 OM 7519 OM OM1 7519 -0.550000 15.99940
7520 OM 7520 OM OM1 7520 -0.550000 15.99940
7521 OM 7521 OM OM1 7521 -0.550000 15.99940
7522 OM 7522 OM OM1 7522 -0.550000 15.99940
7523 OM 7523 OM OM1 7523 -0.550000 15.99940
7524 OM 7524 OM OM1 7524 -0.550000 15.99940
7525 OM 7525 OM OM1 7525 -0.550000 15.99940
7526 OM 7526 OM OM1 7526 -0.550000 15.99940
7527 OM 7527 OM OM1 7527 -0.550000 15.99940
7528 OM 7528 OM OM1 7528 -0.550000 15.99940
7529 OM 7529 OM OM1 7529 -0.550000 15.99940
7530 OM 7530 OM OM1 7530 -0.550000 15.99940
7531 OM 7531 OM OM1 7531 -0.550000 15.99940
7532 OM 7532 OM OM1 7532 -0.550000 15.99940
7533 OM 7533 OM OM1 7533 -0.550000 15.99940
7534 OM 7534 OM OM1 7534 -0.550000 15.99940
7535 OM 7535 OM OM1 7535 -0.550000 15.99940
7536 OM 7536 OM OM1 7536 -0.550000 15.99940
7537 OM 7537 OM OM1 7537 -0.550000 15.99940
7538 OM 7538 OM OM1 7538 -0.550000 15.99940
7539 OM 7539 OM OM1 7539 -0.550000 15.99940
7540 OM 7540 OM OM1 7540 -0.550000 15.99940
7541 OM 7541 OM OM1 7541 -0.550000 15.99940
7542 OM 7542 OM OM1 7542 -0.550000 15.99940
7543 OM 7543 OM OM1 7543 -0.550000 15.99940
7544 OM 7544 OM OM1 7544 -0.550000 15.99940
7545 OM 7545 OM OM1 7545 -0.550000 15.99940
7546 OM 7546 OM OM1 7546 -0.550000 15.99940
7547 OM 7547 OM OM1 7547 -0.550000 15.99940
7548 OM 7548 OM OM1 7548 -0.550000 15.99940
7549 OM 7549 OM OM1 7549 -0.550000 15.99940
7550 OM 7550 OM OM1 7550 -0.550000 15.99940
7551 OM 7551 OM OM1 7551 -0.550000 15.99940
7552 OM 7552 OM OM1 7552 -0.550000 15.99940
7553 OM 7553 OM OM1 7553 -0.550000 15.99940
7554 OM 7554 OM OM1 7554 -0.550000 15.99940
7555 OM 7555 OM OM1 7555 -0.550000 15.99940
7556 OM 7556 OM OM1 7556 -0.550000 15.99940
7557 OM 7557 OM OM1 7557 -0.550000 15.99940
7558 OM 7558 OM OM1 7558 -0.550000 15.99940
7559 OM 7559 OM OM1 7559 -0.550000 15.99940
7560 OM 7560 OM OM1 7560 -0.550000 15.99940
7561 OM 7561 OM OM1 7561 -0.550000 15.99940
7562 OM 7562 OM OM1 7562 -0.550000 15.99940
7563 OM 7563 OM OM1 7563 -0.550000 15.99940
7564 OM 7564 OM OM1 7564 -0.550000 15.99940
7565 OM 7565 OM OM1 7565 -0.550000 15.99940
7566 OM 7566 OM OM1 7566 -0.550000 15.99940
7567 OM 7567 OM OM1 7567 -0.550000 15.99940
7568 OM 7568 OM OM1 7568 -0.550000 15.99940
7569 OM 7569 OM OM1 7569 -0.550000 15.99940
7570 OM 7570 OM OM1 7570 -0.550000 15.99940
7571 OM 7571 OM OM1 7571 -0.550000 15.99940
7572 OM 7572 OM OM1 7572 -0.550000 15.99940
7573 OM 7573 OM OM1 7573 -0.550000 15.99940
7574 OM 7574 OM OM1 7574 -0.550000 15.99940
7575 OM 7575 OM OM1 7575 -0.550000 15.99940
7576 OM 7576 OM OM1 7576 -0.550000 15.99940
7577 OM 7577 OM OM1 7577 -0.550000 15.99940
7578 OM 7578 OM OM1 7578 -0.550000 15.99940
7579 OM 7579 OM OM1 7579 -0.550000 15.99940
7580 OM 7580 OM OM1 7580 -0.550000 15.99940
7581 OM 7581 OM OM1 7581 -0.550000 15.99940
7582 OM 7582 OM OM1 7582 -0.550000 15.99940
7583 OM 7583 OM OM1 7583 -0.550000 15.99940
7584 OM 7584 OM OM1 7584 -0.550000 15.99940
7585 OM 7585 OM OM1 7585 -0.550000 15.99940
7586 OM 7586 OM OM1 7586 -0.550000 15.99940
7587 OM 7587 OM OM1 7587 -0.550000 15.99940
7588 OM 7588 OM OM1 7588 -0.550000 15.99940
7589 OM 7589 OM OM1 7589 -0.550000 15.99940
7590 OM 7590 OM OM1 7590 -0.550000 15.99940
7591 OM 7591 OM OM1 7591 -0.550000 15.99940
7592 OM 7592 OM OM1 7592 -0.550000 15.99940
7593 OM 7593 OM OM1 7593 -0.550000 15.99940
7594 OM 7594 OM OM1 7594 -0.550000 15.99940
7595 OM 7595 OM OM1 7595 -0.550000 15.99940
7596 OM 7596 OM OM1 7596 -0.550000 15.99940
7597 OM 7597 OM OM1 7597 -0.550000 15.99940
7598 OM 7598 OM OM1 7598 -0.550000 15.99940
7599 OM 7599 OM OM1 7599 -0.550000 15.99940
7600 OM 7600 OM OM1 7600 -0.550000 15.99940
7601 OM 7601 OM OM1 7601 -0.550000 15.99940
7602 OM 7602 OM OM1 7602 -0.550000 15.99940
7603 OM 7603 OM OM1 7603 -0.550000 15.99940
7604 OM 7604 OM OM1 7604 -0.550000 15.99940
7605 OM 7605 OM OM1 7605 -0.550000 15.99940
7606 OM 7606 OM OM1 7606 -0.550000 15.99940
7607 OM 7607 OM OM1 7607 -0.550000 15.99940
7608 OM 7608 OM OM1 7608 -0.550000 15.99940
7609 OM 7609 OM OM1 7609 -0.550000 15.99940
7610 OM 7610 OM OM1 7610 -0.550000 15.99940
7611 OM 7611 OM OM1 7611 -0.550000 15.99940
7612 OM 7612 OM OM1 7612 -0.550000 15.99940
7613 OM 7613 OM OM1 7613 -0.550000 15.99940
7614 OM 7614 OM OM1 7614 -0.550000 15.99940
7615 OM 7615 OM OM1 7615 -0.550000 15.99940
7616 OM 7616 OM OM1 7616 -0.550000 15.99940
7617 OM 7617 OM OM1 7617 -0.550000 15.99940
7618 OM 7618 OM OM1 7618 -0.550000 15.99940
7619 OM 7619 OM OM1 7619 -0.550000 15.99940
7620 OM 7620 OM OM1 7620 -0.550000 15.99940
7621 OM 7621 OM OM1 7621 -0.550000 15.99940
7622 OM 7622 OM OM1 7622 -0.550000 15.99940
7623 OM 7623 OM OM1 7623 -0.550000 15.99940
7624 OM 7624 OM OM1 7624 -0.550000 15.99940
7625 OM 7625 OM OM1 7625 -0.550000 15.99940
7626 OM 7626 OM OM1 7626 -0.550000 15.99940
7627 OM 7627 OM OM1 7627 -0.550000 15.99940
7628 OM 7628 OM OM1 7628 -0.550000 15.99940
7629 OM 7629 OM OM1 7629 -0.550000 15.99940
7630 OM 7630 OM OM1 7630 -0.550000 15.99940
7631 OM 7631 OM OM1 7631 -0.550000 15.99940
7632 OM 7632 OM OM1 7632 -0.550000 15.99940
7633 OM 7633 OM OM1 7633 -0.550000 15.99940
7634 OM 7634 OM OM1 7634 -0.550000 15.99940
7635 OM 7635 OM OM1 7635 -0.550000 15.99940
7636 OM 7636 OM OM1 7636 -0.550000 15.99940
7637 OM 7637 OM OM1 7637 -0.550000 15.99940
7638 OM 7638 OM OM1 7638 -0.550000 15.99940
7639 OM 7639 OM OM1 7639 -0.550000 15.99940
7640 OM 7640 OM OM1 7640 -0.550000 15.99940
7641 OM 7641 OM OM1 7641 -0.550000 15.99940
7642 OM 7642 OM OM1 7642 -0.550000 15.99940
7643 OM 7643 OM OM1 7643 -0.550000 15.99940
7644 OM 7644 OM OM1 7644 -0.550000 15.99940
7645 OM 7645 OM OM1 7645 -0.550000 15.99940
7646 OM 7646 OM OM1 7646 -0.550000 15.99940
7647 OM 7647 OM OM1 7647 -0.550000 15.99940
7648 OM 7648 OM OM1 7648 -0.550000 15.99940
7649 OM 7649 OM OM1 7649 -0.550000 15.99940
7650 OM 7650 OM OM1 7650 -0.550000 15.99940
7651 OM 7651 OM OM1 7651 -0.550000 15.99940
7652 OM 7652 OM OM1 7652 -0.550000 15.99940
7653 OM 7653 OM OM1 7653 -0.550000 15.99940
7654 OM 7654 OM OM1 7654 -0.550000 15.99940
7655 OM 7655 OM OM1 7655 -0.550000 15.99940
7656 OM 7656 OM OM1 7656 -0.550000 15.99940
7657 OM 7657 OM OM1 7657 -0.550000 15.99940
7658 OM 7658 OM OM1 7658 -0.550000 15.99940
7659 OM 7659 OM OM1 7659 -0.550000 15.99940
7660 OM 7660 OM OM1 7660 -0.550000 15.99940
7661 OM 7661 OM OM1 7661 -0.550000 15.99940
7662 OM 7662 OM OM1 7662 -0.550000 15.99940
7663 OM 7663 OM OM1 7663 -0.550000 15.99940
7664 OM 7664 OM OM1 7664 -0.550000 15.99940
7665 OM 7665 OM OM1 7665 -0.550000 15.99940
7666 OM 7666 OM OM1 7666 -0.550000 15.99940
7667 OM 7667 OM OM1 7667 -0.550000 15.99940
7668 OM 7668 OM OM1 7668 -0.550000 15.99940
7669 OM 7669 OM OM1 7669 -0.550000 15.99940
7670 OM 7670 OM OM1 7670 -0.550000 15.99940
7671 OM 7671 OM OM1 7671 -0.550000 15.99940
7672 OM 7672 OM OM1 7672 -0.550000 15.99940
7673 OM 7673 OM OM1 7673 -0.550000 15.99940
7674 OM 7674 OM OM1 7674 -0.550000 15.99940
7675 OM 7675 OM OM1 7675 -0.550000 15.99940
7676 OM 7676 OM OM1 7676 -0.550000 15.99940
7677 OM 7677 OM OM1 7677 -0.550000 15.99940
7678 OM 7678 OM OM1 7678 -0.550000 15.99940
7679 OM 7679 OM OM1 7679 -0.550000 15.99940
7680 OM 7680 OM OM1 7680 -0.550000 15.99940
7681 OM 7681 OM OM1 7681 -0.550000 15.99940
7682 OM 7682 OM OM1 7682 -0.550000 15.99940
7683 OM 7683 OM OM1 7683 -0.550000 15.99940
7684 OM 7684 OM OM1 7684 -0.550000 15.99940
7685 OM 7685 OM OM1 7685 -0.550000 15.99940
7686 OM 7686 OM OM1 7686 -0.550000 15.99940
7687 OM 7687 OM OM1 7687 -0.550000 15.99940
7688 OM 7688 OM OM1 7688 -0.550000 15.99940
7689 OM 7689 OM OM1 7689 -0.550000 15.99940
7690 OM 7690 OM OM1 7690 -0.550000 15.99940
7691 OM 7691 OM OM1 7691 -0.550000 15.99940
7692 OM 7692 OM OM1 7692 -0.550000 15.99940
7693 OM 7693 OM OM1 7693 -0.550000 15.99940
7694 OM 7694 OM OM1 7694 -0.550000 15.99940
7695 OM 7695 OM OM1 7695 -0.550000 15.99940
7696 OM 7696 OM OM1 7696 -0.550000 15.99940
7697 OM 7697 OM OM1 7697 -0.550000 15.99940
7698 OM 7698 OM OM1 7698 -0.550000 15.99940
7699 OM 7699 OM OM1 7699 -0.550000 15.99940
7700 OM 7700 OM OM1 7700 -0.550000 15.99940
7701 OM 7701 OM OM1 7701 -0.550000 15.99940
7702 OM 7702 OM OM1 7702 -0.550000 15.99940
7703 OM 7703 OM OM1 7703 -0.550000 15.99940
7704 OM 7704 OM OM1 7704 -0.550000 15.99940
7705 OM 7705 OM OM1 7705 -0.550000 15.99940
7706 OM 7706 OM OM1 7706 -0.550000 15.99940
7707 OM 7707 OM OM1 7707 -0.550000 15.99940
7708 OM 7708 OM OM1 7708 -0.550000 15.99940
7709 OM 7709 OM OM1 7709 -0.550000 15.99940
7710 OM 7710 OM OM1 7710 -0.550000 15.99940
7711 OM 7711 OM OM1 7711 -0.550000 15.99940
7712 OM 7712 OM OM1 7712 -0.550000 15.99940
7713 OM 7713 OM OM1 7713 -0.550000 15.99940
7714 OM 7714 OM OM1 7714 -0.550000 15.99940
7715 OM 7715 OM OM1 7715 -0.550000 15.99940
7716 OM 7716 OM OM1 7716 -0.550000 15.99940
7717 OM 7717 OM OM1 7717 -0.550000 15.99940
7718 OM 7718 OM OM1 7718 -0.550000 15.99940
7719 OM 7719 OM OM1 7719 -0.550000 15.99940
7720 OM 7720 OM OM1 7720 -0.550000 15.99940
7721 OM 7721 OM OM1 7721 -0.550000 15.99940
7722 OM 7722 OM OM1 7722 -0.550000 15.99940
7723 OM 7723 OM OM1 7723 -0.550000 15.99940
7724 OM 7724 OM OM1 7724 -0.550000 15.99940
7725 OM 7725 OM OM1 7725 -0.550000 15.99940
7726 OM 7726 OM OM1 7726 -0.550000 15.99940
7727 OM 7727 OM OM1 7727 -0.550000 15.99940
7728 OM 7728 OM OM1 7728 -0.550000 15.99940
7729 OM 7729 OM OM1 7729 -0.550000 15.99940
7730 OM 7730 OM OM1 7730 -0.550000 15.99940
7731 OM 7731 OM OM1 7731 -0.550000 15.99940
7732 OM 7732 OM OM1 7732 -0.550000 15.99940
7733 OM 7733 OM OM1 7733 -0.550000 15.99940
7734 OM 7734 OM OM1 7734 -0.550000 15.99940
7735 OM 7735 OM OM1 7735 -0.550000 15.99940
7736 OM 7736 OM OM1 7736 -0.550000 15.99940
7737 OM 7737 OM OM1 7737 -0.550000 15.99940
7738 OM 7738 OM OM1 7738 -0.550000 15.99940
7739 OM 7739 OM OM1 7739 -0.550000 15.99940
7740 OM 7740 OM OM1 7740 -0.550000 15.99940
7741 OM 7741 OM OM1 7741 -0.550000 15.99940
7742 OM 7742 OM OM1 7742 -0.550000 15.99940
7743 OM 7743 OM OM1 7743 -0.550000 15.99940
7744 OM 7744 OM OM1 7744 -0.550000 15.99940
7745 OM 7745 OM OM1 7745 -0.550000 15.99940
7746 OM 7746 OM OM1 7746 -0.550000 15.99940
7747 OM 7747 OM OM1 7747 -0.550000 15.99940
7748 OM 7748 OM OM1 7748 -0.550000 15.99940
7749 OM 7749 OM OM1 7749 -0.550000 15.99940
7750 OM 7750 OM OM1 7750 -0.550000 15.99940
7751 OM 7751 OM OM1 7751 -0.550000 15.99940
7752 OM 7752 OM OM1 7752 -0.550000 15.99940
7753 OM 7753 OM OM1 7753 -0.550000 15.99940
7754 OM 7754 OM OM1 7754 -0.550000 15.99940
7755 OM 7755 OM OM1 7755 -0.550000 15.99940
7756 OM 7756 OM OM1 7756 -0.550000 15.99940
7757 OM 7757 OM OM1 7757 -0.550000 15.99940
7758 OM 7758 OM OM1 7758 -0.550000 15.99940
7759 OM 7759 OM OM1 7759 -0.550000 15.99940
7760 OM 7760 OM OM1 7760 -0.550000 15.99940
7761 OM 7761 OM OM1 7761 -0.550000 15.99940
7762 OM 7762 OM OM1 7762 -0.550000 15.99940
7763 OM 7763 OM OM1 7763 -0.550000 15.99940
7764 OM 7764 OM OM1 7764 -0.550000 15.99940
7765 OM 7765 OM OM1 7765 -0.550000 15.99940
7766 OM 7766 OM OM1 7766 -0.550000 15.99940
7767 OM 7767 OM OM1 7767 -0.550000 15.99940
7768 OM 7768 OM OM1 7768 -0.550000 15.99940
7769 OM 7769 OM OM1 7769 -0.550000 15.99940
7770 OM 7770 OM OM1 7770 -0.550000 15.99940
7771 OM 7771 OM OM1 7771 -0.550000 15.99940
7772 OM 7772 OM OM1 7772 -0.550000 15.99940
7773 OM 7773 OM OM1 7773 -0.550000 15.99940
7774 OM 7774 OM OM1 7774 -0.550000 15.99940
7775 OM 7775 OM OM1 7775 -0.550000 15.99940
7776 OM 7776 OM OM1 7776 -0.550000 15.99940
7777 OM 7777 OM OM1 7777 -0.550000 15.99940
7778 OM 7778 OM OM1 7778 -0.550000 15.99940
7779 OM 7779 OM OM1 7779 -0.550000 15.99940
7780 OM 7780 OM OM1 7780 -0.550000 15.99940
7781 OM 7781 OM OM1 7781 -0.550000 15.99940
7782 OM 7782 OM OM1 7782 -0.550000 15.99940
7783 OM 7783 OM OM1 7783 -0.550000 15.99940
7784 OM 7784 OM OM1 7784 -0.550000 15.99940
7785 OM 7785 OM OM1 7785 -0.550000 15.99940
7786 OM 7786 OM OM1 7786 -0.550000 15.99940
7787 OM 7787 OM OM1 7787 -0.550000 15.99940
7788 OM 7788 OM OM1 7788 -0.550000 15.99940
7789 OM 7789 OM OM1 7789 -0.550000 15.99940
7790 OM 7790 OM OM1 7790 -0.550000 15.99940
7791 OM 7791 OM OM1 7791 -0.550000 15.99940
7792 OM 7792 OM OM1 7792 -0.550000 15.99940
7793 OM 7793 OM OM1 7793 -0.550000 15.99940
7794 OM 7794 OM OM1 7794 -0.550000 15.99940
7795 OM 7795 OM OM1 7795 -0.550000 15.99940
7796 OM 7796 OM OM1 7796 -0.550000 15.99940
7797 OM 7797 OM OM1 7797 -0.550000 15.99940
7798 OM 7798 OM OM1 7798 -0.550000 15.99940
7799 OM 7799 OM OM1 7799 -0.550000 15.99940
7800 OM 7800 OM OM1 7800 -0.550000 15.99940
7801 OM 7801 OM OM1 7801 -0.550000 15.99940
7802 OM 7802 OM OM1 7802 -0.550000 15.99940
7803 OM 7803 OM OM1 7803 -0.550000 15.99940
7804 OM 7804 OM OM1 7804 -0.550000 15.99940
7805 OM 7805 OM OM1 7805 -0.550000 15.99940
7806 OM 7806 OM OM1 7806 -0.550000 15.99940
7807 OM 7807 OM OM1 7807 -0.550000 15.99940
7808 OM 7808 OM OM1 7808 -0.550000 15.99940
7809 OM 7809 OM OM1 7809 -0.550000 15.99940
7810 OM 7810 OM OM1 7810 -0.550000 15.99940
7811 OM 7811 OM OM1 7811 -0.550000 15.99940
7812 OM 7812 OM OM1 7812 -0.550000 15.99940
7813 OM 7813 OM OM1 7813 -0.550000 15.99940
7814 OM 7814 OM OM1 7814 -0.550000 15.99940
7815 OM 7815 OM OM1 7815 -0.550000 15.99940
7816 OM 7816 OM OM1 7816 -0.550000 15.99940
7817 OM 7817 OM OM1 7817 -0.550000 15.99940
7818 OM 7818 OM OM1 7818 -0.550000 15.99940
7819 OM 7819 OM OM1 7819 -0.550000 15.99940
7820 OM 7820 OM OM1 7820 -0.550000 15.99940
7821 OM 7821 OM OM1 7821 -0.550000 15.99940
7822 OM 7822 OM OM1 7822 -0.550000 15.99940
7823 OM 7823 OM OM1 7823 -0.550000 15.99940
7824 OM 7824 OM OM1 7824 -0.550000 15.99940
7825 OM 7825 OM OM1 7825 -0.550000 15.99940
7826 OM 7826 OM OM1 7826 -0.550000 15.99940
7827 OM 7827 OM OM1 7827 -0.550000 15.99940
7828 OM 7828 OM OM1 7828 -0.550000 15.99940
7829 OM 7829 OM OM1 7829 -0.550000 15.99940
7830 OM 7830 OM OM1 7830 -0.550000 15.99940
7831 OM 7831 OM OM1 7831 -0.550000 15.99940
7832 OM 7832 OM OM1 7832 -0.550000 15.99940
7833 OM 7833 OM OM1 7833 -0.550000 15.99940
7834 OM 7834 OM OM1 7834 -0.550000 15.99940
7835 OM 7835 OM OM1 7835 -0.550000 15.99940
7836 OM 7836 OM OM1 7836 -0.550000 15.99940
7837 OM 7837 OM OM1 7837 -0.550000 15.99940
7838 OM 7838 OM OM1 7838 -0.550000 15.99940
7839 OM 7839 OM OM1 7839 -0.550000 15.99940
7840 OM 7840 OM OM1 7840 -0.550000 15.99940
7841 OM 7841 OM OM1 7841 -0.550000 15.99940
7842 OM 7842 OM OM1 7842 -0.550000 15.99940
7843 OM 7843 OM OM1 7843 -0.550000 15.99940
7844 OM 7844 OM OM1 7844 -0.550000 15.99940
7845 OM 7845 OM OM1 7845 -0.550000 15.99940
7846 OM 7846 OM OM1 7846 -0.550000 15.99940
7847 OM 7847 OM OM1 7847 -0.550000 15.99940
7848 OM 7848 OM OM1 7848 -0.550000 15.99940
7849 OM 7849 OM OM1 7849 -0.550000 15.99940
7850 OM 7850 OM OM1 7850 -0.550000 15.99940
7851 OM 7851 OM OM1 7851 -0.550000 15.99940
7852 OM 7852 OM OM1 7852 -0.550000 15.99940
7853 OM 7853 OM OM1 7853 -0.550000 15.99940
7854 OM 7854 OM OM1 7854 -0.550000 15.99940
7855 OM 7855 OM OM1 7855 -0.550000 15.99940
7856 OM 7856 OM OM1 7856 -0.550000 15.99940
7857 OM 7857 OM OM1 7857 -0.550000 15.99940
7858 OM 7858 OM OM1 7858 -0.550000 15.99940
7859 OM 7859 OM OM1 7859 -0.550000 15.99940
7860 OM 7860 OM OM1 7860 -0.550000 15.99940
7861 OM 7861 OM OM1 7861 -0.550000 15.99940
7862 OM 7862 OM OM1 7862 -0.550000 15.99940
7863 OM 7863 OM OM1 7863 -0.550000 15.99940
7864 OM 7864 OM OM1 7864 -0.550000 15.99940
7865 OM 7865 OM OM1 7865 -0.550000 15.99940
7866 OM 7866 OM OM1 7866 -0.550000 15.99940
7867 OM 7867 OM OM1 7867 -0.550000 15.99940
7868 OM 7868 OM OM1 7868 -0.550000 15.99940
7869 OM 7869 OM OM1 7869 -0.550000 15.99940
7870 OM 7870 OM OM1 7870 -0.550000 15.99940
7871 OM 7871 OM OM1 7871 -0.550000 15.99940
7872 OM 7872 OM OM1 7872 -0.550000 15.99940
7873 OM 7873 OM OM1 7873 -0.550000 15.99940
7874 OM 7874 OM OM1 7874 -0.550000 15.99940
7875 OM 7875 OM OM1 7875 -0.550000 15.99940
7876 OM 7876 OM OM1 7876 -0.550000 15.99940
7877 OM 7877 OM OM1 7877 -0.550000 15.99940
7878 OM 7878 OM OM1 7878 -0.550000 15.99940
7879 OM 7879 OM OM1 7879 -0.550000 15.99940
7880 OM 7880 OM OM1 7880 -0.550000 15.99940
7881 OM 7881 OM OM1 7881 -0.550000 15.99940
7882 OM 7882 OM OM1 7882 -0.550000 15.99940
7883 OM 7883 OM OM1 7883 -0.550000 15.99940
7884 OM 7884 OM OM1 7884 -0.550000 15.99940
7885 OM 7885 OM OM1 7885 -0.550000 15.99940
7886 OM 7886 OM OM1 7886 -0.550000 15.99940
7887 OM 7887 OM OM1 7887 -0.550000 15.99940
7888 OM 7888 OM OM1 7888 -0.550000 15.99940
7889 OM 7889 OM OM1 7889 -0.550000 15.99940
7890 OM 7890 OM OM1 7890 -0.550000 15.99940
7891 OM 7891 OM OM1 7891 -0.550000 15.99940
7892 OM 7892 OM OM1 7892 -0.550000 15.99940
7893 OM 7893 OM OM1 7893 -0.550000 15.99940
7894 OM 7894 OM OM1 7894 -0.550000 15.99940
7895 OM 7895 OM OM1 7895 -0.550000 15.99940
7896 OM 7896 OM OM1 7896 -0.550000 15.99940
7897 OM 7897 OM OM1 7897 -0.550000 15.99940
7898 OM 7898 OM OM1 7898 -0.550000 15.99940
7899 OM 7899 OM OM1 7899 -0.550000 15.99940
7900 OM 7900 OM OM1 7900 -0.550000 15.99940
7901 OM 7901 OM OM1 7901 -0.550000 15.99940
7902 OM 7902 OM OM1 7902 -0.550000 15.99940
7903 OM 7903 OM OM1 7903 -0.550000 15.99940
7904 OM 7904 OM OM1 7904 -0.550000 15.99940
7905 OM 7905 OM OM1 7905 -0.550000 15.99940
7906 OM 7906 OM OM1 7906 -0.550000 15.99940
7907 OM 7907 OM OM1 7907 -0.550000 15.99940
7908 OM 7908 OM OM1 7908 -0.550000 15.99940
7909 OM 7909 OM OM1 7909 -0.550000 15.99940
7910 OM 7910 OM OM1 7910 -0.550000 15.99940
7911 OM 7911 OM OM1 7911 -0.550000 15.99940
7912 OM 7912 OM OM1 7912 -0.550000 15.99940
7913 OM 7913 OM OM1 7913 -0.550000 15.99940
7914 OM 7914 OM OM1 7914 -0.550000 15.99940
7915 OM 7915 OM OM1 7915 -0.550000 15.99940
7916 OM 7916 OM OM1 7916 -0.550000 15.99940
7917 OM 7917 OM OM1 7917 -0.550000 15.99940
7918 OM 7918 OM OM1 7918 -0.550000 15.99940
7919 OM 7919 OM OM1 7919 -0.550000 15.99940
7920 OM 7920 OM OM1 7920 -0.550000 15.99940
7921 OM 7921 OM OM1 7921 -0.550000 15.99940
7922 OM 7922 OM OM1 7922 -0.550000 15.99940
7923 OM 7923 OM OM1 7923 -0.550000 15.99940
7924 OM 7924 OM OM1 7924 -0.550000 15.99940
7925 OM 7925 OM OM1 7925 -0.550000 15.99940
7926 OM 7926 OM OM1 7926 -0.550000 15.99940
7927 OM 7927 OM OM1 7927 -0.550000 15.99940
7928 OM 7928 OM OM1 7928 -0.550000 15.99940
7929 OM 7929 OM OM1 7929 -0.550000 15.99940
7930 OM 7930 OM OM1 7930 -0.550000 15.99940
7931 OM 7931 OM OM1 7931 -0.550000 15.99940
7932 OM 7932 OM OM1 7932 -0.550000 15.99940
7933 OM 7933 OM OM1 7933 -0.550000 15.99940
7934 OM 7934 OM OM1 7934 -0.550000 15.99940
7935 OM 7935 OM OM1 7935 -0.550000 15.99940
7936 OM 7936 OM OM1 7936 -0.550000 15.99940
7937 OM 7937 OM OM1 7937 -0.550000 15.99940
7938 OM 7938 OM OM1 7938 -0.550000 15.99940
7939 OM 7939 OM OM1 7939 -0.550000 15.99940
7940 OM 7940 OM OM1 7940 -0.550000 15.99940
7941 OM 7941 OM OM1 7941 -0.550000 15.99940
7942 OM 7942 OM OM1 7942 -0.550000 15.99940
7943 OM 7943 OM OM1 7943 -0.550000 15.99940
7944 OM 7944 OM OM1 7944 -0.550000 15.99940
7945 OM 7945 OM OM1 7945 -0.550000 15.99940
7946 OM 7946 OM OM1 7946 -0.550000 15.99940
7947 OM 7947 OM OM1 7947 -0.550000 15.99940
7948 OM 7948 OM OM1 7948 -0.550000 15.99940
7949 OM 7949 OM OM1 7949 -0.550000 15.99940
7950 OM 7950 OM OM1 7950 -0.550000 15.99940
7951 OM 7951 OM OM1 7951 -0.550000 15.99940
7952 OM 7952 OM OM1 7952 -0.550000 15.99940
7953 OM 7953 OM OM1 7953 -0.550000 15.99940
7954 OM 7954 OM OM1 7954 -0.550000 15.99940
7955 OM 7955 OM OM1 7955 -0.550000 15.99940
7956 OM 7956 OM OM1 7956 -0.550000 15.99940
7957 OM 7957 OM OM1 7957 -0.550000 15.99940
7958 OM 7958 OM OM1 7958 -0.550000 15.99940
7959 OM 7959 OM OM1 7959 -0.550000 15.99940
7960 OM 7960 OM OM1 7960 -0.550000 15.99940
7961 OM 7961 OM OM1 7961 -0.550000 15.99940
7962 OM 7962 OM OM1 7962 -0.550000 15.99940
7963 OM 7963 OM OM1 7963 -0.550000 15.99940
7964 OM 7964 OM OM1 7964 -0.550000 15.99940
7965 OM 7965 OM OM1 7965 -0.550000 15.99940
7966 OM 7966 OM OM1 7966 -0.550000 15.99940
7967 OM 7967 OM OM1 7967 -0.550000 15.99940
7968 OM 7968 OM OM1 7968 -0.550000 15.99940
7969 OM 7969 OM OM1 7969 -0.550000 15.99940
7970 OM 7970 OM OM1 7970 -0.550000 15.99940
7971 OM 7971 OM OM1 7971 -0.550000 15.99940
7972 OM 7972 OM OM1 7972 -0.550000 15.99940
7973 OM 7973 OM OM1 7973 -0.550000 15.99940
7974 OM 7974 OM OM1 7974 -0.550000 15.99940
7975 OM 7975 OM OM1 7975 -0.550000 15.99940
7976 OM 7976 OM OM1 7976 -0.550000 15.99940
7977 OM 7977 OM OM1 7977 -0.550000 15.99940
7978 OM 7978 OM OM1 7978 -0.550000 15.99940
7979 OM 7979 OM OM1 7979 -0.550000 15.99940
7980 OM 7980 OM OM1 7980 -0.550000 15.99940
7981 OM 7981 OM OM1 7981 -0.550000 15.99940
7982 OM 7982 OM OM1 7982 -0.550000 15.99940
7983 OM 7983 OM OM1 7983 -0.550000 15.99940
7984 OM 7984 OM OM1 7984 -0.550000 15.99940
7985 OM 7985 OM OM1 7985 -0.550000 15.99940
7986 OM 7986 OM OM1 7986 -0.550000 15.99940
7987 OM 7987 OM OM1 7987 -0.550000 15.99940
7988 OM 7988 OM OM1 7988 -0.550000 15.99940
7989 OM 7989 OM OM1 7989 -0.550000 15.99940
7990 OM 7990 OM OM1 7990 -0.550000 15.99940
7991 OM 7991 OM OM1 7991 -0.550000 15.99940
7992 OM 7992 OM OM1 7992 -0.550000 15.99940
7993 OM 7993 OM OM1 7993 -0.550000 15.99940
7994 OM 7994 OM OM1 7994 -0.550000 15.99940
7995 OM 7995 OM OM1 7995 -0.550000 15.99940
7996 OM 7996 OM OM1 7996 -0.550000 15.99940
7997 OM 7997 OM OM1 7997 -0.550000 15.99940
7998 OM 7998 OM OM1 7998 -0.550000 15.99940
7999 OM 7999 OM OM1 7999 -0.550000 15.99940
8000 OM 8000 OM OM1 8000 -0.550000 15.99940
8001 OM 8001 OM OM1 8001 -0.550000 15.99940
8002 OM 8002 OM OM1 8002 -0.550000 15.99940
8003 OM 8003 OM OM1 8003 -0.550000 15.99940
8004 OM 8004 OM OM1 8004 -0.550000 15.99940
8005 OM 8005 OM OM1 8005 -0.550000 15.99940
8006 OM 8006 OM OM1 8006 -0.550000 15.99940
8007 OM 8007 OM OM1 8007 -0.550000 15.99940
8008 OM 8008 OM OM1 8008 -0.550000 15.99940
8009 OM 8009 OM OM1 8009 -0.550000 15.99940
8010 OM 8010 OM OM1 8010 -0.550000 15.99940
8011 OM 8011 OM OM1 8011 -0.550000 15.99940
8012 OM 8012 OM OM1 8012 -0.550000 15.99940
8013 OM 8013 OM OM1 8013 -0.550000 15.99940
8014 OM 8014 OM OM1 8014 -0.550000 15.99940
8015 OM 8015 OM OM1 8015 -0.550000 15.99940
8016 OM 8016 OM OM1 8016 -0.550000 15.99940
8017 OM 8017 OM OM1 8017 -0.550000 15.99940
8018 OM 8018 OM OM1 8018 -0.550000 15.99940
8019 OM 8019 OM OM1 8019 -0.550000 15.99940
8020 OM 8020 OM OM1 8020 -0.550000 15.99940
8021 OM 8021 OM OM1 8021 -0.550000 15.99940
8022 OM 8022 OM OM1 8022 -0.550000 15.99940
8023 OM 8023 OM OM1 8023 -0.550000 15.99940
8024 OM 8024 OM OM1 8024 -0.550000 15.99940
8025 OM 8025 OM OM1 8025 -0.550000 15.99940
8026 OM 8026 OM OM1 8026 -0.550000 15.99940
8027 OM 8027 OM OM1 8027 -0.550000 15.99940
8028 OM 8028 OM OM1 8028 -0.550000 15.99940
8029 OM 8029 OM OM1 8029 -0.550000 15.99940
8030 OM 8030 OM OM1 8030 -0.550000 15.99940
8031 OM 8031 OM OM1 8031 -0.550000 15.99940
8032 OM 8032 OM OM1 8032 -0.550000 15.99940
8033 OM 8033 OM OM1 8033 -0.550000 15.99940
8034 OM 8034 OM OM1 8034 -0.550000 15.99940
8035 OM 8035 OM OM1 8035 -0.550000 15.99940
8036 OM 8036 OM OM1 8036 -0.550000 15.99940
8037 OM 8037 OM OM1 8037 -0.550000 15.99940
8038 OM 8038 OM OM1 8038 -0.550000 15.99940
8039 OM 8039 OM OM1 8039 -0.550000 15.99940
8040 OM 8040 OM OM1 8040 -0.550000 15.99940
8041 OM 8041 OM OM1 8041 -0.550000 15.99940
8042 OM 8042 OM OM1 8042 -0.550000 15.99940
8043 OM 8043 OM OM1 8043 -0.550000 15.99940
8044 OM 8044 OM OM1 8044 -0.550000 15.99940
8045 OM 8045 OM OM1 8045 -0.550000 15.99940
8046 OM 8046 OM OM1 8046 -0.550000 15.99940
8047 OM 8047 OM OM1 8047 -0.550000 15.99940
8048 OM 8048 OM OM1 8048 -0.550000 15.99940
8049 OM 8049 OM OM1 8049 -0.550000 15.99940
8050 OM 8050 OM OM1 8050 -0.550000 15.99940
8051 OM 8051 OM OM1 8051 -0.550000 15.99940
8052 OM 8052 OM OM1 8052 -0.550000 15.99940
8053 OM 8053 OM OM1 8053 -0.550000 15.99940
8054 OM 8054 OM OM1 8054 -0.550000 15.99940
8055 OM 8055 OM OM1 8055 -0.550000 15.99940
8056 OM 8056 OM OM1 8056 -0.550000 15.99940
8057 OM 8057 OM OM1 8057 -0.550000 15.99940
8058 OM 8058 OM OM1 8058 -0.550000 15.99940
8059 OM 8059 OM OM1 8059 -0.550000 15.99940
8060 OM 8060 OM OM1 8060 -0.550000 15.99940
8061 OM 8061 OM OM1 8061 -0.550000 15.99940
8062 OM 8062 OM OM1 8062 -0.550000 15.99940
8063 OM 8063 OM OM1 8063 -0.550000 15.99940
8064 OM 8064 OM OM1 8064 -0.550000 15.99940
8065 OM 8065 OM OM1 8065 -0.550000 15.99940
8066 OM 8066 OM OM1 8066 -0.550000 15.99940
8067 OM 8067 OM OM1 8067 -0.550000 15.99940
8068 OM 8068 OM OM1 8068 -0.550000 15.99940
8069 OM 8069 OM OM1 8069 -0.550000 15.99940
8070 OM 8070 OM OM1 8070 -0.550000 15.99940
8071 OM 8071 OM OM1 8071 -0.550000 15.99940
8072 OM 8072 OM OM1 8072 -0.550000 15.99940
8073 OM 8073 OM OM1 8073 -0.550000 15.99940
8074 OM 8074 OM OM1 8074 -0.550000 15.99940
8075 OM 8075 OM OM1 8075 -0.550000 15.99940
8076 OM 8076 OM OM1 8076 -0.550000 15.99940
8077 OM 8077 OM OM1 8077 -0.550000 15.99940
8078 OM 8078 OM OM1 8078 -0.550000 15.99940
8079 OM 8079 OM OM1 8079 -0.550000 15.99940
8080 OM 8080 OM OM1 8080 -0.550000 15.99940
8081 OM 8081 OM OM1 8081 -0.550000 15.99940
8082 OM 8082 OM OM1 8082 -0.550000 15.99940
8083 OM 8083 OM OM1 8083 -0.550000 15.99940
8084 OM 8084 OM OM1 8084 -0.550000 15.99940
8085 OM 8085 OM OM1 8085 -0.550000 15.99940
8086 OM 8086 OM OM1 8086 -0.550000 15.99940
8087 OM 8087 OM OM1 8087 -0.550000 15.99940
8088 OM 8088 OM OM1 8088 -0.550000 15.99940
8089 OM 8089 OM OM1 8089 -0.550000 15.99940
8090 OM 8090 OM OM1 8090 -0.550000 15.99940
8091 OM 8091 OM OM1 8091 -0.550000 15.99940
8092 OM 8092 OM OM1 8092 -0.550000 15.99940
8093 OM 8093 OM OM1 8093 -0.550000 15.99940
8094 OM 8094 OM OM1 8094 -0.550000 15.99940
8095 OM 8095 OM OM1 8095 -0.550000 15.99940
8096 OM 8096 OM OM1 8096 -0.550000 15.99940
8097 OM 8097 OM OM1 8097 -0.550000 15.99940
8098 OM 8098 OM OM1 8098 -0.550000 15.99940
8099 OM 8099 OM OM1 8099 -0.550000 15.99940
8100 OM 8100 OM OM1 8100 -0.550000 15.99940
8101 OM 8101 OM OM1 8101 -0.550000 15.99940
8102 OM 8102 OM OM1 8102 -0.550000 15.99940
8103 OM 8103 OM OM1 8103 -0.550000 15.99940
8104 OM 8104 OM OM1 8104 -0.550000 15.99940
8105 OM 8105 OM OM1 8105 -0.550000 15.99940
8106 OM 8106 OM OM1 8106 -0.550000 15.99940
8107 OM 8107 OM OM1 8107 -0.550000 15.99940
8108 OM 8108 OM OM1 8108 -0.550000 15.99940
8109 OM 8109 OM OM1 8109 -0.550000 15.99940
8110 OM 8110 OM OM1 8110 -0.550000 15.99940
8111 OM 8111 OM OM1 8111 -0.550000 15.99940
8112 OM 8112 OM OM1 8112 -0.550000 15.99940
8113 OM 8113 OM OM1 8113 -0.550000 15.99940
8114 OM 8114 OM OM1 8114 -0.550000 15.99940
8115 OM 8115 OM OM1 8115 -0.550000 15.99940
8116 OM 8116 OM OM1 8116 -0.550000 15.99940
8117 OM 8117 OM OM1 8117 -0.550000 15.99940
8118 OM 8118 OM OM1 8118 -0.550000 15.99940
8119 OM 8119 OM OM1 8119 -0.550000 15.99940
8120 OM 8120 OM OM1 8120 -0.550000 15.99940
8121 OM 8121 OM OM1 8121 -0.550000 15.99940
8122 OM 8122 OM OM1 8122 -0.550000 15.99940
8123 OM 8123 OM OM1 8123 -0.550000 15.99940
8124 OM 8124 OM OM1 8124 -0.550000 15.99940
8125 OM 8125 OM OM1 8125 -0.550000 15.99940
8126 OM 8126 OM OM1 8126 -0.550000 15.99940
8127 OM 8127 OM OM1 8127 -0.550000 15.99940
8128 OM 8128 OM OM1 8128 -0.550000 15.99940
8129 OM 8129 OM OM1 8129 -0.550000 15.99940
8130 OM 8130 OM OM1 8130 -0.550000 15.99940
8131 OM 8131 OM OM1 8131 -0.550000 15.99940
8132 OM 8132 OM OM1 8132 -0.550000 15.99940
8133 OM 8133 OM OM1 8133 -0.550000 15.99940
8134 OM 8134 OM OM1 8134 -0.550000 15.99940
8135 OM 8135 OM OM1 8135 -0.550000 15.99940
8136 OM 8136 OM OM1 8136 -0.550000 15.99940
8137 OM 8137 OM OM1 8137 -0.550000 15.99940
8138 OM 8138 OM OM1 8138 -0.550000 15.99940
8139 OM 8139 OM OM1 8139 -0.550000 15.99940
8140 OM 8140 OM OM1 8140 -0.550000 15.99940
8141 OM 8141 OM OM1 8141 -0.550000 15.99940
8142 OM 8142 OM OM1 8142 -0.550000 15.99940
8143 OM 8143 OM OM1 8143 -0.550000 15.99940
8144 OM 8144 OM OM1 8144 -0.550000 15.99940
8145 OM 8145 OM OM1 8145 -0.550000 15.99940
8146 OM 8146 OM OM1 8146 -0.550000 15.99940
8147 OM 8147 OM OM1 8147 -0.550000 15.99940
8148 OM 8148 OM OM1 8148 -0.550000 15.99940
8149 OM 8149 OM OM1 8149 -0.550000 15.99940
8150 OM 8150 OM OM1 8150 -0.550000 15.99940
8151 OM 8151 OM OM1 8151 -0.550000 15.99940
8152 OM 8152 OM OM1 8152 -0.550000 15.99940
8153 OM 8153 OM OM1 8153 -0.550000 15.99940
8154 OM 8154 OM OM1 8154 -0.550000 15.99940
8155 OM 8155 OM OM1 8155 -0.550000 15.99940
8156 OM 8156 OM OM1 8156 -0.550000 15.99940
8157 OM 8157 OM OM1 8157 -0.550000 15.99940
8158 OM 8158 OM OM1 8158 -0.550000 15.99940
8159 OM 8159 OM OM1 8159 -0.550000 15.99940
8160 OM 8160 OM OM1 8160 -0.550000 15.99940
8161 OM 8161 OM OM1 8161 -0.550000 15.99940
8162 OM 8162 OM OM1 8162 -0.550000 15.99940
8163 OM 8163 OM OM1 8163 -0.550000 15.99940
8164 OM 8164 OM OM1 8164 -0.550000 15.99940
8165 OM 8165 OM OM1 8165 -0.550000 15.99940
8166 OM 8166 OM OM1 8166 -0.550000 15.99940
8167 OM 8167 OM OM1 8167 -0.550000 15.99940
8168 OM 8168 OM OM1 8168 -0.550000 15.99940
8169 OM 8169 OM OM1 8169 -0.550000 15.99940
8170 OM 8170 OM OM1 8170 -0.550000 15.99940
8171 OM 8171 OM OM1 8171 -0.550000 15.99940
8172 OM 8172 OM OM1 8172 -0.550000 15.99940
8173 OM 8173 OM OM1 8173 -0.550000 15.99940
8174 OM 8174 OM OM1 8174 -0.550000 15.99940
8175 OM 8175 OM OM1 8175 -0.550000 15.99940
8176 OM 8176 OM OM1 8176 -0.550000 15.99940
8177 OM 8177 OM OM1 8177 -0.550000 15.99940
8178 OM 8178 OM OM1 8178 -0.550000 15.99940
8179 OM 8179 OM OM1 8179 -0.550000 15.99940
8180 OM 8180 OM OM1 8180 -0.550000 15.99940
8181 OM 8181 OM OM1 8181 -0.550000 15.99940
8182 OM 8182 OM OM1 8182 -0.550000 15.99940
8183 OM 8183 OM OM1 8183 -0.550000 15.99940
8184 OM 8184 OM OM1 8184 -0.550000 15.99940
8185 OM 8185 OM OM1 8185 -0.550000 15.99940
8186 OM 8186 OM OM1 8186 -0.550000 15.99940
8187 OM 8187 OM OM1 8187 -0.550000 15.99940
8188 OM 8188 OM OM1 8188 -0.550000 15.99940
8189 OM 8189 OM OM1 8189 -0.550000 15.99940
8190 OM 8190 OM OM1 8190 -0.550000 15.99940
8191 OM 8191 OM OM1 8191 -0.550000 15.99940
8192 OM 8192 OM OM1 8192 -0.550000 15.99940
8193 OM 8193 OM OM1 8193 -0.550000 15.99940
8194 OM 8194 OM OM1 8194 -0.550000 15.99940
8195 OM 8195 OM OM1 8195 -0.550000 15.99940
8196 OM 8196 OM OM1 8196 -0.550000 15.99940
8197 OM 8197 OM OM1 8197 -0.550000 15.99940
8198 OM 8198 OM OM1 8198 -0.550000 15.99940
8199 OM 8199 OM OM1 8199 -0.550000 15.99940
8200 OM 8200 OM OM1 8200 -0.550000 15.99940
8201 OM 8201 OM OM1 8201 -0.550000 15.99940
8202 OM 8202 OM OM1 8202 -0.550000 15.99940
8203 OM 8203 OM OM1 8203 -0.550000 15.99940
8204 OM 8204 OM OM1 8204 -0.550000 15.99940
8205 OM 8205 OM OM1 8205 -0.550000 15.99940
8206 OM 8206 OM OM1 8206 -0.550000 15.99940
8207 OM 8207 OM OM1 8207 -0.550000 15.99940
8208 OM 8208 OM OM1 8208 -0.550000 15.99940
8209 OM 8209 OM OM1 8209 -0.550000 15.99940
8210 OM 8210 OM OM1 8210 -0.550000 15.99940
8211 OM 8211 OM OM1 8211 -0.550000 15.99940
8212 OM 8212 OM OM1 8212 -0.550000 15.99940
8213 OM 8213 OM OM1 8213 -0.550000 15.99940
8214 OM 8214 OM OM1 8214 -0.550000 15.99940
8215 OM 8215 OM OM1 8215 -0.550000 15.99940
8216 OM 8216 OM OM1 8216 -0.550000 15.99940
8217 OM 8217 OM OM1 8217 -0.550000 15.99940
8218 OM 8218 OM OM1 8218 -0.550000 15.99940
8219 OM 8219 OM OM1 8219 -0.550000 15.99940
8220 OM 8220 OM OM1 8220 -0.550000 15.99940
8221 OM 8221 OM OM1 8221 -0.550000 15.99940
8222 OM 8222 OM OM1 8222 -0.550000 15.99940
8223 OM 8223 OM OM1 8223 -0.550000 15.99940
8224 OM 8224 OM OM1 8224 -0.550000 15.99940
8225 OM 8225 OM OM1 8225 -0.550000 15.99940
8226 OM 8226 OM OM1 8226 -0.550000 15.99940
8227 OM 8227 OM OM1 8227 -0.550000 15.99940
8228 OM 8228 OM OM1 8228 -0.550000 15.99940
8229 OM 8229 OM OM1 8229 -0.550000 15.99940
8230 OM 8230 OM OM1 8230 -0.550000 15.99940
8231 OM 8231 OM OM1 8231 -0.550000 15.99940
8232 OM 8232 OM OM1 8232 -0.550000 15.99940
8233 OM 8233 OM OM1 8233 -0.550000 15.99940
8234 OM 8234 OM OM1 8234 -0.550000 15.99940
8235 OM 8235 OM OM1 8235 -0.550000 15.99940
8236 OM 8236 OM OM1 8236 -0.550000 15.99940
8237 OM 8237 OM OM1 8237 -0.550000 15.99940
8238 OM 8238 OM OM1 8238 -0.550000 15.99940
8239 OM 8239 OM OM1 8239 -0.550000 15.99940
8240 OM 8240 OM OM1 8240 -0.550000 15.99940
8241 OM 8241 OM OM1 8241 -0.550000 15.99940
8242 OM 8242 OM OM1 8242 -0.550000 15.99940
8243 OM 8243 OM OM1 8243 -0.550000 15.99940
8244 OM 8244 OM OM1 8244 -0.550000 15.99940
8245 OM 8245 OM OM1 8245 -0.550000 15.99940
8246 OM 8246 OM OM1 8246 -0.550000 15.99940
8247 OM 8247 OM OM1 8247 -0.550000 15.99940
8248 OM 8248 OM OM1 8248 -0.550000 15.99940
8249 OM 8249 OM OM1 8249 -0.550000 15.99940
8250 OM 8250 OM OM1 8250 -0.550000 15.99940
8251 OM 8251 OM OM1 8251 -0.550000 15.99940
8252 OM 8252 OM OM1 8252 -0.550000 15.99940
8253 OM 8253 OM OM1 8253 -0.550000 15.99940
8254 OM 8254 OM OM1 8254 -0.550000 15.99940
8255 OM 8255 OM OM1 8255 -0.550000 15.99940
8256 OM 8256 OM OM1 8256 -0.550000 15.99940
8257 OM 8257 OM OM1 8257 -0.550000 15.99940
8258 OM 8258 OM OM1 8258 -0.550000 15.99940
8259 OM 8259 OM OM1 8259 -0.550000 15.99940
8260 OM 8260 OM OM1 8260 -0.550000 15.99940
8261 OM 8261 OM OM1 8261 -0.550000 15.99940
8262 OM 8262 OM OM1 8262 -0.550000 15.99940
8263 OM 8263 OM OM1 8263 -0.550000 15.99940
8264 OM 8264 OM OM1 8264 -0.550000 15.99940
8265 OM 8265 OM OM1 8265 -0.550000 15.99940
8266 OM 8266 OM OM1 8266 -0.550000 15.99940
8267 OM 8267 OM OM1 8267 -0.550000 15.99940
8268 OM 8268 OM OM1 8268 -0.550000 15.99940
8269 OM 8269 OM OM1 8269 -0.550000 15.99940
8270 OM 8270 OM OM1 8270 -0.550000 15.99940
8271 OM 8271 OM OM1 8271 -0.550000 15.99940
8272 OM 8272 OM OM1 8272 -0.550000 15.99940
8273 OM 8273 OM OM1 8273 -0.550000 15.99940
8274 OM 8274 OM OM1 8274 -0.550000 15.99940
8275 OM 8275 OM OM1 8275 -0.550000 15.99940
8276 OM 8276 OM OM1 8276 -0.550000 15.99940
8277 OM 8277 OM OM1 8277 -0.550000 15.99940
8278 OM 8278 OM OM1 8278 -0.550000 15.99940
8279 OM 8279 OM OM1 8279 -0.550000 15.99940
8280 OM 8280 OM OM1 8280 -0.550000 15.99940
8281 OM 8281 OM OM1 8281 -0.550000 15.99940
8282 OM 8282 OM OM1 8282 -0.550000 15.99940
8283 OM 8283 OM OM1 8283 -0.550000 15.99940
8284 OM 8284 OM OM1 8284 -0.550000 15.99940
8285 OM 8285 OM OM1 8285 -0.550000 15.99940
8286 OM 8286 OM OM1 8286 -0.550000 15.99940
8287 OM 8287 OM OM1 8287 -0.550000 15.99940
8288 OM 8288 OM OM1 8288 -0.550000 15.99940
8289 OM 8289 OM OM1 8289 -0.550000 15.99940
8290 OM 8290 OM OM1 8290 -0.550000 15.99940
8291 OM 8291 OM OM1 8291 -0.550000 15.99940
8292 OM 8292 OM OM1 8292 -0.550000 15.99940
8293 OM 8293 OM OM1 8293 -0.550000 15.99940
8294 OM 8294 OM OM1 8294 -0.550000 15.99940
8295 OM 8295 OM OM1 8295 -0.550000 15.99940
8296 OM 8296 OM OM1 8296 -0.550000 15.99940
8297 OM 8297 OM OM1 8297 -0.550000 15.99940
8298 OM 8298 OM OM1 8298 -0.550000 15.99940
8299 OM 8299 OM OM1 8299 -0.550000 15.99940
8300 OM 8300 OM OM1 8300 -0.550000 15.99940
8301 OM 8301 OM OM1 8301 -0.550000 15.99940
8302 OM 8302 OM OM1 8302 -0.550000 15.99940
8303 OM 8303 OM OM1 8303 -0.550000 15.99940
8304 OM 8304 OM OM1 8304 -0.550000 15.99940
8305 OM 8305 OM OM1 8305 -0.550000 15.99940
8306 OM 8306 OM OM1 8306 -0.550000 15.99940
8307 OM 8307 OM OM1 8307 -0.550000 15.99940
8308 OM 8308 OM OM1 8308 -0.550000 15.99940
8309 OM 8309 OM OM1 8309 -0.550000 15.99940
8310 OM 8310 OM OM1 8310 -0.550000 15.99940
8311 OM 8311 OM OM1 8311 -0.550000 15.99940
8312 OM 8312 OM OM1 8312 -0.550000 15.99940
8313 OM 8313 OM OM1 8313 -0.550000 15.99940
8314 OM 8314 OM OM1 8314 -0.550000 15.99940
8315 OM 8315 OM OM1 8315 -0.550000 15.99940
8316 OM 8316 OM OM1 8316 -0.550000 15.99940
8317 OM 8317 OM OM1 8317 -0.550000 15.99940
8318 OM 8318 OM OM1 8318 -0.550000 15.99940
8319 OM 8319 OM OM1 8319 -0.550000 15.99940
8320 OM 8320 OM OM1 8320 -0.550000 15.99940
8321 OM 8321 OM OM1 8321 -0.550000 15.99940
8322 OM 8322 OM OM1 8322 -0.550000 15.99940
8323 OM 8323 OM OM1 8323 -0.550000 15.99940
8324 OM 8324 OM OM1 8324 -0.550000 15.99940
8325 OM 8325 OM OM1 8325 -0.550000 15.99940
8326 OM 8326 OM OM1 8326 -0.550000 15.99940
8327 OM 8327 OM OM1 8327 -0.550000 15.99940
8328 OM 8328 OM OM1 8328 -0.550000 15.99940
8329 OM 8329 OM OM1 8329 -0.550000 15.99940
8330 OM 8330 OM OM1 8330 -0.550000 15.99940
8331 OM 8331 OM OM1 8331 -0.550000 15.99940
8332 OM 8332 OM OM1 8332 -0.550000 15.99940
8333 OM 8333 OM OM1 8333 -0.550000 15.99940
8334 OM 8334 OM OM1 8334 -0.550000 15.99940
8335 OM 8335 OM OM1 8335 -0.550000 15.99940
8336 OM 8336 OM OM1 8336 -0.550000 15.99940
8337 OM 8337 OM OM1 8337 -0.550000 15.99940
8338 OM 8338 OM OM1 8338 -0.550000 15.99940
8339 OM 8339 OM OM1 8339 -0.550000 15.99940
8340 OM 8340 OM OM1 8340 -0.550000 15.99940
8341 OM 8341 OM OM1 8341 -0.550000 15.99940
8342 OM 8342 OM OM1 8342 -0.550000 15.99940
8343 OM 8343 OM OM1 8343 -0.550000 15.99940
8344 OM 8344 OM OM1 8344 -0.550000 15.99940
8345 OM 8345 OM OM1 8345 -0.550000 15.99940
8346 OM 8346 OM OM1 8346 -0.550000 15.99940
8347 OM 8347 OM OM1 8347 -0.550000 15.99940
8348 OM 8348 OM OM1 8348 -0.550000 15.99940
8349 OM 8349 OM OM1 8349 -0.550000 15.99940
8350 OM 8350 OM OM1 8350 -0.550000 15.99940
8351 OM 8351 OM OM1 8351 -0.550000 15.99940
8352 OM 8352 OM OM1 8352 -0.550000 15.99940
8353 OM 8353 OM OM1 8353 -0.550000 15.99940
8354 OM 8354 OM OM1 8354 -0.550000 15.99940
8355 OM 8355 OM OM1 8355 -0.550000 15.99940
8356 OM 8356 OM OM1 8356 -0.550000 15.99940
8357 OM 8357 OM OM1 8357 -0.550000 15.99940
8358 OM 8358 OM OM1 8358 -0.550000 15.99940
8359 OM 8359 OM OM1 8359 -0.550000 15.99940
8360 OM 8360 OM OM1 8360 -0.550000 15.99940
8361 OM 8361 OM OM1 8361 -0.550000 15.99940
8362 OM 8362 OM OM1 8362 -0.550000 15.99940
8363 OM 8363 OM OM1 8363 -0.550000 15.99940
8364 OM 8364 OM OM1 8364 -0.550000 15.99940
8365 OM 8365 OM OM1 8365 -0.550000 15.99940
8366 OM 8366 OM OM1 8366 -0.550000 15.99940
8367 OM 8367 OM OM1 8367 -0.550000 15.99940
8368 OM 8368 OM OM1 8368 -0.550000 15.99940
8369 OM 8369 OM OM1 8369 -0.550000 15.99940
8370 OM 8370 OM OM1 8370 -0.550000 15.99940
8371 OM 8371 OM OM1 8371 -0.550000 15.99940
8372 OM 8372 OM OM1 8372 -0.550000 15.99940
8373 OM 8373 OM OM1 8373 -0.550000 15.99940
8374 OM 8374 OM OM1 8374 -0.550000 15.99940
8375 OM 8375 OM OM1 8375 -0.550000 15.99940
8376 OM 8376 OM OM1 8376 -0.550000 15.99940
8377 OM 8377 OM OM1 8377 -0.550000 15.99940
8378 OM 8378 OM OM1 8378 -0.550000 15.99940
8379 OM 8379 OM OM1 8379 -0.550000 15.99940
8380 OM 8380 OM OM1 8380 -0.550000 15.99940
8381 OM 8381 OM OM1 8381 -0.550000 15.99940
8382 OM 8382 OM OM1 8382 -0.550000 15.99940
8383 OM 8383 OM OM1 8383 -0.550000 15.99940
8384 OM 8384 OM OM1 8384 -0.550000 15.99940
8385 OM 8385 OM OM1 8385 -0.550000 15.99940
8386 OM 8386 OM OM1 8386 -0.550000 15.99940
8387 OM 8387 OM OM1 8387 -0.550000 15.99940
8388 OM 8388 OM OM1 8388 -0.550000 15.99940
8389 OM 8389 OM OM1 8389 -0.550000 15.99940
8390 OM 8390 OM OM1 8390 -0.550000 15.99940
8391 OM 8391 OM OM1 8391 -0.550000 15.99940
8392 OM 8392 OM OM1 8392 -0.550000 15.99940
8393 OM 8393 OM OM1 8393 -0.550000 15.99940
8394 OM 8394 OM OM1 8394 -0.550000 15.99940
8395 OM 8395 OM OM1 8395 -0.550000 15.99940
8396 OM 8396 OM OM1 8396 -0.550000 15.99940
8397 OM 8397 OM OM1 8397 -0.550000 15.99940
8398 OM 8398 OM OM1 8398 -0.550000 15.99940
8399 OM 8399 OM OM1 8399 -0.550000 15.99940
8400 OM 8400 OM OM1 8400 -0.550000 15.99940
8401 OM 8401 OM OM1 8401 -0.550000 15.99940
8402 OM 8402 OM OM1 8402 -0.550000 15.99940
8403 OM 8403 OM OM1 8403 -0.550000 15.99940
8404 OM 8404 OM OM1 8404 -0.550000 15.99940
8405 OM 8405 OM OM1 8405 -0.550000 15.99940
8406 OM 8406 OM OM1 8406 -0.550000 15.99940
8407 OM 8407 OM OM1 8407 -0.550000 15.99940
8408 OM 8408 OM OM1 8408 -0.550000 15.99940
8409 OM 8409 OM OM1 8409 -0.550000 15.99940
8410 OM 8410 OM OM1 8410 -0.550000 15.99940
8411 OM 8411 OM OM1 8411 -0.550000 15.99940
8412 OM 8412 OM OM1 8412 -0.550000 15.99940
8413 OM 8413 OM OM1 8413 -0.550000 15.99940
8414 OM 8414 OM OM1 8414 -0.550000 15.99940
8415 OM 8415 OM OM1 8415 -0.550000 15.99940
8416 OM 8416 OM OM1 8416 -0.550000 15.99940
8417 OM 8417 OM OM1 8417 -0.550000 15.99940
8418 OM 8418 OM OM1 8418 -0.550000 15.99940
8419 OM 8419 OM OM1 8419 -0.550000 15.99940
8420 OM 8420 OM OM1 8420 -0.550000 15.99940
8421 OM 8421 OM OM1 8421 -0.550000 15.99940
8422 OM 8422 OM OM1 8422 -0.550000 15.99940
8423 OM 8423 OM OM1 8423 -0.550000 15.99940
8424 OM 8424 OM OM1 8424 -0.550000 15.99940
8425 OM 8425 OM OM1 8425 -0.550000 15.99940
8426 OM 8426 OM OM1 8426 -0.550000 15.99940
8427 OM 8427 OM OM1 8427 -0.550000 15.99940
8428 OM 8428 OM OM1 8428 -0.550000 15.99940
8429 OM 8429 OM OM1 8429 -0.550000 15.99940
8430 OM 8430 OM OM1 8430 -0.550000 15.99940
8431 OM 8431 OM OM1 8431 -0.550000 15.99940
8432 OM 8432 OM OM1 8432 -0.550000 15.99940
8433 OM 8433 OM OM1 8433 -0.550000 15.99940
8434 OM 8434 OM OM1 8434 -0.550000 15.99940
8435 OM 8435 OM OM1 8435 -0.550000 15.99940
8436 OM 8436 OM OM1 8436 -0.550000 15.99940
8437 OM 8437 OM OM1 8437 -0.550000 15.99940
8438 OM 8438 OM OM1 8438 -0.550000 15.99940
8439 OM 8439 OM OM1 8439 -0.550000 15.99940
8440 OM 8440 OM OM1 8440 -0.550000 15.99940
8441 OM 8441 OM OM1 8441 -0.550000 15.99940
8442 OM 8442 OM OM1 8442 -0.550000 15.99940
8443 OM 8443 OM OM1 8443 -0.550000 15.99940
8444 OM 8444 OM OM1 8444 -0.550000 15.99940
8445 OM 8445 OM OM1 8445 -0.550000 15.99940
8446 OM 8446 OM OM1 8446 -0.550000 15.99940
8447 OM 8447 OM OM1 8447 -0.550000 15.99940
8448 OM 8448 OM OM1 8448 -0.550000 15.99940
8449 OM 8449 OM OM1 8449 -0.550000 15.99940
8450 OM 8450 OM OM1 8450 -0.550000 15.99940
8451 OM 8451 OM OM1 8451 -0.550000 15.99940
8452 OM 8452 OM OM1 8452 -0.550000 15.99940
8453 OM 8453 OM OM1 8453 -0.550000 15.99940
8454 OM 8454 OM OM1 8454 -0.550000 15.99940
8455 OM 8455 OM OM1 8455 -0.550000 15.99940
8456 OM 8456 OM OM1 8456 -0.550000 15.99940
8457 OM 8457 OM OM1 8457 -0.550000 15.99940
8458 OM 8458 OM OM1 8458 -0.550000 15.99940
8459 OM 8459 OM OM1 8459 -0.550000 15.99940
8460 OM 8460 OM OM1 8460 -0.550000 15.99940
8461 OM 8461 OM OM1 8461 -0.550000 15.99940
8462 OM 8462 OM OM1 8462 -0.550000 15.99940
8463 OM 8463 OM OM1 8463 -0.550000 15.99940
8464 OM 8464 OM OM1 8464 -0.550000 15.99940
8465 OM 8465 OM OM1 8465 -0.550000 15.99940
8466 OM 8466 OM OM1 8466 -0.550000 15.99940
8467 OM 8467 OM OM1 8467 -0.550000 15.99940
8468 OM 8468 OM OM1 8468 -0.550000 15.99940
8469 OM 8469 OM OM1 8469 -0.550000 15.99940
8470 OM 8470 OM OM1 8470 -0.550000 15.99940
8471 OM 8471 OM OM1 8471 -0.550000 15.99940
8472 OM 8472 OM OM1 8472 -0.550000 15.99940
8473 OM 8473 OM OM1 8473 -0.550000 15.99940
8474 OM 8474 OM OM1 8474 -0.550000 15.99940
8475 OM 8475 OM OM1 8475 -0.550000 15.99940
8476 OM 8476 OM OM1 8476 -0.550000 15.99940
8477 OM 8477 OM OM1 8477 -0.550000 15.99940
8478 OM 8478 OM OM1 8478 -0.550000 15.99940
8479 OM 8479 OM OM1 8479 -0.550000 15.99940
8480 OM 8480 OM OM1 8480 -0.550000 15.99940
8481 OM 8481 OM OM1 8481 -0.550000 15.99940
8482 OM 8482 OM OM1 8482 -0.550000 15.99940
8483 OM 8483 OM OM1 8483 -0.550000 15.99940
8484 OM 8484 OM OM1 8484 -0.550000 15.99940
8485 OM 8485 OM OM1 8485 -0.550000 15.99940
8486 OM 8486 OM OM1 8486 -0.550000 15.99940
8487 OM 8487 OM OM1 8487 -0.550000 15.99940
8488 OM 8488 OM OM1 8488 -0.550000 15.99940
8489 OM 8489 OM OM1 8489 -0.550000 15.99940
8490 OM 8490 OM OM1 8490 -0.550000 15.99940
8491 OM 8491 OM OM1 8491 -0.550000 15.99940
8492 OM 8492 OM OM1 8492 -0.550000 15.99940
8493 OM 8493 OM OM1 8493 -0.550000 15.99940
8494 OM 8494 OM OM1 8494 -0.550000 15.99940
8495 OM 8495 OM OM1 8495 -0.550000 15.99940
8496 OM 8496 OM OM1 8496 -0.550000 15.99940
8497 OM 8497 OM OM1 8497 -0.550000 15.99940
8498 OM 8498 OM OM1 8498 -0.550000 15.99940
8499 OM 8499 OM OM1 8499 -0.550000 15.99940
8500 OM 8500 OM OM1 8500 -0.550000 15.99940
8501 OM 8501 OM OM1 8501 -0.550000 15.99940
8502 OM 8502 OM OM1 8502 -0.550000 15.99940
8503 OM 8503 OM OM1 8503 -0.550000 15.99940
8504 OM 8504 OM OM1 8504 -0.550000 15.99940
8505 OM 8505 OM OM1 8505 -0.550000 15.99940
8506 OM 8506 OM OM1 8506 -0.550000 15.99940
8507 OM 8507 OM OM1 8507 -0.550000 15.99940
8508 OM 8508 OM OM1 8508 -0.550000 15.99940
8509 OM 8509 OM OM1 8509 -0.550000 15.99940
8510 OM 8510 OM OM1 8510 -0.550000 15.99940
8511 OM 8511 OM OM1 8511 -0.550000 15.99940
8512 OM 8512 OM OM1 8512 -0.550000 15.99940
8513 OM 8513 OM OM1 8513 -0.550000 15.99940
8514 OM 8514 OM OM1 8514 -0.550000 15.99940
8515 OM 8515 OM OM1 8515 -0.550000 15.99940
8516 OM 8516 OM OM1 8516 -0.550000 15.99940
8517 OM 8517 OM OM1 8517 -0.550000 15.99940
8518 OM 8518 OM OM1 8518 -0.550000 15.99940
8519 OM 8519 OM OM1 8519 -0.550000 15.99940
8520 OM 8520 OM OM1 8520 -0.550000 15.99940
8521 OM 8521 OM OM1 8521 -0.550000 15.99940
8522 OM 8522 OM OM1 8522 -0.550000 15.99940
8523 OM 8523 OM OM1 8523 -0.550000 15.99940
8524 OM 8524 OM OM1 8524 -0.550000 15.99940
8525 OM 8525 OM OM1 8525 -0.550000 15.99940
8526 OM 8526 OM OM1 8526 -0.550000 15.99940
8527 OM 8527 OM OM1 8527 -0.550000 15.99940
8528 OM 8528 OM OM1 8528 -0.550000 15.99940
8529 OM 8529 OM OM1 8529 -0.550000 15.99940
8530 OM 8530 OM OM1 8530 -0.550000 15.99940
8531 OM 8531 OM OM1 8531 -0.550000 15.99940
8532 OM 8532 OM OM1 8532 -0.550000 15.99940
8533 OM 8533 OM OM1 8533 -0.550000 15.99940
8534 OM 8534 OM OM1 8534 -0.550000 15.99940
8535 OM 8535 OM OM1 8535 -0.550000 15.99940
8536 OM 8536 OM OM1 8536 -0.550000 15.99940
8537 OM 8537 OM OM1 8537 -0.550000 15.99940
8538 OM 8538 OM OM1 8538 -0.550000 15.99940
8539 OM 8539 OM OM1 8539 -0.550000 15.99940
8540 OM 8540 OM OM1 8540 -0.550000 15.99940
8541 OM 8541 OM OM1 8541 -0.550000 15.99940
8542 OM 8542 OM OM1 8542 -0.550000 15.99940
8543 OM 8543 OM OM1 8543 -0.550000 15.99940
8544 OM 8544 OM OM1 8544 -0.550000 15.99940
8545 OM 8545 OM OM1 8545 -0.550000 15.99940
8546 OM 8546 OM OM1 8546 -0.550000 15.99940
8547 OM 8547 OM OM1 8547 -0.550000 15.99940
8548 OM 8548 OM OM1 8548 -0.550000 15.99940
8549 OM 8549 OM OM1 8549 -0.550000 15.99940
8550 OM 8550 OM OM1 8550 -0.550000 15.99940
8551 OM 8551 OM OM1 8551 -0.550000 15.99940
8552 OM 8552 OM OM1 8552 -0.550000 15.99940
8553 OM 8553 OM OM1 8553 -0.550000 15.99940
8554 OM 8554 OM OM1 8554 -0.550000 15.99940
8555 OM 8555 OM OM1 8555 -0.550000 15.99940
8556 OM 8556 OM OM1 8556 -0.550000 15.99940
8557 OM 8557 OM OM1 8557 -0.550000 15.99940
8558 OM 8558 OM OM1 8558 -0.550000 15.99940
8559 OM 8559 OM OM1 8559 -0.550000 15.99940
8560 OM 8560 OM OM1 8560 -0.550000 15.99940
8561 OM 8561 OM OM1 8561 -0.550000 15.99940
8562 OM 8562 OM OM1 8562 -0.550000 15.99940
8563 OM 8563 OM OM1 8563 -0.550000 15.99940
8564 OM 8564 OM OM1 8564 -0.550000 15.99940
8565 OM 8565 OM OM1 8565 -0.550000 15.99940
8566 OM 8566 OM OM1 8566 -0.550000 15.99940
8567 OM 8567 OM OM1 8567 -0.550000 15.99940
8568 OM 8568 OM OM1 8568 -0.550000 15.99940
8569 OM 8569 OM OM1 8569 -0.550000 15.99940
8570 OM 8570 OM OM1 8570 -0.550000 15.99940
8571 OM 8571 OM OM1 8571 -0.550000 15.99940
8572 OM 8572 OM OM1 8572 -0.550000 15.99940
8573 OM 8573 OM OM1 8573 -0.550000 15.99940
8574 OM 8574 OM OM1 8574 -0.550000 15.99940
8575 OM 8575 OM OM1 8575 -0.550000 15.99940
8576 OM 8576 OM OM1 8576 -0.550000 15.99940
8577 OM 8577 OM OM1 8577 -0.550000 15.99940
8578 OM 8578 OM OM1 8578 -0.550000 15.99940
8579 OM 8579 OM OM1 8579 -0.550000 15.99940
8580 OM 8580 OM OM1 8580 -0.550000 15.99940
8581 OM 8581 OM OM1 8581 -0.550000 15.99940
8582 OM 8582 OM OM1 8582 -0.550000 15.99940
8583 OM 8583 OM OM1 8583 -0.550000 15.99940
8584 OM 8584 OM OM1 8584 -0.550000 15.99940
8585 OM 8585 OM OM1 8585 -0.550000 15.99940
8586 OM 8586 OM OM1 8586 -0.550000 15.99940
8587 OM 8587 OM OM1 8587 -0.550000 15.99940
8588 OM 8588 OM OM1 8588 -0.550000 15.99940
8589 OM 8589 OM OM1 8589 -0.550000 15.99940
8590 OM 8590 OM OM1 8590 -0.550000 15.99940
8591 OM 8591 OM OM1 8591 -0.550000 15.99940
8592 OM 8592 OM OM1 8592 -0.550000 15.99940
8593 OM 8593 OM OM1 8593 -0.550000 15.99940
8594 OM 8594 OM OM1 8594 -0.550000 15.99940
8595 OM 8595 OM OM1 8595 -0.550000 15.99940
8596 OM 8596 OM OM1 8596 -0.550000 15.99940
8597 OM 8597 OM OM1 8597 -0.550000 15.99940
8598 OM 8598 OM OM1 8598 -0.550000 15.99940
8599 OM 8599 OM OM1 8599 -0.550000 15.99940
8600 OM 8600 OM OM1 8600 -0.550000 15.99940
8601 OM 8601 OM OM1 8601 -0.550000 15.99940
8602 OM 8602 OM OM1 8602 -0.550000 15.99940
8603 OM 8603 OM OM1 8603 -0.550000 15.99940
8604 OM 8604 OM OM1 8604 -0.550000 15.99940
8605 OM 8605 OM OM1 8605 -0.550000 15.99940
8606 OM 8606 OM OM1 8606 -0.550000 15.99940
8607 OM 8607 OM OM1 8607 -0.550000 15.99940
8608 OM 8608 OM OM1 8608 -0.550000 15.99940
8609 OM 8609 OM OM1 8609 -0.550000 15.99940
8610 OM 8610 OM OM1 8610 -0.550000 15.99940
8611 OM 8611 OM OM1 8611 -0.550000 15.99940
8612 OM 8612 OM OM1 8612 -0.550000 15.99940
8613 OM 8613 OM OM1 8613 -0.550000 15.99940
8614 OM 8614 OM OM1 8614 -0.550000 15.99940
8615 OM 8615 OM OM1 8615 -0.550000 15.99940
8616 OM 8616 OM OM1 8616 -0.550000 15.99940
8617 OM 8617 OM OM1 8617 -0.550000 15.99940
8618 OM 8618 OM OM1 8618 -0.550000 15.99940
8619 OM 8619 OM OM1 8619 -0.550000 15.99940
8620 OM 8620 OM OM1 8620 -0.550000 15.99940
8621 OM 8621 OM OM1 8621 -0.550000 15.99940
8622 OM 8622 OM OM1 8622 -0.550000 15.99940
8623 OM 8623 OM OM1 8623 -0.550000 15.99940
8624 OM 8624 OM OM1 8624 -0.550000 15.99940
8625 OM 8625 OM OM1 8625 -0.550000 15.99940
8626 OM 8626 OM OM1 8626 -0.550000 15.99940
8627 OM 8627 OM OM1 8627 -0.550000 15.99940
8628 OM 8628 OM OM1 8628 -0.550000 15.99940
8629 OM 8629 OM OM1 8629 -0.550000 15.99940
8630 OM 8630 OM OM1 8630 -0.550000 15.99940
8631 OM 8631 OM OM1 8631 -0.550000 15.99940
8632 OM 8632 OM OM1 8632 -0.550000 15.99940
8633 OM 8633 OM OM1 8633 -0.550000 15.99940
8634 OM 8634 OM OM1 8634 -0.550000 15.99940
8635 OM 8635 OM OM1 8635 -0.550000 15.99940
8636 OM 8636 OM OM1 8636 -0.550000 15.99940
8637 OM 8637 OM OM1 8637 -0.550000 15.99940
8638 OM 8638 OM OM1 8638 -0.550000 15.99940
8639 OM 8639 OM OM1 8639 -0.550000 15.99940
8640 OM 8640 OM OM1 8640 -0.550000 15.99940
8641 OM 8641 OM OM1 8641 -0.550000 15.99940
8642 OM 8642 OM OM1 8642 -0.550000 15.99940
8643 OM 8643 OM OM1 8643 -0.550000 15.99940
8644 OM 8644 OM OM1 8644 -0.550000 15.99940
8645 OM 8645 OM OM1 8645 -0.550000 15.99940
8646 OM 8646 OM OM1 8646 -0.550000 15.99940
8647 OM 8647 OM OM1 8647 -0.550000 15.99940
8648 OM 8648 OM OM1 8648 -0.550000 15.99940
8649 OM 8649 OM OM1 8649 -0.550000 15.99940
8650 OM 8650 OM OM1 8650 -0.550000 15.99940
8651 OM 8651 OM OM1 8651 -0.550000 15.99940
8652 OM 8652 OM OM1 8652 -0.550000 15.99940
8653 OM 8653 OM OM1 8653 -0.550000 15.99940
8654 OM 8654 OM OM1 8654 -0.550000 15.99940
8655 OM 8655 OM OM1 8655 -0.550000 15.99940
8656 OM 8656 OM OM1 8656 -0.550000 15.99940
8657 OM 8657 OM OM1 8657 -0.550000 15.99940
8658 OM 8658 OM OM1 8658 -0.550000 15.99940
8659 OM 8659 OM OM1 8659 -0.550000 15.99940
8660 OM 8660 OM OM1 8660 -0.550000 15.99940
8661 OM 8661 OM OM1 8661 -0.550000 15.99940
8662 OM 8662 OM OM1 8662 -0.550000 15.99940
8663 OM 8663 OM OM1 8663 -0.550000 15.99940
8664 OM 8664 OM OM1 8664 -0.550000 15.99940
8665 OM 8665 OM OM1 8665 -0.550000 15.99940
8666 OM 8666 OM OM1 8666 -0.550000 15.99940
8667 OM 8667 OM OM1 8667 -0.550000 15.99940
8668 OM 8668 OM OM1 8668 -0.550000 15.99940
8669 OM 8669 OM OM1 8669 -0.550000 15.99940
8670 OM 8670 OM OM1 8670 -0.550000 15.99940
8671 OM 8671 OM OM1 8671 -0.550000 15.99940
8672 OM 8672 OM OM1 8672 -0.550000 15.99940
8673 OM 8673 OM OM1 8673 -0.550000 15.99940
8674 OM 8674 OM OM1 8674 -0.550000 15.99940
8675 OM 8675 OM OM1 8675 -0.550000 15.99940
8676 OM 8676 OM OM1 8676 -0.550000 15.99940
8677 OM 8677 OM OM1 8677 -0.550000 15.99940
8678 OM 8678 OM OM1 8678 -0.550000 15.99940
8679 OM 8679 OM OM1 8679 -0.550000 15.99940
8680 OM 8680 OM OM1 8680 -0.550000 15.99940
8681 OM 8681 OM OM1 8681 -0.550000 15.99940
8682 OM 8682 OM OM1 8682 -0.550000 15.99940
8683 OM 8683 OM OM1 8683 -0.550000 15.99940
8684 OM 8684 OM OM1 8684 -0.550000 15.99940
8685 OM 8685 OM OM1 8685 -0.550000 15.99940
8686 OM 8686 OM OM1 8686 -0.550000 15.99940
8687 OM 8687 OM OM1 8687 -0.550000 15.99940
8688 OM 8688 OM OM1 8688 -0.550000 15.99940
8689 OM 8689 OM OM1 8689 -0.550000 15.99940
8690 OM 8690 OM OM1 8690 -0.550000 15.99940
8691 OM 8691 OM OM1 8691 -0.550000 15.99940
8692 OM 8692 OM OM1 8692 -0.550000 15.99940
8693 OM 8693 OM OM1 8693 -0.550000 15.99940
8694 OM 8694 OM OM1 8694 -0.550000 15.99940
8695 OM 8695 OM OM1 8695 -0.550000 15.99940
8696 OM 8696 OM OM1 8696 -0.550000 15.99940
8697 OM 8697 OM OM1 8697 -0.550000 15.99940
8698 OM 8698 OM OM1 8698 -0.550000 15.99940
8699 OM 8699 OM OM1 8699 -0.550000 15.99940
8700 OM 8700 OM OM1 8700 -0.550000 15.99940
8701 OM 8701 OM OM1 8701 -0.550000 15.99940
8702 OM 8702 OM OM1 8702 -0.550000 15.99940
8703 OM 8703 OM OM1 8703 -0.550000 15.99940
8704 OM 8704 OM OM1 8704 -0.550000 15.99940
8705 OM 8705 OM OM1 8705 -0.550000 15.99940
8706 OM 8706 OM OM1 8706 -0.550000 15.99940
8707 OM 8707 OM OM1 8707 -0.550000 15.99940
8708 OM 8708 OM OM1 8708 -0.550000 15.99940
8709 OM 8709 OM OM1 8709 -0.550000 15.99940
8710 OM 8710 OM OM1 8710 -0.550000 15.99940
8711 OM 8711 OM OM1 8711 -0.550000 15.99940
8712 OM 8712 OM OM1 8712 -0.550000 15.99940
8713 OM 8713 OM OM1 8713 -0.550000 15.99940
8714 OM 8714 OM OM1 8714 -0.550000 15.99940
8715 OM 8715 OM OM1 8715 -0.550000 15.99940
8716 OM 8716 OM OM1 8716 -0.550000 15.99940
8717 OM 8717 OM OM1 8717 -0.550000 15.99940
8718 OM 8718 OM OM1 8718 -0.550000 15.99940
8719 OM 8719 OM OM1 8719 -0.550000 15.99940
8720 OM 8720 OM OM1 8720 -0.550000 15.99940
8721 OM 8721 OM OM1 8721 -0.550000 15.99940
8722 OM 8722 OM OM1 8722 -0.550000 15.99940
8723 OM 8723 OM OM1 8723 -0.550000 15.99940
8724 OM 8724 OM OM1 8724 -0.550000 15.99940
8725 OM 8725 OM OM1 8725 -0.550000 15.99940
8726 OM 8726 OM OM1 8726 -0.550000 15.99940
8727 OM 8727 OM OM1 8727 -0.550000 15.99940
8728 OM 8728 OM OM1 8728 -0.550000 15.99940
8729 OM 8729 OM OM1 8729 -0.550000 15.99940
8730 OM 8730 OM OM1 8730 -0.550000 15.99940
8731 OM 8731 OM OM1 8731 -0.550000 15.99940
8732 OM 8732 OM OM1 8732 -0.550000 15.99940
8733 OM 8733 OM OM1 8733 -0.550000 15.99940
8734 OM 8734 OM OM1 8734 -0.550000 15.99940
8735 OM 8735 OM OM1 8735 -0.550000 15.99940
8736 OM 8736 OM OM1 8736 -0.550000 15.99940
8737 OM 8737 OM OM1 8737 -0.550000 15.99940
8738 OM 8738 OM OM1 8738 -0.550000 15.99940
8739 OM 8739 OM OM1 8739 -0.550000 15.99940
8740 OM 8740 OM OM1 8740 -0.550000 15.99940
8741 OM 8741 OM OM1 8741 -0.550000 15.99940
8742 OM 8742 OM OM1 8742 -0.550000 15.99940
8743 OM 8743 OM OM1 8743 -0.550000 15.99940
8744 OM 8744 OM OM1 8744 -0.550000 15.99940
8745 OM 8745 OM OM1 8745 -0.550000 15.99940
8746 OM 8746 OM OM1 8746 -0.550000 15.99940
8747 OM 8747 OM OM1 8747 -0.550000 15.99940
8748 OM 8748 OM OM1 8748 -0.550000 15.99940
8749 OM 8749 OM OM1 8749 -0.550000 15.99940
8750 OM 8750 OM OM1 8750 -0.550000 15.99940
8751 OM 8751 OM OM1 8751 -0.550000 15.99940
8752 OM 8752 OM OM1 8752 -0.550000 15.99940
8753 OM 8753 OM OM1 8753 -0.550000 15.99940
8754 OM 8754 OM OM1 8754 -0.550000 15.99940
8755 OM 8755 OM OM1 8755 -0.550000 15.99940
8756 OM 8756 OM OM1 8756 -0.550000 15.99940
8757 OM 8757 OM OM1 8757 -0.550000 15.99940
8758 OM 8758 OM OM1 8758 -0.550000 15.99940
8759 OM 8759 OM OM1 8759 -0.550000 15.99940
8760 OM 8760 OM OM1 8760 -0.550000 15.99940
8761 OM 8761 OM OM1 8761 -0.550000 15.99940
8762 OM 8762 OM OM1 8762 -0.550000 15.99940
8763 OM 8763 OM OM1 8763 -0.550000 15.99940
8764 OM 8764 OM OM1 8764 -0.550000 15.99940
8765 OM 8765 OM OM1 8765 -0.550000 15.99940
8766 OM 8766 OM OM1 8766 -0.550000 15.99940
8767 OM 8767 OM OM1 8767 -0.550000 15.99940
8768 OM 8768 OM OM1 8768 -0.550000 15.99940
8769 OM 8769 OM OM1 8769 -0.550000 15.99940
8770 OM 8770 OM OM1 8770 -0.550000 15.99940
8771 OM 8771 OM OM1 8771 -0.550000 15.99940
8772 OM 8772 OM OM1 8772 -0.550000 15.99940
8773 OM 8773 OM OM1 8773 -0.550000 15.99940
8774 OM 8774 OM OM1 8774 -0.550000 15.99940
8775 OM 8775 OM OM1 8775 -0.550000 15.99940
8776 OM 8776 OM OM1 8776 -0.550000 15.99940
8777 OM 8777 OM OM1 8777 -0.550000 15.99940
8778 OM 8778 OM OM1 8778 -0.550000 15.99940
8779 OM 8779 OM OM1 8779 -0.550000 15.99940
8780 OM 8780 OM OM1 8780 -0.550000 15.99940
8781 OM 8781 OM OM1 8781 -0.550000 15.99940
8782 OM 8782 OM OM1 8782 -0.550000 15.99940
8783 OM 8783 OM OM1 8783 -0.550000 15.99940
8784 OM 8784 OM OM1 8784 -0.550000 15.99940
8785 OM 8785 OM OM1 8785 -0.550000 15.99940
8786 OM 8786 OM OM1 8786 -0.550000 15.99940
8787 OM 8787 OM OM1 8787 -0.550000 15.99940
8788 OM 8788 OM OM1 8788 -0.550000 15.99940
8789 OM 8789 OM OM1 8789 -0.550000 15.99940
8790 OM 8790 OM OM1 8790 -0.550000 15.99940
8791 OM 8791 OM OM1 8791 -0.550000 15.99940
8792 OM 8792 OM OM1 8792 -0.550000 15.99940
8793 OM 8793 OM OM1 8793 -0.550000 15.99940
8794 OM 8794 OM OM1 8794 -0.550000 15.99940
8795 OM 8795 OM OM1 8795 -0.550000 15.99940
8796 OM 8796 OM OM1 8796 -0.550000 15.99940
8797 OM 8797 OM OM1 8797 -0.550000 15.99940
8798 OM 8798 OM OM1 8798 -0.550000 15.99940
8799 OM 8799 OM OM1 8799 -0.550000 15.99940
8800 OM 8800 OM OM1 8800 -0.550000 15.99940
8801 OM 8801 OM OM1 8801 -0.550000 15.99940
8802 OM 8802 OM OM1 8802 -0.550000 15.99940
8803 OM 8803 OM OM1 8803 -0.550000 15.99940
8804 OM 8804 OM OM1 8804 -0.550000 15.99940
8805 OM 8805 OM OM1 8805 -0.550000 15.99940
8806 OM 8806 OM OM1 8806 -0.550000 15.99940
8807 OM 8807 OM OM1 8807 -0.550000 15.99940
8808 OM 8808 OM OM1 8808 -0.550000 15.99940
8809 OM 8809 OM OM1 8809 -0.550000 15.99940
8810 OM 8810 OM OM1 8810 -0.550000 15.99940
8811 OM 8811 OM OM1 8811 -0.550000 15.99940
8812 OM 8812 OM OM1 8812 -0.550000 15.99940
8813 OM 8813 OM OM1 8813 -0.550000 15.99940
8814 OM 8814 OM OM1 8814 -0.550000 15.99940
8815 OM 8815 OM OM1 8815 -0.550000 15.99940
8816 OM 8816 OM OM1 8816 -0.550000 15.99940
8817 OM 8817 OM OM1 8817 -0.550000 15.99940
8818 OM 8818 OM OM1 8818 -0.550000 15.99940
8819 OM 8819 OM OM1 8819 -0.550000 15.99940
8820 OM 8820 OM OM1 8820 -0.550000 15.99940
8821 OM 8821 OM OM1 8821 -0.550000 15.99940
8822 OM 8822 OM OM1 8822 -0.550000 15.99940
8823 OM 8823 OM OM1 8823 -0.550000 15.99940
8824 OM 8824 OM OM1 8824 -0.550000 15.99940
8825 OM 8825 OM OM1 8825 -0.550000 15.99940
8826 OM 8826 OM OM1 8826 -0.550000 15.99940
8827 OM 8827 OM OM1 8827 -0.550000 15.99940
8828 OM 8828 OM OM1 8828 -0.550000 15.99940
8829 OM 8829 OM OM1 8829 -0.550000 15.99940
8830 OM 8830 OM OM1 8830 -0.550000 15.99940
8831 OM 8831 OM OM1 8831 -0.550000 15.99940
8832 OM 8832 OM OM1 8832 -0.550000 15.99940
8833 OM 8833 OM OM1 8833 -0.550000 15.99940
8834 OM 8834 OM OM1 8834 -0.550000 15.99940
8835 OM 8835 OM OM1 8835 -0.550000 15.99940
8836 OM 8836 OM OM1 8836 -0.550000 15.99940
8837 OM 8837 OM OM1 8837 -0.550000 15.99940
8838 OM 8838 OM OM1 8838 -0.550000 15.99940
8839 OM 8839 OM OM1 8839 -0.550000 15.99940
8840 OM 8840 OM OM1 8840 -0.550000 15.99940
8841 OM 8841 OM OM1 8841 -0.550000 15.99940
8842 OM 8842 OM OM1 8842 -0.550000 15.99940
8843 OM 8843 OM OM1 8843 -0.550000 15.99940
8844 OM 8844 OM OM1 8844 -0.550000 15.99940
8845 OM 8845 OM OM1 8845 -0.550000 15.99940
8846 OM 8846 OM OM1 8846 -0.550000 15.99940
8847 OM 8847 OM OM1 8847 -0.550000 15.99940
8848 OM 8848 OM OM1 8848 -0.550000 15.99940
8849 OM 8849 OM OM1 8849 -0.550000 15.99940
8850 OM 8850 OM OM1 8850 -0.550000 15.99940
8851 OM 8851 OM OM1 8851 -0.550000 15.99940
8852 OM 8852 OM OM1 8852 -0.550000 15.99940
8853 OM 8853 OM OM1 8853 -0.550000 15.99940
8854 OM 8854 OM OM1 8854 -0.550000 15.99940
8855 OM 8855 OM OM1 8855 -0.550000 15.99940
8856 OM 8856 OM OM1 8856 -0.550000 15.99940
8857 OM 8857 OM OM1 8857 -0.550000 15.99940
8858 OM 8858 OM OM1 8858 -0.550000 15.99940
8859 OM 8859 OM OM1 8859 -0.550000 15.99940
8860 OM 8860 OM OM1 8860 -0.550000 15.99940
8861 OM 8861 OM OM1 8861 -0.550000 15.99940
8862 OM 8862 OM OM1 8862 -0.550000 15.99940
8863 OM 8863 OM OM1 8863 -0.550000 15.99940
8864 OM 8864 OM OM1 8864 -0.550000 15.99940
8865 OM 8865 OM OM1 8865 -0.550000 15.99940
8866 OM 8866 OM OM1 8866 -0.550000 15.99940
8867 OM 8867 OM OM1 8867 -0.550000 15.99940
8868 OM 8868 OM OM1 8868 -0.550000 15.99940
8869 OM 8869 OM OM1 8869 -0.550000 15.99940
8870 OM 8870 OM OM1 8870 -0.550000 15.99940
8871 OM 8871 OM OM1 8871 -0.550000 15.99940
8872 OM 8872 OM OM1 8872 -0.550000 15.99940
8873 OM 8873 OM OM1 8873 -0.550000 15.99940
8874 OM 8874 OM OM1 8874 -0.550000 15.99940
8875 OM 8875 OM OM1 8875 -0.550000 15.99940
8876 OM 8876 OM OM1 8876 -0.550000 15.99940
8877 OM 8877 OM OM1 8877 -0.550000 15.99940
8878 OM 8878 OM OM1 8878 -0.550000 15.99940
8879 OM 8879 OM OM1 8879 -0.550000 15.99940
8880 OM 8880 OM OM1 8880 -0.550000 15.99940
8881 OM 8881 OM OM1 8881 -0.550000 15.99940
8882 OM 8882 OM OM1 8882 -0.550000 15.99940
8883 OM 8883 OM OM1 8883 -0.550000 15.99940
8884 OM 8884 OM OM1 8884 -0.550000 15.99940
8885 OM 8885 OM OM1 8885 -0.550000 15.99940
8886 OM 8886 OM OM1 8886 -0.550000 15.99940
8887 OM 8887 OM OM1 8887 -0.550000 15.99940
8888 OM 8888 OM OM1 8888 -0.550000 15.99940
8889 OM 8889 OM OM1 8889 -0.550000 15.99940
8890 OM 8890 OM OM1 8890 -0.550000 15.99940
8891 OM 8891 OM OM1 8891 -0.550000 15.99940
8892 OM 8892 OM OM1 8892 -0.550000 15.99940
8893 OM 8893 OM OM1 8893 -0.550000 15.99940
8894 OM 8894 OM OM1 8894 -0.550000 15.99940
8895 OM 8895 OM OM1 8895 -0.550000 15.99940
8896 OM 8896 OM OM1 8896 -0.550000 15.99940
8897 OM 8897 OM OM1 8897 -0.550000 15.99940
8898 OM 8898 OM OM1 8898 -0.550000 15.99940
8899 OM 8899 OM OM1 8899 -0.550000 15.99940
8900 OM 8900 OM OM1 8900 -0.550000 15.99940
8901 OM 8901 OM OM1 8901 -0.550000 15.99940
8902 OM 8902 OM OM1 8902 -0.550000 15.99940
8903 OM 8903 OM OM1 8903 -0.550000 15.99940
8904 OM 8904 OM OM1 8904 -0.550000 15.99940
8905 OM 8905 OM OM1 8905 -0.550000 15.99940
8906 OM 8906 OM OM1 8906 -0.550000 15.99940
8907 OM 8907 OM OM1 8907 -0.550000 15.99940
8908 OM 8908 OM OM1 8908 -0.550000 15.99940
8909 OM 8909 OM OM1 8909 -0.550000 15.99940
8910 OM 8910 OM OM1 8910 -0.550000 15.99940
8911 OM 8911 OM OM1 8911 -0.550000 15.99940
8912 OM 8912 OM OM1 8912 -0.550000 15.99940
8913 OM 8913 OM OM1 8913 -0.550000 15.99940
8914 OM 8914 OM OM1 8914 -0.550000 15.99940
8915 OM 8915 OM OM1 8915 -0.550000 15.99940
8916 OM 8916 OM OM1 8916 -0.550000 15.99940
8917 OM 8917 OM OM1 8917 -0.550000 15.99940
8918 OM 8918 OM OM1 8918 -0.550000 15.99940
8919 OM 8919 OM OM1 8919 -0.550000 15.99940
8920 OM 8920 OM OM1 8920 -0.550000 15.99940
8921 OM 8921 OM OM1 8921 -0.550000 15.99940
8922 OM 8922 OM OM1 8922 -0.550000 15.99940
8923 OM 8923 OM OM1 8923 -0.550000 15.99940
8924 OM 8924 OM OM1 8924 -0.550000 15.99940
8925 OM 8925 OM OM1 8925 -0.550000 15.99940
8926 OM 8926 OM OM1 8926 -0.550000 15.99940
8927 OM 8927 OM OM1 8927 -0.550000 15.99940
8928 OM 8928 OM OM1 8928 -0.550000 15.99940
8929 OM 8929 OM OM1 8929 -0.550000 15.99940
8930 OM 8930 OM OM1 8930 -0.550000 15.99940
8931 OM 8931 OM OM1 8931 -0.550000 15.99940
8932 OM 8932 OM OM1 8932 -0.550000 15.99940
8933 OM 8933 OM OM1 8933 -0.550000 15.99940
8934 OM 8934 OM OM1 8934 -0.550000 15.99940
8935 OM 8935 OM OM1 8935 -0.550000 15.99940
8936 OM 8936 OM OM1 8936 -0.550000 15.99940
8937 OM 8937 OM OM1 8937 -0.550000 15.99940
8938 OM 8938 OM OM1 8938 -0.550000 15.99940
8939 OM 8939 OM OM1 8939 -0.550000 15.99940
8940 OM 8940 OM OM1 8940 -0.550000 15.99940
8941 OM 8941 OM OM1 8941 -0.550000 15.99940
8942 OM 8942 OM OM1 8942 -0.550000 15.99940
8943 OM 8943 OM OM1 8943 -0.550000 15.99940
8944 OM 8944 OM OM1 8944 -0.550000 15.99940
8945 OM 8945 OM OM1 8945 -0.550000 15.99940
8946 OM 8946 OM OM1 8946 -0.550000 15.99940
8947 OM 8947 OM OM1 8947 -0.550000 15.99940
8948 OM 8948 OM OM1 8948 -0.550000 15.99940
8949 OM 8949 OM OM1 8949 -0.550000 15.99940
8950 OM 8950 OM OM1 8950 -0.550000 15.99940
8951 OM 8951 OM OM1 8951 -0.550000 15.99940
8952 OM 8952 OM OM1 8952 -0.550000 15.99940
8953 OM 8953 OM OM1 8953 -0.550000 15.99940
8954 OM 8954 OM OM1 8954 -0.550000 15.99940
8955 OM 8955 OM OM1 8955 -0.550000 15.99940
8956 OM 8956 OM OM1 8956 -0.550000 15.99940
8957 OM 8957 OM OM1 8957 -0.550000 15.99940
8958 OM 8958 OM OM1 8958 -0.550000 15.99940
8959 OM 8959 OM OM1 8959 -0.550000 15.99940
8960 OM 8960 OM OM1 8960 -0.550000 15.99940
8961 OM 8961 OM OM1 8961 -0.550000 15.99940
8962 OM 8962 OM OM1 8962 -0.550000 15.99940
8963 OM 8963 OM OM1 8963 -0.550000 15.99940
8964 OM 8964 OM OM1 8964 -0.550000 15.99940
8965 OM 8965 OM OM1 8965 -0.550000 15.99940
8966 OM 8966 OM OM1 8966 -0.550000 15.99940
8967 OM 8967 OM OM1 8967 -0.550000 15.99940
8968 OM 8968 OM OM1 8968 -0.550000 15.99940
8969 OM 8969 OM OM1 8969 -0.550000 15.99940
8970 OM 8970 OM OM1 8970 -0.550000 15.99940
8971 OM 8971 OM OM1 8971 -0.550000 15.99940
8972 OM 8972 OM OM1 8972 -0.550000 15.99940
8973 OM 8973 OM OM1 8973 -0.550000 15.99940
8974 OM 8974 OM OM1 8974 -0.550000 15.99940
8975 OM 8975 OM OM1 8975 -0.550000 15.99940
8976 OM 8976 OM OM1 8976 -0.550000 15.99940
8977 OM 8977 OM OM1 8977 -0.550000 15.99940
8978 OM 8978 OM OM1 8978 -0.550000 15.99940
8979 OM 8979 OM OM1 8979 -0.550000 15.99940
8980 OM 8980 OM OM1 8980 -0.550000 15.99940
8981 OM 8981 OM OM1 8981 -0.550000 15.99940
8982 OM 8982 OM OM1 8982 -0.550000 15.99940
8983 OM 8983 OM OM1 8983 -0.550000 15.99940
8984 OM 8984 OM OM1 8984 -0.550000 15.99940
8985 OM 8985 OM OM1 8985 -0.550000 15.99940
8986 OM 8986 OM OM1 8986 -0.550000 15.99940
8987 OM 8987 OM OM1 8987 -0.550000 15.99940
8988 OM 8988 OM OM1 8988 -0.550000 15.99940
8989 OM 8989 OM OM1 8989 -0.550000 15.99940
8990 OM 8990 OM OM1 8990 -0.550000 15.99940
8991 OM 8991 OM OM1 8991 -0.550000 15.99940
8992 OM 8992 OM OM1 8992 -0.550000 15.99940
8993 OM 8993 OM OM1 8993 -0.550000 15.99940
8994 OM 8994 OM OM1 8994 -0.550000 15.99940
8995 OM 8995 OM OM1 8995 -0.550000 15.99940
8996 OM 8996 OM OM1 8996 -0.550000 15.99940
8997 OM 8997 OM OM1 8997 -0.550000 15.99940
8998 OM 8998 OM OM1 8998 -0.550000 15.99940
8999 OM 8999 OM OM1 8999 -0.550000 15.99940
9000 OM 9000 OM OM1 9000 -0.550000 15.99940
9001 OM 9001 OM OM1 9001 -0.550000 15.99940
9002 OM 9002 OM OM1 9002 -0.550000 15.99940
9003 OM 9003 OM OM1 9003 -0.550000 15.99940
9004 OM 9004 OM OM1 9004 -0.550000 15.99940
9005 OM 9005 OM OM1 9005 -0.550000 15.99940
9006 OM 9006 OM OM1 9006 -0.550000 15.99940
9007 OM 9007 OM OM1 9007 -0.550000 15.99940
9008 OM 9008 OM OM1 9008 -0.550000 15.99940
9009 OM 9009 OM OM1 9009 -0.550000 15.99940
9010 OM 9010 OM OM1 9010 -0.550000 15.99940
9011 OM 9011 OM OM1 9011 -0.550000 15.99940
9012 OM 9012 OM OM1 9012 -0.550000 15.99940
9013 OM 9013 OM OM1 9013 -0.550000 15.99940
9014 OM 9014 OM OM1 9014 -0.550000 15.99940
9015 OM 9015 OM OM1 9015 -0.550000 15.99940
9016 OM 9016 OM OM1 9016 -0.550000 15.99940
9017 OM 9017 OM OM1 9017 -0.550000 15.99940
9018 OM 9018 OM OM1 9018 -0.550000 15.99940
9019 OM 9019 OM OM1 9019 -0.550000 15.99940
9020 OM 9020 OM OM1 9020 -0.550000 15.99940
9021 OM 9021 OM OM1 9021 -0.550000 15.99940
9022 OM 9022 OM OM1 9022 -0.550000 15.99940
9023 OM 9023 OM OM1 9023 -0.550000 15.99940
9024 OM 9024 OM OM1 9024 -0.550000 15.99940
9025 OM 9025 OM OM1 9025 -0.550000 15.99940
9026 OM 9026 OM OM1 9026 -0.550000 15.99940
9027 OM 9027 OM OM1 9027 -0.550000 15.99940
9028 OM 9028 OM OM1 9028 -0.550000 15.99940
9029 OM 9029 OM OM1 9029 -0.550000 15.99940
9030 OM 9030 OM OM1 9030 -0.550000 15.99940
9031 OM 9031 OM OM1 9031 -0.550000 15.99940
9032 OM 9032 OM OM1 9032 -0.550000 15.99940
9033 OM 9033 OM OM1 9033 -0.550000 15.99940
9034 OM 9034 OM OM1 9034 -0.550000 15.99940
9035 OM 9035 OM OM1 9035 -0.550000 15.99940
9036 OM 9036 OM OM1 9036 -0.550000 15.99940
9037 OM 9037 OM OM1 9037 -0.550000 15.99940
9038 OM 9038 OM OM1 9038 -0.550000 15.99940
9039 OM 9039 OM OM1 9039 -0.550000 15.99940
9040 OM 9040 OM OM1 9040 -0.550000 15.99940
9041 OM 9041 OM OM1 9041 -0.550000 15.99940
9042 OM 9042 OM OM1 9042 -0.550000 15.99940
9043 OM 9043 OM OM1 9043 -0.550000 15.99940
9044 OM 9044 OM OM1 9044 -0.550000 15.99940
9045 OM 9045 OM OM1 9045 -0.550000 15.99940
9046 OM 9046 OM OM1 9046 -0.550000 15.99940
9047 OM 9047 OM OM1 9047 -0.550000 15.99940
9048 OM 9048 OM OM1 9048 -0.550000 15.99940
9049 OM 9049 OM OM1 9049 -0.550000 15.99940
9050 OM 9050 OM OM1 9050 -0.550000 15.99940
9051 OM 9051 OM OM1 9051 -0.550000 15.99940
9052 OM 9052 OM OM1 9052 -0.550000 15.99940
9053 OM 9053 OM OM1 9053 -0.550000 15.99940
9054 OM 9054 OM OM1 9054 -0.550000 15.99940
9055 OM 9055 OM OM1 9055 -0.550000 15.99940
9056 OM 9056 OM OM1 9056 -0.550000 15.99940
9057 OM 9057 OM OM1 9057 -0.550000 15.99940
9058 OM 9058 OM OM1 9058 -0.550000 15.99940
9059 OM 9059 OM OM1 9059 -0.550000 15.99940
9060 OM 9060 OM OM1 9060 -0.550000 15.99940
9061 OM 9061 OM OM1 9061 -0.550000 15.99940
9062 OM 9062 OM OM1 9062 -0.550000 15.99940
9063 OM 9063 OM OM1 9063 -0.550000 15.99940
9064 OM 9064 OM OM1 9064 -0.550000 15.99940
9065 OM 9065 OM OM1 9065 -0.550000 15.99940
9066 OM 9066 OM OM1 9066 -0.550000 15.99940
9067 OM 9067 OM OM1 9067 -0.550000 15.99940
9068 OM 9068 OM OM1 9068 -0.550000 15.99940
9069 OM 9069 OM OM1 9069 -0.550000 15.99940
9070 OM 9070 OM OM1 9070 -0.550000 15.99940
9071 OM 9071 OM OM1 9071 -0.550000 15.99940
9072 OM 9072 OM OM1 9072 -0.550000 15.99940
9073 OM 9073 OM OM1 9073 -0.550000 15.99940
9074 OM 9074 OM OM1 9074 -0.550000 15.99940
9075 OM 9075 OM OM1 9075 -0.550000 15.99940
9076 OM 9076 OM OM1 9076 -0.550000 15.99940
9077 OM 9077 OM OM1 9077 -0.550000 15.99940
9078 OM 9078 OM OM1 9078 -0.550000 15.99940
9079 OM 9079 OM OM1 9079 -0.550000 15.99940
9080 OM 9080 OM OM1 9080 -0.550000 15.99940
9081 OM 9081 OM OM1 9081 -0.550000 15.99940
9082 OM 9082 OM OM1 9082 -0.550000 15.99940
9083 OM 9083 OM OM1 9083 -0.550000 15.99940
9084 OM 9084 OM OM1 9084 -0.550000 15.99940
9085 OM 9085 OM OM1 9085 -0.550000 15.99940
9086 OM 9086 OM OM1 9086 -0.550000 15.99940
9087 OM 9087 OM OM1 9087 -0.550000 15.99940
9088 OM 9088 OM OM1 9088 -0.550000 15.99940
9089 OM 9089 OM OM1 9089 -0.550000 15.99940
9090 OM 9090 OM OM1 9090 -0.550000 15.99940
9091 OM 9091 OM OM1 9091 -0.550000 15.99940
9092 OM 9092 OM OM1 9092 -0.550000 15.99940
9093 OM 9093 OM OM1 9093 -0.550000 15.99940
9094 OM 9094 OM OM1 9094 -0.550000 15.99940
9095 OM 9095 OM OM1 9095 -0.550000 15.99940
9096 OM 9096 OM OM1 9096 -0.550000 15.99940
9097 OM 9097 OM OM1 9097 -0.550000 15.99940
9098 OM 9098 OM OM1 9098 -0.550000 15.99940
9099 OM 9099 OM OM1 9099 -0.550000 15.99940
9100 OM 9100 OM OM1 9100 -0.550000 15.99940
9101 OM 9101 OM OM1 9101 -0.550000 15.99940
9102 OM 9102 OM OM1 9102 -0.550000 15.99940
9103 OM 9103 OM OM1 9103 -0.550000 15.99940
9104 OM 9104 OM OM1 9104 -0.550000 15.99940
9105 OM 9105 OM OM1 9105 -0.550000 15.99940
9106 OM 9106 OM OM1 9106 -0.550000 15.99940
9107 OM 9107 OM OM1 9107 -0.550000 15.99940
9108 OM 9108 OM OM1 9108 -0.550000 15.99940
9109 OM 9109 OM OM1 9109 -0.550000 15.99940
9110 OM 9110 OM OM1 9110 -0.550000 15.99940
9111 OM 9111 OM OM1 9111 -0.550000 15.99940
9112 OM 9112 OM OM1 9112 -0.550000 15.99940
9113 OM 9113 OM OM1 9113 -0.550000 15.99940
9114 OM 9114 OM OM1 9114 -0.550000 15.99940
9115 OM 9115 OM OM1 9115 -0.550000 15.99940
9116 OM 9116 OM OM1 9116 -0.550000 15.99940
9117 OM 9117 OM OM1 9117 -0.550000 15.99940
9118 OM 9118 OM OM1 9118 -0.550000 15.99940
9119 OM 9119 OM OM1 9119 -0.550000 15.99940
9120 OM 9120 OM OM1 9120 -0.550000 15.99940
9121 OM 9121 OM OM1 9121 -0.550000 15.99940
9122 OM 9122 OM OM1 9122 -0.550000 15.99940
9123 OM 9123 OM OM1 9123 -0.550000 15.99940
9124 OM 9124 OM OM1 9124 -0.550000 15.99940
9125 OM 9125 OM OM1 9125 -0.550000 15.99940
9126 OM 9126 OM OM1 9126 -0.550000 15.99940
9127 OM 9127 OM OM1 9127 -0.550000 15.99940
9128 OM 9128 OM OM1 9128 -0.550000 15.99940
9129 OM 9129 OM OM1 9129 -0.550000 15.99940
9130 OM 9130 OM OM1 9130 -0.550000 15.99940
9131 OM 9131 OM OM1 9131 -0.550000 15.99940
9132 OM 9132 OM OM1 9132 -0.550000 15.99940
9133 OM 9133 OM OM1 9133 -0.550000 15.99940
9134 OM 9134 OM OM1 9134 -0.550000 15.99940
9135 OM 9135 OM OM1 9135 -0.550000 15.99940
9136 OM 9136 OM OM1 9136 -0.550000 15.99940
9137 OM 9137 OM OM1 9137 -0.550000 15.99940
9138 OM 9138 OM OM1 9138 -0.550000 15.99940
9139 OM 9139 OM OM1 9139 -0.550000 15.99940
9140 OM 9140 OM OM1 9140 -0.550000 15.99940
9141 OM 9141 OM OM1 9141 -0.550000 15.99940
9142 OM 9142 OM OM1 9142 -0.550000 15.99940
9143 OM 9143 OM OM1 9143 -0.550000 15.99940
9144 OM 9144 OM OM1 9144 -0.550000 15.99940
9145 OM 9145 OM OM1 9145 -0.550000 15.99940
9146 OM 9146 OM OM1 9146 -0.550000 15.99940
9147 OM 9147 OM OM1 9147 -0.550000 15.99940
9148 OM 9148 OM OM1 9148 -0.550000 15.99940
9149 OM 9149 OM OM1 9149 -0.550000 15.99940
9150 OM 9150 OM OM1 9150 -0.550000 15.99940
9151 OM 9151 OM OM1 9151 -0.550000 15.99940
9152 OM 9152 OM OM1 9152 -0.550000 15.99940
9153 OM 9153 OM OM1 9153 -0.550000 15.99940
9154 OM 9154 OM OM1 9154 -0.550000 15.99940
9155 OM 9155 OM OM1 9155 -0.550000 15.99940
9156 OM 9156 OM OM1 9156 -0.550000 15.99940
9157 OM 9157 OM OM1 9157 -0.550000 15.99940
9158 OM 9158 OM OM1 9158 -0.550000 15.99940
9159 OM 9159 OM OM1 9159 -0.550000 15.99940
9160 OM 9160 OM OM1 9160 -0.550000 15.99940
9161 OM 9161 OM OM1 9161 -0.550000 15.99940
9162 OM 9162 OM OM1 9162 -0.550000 15.99940
9163 OM 9163 OM OM1 9163 -0.550000 15.99940
9164 OM 9164 OM OM1 9164 -0.550000 15.99940
9165 OM 9165 OM OM1 9165 -0.550000 15.99940
9166 OM 9166 OM OM1 9166 -0.550000 15.99940
9167 OM 9167 OM OM1 9167 -0.550000 15.99940
9168 OM 9168 OM OM1 9168 -0.550000 15.99940
9169 OM 9169 OM OM1 9169 -0.550000 15.99940
9170 OM 9170 OM OM1 9170 -0.550000 15.99940
9171 OM 9171 OM OM1 9171 -0.550000 15.99940
9172 OM 9172 OM OM1 9172 -0.550000 15.99940
9173 OM 9173 OM OM1 9173 -0.550000 15.99940
9174 OM 9174 OM OM1 9174 -0.550000 15.99940
9175 OM 9175 OM OM1 9175 -0.550000 15.99940
9176 OM 9176 OM OM1 9176 -0.550000 15.99940
9177 OM 9177 OM OM1 9177 -0.550000 15.99940
9178 OM 9178 OM OM1 9178 -0.550000 15.99940
9179 OM 9179 OM OM1 9179 -0.550000 15.99940
9180 OM 9180 OM OM1 9180 -0.550000 15.99940
9181 OM 9181 OM OM1 9181 -0.550000 15.99940
9182 OM 9182 OM OM1 9182 -0.550000 15.99940
9183 OM 9183 OM OM1 9183 -0.550000 15.99940
9184 OM 9184 OM OM1 9184 -0.550000 15.99940
9185 OM 9185 OM OM1 9185 -0.550000 15.99940
9186 OM 9186 OM OM1 9186 -0.550000 15.99940
9187 OM 9187 OM OM1 9187 -0.550000 15.99940
9188 OM 9188 OM OM1 9188 -0.550000 15.99940
9189 OM 9189 OM OM1 9189 -0.550000 15.99940
9190 OM 9190 OM OM1 9190 -0.550000 15.99940
9191 OM 9191 OM OM1 9191 -0.550000 15.99940
9192 OM 9192 OM OM1 9192 -0.550000 15.99940
9193 OM 9193 OM OM1 9193 -0.550000 15.99940
9194 OM 9194 OM OM1 9194 -0.550000 15.99940
9195 OM 9195 OM OM1 9195 -0.550000 15.99940
9196 OM 9196 OM OM1 9196 -0.550000 15.99940
9197 OM 9197 OM OM1 9197 -0.550000 15.99940
9198 OM 9198 OM OM1 9198 -0.550000 15.99940
9199 OM 9199 OM OM1 9199 -0.550000 15.99940
9200 OM 9200 OM OM1 9200 -0.550000 15.99940
9201 OM 9201 OM OM1 9201 -0.550000 15.99940
9202 OM 9202 OM OM1 9202 -0.550000 15.99940
9203 OM 9203 OM OM1 9203 -0.550000 15.99940
9204 OM 9204 OM OM1 9204 -0.550000 15.99940
9205 OM 9205 OM OM1 9205 -0.550000 15.99940
9206 OM 9206 OM OM1 9206 -0.550000 15.99940
9207 OM 9207 OM OM1 9207 -0.550000 15.99940
9208 OM 9208 OM OM1 9208 -0.550000 15.99940
9209 OM 9209 OM OM1 9209 -0.550000 15.99940
9210 OM 9210 OM OM1 9210 -0.550000 15.99940
9211 OM 9211 OM OM1 9211 -0.550000 15.99940
9212 OM 9212 OM OM1 9212 -0.550000 15.99940
9213 OM 9213 OM OM1 9213 -0.550000 15.99940
9214 OM 9214 OM OM1 9214 -0.550000 15.99940
9215 OM 9215 OM OM1 9215 -0.550000 15.99940
9216 OM 9216 OM OM1 9216 -0.550000 15.99940
9217 OM 9217 OM OM1 9217 -0.550000 15.99940
9218 OM 9218 OM OM1 9218 -0.550000 15.99940
9219 OM 9219 OM OM1 9219 -0.550000 15.99940
9220 OM 9220 OM OM1 9220 -0.550000 15.99940
9221 OM 9221 OM OM1 9221 -0.550000 15.99940
9222 OM 9222 OM OM1 9222 -0.550000 15.99940
9223 OM 9223 OM OM1 9223 -0.550000 15.99940
9224 OM 9224 OM OM1 9224 -0.550000 15.99940
9225 OM 9225 OM OM1 9225 -0.550000 15.99940
9226 OM 9226 OM OM1 9226 -0.550000 15.99940
9227 OM 9227 OM OM1 9227 -0.550000 15.99940
9228 OM 9228 OM OM1 9228 -0.550000 15.99940
9229 OM 9229 OM OM1 9229 -0.550000 15.99940
9230 OM 9230 OM OM1 9230 -0.550000 15.99940
9231 OM 9231 OM OM1 9231 -0.550000 15.99940
9232 OM 9232 OM OM1 9232 -0.550000 15.99940
9233 OM 9233 OM OM1 9233 -0.550000 15.99940
9234 OM 9234 OM OM1 9234 -0.550000 15.99940
9235 OM 9235 OM OM1 9235 -0.550000 15.99940
9236 OM 9236 OM OM1 9236 -0.550000 15.99940
9237 OM 9237 OM OM1 9237 -0.550000 15.99940
9238 OM 9238 OM OM1 9238 -0.550000 15.99940
9239 OM 9239 OM OM1 9239 -0.550000 15.99940
9240 OM 9240 OM OM1 9240 -0.550000 15.99940
9241 OM 9241 OM OM1 9241 -0.550000 15.99940
9242 OM 9242 OM OM1 9242 -0.550000 15.99940
9243 OM 9243 OM OM1 9243 -0.550000 15.99940
9244 OM 9244 OM OM1 9244 -0.550000 15.99940
9245 OM 9245 OM OM1 9245 -0.550000 15.99940
9246 OM 9246 OM OM1 9246 -0.550000 15.99940
9247 OM 9247 OM OM1 9247 -0.550000 15.99940
9248 OM 9248 OM OM1 9248 -0.550000 15.99940
9249 OM 9249 OM OM1 9249 -0.550000 15.99940
9250 OM 9250 OM OM1 9250 -0.550000 15.99940
9251 OM 9251 OM OM1 9251 -0.550000 15.99940
9252 OM 9252 OM OM1 9252 -0.550000 15.99940
9253 OM 9253 OM OM1 9253 -0.550000 15.99940
9254 OM 9254 OM OM1 9254 -0.550000 15.99940
9255 OM 9255 OM OM1 9255 -0.550000 15.99940
9256 OM 9256 OM OM1 9256 -0.550000 15.99940
9257 OM 9257 OM OM1 9257 -0.550000 15.99940
9258 OM 9258 OM OM1 9258 -0.550000 15.99940
9259 OM 9259 OM OM1 9259 -0.550000 15.99940
9260 OM 9260 OM OM1 9260 -0.550000 15.99940
9261 OM 9261 OM OM1 9261 -0.550000 15.99940
9262 OM 9262 OM OM1 9262 -0.550000 15.99940
9263 OM 9263 OM OM1 9263 -0.550000 15.99940
9264 OM 9264 OM OM1 9264 -0.550000 15.99940
9265 OM 9265 OM OM1 9265 -0.550000 15.99940
9266 OM 9266 OM OM1 9266 -0.550000 15.99940
9267 OM 9267 OM OM1 9267 -0.550000 15.99940
9268 OM 9268 OM OM1 9268 -0.550000 15.99940
9269 OM 9269 OM OM1 9269 -0.550000 15.99940
9270 OM 9270 OM OM1 9270 -0.550000 15.99940
9271 OM 9271 OM OM1 9271 -0.550000 15.99940
9272 OM 9272 OM OM1 9272 -0.550000 15.99940
9273 OM 9273 OM OM1 9273 -0.550000 15.99940
9274 OM 9274 OM OM1 9274 -0.550000 15.99940
9275 OM 9275 OM OM1 9275 -0.550000 15.99940
9276 OM 9276 OM OM1 9276 -0.550000 15.99940
9277 OM 9277 OM OM1 9277 -0.550000 15.99940
9278 OM 9278 OM OM1 9278 -0.550000 15.99940
9279 OM 9279 OM OM1 9279 -0.550000 15.99940
9280 OM 9280 OM OM1 9280 -0.550000 15.99940
9281 OM 9281 OM OM1 9281 -0.550000 15.99940
9282 OM 9282 OM OM1 9282 -0.550000 15.99940
9283 OM 9283 OM OM1 9283 -0.550000 15.99940
9284 OM 9284 OM OM1 9284 -0.550000 15.99940
9285 OM 9285 OM OM1 9285 -0.550000 15.99940
9286 OM 9286 OM OM1 9286 -0.550000 15.99940
9287 OM 9287 OM OM1 9287 -0.550000 15.99940
9288 OM 9288 OM OM1 9288 -0.550000 15.99940
9289 OM 9289 OM OM1 9289 -0.550000 15.99940
9290 OM 9290 OM OM1 9290 -0.550000 15.99940
9291 OM 9291 OM OM1 9291 -0.550000 15.99940
9292 OM 9292 OM OM1 9292 -0.550000 15.99940
9293 OM 9293 OM OM1 9293 -0.550000 15.99940
9294 OM 9294 OM OM1 9294 -0.550000 15.99940
9295 OM 9295 OM OM1 9295 -0.550000 15.99940
9296 OM 9296 OM OM1 9296 -0.550000 15.99940
9297 OM 9297 OM OM1 9297 -0.550000 15.99940
9298 OM 9298 OM OM1 9298 -0.550000 15.99940
9299 OM 9299 OM OM1 9299 -0.550000 15.99940
9300 OM 9300 OM OM1 9300 -0.550000 15.99940
9301 OM 9301 OM OM1 9301 -0.550000 15.99940
9302 OM 9302 OM OM1 9302 -0.550000 15.99940
9303 OM 9303 OM OM1 9303 -0.550000 15.99940
9304 OM 9304 OM OM1 9304 -0.550000 15.99940
9305 OM 9305 OM OM1 9305 -0.550000 15.99940
9306 OM 9306 OM OM1 9306 -0.550000 15.99940
9307 OM 9307 OM OM1 9307 -0.550000 15.99940
9308 OM 9308 OM OM1 9308 -0.550000 15.99940
9309 OM 9309 OM OM1 9309 -0.550000 15.99940
9310 OM 9310 OM OM1 9310 -0.550000 15.99940
9311 OM 9311 OM OM1 9311 -0.550000 15.99940
9312 OM 9312 OM OM1 9312 -0.550000 15.99940
9313 OM 9313 OM OM1 9313 -0.550000 15.99940
9314 OM 9314 OM OM1 9314 -0.550000 15.99940
9315 OM 9315 OM OM1 9315 -0.550000 15.99940
9316 OM 9316 OM OM1 9316 -0.550000 15.99940
9317 OM 9317 OM OM1 9317 -0.550000 15.99940
9318 OM 9318 OM OM1 9318 -0.550000 15.99940
9319 OM 9319 OM OM1 9319 -0.550000 15.99940
9320 OM 9320 OM OM1 9320 -0.550000 15.99940
9321 OM 9321 OM OM1 9321 -0.550000 15.99940
9322 OM 9322 OM OM1 9322 -0.550000 15.99940
9323 OM 9323 OM OM1 9323 -0.550000 15.99940
9324 OM 9324 OM OM1 9324 -0.550000 15.99940
9325 OM 9325 OM OM1 9325 -0.550000 15.99940
9326 OM 9326 OM OM1 9326 -0.550000 15.99940
9327 OM 9327 OM OM1 9327 -0.550000 15.99940
9328 OM 9328 OM OM1 9328 -0.550000 15.99940
9329 OM 9329 OM OM1 9329 -0.550000 15.99940
9330 OM 9330 OM OM1 9330 -0.550000 15.99940
9331 OM 9331 OM OM1 9331 -0.550000 15.99940
9332 OM 9332 OM OM1 9332 -0.550000 15.99940
9333 OM 9333 OM OM1 9333 -0.550000 15.99940
9334 OM 9334 OM OM1 9334 -0.550000 15.99940
9335 OM 9335 OM OM1 9335 -0.550000 15.99940
9336 OM 9336 OM OM1 9336 -0.550000 15.99940
9337 OM 9337 OM OM1 9337 -0.550000 15.99940
9338 OM 9338 OM OM1 9338 -0.550000 15.99940
9339 OM 9339 OM OM1 9339 -0.550000 15.99940
9340 OM 9340 OM OM1 9340 -0.550000 15.99940
9341 OM 9341 OM OM1 9341 -0.550000 15.99940
9342 OM 9342 OM OM1 9342 -0.550000 15.99940
9343 OM 9343 OM OM1 9343 -0.550000 15.99940
9344 OM 9344 OM OM1 9344 -0.550000 15.99940
9345 OM 9345 OM OM1 9345 -0.550000 15.99940
9346 OM 9346 OM OM1 9346 -0.550000 15.99940
9347 OM 9347 OM OM1 9347 -0.550000 15.99940
9348 OM 9348 OM OM1 9348 -0.550000 15.99940
9349 OM 9349 OM OM1 9349 -0.550000 15.99940
9350 OM 9350 OM OM1 9350 -0.550000 15.99940
9351 OM 9351 OM OM1 9351 -0.550000 15.99940
9352 OM 9352 OM OM1 9352 -0.550000 15.99940
9353 OM 9353 OM OM1 9353 -0.550000 15.99940
9354 OM 9354 OM OM1 9354 -0.550000 15.99940
9355 OM 9355 OM OM1 9355 -0.550000 15.99940
9356 OM 9356 OM OM1 9356 -0.550000 15.99940
9357 OM 9357 OM OM1 9357 -0.550000 15.99940
9358 OM 9358 OM OM1 9358 -0.550000 15.99940
9359 OM 9359 OM OM1 9359 -0.550000 15.99940
9360 OM 9360 OM OM1 9360 -0.550000 15.99940
9361 OM 9361 OM OM1 9361 -0.550000 15.99940
9362 OM 9362 OM OM1 9362 -0.550000 15.99940
9363 OM 9363 OM OM1 9363 -0.550000 15.99940
9364 OM 9364 OM OM1 9364 -0.550000 15.99940
9365 OM 9365 OM OM1 9365 -0.550000 15.99940
9366 OM 9366 OM OM1 9366 -0.550000 15.99940
9367 OM 9367 OM OM1 9367 -0.550000 15.99940
9368 OM 9368 OM OM1 9368 -0.550000 15.99940
9369 OM 9369 OM OM1 9369 -0.550000 15.99940
9370 OM 9370 OM OM1 9370 -0.550000 15.99940
9371 OM 9371 OM OM1 9371 -0.550000 15.99940
9372 OM 9372 OM OM1 9372 -0.550000 15.99940
9373 OM 9373 OM OM1 9373 -0.550000 15.99940
9374 OM 9374 OM OM1 9374 -0.550000 15.99940
9375 OM 9375 OM OM1 9375 -0.550000 15.99940
9376 OM 9376 OM OM1 9376 -0.550000 15.99940
9377 OM 9377 OM OM1 9377 -0.550000 15.99940
9378 OM 9378 OM OM1 9378 -0.550000 15.99940
9379 OM 9379 OM OM1 9379 -0.550000 15.99940
9380 OM 9380 OM OM1 9380 -0.550000 15.99940
9381 OM 9381 OM OM1 9381 -0.550000 15.99940
9382 OM 9382 OM OM1 9382 -0.550000 15.99940
9383 OM 9383 OM OM1 9383 -0.550000 15.99940
9384 OM 9384 OM OM1 9384 -0.550000 15.99940
9385 OM 9385 OM OM1 9385 -0.550000 15.99940
9386 OM 9386 OM OM1 9386 -0.550000 15.99940
9387 OM 9387 OM OM1 9387 -0.550000 15.99940
9388 OM 9388 OM OM1 9388 -0.550000 15.99940
9389 OM 9389 OM OM1 9389 -0.550000 15.99940
9390 OM 9390 OM OM1 9390 -0.550000 15.99940
9391 OM 9391 OM OM1 9391 -0.550000 15.99940
9392 OM 9392 OM OM1 9392 -0.550000 15.99940
9393 OM 9393 OM OM1 9393 -0.550000 15.99940
9394 OM 9394 OM OM1 9394 -0.550000 15.99940
9395 OM 9395 OM OM1 9395 -0.550000 15.99940
9396 OM 9396 OM OM1 9396 -0.550000 15.99940
9397 OM 9397 OM OM1 9397 -0.550000 15.99940
9398 OM 9398 OM OM1 9398 -0.550000 15.99940
9399 OM 9399 OM OM1 9399 -0.550000 15.99940
9400 OM 9400 OM OM1 9400 -0.550000 15.99940
9401 OM 9401 OM OM1 9401 -0.550000 15.99940
9402 OM 9402 OM OM1 9402 -0.550000 15.99940
9403 OM 9403 OM OM1 9403 -0.550000 15.99940
9404 OM 9404 OM OM1 9404 -0.550000 15.99940
9405 OM 9405 OM OM1 9405 -0.550000 15.99940
9406 OM 9406 OM OM1 9406 -0.550000 15.99940
9407 OM 9407 OM OM1 9407 -0.550000 15.99940
9408 OM 9408 OM OM1 9408 -0.550000 15.99940
9409 OM 9409 OM OM1 9409 -0.550000 15.99940
9410 OM 9410 OM OM1 9410 -0.550000 15.99940
9411 OM 9411 OM OM1 9411 -0.550000 15.99940
9412 OM 9412 OM OM1 9412 -0.550000 15.99940
9413 OM 9413 OM OM1 9413 -0.550000 15.99940
9414 OM 9414 OM OM1 9414 -0.550000 15.99940
9415 OM 9415 OM OM1 9415 -0.550000 15.99940
9416 OM 9416 OM OM1 9416 -0.550000 15.99940
9417 OM 9417 OM OM1 9417 -0.550000 15.99940
9418 OM 9418 OM OM1 9418 -0.550000 15.99940
9419 OM 9419 OM OM1 9419 -0.550000 15.99940
9420 OM 9420 OM OM1 9420 -0.550000 15.99940
9421 OM 9421 OM OM1 9421 -0.550000 15.99940
9422 OM 9422 OM OM1 9422 -0.550000 15.99940
9423 OM 9423 OM OM1 9423 -0.550000 15.99940
9424 OM 9424 OM OM1 9424 -0.550000 15.99940
9425 OM 9425 OM OM1 9425 -0.550000 15.99940
9426 OM 9426 OM OM1 9426 -0.550000 15.99940
9427 OM 9427 OM OM1 9427 -0.550000 15.99940
9428 OM 9428 OM OM1 9428 -0.550000 15.99940
9429 OM 9429 OM OM1 9429 -0.550000 15.99940
9430 OM 9430 OM OM1 9430 -0.550000 15.99940
9431 OM 9431 OM OM1 9431 -0.550000 15.99940
9432 OM 9432 OM OM1 9432 -0.550000 15.99940
9433 OM 9433 OM OM1 9433 -0.550000 15.99940
9434 OM 9434 OM OM1 9434 -0.550000 15.99940
9435 OM 9435 OM OM1 9435 -0.550000 15.99940
9436 OM 9436 OM OM1 9436 -0.550000 15.99940
9437 OM 9437 OM OM1 9437 -0.550000 15.99940
9438 OM 9438 OM OM1 9438 -0.550000 15.99940
9439 OM 9439 OM OM1 9439 -0.550000 15.99940
9440 OM 9440 OM OM1 9440 -0.550000 15.99940
9441 OM 9441 OM OM1 9441 -0.550000 15.99940
9442 OM 9442 OM OM1 9442 -0.550000 15.99940
9443 OM 9443 OM OM1 9443 -0.550000 15.99940
9444 OM 9444 OM OM1 9444 -0.550000 15.99940
9445 OM 9445 OM OM1 9445 -0.550000 15.99940
9446 OM 9446 OM OM1 9446 -0.550000 15.99940
9447 OM 9447 OM OM1 9447 -0.550000 15.99940
9448 OM 9448 OM OM1 9448 -0.550000 15.99940
9449 OM 9449 OM OM1 9449 -0.550000 15.99940
9450 OM 9450 OM OM1 9450 -0.550000 15.99940
9451 OM 9451 OM OM1 9451 -0.550000 15.99940
9452 OM 9452 OM OM1 9452 -0.550000 15.99940
9453 OM 9453 OM OM1 9453 -0.550000 15.99940
9454 OM 9454 OM OM1 9454 -0.550000 15.99940
9455 OM 9455 OM OM1 9455 -0.550000 15.99940
9456 OM 9456 OM OM1 9456 -0.550000 15.99940
9457 OM 9457 OM OM1 9457 -0.550000 15.99940
9458 OM 9458 OM OM1 9458 -0.550000 15.99940
9459 OM 9459 OM OM1 9459 -0.550000 15.99940
9460 OM 9460 OM OM1 9460 -0.550000 15.99940
9461 OM 9461 OM OM1 9461 -0.550000 15.99940
9462 OM 9462 OM OM1 9462 -0.550000 15.99940
9463 OM 9463 OM OM1 9463 -0.550000 15.99940
9464 OM 9464 OM OM1 9464 -0.550000 15.99940
9465 OM 9465 OM OM1 9465 -0.550000 15.99940
9466 OM 9466 OM OM1 9466 -0.550000 15.99940
9467 OM 9467 OM OM1 9467 -0.550000 15.99940
9468 OM 9468 OM OM1 9468 -0.550000 15.99940
9469 OM 9469 OM OM1 9469 -0.550000 15.99940
9470 OM 9470 OM OM1 9470 -0.550000 15.99940
9471 OM 9471 OM OM1 9471 -0.550000 15.99940
9472 OM 9472 OM OM1 9472 -0.550000 15.99940
9473 OM 9473 OM OM1 9473 -0.550000 15.99940
9474 OM 9474 OM OM1 9474 -0.550000 15.99940
9475 OM 9475 OM OM1 9475 -0.550000 15.99940
9476 OM 9476 OM OM1 9476 -0.550000 15.99940
9477 OM 9477 OM OM1 9477 -0.550000 15.99940
9478 OM 9478 OM OM1 9478 -0.550000 15.99940
9479 OM 9479 OM OM1 9479 -0.550000 15.99940
9480 OM 9480 OM OM1 9480 -0.550000 15.99940
9481 OM 9481 OM OM1 9481 -0.550000 15.99940
9482 OM 9482 OM OM1 9482 -0.550000 15.99940
9483 OM 9483 OM OM1 9483 -0.550000 15.99940
9484 OM 9484 OM OM1 9484 -0.550000 15.99940
9485 OM 9485 OM OM1 9485 -0.550000 15.99940
9486 OM 9486 OM OM1 9486 -0.550000 15.99940
9487 OM 9487 OM OM1 9487 -0.550000 15.99940
9488 OM 9488 OM OM1 9488 -0.550000 15.99940
9489 OM 9489 OM OM1 9489 -0.550000 15.99940
9490 OM 9490 OM OM1 9490 -0.550000 15.99940
9491 OM 9491 OM OM1 9491 -0.550000 15.99940
9492 OM 9492 OM OM1 9492 -0.550000 15.99940
9493 OM 9493 OM OM1 9493 -0.550000 15.99940
9494 OM 9494 OM OM1 9494 -0.550000 15.99940
9495 OM 9495 OM OM1 9495 -0.550000 15.99940
9496 OM 9496 OM OM1 9496 -0.550000 15.99940
9497 OM 9497 OM OM1 9497 -0.550000 15.99940
9498 OM 9498 OM OM1 9498 -0.550000 15.99940
9499 OM 9499 OM OM1 9499 -0.550000 15.99940
9500 OM 9500 OM OM1 9500 -0.550000 15.99940
9501 OM 9501 OM OM1 9501 -0.550000 15.99940
9502 OM 9502 OM OM1 9502 -0.550000 15.99940
9503 OM 9503 OM OM1 9503 -0.550000 15.99940
9504 OM 9504 OM OM1 9504 -0.550000 15.99940
9505 OM 9505 OM OM1 9505 -0.550000 15.99940
9506 OM 9506 OM OM1 9506 -0.550000 15.99940
9507 OM 9507 OM OM1 9507 -0.550000 15.99940
9508 OM 9508 OM OM1 9508 -0.550000 15.99940
9509 OM 9509 OM OM1 9509 -0.550000 15.99940
9510 OM 9510 OM OM1 9510 -0.550000 15.99940
9511 OM 9511 OM OM1 9511 -0.550000 15.99940
9512 OM 9512 OM OM1 9512 -0.550000 15.99940
9513 OM 9513 OM OM1 9513 -0.550000 15.99940
9514 OM 9514 OM OM1 9514 -0.550000 15.99940
9515 OM 9515 OM OM1 9515 -0.550000 15.99940
9516 OM 9516 OM OM1 9516 -0.550000 15.99940
9517 OM 9517 OM OM1 9517 -0.550000 15.99940
9518 OM 9518 OM OM1 9518 -0.550000 15.99940
9519 OM 9519 OM OM1 9519 -0.550000 15.99940
9520 OM 9520 OM OM1 9520 -0.550000 15.99940
9521 OM 9521 OM OM1 9521 -0.550000 15.99940
9522 OM 9522 OM OM1 9522 -0.550000 15.99940
9523 OM 9523 OM OM1 9523 -0.550000 15.99940
9524 OM 9524 OM OM1 9524 -0.550000 15.99940
9525 OM 9525 OM OM1 9525 -0.550000 15.99940
9526 OM 9526 OM OM1 9526 -0.550000 15.99940
9527 OM 9527 OM OM1 9527 -0.550000 15.99940
9528 OM 9528 OM OM1 9528 -0.550000 15.99940
9529 OM 9529 OM OM1 9529 -0.550000 15.99940
9530 OM 9530 OM OM1 9530 -0.550000 15.99940
9531 OM 9531 OM OM1 9531 -0.550000 15.99940
9532 OM 9532 OM OM1 9532 -0.550000 15.99940
9533 OM 9533 OM OM1 9533 -0.550000 15.99940
9534 OM 9534 OM OM1 9534 -0.550000 15.99940
9535 OM 9535 OM OM1 9535 -0.550000 15.99940
9536 OM 9536 OM OM1 9536 -0.550000 15.99940
9537 OM 9537 OM OM1 9537 -0.550000 15.99940
9538 OM 9538 OM OM1 9538 -0.550000 15.99940
9539 OM 9539 OM OM1 9539 -0.550000 15.99940
9540 OM 9540 OM OM1 9540 -0.550000 15.99940
9541 OM 9541 OM OM1 9541 -0.550000 15.99940
9542 OM 9542 OM OM1 9542 -0.550000 15.99940
9543 OM 9543 OM OM1 9543 -0.550000 15.99940
9544 OM 9544 OM OM1 9544 -0.550000 15.99940
9545 OM 9545 OM OM1 9545 -0.550000 15.99940
9546 OM 9546 OM OM1 9546 -0.550000 15.99940
9547 OM 9547 OM OM1 9547 -0.550000 15.99940
9548 OM 9548 OM OM1 9548 -0.550000 15.99940
9549 OM 9549 OM OM1 9549 -0.550000 15.99940
9550 OM 9550 OM OM1 9550 -0.550000 15.99940
9551 OM 9551 OM OM1 9551 -0.550000 15.99940
9552 OM 9552 OM OM1 9552 -0.550000 15.99940
9553 OM 9553 OM OM1 9553 -0.550000 15.99940
9554 OM 9554 OM OM1 9554 -0.550000 15.99940
9555 OM 9555 OM OM1 9555 -0.550000 15.99940
9556 OM 9556 OM OM1 9556 -0.550000 15.99940
9557 OM 9557 OM OM1 9557 -0.550000 15.99940
9558 OM 9558 OM OM1 9558 -0.550000 15.99940
9559 OM 9559 OM OM1 9559 -0.550000 15.99940
9560 OM 9560 OM OM1 9560 -0.550000 15.99940
9561 OM 9561 OM OM1 9561 -0.550000 15.99940
9562 OM 9562 OM OM1 9562 -0.550000 15.99940
9563 OM 9563 OM OM1 9563 -0.550000 15.99940
9564 OM 9564 OM OM1 9564 -0.550000 15.99940
9565 OM 9565 OM OM1 9565 -0.550000 15.99940
9566 OM 9566 OM OM1 9566 -0.550000 15.99940
9567 OM 9567 OM OM1 9567 -0.550000 15.99940
9568 OM 9568 OM OM1 9568 -0.550000 15.99940
9569 OM 9569 OM OM1 9569 -0.550000 15.99940
9570 OM 9570 OM OM1 9570 -0.550000 15.99940
9571 OM 9571 OM OM1 9571 -0.550000 15.99940
9572 OM 9572 OM OM1 9572 -0.550000 15.99940
9573 OM 9573 OM OM1 9573 -0.550000 15.99940
9574 OM 9574 OM OM1 9574 -0.550000 15.99940
9575 OM 9575 OM OM1 9575 -0.550000 15.99940
9576 OM 9576 OM OM1 9576 -0.550000 15.99940
9577 OM 9577 OM OM1 9577 -0.550000 15.99940
9578 OM 9578 OM OM1 9578 -0.550000 15.99940
9579 OM 9579 OM OM1 9579 -0.550000 15.99940
9580 OM 9580 OM OM1 9580 -0.550000 15.99940
9581 OM 9581 OM OM1 9581 -0.550000 15.99940
9582 OM 9582 OM OM1 9582 -0.550000 15.99940
9583 OM 9583 OM OM1 9583 -0.550000 15.99940
9584 OM 9584 OM OM1 9584 -0.550000 15.99940
9585 OM 9585 OM OM1 9585 -0.550000 15.99940
9586 OM 9586 OM OM1 9586 -0.550000 15.99940
9587 OM 9587 OM OM1 9587 -0.550000 15.99940
9588 OM 9588 OM OM1 9588 -0.550000 15.99940
9589 OM 9589 OM OM1 9589 -0.550000 15.99940
9590 OM 9590 OM OM1 9590 -0.550000 15.99940
9591 OM 9591 OM OM1 9591 -0.550000 15.99940
9592 OM 9592 OM OM1 9592 -0.550000 15.99940
9593 OM 9593 OM OM1 9593 -0.550000 15.99940
9594 OM 9594 OM OM1 9594 -0.550000 15.99940
9595 OM 9595 OM OM1 9595 -0.550000 15.99940
9596 OM 9596 OM OM1 9596 -0.550000 15.99940
9597 OM 9597 OM OM1 9597 -0.550000 15.99940
9598 OM 9598 OM OM1 9598 -0.550000 15.99940
9599 OM 9599 OM OM1 9599 -0.550000 15.99940
9600 OM 9600 OM OM1 9600 -0.550000 15.99940
9601 OM 9601 OM OM1 9601 -0.550000 15.99940
9602 OM 9602 OM OM1 9602 -0.550000 15.99940
9603 OM 9603 OM OM1 9603 -0.550000 15.99940
9604 OM 9604 OM OM1 9604 -0.550000 15.99940
9605 OM 9605 OM OM1 9605 -0.550000 15.99940
9606 OM 9606 OM OM1 9606 -0.550000 15.99940
9607 OM 9607 OM OM1 9607 -0.550000 15.99940
9608 OM 9608 OM OM1 9608 -0.550000 15.99940
9609 OM 9609 OM OM1 9609 -0.550000 15.99940
9610 OM 9610 OM OM1 9610 -0.550000 15.99940
9611 OM 9611 OM OM1 9611 -0.550000 15.99940
9612 OM 9612 OM OM1 9612 -0.550000 15.99940
9613 OM 9613 OM OM1 9613 -0.550000 15.99940
9614 OM 9614 OM OM1 9614 -0.550000 15.99940
9615 OM 9615 OM OM1 9615 -0.550000 15.99940
9616 OM 9616 OM OM1 9616 -0.550000 15.99940
9617 OM 9617 OM OM1 9617 -0.550000 15.99940
9618 OM 9618 OM OM1 9618 -0.550000 15.99940
9619 OM 9619 OM OM1 9619 -0.550000 15.99940
9620 OM 9620 OM OM1 9620 -0.550000 15.99940
9621 OM 9621 OM OM1 9621 -0.550000 15.99940
9622 OM 9622 OM OM1 9622 -0.550000 15.99940
9623 OM 9623 OM OM1 9623 -0.550000 15.99940
9624 OM 9624 OM OM1 9624 -0.550000 15.99940
9625 OM 9625 OM OM1 9625 -0.550000 15.99940
9626 OM 9626 OM OM1 9626 -0.550000 15.99940
9627 OM 9627 OM OM1 9627 -0.550000 15.99940
9628 OM 9628 OM OM1 9628 -0.550000 15.99940
9629 OM 9629 OM OM1 9629 -0.550000 15.99940
9630 OM 9630 OM OM1 9630 -0.550000 15.99940
9631 OM 9631 OM OM1 9631 -0.550000 15.99940
9632 OM 9632 OM OM1 9632 -0.550000 15.99940
9633 OM 9633 OM OM1 9633 -0.550000 15.99940
9634 OM 9634 OM OM1 9634 -0.550000 15.99940
9635 OM 9635 OM OM1 9635 -0.550000 15.99940
9636 OM 9636 OM OM1 9636 -0.550000 15.99940
9637 OM 9637 OM OM1 9637 -0.550000 15.99940
9638 OM 9638 OM OM1 9638 -0.550000 15.99940
9639 OM 9639 OM OM1 9639 -0.550000 15.99940
9640 OM 9640 OM OM1 9640 -0.550000 15.99940
9641 OM 9641 OM OM1 9641 -0.550000 15.99940
9642 OM 9642 OM OM1 9642 -0.550000 15.99940
9643 OM 9643 OM OM1 9643 -0.550000 15.99940
9644 OM 9644 OM OM1 9644 -0.550000 15.99940
9645 OM 9645 OM OM1 9645 -0.550000 15.99940
9646 OM 9646 OM OM1 9646 -0.550000 15.99940
9647 OM 9647 OM OM1 9647 -0.550000 15.99940
9648 OM 9648 OM OM1 9648 -0.550000 15.99940
9649 OM 9649 OM OM1 9649 -0.550000 15.99940
9650 OM 9650 OM OM1 9650 -0.550000 15.99940
9651 OM 9651 OM OM1 9651 -0.550000 15.99940
9652 OM 9652 OM OM1 9652 -0.550000 15.99940
9653 OM 9653 OM OM1 9653 -0.550000 15.99940
9654 OM 9654 OM OM1 9654 -0.550000 15.99940
9655 OM 9655 OM OM1 9655 -0.550000 15.99940
9656 OM 9656 OM OM1 9656 -0.550000 15.99940
9657 OM 9657 OM OM1 9657 -0.550000 15.99940
9658 OM 9658 OM OM1 9658 -0.550000 15.99940
9659 OM 9659 OM OM1 9659 -0.550000 15.99940
9660 OM 9660 OM OM1 9660 -0.550000 15.99940
9661 OM 9661 OM OM1 9661 -0.550000 15.99940
9662 OM 9662 OM OM1 9662 -0.550000 15.99940
9663 OM 9663 OM OM1 9663 -0.550000 15.99940
9664 OM 9664 OM OM1 9664 -0.550000 15.99940
9665 OM 9665 OM OM1 9665 -0.550000 15.99940
9666 OM 9666 OM OM1 9666 -0.550000 15.99940
9667 OM 9667 OM OM1 9667 -0.550000 15.99940
9668 OM 9668 OM OM1 9668 -0.550000 15.99940
9669 OM 9669 OM OM1 9669 -0.550000 15.99940
9670 OM 9670 OM OM1 9670 -0.550000 15.99940
9671 OM 9671 OM OM1 9671 -0.550000 15.99940
9672 OM 9672 OM OM1 9672 -0.550000 15.99940
9673 OM 9673 OM OM1 9673 -0.550000 15.99940
9674 OM 9674 OM OM1 9674 -0.550000 15.99940
9675 OM 9675 OM OM1 9675 -0.550000 15.99940
9676 OM 9676 OM OM1 9676 -0.550000 15.99940
9677 OM 9677 OM OM1 9677 -0.550000 15.99940
9678 OM 9678 OM OM1 9678 -0.550000 15.99940
9679 OM 9679 OM OM1 9679 -0.550000 15.99940
9680 OM 9680 OM OM1 9680 -0.550000 15.99940
9681 OM 9681 OM OM1 9681 -0.550000 15.99940
9682 OM 9682 OM OM1 9682 -0.550000 15.99940
9683 OM 9683 OM OM1 9683 -0.550000 15.99940
9684 OM 9684 OM OM1 9684 -0.550000 15.99940
9685 OM 9685 OM OM1 9685 -0.550000 15.99940
9686 OM 9686 OM OM1 9686 -0.550000 15.99940
9687 OM 9687 OM OM1 9687 -0.550000 15.99940
9688 OM 9688 OM OM1 9688 -0.550000 15.99940
9689 OM 9689 OM OM1 9689 -0.550000 15.99940
9690 OM 9690 OM OM1 9690 -0.550000 15.99940
9691 OM 9691 OM OM1 9691 -0.550000 15.99940
9692 OM 9692 OM OM1 9692 -0.550000 15.99940
9693 OM 9693 OM OM1 9693 -0.550000 15.99940
9694 OM 9694 OM OM1 9694 -0.550000 15.99940
9695 OM 9695 OM OM1 9695 -0.550000 15.99940
9696 OM 9696 OM OM1 9696 -0.550000 15.99940
9697 OM 9697 OM OM1 9697 -0.550000 15.99940
9698 OM 9698 OM OM1 9698 -0.550000 15.99940
9699 OM 9699 OM OM1 9699 -0.550000 15.99940
9700 OM 9700 OM OM1 9700 -0.550000 15.99940
9701 OM 9701 OM OM1 9701 -0.550000 15.99940
9702 OM 9702 OM OM1 9702 -0.550000 15.99940
9703 OM 9703 OM OM1 9703 -0.550000 15.99940
9704 OM 9704 OM OM1 9704 -0.550000 15.99940
9705 OM 9705 OM OM1 9705 -0.550000 15.99940
9706 OM 9706 OM OM1 9706 -0.550000 15.99940
9707 OM 9707 OM OM1 9707 -0.550000 15.99940
9708 OM 9708 OM OM1 9708 -0.550000 15.99940
9709 OM 9709 OM OM1 9709 -0.550000 15.99940
9710 OM 9710 OM OM1 9710 -0.550000 15.99940
9711 OM 9711 OM OM1 9711 -0.550000 15.99940
9712 OM 9712 OM OM1 9712 -0.550000 15.99940
9713 OM 9713 OM OM1 9713 -0.550000 15.99940
9714 OM 9714 OM OM1 9714 -0.550000 15.99940
9715 OM 9715 OM OM1 9715 -0.550000 15.99940
9716 OM 9716 OM OM1 9716 -0.550000 15.99940
9717 OM 9717 OM OM1 9717 -0.550000 15.99940
9718 OM 9718 OM OM1 9718 -0.550000 15.99940
9719 OM 9719 OM OM1 9719 -0.550000 15.99940
9720 OM 9720 OM OM1 9720 -0.550000 15.99940
9721 OM 9721 OM OM1 9721 -0.550000 15.99940
9722 OM 9722 OM OM1 9722 -0.550000 15.99940
9723 OM 9723 OM OM1 9723 -0.550000 15.99940
9724 OM 9724 OM OM1 9724 -0.550000 15.99940
9725 OM 9725 OM OM1 9725 -0.550000 15.99940
9726 OM 9726 OM OM1 9726 -0.550000 15.99940
9727 OM 9727 OM OM1 9727 -0.550000 15.99940
9728 OM 9728 OM OM1 9728 -0.550000 15.99940
9729 OM 9729 OM OM1 9729 -0.550000 15.99940
9730 OM 9730 OM OM1 9730 -0.550000 15.99940
9731 OM 9731 OM OM1 9731 -0.550000 15.99940
9732 OM 9732 OM OM1 9732 -0.550000 15.99940
9733 OM 9733 OM OM1 9733 -0.550000 15.99940
9734 OM 9734 OM OM1 9734 -0.550000 15.99940
9735 OM 9735 OM OM1 9735 -0.550000 15.99940
9736 OM 9736 OM OM1 9736 -0.550000 15.99940
9737 OM 9737 OM OM1 9737 -0.550000 15.99940
9738 OM 9738 OM OM1 9738 -0.550000 15.99940
9739 OM 9739 OM OM1 9739 -0.550000 15.99940
9740 OM 9740 OM OM1 9740 -0.550000 15.99940
9741 OM 9741 OM OM1 9741 -0.550000 15.99940
9742 OM 9742 OM OM1 9742 -0.550000 15.99940
9743 OM 9743 OM OM1 9743 -0.550000 15.99940
9744 OM 9744 OM OM1 9744 -0.550000 15.99940
9745 OM 9745 OM OM1 9745 -0.550000 15.99940
9746 OM 9746 OM OM1 9746 -0.550000 15.99940
9747 OM 9747 OM OM1 9747 -0.550000 15.99940
9748 OM 9748 OM OM1 9748 -0.550000 15.99940
9749 OM 9749 OM OM1 9749 -0.550000 15.99940
9750 OM 9750 OM OM1 9750 -0.550000 15.99940
9751 OM 9751 OM OM1 9751 -0.550000 15.99940
9752 OM 9752 OM OM1 9752 -0.550000 15.99940
9753 OM 9753 OM OM1 9753 -0.550000 15.99940
9754 OM 9754 OM OM1 9754 -0.550000 15.99940
9755 OM 9755 OM OM1 9755 -0.550000 15.99940
9756 OM 9756 OM OM1 9756 -0.550000 15.99940
9757 OM 9757 OM OM1 9757 -0.550000 15.99940
9758 OM 9758 OM OM1 9758 -0.550000 15.99940
9759 OM 9759 OM OM1 9759 -0.550000 15.99940
9760 OM 9760 OM OM1 9760 -0.550000 15.99940
9761 OM 9761 OM OM1 9761 -0.550000 15.99940
9762 OM 9762 OM OM1 9762 -0.550000 15.99940
9763 OM 9763 OM OM1 9763 -0.550000 15.99940
9764 OM 9764 OM OM1 9764 -0.550000 15.99940
9765 OM 9765 OM OM1 9765 -0.550000 15.99940
9766 OM 9766 OM OM1 9766 -0.550000 15.99940
9767 OM 9767 OM OM1 9767 -0.550000 15.99940
9768 OM 9768 OM OM1 9768 -0.550000 15.99940
9769 OM 9769 OM OM1 9769 -0.550000 15.99940
9770 OM 9770 OM OM1 9770 -0.550000 15.99940
9771 OM 9771 OM OM1 9771 -0.550000 15.99940
9772 OM 9772 OM OM1 9772 -0.550000 15.99940
9773 OM 9773 OM OM1 9773 -0.550000 15.99940
9774 OM 9774 OM OM1 9774 -0.550000 15.99940
9775 OM 9775 OM OM1 9775 -0.550000 15.99940
9776 OM 9776 OM OM1 9776 -0.550000 15.99940
9777 OM 9777 OM OM1 9777 -0.550000 15.99940
9778 OM 9778 OM OM1 9778 -0.550000 15.99940
9779 OM 9779 OM OM1 9779 -0.550000 15.99940
9780 OM 9780 OM OM1 9780 -0.550000 15.99940
9781 OM 9781 OM OM1 9781 -0.550000 15.99940
9782 OM 9782 OM OM1 9782 -0.550000 15.99940
9783 OM 9783 OM OM1 9783 -0.550000 15.99940
9784 OM 9784 OM OM1 9784 -0.550000 15.99940
9785 OM 9785 OM OM1 9785 -0.550000 15.99940
9786 OM 9786 OM OM1 9786 -0.550000 15.99940
9787 OM 9787 OM OM1 9787 -0.550000 15.99940
9788 OM 9788 OM OM1 9788 -0.550000 15.99940
9789 OM 9789 OM OM1 9789 -0.550000 15.99940
9790 OM 9790 OM OM1 9790 -0.550000 15.99940
9791 OM 9791 OM OM1 9791 -0.550000 15.99940
9792 OM 9792 OM OM1 9792 -0.550000 15.99940
9793 OM 9793 OM OM1 9793 -0.550000 15.99940
9794 OM 9794 OM OM1 9794 -0.550000 15.99940
9795 OM 9795 OM OM1 9795 -0.550000 15.99940
9796 OM 9796 OM OM1 9796 -0.550000 15.99940
9797 OM 9797 OM OM1 9797 -0.550000 15.99940
9798 OM 9798 OM OM1 9798 -0.550000 15.99940
9799 OM 9799 OM OM1 9799 -0.550000 15.99940
9800 OM 9800 OM OM1 9800 -0.550000 15.99940
9801 OM 9801 OM OM1 9801 -0.550000 15.99940
9802 OM 9802 OM OM1 9802 -0.550000 15.99940
9803 OM 9803 OM OM1 9803 -0.550000 15.99940
9804 OM 9804 OM OM1 9804 -0.550000 15.99940
9805 OM 9805 OM OM1 9805 -0.550000 15.99940
9806 OM 9806 OM OM1 9806 -0.550000 15.99940
9807 OM 9807 OM OM1 9807 -0.550000 15.99940
9808 OM 9808 OM OM1 9808 -0.550000 15.99940
9809 OM 9809 OM OM1 9809 -0.550000 15.99940
9810 OM 9810 OM OM1 9810 -0.550000 15.99940
9811 OM 9811 OM OM1 9811 -0.550000 15.99940
9812 OM 9812 OM OM1 9812 -0.550000 15.99940
9813 OM 9813 OM OM1 9813 -0.550000 15.99940
9814 OM 9814 OM OM1 9814 -0.550000 15.99940
9815 OM 9815 OM OM1 9815 -0.550000 15.99940
9816 OM 9816 OM OM1 9816 -0.550000 15.99940
9817 OM 9817 OM OM1 9817 -0.550000 15.99940
9818 OM 9818 OM OM1 9818 -0.550000 15.99940
9819 OM 9819 OM OM1 9819 -0.550000 15.99940
9820 OM 9820 OM OM1 9820 -0.550000 15.99940
9821 OM 9821 OM OM1 9821 -0.550000 15.99940
9822 OM 9822 OM OM1 9822 -0.550000 15.99940
9823 OM 9823 OM OM1 9823 -0.550000 15.99940
9824 OM 9824 OM OM1 9824 -0.550000 15.99940
9825 OM 9825 OM OM1 9825 -0.550000 15.99940
9826 OM 9826 OM OM1 9826 -0.550000 15.99940
9827 OM 9827 OM OM1 9827 -0.550000 15.99940
9828 OM 9828 OM OM1 9828 -0.550000 15.99940
9829 OM 9829 OM OM1 9829 -0.550000 15.99940
9830 OM 9830 OM OM1 9830 -0.550000 15.99940
9831 OM 9831 OM OM1 9831 -0.550000 15.99940
9832 OM 9832 OM OM1 9832 -0.550000 15.99940
9833 OM 9833 OM OM1 9833 -0.550000 15.99940
9834 OM 9834 OM OM1 9834 -0.550000 15.99940
9835 OM 9835 OM OM1 9835 -0.550000 15.99940
9836 OM 9836 OM OM1 9836 -0.550000 15.99940
9837 OM 9837 OM OM1 9837 -0.550000 15.99940
9838 OM 9838 OM OM1 9838 -0.550000 15.99940
9839 OM 9839 OM OM1 9839 -0.550000 15.99940
9840 OM 9840 OM OM1 9840 -0.550000 15.99940
9841 OM 9841 OM OM1 9841 -0.550000 15.99940
9842 OM 9842 OM OM1 9842 -0.550000 15.99940
9843 OM 9843 OM OM1 9843 -0.550000 15.99940
9844 OM 9844 OM OM1 9844 -0.550000 15.99940
9845 OM 9845 OM OM1 9845 -0.550000 15.99940
9846 OM 9846 OM OM1 9846 -0.550000 15.99940
9847 OM 9847 OM OM1 9847 -0.550000 15.99940
9848 OM 9848 OM OM1 9848 -0.550000 15.99940
9849 OM 9849 OM OM1 9849 -0.550000 15.99940
9850 OM 9850 OM OM1 9850 -0.550000 15.99940
9851 OM 9851 OM OM1 9851 -0.550000 15.99940
9852 OM 9852 OM OM1 9852 -0.550000 15.99940
9853 OM 9853 OM OM1 9853 -0.550000 15.99940
9854 OM 9854 OM OM1 9854 -0.550000 15.99940
9855 OM 9855 OM OM1 9855 -0.550000 15.99940
9856 OM 9856 OM OM1 9856 -0.550000 15.99940
9857 OM 9857 OM OM1 9857 -0.550000 15.99940
9858 OM 9858 OM OM1 9858 -0.550000 15.99940
9859 OM 9859 OM OM1 9859 -0.550000 15.99940
9860 OM 9860 OM OM1 9860 -0.550000 15.99940
9861 OM 9861 OM OM1 9861 -0.550000 15.99940
9862 OM 9862 OM OM1 9862 -0.550000 15.99940
9863 OM 9863 OM OM1 9863 -0.550000 15.99940
9864 OM 9864 OM OM1 9864 -0.550000 15.99940
9865 OM 9865 OM OM1 9865 -0.550000 15.99940
9866 OM 9866 OM OM1 9866 -0.550000 15.99940
9867 OM 9867 OM OM1 9867 -0.550000 15.99940
9868 OM 9868 OM OM1 9868 -0.550000 15.99940
9869 OM 9869 OM OM1 9869 -0.550000 15.99940
9870 OM 9870 OM OM1 9870 -0.550000 15.99940
9871 OM 9871 OM OM1 9871 -0.550000 15.99940
9872 OM 9872 OM OM1 9872 -0.550000 15.99940
9873 OM 9873 OM OM1 9873 -0.550000 15.99940
9874 OM 9874 OM OM1 9874 -0.550000 15.99940
9875 OM 9875 OM OM1 9875 -0.550000 15.99940
9876 OM 9876 OM OM1 9876 -0.550000 15.99940
9877 OM 9877 OM OM1 9877 -0.550000 15.99940
9878 OM 9878 OM OM1 9878 -0.550000 15.99940
9879 OM 9879 OM OM1 9879 -0.550000 15.99940
9880 OM 9880 OM OM1 9880 -0.550000 15.99940
9881 OM 9881 OM OM1 9881 -0.550000 15.99940
9882 OM 9882 OM OM1 9882 -0.550000 15.99940
9883 OM 9883 OM OM1 9883 -0.550000 15.99940
9884 OM 9884 OM OM1 9884 -0.550000 15.99940
9885 OM 9885 OM OM1 9885 -0.550000 15.99940
9886 OM 9886 OM OM1 9886 -0.550000 15.99940
9887 OM 9887 OM OM1 9887 -0.550000 15.99940
9888 OM 9888 OM OM1 9888 -0.550000 15.99940
9889 OM 9889 OM OM1 9889 -0.550000 15.99940
9890 OM 9890 OM OM1 9890 -0.550000 15.99940
9891 OM 9891 OM OM1 9891 -0.550000 15.99940
9892 OM 9892 OM OM1 9892 -0.550000 15.99940
9893 OM 9893 OM OM1 9893 -0.550000 15.99940
9894 OM 9894 OM OM1 9894 -0.550000 15.99940
9895 OM 9895 OM OM1 9895 -0.550000 15.99940
9896 OM 9896 OM OM1 9896 -0.550000 15.99940
9897 OM 9897 OM OM1 9897 -0.550000 15.99940
9898 OM 9898 OM OM1 9898 -0.550000 15.99940
9899 OM 9899 OM OM1 9899 -0.550000 15.99940
9900 OM 9900 OM OM1 9900 -0.550000 15.99940
9901 OM 9901 OM OM1 9901 -0.550000 15.99940
9902 OM 9902 OM OM1 9902 -0.550000 15.99940
9903 OM 9903 OM OM1 9903 -0.550000 15.99940
9904 OM 9904 OM OM1 9904 -0.550000 15.99940
9905 OM 9905 OM OM1 9905 -0.550000 15.99940
9906 OM 9906 OM OM1 9906 -0.550000 15.99940
9907 OM 9907 OM OM1 9907 -0.550000 15.99940
9908 OM 9908 OM OM1 9908 -0.550000 15.99940
9909 OM 9909 OM OM1 9909 -0.550000 15.99940
9910 OM 9910 OM OM1 9910 -0.550000 15.99940
9911 OM 9911 OM OM1 9911 -0.550000 15.99940
9912 OM 9912 OM OM1 9912 -0.550000 15.99940
9913 OM 9913 OM OM1 9913 -0.550000 15.99940
9914 OM 9914 OM OM1 9914 -0.550000 15.99940
9915 OM 9915 OM OM1 9915 -0.550000 15.99940
9916 OM 9916 OM OM1 9916 -0.550000 15.99940
9917 OM 9917 OM OM1 9917 -0.550000 15.99940
9918 OM 9918 OM OM1 9918 -0.550000 15.99940
9919 OM 9919 OM OM1 9919 -0.550000 15.99940
9920 OM 9920 OM OM1 9920 -0.550000 15.99940
9921 OM 9921 OM OM1 9921 -0.550000 15.99940
9922 OM 9922 OM OM1 9922 -0.550000 15.99940
9923 OM 9923 OM OM1 9923 -0.550000 15.99940
9924 OM 9924 OM OM1 9924 -0.550000 15.99940
9925 OM 9925 OM OM1 9925 -0.550000 15.99940
9926 OM 9926 OM OM1 9926 -0.550000 15.99940
9927 OM 9927 OM OM1 9927 -0.550000 15.99940
9928 OM 9928 OM OM1 9928 -0.550000 15.99940
9929 OM 9929 OM OM1 9929 -0.550000 15.99940
9930 OM 9930 OM OM1 9930 -0.550000 15.99940
9931 OM 9931 OM OM1 9931 -0.550000 15.99940
9932 OM 9932 OM OM1 9932 -0.550000 15.99940
9933 OM 9933 OM OM1 9933 -0.550000 15.99940
9934 OM 9934 OM OM1 9934 -0.550000 15.99940
9935 OM 9935 OM OM1 9935 -0.550000 15.99940
9936 OM 9936 OM OM1 9936 -0.550000 15.99940
9937 OM 9937 OM OM1 9937 -0.550000 15.99940
9938 OM 9938 OM OM1 9938 -0.550000 15.99940
9939 OM 9939 OM OM1 9939 -0.550000 15.99940
9940 OM 9940 OM OM1 9940 -0.550000 15.99940
9941 OM 9941 OM OM1 9941 -0.550000 15.99940
9942 OM 9942 OM OM1 9942 -0.550000 15.99940
9943 OM 9943 OM OM1 9943 -0.550000 15.99940
9944 OM 9944 OM OM1 9944 -0.550000 15.99940
9945 OM 9945 OM OM1 9945 -0.550000 15.99940
9946 OM 9946 OM OM1 9946 -0.550000 15.99940
9947 OM 9947 OM OM1 9947 -0.550000 15.99940
9948 OM 9948 OM OM1 9948 -0.550000 15.99940
9949 OM 9949 OM OM1 9949 -0.550000 15.99940
9950 OM 9950 OM OM1 9950 -0.550000 15.99940
9951 OM 9951 OM OM1 9951 -0.550000 15.99940
9952 OM 9952 OM OM1 9952 -0.550000 15.99940
9953 OM 9953 OM OM1 9953 -0.550000 15.99940
9954 OM 9954 OM OM1 9954 -0.550000 15.99940
9955 OM 9955 OM OM1 9955 -0.550000 15.99940
9956 OM 9956 OM OM1 9956 -0.550000 15.99940
9957 OM 9957 OM OM1 9957 -0.550000 15.99940
9958 OM 9958 OM OM1 9958 -0.550000 15.99940
9959 OM 9959 OM OM1 9959 -0.550000 15.99940
9960 OM 9960 OM OM1 9960 -0.550000 15.99940
9961 OM 9961 OM OM1 9961 -0.550000 15.99940
9962 OM 9962 OM OM1 9962 -0.550000 15.99940
9963 OM 9963 OM OM1 9963 -0.550000 15.99940
9964 OM 9964 OM OM1 9964 -0.550000 15.99940
9965 OM 9965 OM OM1 9965 -0.550000 15.99940
9966 OM 9966 OM OM1 9966 -0.550000 15.99940
9967 OM 9967 OM OM1 9967 -0.550000 15.99940
9968 OM 9968 OM OM1 9968 -0.550000 15.99940
9969 OM 9969 OM OM1 9969 -0.550000 15.99940
9970 OM 9970 OM OM1 9970 -0.550000 15.99940
9971 OM 9971 OM OM1 9971 -0.550000 15.99940
9972 OM 9972 OM OM1 9972 -0.550000 15.99940
9973 OM 9973 OM OM1 9973 -0.550000 15.99940
9974 OM 9974 OM OM1 9974 -0.550000 15.99940
9975 OM 9975 OM OM1 9975 -0.550000 15.99940
9976 OM 9976 OM OM1 9976 -0.550000 15.99940
9977 OM 9977 OM OM1 9977 -0.550000 15.99940
9978 OM 9978 OM OM1 9978 -0.550000 15.99940
9979 OM 9979 OM OM1 9979 -0.550000 15.99940
9980 OM 9980 OM OM1 9980 -0.550000 15.99940
9981 OM 9981 OM OM1 9981 -0.550000 15.99940
9982 OM 9982 OM OM1 9982 -0.550000 15.99940
9983 OM 9983 OM OM1 9983 -0.550000 15.99940
9984 OM 9984 OM OM1 9984 -0.550000 15.99940
9985 OM 9985 OM OM1 9985 -0.550000 15.99940
9986 OM 9986 OM OM1 9986 -0.550000 15.99940
9987 OM 9987 OM OM1 9987 -0.550000 15.99940
9988 OM 9988 OM OM1 9988 -0.550000 15.99940
9989 OM 9989 OM OM1 9989 -0.550000 15.99940
9990 OM 9990 OM OM1 9990 -0.550000 15.99940
9991 OM 9991 OM OM1 9991 -0.550000 15.99940
9992 OM 9992 OM OM1 9992 -0.550000 15.99940
9993 OM 9993 OM OM1 9993 -0.550000 15.99940
9994 OM 9994 OM OM1 9994 -0.550000 15.99940
9995 OM 9995 OM OM1 9995 -0.550000 15.99940
9996 OM 9996 OM OM1 9996 -0.550000 15.99940
9997 OM 9997 OM OM1 9997 -0.550000 15.99940
9998 OM 9998 OM OM1 9998 -0.550000 15.99940
9999 OM 9999 OM OM1 9999 -0.550000 15.99940
10000 OM 10000 OM OM1 10000 -0.550000 15.99940
10001 OM 10001 OM OM1 10001 -0.550000 15.99940
10002 OM 10002 OM OM1 10002 -0.550000 15.99940
10003 OM 10003 OM OM1 10003 -0.550000 15.99940
10004 OM 10004 OM OM1 10004 -0.550000 15.99940
10005 OM 10005 OM OM1 10005 -0.550000 15.99940
10006 OM 10006 OM OM1 10006 -0.550000 15.99940
10007 OM 10007 OM OM1 10007 -0.550000 15.99940
10008 OM 10008 OM OM1 10008 -0.550000 15.99940
10009 OM 10009 OM OM1 10009 -0.550000 15.99940
10010 OM 10010 OM OM1 10010 -0.550000 15.99940
10011 OM 10011 OM OM1 10011 -0.550000 15.99940
10012 OM 10012 OM OM1 10012 -0.550000 15.99940
10013 OM 10013 OM OM1 10013 -0.550000 15.99940
10014 OM 10014 OM OM1 10014 -0.550000 15.99940
10015 OM 10015 OM OM1 10015 -0.550000 15.99940
10016 OM 10016 OM OM1 10016 -0.550000 15.99940
10017 OM 10017 OM OM1 10017 -0.550000 15.99940
10018 OM 10018 OM OM1 10018 -0.550000 15.99940
10019 OM 10019 OM OM1 10019 -0.550000 15.99940
10020 OM 10020 OM OM1 10020 -0.550000 15.99940
10021 OM 10021 OM OM1 10021 -0.550000 15.99940
10022 OM 10022 OM OM1 10022 -0.550000 15.99940
10023 OM 10023 OM OM1 10023 -0.550000 15.99940
10024 OM 10024 OM OM1 10024 -0.550000 15.99940
10025 OM 10025 OM OM1 10025 -0.550000 15.99940
10026 OM 10026 OM OM1 10026 -0.550000 15.99940
10027 OM 10027 OM OM1 10027 -0.550000 15.99940
10028 OM 10028 OM OM1 10028 -0.550000 15.99940
10029 OM 10029 OM OM1 10029 -0.550000 15.99940
10030 OM 10030 OM OM1 10030 -0.550000 15.99940
10031 OM 10031 OM OM1 10031 -0.550000 15.99940
10032 OM 10032 OM OM1 10032 -0.550000 15.99940
10033 OM 10033 OM OM1 10033 -0.550000 15.99940
10034 OM 10034 OM OM1 10034 -0.550000 15.99940
10035 OM 10035 OM OM1 10035 -0.550000 15.99940
10036 OM 10036 OM OM1 10036 -0.550000 15.99940
10037 OM 10037 OM OM1 10037 -0.550000 15.99940
10038 OM 10038 OM OM1 10038 -0.550000 15.99940
10039 OM 10039 OM OM1 10039 -0.550000 15.99940
10040 OM 10040 OM OM1 10040 -0.550000 15.99940
10041 OM 10041 OM OM1 10041 -0.550000 15.99940
10042 OM 10042 OM OM1 10042 -0.550000 15.99940
10043 OM 10043 OM OM1 10043 -0.550000 15.99940
10044 OM 10044 OM OM1 10044 -0.550000 15.99940
10045 OM 10045 OM OM1 10045 -0.550000 15.99940
10046 OM 10046 OM OM1 10046 -0.550000 15.99940
10047 OM 10047 OM OM1 10047 -0.550000 15.99940
10048 OM 10048 OM OM1 10048 -0.550000 15.99940
10049 OM 10049 OM OM1 10049 -0.550000 15.99940
10050 OM 10050 OM OM1 10050 -0.550000 15.99940
10051 OM 10051 OM OM1 10051 -0.550000 15.99940
10052 OM 10052 OM OM1 10052 -0.550000 15.99940
10053 OM 10053 OM OM1 10053 -0.550000 15.99940
10054 OM 10054 OM OM1 10054 -0.550000 15.99940
10055 OM 10055 OM OM1 10055 -0.550000 15.99940
10056 OM 10056 OM OM1 10056 -0.550000 15.99940
10057 OM 10057 OM OM1 10057 -0.550000 15.99940
10058 OM 10058 OM OM1 10058 -0.550000 15.99940
10059 OM 10059 OM OM1 10059 -0.550000 15.99940
10060 OM 10060 OM OM1 10060 -0.550000 15.99940
10061 OM 10061 OM OM1 10061 -0.550000 15.99940
10062 OM 10062 OM OM1 10062 -0.550000 15.99940
10063 OM 10063 OM OM1 10063 -0.550000 15.99940
10064 OM 10064 OM OM1 10064 -0.550000 15.99940
10065 OM 10065 OM OM1 10065 -0.550000 15.99940
10066 OM 10066 OM OM1 10066 -0.550000 15.99940
10067 OM 10067 OM OM1 10067 -0.550000 15.99940
10068 OM 10068 OM OM1 10068 -0.550000 15.99940
10069 OM 10069 OM OM1 10069 -0.550000 15.99940
10070 OM 10070 OM OM1 10070 -0.550000 15.99940
10071 OM 10071 OM OM1 10071 -0.550000 15.99940
10072 OM 10072 OM OM1 10072 -0.550000 15.99940
10073 OM 10073 OM OM1 10073 -0.550000 15.99940
10074 OM 10074 OM OM1 10074 -0.550000 15.99940
10075 OM 10075 OM OM1 10075 -0.550000 15.99940
10076 OM 10076 OM OM1 10076 -0.550000 15.99940
10077 OM 10077 OM OM1 10077 -0.550000 15.99940
10078 OM 10078 OM OM1 10078 -0.550000 15.99940
10079 OM 10079 OM OM1 10079 -0.550000 15.99940
10080 OM 10080 OM OM1 10080 -0.550000 15.99940
10081 OM 10081 OM OM1 10081 -0.550000 15.99940
10082 OM 10082 OM OM1 10082 -0.550000 15.99940
10083 OM 10083 OM OM1 10083 -0.550000 15.99940
10084 OM 10084 OM OM1 10084 -0.550000 15.99940
10085 OM 10085 OM OM1 10085 -0.550000 15.99940
10086 OM 10086 OM OM1 10086 -0.550000 15.99940
10087 OM 10087 OM OM1 10087 -0.550000 15.99940
10088 OM 10088 OM OM1 10088 -0.550000 15.99940
10089 OM 10089 OM OM1 10089 -0.550000 15.99940
10090 OM 10090 OM OM1 10090 -0.550000 15.99940
10091 OM 10091 OM OM1 10091 -0.550000 15.99940
10092 OM 10092 OM OM1 10092 -0.550000 15.99940
10093 OM 10093 OM OM1 10093 -0.550000 15.99940
10094 OM 10094 OM OM1 10094 -0.550000 15.99940
10095 OM 10095 OM OM1 10095 -0.550000 15.99940
10096 OM 10096 OM OM1 10096 -0.550000 15.99940
10097 OM 10097 OM OM1 10097 -0.550000 15.99940
10098 OM 10098 OM OM1 10098 -0.550000 15.99940
10099 OM 10099 OM OM1 10099 -0.550000 15.99940
10100 OM 10100 OM OM1 10100 -0.550000 15.99940
10101 OM 10101 OM OM1 10101 -0.550000 15.99940
10102 OM 10102 OM OM1 10102 -0.550000 15.99940
10103 OM 10103 OM OM1 10103 -0.550000 15.99940
10104 OM 10104 OM OM1 10104 -0.550000 15.99940
10105 OM 10105 OM OM1 10105 -0.550000 15.99940
10106 OM 10106 OM OM1 10106 -0.550000 15.99940
10107 OM 10107 OM OM1 10107 -0.550000 15.99940
10108 OM 10108 OM OM1 10108 -0.550000 15.99940
10109 OM 10109 OM OM1 10109 -0.550000 15.99940
10110 OM 10110 OM OM1 10110 -0.550000 15.99940
10111 OM 10111 OM OM1 10111 -0.550000 15.99940
10112 OM 10112 OM OM1 10112 -0.550000 15.99940
10113 OM 10113 OM OM1 10113 -0.550000 15.99940
10114 OM 10114 OM OM1 10114 -0.550000 15.99940
10115 OM 10115 OM OM1 10115 -0.550000 15.99940
10116 OM 10116 OM OM1 10116 -0.550000 15.99940
10117 OM 10117 OM OM1 10117 -0.550000 15.99940
10118 OM 10118 OM OM1 10118 -0.550000 15.99940
10119 OM 10119 OM OM1 10119 -0.550000 15.99940
10120 OM 10120 OM OM1 10120 -0.550000 15.99940
10121 OM 10121 OM OM1 10121 -0.550000 15.99940
10122 OM 10122 OM OM1 10122 -0.550000 15.99940
10123 OM 10123 OM OM1 10123 -0.550000 15.99940
10124 OM 10124 OM OM1 10124 -0.550000 15.99940
10125 OM 10125 OM OM1 10125 -0.550000 15.99940
10126 OM 10126 OM OM1 10126 -0.550000 15.99940
10127 OM 10127 OM OM1 10127 -0.550000 15.99940
10128 OM 10128 OM OM1 10128 -0.550000 15.99940
10129 OM 10129 OM OM1 10129 -0.550000 15.99940
10130 OM 10130 OM OM1 10130 -0.550000 15.99940
10131 OM 10131 OM OM1 10131 -0.550000 15.99940
10132 OM 10132 OM OM1 10132 -0.550000 15.99940
10133 OM 10133 OM OM1 10133 -0.550000 15.99940
10134 OM 10134 OM OM1 10134 -0.550000 15.99940
10135 OM 10135 OM OM1 10135 -0.550000 15.99940
10136 OM 10136 OM OM1 10136 -0.550000 15.99940
10137 OM 10137 OM OM1 10137 -0.550000 15.99940
10138 OM 10138 OM OM1 10138 -0.550000 15.99940
10139 OM 10139 OM OM1 10139 -0.550000 15.99940
10140 OM 10140 OM OM1 10140 -0.550000 15.99940
10141 OM 10141 OM OM1 10141 -0.550000 15.99940
10142 OM 10142 OM OM1 10142 -0.550000 15.99940
10143 OM 10143 OM OM1 10143 -0.550000 15.99940
10144 OM 10144 OM OM1 10144 -0.550000 15.99940
10145 OM 10145 OM OM1 10145 -0.550000 15.99940
10146 OM 10146 OM OM1 10146 -0.550000 15.99940
10147 OM 10147 OM OM1 10147 -0.550000 15.99940
10148 OM 10148 OM OM1 10148 -0.550000 15.99940
10149 OM 10149 OM OM1 10149 -0.550000 15.99940
10150 OM 10150 OM OM1 10150 -0.550000 15.99940
10151 OM 10151 OM OM1 10151 -0.550000 15.99940
10152 OM 10152 OM OM1 10152 -0.550000 15.99940
10153 OM 10153 OM OM1 10153 -0.550000 15.99940
10154 OM 10154 OM OM1 10154 -0.550000 15.99940
10155 OM 10155 OM OM1 10155 -0.550000 15.99940
10156 OM 10156 OM OM1 10156 -0.550000 15.99940
10157 OM 10157 OM OM1 10157 -0.550000 15.99940
10158 OM 10158 OM OM1 10158 -0.550000 15.99940
10159 OM 10159 OM OM1 10159 -0.550000 15.99940
10160 OM 10160 OM OM1 10160 -0.550000 15.99940
10161 OM 10161 OM OM1 10161 -0.550000 15.99940
10162 OM 10162 OM OM1 10162 -0.550000 15.99940
10163 OM 10163 OM OM1 10163 -0.550000 15.99940
10164 OM 10164 OM OM1 10164 -0.550000 15.99940
10165 OM 10165 OM OM1 10165 -0.550000 15.99940
10166 OM 10166 OM OM1 10166 -0.550000 15.99940
10167 OM 10167 OM OM1 10167 -0.550000 15.99940
10168 OM 10168 OM OM1 10168 -0.550000 15.99940
10169 OM 10169 OM OM1 10169 -0.550000 15.99940
10170 OM 10170 OM OM1 10170 -0.550000 15.99940
10171 OM 10171 OM OM1 10171 -0.550000 15.99940
10172 OM 10172 OM OM1 10172 -0.550000 15.99940
10173 OM 10173 OM OM1 10173 -0.550000 15.99940
10174 OM 10174 OM OM1 10174 -0.550000 15.99940
10175 OM 10175 OM OM1 10175 -0.550000 15.99940
10176 OM 10176 OM OM1 10176 -0.550000 15.99940
10177 OM 10177 OM OM1 10177 -0.550000 15.99940
10178 OM 10178 OM OM1 10178 -0.550000 15.99940
10179 OM 10179 OM OM1 10179 -0.550000 15.99940
10180 OM 10180 OM OM1 10180 -0.550000 15.99940
10181 OM 10181 OM OM1 10181 -0.550000 15.99940
10182 OM 10182 OM OM1 10182 -0.550000 15.99940
10183 OM 10183 OM OM1 10183 -0.550000 15.99940
10184 OM 10184 OM OM1 10184 -0.550000 15.99940
10185 OM 10185 OM OM1 10185 -0.550000 15.99940
10186 OM 10186 OM OM1 10186 -0.550000 15.99940
10187 OM 10187 OM OM1 10187 -0.550000 15.99940
10188 OM 10188 OM OM1 10188 -0.550000 15.99940
10189 OM 10189 OM OM1 10189 -0.550000 15.99940
10190 OM 10190 OM OM1 10190 -0.550000 15.99940
10191 OM 10191 OM OM1 10191 -0.550000 15.99940
10192 OM 10192 OM OM1 10192 -0.550000 15.99940
10193 OM 10193 OM OM1 10193 -0.550000 15.99940
10194 OM 10194 OM OM1 10194 -0.550000 15.99940
10195 OM 10195 OM OM1 10195 -0.550000 15.99940
10196 OM 10196 OM OM1 10196 -0.550000 15.99940
10197 OM 10197 OM OM1 10197 -0.550000 15.99940
10198 OM 10198 OM OM1 10198 -0.550000 15.99940
10199 OM 10199 OM OM1 10199 -0.550000 15.99940
10200 OM 10200 OM OM1 10200 -0.550000 15.99940
10201 OM 10201 OM OM1 10201 -0.550000 15.99940
10202 OM 10202 OM OM1 10202 -0.550000 15.99940
10203 OM 10203 OM OM1 10203 -0.550000 15.99940
10204 OM 10204 OM OM1 10204 -0.550000 15.99940
10205 OM 10205 OM OM1 10205 -0.550000 15.99940
10206 OM 10206 OM OM1 10206 -0.550000 15.99940
10207 OM 10207 OM OM1 10207 -0.550000 15.99940
10208 OM 10208 OM OM1 10208 -0.550000 15.99940
10209 OM 10209 OM OM1 10209 -0.550000 15.99940
10210 OM 10210 OM OM1 10210 -0.550000 15.99940
10211 OM 10211 OM OM1 10211 -0.550000 15.99940
10212 OM 10212 OM OM1 10212 -0.550000 15.99940
10213 OM 10213 OM OM1 10213 -0.550000 15.99940
10214 OM 10214 OM OM1 10214 -0.550000 15.99940
10215 OM 10215 OM OM1 10215 -0.550000 15.99940
10216 OM 10216 OM OM1 10216 -0.550000 15.99940
10217 OM 10217 OM OM1 10217 -0.550000 15.99940
10218 OM 10218 OM OM1 10218 -0.550000 15.99940
10219 OM 10219 OM OM1 10219 -0.550000 15.99940
10220 OM 10220 OM OM1 10220 -0.550000 15.99940
10221 OM 10221 OM OM1 10221 -0.550000 15.99940
10222 OM 10222 OM OM1 10222 -0.550000 15.99940
10223 OM 10223 OM OM1 10223 -0.550000 15.99940
10224 OM 10224 OM OM1 10224 -0.550000 15.99940
10225 OM 10225 OM OM1 10225 -0.550000 15.99940
10226 OM 10226 OM OM1 10226 -0.550000 15.99940
10227 OM 10227 OM OM1 10227 -0.550000 15.99940
10228 OM 10228 OM OM1 10228 -0.550000 15.99940
10229 OM 10229 OM OM1 10229 -0.550000 15.99940
10230 OM 10230 OM OM1 10230 -0.550000 15.99940
10231 OM 10231 OM OM1 10231 -0.550000 15.99940
10232 OM 10232 OM OM1 10232 -0.550000 15.99940
10233 OM 10233 OM OM1 10233 -0.550000 15.99940
10234 OM 10234 OM OM1 10234 -0.550000 15.99940
10235 OM 10235 OM OM1 10235 -0.550000 15.99940
10236 OM 10236 OM OM1 10236 -0.550000 15.99940
10237 OM 10237 OM OM1 10237 -0.550000 15.99940
10238 OM 10238 OM OM1 10238 -0.550000 15.99940
10239 OM 10239 OM OM1 10239 -0.550000 15.99940
10240 OM 10240 OM OM1 10240 -0.550000 15.99940
10241 OM 10241 OM OM1 10241 -0.550000 15.99940
10242 OM 10242 OM OM1 10242 -0.550000 15.99940
10243 OM 10243 OM OM1 10243 -0.550000 15.99940
10244 OM 10244 OM OM1 10244 -0.550000 15.99940
10245 OM 10245 OM OM1 10245 -0.550000 15.99940
10246 OM 10246 OM OM1 10246 -0.550000 15.99940
10247 OM 10247 OM OM1 10247 -0.550000 15.99940
10248 OM 10248 OM OM1 10248 -0.550000 15.99940
10249 OM 10249 OM OM1 10249 -0.550000 15.99940
10250 OM 10250 OM OM1 10250 -0.550000 15.99940
10251 OM 10251 OM OM1 10251 -0.550000 15.99940
10252 OM 10252 OM OM1 10252 -0.550000 15.99940
10253 OM 10253 OM OM1 10253 -0.550000 15.99940
10254 OM 10254 OM OM1 10254 -0.550000 15.99940
10255 OM 10255 OM OM1 10255 -0.550000 15.99940
10256 OM 10256 OM OM1 10256 -0.550000 15.99940
10257 OM 10257 OM OM1 10257 -0.550000 15.99940
10258 OM 10258 OM OM1 10258 -0.550000 15.99940
10259 OM 10259 OM OM1 10259 -0.550000 15.99940
10260 OM 10260 OM OM1 10260 -0.550000 15.99940
10261 OM 10261 OM OM1 10261 -0.550000 15.99940
10262 OM 10262 OM OM1 10262 -0.550000 15.99940
10263 OM 10263 OM OM1 10263 -0.550000 15.99940
10264 OM 10264 OM OM1 10264 -0.550000 15.99940
10265 OM 10265 OM OM1 10265 -0.550000 15.99940
10266 OM 10266 OM OM1 10266 -0.550000 15.99940
10267 OM 10267 OM OM1 10267 -0.550000 15.99940
10268 OM 10268 OM OM1 10268 -0.550000 15.99940
10269 OM 10269 OM OM1 10269 -0.550000 15.99940
10270 OM 10270 OM OM1 10270 -0.550000 15.99940
10271 OM 10271 OM OM1 10271 -0.550000 15.99940
10272 OM 10272 OM OM1 10272 -0.550000 15.99940
10273 OM 10273 OM OM1 10273 -0.550000 15.99940
10274 OM 10274 OM OM1 10274 -0.550000 15.99940
10275 OM 10275 OM OM1 10275 -0.550000 15.99940
10276 OM 10276 OM OM1 10276 -0.550000 15.99940
10277 OM 10277 OM OM1 10277 -0.550000 15.99940
10278 OM 10278 OM OM1 10278 -0.550000 15.99940
10279 OM 10279 OM OM1 10279 -0.550000 15.99940
10280 OM 10280 OM OM1 10280 -0.550000 15.99940
10281 OM 10281 OM OM1 10281 -0.550000 15.99940
10282 OM 10282 OM OM1 10282 -0.550000 15.99940
10283 OM 10283 OM OM1 10283 -0.550000 15.99940
10284 OM 10284 OM OM1 10284 -0.550000 15.99940
10285 OM 10285 OM OM1 10285 -0.550000 15.99940
10286 OM 10286 OM OM1 10286 -0.550000 15.99940
10287 OM 10287 OM OM1 10287 -0.550000 15.99940
10288 OM 10288 OM OM1 10288 -0.550000 15.99940
10289 OM 10289 OM OM1 10289 -0.550000 15.99940
10290 OM 10290 OM OM1 10290 -0.550000 15.99940
10291 OM 10291 OM OM1 10291 -0.550000 15.99940
10292 OM 10292 OM OM1 10292 -0.550000 15.99940
10293 OM 10293 OM OM1 10293 -0.550000 15.99940
10294 OM 10294 OM OM1 10294 -0.550000 15.99940
10295 OM 10295 OM OM1 10295 -0.550000 15.99940
10296 OM 10296 OM OM1 10296 -0.550000 15.99940
10297 OM 10297 OM OM1 10297 -0.550000 15.99940
10298 OM 10298 OM OM1 10298 -0.550000 15.99940
10299 OM 10299 OM OM1 10299 -0.550000 15.99940
10300 OM 10300 OM OM1 10300 -0.550000 15.99940
10301 OM 10301 OM OM1 10301 -0.550000 15.99940
10302 OM 10302 OM OM1 10302 -0.550000 15.99940
10303 OM 10303 OM OM1 10303 -0.550000 15.99940
10304 OM 10304 OM OM1 10304 -0.550000 15.99940
10305 OM 10305 OM OM1 10305 -0.550000 15.99940
10306 OM 10306 OM OM1 10306 -0.550000 15.99940
10307 OM 10307 OM OM1 10307 -0.550000 15.99940
10308 OM 10308 OM OM1 10308 -0.550000 15.99940
10309 OM 10309 OM OM1 10309 -0.550000 15.99940
10310 OM 10310 OM OM1 10310 -0.550000 15.99940
10311 OM 10311 OM OM1 10311 -0.550000 15.99940
10312 OM 10312 OM OM1 10312 -0.550000 15.99940
10313 OM 10313 OM OM1 10313 -0.550000 15.99940
10314 OM 10314 OM OM1 10314 -0.550000 15.99940
10315 OM 10315 OM OM1 10315 -0.550000 15.99940
10316 OM 10316 OM OM1 10316 -0.550000 15.99940
10317 OM 10317 OM OM1 10317 -0.550000 15.99940
10318 OM 10318 OM OM1 10318 -0.550000 15.99940
10319 OM 10319 OM OM1 10319 -0.550000 15.99940
10320 OM 10320 OM OM1 10320 -0.550000 15.99940
10321 OM 10321 OM OM1 10321 -0.550000 15.99940
10322 OM 10322 OM OM1 10322 -0.550000 15.99940
10323 OM 10323 OM OM1 10323 -0.550000 15.99940
10324 OM 10324 OM OM1 10324 -0.550000 15.99940
10325 OM 10325 OM OM1 10325 -0.550000 15.99940
10326 OM 10326 OM OM1 10326 -0.550000 15.99940
10327 OM 10327 OM OM1 10327 -0.550000 15.99940
10328 OM 10328 OM OM1 10328 -0.550000 15.99940
10329 OM 10329 OM OM1 10329 -0.550000 15.99940
10330 OM 10330 OM OM1 10330 -0.550000 15.99940
10331 OM 10331 OM OM1 10331 -0.550000 15.99940
10332 OM 10332 OM OM1 10332 -0.550000 15.99940
10333 OM 10333 OM OM1 10333 -0.550000 15.99940
10334 OM 10334 OM OM1 10334 -0.550000 15.99940
10335 OM 10335 OM OM1 10335 -0.550000 15.99940
10336 OM 10336 OM OM1 10336 -0.550000 15.99940
10337 OM 10337 OM OM1 10337 -0.550000 15.99940
10338 OM 10338 OM OM1 10338 -0.550000 15.99940
10339 OM 10339 OM OM1 10339 -0.550000 15.99940
10340 OM 10340 OM OM1 10340 -0.550000 15.99940
10341 OM 10341 OM OM1 10341 -0.550000 15.99940
10342 OM 10342 OM OM1 10342 -0.550000 15.99940
10343 OM 10343 OM OM1 10343 -0.550000 15.99940
10344 OM 10344 OM OM1 10344 -0.550000 15.99940
10345 OM 10345 OM OM1 10345 -0.550000 15.99940
10346 OM 10346 OM OM1 10346 -0.550000 15.99940
10347 OM 10347 OM OM1 10347 -0.550000 15.99940
10348 OM 10348 OM OM1 10348 -0.550000 15.99940
10349 OM 10349 OM OM1 10349 -0.550000 15.99940
10350 OM 10350 OM OM1 10350 -0.550000 15.99940
10351 OM 10351 OM OM1 10351 -0.550000 15.99940
10352 OM 10352 OM OM1 10352 -0.550000 15.99940
10353 OM 10353 OM OM1 10353 -0.550000 15.99940
10354 OM 10354 OM OM1 10354 -0.550000 15.99940
10355 OM 10355 OM OM1 10355 -0.550000 15.99940
10356 OM 10356 OM OM1 10356 -0.550000 15.99940
10357 OM 10357 OM OM1 10357 -0.550000 15.99940
10358 OM 10358 OM OM1 10358 -0.550000 15.99940
10359 OM 10359 OM OM1 10359 -0.550000 15.99940
10360 OM 10360 OM OM1 10360 -0.550000 15.99940
10361 OM 10361 OM OM1 10361 -0.550000 15.99940
10362 OM 10362 OM OM1 10362 -0.550000 15.99940
10363 OM 10363 OM OM1 10363 -0.550000 15.99940
10364 OM 10364 OM OM1 10364 -0.550000 15.99940
10365 OM 10365 OM OM1 10365 -0.550000 15.99940
10366 OM 10366 OM OM1 10366 -0.550000 15.99940
10367 OM 10367 OM OM1 10367 -0.550000 15.99940
10368 OM 10368 OM OM1 10368 -0.550000 15.99940
10369 OM 10369 OM OM1 10369 -0.550000 15.99940
10370 OM 10370 OM OM1 10370 -0.550000 15.99940
10371 OM 10371 OM OM1 10371 -0.550000 15.99940
10372 OM 10372 OM OM1 10372 -0.550000 15.99940
10373 OM 10373 OM OM1 10373 -0.550000 15.99940
10374 OM 10374 OM OM1 10374 -0.550000 15.99940
10375 OM 10375 OM OM1 10375 -0.550000 15.99940
10376 OM 10376 OM OM1 10376 -0.550000 15.99940
10377 OM 10377 OM OM1 10377 -0.550000 15.99940
10378 OM 10378 OM OM1 10378 -0.550000 15.99940
10379 OM 10379 OM OM1 10379 -0.550000 15.99940
10380 OM 10380 OM OM1 10380 -0.550000 15.99940
10381 OM 10381 OM OM1 10381 -0.550000 15.99940
10382 OM 10382 OM OM1 10382 -0.550000 15.99940
10383 OM 10383 OM OM1 10383 -0.550000 15.99940
10384 OM 10384 OM OM1 10384 -0.550000 15.99940
10385 OM 10385 OM OM1 10385 -0.550000 15.99940
10386 OM 10386 OM OM1 10386 -0.550000 15.99940
10387 OM 10387 OM OM1 10387 -0.550000 15.99940
10388 OM 10388 OM OM1 10388 -0.550000 15.99940
10389 OM 10389 OM OM1 10389 -0.550000 15.99940
10390 OM 10390 OM OM1 10390 -0.550000 15.99940
10391 OM 10391 OM OM1 10391 -0.550000 15.99940
10392 OM 10392 OM OM1 10392 -0.550000 15.99940
10393 OM 10393 OM OM1 10393 -0.550000 15.99940
10394 OM 10394 OM OM1 10394 -0.550000 15.99940
10395 OM 10395 OM OM1 10395 -0.550000 15.99940
10396 OM 10396 OM OM1 10396 -0.550000 15.99940
10397 OM 10397 OM OM1 10397 -0.550000 15.99940
10398 OM 10398 OM OM1 10398 -0.550000 15.99940
10399 OM 10399 OM OM1 10399 -0.550000 15.99940
10400 OM 10400 OM OM1 10400 -0.550000 15.99940
10401 OM 10401 OM OM1 10401 -0.550000 15.99940
10402 OM 10402 OM OM1 10402 -0.550000 15.99940
10403 OM 10403 OM OM1 10403 -0.550000 15.99940
10404 OM 10404 OM OM1 10404 -0.550000 15.99940
10405 OM 10405 OM OM1 10405 -0.550000 15.99940
10406 OM 10406 OM OM1 10406 -0.550000 15.99940
10407 OM 10407 OM OM1 10407 -0.550000 15.99940
10408 OM 10408 OM OM1 10408 -0.550000 15.99940
10409 OM 10409 OM OM1 10409 -0.550000 15.99940
10410 OM 10410 OM OM1 10410 -0.550000 15.99940
10411 OM 10411 OM OM1 10411 -0.550000 15.99940
10412 OM 10412 OM OM1 10412 -0.550000 15.99940
10413 OM 10413 OM OM1 10413 -0.550000 15.99940
10414 OM 10414 OM OM1 10414 -0.550000 15.99940
10415 OM 10415 OM OM1 10415 -0.550000 15.99940
10416 OM 10416 OM OM1 10416 -0.550000 15.99940
10417 OM 10417 OM OM1 10417 -0.550000 15.99940
10418 OM 10418 OM OM1 10418 -0.550000 15.99940
10419 OM 10419 OM OM1 10419 -0.550000 15.99940
10420 OM 10420 OM OM1 10420 -0.550000 15.99940
10421 OM 10421 OM OM1 10421 -0.550000 15.99940
10422 OM 10422 OM OM1 10422 -0.550000 15.99940
10423 OM 10423 OM OM1 10423 -0.550000 15.99940
10424 OM 10424 OM OM1 10424 -0.550000 15.99940
10425 OM 10425 OM OM1 10425 -0.550000 15.99940
10426 OM 10426 OM OM1 10426 -0.550000 15.99940
10427 OM 10427 OM OM1 10427 -0.550000 15.99940
10428 OM 10428 OM OM1 10428 -0.550000 15.99940
10429 OM 10429 OM OM1 10429 -0.550000 15.99940
10430 OM 10430 OM OM1 10430 -0.550000 15.99940
10431 OM 10431 OM OM1 10431 -0.550000 15.99940
10432 OM 10432 OM OM1 10432 -0.550000 15.99940
10433 OM 10433 OM OM1 10433 -0.550000 15.99940
10434 OM 10434 OM OM1 10434 -0.550000 15.99940
10435 OM 10435 OM OM1 10435 -0.550000 15.99940
10436 OM 10436 OM OM1 10436 -0.550000 15.99940
10437 OM 10437 OM OM1 10437 -0.550000 15.99940
10438 OM 10438 OM OM1 10438 -0.550000 15.99940
10439 OM 10439 OM OM1 10439 -0.550000 15.99940
10440 OM 10440 OM OM1 10440 -0.550000 15.99940
10441 OM 10441 OM OM1 10441 -0.550000 15.99940
10442 OM 10442 OM OM1 10442 -0.550000 15.99940
10443 OM 10443 OM OM1 10443 -0.550000 15.99940
10444 OM 10444 OM OM1 10444 -0.550000 15.99940
10445 OM 10445 OM OM1 10445 -0.550000 15.99940
10446 OM 10446 OM OM1 10446 -0.550000 15.99940
10447 OM 10447 OM OM1 10447 -0.550000 15.99940
10448 OM 10448 OM OM1 10448 -0.550000 15.99940
10449 OM 10449 OM OM1 10449 -0.550000 15.99940
10450 OM 10450 OM OM1 10450 -0.550000 15.99940
10451 OM 10451 OM OM1 10451 -0.550000 15.99940
10452 OM 10452 OM OM1 10452 -0.550000 15.99940
10453 OM 10453 OM OM1 10453 -0.550000 15.99940
10454 OM 10454 OM OM1 10454 -0.550000 15.99940
10455 OM 10455 OM OM1 10455 -0.550000 15.99940
10456 OM 10456 OM OM1 10456 -0.550000 15.99940
10457 OM 10457 OM OM1 10457 -0.550000 15.99940
10458 OM 10458 OM OM1 10458 -0.550000 15.99940
10459 OM 10459 OM OM1 10459 -0.550000 15.99940
10460 OM 10460 OM OM1 10460 -0.550000 15.99940
10461 OM 10461 OM OM1 10461 -0.550000 15.99940
10462 OM 10462 OM OM1 10462 -0.550000 15.99940
10463 OM 10463 OM OM1 10463 -0.550000 15.99940
10464 OM 10464 OM OM1 10464 -0.550000 15.99940
10465 OM 10465 OM OM1 10465 -0.550000 15.99940
10466 OM 10466 OM OM1 10466 -0.550000 15.99940
10467 OM 10467 OM OM1 10467 -0.550000 15.99940
10468 OM 10468 OM OM1 10468 -0.550000 15.99940
10469 OM 10469 OM OM1 10469 -0.550000 15.99940
10470 OM 10470 OM OM1 10470 -0.550000 15.99940
10471 OM 10471 OM OM1 10471 -0.550000 15.99940
10472 OM 10472 OM OM1 10472 -0.550000 15.99940
10473 OM 10473 OM OM1 10473 -0.550000 15.99940
10474 OM 10474 OM OM1 10474 -0.550000 15.99940
10475 OM 10475 OM OM1 10475 -0.550000 15.99940
10476 OM 10476 OM OM1 10476 -0.550000 15.99940
10477 OM 10477 OM OM1 10477 -0.550000 15.99940
10478 OM 10478 OM OM1 10478 -0.550000 15.99940
10479 OM 10479 OM OM1 10479 -0.550000 15.99940
10480 OM 10480 OM OM1 10480 -0.550000 15.99940
10481 OM 10481 OM OM1 10481 -0.550000 15.99940
10482 OM 10482 OM OM1 10482 -0.550000 15.99940
10483 OM 10483 OM OM1 10483 -0.550000 15.99940
10484 OM 10484 OM OM1 10484 -0.550000 15.99940
10485 OM 10485 OM OM1 10485 -0.550000 15.99940
10486 OM 10486 OM OM1 10486 -0.550000 15.99940
10487 OM 10487 OM OM1 10487 -0.550000 15.99940
10488 OM 10488 OM OM1 10488 -0.550000 15.99940
10489 OM 10489 OM OM1 10489 -0.550000 15.99940
10490 OM 10490 OM OM1 10490 -0.550000 15.99940
10491 OM 10491 OM OM1 10491 -0.550000 15.99940
10492 OM 10492 OM OM1 10492 -0.550000 15.99940
10493 OM 10493 OM OM1 10493 -0.550000 15.99940
10494 OM 10494 OM OM1 10494 -0.550000 15.99940
10495 OM 10495 OM OM1 10495 -0.550000 15.99940
10496 OM 10496 OM OM1 10496 -0.550000 15.99940
10497 OM 10497 OM OM1 10497 -0.550000 15.99940
10498 OM 10498 OM OM1 10498 -0.550000 15.99940
10499 OM 10499 OM OM1 10499 -0.550000 15.99940
10500 OM 10500 OM OM1 10500 -0.550000 15.99940
10501 OM 10501 OM OM1 10501 -0.550000 15.99940
10502 OM 10502 OM OM1 10502 -0.550000 15.99940
10503 OM 10503 OM OM1 10503 -0.550000 15.99940
10504 OM 10504 OM OM1 10504 -0.550000 15.99940
10505 OM 10505 OM OM1 10505 -0.550000 15.99940
10506 OM 10506 OM OM1 10506 -0.550000 15.99940
10507 OM 10507 OM OM1 10507 -0.550000 15.99940
10508 OM 10508 OM OM1 10508 -0.550000 15.99940
10509 OM 10509 OM OM1 10509 -0.550000 15.99940
10510 OM 10510 OM OM1 10510 -0.550000 15.99940
10511 OM 10511 OM OM1 10511 -0.550000 15.99940
10512 OM 10512 OM OM1 10512 -0.550000 15.99940
10513 OM 10513 OM OM1 10513 -0.550000 15.99940
10514 OM 10514 OM OM1 10514 -0.550000 15.99940
10515 OM 10515 OM OM1 10515 -0.550000 15.99940
10516 OM 10516 OM OM1 10516 -0.550000 15.99940
10517 OM 10517 OM OM1 10517 -0.550000 15.99940
10518 OM 10518 OM OM1 10518 -0.550000 15.99940
10519 OM 10519 OM OM1 10519 -0.550000 15.99940
10520 OM 10520 OM OM1 10520 -0.550000 15.99940
10521 OM 10521 OM OM1 10521 -0.550000 15.99940
10522 OM 10522 OM OM1 10522 -0.550000 15.99940
10523 OM 10523 OM OM1 10523 -0.550000 15.99940
10524 OM 10524 OM OM1 10524 -0.550000 15.99940
10525 OM 10525 OM OM1 10525 -0.550000 15.99940
10526 OM 10526 OM OM1 10526 -0.550000 15.99940
10527 OM 10527 OM OM1 10527 -0.550000 15.99940
10528 OM 10528 OM OM1 10528 -0.550000 15.99940
10529 OM 10529 OM OM1 10529 -0.550000 15.99940
10530 OM 10530 OM OM1 10530 -0.550000 15.99940
10531 OM 10531 OM OM1 10531 -0.550000 15.99940
10532 OM 10532 OM OM1 10532 -0.550000 15.99940
10533 OM 10533 OM OM1 10533 -0.550000 15.99940
10534 OM 10534 OM OM1 10534 -0.550000 15.99940
10535 OM 10535 OM OM1 10535 -0.550000 15.99940
10536 OM 10536 OM OM1 10536 -0.550000 15.99940
10537 OM 10537 OM OM1 10537 -0.550000 15.99940
10538 OM 10538 OM OM1 10538 -0.550000 15.99940
10539 OM 10539 OM OM1 10539 -0.550000 15.99940
10540 OM 10540 OM OM1 10540 -0.550000 15.99940
10541 OM 10541 OM OM1 10541 -0.550000 15.99940
10542 OM 10542 OM OM1 10542 -0.550000 15.99940
10543 OM 10543 OM OM1 10543 -0.550000 15.99940
10544 OM 10544 OM OM1 10544 -0.550000 15.99940
10545 OM 10545 OM OM1 10545 -0.550000 15.99940
10546 OM 10546 OM OM1 10546 -0.550000 15.99940
10547 OM 10547 OM OM1 10547 -0.550000 15.99940
10548 OM 10548 OM OM1 10548 -0.550000 15.99940
10549 OM 10549 OM OM1 10549 -0.550000 15.99940
10550 OM 10550 OM OM1 10550 -0.550000 15.99940
10551 OM 10551 OM OM1 10551 -0.550000 15.99940
10552 OM 10552 OM OM1 10552 -0.550000 15.99940
10553 OM 10553 OM OM1 10553 -0.550000 15.99940
10554 OM 10554 OM OM1 10554 -0.550000 15.99940
10555 OM 10555 OM OM1 10555 -0.550000 15.99940
10556 OM 10556 OM OM1 10556 -0.550000 15.99940
10557 OM 10557 OM OM1 10557 -0.550000 15.99940
10558 OM 10558 OM OM1 10558 -0.550000 15.99940
10559 OM 10559 OM OM1 10559 -0.550000 15.99940
10560 OM 10560 OM OM1 10560 -0.550000 15.99940
10561 OM 10561 OM OM1 10561 -0.550000 15.99940
10562 OM 10562 OM OM1 10562 -0.550000 15.99940
10563 OM 10563 OM OM1 10563 -0.550000 15.99940
10564 OM 10564 OM OM1 10564 -0.550000 15.99940
10565 OM 10565 OM OM1 10565 -0.550000 15.99940
10566 OM 10566 OM OM1 10566 -0.550000 15.99940
10567 OM 10567 OM OM1 10567 -0.550000 15.99940
10568 OM 10568 OM OM1 10568 -0.550000 15.99940
10569 OM 10569 OM OM1 10569 -0.550000 15.99940
10570 OM 10570 OM OM1 10570 -0.550000 15.99940
10571 OM 10571 OM OM1 10571 -0.550000 15.99940
10572 OM 10572 OM OM1 10572 -0.550000 15.99940
10573 OM 10573 OM OM1 10573 -0.550000 15.99940
10574 OM 10574 OM OM1 10574 -0.550000 15.99940
10575 OM 10575 OM OM1 10575 -0.550000 15.99940
10576 OM 10576 OM OM1 10576 -0.550000 15.99940
10577 OM 10577 OM OM1 10577 -0.550000 15.99940
10578 OM 10578 OM OM1 10578 -0.550000 15.99940
10579 OM 10579 OM OM1 10579 -0.550000 15.99940
10580 OM 10580 OM OM1 10580 -0.550000 15.99940
10581 OM 10581 OM OM1 10581 -0.550000 15.99940
10582 OM 10582 OM OM1 10582 -0.550000 15.99940
10583 OM 10583 OM OM1 10583 -0.550000 15.99940
10584 OM 10584 OM OM1 10584 -0.550000 15.99940
10585 OM 10585 OM OM1 10585 -0.550000 15.99940
10586 OM 10586 OM OM1 10586 -0.550000 15.99940
10587 OM 10587 OM OM1 10587 -0.550000 15.99940
10588 OM 10588 OM OM1 10588 -0.550000 15.99940
10589 OM 10589 OM OM1 10589 -0.550000 15.99940
10590 OM 10590 OM OM1 10590 -0.550000 15.99940
10591 OM 10591 OM OM1 10591 -0.550000 15.99940
10592 OM 10592 OM OM1 10592 -0.550000 15.99940
10593 OM 10593 OM OM1 10593 -0.550000 15.99940
10594 OM 10594 OM OM1 10594 -0.550000 15.99940
10595 OM 10595 OM OM1 10595 -0.550000 15.99940
10596 OM 10596 OM OM1 10596 -0.550000 15.99940
10597 OM 10597 OM OM1 10597 -0.550000 15.99940
10598 OM 10598 OM OM1 10598 -0.550000 15.99940
10599 OM 10599 OM OM1 10599 -0.550000 15.99940
10600 OM 10600 OM OM1 10600 -0.550000 15.99940
10601 OM 10601 OM OM1 10601 -0.550000 15.99940
10602 OM 10602 OM OM1 10602 -0.550000 15.99940
10603 OM 10603 OM OM1 10603 -0.550000 15.99940
10604 OM 10604 OM OM1 10604 -0.550000 15.99940
10605 OM 10605 OM OM1 10605 -0.550000 15.99940
10606 OM 10606 OM OM1 10606 -0.550000 15.99940
10607 OM 10607 OM OM1 10607 -0.550000 15.99940
10608 OM 10608 OM OM1 10608 -0.550000 15.99940
10609 OM 10609 OM OM1 10609 -0.550000 15.99940
10610 OM 10610 OM OM1 10610 -0.550000 15.99940
10611 OM 10611 OM OM1 10611 -0.550000 15.99940
10612 OM 10612 OM OM1 10612 -0.550000 15.99940
10613 OM 10613 OM OM1 10613 -0.550000 15.99940
10614 OM 10614 OM OM1 10614 -0.550000 15.99940
10615 OM 10615 OM OM1 10615 -0.550000 15.99940
10616 OM 10616 OM OM1 10616 -0.550000 15.99940
10617 OM 10617 OM OM1 10617 -0.550000 15.99940
10618 OM 10618 OM OM1 10618 -0.550000 15.99940
10619 OM 10619 OM OM1 10619 -0.550000 15.99940
10620 OM 10620 OM OM1 10620 -0.550000 15.99940
10621 OM 10621 OM OM1 10621 -0.550000 15.99940
10622 OM 10622 OM OM1 10622 -0.550000 15.99940
10623 OM 10623 OM OM1 10623 -0.550000 15.99940
10624 OM 10624 OM OM1 10624 -0.550000 15.99940
10625 OM 10625 OM OM1 10625 -0.550000 15.99940
10626 OM 10626 OM OM1 10626 -0.550000 15.99940
10627 OM 10627 OM OM1 10627 -0.550000 15.99940
10628 OM 10628 OM OM1 10628 -0.550000 15.99940
10629 OM 10629 OM OM1 10629 -0.550000 15.99940
10630 OM 10630 OM OM1 10630 -0.550000 15.99940
10631 OM 10631 OM OM1 10631 -0.550000 15.99940
10632 OM 10632 OM OM1 10632 -0.550000 15.99940
10633 OM 10633 OM OM1 10633 -0.550000 15.99940
10634 OM 10634 OM OM1 10634 -0.550000 15.99940
10635 OM 10635 OM OM1 10635 -0.550000 15.99940
10636 OM 10636 OM OM1 10636 -0.550000 15.99940
10637 OM 10637 OM OM1 10637 -0.550000 15.99940
10638 OM 10638 OM OM1 10638 -0.550000 15.99940
10639 OM 10639 OM OM1 10639 -0.550000 15.99940
10640 OM 10640 OM OM1 10640 -0.550000 15.99940
10641 OM 10641 OM OM1 10641 -0.550000 15.99940
10642 OM 10642 OM OM1 10642 -0.550000 15.99940
10643 OM 10643 OM OM1 10643 -0.550000 15.99940
10644 OM 10644 OM OM1 10644 -0.550000 15.99940
10645 OM 10645 OM OM1 10645 -0.550000 15.99940
10646 OM 10646 OM OM1 10646 -0.550000 15.99940
10647 OM 10647 OM OM1 10647 -0.550000 15.99940
10648 OM 10648 OM OM1 10648 -0.550000 15.99940
10649 OM 10649 OM OM1 10649 -0.550000 15.99940
10650 OM 10650 OM OM1 10650 -0.550000 15.99940
10651 OM 10651 OM OM1 10651 -0.550000 15.99940
10652 OM 10652 OM OM1 10652 -0.550000 15.99940
10653 OM 10653 OM OM1 10653 -0.550000 15.99940
10654 OM 10654 OM OM1 10654 -0.550000 15.99940
10655 OM 10655 OM OM1 10655 -0.550000 15.99940
10656 OM 10656 OM OM1 10656 -0.550000 15.99940
10657 OM 10657 OM OM1 10657 -0.550000 15.99940
10658 OM 10658 OM OM1 10658 -0.550000 15.99940
10659 OM 10659 OM OM1 10659 -0.550000 15.99940
10660 OM 10660 OM OM1 10660 -0.550000 15.99940
10661 OM 10661 OM OM1 10661 -0.550000 15.99940
10662 OM 10662 OM OM1 10662 -0.550000 15.99940
10663 OM 10663 OM OM1 10663 -0.550000 15.99940
10664 OM 10664 OM OM1 10664 -0.550000 15.99940
10665 OM 10665 OM OM1 10665 -0.550000 15.99940
10666 OM 10666 OM OM1 10666 -0.550000 15.99940
10667 OM 10667 OM OM1 10667 -0.550000 15.99940
10668 OM 10668 OM OM1 10668 -0.550000 15.99940
10669 OM 10669 OM OM1 10669 -0.550000 15.99940
10670 OM 10670 OM OM1 10670 -0.550000 15.99940
10671 OM 10671 OM OM1 10671 -0.550000 15.99940
10672 OM 10672 OM OM1 10672 -0.550000 15.99940
10673 OM 10673 OM OM1 10673 -0.550000 15.99940
10674 OM 10674 OM OM1 10674 -0.550000 15.99940
10675 OM 10675 OM OM1 10675 -0.550000 15.99940
10676 OM 10676 OM OM1 10676 -0.550000 15.99940
10677 OM 10677 OM OM1 10677 -0.550000 15.99940
10678 OM 10678 OM OM1 10678 -0.550000 15.99940
10679 OM 10679 OM OM1 10679 -0.550000 15.99940
10680 OM 10680 OM OM1 10680 -0.550000 15.99940
10681 OM 10681 OM OM1 10681 -0.550000 15.99940
10682 OM 10682 OM OM1 10682 -0.550000 15.99940
10683 OM 10683 OM OM1 10683 -0.550000 15.99940
10684 OM 10684 OM OM1 10684 -0.550000 15.99940
10685 OM 10685 OM OM1 10685 -0.550000 15.99940
10686 OM 10686 OM OM1 10686 -0.550000 15.99940
10687 OM 10687 OM OM1 10687 -0.550000 15.99940
10688 OM 10688 OM OM1 10688 -0.550000 15.99940
10689 OM 10689 OM OM1 10689 -0.550000 15.99940
10690 OM 10690 OM OM1 10690 -0.550000 15.99940
10691 OM 10691 OM OM1 10691 -0.550000 15.99940
10692 OM 10692 OM OM1 10692 -0.550000 15.99940
10693 OM 10693 OM OM1 10693 -0.550000 15.99940
10694 OM 10694 OM OM1 10694 -0.550000 15.99940
10695 OM 10695 OM OM1 10695 -0.550000 15.99940
10696 OM 10696 OM OM1 10696 -0.550000 15.99940
10697 OM 10697 OM OM1 10697 -0.550000 15.99940
10698 OM 10698 OM OM1 10698 -0.550000 15.99940
10699 OM 10699 OM OM1 10699 -0.550000 15.99940
10700 OM 10700 OM OM1 10700 -0.550000 15.99940
10701 OM 10701 OM OM1 10701 -0.550000 15.99940
10702 OM 10702 OM OM1 10702 -0.550000 15.99940
10703 OM 10703 OM OM1 10703 -0.550000 15.99940
10704 OM 10704 OM OM1 10704 -0.550000 15.99940
10705 OM 10705 OM OM1 10705 -0.550000 15.99940
10706 OM 10706 OM OM1 10706 -0.550000 15.99940
10707 OM 10707 OM OM1 10707 -0.550000 15.99940
10708 OM 10708 OM OM1 10708 -0.550000 15.99940
10709 OM 10709 OM OM1 10709 -0.550000 15.99940
10710 OM 10710 OM OM1 10710 -0.550000 15.99940
10711 OM 10711 OM OM1 10711 -0.550000 15.99940
10712 OM 10712 OM OM1 10712 -0.550000 15.99940
10713 OM 10713 OM OM1 10713 -0.550000 15.99940
10714 OM 10714 OM OM1 10714 -0.550000 15.99940
10715 OM 10715 OM OM1 10715 -0.550000 15.99940
10716 OM 10716 OM OM1 10716 -0.550000 15.99940
10717 OM 10717 OM OM1 10717 -0.550000 15.99940
10718 OM 10718 OM OM1 10718 -0.550000 15.99940
10719 OM 10719 OM OM1 10719 -0.550000 15.99940
10720 OM 10720 OM OM1 10720 -0.550000 15.99940
10721 OM 10721 OM OM1 10721 -0.550000 15.99940
10722 OM 10722 OM OM1 10722 -0.550000 15.99940
10723 OM 10723 OM OM1 10723 -0.550000 15.99940
10724 OM 10724 OM OM1 10724 -0.550000 15.99940
10725 OM 10725 OM OM1 10725 -0.550000 15.99940
10726 OM 10726 OM OM1 10726 -0.550000 15.99940
10727 OM 10727 OM OM1 10727 -0.550000 15.99940
10728 OM 10728 OM OM1 10728 -0.550000 15.99940
10729 OM 10729 OM OM1 10729 -0.550000 15.99940
10730 OM 10730 OM OM1 10730 -0.550000 15.99940
10731 OM 10731 OM OM1 10731 -0.550000 15.99940
10732 OM 10732 OM OM1 10732 -0.550000 15.99940
10733 OM 10733 OM OM1 10733 -0.550000 15.99940
10734 OM 10734 OM OM1 10734 -0.550000 15.99940
10735 OM 10735 OM OM1 10735 -0.550000 15.99940
10736 OM 10736 OM OM1 10736 -0.550000 15.99940
10737 OM 10737 OM OM1 10737 -0.550000 15.99940
10738 OM 10738 OM OM1 10738 -0.550000 15.99940
10739 OM 10739 OM OM1 10739 -0.550000 15.99940
10740 OM 10740 OM OM1 10740 -0.550000 15.99940
10741 OM 10741 OM OM1 10741 -0.550000 15.99940
10742 OM 10742 OM OM1 10742 -0.550000 15.99940
10743 OM 10743 OM OM1 10743 -0.550000 15.99940
10744 OM 10744 OM OM1 10744 -0.550000 15.99940
10745 OM 10745 OM OM1 10745 -0.550000 15.99940
10746 OM 10746 OM OM1 10746 -0.550000 15.99940
10747 OM 10747 OM OM1 10747 -0.550000 15.99940
10748 OM 10748 OM OM1 10748 -0.550000 15.99940
10749 OM 10749 OM OM1 10749 -0.550000 15.99940
10750 OM 10750 OM OM1 10750 -0.550000 15.99940
10751 OM 10751 OM OM1 10751 -0.550000 15.99940
10752 OM 10752 OM OM1 10752 -0.550000 15.99940
10753 OM 10753 OM OM1 10753 -0.550000 15.99940
10754 OM 10754 OM OM1 10754 -0.550000 15.99940
10755 OM 10755 OM OM1 10755 -0.550000 15.99940
10756 OM 10756 OM OM1 10756 -0.550000 15.99940
10757 OM 10757 OM OM1 10757 -0.550000 15.99940
10758 OM 10758 OM OM1 10758 -0.550000 15.99940
10759 OM 10759 OM OM1 10759 -0.550000 15.99940
10760 OM 10760 OM OM1 10760 -0.550000 15.99940
10761 OM 10761 OM OM1 10761 -0.550000 15.99940
10762 OM 10762 OM OM1 10762 -0.550000 15.99940
10763 OM 10763 OM OM1 10763 -0.550000 15.99940
10764 OM 10764 OM OM1 10764 -0.550000 15.99940
10765 OM 10765 OM OM1 10765 -0.550000 15.99940
10766 OM 10766 OM OM1 10766 -0.550000 15.99940
10767 OM 10767 OM OM1 10767 -0.550000 15.99940
10768 OM 10768 OM OM1 10768 -0.550000 15.99940
10769 OM 10769 OM OM1 10769 -0.550000 15.99940
10770 OM 10770 OM OM1 10770 -0.550000 15.99940
10771 OM 10771 OM OM1 10771 -0.550000 15.99940
10772 OM 10772 OM OM1 10772 -0.550000 15.99940
10773 OM 10773 OM OM1 10773 -0.550000 15.99940
10774 OM 10774 OM OM1 10774 -0.550000 15.99940
10775 OM 10775 OM OM1 10775 -0.550000 15.99940
10776 OM 10776 OM OM1 10776 -0.550000 15.99940
10777 OM 10777 OM OM1 10777 -0.550000 15.99940
10778 OM 10778 OM OM1 10778 -0.550000 15.99940
10779 OM 10779 OM OM1 10779 -0.550000 15.99940
10780 OM 10780 OM OM1 10780 -0.550000 15.99940
10781 OM 10781 OM OM1 10781 -0.550000 15.99940
10782 OM 10782 OM OM1 10782 -0.550000 15.99940
10783 OM 10783 OM OM1 10783 -0.550000 15.99940
10784 OM 10784 OM OM1 10784 -0.550000 15.99940
10785 OM 10785 OM OM1 10785 -0.550000 15.99940
10786 OM 10786 OM OM1 10786 -0.550000 15.99940
10787 OM 10787 OM OM1 10787 -0.550000 15.99940
10788 OM 10788 OM OM1 10788 -0.550000 15.99940
10789 OM 10789 OM OM1 10789 -0.550000 15.99940
10790 OM 10790 OM OM1 10790 -0.550000 15.99940
10791 OM 10791 OM OM1 10791 -0.550000 15.99940
10792 OM 10792 OM OM1 10792 -0.550000 15.99940
10793 OM 10793 OM OM1 10793 -0.550000 15.99940
10794 OM 10794 OM OM1 10794 -0.550000 15.99940
10795 OM 10795 OM OM1 10795 -0.550000 15.99940
10796 OM 10796 OM OM1 10796 -0.550000 15.99940
10797 OM 10797 OM OM1 10797 -0.550000 15.99940
10798 OM 10798 OM OM1 10798 -0.550000 15.99940
10799 OM 10799 OM OM1 10799 -0.550000 15.99940
10800 OM 10800 OM OM1 10800 -0.550000 15.99940
10801 OM 10801 OM OM1 10801 -0.550000 15.99940
10802 OM 10802 OM OM1 10802 -0.550000 15.99940
10803 OM 10803 OM OM1 10803 -0.550000 15.99940
10804 OM 10804 OM OM1 10804 -0.550000 15.99940
10805 OM 10805 OM OM1 10805 -0.550000 15.99940
10806 OM 10806 OM OM1 10806 -0.550000 15.99940
10807 OM 10807 OM OM1 10807 -0.550000 15.99940
10808 OM 10808 OM OM1 10808 -0.550000 15.99940
10809 OM 10809 OM OM1 10809 -0.550000 15.99940
10810 OM 10810 OM OM1 10810 -0.550000 15.99940
10811 OM 10811 OM OM1 10811 -0.550000 15.99940
10812 OM 10812 OM OM1 10812 -0.550000 15.99940
10813 OM 10813 OM OM1 10813 -0.550000 15.99940
10814 OM 10814 OM OM1 10814 -0.550000 15.99940
10815 OM 10815 OM OM1 10815 -0.550000 15.99940
10816 OM 10816 OM OM1 10816 -0.550000 15.99940
10817 OM 10817 OM OM1 10817 -0.550000 15.99940
10818 OM 10818 OM OM1 10818 -0.550000 15.99940
10819 OM 10819 OM OM1 10819 -0.550000 15.99940
10820 OM 10820 OM OM1 10820 -0.550000 15.99940
10821 OM 10821 OM OM1 10821 -0.550000 15.99940
10822 OM 10822 OM OM1 10822 -0.550000 15.99940
10823 OM 10823 OM OM1 10823 -0.550000 15.99940
10824 OM 10824 OM OM1 10824 -0.550000 15.99940
10825 OM 10825 OM OM1 10825 -0.550000 15.99940
10826 OM 10826 OM OM1 10826 -0.550000 15.99940
10827 OM 10827 OM OM1 10827 -0.550000 15.99940
10828 OM 10828 OM OM1 10828 -0.550000 15.99940
10829 OM 10829 OM OM1 10829 -0.550000 15.99940
10830 OM 10830 OM OM1 10830 -0.550000 15.99940
10831 OM 10831 OM OM1 10831 -0.550000 15.99940
10832 OM 10832 OM OM1 10832 -0.550000 15.99940
10833 OM 10833 OM OM1 10833 -0.550000 15.99940
10834 OM 10834 OM OM1 10834 -0.550000 15.99940
10835 OM 10835 OM OM1 10835 -0.550000 15.99940
10836 OM 10836 OM OM1 10836 -0.550000 15.99940
10837 OM 10837 OM OM1 10837 -0.550000 15.99940
10838 OM 10838 OM OM1 10838 -0.550000 15.99940
10839 OM 10839 OM OM1 10839 -0.550000 15.99940
10840 OM 10840 OM OM1 10840 -0.550000 15.99940
10841 OM 10841 OM OM1 10841 -0.550000 15.99940
10842 OM 10842 OM OM1 10842 -0.550000 15.99940
10843 OM 10843 OM OM1 10843 -0.550000 15.99940
10844 OM 10844 OM OM1 10844 -0.550000 15.99940
10845 OM 10845 OM OM1 10845 -0.550000 15.99940
10846 OM 10846 OM OM1 10846 -0.550000 15.99940
10847 OM 10847 OM OM1 10847 -0.550000 15.99940
10848 OM 10848 OM OM1 10848 -0.550000 15.99940
10849 OM 10849 OM OM1 10849 -0.550000 15.99940
10850 OM 10850 OM OM1 10850 -0.550000 15.99940
10851 OM 10851 OM OM1 10851 -0.550000 15.99940
10852 OM 10852 OM OM1 10852 -0.550000 15.99940
10853 OM 10853 OM OM1 10853 -0.550000 15.99940
10854 OM 10854 OM OM1 10854 -0.550000 15.99940
10855 OM 10855 OM OM1 10855 -0.550000 15.99940
10856 OM 10856 OM OM1 10856 -0.550000 15.99940
10857 OM 10857 OM OM1 10857 -0.550000 15.99940
10858 OM 10858 OM OM1 10858 -0.550000 15.99940
10859 OM 10859 OM OM1 10859 -0.550000 15.99940
10860 OM 10860 OM OM1 10860 -0.550000 15.99940
10861 OM 10861 OM OM1 10861 -0.550000 15.99940
10862 OM 10862 OM OM1 10862 -0.550000 15.99940
10863 OM 10863 OM OM1 10863 -0.550000 15.99940
10864 OM 10864 OM OM1 10864 -0.550000 15.99940
10865 OM 10865 OM OM1 10865 -0.550000 15.99940
10866 OM 10866 OM OM1 10866 -0.550000 15.99940
10867 OM 10867 OM OM1 10867 -0.550000 15.99940
10868 OM 10868 OM OM1 10868 -0.550000 15.99940
10869 OM 10869 OM OM1 10869 -0.550000 15.99940
10870 OM 10870 OM OM1 10870 -0.550000 15.99940
10871 OM 10871 OM OM1 10871 -0.550000 15.99940
10872 OM 10872 OM OM1 10872 -0.550000 15.99940
10873 OM 10873 OM OM1 10873 -0.550000 15.99940
10874 OM 10874 OM OM1 10874 -0.550000 15.99940
10875 OM 10875 OM OM1 10875 -0.550000 15.99940
10876 OM 10876 OM OM1 10876 -0.550000 15.99940
10877 OM 10877 OM OM1 10877 -0.550000 15.99940
10878 OM 10878 OM OM1 10878 -0.550000 15.99940
10879 OM 10879 OM OM1 10879 -0.550000 15.99940
10880 OM 10880 OM OM1 10880 -0.550000 15.99940
10881 OM 10881 OM OM1 10881 -0.550000 15.99940
10882 OM 10882 OM OM1 10882 -0.550000 15.99940
10883 OM 10883 OM OM1 10883 -0.550000 15.99940
10884 OM 10884 OM OM1 10884 -0.550000 15.99940
10885 OM 10885 OM OM1 10885 -0.550000 15.99940
10886 OM 10886 OM OM1 10886 -0.550000 15.99940
10887 OM 10887 OM OM1 10887 -0.550000 15.99940
10888 OM 10888 OM OM1 10888 -0.550000 15.99940
10889 OM 10889 OM OM1 10889 -0.550000 15.99940
10890 OM 10890 OM OM1 10890 -0.550000 15.99940
10891 OM 10891 OM OM1 10891 -0.550000 15.99940
10892 OM 10892 OM OM1 10892 -0.550000 15.99940
10893 OM 10893 OM OM1 10893 -0.550000 15.99940
10894 OM 10894 OM OM1 10894 -0.550000 15.99940
10895 OM 10895 OM OM1 10895 -0.550000 15.99940
10896 OM 10896 OM OM1 10896 -0.550000 15.99940
10897 OM 10897 OM OM1 10897 -0.550000 15.99940
10898 OM 10898 OM OM1 10898 -0.550000 15.99940
10899 OM 10899 OM OM1 10899 -0.550000 15.99940
10900 OM 10900 OM OM1 10900 -0.550000 15.99940
10901 OM 10901 OM OM1 10901 -0.550000 15.99940
10902 OM 10902 OM OM1 10902 -0.550000 15.99940
10903 OM 10903 OM OM1 10903 -0.550000 15.99940
10904 OM 10904 OM OM1 10904 -0.550000 15.99940
10905 OM 10905 OM OM1 10905 -0.550000 15.99940
10906 OM 10906 OM OM1 10906 -0.550000 15.99940
10907 OM 10907 OM OM1 10907 -0.550000 15.99940
10908 OM 10908 OM OM1 10908 -0.550000 15.99940
10909 OM 10909 OM OM1 10909 -0.550000 15.99940
10910 OM 10910 OM OM1 10910 -0.550000 15.99940
10911 OM 10911 OM OM1 10911 -0.550000 15.99940
10912 OM 10912 OM OM1 10912 -0.550000 15.99940
10913 OM 10913 OM OM1 10913 -0.550000 15.99940
10914 OM 10914 OM OM1 10914 -0.550000 15.99940
10915 OM 10915 OM OM1 10915 -0.550000 15.99940
10916 OM 10916 OM OM1 10916 -0.550000 15.99940
10917 OM 10917 OM OM1 10917 -0.550000 15.99940
10918 OM 10918 OM OM1 10918 -0.550000 15.99940
10919 OM 10919 OM OM1 10919 -0.550000 15.99940
10920 OM 10920 OM OM1 10920 -0.550000 15.99940
10921 OM 10921 OM OM1 10921 -0.550000 15.99940
10922 OM 10922 OM OM1 10922 -0.550000 15.99940
10923 OM 10923 OM OM1 10923 -0.550000 15.99940
10924 OM 10924 OM OM1 10924 -0.550000 15.99940
10925 OM 10925 OM OM1 10925 -0.550000 15.99940
10926 OM 10926 OM OM1 10926 -0.550000 15.99940
10927 OM 10927 OM OM1 10927 -0.550000 15.99940
10928 OM 10928 OM OM1 10928 -0.550000 15.99940
10929 OM 10929 OM OM1 10929 -0.550000 15.99940
10930 OM 10930 OM OM1 10930 -0.550000 15.99940
10931 OM 10931 OM OM1 10931 -0.550000 15.99940
10932 OM 10932 OM OM1 10932 -0.550000 15.99940
10933 OM 10933 OM OM1 10933 -0.550000 15.99940
10934 OM 10934 OM OM1 10934 -0.550000 15.99940
10935 OM 10935 OM OM1 10935 -0.550000 15.99940
10936 OM 10936 OM OM1 10936 -0.550000 15.99940
10937 OM 10937 OM OM1 10937 -0.550000 15.99940
10938 OM 10938 OM OM1 10938 -0.550000 15.99940
10939 OM 10939 OM OM1 10939 -0.550000 15.99940
10940 OM 10940 OM OM1 10940 -0.550000 15.99940
10941 OM 10941 OM OM1 10941 -0.550000 15.99940
10942 OM 10942 OM OM1 10942 -0.550000 15.99940
10943 OM 10943 OM OM1 10943 -0.550000 15.99940
10944 OM 10944 OM OM1 10944 -0.550000 15.99940
10945 OM 10945 OM OM1 10945 -0.550000 15.99940
10946 OM 10946 OM OM1 10946 -0.550000 15.99940
10947 OM 10947 OM OM1 10947 -0.550000 15.99940
10948 OM 10948 OM OM1 10948 -0.550000 15.99940
10949 OM 10949 OM OM1 10949 -0.550000 15.99940
10950 OM 10950 OM OM1 10950 -0.550000 15.99940
10951 OM 10951 OM OM1 10951 -0.550000 15.99940
10952 OM 10952 OM OM1 10952 -0.550000 15.99940
10953 OM 10953 OM OM1 10953 -0.550000 15.99940
10954 OM 10954 OM OM1 10954 -0.550000 15.99940
10955 OM 10955 OM OM1 10955 -0.550000 15.99940
10956 OM 10956 OM OM1 10956 -0.550000 15.99940
10957 OM 10957 OM OM1 10957 -0.550000 15.99940
10958 OM 10958 OM OM1 10958 -0.550000 15.99940
10959 OM 10959 OM OM1 10959 -0.550000 15.99940
10960 OM 10960 OM OM1 10960 -0.550000 15.99940
10961 OM 10961 OM OM1 10961 -0.550000 15.99940
10962 OM 10962 OM OM1 10962 -0.550000 15.99940
10963 OM 10963 OM OM1 10963 -0.550000 15.99940
10964 OM 10964 OM OM1 10964 -0.550000 15.99940
10965 OM 10965 OM OM1 10965 -0.550000 15.99940
10966 OM 10966 OM OM1 10966 -0.550000 15.99940
10967 OM 10967 OM OM1 10967 -0.550000 15.99940
10968 OM 10968 OM OM1 10968 -0.550000 15.99940
10969 OM 10969 OM OM1 10969 -0.550000 15.99940
10970 OM 10970 OM OM1 10970 -0.550000 15.99940
10971 OM 10971 OM OM1 10971 -0.550000 15.99940
10972 OM 10972 OM OM1 10972 -0.550000 15.99940
10973 OM 10973 OM OM1 10973 -0.550000 15.99940
10974 OM 10974 OM OM1 10974 -0.550000 15.99940
10975 OM 10975 OM OM1 10975 -0.550000 15.99940
10976 OM 10976 OM OM1 10976 -0.550000 15.99940
10977 OM 10977 OM OM1 10977 -0.550000 15.99940
10978 OM 10978 OM OM1 10978 -0.550000 15.99940
10979 OM 10979 OM OM1 10979 -0.550000 15.99940
10980 OM 10980 OM OM1 10980 -0.550000 15.99940
10981 OM 10981 OM OM1 10981 -0.550000 15.99940
10982 OM 10982 OM OM1 10982 -0.550000 15.99940
10983 OM 10983 OM OM1 10983 -0.550000 15.99940
10984 OM 10984 OM OM1 10984 -0.550000 15.99940
10985 OM 10985 OM OM1 10985 -0.550000 15.99940
10986 OM 10986 OM OM1 10986 -0.550000 15.99940
10987 OM 10987 OM OM1 10987 -0.550000 15.99940
10988 OM 10988 OM OM1 10988 -0.550000 15.99940
10989 OM 10989 OM OM1 10989 -0.550000 15.99940
10990 OM 10990 OM OM1 10990 -0.550000 15.99940
10991 OM 10991 OM OM1 10991 -0.550000 15.99940
10992 OM 10992 OM OM1 10992 -0.550000 15.99940
10993 OM 10993 OM OM1 10993 -0.550000 15.99940
10994 OM 10994 OM OM1 10994 -0.550000 15.99940
10995 OM 10995 OM OM1 10995 -0.550000 15.99940
10996 OM 10996 OM OM1 10996 -0.550000 15.99940
10997 OM 10997 OM OM1 10997 -0.550000 15.99940
10998 OM 10998 OM OM1 10998 -0.550000 15.99940
10999 OM 10999 OM OM1 10999 -0.550000 15.99940
11000 OM 11000 OM OM1 11000 -0.550000 15.99940
11001 OM 11001 OM OM1 11001 -0.550000 15.99940
11002 OM 11002 OM OM1 11002 -0.550000 15.99940
11003 OM 11003 OM OM1 11003 -0.550000 15.99940
11004 OM 11004 OM OM1 11004 -0.550000 15.99940
11005 OM 11005 OM OM1 11005 -0.550000 15.99940
11006 OM 11006 OM OM1 11006 -0.550000 15.99940
11007 OM 11007 OM OM1 11007 -0.550000 15.99940
11008 OM 11008 OM OM1 11008 -0.550000 15.99940
11009 OM 11009 OM OM1 11009 -0.550000 15.99940
11010 OM 11010 OM OM1 11010 -0.550000 15.99940
11011 OM 11011 OM OM1 11011 -0.550000 15.99940
11012 OM 11012 OM OM1 11012 -0.550000 15.99940
11013 OM 11013 OM OM1 11013 -0.550000 15.99940
11014 OM 11014 OM OM1 11014 -0.550000 15.99940
11015 OM 11015 OM OM1 11015 -0.550000 15.99940
11016 OM 11016 OM OM1 11016 -0.550000 15.99940
11017 OM 11017 OM OM1 11017 -0.550000 15.99940
11018 OM 11018 OM OM1 11018 -0.550000 15.99940
11019 OM 11019 OM OM1 11019 -0.550000 15.99940
11020 OM 11020 OM OM1 11020 -0.550000 15.99940
11021 OM 11021 OM OM1 11021 -0.550000 15.99940
11022 OM 11022 OM OM1 11022 -0.550000 15.99940
11023 OM 11023 OM OM1 11023 -0.550000 15.99940
11024 OM 11024 OM OM1 11024 -0.550000 15.99940
11025 OM 11025 OM OM1 11025 -0.550000 15.99940
11026 OM 11026 OM OM1 11026 -0.550000 15.99940
11027 OM 11027 OM OM1 11027 -0.550000 15.99940
11028 OM 11028 OM OM1 11028 -0.550000 15.99940
11029 OM 11029 OM OM1 11029 -0.550000 15.99940
11030 OM 11030 OM OM1 11030 -0.550000 15.99940
11031 OM 11031 OM OM1 11031 -0.550000 15.99940
11032 OM 11032 OM OM1 11032 -0.550000 15.99940
11033 OM 11033 OM OM1 11033 -0.550000 15.99940
11034 OM 11034 OM OM1 11034 -0.550000 15.99940
11035 OM 11035 OM OM1 11035 -0.550000 15.99940
11036 OM 11036 OM OM1 11036 -0.550000 15.99940
11037 OM 11037 OM OM1 11037 -0.550000 15.99940
11038 OM 11038 OM OM1 11038 -0.550000 15.99940
11039 OM 11039 OM OM1 11039 -0.550000 15.99940
11040 OM 11040 OM OM1 11040 -0.550000 15.99940
11041 OM 11041 OM OM1 11041 -0.550000 15.99940
11042 OM 11042 OM OM1 11042 -0.550000 15.99940
11043 OM 11043 OM OM1 11043 -0.550000 15.99940
11044 OM 11044 OM OM1 11044 -0.550000 15.99940
11045 OM 11045 OM OM1 11045 -0.550000 15.99940
11046 OM 11046 OM OM1 11046 -0.550000 15.99940
11047 OM 11047 OM OM1 11047 -0.550000 15.99940
11048 OM 11048 OM OM1 11048 -0.550000 15.99940
11049 OM 11049 OM OM1 11049 -0.550000 15.99940
11050 OM 11050 OM OM1 11050 -0.550000 15.99940
11051 OM 11051 OM OM1 11051 -0.550000 15.99940
11052 OM 11052 OM OM1 11052 -0.550000 15.99940
11053 OM 11053 OM OM1 11053 -0.550000 15.99940
11054 OM 11054 OM OM1 11054 -0.550000 15.99940
11055 OM 11055 OM OM1 11055 -0.550000 15.99940
11056 OM 11056 OM OM1 11056 -0.550000 15.99940
11057 OM 11057 OM OM1 11057 -0.550000 15.99940
11058 OM 11058 OM OM1 11058 -0.550000 15.99940
11059 OM 11059 OM OM1 11059 -0.550000 15.99940
11060 OM 11060 OM OM1 11060 -0.550000 15.99940
11061 OM 11061 OM OM1 11061 -0.550000 15.99940
11062 OM 11062 OM OM1 11062 -0.550000 15.99940
11063 OM 11063 OM OM1 11063 -0.550000 15.99940
11064 OM 11064 OM OM1 11064 -0.550000 15.99940
11065 OM 11065 OM OM1 11065 -0.550000 15.99940
11066 OM 11066 OM OM1 11066 -0.550000 15.99940
11067 OM 11067 OM OM1 11067 -0.550000 15.99940
11068 OM 11068 OM OM1 11068 -0.550000 15.99940
11069 OM 11069 OM OM1 11069 -0.550000 15.99940
11070 OM 11070 OM OM1 11070 -0.550000 15.99940
11071 OM 11071 OM OM1 11071 -0.550000 15.99940
11072 OM 11072 OM OM1 11072 -0.550000 15.99940
11073 OM 11073 OM OM1 11073 -0.550000 15.99940
11074 OM 11074 OM OM1 11074 -0.550000 15.99940
11075 OM 11075 OM OM1 11075 -0.550000 15.99940
11076 OM 11076 OM OM1 11076 -0.550000 15.99940
11077 OM 11077 OM OM1 11077 -0.550000 15.99940
11078 OM 11078 OM OM1 11078 -0.550000 15.99940
11079 OM 11079 OM OM1 11079 -0.550000 15.99940
11080 OM 11080 OM OM1 11080 -0.550000 15.99940
11081 OM 11081 OM OM1 11081 -0.550000 15.99940
11082 OM 11082 OM OM1 11082 -0.550000 15.99940
11083 OM 11083 OM OM1 11083 -0.550000 15.99940
11084 OM 11084 OM OM1 11084 -0.550000 15.99940
11085 OM 11085 OM OM1 11085 -0.550000 15.99940
11086 OM 11086 OM OM1 11086 -0.550000 15.99940
11087 OM 11087 OM OM1 11087 -0.550000 15.99940
11088 OM 11088 OM OM1 11088 -0.550000 15.99940
11089 OM 11089 OM OM1 11089 -0.550000 15.99940
11090 OM 11090 OM OM1 11090 -0.550000 15.99940
11091 OM 11091 OM OM1 11091 -0.550000 15.99940
11092 OM 11092 OM OM1 11092 -0.550000 15.99940
11093 OM 11093 OM OM1 11093 -0.550000 15.99940
11094 OM 11094 OM OM1 11094 -0.550000 15.99940
11095 OM 11095 OM OM1 11095 -0.550000 15.99940
11096 OM 11096 OM OM1 11096 -0.550000 15.99940
11097 OM 11097 OM OM1 11097 -0.550000 15.99940
11098 OM 11098 OM OM1 11098 -0.550000 15.99940
11099 OM 11099 OM OM1 11099 -0.550000 15.99940
11100 OM 11100 OM OM1 11100 -0.550000 15.99940
11101 OM 11101 OM OM1 11101 -0.550000 15.99940
11102 OM 11102 OM OM1 11102 -0.550000 15.99940
11103 OM 11103 OM OM1 11103 -0.550000 15.99940
11104 OM 11104 OM OM1 11104 -0.550000 15.99940
11105 OM 11105 OM OM1 11105 -0.550000 15.99940
11106 OM 11106 OM OM1 11106 -0.550000 15.99940
11107 OM 11107 OM OM1 11107 -0.550000 15.99940
11108 OM 11108 OM OM1 11108 -0.550000 15.99940
11109 OM 11109 OM OM1 11109 -0.550000 15.99940
11110 OM 11110 OM OM1 11110 -0.550000 15.99940
11111 OM 11111 OM OM1 11111 -0.550000 15.99940
11112 OM 11112 OM OM1 11112 -0.550000 15.99940
11113 OM 11113 OM OM1 11113 -0.550000 15.99940
11114 OM 11114 OM OM1 11114 -0.550000 15.99940
11115 OM 11115 OM OM1 11115 -0.550000 15.99940
11116 OM 11116 OM OM1 11116 -0.550000 15.99940
11117 OM 11117 OM OM1 11117 -0.550000 15.99940
11118 OM 11118 OM OM1 11118 -0.550000 15.99940
11119 OM 11119 OM OM1 11119 -0.550000 15.99940
11120 OM 11120 OM OM1 11120 -0.550000 15.99940
11121 OM 11121 OM OM1 11121 -0.550000 15.99940
11122 OM 11122 OM OM1 11122 -0.550000 15.99940
11123 OM 11123 OM OM1 11123 -0.550000 15.99940
11124 OM 11124 OM OM1 11124 -0.550000 15.99940
11125 OM 11125 OM OM1 11125 -0.550000 15.99940
11126 OM 11126 OM OM1 11126 -0.550000 15.99940
11127 OM 11127 OM OM1 11127 -0.550000 15.99940
11128 OM 11128 OM OM1 11128 -0.550000 15.99940
11129 OM 11129 OM OM1 11129 -0.550000 15.99940
11130 OM 11130 OM OM1 11130 -0.550000 15.99940
11131 OM 11131 OM OM1 11131 -0.550000 15.99940
11132 OM 11132 OM OM1 11132 -0.550000 15.99940
11133 OM 11133 OM OM1 11133 -0.550000 15.99940
11134 OM 11134 OM OM1 11134 -0.550000 15.99940
11135 OM 11135 OM OM1 11135 -0.550000 15.99940
11136 OM 11136 OM OM1 11136 -0.550000 15.99940
11137 OM 11137 OM OM1 11137 -0.550000 15.99940
11138 OM 11138 OM OM1 11138 -0.550000 15.99940
11139 OM 11139 OM OM1 11139 -0.550000 15.99940
11140 OM 11140 OM OM1 11140 -0.550000 15.99940
11141 OM 11141 OM OM1 11141 -0.550000 15.99940
11142 OM 11142 OM OM1 11142 -0.550000 15.99940
11143 OM 11143 OM OM1 11143 -0.550000 15.99940
11144 OM 11144 OM OM1 11144 -0.550000 15.99940
11145 OM 11145 OM OM1 11145 -0.550000 15.99940
11146 OM 11146 OM OM1 11146 -0.550000 15.99940
11147 OM 11147 OM OM1 11147 -0.550000 15.99940
11148 OM 11148 OM OM1 11148 -0.550000 15.99940
11149 OM 11149 OM OM1 11149 -0.550000 15.99940
11150 OM 11150 OM OM1 11150 -0.550000 15.99940
11151 OM 11151 OM OM1 11151 -0.550000 15.99940
11152 OM 11152 OM OM1 11152 -0.550000 15.99940
11153 OM 11153 OM OM1 11153 -0.550000 15.99940
11154 OM 11154 OM OM1 11154 -0.550000 15.99940
11155 OM 11155 OM OM1 11155 -0.550000 15.99940
11156 OM 11156 OM OM1 11156 -0.550000 15.99940
11157 OM 11157 OM OM1 11157 -0.550000 15.99940
11158 OM 11158 OM OM1 11158 -0.550000 15.99940
11159 OM 11159 OM OM1 11159 -0.550000 15.99940
11160 OM 11160 OM OM1 11160 -0.550000 15.99940
11161 OM 11161 OM OM1 11161 -0.550000 15.99940
11162 OM 11162 OM OM1 11162 -0.550000 15.99940
11163 OM 11163 OM OM1 11163 -0.550000 15.99940
11164 OM 11164 OM OM1 11164 -0.550000 15.99940
11165 OM 11165 OM OM1 11165 -0.550000 15.99940
11166 OM 11166 OM OM1 11166 -0.550000 15.99940
11167 OM 11167 OM OM1 11167 -0.550000 15.99940
11168 OM 11168 OM OM1 11168 -0.550000 15.99940
11169 OM 11169 OM OM1 11169 -0.550000 15.99940
11170 OM 11170 OM OM1 11170 -0.550000 15.99940
11171 OM 11171 OM OM1 11171 -0.550000 15.99940
11172 OM 11172 OM OM1 11172 -0.550000 15.99940
11173 OM 11173 OM OM1 11173 -0.550000 15.99940
11174 OM 11174 OM OM1 11174 -0.550000 15.99940
11175 OM 11175 OM OM1 11175 -0.550000 15.99940
11176 OM 11176 OM OM1 11176 -0.550000 15.99940
11177 OM 11177 OM OM1 11177 -0.550000 15.99940
11178 OM 11178 OM OM1 11178 -0.550000 15.99940
11179 OM 11179 OM OM1 11179 -0.550000 15.99940
11180 OM 11180 OM OM1 11180 -0.550000 15.99940
11181 OM 11181 OM OM1 11181 -0.550000 15.99940
11182 OM 11182 OM OM1 11182 -0.550000 15.99940
11183 OM 11183 OM OM1 11183 -0.550000 15.99940
11184 OM 11184 OM OM1 11184 -0.550000 15.99940
11185 OM 11185 OM OM1 11185 -0.550000 15.99940
11186 OM 11186 OM OM1 11186 -0.550000 15.99940
11187 OM 11187 OM OM1 11187 -0.550000 15.99940
11188 OM 11188 OM OM1 11188 -0.550000 15.99940
11189 OM 11189 OM OM1 11189 -0.550000 15.99940
11190 OM 11190 OM OM1 11190 -0.550000 15.99940
11191 OM 11191 OM OM1 11191 -0.550000 15.99940
11192 OM 11192 OM OM1 11192 -0.550000 15.99940
11193 OM 11193 OM OM1 11193 -0.550000 15.99940
11194 OM 11194 OM OM1 11194 -0.550000 15.99940
11195 OM 11195 OM OM1 11195 -0.550000 15.99940
11196 OM 11196 OM OM1 11196 -0.550000 15.99940
11197 OM 11197 OM OM1 11197 -0.550000 15.99940
11198 OM 11198 OM OM1 11198 -0.550000 15.99940
11199 OM 11199 OM OM1 11199 -0.550000 15.99940
11200 OM 11200 OM OM1 11200 -0.550000 15.99940
11201 OM 11201 OM OM1 11201 -0.550000 15.99940
11202 OM 11202 OM OM1 11202 -0.550000 15.99940
11203 OM 11203 OM OM1 11203 -0.550000 15.99940
11204 OM 11204 OM OM1 11204 -0.550000 15.99940
11205 OM 11205 OM OM1 11205 -0.550000 15.99940
11206 OM 11206 OM OM1 11206 -0.550000 15.99940
11207 OM 11207 OM OM1 11207 -0.550000 15.99940
11208 OM 11208 OM OM1 11208 -0.550000 15.99940
11209 OM 11209 OM OM1 11209 -0.550000 15.99940
11210 OM 11210 OM OM1 11210 -0.550000 15.99940
11211 OM 11211 OM OM1 11211 -0.550000 15.99940
11212 OM 11212 OM OM1 11212 -0.550000 15.99940
11213 OM 11213 OM OM1 11213 -0.550000 15.99940
11214 OM 11214 OM OM1 11214 -0.550000 15.99940
11215 OM 11215 OM OM1 11215 -0.550000 15.99940
11216 OM 11216 OM OM1 11216 -0.550000 15.99940
11217 OM 11217 OM OM1 11217 -0.550000 15.99940
11218 OM 11218 OM OM1 11218 -0.550000 15.99940
11219 OM 11219 OM OM1 11219 -0.550000 15.99940
11220 OM 11220 OM OM1 11220 -0.550000 15.99940
11221 OM 11221 OM OM1 11221 -0.550000 15.99940
11222 OM 11222 OM OM1 11222 -0.550000 15.99940
11223 OM 11223 OM OM1 11223 -0.550000 15.99940
11224 OM 11224 OM OM1 11224 -0.550000 15.99940
11225 OM 11225 OM OM1 11225 -0.550000 15.99940
11226 OM 11226 OM OM1 11226 -0.550000 15.99940
11227 OM 11227 OM OM1 11227 -0.550000 15.99940
11228 OM 11228 OM OM1 11228 -0.550000 15.99940
11229 OM 11229 OM OM1 11229 -0.550000 15.99940
11230 OM 11230 OM OM1 11230 -0.550000 15.99940
11231 OM 11231 OM OM1 11231 -0.550000 15.99940
11232 OM 11232 OM OM1 11232 -0.550000 15.99940
11233 OM 11233 OM OM1 11233 -0.550000 15.99940
11234 OM 11234 OM OM1 11234 -0.550000 15.99940
11235 OM 11235 OM OM1 11235 -0.550000 15.99940
11236 OM 11236 OM OM1 11236 -0.550000 15.99940
11237 OM 11237 OM OM1 11237 -0.550000 15.99940
11238 OM 11238 OM OM1 11238 -0.550000 15.99940
11239 OM 11239 OM OM1 11239 -0.550000 15.99940
11240 OM 11240 OM OM1 11240 -0.550000 15.99940
11241 OM 11241 OM OM1 11241 -0.550000 15.99940
11242 OM 11242 OM OM1 11242 -0.550000 15.99940
11243 OM 11243 OM OM1 11243 -0.550000 15.99940
11244 OM 11244 OM OM1 11244 -0.550000 15.99940
11245 OM 11245 OM OM1 11245 -0.550000 15.99940
11246 OM 11246 OM OM1 11246 -0.550000 15.99940
11247 OM 11247 OM OM1 11247 -0.550000 15.99940
11248 OM 11248 OM OM1 11248 -0.550000 15.99940
11249 OM 11249 OM OM1 11249 -0.550000 15.99940
11250 OM 11250 OM OM1 11250 -0.550000 15.99940
11251 OM 11251 OM OM1 11251 -0.550000 15.99940
11252 OM 11252 OM OM1 11252 -0.550000 15.99940
11253 OM 11253 OM OM1 11253 -0.550000 15.99940
11254 OM 11254 OM OM1 11254 -0.550000 15.99940
11255 OM 11255 OM OM1 11255 -0.550000 15.99940
11256 OM 11256 OM OM1 11256 -0.550000 15.99940
11257 OM 11257 OM OM1 11257 -0.550000 15.99940
11258 OM 11258 OM OM1 11258 -0.550000 15.99940
11259 OM 11259 OM OM1 11259 -0.550000 15.99940
11260 OM 11260 OM OM1 11260 -0.550000 15.99940
11261 OM 11261 OM OM1 11261 -0.550000 15.99940
11262 OM 11262 OM OM1 11262 -0.550000 15.99940
11263 OM 11263 OM OM1 11263 -0.550000 15.99940
11264 OM 11264 OM OM1 11264 -0.550000 15.99940
11265 OM 11265 OM OM1 11265 -0.550000 15.99940
11266 OM 11266 OM OM1 11266 -0.550000 15.99940
11267 OM 11267 OM OM1 11267 -0.550000 15.99940
11268 OM 11268 OM OM1 11268 -0.550000 15.99940
11269 OM 11269 OM OM1 11269 -0.550000 15.99940
11270 OM 11270 OM OM1 11270 -0.550000 15.99940
11271 OM 11271 OM OM1 11271 -0.550000 15.99940
11272 OM 11272 OM OM1 11272 -0.550000 15.99940
11273 OM 11273 OM OM1 11273 -0.550000 15.99940
11274 OM 11274 OM OM1 11274 -0.550000 15.99940
11275 OM 11275 OM OM1 11275 -0.550000 15.99940
11276 OM 11276 OM OM1 11276 -0.550000 15.99940
11277 OM 11277 OM OM1 11277 -0.550000 15.99940
11278 OM 11278 OM OM1 11278 -0.550000 15.99940
11279 OM 11279 OM OM1 11279 -0.550000 15.99940
11280 OM 11280 OM OM1 11280 -0.550000 15.99940
11281 OM 11281 OM OM1 11281 -0.550000 15.99940
11282 OM 11282 OM OM1 11282 -0.550000 15.99940
11283 OM 11283 OM OM1 11283 -0.550000 15.99940
11284 OM 11284 OM OM1 11284 -0.550000 15.99940
11285 OM 11285 OM OM1 11285 -0.550000 15.99940
11286 OM 11286 OM OM1 11286 -0.550000 15.99940
11287 OM 11287 OM OM1 11287 -0.550000 15.99940
11288 OM 11288 OM OM1 11288 -0.550000 15.99940
11289 OM 11289 OM OM1 11289 -0.550000 15.99940
11290 OM 11290 OM OM1 11290 -0.550000 15.99940
11291 OM 11291 OM OM1 11291 -0.550000 15.99940
11292 OM 11292 OM OM1 11292 -0.550000 15.99940
11293 OM 11293 OM OM1 11293 -0.550000 15.99940
11294 OM 11294 OM OM1 11294 -0.550000 15.99940
11295 OM 11295 OM OM1 11295 -0.550000 15.99940
11296 OM 11296 OM OM1 11296 -0.550000 15.99940
11297 OM 11297 OM OM1 11297 -0.550000 15.99940
11298 OM 11298 OM OM1 11298 -0.550000 15.99940
11299 OM 11299 OM OM1 11299 -0.550000 15.99940
11300 OM 11300 OM OM1 11300 -0.550000 15.99940
11301 OM 11301 OM OM1 11301 -0.550000 15.99940
11302 OM 11302 OM OM1 11302 -0.550000 15.99940
11303 OM 11303 OM OM1 11303 -0.550000 15.99940
11304 OM 11304 OM OM1 11304 -0.550000 15.99940
11305 OM 11305 OM OM1 11305 -0.550000 15.99940
11306 OM 11306 OM OM1 11306 -0.550000 15.99940
11307 OM 11307 OM OM1 11307 -0.550000 15.99940
11308 OM 11308 OM OM1 11308 -0.550000 15.99940
11309 OM 11309 OM OM1 11309 -0.550000 15.99940
11310 OM 11310 OM OM1 11310 -0.550000 15.99940
11311 OM 11311 OM OM1 11311 -0.550000 15.99940
11312 OM 11312 OM OM1 11312 -0.550000 15.99940
11313 OM 11313 OM OM1 11313 -0.550000 15.99940
11314 OM 11314 OM OM1 11314 -0.550000 15.99940
11315 OM 11315 OM OM1 11315 -0.550000 15.99940
11316 OM 11316 OM OM1 11316 -0.550000 15.99940
11317 OM 11317 OM OM1 11317 -0.550000 15.99940
11318 OM 11318 OM OM1 11318 -0.550000 15.99940
11319 OM 11319 OM OM1 11319 -0.550000 15.99940
11320 OM 11320 OM OM1 11320 -0.550000 15.99940
11321 OM 11321 OM OM1 11321 -0.550000 15.99940
11322 OM 11322 OM OM1 11322 -0.550000 15.99940
11323 OM 11323 OM OM1 11323 -0.550000 15.99940
11324 OM 11324 OM OM1 11324 -0.550000 15.99940
11325 OM 11325 OM OM1 11325 -0.550000 15.99940
11326 OM 11326 OM OM1 11326 -0.550000 15.99940
11327 OM 11327 OM OM1 11327 -0.550000 15.99940
11328 OM 11328 OM OM1 11328 -0.550000 15.99940
11329 OM 11329 OM OM1 11329 -0.550000 15.99940
11330 OM 11330 OM OM1 11330 -0.550000 15.99940
11331 OM 11331 OM OM1 11331 -0.550000 15.99940
11332 OM 11332 OM OM1 11332 -0.550000 15.99940
11333 OM 11333 OM OM1 11333 -0.550000 15.99940
11334 OM 11334 OM OM1 11334 -0.550000 15.99940
11335 OM 11335 OM OM1 11335 -0.550000 15.99940
11336 OM 11336 OM OM1 11336 -0.550000 15.99940
11337 OM 11337 OM OM1 11337 -0.550000 15.99940
11338 OM 11338 OM OM1 11338 -0.550000 15.99940
11339 OM 11339 OM OM1 11339 -0.550000 15.99940
11340 OM 11340 OM OM1 11340 -0.550000 15.99940
11341 OM 11341 OM OM1 11341 -0.550000 15.99940
11342 OM 11342 OM OM1 11342 -0.550000 15.99940
11343 OM 11343 OM OM1 11343 -0.550000 15.99940
11344 OM 11344 OM OM1 11344 -0.550000 15.99940
11345 OM 11345 OM OM1 11345 -0.550000 15.99940
11346 OM 11346 OM OM1 11346 -0.550000 15.99940
11347 OM 11347 OM OM1 11347 -0.550000 15.99940
11348 OM 11348 OM OM1 11348 -0.550000 15.99940
11349 OM 11349 OM OM1 11349 -0.550000 15.99940
11350 OM 11350 OM OM1 11350 -0.550000 15.99940
11351 OM 11351 OM OM1 11351 -0.550000 15.99940
11352 OM 11352 OM OM1 11352 -0.550000 15.99940
11353 OM 11353 OM OM1 11353 -0.550000 15.99940
11354 OM 11354 OM OM1 11354 -0.550000 15.99940
11355 OM 11355 OM OM1 11355 -0.550000 15.99940
11356 OM 11356 OM OM1 11356 -0.550000 15.99940
11357 OM 11357 OM OM1 11357 -0.550000 15.99940
11358 OM 11358 OM OM1 11358 -0.550000 15.99940
11359 OM 11359 OM OM1 11359 -0.550000 15.99940
11360 OM 11360 OM OM1 11360 -0.550000 15.99940
11361 OM 11361 OM OM1 11361 -0.550000 15.99940
11362 OM 11362 OM OM1 11362 -0.550000 15.99940
11363 OM 11363 OM OM1 11363 -0.550000 15.99940
11364 OM 11364 OM OM1 11364 -0.550000 15.99940
11365 OM 11365 OM OM1 11365 -0.550000 15.99940
11366 OM 11366 OM OM1 11366 -0.550000 15.99940
11367 OM 11367 OM OM1 11367 -0.550000 15.99940
11368 OM 11368 OM OM1 11368 -0.550000 15.99940
11369 OM 11369 OM OM1 11369 -0.550000 15.99940
11370 OM 11370 OM OM1 11370 -0.550000 15.99940
11371 OM 11371 OM OM1 11371 -0.550000 15.99940
11372 OM 11372 OM OM1 11372 -0.550000 15.99940
11373 OM 11373 OM OM1 11373 -0.550000 15.99940
11374 OM 11374 OM OM1 11374 -0.550000 15.99940
11375 OM 11375 OM OM1 11375 -0.550000 15.99940
11376 OM 11376 OM OM1 11376 -0.550000 15.99940
11377 OM 11377 OM OM1 11377 -0.550000 15.99940
11378 OM 11378 OM OM1 11378 -0.550000 15.99940
11379 OM 11379 OM OM1 11379 -0.550000 15.99940
11380 OM 11380 OM OM1 11380 -0.550000 15.99940
11381 OM 11381 OM OM1 11381 -0.550000 15.99940
11382 OM 11382 OM OM1 11382 -0.550000 15.99940
11383 OM 11383 OM OM1 11383 -0.550000 15.99940
11384 OM 11384 OM OM1 11384 -0.550000 15.99940
11385 OM 11385 OM OM1 11385 -0.550000 15.99940
11386 OM 11386 OM OM1 11386 -0.550000 15.99940
11387 OM 11387 OM OM1 11387 -0.550000 15.99940
11388 OM 11388 OM OM1 11388 -0.550000 15.99940
11389 OM 11389 OM OM1 11389 -0.550000 15.99940
11390 OM 11390 OM OM1 11390 -0.550000 15.99940
11391 OM 11391 OM OM1 11391 -0.550000 15.99940
11392 OM 11392 OM OM1 11392 -0.550000 15.99940
11393 OM 11393 OM OM1 11393 -0.550000 15.99940
11394 OM 11394 OM OM1 11394 -0.550000 15.99940
11395 OM 11395 OM OM1 11395 -0.550000 15.99940
11396 OM 11396 OM OM1 11396 -0.550000 15.99940
11397 OM 11397 OM OM1 11397 -0.550000 15.99940
11398 OM 11398 OM OM1 11398 -0.550000 15.99940
11399 OM 11399 OM OM1 11399 -0.550000 15.99940
11400 OM 11400 OM OM1 11400 -0.550000 15.99940
11401 OM 11401 OM OM1 11401 -0.550000 15.99940
11402 OM 11402 OM OM1 11402 -0.550000 15.99940
11403 OM 11403 OM OM1 11403 -0.550000 15.99940
11404 OM 11404 OM OM1 11404 -0.550000 15.99940
11405 OM 11405 OM OM1 11405 -0.550000 15.99940
11406 OM 11406 OM OM1 11406 -0.550000 15.99940
11407 OM 11407 OM OM1 11407 -0.550000 15.99940
11408 OM 11408 OM OM1 11408 -0.550000 15.99940
11409 SI 11409 SI SI1 11409 1.100000 28.08600
11410 SI 11410 SI SI1 11410 1.100000 28.08600
11411 SI 11411 SI SI1 11411 1.100000 28.08600
11412 SI 11412 SI SI1 11412 1.100000 28.08600
11413 SI 11413 SI SI1 11413 1.100000 28.08600
11414 SI 11414 SI SI1 11414 1.100000 28.08600
11415 SI 11415 SI SI1 11415 1.100000 28.08600
11416 SI 11416 SI SI1 11416 1.100000 28.08600
11417 SI 11417 SI SI1 11417 1.100000 28.08600
11418 SI 11418 SI SI1 11418 1.100000 28.08600
11419 SI 11419 SI SI1 11419 1.100000 28.08600
11420 SI 11420 SI SI1 11420 1.100000 28.08600
11421 SI 11421 SI SI1 11421 1.100000 28.08600
11422 SI 11422 SI SI1 11422 1.100000 28.08600
11423 SI 11423 SI SI1 11423 1.100000 28.08600
11424 SI 11424 SI SI1 11424 1.100000 28.08600
11425 SI 11425 SI SI1 11425 1.100000 28.08600
11426 SI 11426 SI SI1 11426 1.100000 28.08600
11427 SI 11427 SI SI1 11427 1.100000 28.08600
11428 SI 11428 SI SI1 11428 1.100000 28.08600
11429 SI 11429 SI SI1 11429 1.100000 28.08600
11430 SI 11430 SI SI1 11430 1.100000 28.08600
11431 SI 11431 SI SI1 11431 1.100000 28.08600
11432 SI 11432 SI SI1 11432 1.100000 28.08600
11433 SI 11433 SI SI1 11433 1.100000 28.08600
11434 SI 11434 SI SI1 11434 1.100000 28.08600
11435 SI 11435 SI SI1 11435 1.100000 28.08600
11436 SI 11436 SI SI1 11436 1.100000 28.08600
11437 SI 11437 SI SI1 11437 1.100000 28.08600
11438 SI 11438 SI SI1 11438 1.100000 28.08600
11439 SI 11439 SI SI1 11439 1.100000 28.08600
11440 SI 11440 SI SI1 11440 1.100000 28.08600
11441 SI 11441 SI SI1 11441 1.100000 28.08600
11442 SI 11442 SI SI1 11442 1.100000 28.08600
11443 SI 11443 SI SI1 11443 1.100000 28.08600
11444 SI 11444 SI SI1 11444 1.100000 28.08600
11445 SI 11445 SI SI1 11445 1.100000 28.08600
11446 SI 11446 SI SI1 11446 1.100000 28.08600
11447 SI 11447 SI SI1 11447 1.100000 28.08600
11448 SI 11448 SI SI1 11448 1.100000 28.08600
11449 SI 11449 SI SI1 11449 1.100000 28.08600
11450 SI 11450 SI SI1 11450 1.100000 28.08600
11451 SI 11451 SI SI1 11451 1.100000 28.08600
11452 SI 11452 SI SI1 11452 1.100000 28.08600
11453 SI 11453 SI SI1 11453 1.100000 28.08600
11454 SI 11454 SI SI1 11454 1.100000 28.08600
11455 SI 11455 SI SI1 11455 1.100000 28.08600
11456 SI 11456 SI SI1 11456 1.100000 28.08600
11457 SI 11457 SI SI1 11457 1.100000 28.08600
11458 SI 11458 SI SI1 11458 1.100000 28.08600
11459 SI 11459 SI SI1 11459 1.100000 28.08600
11460 SI 11460 SI SI1 11460 1.100000 28.08600
11461 SI 11461 SI SI1 11461 1.100000 28.08600
11462 SI 11462 SI SI1 11462 1.100000 28.08600
11463 SI 11463 SI SI1 11463 1.100000 28.08600
11464 SI 11464 SI SI1 11464 1.100000 28.08600
11465 SI 11465 SI SI1 11465 1.100000 28.08600
11466 SI 11466 SI SI1 11466 1.100000 28.08600
11467 SI 11467 SI SI1 11467 1.100000 28.08600
11468 SI 11468 SI SI1 11468 1.100000 28.08600
11469 SI 11469 SI SI1 11469 1.100000 28.08600
11470 SI 11470 SI SI1 11470 1.100000 28.08600
11471 SI 11471 SI SI1 11471 1.100000 28.08600
11472 SI 11472 SI SI1 11472 1.100000 28.08600
11473 SI 11473 SI SI1 11473 1.100000 28.08600
11474 SI 11474 SI SI1 11474 1.100000 28.08600
11475 SI 11475 SI SI1 11475 1.100000 28.08600
11476 SI 11476 SI SI1 11476 1.100000 28.08600
11477 SI 11477 SI SI1 11477 1.100000 28.08600
11478 SI 11478 SI SI1 11478 1.100000 28.08600
11479 SI 11479 SI SI1 11479 1.100000 28.08600
11480 SI 11480 SI SI1 11480 1.100000 28.08600
11481 SI 11481 SI SI1 11481 1.100000 28.08600
11482 SI 11482 SI SI1 11482 1.100000 28.08600
11483 SI 11483 SI SI1 11483 1.100000 28.08600
11484 SI 11484 SI SI1 11484 1.100000 28.08600
11485 SI 11485 SI SI1 11485 1.100000 28.08600
11486 SI 11486 SI SI1 11486 1.100000 28.08600
11487 SI 11487 SI SI1 11487 1.100000 28.08600
11488 SI 11488 SI SI1 11488 1.100000 28.08600
11489 SI 11489 SI SI1 11489 1.100000 28.08600
11490 SI 11490 SI SI1 11490 1.100000 28.08600
11491 SI 11491 SI SI1 11491 1.100000 28.08600
11492 SI 11492 SI SI1 11492 1.100000 28.08600
11493 SI 11493 SI SI1 11493 1.100000 28.08600
11494 SI 11494 SI SI1 11494 1.100000 28.08600
11495 SI 11495 SI SI1 11495 1.100000 28.08600
11496 SI 11496 SI SI1 11496 1.100000 28.08600
11497 SI 11497 SI SI1 11497 1.100000 28.08600
11498 SI 11498 SI SI1 11498 1.100000 28.08600
11499 SI 11499 SI SI1 11499 1.100000 28.08600
11500 SI 11500 SI SI1 11500 1.100000 28.08600
11501 SI 11501 SI SI1 11501 1.100000 28.08600
11502 SI 11502 SI SI1 11502 1.100000 28.08600
11503 SI 11503 SI SI1 11503 1.100000 28.08600
11504 SI 11504 SI SI1 11504 1.100000 28.08600
11505 SI 11505 SI SI1 11505 1.100000 28.08600
11506 SI 11506 SI SI1 11506 1.100000 28.08600
11507 SI 11507 SI SI1 11507 1.100000 28.08600
11508 SI 11508 SI SI1 11508 1.100000 28.08600
11509 SI 11509 SI SI1 11509 1.100000 28.08600
11510 SI 11510 SI SI1 11510 1.100000 28.08600
11511 SI 11511 SI SI1 11511 1.100000 28.08600
11512 SI 11512 SI SI1 11512 1.100000 28.08600
11513 SI 11513 SI SI1 11513 1.100000 28.08600
11514 SI 11514 SI SI1 11514 1.100000 28.08600
11515 SI 11515 SI SI1 11515 1.100000 28.08600
11516 SI 11516 SI SI1 11516 1.100000 28.08600
11517 SI 11517 SI SI1 11517 1.100000 28.08600
11518 SI 11518 SI SI1 11518 1.100000 28.08600
11519 SI 11519 SI SI1 11519 1.100000 28.08600
11520 SI 11520 SI SI1 11520 1.100000 28.08600
11521 SI 11521 SI SI1 11521 1.100000 28.08600
11522 SI 11522 SI SI1 11522 1.100000 28.08600
11523 SI 11523 SI SI1 11523 1.100000 28.08600
11524 SI 11524 SI SI1 11524 1.100000 28.08600
11525 SI 11525 SI SI1 11525 1.100000 28.08600
11526 SI 11526 SI SI1 11526 1.100000 28.08600
11527 SI 11527 SI SI1 11527 1.100000 28.08600
11528 SI 11528 SI SI1 11528 1.100000 28.08600
11529 SI 11529 SI SI1 11529 1.100000 28.08600
11530 SI 11530 SI SI1 11530 1.100000 28.08600
11531 SI 11531 SI SI1 11531 1.100000 28.08600
11532 SI 11532 SI SI1 11532 1.100000 28.08600
11533 SI 11533 SI SI1 11533 1.100000 28.08600
11534 SI 11534 SI SI1 11534 1.100000 28.08600
11535 SI 11535 SI SI1 11535 1.100000 28.08600
11536 SI 11536 SI SI1 11536 1.100000 28.08600
11537 SI 11537 SI SI1 11537 1.100000 28.08600
11538 SI 11538 SI SI1 11538 1.100000 28.08600
11539 SI 11539 SI SI1 11539 1.100000 28.08600
11540 SI 11540 SI SI1 11540 1.100000 28.08600
11541 SI 11541 SI SI1 11541 1.100000 28.08600
11542 SI 11542 SI SI1 11542 1.100000 28.08600
11543 SI 11543 SI SI1 11543 1.100000 28.08600
11544 SI 11544 SI SI1 11544 1.100000 28.08600
11545 SI 11545 SI SI1 11545 1.100000 28.08600
11546 SI 11546 SI SI1 11546 1.100000 28.08600
11547 SI 11547 SI SI1 11547 1.100000 28.08600
11548 SI 11548 SI SI1 11548 1.100000 28.08600
11549 SI 11549 SI SI1 11549 1.100000 28.08600
11550 SI 11550 SI SI1 11550 1.100000 28.08600
11551 SI 11551 SI SI1 11551 1.100000 28.08600
11552 SI 11552 SI SI1 11552 1.100000 28.08600
11553 SI 11553 SI SI1 11553 1.100000 28.08600
11554 SI 11554 SI SI1 11554 1.100000 28.08600
11555 SI 11555 SI SI1 11555 1.100000 28.08600
11556 SI 11556 SI SI1 11556 1.100000 28.08600
11557 SI 11557 SI SI1 11557 1.100000 28.08600
11558 SI 11558 SI SI1 11558 1.100000 28.08600
11559 SI 11559 SI SI1 11559 1.100000 28.08600
11560 SI 11560 SI SI1 11560 1.100000 28.08600
11561 SI 11561 SI SI1 11561 1.100000 28.08600
11562 SI 11562 SI SI1 11562 1.100000 28.08600
11563 SI 11563 SI SI1 11563 1.100000 28.08600
11564 SI 11564 SI SI1 11564 1.100000 28.08600
11565 SI 11565 SI SI1 11565 1.100000 28.08600
11566 SI 11566 SI SI1 11566 1.100000 28.08600
11567 SI 11567 SI SI1 11567 1.100000 28.08600
11568 SI 11568 SI SI1 11568 1.100000 28.08600
11569 SI 11569 SI SI1 11569 1.100000 28.08600
11570 SI 11570 SI SI1 11570 1.100000 28.08600
11571 SI 11571 SI SI1 11571 1.100000 28.08600
11572 SI 11572 SI SI1 11572 1.100000 28.08600
11573 SI 11573 SI SI1 11573 1.100000 28.08600
11574 SI 11574 SI SI1 11574 1.100000 28.08600
11575 SI 11575 SI SI1 11575 1.100000 28.08600
11576 SI 11576 SI SI1 11576 1.100000 28.08600
11577 SI 11577 SI SI1 11577 1.100000 28.08600
11578 SI 11578 SI SI1 11578 1.100000 28.08600
11579 SI 11579 SI SI1 11579 1.100000 28.08600
11580 SI 11580 SI SI1 11580 1.100000 28.08600
11581 SI 11581 SI SI1 11581 1.100000 28.08600
11582 SI 11582 SI SI1 11582 1.100000 28.08600
11583 SI 11583 SI SI1 11583 1.100000 28.08600
11584 SI 11584 SI SI1 11584 1.100000 28.08600
11585 SI 11585 SI SI1 11585 1.100000 28.08600
11586 SI 11586 SI SI1 11586 1.100000 28.08600
11587 SI 11587 SI SI1 11587 1.100000 28.08600
11588 SI 11588 SI SI1 11588 1.100000 28.08600
11589 SI 11589 SI SI1 11589 1.100000 28.08600
11590 SI 11590 SI SI1 11590 1.100000 28.08600
11591 SI 11591 SI SI1 11591 1.100000 28.08600
11592 SI 11592 SI SI1 11592 1.100000 28.08600
11593 SI 11593 SI SI1 11593 1.100000 28.08600
11594 SI 11594 SI SI1 11594 1.100000 28.08600
11595 SI 11595 SI SI1 11595 1.100000 28.08600
11596 SI 11596 SI SI1 11596 1.100000 28.08600
11597 SI 11597 SI SI1 11597 1.100000 28.08600
11598 SI 11598 SI SI1 11598 1.100000 28.08600
11599 SI 11599 SI SI1 11599 1.100000 28.08600
11600 SI 11600 SI SI1 11600 1.100000 28.08600
11601 SI 11601 SI SI1 11601 1.100000 28.08600
11602 SI 11602 SI SI1 11602 1.100000 28.08600
11603 SI 11603 SI SI1 11603 1.100000 28.08600
11604 SI 11604 SI SI1 11604 1.100000 28.08600
11605 SI 11605 SI SI1 11605 1.100000 28.08600
11606 SI 11606 SI SI1 11606 1.100000 28.08600
11607 SI 11607 SI SI1 11607 1.100000 28.08600
11608 SI 11608 SI SI1 11608 1.100000 28.08600
11609 SI 11609 SI SI1 11609 1.100000 28.08600
11610 SI 11610 SI SI1 11610 1.100000 28.08600
11611 SI 11611 SI SI1 11611 1.100000 28.08600
11612 SI 11612 SI SI1 11612 1.100000 28.08600
11613 SI 11613 SI SI1 11613 1.100000 28.08600
11614 SI 11614 SI SI1 11614 1.100000 28.08600
11615 SI 11615 SI SI1 11615 1.100000 28.08600
11616 SI 11616 SI SI1 11616 1.100000 28.08600
11617 SI 11617 SI SI1 11617 1.100000 28.08600
11618 SI 11618 SI SI1 11618 1.100000 28.08600
11619 SI 11619 SI SI1 11619 1.100000 28.08600
11620 SI 11620 SI SI1 11620 1.100000 28.08600
11621 SI 11621 SI SI1 11621 1.100000 28.08600
11622 SI 11622 SI SI1 11622 1.100000 28.08600
11623 SI 11623 SI SI1 11623 1.100000 28.08600
11624 SI 11624 SI SI1 11624 1.100000 28.08600
11625 SI 11625 SI SI1 11625 1.100000 28.08600
11626 SI 11626 SI SI1 11626 1.100000 28.08600
11627 SI 11627 SI SI1 11627 1.100000 28.08600
11628 SI 11628 SI SI1 11628 1.100000 28.08600
11629 SI 11629 SI SI1 11629 1.100000 28.08600
11630 SI 11630 SI SI1 11630 1.100000 28.08600
11631 SI 11631 SI SI1 11631 1.100000 28.08600
11632 SI 11632 SI SI1 11632 1.100000 28.08600
11633 SI 11633 SI SI1 11633 1.100000 28.08600
11634 SI 11634 SI SI1 11634 1.100000 28.08600
11635 SI 11635 SI SI1 11635 1.100000 28.08600
11636 SI 11636 SI SI1 11636 1.100000 28.08600
11637 SI 11637 SI SI1 11637 1.100000 28.08600
11638 SI 11638 SI SI1 11638 1.100000 28.08600
11639 SI 11639 SI SI1 11639 1.100000 28.08600
11640 SI 11640 SI SI1 11640 1.100000 28.08600
11641 SI 11641 SI SI1 11641 1.100000 28.08600
11642 SI 11642 SI SI1 11642 1.100000 28.08600
11643 SI 11643 SI SI1 11643 1.100000 28.08600
11644 SI 11644 SI SI1 11644 1.100000 28.08600
11645 SI 11645 SI SI1 11645 1.100000 28.08600
11646 SI 11646 SI SI1 11646 1.100000 28.08600
11647 SI 11647 SI SI1 11647 1.100000 28.08600
11648 SI 11648 SI SI1 11648 1.100000 28.08600
11649 SI 11649 SI SI1 11649 1.100000 28.08600
11650 SI 11650 SI SI1 11650 1.100000 28.08600
11651 SI 11651 SI SI1 11651 1.100000 28.08600
11652 SI 11652 SI SI1 11652 1.100000 28.08600
11653 SI 11653 SI SI1 11653 1.100000 28.08600
11654 SI 11654 SI SI1 11654 1.100000 28.08600
11655 SI 11655 SI SI1 11655 1.100000 28.08600
11656 SI 11656 SI SI1 11656 1.100000 28.08600
11657 SI 11657 SI SI1 11657 1.100000 28.08600
11658 SI 11658 SI SI1 11658 1.100000 28.08600
11659 SI 11659 SI SI1 11659 1.100000 28.08600
11660 SI 11660 SI SI1 11660 1.100000 28.08600
11661 SI 11661 SI SI1 11661 1.100000 28.08600
11662 SI 11662 SI SI1 11662 1.100000 28.08600
11663 SI 11663 SI SI1 11663 1.100000 28.08600
11664 SI 11664 SI SI1 11664 1.100000 28.08600
11665 SI 11665 SI SI1 11665 1.100000 28.08600
11666 SI 11666 SI SI1 11666 1.100000 28.08600
11667 SI 11667 SI SI1 11667 1.100000 28.08600
11668 SI 11668 SI SI1 11668 1.100000 28.08600
11669 SI 11669 SI SI1 11669 1.100000 28.08600
11670 SI 11670 SI SI1 11670 1.100000 28.08600
11671 SI 11671 SI SI1 11671 1.100000 28.08600
11672 SI 11672 SI SI1 11672 1.100000 28.08600
11673 SI 11673 SI SI1 11673 1.100000 28.08600
11674 SI 11674 SI SI1 11674 1.100000 28.08600
11675 SI 11675 SI SI1 11675 1.100000 28.08600
11676 SI 11676 SI SI1 11676 1.100000 28.08600
11677 SI 11677 SI SI1 11677 1.100000 28.08600
11678 SI 11678 SI SI1 11678 1.100000 28.08600
11679 SI 11679 SI SI1 11679 1.100000 28.08600
11680 SI 11680 SI SI1 11680 1.100000 28.08600
11681 SI 11681 SI SI1 11681 1.100000 28.08600
11682 SI 11682 SI SI1 11682 1.100000 28.08600
11683 SI 11683 SI SI1 11683 1.100000 28.08600
11684 SI 11684 SI SI1 11684 1.100000 28.08600
11685 SI 11685 SI SI1 11685 1.100000 28.08600
11686 SI 11686 SI SI1 11686 1.100000 28.08600
11687 SI 11687 SI SI1 11687 1.100000 28.08600
11688 SI 11688 SI SI1 11688 1.100000 28.08600
11689 SI 11689 SI SI1 11689 1.100000 28.08600
11690 SI 11690 SI SI1 11690 1.100000 28.08600
11691 SI 11691 SI SI1 11691 1.100000 28.08600
11692 SI 11692 SI SI1 11692 1.100000 28.08600
11693 SI 11693 SI SI1 11693 1.100000 28.08600
11694 SI 11694 SI SI1 11694 1.100000 28.08600
11695 SI 11695 SI SI1 11695 1.100000 28.08600
11696 SI 11696 SI SI1 11696 1.100000 28.08600
11697 SI 11697 SI SI1 11697 1.100000 28.08600
11698 SI 11698 SI SI1 11698 1.100000 28.08600
11699 SI 11699 SI SI1 11699 1.100000 28.08600
11700 SI 11700 SI SI1 11700 1.100000 28.08600
11701 SI 11701 SI SI1 11701 1.100000 28.08600
11702 SI 11702 SI SI1 11702 1.100000 28.08600
11703 SI 11703 SI SI1 11703 1.100000 28.08600
11704 SI 11704 SI SI1 11704 1.100000 28.08600
11705 SI 11705 SI SI1 11705 1.100000 28.08600
11706 SI 11706 SI SI1 11706 1.100000 28.08600
11707 SI 11707 SI SI1 11707 1.100000 28.08600
11708 SI 11708 SI SI1 11708 1.100000 28.08600
11709 SI 11709 SI SI1 11709 1.100000 28.08600
11710 SI 11710 SI SI1 11710 1.100000 28.08600
11711 SI 11711 SI SI1 11711 1.100000 28.08600
11712 SI 11712 SI SI1 11712 1.100000 28.08600
11713 SI 11713 SI SI1 11713 1.100000 28.08600
11714 SI 11714 SI SI1 11714 1.100000 28.08600
11715 SI 11715 SI SI1 11715 1.100000 28.08600
11716 SI 11716 SI SI1 11716 1.100000 28.08600
11717 SI 11717 SI SI1 11717 1.100000 28.08600
11718 SI 11718 SI SI1 11718 1.100000 28.08600
11719 SI 11719 SI SI1 11719 1.100000 28.08600
11720 SI 11720 SI SI1 11720 1.100000 28.08600
11721 SI 11721 SI SI1 11721 1.100000 28.08600
11722 SI 11722 SI SI1 11722 1.100000 28.08600
11723 SI 11723 SI SI1 11723 1.100000 28.08600
11724 SI 11724 SI SI1 11724 1.100000 28.08600
11725 SI 11725 SI SI1 11725 1.100000 28.08600
11726 SI 11726 SI SI1 11726 1.100000 28.08600
11727 SI 11727 SI SI1 11727 1.100000 28.08600
11728 SI 11728 SI SI1 11728 1.100000 28.08600
11729 SI 11729 SI SI1 11729 1.100000 28.08600
11730 SI 11730 SI SI1 11730 1.100000 28.08600
11731 SI 11731 SI SI1 11731 1.100000 28.08600
11732 SI 11732 SI SI1 11732 1.100000 28.08600
11733 SI 11733 SI SI1 11733 1.100000 28.08600
11734 SI 11734 SI SI1 11734 1.100000 28.08600
11735 SI 11735 SI SI1 11735 1.100000 28.08600
11736 SI 11736 SI SI1 11736 1.100000 28.08600
11737 SI 11737 SI SI1 11737 1.100000 28.08600
11738 SI 11738 SI SI1 11738 1.100000 28.08600
11739 SI 11739 SI SI1 11739 1.100000 28.08600
11740 SI 11740 SI SI1 11740 1.100000 28.08600
11741 SI 11741 SI SI1 11741 1.100000 28.08600
11742 SI 11742 SI SI1 11742 1.100000 28.08600
11743 SI 11743 SI SI1 11743 1.100000 28.08600
11744 SI 11744 SI SI1 11744 1.100000 28.08600
11745 SI 11745 SI SI1 11745 1.100000 28.08600
11746 SI 11746 SI SI1 11746 1.100000 28.08600
11747 SI 11747 SI SI1 11747 1.100000 28.08600
11748 SI 11748 SI SI1 11748 1.100000 28.08600
11749 SI 11749 SI SI1 11749 1.100000 28.08600
11750 SI 11750 SI SI1 11750 1.100000 28.08600
11751 SI 11751 SI SI1 11751 1.100000 28.08600
11752 SI 11752 SI SI1 11752 1.100000 28.08600
11753 SI 11753 SI SI1 11753 1.100000 28.08600
11754 SI 11754 SI SI1 11754 1.100000 28.08600
11755 SI 11755 SI SI1 11755 1.100000 28.08600
11756 SI 11756 SI SI1 11756 1.100000 28.08600
11757 SI 11757 SI SI1 11757 1.100000 28.08600
11758 SI 11758 SI SI1 11758 1.100000 28.08600
11759 SI 11759 SI SI1 11759 1.100000 28.08600
11760 SI 11760 SI SI1 11760 1.100000 28.08600
11761 SI 11761 SI SI1 11761 1.100000 28.08600
11762 SI 11762 SI SI1 11762 1.100000 28.08600
11763 SI 11763 SI SI1 11763 1.100000 28.08600
11764 SI 11764 SI SI1 11764 1.100000 28.08600
11765 SI 11765 SI SI1 11765 1.100000 28.08600
11766 SI 11766 SI SI1 11766 1.100000 28.08600
11767 SI 11767 SI SI1 11767 1.100000 28.08600
11768 SI 11768 SI SI1 11768 1.100000 28.08600
11769 SI 11769 SI SI1 11769 1.100000 28.08600
11770 SI 11770 SI SI1 11770 1.100000 28.08600
11771 SI 11771 SI SI1 11771 1.100000 28.08600
11772 SI 11772 SI SI1 11772 1.100000 28.08600
11773 SI 11773 SI SI1 11773 1.100000 28.08600
11774 SI 11774 SI SI1 11774 1.100000 28.08600
11775 SI 11775 SI SI1 11775 1.100000 28.08600
11776 SI 11776 SI SI1 11776 1.100000 28.08600
11777 SI 11777 SI SI1 11777 1.100000 28.08600
11778 SI 11778 SI SI1 11778 1.100000 28.08600
11779 SI 11779 SI SI1 11779 1.100000 28.08600
11780 SI 11780 SI SI1 11780 1.100000 28.08600
11781 SI 11781 SI SI1 11781 1.100000 28.08600
11782 SI 11782 SI SI1 11782 1.100000 28.08600
11783 SI 11783 SI SI1 11783 1.100000 28.08600
11784 SI 11784 SI SI1 11784 1.100000 28.08600
11785 SI 11785 SI SI1 11785 1.100000 28.08600
11786 SI 11786 SI SI1 11786 1.100000 28.08600
11787 SI 11787 SI SI1 11787 1.100000 28.08600
11788 SI 11788 SI SI1 11788 1.100000 28.08600
11789 SI 11789 SI SI1 11789 1.100000 28.08600
11790 SI 11790 SI SI1 11790 1.100000 28.08600
11791 SI 11791 SI SI1 11791 1.100000 28.08600
11792 SI 11792 SI SI1 11792 1.100000 28.08600
11793 SI 11793 SI SI1 11793 1.100000 28.08600
11794 SI 11794 SI SI1 11794 1.100000 28.08600
11795 SI 11795 SI SI1 11795 1.100000 28.08600
11796 SI 11796 SI SI1 11796 1.100000 28.08600
11797 SI 11797 SI SI1 11797 1.100000 28.08600
11798 SI 11798 SI SI1 11798 1.100000 28.08600
11799 SI 11799 SI SI1 11799 1.100000 28.08600
11800 SI 11800 SI SI1 11800 1.100000 28.08600
11801 SI 11801 SI SI1 11801 1.100000 28.08600
11802 SI 11802 SI SI1 11802 1.100000 28.08600
11803 SI 11803 SI SI1 11803 1.100000 28.08600
11804 SI 11804 SI SI1 11804 1.100000 28.08600
11805 SI 11805 SI SI1 11805 1.100000 28.08600
11806 SI 11806 SI SI1 11806 1.100000 28.08600
11807 SI 11807 SI SI1 11807 1.100000 28.08600
11808 SI 11808 SI SI1 11808 1.100000 28.08600
11809 SI 11809 SI SI1 11809 1.100000 28.08600
11810 SI 11810 SI SI1 11810 1.100000 28.08600
11811 SI 11811 SI SI1 11811 1.100000 28.08600
11812 SI 11812 SI SI1 11812 1.100000 28.08600
11813 SI 11813 SI SI1 11813 1.100000 28.08600
11814 SI 11814 SI SI1 11814 1.100000 28.08600
11815 SI 11815 SI SI1 11815 1.100000 28.08600
11816 SI 11816 SI SI1 11816 1.100000 28.08600
11817 SI 11817 SI SI1 11817 1.100000 28.08600
11818 SI 11818 SI SI1 11818 1.100000 28.08600
11819 SI 11819 SI SI1 11819 1.100000 28.08600
11820 SI 11820 SI SI1 11820 1.100000 28.08600
11821 SI 11821 SI SI1 11821 1.100000 28.08600
11822 SI 11822 SI SI1 11822 1.100000 28.08600
11823 SI 11823 SI SI1 11823 1.100000 28.08600
11824 SI 11824 SI SI1 11824 1.100000 28.08600
11825 SI 11825 SI SI1 11825 1.100000 28.08600
11826 SI 11826 SI SI1 11826 1.100000 28.08600
11827 SI 11827 SI SI1 11827 1.100000 28.08600
11828 SI 11828 SI SI1 11828 1.100000 28.08600
11829 SI 11829 SI SI1 11829 1.100000 28.08600
11830 SI 11830 SI SI1 11830 1.100000 28.08600
11831 SI 11831 SI SI1 11831 1.100000 28.08600
11832 SI 11832 SI SI1 11832 1.100000 28.08600
11833 SI 11833 SI SI1 11833 1.100000 28.08600
11834 SI 11834 SI SI1 11834 1.100000 28.08600
11835 SI 11835 SI SI1 11835 1.100000 28.08600
11836 SI 11836 SI SI1 11836 1.100000 28.08600
11837 SI 11837 SI SI1 11837 1.100000 28.08600
11838 SI 11838 SI SI1 11838 1.100000 28.08600
11839 SI 11839 SI SI1 11839 1.100000 28.08600
11840 SI 11840 SI SI1 11840 1.100000 28.08600
11841 SI 11841 SI SI1 11841 1.100000 28.08600
11842 SI 11842 SI SI1 11842 1.100000 28.08600
11843 SI 11843 SI SI1 11843 1.100000 28.08600
11844 SI 11844 SI SI1 11844 1.100000 28.08600
11845 SI 11845 SI SI1 11845 1.100000 28.08600
11846 SI 11846 SI SI1 11846 1.100000 28.08600
11847 SI 11847 SI SI1 11847 1.100000 28.08600
11848 SI 11848 SI SI1 11848 1.100000 28.08600
11849 SI 11849 SI SI1 11849 1.100000 28.08600
11850 SI 11850 SI SI1 11850 1.100000 28.08600
11851 SI 11851 SI SI1 11851 1.100000 28.08600
11852 SI 11852 SI SI1 11852 1.100000 28.08600
11853 SI 11853 SI SI1 11853 1.100000 28.08600
11854 SI 11854 SI SI1 11854 1.100000 28.08600
11855 SI 11855 SI SI1 11855 1.100000 28.08600
11856 SI 11856 SI SI1 11856 1.100000 28.08600
11857 SI 11857 SI SI1 11857 1.100000 28.08600
11858 SI 11858 SI SI1 11858 1.100000 28.08600
11859 SI 11859 SI SI1 11859 1.100000 28.08600
11860 SI 11860 SI SI1 11860 1.100000 28.08600
11861 SI 11861 SI SI1 11861 1.100000 28.08600
11862 SI 11862 SI SI1 11862 1.100000 28.08600
11863 SI 11863 SI SI1 11863 1.100000 28.08600
11864 SI 11864 SI SI1 11864 1.100000 28.08600
11865 SI 11865 SI SI1 11865 1.100000 28.08600
11866 SI 11866 SI SI1 11866 1.100000 28.08600
11867 SI 11867 SI SI1 11867 1.100000 28.08600
11868 SI 11868 SI SI1 11868 1.100000 28.08600
11869 SI 11869 SI SI1 11869 1.100000 28.08600
11870 SI 11870 SI SI1 11870 1.100000 28.08600
11871 SI 11871 SI SI1 11871 1.100000 28.08600
11872 SI 11872 SI SI1 11872 1.100000 28.08600
11873 SI 11873 SI SI1 11873 1.100000 28.08600
11874 SI 11874 SI SI1 11874 1.100000 28.08600
11875 SI 11875 SI SI1 11875 1.100000 28.08600
11876 SI 11876 SI SI1 11876 1.100000 28.08600
11877 SI 11877 SI SI1 11877 1.100000 28.08600
11878 SI 11878 SI SI1 11878 1.100000 28.08600
11879 SI 11879 SI SI1 11879 1.100000 28.08600
11880 SI 11880 SI SI1 11880 1.100000 28.08600
11881 SI 11881 SI SI1 11881 1.100000 28.08600
11882 SI 11882 SI SI1 11882 1.100000 28.08600
11883 SI 11883 SI SI1 11883 1.100000 28.08600
11884 SI 11884 SI SI1 11884 1.100000 28.08600
11885 SI 11885 SI SI1 11885 1.100000 28.08600
11886 SI 11886 SI SI1 11886 1.100000 28.08600
11887 SI 11887 SI SI1 11887 1.100000 28.08600
11888 SI 11888 SI SI1 11888 1.100000 28.08600
11889 SI 11889 SI SI1 11889 1.100000 28.08600
11890 SI 11890 SI SI1 11890 1.100000 28.08600
11891 SI 11891 SI SI1 11891 1.100000 28.08600
11892 SI 11892 SI SI1 11892 1.100000 28.08600
11893 SI 11893 SI SI1 11893 1.100000 28.08600
11894 SI 11894 SI SI1 11894 1.100000 28.08600
11895 SI 11895 SI SI1 11895 1.100000 28.08600
11896 SI 11896 SI SI1 11896 1.100000 28.08600
11897 SI 11897 SI SI1 11897 1.100000 28.08600
11898 SI 11898 SI SI1 11898 1.100000 28.08600
11899 SI 11899 SI SI1 11899 1.100000 28.08600
11900 SI 11900 SI SI1 11900 1.100000 28.08600
11901 SI 11901 SI SI1 11901 1.100000 28.08600
11902 SI 11902 SI SI1 11902 1.100000 28.08600
11903 SI 11903 SI SI1 11903 1.100000 28.08600
11904 SI 11904 SI SI1 11904 1.100000 28.08600
11905 SI 11905 SI SI1 11905 1.100000 28.08600
11906 SI 11906 SI SI1 11906 1.100000 28.08600
11907 SI 11907 SI SI1 11907 1.100000 28.08600
11908 SI 11908 SI SI1 11908 1.100000 28.08600
11909 SI 11909 SI SI1 11909 1.100000 28.08600
11910 SI 11910 SI SI1 11910 1.100000 28.08600
11911 SI 11911 SI SI1 11911 1.100000 28.08600
11912 SI 11912 SI SI1 11912 1.100000 28.08600
11913 SI 11913 SI SI1 11913 1.100000 28.08600
11914 SI 11914 SI SI1 11914 1.100000 28.08600
11915 SI 11915 SI SI1 11915 1.100000 28.08600
11916 SI 11916 SI SI1 11916 1.100000 28.08600
11917 SI 11917 SI SI1 11917 1.100000 28.08600
11918 SI 11918 SI SI1 11918 1.100000 28.08600
11919 SI 11919 SI SI1 11919 1.100000 28.08600
11920 SI 11920 SI SI1 11920 1.100000 28.08600
11921 SI 11921 SI SI1 11921 1.100000 28.08600
11922 SI 11922 SI SI1 11922 1.100000 28.08600
11923 SI 11923 SI SI1 11923 1.100000 28.08600
11924 SI 11924 SI SI1 11924 1.100000 28.08600
11925 SI 11925 SI SI1 11925 1.100000 28.08600
11926 SI 11926 SI SI1 11926 1.100000 28.08600
11927 SI 11927 SI SI1 11927 1.100000 28.08600
11928 SI 11928 SI SI1 11928 1.100000 28.08600
11929 SI 11929 SI SI1 11929 1.100000 28.08600
11930 SI 11930 SI SI1 11930 1.100000 28.08600
11931 SI 11931 SI SI1 11931 1.100000 28.08600
11932 SI 11932 SI SI1 11932 1.100000 28.08600
11933 SI 11933 SI SI1 11933 1.100000 28.08600
11934 SI 11934 SI SI1 11934 1.100000 28.08600
11935 SI 11935 SI SI1 11935 1.100000 28.08600
11936 SI 11936 SI SI1 11936 1.100000 28.08600
11937 SI 11937 SI SI1 11937 1.100000 28.08600
11938 SI 11938 SI SI1 11938 1.100000 28.08600
11939 SI 11939 SI SI1 11939 1.100000 28.08600
11940 SI 11940 SI SI1 11940 1.100000 28.08600
11941 SI 11941 SI SI1 11941 1.100000 28.08600
11942 SI 11942 SI SI1 11942 1.100000 28.08600
11943 SI 11943 SI SI1 11943 1.100000 28.08600
11944 SI 11944 SI SI1 11944 1.100000 28.08600
11945 SI 11945 SI SI1 11945 1.100000 28.08600
11946 SI 11946 SI SI1 11946 1.100000 28.08600
11947 SI 11947 SI SI1 11947 1.100000 28.08600
11948 SI 11948 SI SI1 11948 1.100000 28.08600
11949 SI 11949 SI SI1 11949 1.100000 28.08600
11950 SI 11950 SI SI1 11950 1.100000 28.08600
11951 SI 11951 SI SI1 11951 1.100000 28.08600
11952 SI 11952 SI SI1 11952 1.100000 28.08600
11953 SI 11953 SI SI1 11953 1.100000 28.08600
11954 SI 11954 SI SI1 11954 1.100000 28.08600
11955 SI 11955 SI SI1 11955 1.100000 28.08600
11956 SI 11956 SI SI1 11956 1.100000 28.08600
11957 SI 11957 SI SI1 11957 1.100000 28.08600
11958 SI 11958 SI SI1 11958 1.100000 28.08600
11959 SI 11959 SI SI1 11959 1.100000 28.08600
11960 SI 11960 SI SI1 11960 1.100000 28.08600
11961 SI 11961 SI SI1 11961 1.100000 28.08600
11962 SI 11962 SI SI1 11962 1.100000 28.08600
11963 SI 11963 SI SI1 11963 1.100000 28.08600
11964 SI 11964 SI SI1 11964 1.100000 28.08600
11965 SI 11965 SI SI1 11965 1.100000 28.08600
11966 SI 11966 SI SI1 11966 1.100000 28.08600
11967 SI 11967 SI SI1 11967 1.100000 28.08600
11968 SI 11968 SI SI1 11968 1.100000 28.08600
11969 SI 11969 SI SI1 11969 1.100000 28.08600
11970 SI 11970 SI SI1 11970 1.100000 28.08600
11971 SI 11971 SI SI1 11971 1.100000 28.08600
11972 SI 11972 SI SI1 11972 1.100000 28.08600
11973 SI 11973 SI SI1 11973 1.100000 28.08600
11974 SI 11974 SI SI1 11974 1.100000 28.08600
11975 SI 11975 SI SI1 11975 1.100000 28.08600
11976 SI 11976 SI SI1 11976 1.100000 28.08600
11977 SI 11977 SI SI1 11977 1.100000 28.08600
11978 SI 11978 SI SI1 11978 1.100000 28.08600
11979 SI 11979 SI SI1 11979 1.100000 28.08600
11980 SI 11980 SI SI1 11980 1.100000 28.08600
11981 SI 11981 SI SI1 11981 1.100000 28.08600
11982 SI 11982 SI SI1 11982 1.100000 28.08600
11983 SI 11983 SI SI1 11983 1.100000 28.08600
11984 SI 11984 SI SI1 11984 1.100000 28.08600
11985 SI 11985 SI SI1 11985 1.100000 28.08600
11986 SI 11986 SI SI1 11986 1.100000 28.08600
11987 SI 11987 SI SI1 11987 1.100000 28.08600
11988 SI 11988 SI SI1 11988 1.100000 28.08600
11989 SI 11989 SI SI1 11989 1.100000 28.08600
11990 SI 11990 SI SI1 11990 1.100000 28.08600
11991 SI 11991 SI SI1 11991 1.100000 28.08600
11992 SI 11992 SI SI1 11992 1.100000 28.08600
11993 SI 11993 SI SI1 11993 1.100000 28.08600
11994 SI 11994 SI SI1 11994 1.100000 28.08600
11995 SI 11995 SI SI1 11995 1.100000 28.08600
11996 SI 11996 SI SI1 11996 1.100000 28.08600
11997 SI 11997 SI SI1 11997 1.100000 28.08600
11998 SI 11998 SI SI1 11998 1.100000 28.08600
11999 SI 11999 SI SI1 11999 1.100000 28.08600
12000 SI 12000 SI SI1 12000 1.100000 28.08600
12001 SI 12001 SI SI1 12001 1.100000 28.08600
12002 SI 12002 SI SI1 12002 1.100000 28.08600
12003 SI 12003 SI SI1 12003 1.100000 28.08600
12004 SI 12004 SI SI1 12004 1.100000 28.08600
12005 SI 12005 SI SI1 12005 1.100000 28.08600
12006 SI 12006 SI SI1 12006 1.100000 28.08600
12007 SI 12007 SI SI1 12007 1.100000 28.08600
12008 SI 12008 SI SI1 12008 1.100000 28.08600
12009 SI 12009 SI SI1 12009 1.100000 28.08600
12010 SI 12010 SI SI1 12010 1.100000 28.08600
12011 SI 12011 SI SI1 12011 1.100000 28.08600
12012 SI 12012 SI SI1 12012 1.100000 28.08600
12013 SI 12013 SI SI1 12013 1.100000 28.08600
12014 SI 12014 SI SI1 12014 1.100000 28.08600
12015 SI 12015 SI SI1 12015 1.100000 28.08600
12016 SI 12016 SI SI1 12016 1.100000 28.08600
12017 SI 12017 SI SI1 12017 1.100000 28.08600
12018 SI 12018 SI SI1 12018 1.100000 28.08600
12019 SI 12019 SI SI1 12019 1.100000 28.08600
12020 SI 12020 SI SI1 12020 1.100000 28.08600
12021 SI 12021 SI SI1 12021 1.100000 28.08600
12022 SI 12022 SI SI1 12022 1.100000 28.08600
12023 SI 12023 SI SI1 12023 1.100000 28.08600
12024 SI 12024 SI SI1 12024 1.100000 28.08600
12025 SI 12025 SI SI1 12025 1.100000 28.08600
12026 SI 12026 SI SI1 12026 1.100000 28.08600
12027 SI 12027 SI SI1 12027 1.100000 28.08600
12028 SI 12028 SI SI1 12028 1.100000 28.08600
12029 SI 12029 SI SI1 12029 1.100000 28.08600
12030 SI 12030 SI SI1 12030 1.100000 28.08600
12031 SI 12031 SI SI1 12031 1.100000 28.08600
12032 SI 12032 SI SI1 12032 1.100000 28.08600
12033 SI 12033 SI SI1 12033 1.100000 28.08600
12034 SI 12034 SI SI1 12034 1.100000 28.08600
12035 SI 12035 SI SI1 12035 1.100000 28.08600
12036 SI 12036 SI SI1 12036 1.100000 28.08600
12037 SI 12037 SI SI1 12037 1.100000 28.08600
12038 SI 12038 SI SI1 12038 1.100000 28.08600
12039 SI 12039 SI SI1 12039 1.100000 28.08600
12040 SI 12040 SI SI1 12040 1.100000 28.08600
12041 SI 12041 SI SI1 12041 1.100000 28.08600
12042 SI 12042 SI SI1 12042 1.100000 28.08600
12043 SI 12043 SI SI1 12043 1.100000 28.08600
12044 SI 12044 SI SI1 12044 1.100000 28.08600
12045 SI 12045 SI SI1 12045 1.100000 28.08600
12046 SI 12046 SI SI1 12046 1.100000 28.08600
12047 SI 12047 SI SI1 12047 1.100000 28.08600
12048 SI 12048 SI SI1 12048 1.100000 28.08600
12049 SI 12049 SI SI1 12049 1.100000 28.08600
12050 SI 12050 SI SI1 12050 1.100000 28.08600
12051 SI 12051 SI SI1 12051 1.100000 28.08600
12052 SI 12052 SI SI1 12052 1.100000 28.08600
12053 SI 12053 SI SI1 12053 1.100000 28.08600
12054 SI 12054 SI SI1 12054 1.100000 28.08600
12055 SI 12055 SI SI1 12055 1.100000 28.08600
12056 SI 12056 SI SI1 12056 1.100000 28.08600
12057 SI 12057 SI SI1 12057 1.100000 28.08600
12058 SI 12058 SI SI1 12058 1.100000 28.08600
12059 SI 12059 SI SI1 12059 1.100000 28.08600
12060 SI 12060 SI SI1 12060 1.100000 28.08600
12061 SI 12061 SI SI1 12061 1.100000 28.08600
12062 SI 12062 SI SI1 12062 1.100000 28.08600
12063 SI 12063 SI SI1 12063 1.100000 28.08600
12064 SI 12064 SI SI1 12064 1.100000 28.08600
12065 SI 12065 SI SI1 12065 1.100000 28.08600
12066 SI 12066 SI SI1 12066 1.100000 28.08600
12067 SI 12067 SI SI1 12067 1.100000 28.08600
12068 SI 12068 SI SI1 12068 1.100000 28.08600
12069 SI 12069 SI SI1 12069 1.100000 28.08600
12070 SI 12070 SI SI1 12070 1.100000 28.08600
12071 SI 12071 SI SI1 12071 1.100000 28.08600
12072 SI 12072 SI SI1 12072 1.100000 28.08600
12073 SI 12073 SI SI1 12073 1.100000 28.08600
12074 SI 12074 SI SI1 12074 1.100000 28.08600
12075 SI 12075 SI SI1 12075 1.100000 28.08600
12076 SI 12076 SI SI1 12076 1.100000 28.08600
12077 SI 12077 SI SI1 12077 1.100000 28.08600
12078 SI 12078 SI SI1 12078 1.100000 28.08600
12079 SI 12079 SI SI1 12079 1.100000 28.08600
12080 SI 12080 SI SI1 12080 1.100000 28.08600
12081 SI 12081 SI SI1 12081 1.100000 28.08600
12082 SI 12082 SI SI1 12082 1.100000 28.08600
12083 SI 12083 SI SI1 12083 1.100000 28.08600
12084 SI 12084 SI SI1 12084 1.100000 28.08600
12085 SI 12085 SI SI1 12085 1.100000 28.08600
12086 SI 12086 SI SI1 12086 1.100000 28.08600
12087 SI 12087 SI SI1 12087 1.100000 28.08600
12088 SI 12088 SI SI1 12088 1.100000 28.08600
12089 SI 12089 SI SI1 12089 1.100000 28.08600
12090 SI 12090 SI SI1 12090 1.100000 28.08600
12091 SI 12091 SI SI1 12091 1.100000 28.08600
12092 SI 12092 SI SI1 12092 1.100000 28.08600
12093 SI 12093 SI SI1 12093 1.100000 28.08600
12094 SI 12094 SI SI1 12094 1.100000 28.08600
12095 SI 12095 SI SI1 12095 1.100000 28.08600
12096 SI 12096 SI SI1 12096 1.100000 28.08600
12097 SI 12097 SI SI1 12097 1.100000 28.08600
12098 SI 12098 SI SI1 12098 1.100000 28.08600
12099 SI 12099 SI SI1 12099 1.100000 28.08600
12100 SI 12100 SI SI1 12100 1.100000 28.08600
12101 SI 12101 SI SI1 12101 1.100000 28.08600
12102 SI 12102 SI SI1 12102 1.100000 28.08600
12103 SI 12103 SI SI1 12103 1.100000 28.08600
12104 SI 12104 SI SI1 12104 1.100000 28.08600
12105 SI 12105 SI SI1 12105 1.100000 28.08600
12106 SI 12106 SI SI1 12106 1.100000 28.08600
12107 SI 12107 SI SI1 12107 1.100000 28.08600
12108 SI 12108 SI SI1 12108 1.100000 28.08600
12109 SI 12109 SI SI1 12109 1.100000 28.08600
12110 SI 12110 SI SI1 12110 1.100000 28.08600
12111 SI 12111 SI SI1 12111 1.100000 28.08600
12112 SI 12112 SI SI1 12112 1.100000 28.08600
12113 SI 12113 SI SI1 12113 1.100000 28.08600
12114 SI 12114 SI SI1 12114 1.100000 28.08600
12115 SI 12115 SI SI1 12115 1.100000 28.08600
12116 SI 12116 SI SI1 12116 1.100000 28.08600
12117 SI 12117 SI SI1 12117 1.100000 28.08600
12118 SI 12118 SI SI1 12118 1.100000 28.08600
12119 SI 12119 SI SI1 12119 1.100000 28.08600
12120 SI 12120 SI SI1 12120 1.100000 28.08600
12121 SI 12121 SI SI1 12121 1.100000 28.08600
12122 SI 12122 SI SI1 12122 1.100000 28.08600
12123 SI 12123 SI SI1 12123 1.100000 28.08600
12124 SI 12124 SI SI1 12124 1.100000 28.08600
12125 SI 12125 SI SI1 12125 1.100000 28.08600
12126 SI 12126 SI SI1 12126 1.100000 28.08600
12127 SI 12127 SI SI1 12127 1.100000 28.08600
12128 SI 12128 SI SI1 12128 1.100000 28.08600
12129 SI 12129 SI SI1 12129 1.100000 28.08600
12130 SI 12130 SI SI1 12130 1.100000 28.08600
12131 SI 12131 SI SI1 12131 1.100000 28.08600
12132 SI 12132 SI SI1 12132 1.100000 28.08600
12133 SI 12133 SI SI1 12133 1.100000 28.08600
12134 SI 12134 SI SI1 12134 1.100000 28.08600
12135 SI 12135 SI SI1 12135 1.100000 28.08600
12136 SI 12136 SI SI1 12136 1.100000 28.08600
12137 SI 12137 SI SI1 12137 1.100000 28.08600
12138 SI 12138 SI SI1 12138 1.100000 28.08600
12139 SI 12139 SI SI1 12139 1.100000 28.08600
12140 SI 12140 SI SI1 12140 1.100000 28.08600
12141 SI 12141 SI SI1 12141 1.100000 28.08600
12142 SI 12142 SI SI1 12142 1.100000 28.08600
12143 SI 12143 SI SI1 12143 1.100000 28.08600
12144 SI 12144 SI SI1 12144 1.100000 28.08600
12145 SI 12145 SI SI1 12145 1.100000 28.08600
12146 SI 12146 SI SI1 12146 1.100000 28.08600
12147 SI 12147 SI SI1 12147 1.100000 28.08600
12148 SI 12148 SI SI1 12148 1.100000 28.08600
12149 SI 12149 SI SI1 12149 1.100000 28.08600
12150 SI 12150 SI SI1 12150 1.100000 28.08600
12151 SI 12151 SI SI1 12151 1.100000 28.08600
12152 SI 12152 SI SI1 12152 1.100000 28.08600
12153 SI 12153 SI SI1 12153 1.100000 28.08600
12154 SI 12154 SI SI1 12154 1.100000 28.08600
12155 SI 12155 SI SI1 12155 1.100000 28.08600
12156 SI 12156 SI SI1 12156 1.100000 28.08600
12157 SI 12157 SI SI1 12157 1.100000 28.08600
12158 SI 12158 SI SI1 12158 1.100000 28.08600
12159 SI 12159 SI SI1 12159 1.100000 28.08600
12160 SI 12160 SI SI1 12160 1.100000 28.08600
12161 SI 12161 SI SI1 12161 1.100000 28.08600
12162 SI 12162 SI SI1 12162 1.100000 28.08600
12163 SI 12163 SI SI1 12163 1.100000 28.08600
12164 SI 12164 SI SI1 12164 1.100000 28.08600
12165 SI 12165 SI SI1 12165 1.100000 28.08600
12166 SI 12166 SI SI1 12166 1.100000 28.08600
12167 SI 12167 SI SI1 12167 1.100000 28.08600
12168 SI 12168 SI SI1 12168 1.100000 28.08600
12169 SI 12169 SI SI1 12169 1.100000 28.08600
12170 SI 12170 SI SI1 12170 1.100000 28.08600
12171 SI 12171 SI SI1 12171 1.100000 28.08600
12172 SI 12172 SI SI1 12172 1.100000 28.08600
12173 SI 12173 SI SI1 12173 1.100000 28.08600
12174 SI 12174 SI SI1 12174 1.100000 28.08600
12175 SI 12175 SI SI1 12175 1.100000 28.08600
12176 SI 12176 SI SI1 12176 1.100000 28.08600
12177 SI 12177 SI SI1 12177 1.100000 28.08600
12178 SI 12178 SI SI1 12178 1.100000 28.08600
12179 SI 12179 SI SI1 12179 1.100000 28.08600
12180 SI 12180 SI SI1 12180 1.100000 28.08600
12181 SI 12181 SI SI1 12181 1.100000 28.08600
12182 SI 12182 SI SI1 12182 1.100000 28.08600
12183 SI 12183 SI SI1 12183 1.100000 28.08600
12184 SI 12184 SI SI1 12184 1.100000 28.08600
12185 SI 12185 SI SI1 12185 1.100000 28.08600
12186 SI 12186 SI SI1 12186 1.100000 28.08600
12187 SI 12187 SI SI1 12187 1.100000 28.08600
12188 SI 12188 SI SI1 12188 1.100000 28.08600
12189 SI 12189 SI SI1 12189 1.100000 28.08600
12190 SI 12190 SI SI1 12190 1.100000 28.08600
12191 SI 12191 SI SI1 12191 1.100000 28.08600
12192 SI 12192 SI SI1 12192 1.100000 28.08600
12193 SI 12193 SI SI1 12193 1.100000 28.08600
12194 SI 12194 SI SI1 12194 1.100000 28.08600
12195 SI 12195 SI SI1 12195 1.100000 28.08600
12196 SI 12196 SI SI1 12196 1.100000 28.08600
12197 SI 12197 SI SI1 12197 1.100000 28.08600
12198 SI 12198 SI SI1 12198 1.100000 28.08600
12199 SI 12199 SI SI1 12199 1.100000 28.08600
12200 SI 12200 SI SI1 12200 1.100000 28.08600
12201 SI 12201 SI SI1 12201 1.100000 28.08600
12202 SI 12202 SI SI1 12202 1.100000 28.08600
12203 SI 12203 SI SI1 12203 1.100000 28.08600
12204 SI 12204 SI SI1 12204 1.100000 28.08600
12205 SI 12205 SI SI1 12205 1.100000 28.08600
12206 SI 12206 SI SI1 12206 1.100000 28.08600
12207 SI 12207 SI SI1 12207 1.100000 28.08600
12208 SI 12208 SI SI1 12208 1.100000 28.08600
12209 SI 12209 SI SI1 12209 1.100000 28.08600
12210 SI 12210 SI SI1 12210 1.100000 28.08600
12211 SI 12211 SI SI1 12211 1.100000 28.08600
12212 SI 12212 SI SI1 12212 1.100000 28.08600
12213 SI 12213 SI SI1 12213 1.100000 28.08600
12214 SI 12214 SI SI1 12214 1.100000 28.08600
12215 SI 12215 SI SI1 12215 1.100000 28.08600
12216 SI 12216 SI SI1 12216 1.100000 28.08600
12217 SI 12217 SI SI1 12217 1.100000 28.08600
12218 SI 12218 SI SI1 12218 1.100000 28.08600
12219 SI 12219 SI SI1 12219 1.100000 28.08600
12220 SI 12220 SI SI1 12220 1.100000 28.08600
12221 SI 12221 SI SI1 12221 1.100000 28.08600
12222 SI 12222 SI SI1 12222 1.100000 28.08600
12223 SI 12223 SI SI1 12223 1.100000 28.08600
12224 SI 12224 SI SI1 12224 1.100000 28.08600
12225 SI 12225 SI SI1 12225 1.100000 28.08600
12226 SI 12226 SI SI1 12226 1.100000 28.08600
12227 SI 12227 SI SI1 12227 1.100000 28.08600
12228 SI 12228 SI SI1 12228 1.100000 28.08600
12229 SI 12229 SI SI1 12229 1.100000 28.08600
12230 SI 12230 SI SI1 12230 1.100000 28.08600
12231 SI 12231 SI SI1 12231 1.100000 28.08600
12232 SI 12232 SI SI1 12232 1.100000 28.08600
12233 SI 12233 SI SI1 12233 1.100000 28.08600
12234 SI 12234 SI SI1 12234 1.100000 28.08600
12235 SI 12235 SI SI1 12235 1.100000 28.08600
12236 SI 12236 SI SI1 12236 1.100000 28.08600
12237 SI 12237 SI SI1 12237 1.100000 28.08600
12238 SI 12238 SI SI1 12238 1.100000 28.08600
12239 SI 12239 SI SI1 12239 1.100000 28.08600
12240 SI 12240 SI SI1 12240 1.100000 28.08600
12241 SI 12241 SI SI1 12241 1.100000 28.08600
12242 SI 12242 SI SI1 12242 1.100000 28.08600
12243 SI 12243 SI SI1 12243 1.100000 28.08600
12244 SI 12244 SI SI1 12244 1.100000 28.08600
12245 SI 12245 SI SI1 12245 1.100000 28.08600
12246 SI 12246 SI SI1 12246 1.100000 28.08600
12247 SI 12247 SI SI1 12247 1.100000 28.08600
12248 SI 12248 SI SI1 12248 1.100000 28.08600
12249 SI 12249 SI SI1 12249 1.100000 28.08600
12250 SI 12250 SI SI1 12250 1.100000 28.08600
12251 SI 12251 SI SI1 12251 1.100000 28.08600
12252 SI 12252 SI SI1 12252 1.100000 28.08600
12253 SI 12253 SI SI1 12253 1.100000 28.08600
12254 SI 12254 SI SI1 12254 1.100000 28.08600
12255 SI 12255 SI SI1 12255 1.100000 28.08600
12256 SI 12256 SI SI1 12256 1.100000 28.08600
12257 SI 12257 SI SI1 12257 1.100000 28.08600
12258 SI 12258 SI SI1 12258 1.100000 28.08600
12259 SI 12259 SI SI1 12259 1.100000 28.08600
12260 SI 12260 SI SI1 12260 1.100000 28.08600
12261 SI 12261 SI SI1 12261 1.100000 28.08600
12262 SI 12262 SI SI1 12262 1.100000 28.08600
12263 SI 12263 SI SI1 12263 1.100000 28.08600
12264 SI 12264 SI SI1 12264 1.100000 28.08600
12265 SI 12265 SI SI1 12265 1.100000 28.08600
12266 SI 12266 SI SI1 12266 1.100000 28.08600
12267 SI 12267 SI SI1 12267 1.100000 28.08600
12268 SI 12268 SI SI1 12268 1.100000 28.08600
12269 SI 12269 SI SI1 12269 1.100000 28.08600
12270 SI 12270 SI SI1 12270 1.100000 28.08600
12271 SI 12271 SI SI1 12271 1.100000 28.08600
12272 SI 12272 SI SI1 12272 1.100000 28.08600
12273 SI 12273 SI SI1 12273 1.100000 28.08600
12274 SI 12274 SI SI1 12274 1.100000 28.08600
12275 SI 12275 SI SI1 12275 1.100000 28.08600
12276 SI 12276 SI SI1 12276 1.100000 28.08600
12277 SI 12277 SI SI1 12277 1.100000 28.08600
12278 SI 12278 SI SI1 12278 1.100000 28.08600
12279 SI 12279 SI SI1 12279 1.100000 28.08600
12280 SI 12280 SI SI1 12280 1.100000 28.08600
12281 SI 12281 SI SI1 12281 1.100000 28.08600
12282 SI 12282 SI SI1 12282 1.100000 28.08600
12283 SI 12283 SI SI1 12283 1.100000 28.08600
12284 SI 12284 SI SI1 12284 1.100000 28.08600
12285 SI 12285 SI SI1 12285 1.100000 28.08600
12286 SI 12286 SI SI1 12286 1.100000 28.08600
12287 SI 12287 SI SI1 12287 1.100000 28.08600
12288 SI 12288 SI SI1 12288 1.100000 28.08600
12289 SI 12289 SI SI1 12289 1.100000 28.08600
12290 SI 12290 SI SI1 12290 1.100000 28.08600
12291 SI 12291 SI SI1 12291 1.100000 28.08600
12292 SI 12292 SI SI1 12292 1.100000 28.08600
12293 SI 12293 SI SI1 12293 1.100000 28.08600
12294 SI 12294 SI SI1 12294 1.100000 28.08600
12295 SI 12295 SI SI1 12295 1.100000 28.08600
12296 SI 12296 SI SI1 12296 1.100000 28.08600
12297 SI 12297 SI SI1 12297 1.100000 28.08600
12298 SI 12298 SI SI1 12298 1.100000 28.08600
12299 SI 12299 SI SI1 12299 1.100000 28.08600
12300 SI 12300 SI SI1 12300 1.100000 28.08600
12301 SI 12301 SI SI1 12301 1.100000 28.08600
12302 SI 12302 SI SI1 12302 1.100000 28.08600
12303 SI 12303 SI SI1 12303 1.100000 28.08600
12304 SI 12304 SI SI1 12304 1.100000 28.08600
12305 SI 12305 SI SI1 12305 1.100000 28.08600
12306 SI 12306 SI SI1 12306 1.100000 28.08600
12307 SI 12307 SI SI1 12307 1.100000 28.08600
12308 SI 12308 SI SI1 12308 1.100000 28.08600
12309 SI 12309 SI SI1 12309 1.100000 28.08600
12310 SI 12310 SI SI1 12310 1.100000 28.08600
12311 SI 12311 SI SI1 12311 1.100000 28.08600
12312 SI 12312 SI SI1 12312 1.100000 28.08600
12313 SI 12313 SI SI1 12313 1.100000 28.08600
12314 SI 12314 SI SI1 12314 1.100000 28.08600
12315 SI 12315 SI SI1 12315 1.100000 28.08600
12316 SI 12316 SI SI1 12316 1.100000 28.08600
12317 SI 12317 SI SI1 12317 1.100000 28.08600
12318 SI 12318 SI SI1 12318 1.100000 28.08600
12319 SI 12319 SI SI1 12319 1.100000 28.08600
12320 SI 12320 SI SI1 12320 1.100000 28.08600
12321 SI 12321 SI SI1 12321 1.100000 28.08600
12322 SI 12322 SI SI1 12322 1.100000 28.08600
12323 SI 12323 SI SI1 12323 1.100000 28.08600
12324 SI 12324 SI SI1 12324 1.100000 28.08600
12325 SI 12325 SI SI1 12325 1.100000 28.08600
12326 SI 12326 SI SI1 12326 1.100000 28.08600
12327 SI 12327 SI SI1 12327 1.100000 28.08600
12328 SI 12328 SI SI1 12328 1.100000 28.08600
12329 SI 12329 SI SI1 12329 1.100000 28.08600
12330 SI 12330 SI SI1 12330 1.100000 28.08600
12331 SI 12331 SI SI1 12331 1.100000 28.08600
12332 SI 12332 SI SI1 12332 1.100000 28.08600
12333 SI 12333 SI SI1 12333 1.100000 28.08600
12334 SI 12334 SI SI1 12334 1.100000 28.08600
12335 SI 12335 SI SI1 12335 1.100000 28.08600
12336 SI 12336 SI SI1 12336 1.100000 28.08600
12337 SI 12337 SI SI1 12337 1.100000 28.08600
12338 SI 12338 SI SI1 12338 1.100000 28.08600
12339 SI 12339 SI SI1 12339 1.100000 28.08600
12340 SI 12340 SI SI1 12340 1.100000 28.08600
12341 SI 12341 SI SI1 12341 1.100000 28.08600
12342 SI 12342 SI SI1 12342 1.100000 28.08600
12343 SI 12343 SI SI1 12343 1.100000 28.08600
12344 SI 12344 SI SI1 12344 1.100000 28.08600
12345 SI 12345 SI SI1 12345 1.100000 28.08600
12346 SI 12346 SI SI1 12346 1.100000 28.08600
12347 SI 12347 SI SI1 12347 1.100000 28.08600
12348 SI 12348 SI SI1 12348 1.100000 28.08600
12349 SI 12349 SI SI1 12349 1.100000 28.08600
12350 SI 12350 SI SI1 12350 1.100000 28.08600
12351 SI 12351 SI SI1 12351 1.100000 28.08600
12352 SI 12352 SI SI1 12352 1.100000 28.08600
12353 SI 12353 SI SI1 12353 1.100000 28.08600
12354 SI 12354 SI SI1 12354 1.100000 28.08600
12355 SI 12355 SI SI1 12355 1.100000 28.08600
12356 SI 12356 SI SI1 12356 1.100000 28.08600
12357 SI 12357 SI SI1 12357 1.100000 28.08600
12358 SI 12358 SI SI1 12358 1.100000 28.08600
12359 SI 12359 SI SI1 12359 1.100000 28.08600
12360 SI 12360 SI SI1 12360 1.100000 28.08600
12361 SI 12361 SI SI1 12361 1.100000 28.08600
12362 SI 12362 SI SI1 12362 1.100000 28.08600
12363 SI 12363 SI SI1 12363 1.100000 28.08600
12364 SI 12364 SI SI1 12364 1.100000 28.08600
12365 SI 12365 SI SI1 12365 1.100000 28.08600
12366 SI 12366 SI SI1 12366 1.100000 28.08600
12367 SI 12367 SI SI1 12367 1.100000 28.08600
12368 SI 12368 SI SI1 12368 1.100000 28.08600
12369 SI 12369 SI SI1 12369 1.100000 28.08600
12370 SI 12370 SI SI1 12370 1.100000 28.08600
12371 SI 12371 SI SI1 12371 1.100000 28.08600
12372 SI 12372 SI SI1 12372 1.100000 28.08600
12373 SI 12373 SI SI1 12373 1.100000 28.08600
12374 SI 12374 SI SI1 12374 1.100000 28.08600
12375 SI 12375 SI SI1 12375 1.100000 28.08600
12376 SI 12376 SI SI1 12376 1.100000 28.08600
12377 SI 12377 SI SI1 12377 1.100000 28.08600
12378 SI 12378 SI SI1 12378 1.100000 28.08600
12379 SI 12379 SI SI1 12379 1.100000 28.08600
12380 SI 12380 SI SI1 12380 1.100000 28.08600
12381 SI 12381 SI SI1 12381 1.100000 28.08600
12382 SI 12382 SI SI1 12382 1.100000 28.08600
12383 SI 12383 SI SI1 12383 1.100000 28.08600
12384 SI 12384 SI SI1 12384 1.100000 28.08600
12385 SI 12385 SI SI1 12385 1.100000 28.08600
12386 SI 12386 SI SI1 12386 1.100000 28.08600
12387 SI 12387 SI SI1 12387 1.100000 28.08600
12388 SI 12388 SI SI1 12388 1.100000 28.08600
12389 SI 12389 SI SI1 12389 1.100000 28.08600
12390 SI 12390 SI SI1 12390 1.100000 28.08600
12391 SI 12391 SI SI1 12391 1.100000 28.08600
12392 SI 12392 SI SI1 12392 1.100000 28.08600
12393 SI 12393 SI SI1 12393 1.100000 28.08600
12394 SI 12394 SI SI1 12394 1.100000 28.08600
12395 SI 12395 SI SI1 12395 1.100000 28.08600
12396 SI 12396 SI SI1 12396 1.100000 28.08600
12397 SI 12397 SI SI1 12397 1.100000 28.08600
12398 SI 12398 SI SI1 12398 1.100000 28.08600
12399 SI 12399 SI SI1 12399 1.100000 28.08600
12400 SI 12400 SI SI1 12400 1.100000 28.08600
12401 SI 12401 SI SI1 12401 1.100000 28.08600
12402 SI 12402 SI SI1 12402 1.100000 28.08600
12403 SI 12403 SI SI1 12403 1.100000 28.08600
12404 SI 12404 SI SI1 12404 1.100000 28.08600
12405 SI 12405 SI SI1 12405 1.100000 28.08600
12406 SI 12406 SI SI1 12406 1.100000 28.08600
12407 SI 12407 SI SI1 12407 1.100000 28.08600
12408 SI 12408 SI SI1 12408 1.100000 28.08600
12409 SI 12409 SI SI1 12409 1.100000 28.08600
12410 SI 12410 SI SI1 12410 1.100000 28.08600
12411 SI 12411 SI SI1 12411 1.100000 28.08600
12412 SI 12412 SI SI1 12412 1.100000 28.08600
12413 SI 12413 SI SI1 12413 1.100000 28.08600
12414 SI 12414 SI SI1 12414 1.100000 28.08600
12415 SI 12415 SI SI1 12415 1.100000 28.08600
12416 SI 12416 SI SI1 12416 1.100000 28.08600
12417 SI 12417 SI SI1 12417 1.100000 28.08600
12418 SI 12418 SI SI1 12418 1.100000 28.08600
12419 SI 12419 SI SI1 12419 1.100000 28.08600
12420 SI 12420 SI SI1 12420 1.100000 28.08600
12421 SI 12421 SI SI1 12421 1.100000 28.08600
12422 SI 12422 SI SI1 12422 1.100000 28.08600
12423 SI 12423 SI SI1 12423 1.100000 28.08600
12424 SI 12424 SI SI1 12424 1.100000 28.08600
12425 SI 12425 SI SI1 12425 1.100000 28.08600
12426 SI 12426 SI SI1 12426 1.100000 28.08600
12427 SI 12427 SI SI1 12427 1.100000 28.08600
12428 SI 12428 SI SI1 12428 1.100000 28.08600
12429 SI 12429 SI SI1 12429 1.100000 28.08600
12430 SI 12430 SI SI1 12430 1.100000 28.08600
12431 SI 12431 SI SI1 12431 1.100000 28.08600
12432 SI 12432 SI SI1 12432 1.100000 28.08600
12433 SI 12433 SI SI1 12433 1.100000 28.08600
12434 SI 12434 SI SI1 12434 1.100000 28.08600
12435 SI 12435 SI SI1 12435 1.100000 28.08600
12436 SI 12436 SI SI1 12436 1.100000 28.08600
12437 SI 12437 SI SI1 12437 1.100000 28.08600
12438 SI 12438 SI SI1 12438 1.100000 28.08600
12439 SI 12439 SI SI1 12439 1.100000 28.08600
12440 SI 12440 SI SI1 12440 1.100000 28.08600
12441 SI 12441 SI SI1 12441 1.100000 28.08600
12442 SI 12442 SI SI1 12442 1.100000 28.08600
12443 SI 12443 SI SI1 12443 1.100000 28.08600
12444 SI 12444 SI SI1 12444 1.100000 28.08600
12445 SI 12445 SI SI1 12445 1.100000 28.08600
12446 SI 12446 SI SI1 12446 1.100000 28.08600
12447 SI 12447 SI SI1 12447 1.100000 28.08600
12448 SI 12448 SI SI1 12448 1.100000 28.08600
12449 SI 12449 SI SI1 12449 1.100000 28.08600
12450 SI 12450 SI SI1 12450 1.100000 28.08600
12451 SI 12451 SI SI1 12451 1.100000 28.08600
12452 SI 12452 SI SI1 12452 1.100000 28.08600
12453 SI 12453 SI SI1 12453 1.100000 28.08600
12454 SI 12454 SI SI1 12454 1.100000 28.08600
12455 SI 12455 SI SI1 12455 1.100000 28.08600
12456 SI 12456 SI SI1 12456 1.100000 28.08600
12457 SI 12457 SI SI1 12457 1.100000 28.08600
12458 SI 12458 SI SI1 12458 1.100000 28.08600
12459 SI 12459 SI SI1 12459 1.100000 28.08600
12460 SI 12460 SI SI1 12460 1.100000 28.08600
12461 SI 12461 SI SI1 12461 1.100000 28.08600
12462 SI 12462 SI SI1 12462 1.100000 28.08600
12463 SI 12463 SI SI1 12463 1.100000 28.08600
12464 SI 12464 SI SI1 12464 1.100000 28.08600
12465 SI 12465 SI SI1 12465 1.100000 28.08600
12466 SI 12466 SI SI1 12466 1.100000 28.08600
12467 SI 12467 SI SI1 12467 1.100000 28.08600
12468 SI 12468 SI SI1 12468 1.100000 28.08600
12469 SI 12469 SI SI1 12469 1.100000 28.08600
12470 SI 12470 SI SI1 12470 1.100000 28.08600
12471 SI 12471 SI SI1 12471 1.100000 28.08600
12472 SI 12472 SI SI1 12472 1.100000 28.08600
12473 SI 12473 SI SI1 12473 1.100000 28.08600
12474 SI 12474 SI SI1 12474 1.100000 28.08600
12475 SI 12475 SI SI1 12475 1.100000 28.08600
12476 SI 12476 SI SI1 12476 1.100000 28.08600
12477 SI 12477 SI SI1 12477 1.100000 28.08600
12478 SI 12478 SI SI1 12478 1.100000 28.08600
12479 SI 12479 SI SI1 12479 1.100000 28.08600
12480 SI 12480 SI SI1 12480 1.100000 28.08600
12481 SI 12481 SI SI1 12481 1.100000 28.08600
12482 SI 12482 SI SI1 12482 1.100000 28.08600
12483 SI 12483 SI SI1 12483 1.100000 28.08600
12484 SI 12484 SI SI1 12484 1.100000 28.08600
12485 SI 12485 SI SI1 12485 1.100000 28.08600
12486 SI 12486 SI SI1 12486 1.100000 28.08600
12487 SI 12487 SI SI1 12487 1.100000 28.08600
12488 SI 12488 SI SI1 12488 1.100000 28.08600
12489 SI 12489 SI SI1 12489 1.100000 28.08600
12490 SI 12490 SI SI1 12490 1.100000 28.08600
12491 SI 12491 SI SI1 12491 1.100000 28.08600
12492 SI 12492 SI SI1 12492 1.100000 28.08600
12493 SI 12493 SI SI1 12493 1.100000 28.08600
12494 SI 12494 SI SI1 12494 1.100000 28.08600
12495 SI 12495 SI SI1 12495 1.100000 28.08600
12496 SI 12496 SI SI1 12496 1.100000 28.08600
12497 SI 12497 SI SI1 12497 1.100000 28.08600
12498 SI 12498 SI SI1 12498 1.100000 28.08600
12499 SI 12499 SI SI1 12499 1.100000 28.08600
12500 SI 12500 SI SI1 12500 1.100000 28.08600
12501 SI 12501 SI SI1 12501 1.100000 28.08600
12502 SI 12502 SI SI1 12502 1.100000 28.08600
12503 SI 12503 SI SI1 12503 1.100000 28.08600
12504 SI 12504 SI SI1 12504 1.100000 28.08600
12505 SI 12505 SI SI1 12505 1.100000 28.08600
12506 SI 12506 SI SI1 12506 1.100000 28.08600
12507 SI 12507 SI SI1 12507 1.100000 28.08600
12508 SI 12508 SI SI1 12508 1.100000 28.08600
12509 SI 12509 SI SI1 12509 1.100000 28.08600
12510 SI 12510 SI SI1 12510 1.100000 28.08600
12511 SI 12511 SI SI1 12511 1.100000 28.08600
12512 SI 12512 SI SI1 12512 1.100000 28.08600
12513 SI 12513 SI SI1 12513 1.100000 28.08600
12514 SI 12514 SI SI1 12514 1.100000 28.08600
12515 SI 12515 SI SI1 12515 1.100000 28.08600
12516 SI 12516 SI SI1 12516 1.100000 28.08600
12517 SI 12517 SI SI1 12517 1.100000 28.08600
12518 SI 12518 SI SI1 12518 1.100000 28.08600
12519 SI 12519 SI SI1 12519 1.100000 28.08600
12520 SI 12520 SI SI1 12520 1.100000 28.08600
12521 SI 12521 SI SI1 12521 1.100000 28.08600
12522 SI 12522 SI SI1 12522 1.100000 28.08600
12523 SI 12523 SI SI1 12523 1.100000 28.08600
12524 SI 12524 SI SI1 12524 1.100000 28.08600
12525 SI 12525 SI SI1 12525 1.100000 28.08600
12526 SI 12526 SI SI1 12526 1.100000 28.08600
12527 SI 12527 SI SI1 12527 1.100000 28.08600
12528 SI 12528 SI SI1 12528 1.100000 28.08600
12529 SI 12529 SI SI1 12529 1.100000 28.08600
12530 SI 12530 SI SI1 12530 1.100000 28.08600
12531 SI 12531 SI SI1 12531 1.100000 28.08600
12532 SI 12532 SI SI1 12532 1.100000 28.08600
12533 SI 12533 SI SI1 12533 1.100000 28.08600
12534 SI 12534 SI SI1 12534 1.100000 28.08600
12535 SI 12535 SI SI1 12535 1.100000 28.08600
12536 SI 12536 SI SI1 12536 1.100000 28.08600
12537 SI 12537 SI SI1 12537 1.100000 28.08600
12538 SI 12538 SI SI1 12538 1.100000 28.08600
12539 SI 12539 SI SI1 12539 1.100000 28.08600
12540 SI 12540 SI SI1 12540 1.100000 28.08600
12541 SI 12541 SI SI1 12541 1.100000 28.08600
12542 SI 12542 SI SI1 12542 1.100000 28.08600
12543 SI 12543 SI SI1 12543 1.100000 28.08600
12544 SI 12544 SI SI1 12544 1.100000 28.08600
12545 SI 12545 SI SI1 12545 1.100000 28.08600
12546 SI 12546 SI SI1 12546 1.100000 28.08600
12547 SI 12547 SI SI1 12547 1.100000 28.08600
12548 SI 12548 SI SI1 12548 1.100000 28.08600
12549 SI 12549 SI SI1 12549 1.100000 28.08600
12550 SI 12550 SI SI1 12550 1.100000 28.08600
12551 SI 12551 SI SI1 12551 1.100000 28.08600
12552 SI 12552 SI SI1 12552 1.100000 28.08600
12553 SI 12553 SI SI1 12553 1.100000 28.08600
12554 SI 12554 SI SI1 12554 1.100000 28.08600
12555 SI 12555 SI SI1 12555 1.100000 28.08600
12556 SI 12556 SI SI1 12556 1.100000 28.08600
12557 SI 12557 SI SI1 12557 1.100000 28.08600
12558 SI 12558 SI SI1 12558 1.100000 28.08600
12559 SI 12559 SI SI1 12559 1.100000 28.08600
12560 SI 12560 SI SI1 12560 1.100000 28.08600
12561 SI 12561 SI SI1 12561 1.100000 28.08600
12562 SI 12562 SI SI1 12562 1.100000 28.08600
12563 SI 12563 SI SI1 12563 1.100000 28.08600
12564 SI 12564 SI SI1 12564 1.100000 28.08600
12565 SI 12565 SI SI1 12565 1.100000 28.08600
12566 SI 12566 SI SI1 12566 1.100000 28.08600
12567 SI 12567 SI SI1 12567 1.100000 28.08600
12568 SI 12568 SI SI1 12568 1.100000 28.08600
12569 SI 12569 SI SI1 12569 1.100000 28.08600
12570 SI 12570 SI SI1 12570 1.100000 28.08600
12571 SI 12571 SI SI1 12571 1.100000 28.08600
12572 SI 12572 SI SI1 12572 1.100000 28.08600
12573 SI 12573 SI SI1 12573 1.100000 28.08600
12574 SI 12574 SI SI1 12574 1.100000 28.08600
12575 SI 12575 SI SI1 12575 1.100000 28.08600
12576 SI 12576 SI SI1 12576 1.100000 28.08600
12577 SI 12577 SI SI1 12577 1.100000 28.08600
12578 SI 12578 SI SI1 12578 1.100000 28.08600
12579 SI 12579 SI SI1 12579 1.100000 28.08600
12580 SI 12580 SI SI1 12580 1.100000 28.08600
12581 SI 12581 SI SI1 12581 1.100000 28.08600
12582 SI 12582 SI SI1 12582 1.100000 28.08600
12583 SI 12583 SI SI1 12583 1.100000 28.08600
12584 SI 12584 SI SI1 12584 1.100000 28.08600
12585 SI 12585 SI SI1 12585 1.100000 28.08600
12586 SI 12586 SI SI1 12586 1.100000 28.08600
12587 SI 12587 SI SI1 12587 1.100000 28.08600
12588 SI 12588 SI SI1 12588 1.100000 28.08600
12589 SI 12589 SI SI1 12589 1.100000 28.08600
12590 SI 12590 SI SI1 12590 1.100000 28.08600
12591 SI 12591 SI SI1 12591 1.100000 28.08600
12592 SI 12592 SI SI1 12592 1.100000 28.08600
12593 SI 12593 SI SI1 12593 1.100000 28.08600
12594 SI 12594 SI SI1 12594 1.100000 28.08600
12595 SI 12595 SI SI1 12595 1.100000 28.08600
12596 SI 12596 SI SI1 12596 1.100000 28.08600
12597 SI 12597 SI SI1 12597 1.100000 28.08600
12598 SI 12598 SI SI1 12598 1.100000 28.08600
12599 SI 12599 SI SI1 12599 1.100000 28.08600
12600 SI 12600 SI SI1 12600 1.100000 28.08600
12601 SI 12601 SI SI1 12601 1.100000 28.08600
12602 SI 12602 SI SI1 12602 1.100000 28.08600
12603 SI 12603 SI SI1 12603 1.100000 28.08600
12604 SI 12604 SI SI1 12604 1.100000 28.08600
12605 SI 12605 SI SI1 12605 1.100000 28.08600
12606 SI 12606 SI SI1 12606 1.100000 28.08600
12607 SI 12607 SI SI1 12607 1.100000 28.08600
12608 SI 12608 SI SI1 12608 1.100000 28.08600
12609 SI 12609 SI SI1 12609 1.100000 28.08600
12610 SI 12610 SI SI1 12610 1.100000 28.08600
12611 SI 12611 SI SI1 12611 1.100000 28.08600
12612 SI 12612 SI SI1 12612 1.100000 28.08600
12613 SI 12613 SI SI1 12613 1.100000 28.08600
12614 SI 12614 SI SI1 12614 1.100000 28.08600
12615 SI 12615 SI SI1 12615 1.100000 28.08600
12616 SI 12616 SI SI1 12616 1.100000 28.08600
12617 SI 12617 SI SI1 12617 1.100000 28.08600
12618 SI 12618 SI SI1 12618 1.100000 28.08600
12619 SI 12619 SI SI1 12619 1.100000 28.08600
12620 SI 12620 SI SI1 12620 1.100000 28.08600
12621 SI 12621 SI SI1 12621 1.100000 28.08600
12622 SI 12622 SI SI1 12622 1.100000 28.08600
12623 SI 12623 SI SI1 12623 1.100000 28.08600
12624 SI 12624 SI SI1 12624 1.100000 28.08600
12625 SI 12625 SI SI1 12625 1.100000 28.08600
12626 SI 12626 SI SI1 12626 1.100000 28.08600
12627 SI 12627 SI SI1 12627 1.100000 28.08600
12628 SI 12628 SI SI1 12628 1.100000 28.08600
12629 SI 12629 SI SI1 12629 1.100000 28.08600
12630 SI 12630 SI SI1 12630 1.100000 28.08600
12631 SI 12631 SI SI1 12631 1.100000 28.08600
12632 SI 12632 SI SI1 12632 1.100000 28.08600
12633 SI 12633 SI SI1 12633 1.100000 28.08600
12634 SI 12634 SI SI1 12634 1.100000 28.08600
12635 SI 12635 SI SI1 12635 1.100000 28.08600
12636 SI 12636 SI SI1 12636 1.100000 28.08600
12637 SI 12637 SI SI1 12637 1.100000 28.08600
12638 SI 12638 SI SI1 12638 1.100000 28.08600
12639 SI 12639 SI SI1 12639 1.100000 28.08600
12640 SI 12640 SI SI1 12640 1.100000 28.08600
12641 SI 12641 SI SI1 12641 1.100000 28.08600
12642 SI 12642 SI SI1 12642 1.100000 28.08600
12643 SI 12643 SI SI1 12643 1.100000 28.08600
12644 SI 12644 SI SI1 12644 1.100000 28.08600
12645 SI 12645 SI SI1 12645 1.100000 28.08600
12646 SI 12646 SI SI1 12646 1.100000 28.08600
12647 SI 12647 SI SI1 12647 1.100000 28.08600
12648 SI 12648 SI SI1 12648 1.100000 28.08600
12649 SI 12649 SI SI1 12649 1.100000 28.08600
12650 SI 12650 SI SI1 12650 1.100000 28.08600
12651 SI 12651 SI SI1 12651 1.100000 28.08600
12652 SI 12652 SI SI1 12652 1.100000 28.08600
12653 SI 12653 SI SI1 12653 1.100000 28.08600
12654 SI 12654 SI SI1 12654 1.100000 28.08600
12655 SI 12655 SI SI1 12655 1.100000 28.08600
12656 SI 12656 SI SI1 12656 1.100000 28.08600
12657 SI 12657 SI SI1 12657 1.100000 28.08600
12658 SI 12658 SI SI1 12658 1.100000 28.08600
12659 SI 12659 SI SI1 12659 1.100000 28.08600
12660 SI 12660 SI SI1 12660 1.100000 28.08600
12661 SI 12661 SI SI1 12661 1.100000 28.08600
12662 SI 12662 SI SI1 12662 1.100000 28.08600
12663 SI 12663 SI SI1 12663 1.100000 28.08600
12664 SI 12664 SI SI1 12664 1.100000 28.08600
12665 SI 12665 SI SI1 12665 1.100000 28.08600
12666 SI 12666 SI SI1 12666 1.100000 28.08600
12667 SI 12667 SI SI1 12667 1.100000 28.08600
12668 SI 12668 SI SI1 12668 1.100000 28.08600
12669 SI 12669 SI SI1 12669 1.100000 28.08600
12670 SI 12670 SI SI1 12670 1.100000 28.08600
12671 SI 12671 SI SI1 12671 1.100000 28.08600
12672 SI 12672 SI SI1 12672 1.100000 28.08600
12673 SI 12673 SI SI1 12673 1.100000 28.08600
12674 SI 12674 SI SI1 12674 1.100000 28.08600
12675 SI 12675 SI SI1 12675 1.100000 28.08600
12676 SI 12676 SI SI1 12676 1.100000 28.08600
12677 SI 12677 SI SI1 12677 1.100000 28.08600
12678 SI 12678 SI SI1 12678 1.100000 28.08600
12679 SI 12679 SI SI1 12679 1.100000 28.08600
12680 SI 12680 SI SI1 12680 1.100000 28.08600
12681 SI 12681 SI SI1 12681 1.100000 28.08600
12682 SI 12682 SI SI1 12682 1.100000 28.08600
12683 SI 12683 SI SI1 12683 1.100000 28.08600
12684 SI 12684 SI SI1 12684 1.100000 28.08600
12685 SI 12685 SI SI1 12685 1.100000 28.08600
12686 SI 12686 SI SI1 12686 1.100000 28.08600
12687 SI 12687 SI SI1 12687 1.100000 28.08600
12688 SI 12688 SI SI1 12688 1.100000 28.08600
12689 SI 12689 SI SI1 12689 1.100000 28.08600
12690 SI 12690 SI SI1 12690 1.100000 28.08600
12691 SI 12691 SI SI1 12691 1.100000 28.08600
12692 SI 12692 SI SI1 12692 1.100000 28.08600
12693 SI 12693 SI SI1 12693 1.100000 28.08600
12694 SI 12694 SI SI1 12694 1.100000 28.08600
12695 SI 12695 SI SI1 12695 1.100000 28.08600
12696 SI 12696 SI SI1 12696 1.100000 28.08600
12697 SI 12697 SI SI1 12697 1.100000 28.08600
12698 SI 12698 SI SI1 12698 1.100000 28.08600
12699 SI 12699 SI SI1 12699 1.100000 28.08600
12700 SI 12700 SI SI1 12700 1.100000 28.08600
12701 SI 12701 SI SI1 12701 1.100000 28.08600
12702 SI 12702 SI SI1 12702 1.100000 28.08600
12703 SI 12703 SI SI1 12703 1.100000 28.08600
12704 SI 12704 SI SI1 12704 1.100000 28.08600
12705 SI 12705 SI SI1 12705 1.100000 28.08600
12706 SI 12706 SI SI1 12706 1.100000 28.08600
12707 SI 12707 SI SI1 12707 1.100000 28.08600
12708 SI 12708 SI SI1 12708 1.100000 28.08600
12709 SI 12709 SI SI1 12709 1.100000 28.08600
12710 SI 12710 SI SI1 12710 1.100000 28.08600
12711 SI 12711 SI SI1 12711 1.100000 28.08600
12712 SI 12712 SI SI1 12712 1.100000 28.08600
12713 SI 12713 SI SI1 12713 1.100000 28.08600
12714 SI 12714 SI SI1 12714 1.100000 28.08600
12715 SI 12715 SI SI1 12715 1.100000 28.08600
12716 SI 12716 SI SI1 12716 1.100000 28.08600
12717 SI 12717 SI SI1 12717 1.100000 28.08600
12718 SI 12718 SI SI1 12718 1.100000 28.08600
12719 SI 12719 SI SI1 12719 1.100000 28.08600
12720 SI 12720 SI SI1 12720 1.100000 28.08600
12721 SI 12721 SI SI1 12721 1.100000 28.08600
12722 SI 12722 SI SI1 12722 1.100000 28.08600
12723 SI 12723 SI SI1 12723 1.100000 28.08600
12724 SI 12724 SI SI1 12724 1.100000 28.08600
12725 SI 12725 SI SI1 12725 1.100000 28.08600
12726 SI 12726 SI SI1 12726 1.100000 28.08600
12727 SI 12727 SI SI1 12727 1.100000 28.08600
12728 SI 12728 SI SI1 12728 1.100000 28.08600
12729 SI 12729 SI SI1 12729 1.100000 28.08600
12730 SI 12730 SI SI1 12730 1.100000 28.08600
12731 SI 12731 SI SI1 12731 1.100000 28.08600
12732 SI 12732 SI SI1 12732 1.100000 28.08600
12733 SI 12733 SI SI1 12733 1.100000 28.08600
12734 SI 12734 SI SI1 12734 1.100000 28.08600
12735 SI 12735 SI SI1 12735 1.100000 28.08600
12736 SI 12736 SI SI1 12736 1.100000 28.08600
12737 SI 12737 SI SI1 12737 1.100000 28.08600
12738 SI 12738 SI SI1 12738 1.100000 28.08600
12739 SI 12739 SI SI1 12739 1.100000 28.08600
12740 SI 12740 SI SI1 12740 1.100000 28.08600
12741 SI 12741 SI SI1 12741 1.100000 28.08600
12742 SI 12742 SI SI1 12742 1.100000 28.08600
12743 SI 12743 SI SI1 12743 1.100000 28.08600
12744 SI 12744 SI SI1 12744 1.100000 28.08600
12745 SI 12745 SI SI1 12745 1.100000 28.08600
12746 SI 12746 SI SI1 12746 1.100000 28.08600
12747 SI 12747 SI SI1 12747 1.100000 28.08600
12748 SI 12748 SI SI1 12748 1.100000 28.08600
12749 SI 12749 SI SI1 12749 1.100000 28.08600
12750 SI 12750 SI SI1 12750 1.100000 28.08600
12751 SI 12751 SI SI1 12751 1.100000 28.08600
12752 SI 12752 SI SI1 12752 1.100000 28.08600
12753 SI 12753 SI SI1 12753 1.100000 28.08600
12754 SI 12754 SI SI1 12754 1.100000 28.08600
12755 SI 12755 SI SI1 12755 1.100000 28.08600
12756 SI 12756 SI SI1 12756 1.100000 28.08600
12757 SI 12757 SI SI1 12757 1.100000 28.08600
12758 SI 12758 SI SI1 12758 1.100000 28.08600
12759 SI 12759 SI SI1 12759 1.100000 28.08600
12760 SI 12760 SI SI1 12760 1.100000 28.08600
12761 SI 12761 SI SI1 12761 1.100000 28.08600
12762 SI 12762 SI SI1 12762 1.100000 28.08600
12763 SI 12763 SI SI1 12763 1.100000 28.08600
12764 SI 12764 SI SI1 12764 1.100000 28.08600
12765 SI 12765 SI SI1 12765 1.100000 28.08600
12766 SI 12766 SI SI1 12766 1.100000 28.08600
12767 SI 12767 SI SI1 12767 1.100000 28.08600
12768 SI 12768 SI SI1 12768 1.100000 28.08600
12769 SI 12769 SI SI1 12769 1.100000 28.08600
12770 SI 12770 SI SI1 12770 1.100000 28.08600
12771 SI 12771 SI SI1 12771 1.100000 28.08600
12772 SI 12772 SI SI1 12772 1.100000 28.08600
12773 SI 12773 SI SI1 12773 1.100000 28.08600
12774 SI 12774 SI SI1 12774 1.100000 28.08600
12775 SI 12775 SI SI1 12775 1.100000 28.08600
12776 SI 12776 SI SI1 12776 1.100000 28.08600
12777 SI 12777 SI SI1 12777 1.100000 28.08600
12778 SI 12778 SI SI1 12778 1.100000 28.08600
12779 SI 12779 SI SI1 12779 1.100000 28.08600
12780 SI 12780 SI SI1 12780 1.100000 28.08600
12781 SI 12781 SI SI1 12781 1.100000 28.08600
12782 SI 12782 SI SI1 12782 1.100000 28.08600
12783 SI 12783 SI SI1 12783 1.100000 28.08600
12784 SI 12784 SI SI1 12784 1.100000 28.08600
12785 SI 12785 SI SI1 12785 1.100000 28.08600
12786 SI 12786 SI SI1 12786 1.100000 28.08600
12787 SI 12787 SI SI1 12787 1.100000 28.08600
12788 SI 12788 SI SI1 12788 1.100000 28.08600
12789 SI 12789 SI SI1 12789 1.100000 28.08600
12790 SI 12790 SI SI1 12790 1.100000 28.08600
12791 SI 12791 SI SI1 12791 1.100000 28.08600
12792 SI 12792 SI SI1 12792 1.100000 28.08600
12793 SI 12793 SI SI1 12793 1.100000 28.08600
12794 SI 12794 SI SI1 12794 1.100000 28.08600
12795 SI 12795 SI SI1 12795 1.100000 28.08600
12796 SI 12796 SI SI1 12796 1.100000 28.08600
12797 SI 12797 SI SI1 12797 1.100000 28.08600
12798 SI 12798 SI SI1 12798 1.100000 28.08600
12799 SI 12799 SI SI1 12799 1.100000 28.08600
12800 SI 12800 SI SI1 12800 1.100000 28.08600
12801 SI 12801 SI SI1 12801 1.100000 28.08600
12802 SI 12802 SI SI1 12802 1.100000 28.08600
12803 SI 12803 SI SI1 12803 1.100000 28.08600
12804 SI 12804 SI SI1 12804 1.100000 28.08600
12805 SI 12805 SI SI1 12805 1.100000 28.08600
12806 SI 12806 SI SI1 12806 1.100000 28.08600
12807 SI 12807 SI SI1 12807 1.100000 28.08600
12808 SI 12808 SI SI1 12808 1.100000 28.08600
12809 SI 12809 SI SI1 12809 1.100000 28.08600
12810 SI 12810 SI SI1 12810 1.100000 28.08600
12811 SI 12811 SI SI1 12811 1.100000 28.08600
12812 SI 12812 SI SI1 12812 1.100000 28.08600
12813 SI 12813 SI SI1 12813 1.100000 28.08600
12814 SI 12814 SI SI1 12814 1.100000 28.08600
12815 SI 12815 SI SI1 12815 1.100000 28.08600
12816 SI 12816 SI SI1 12816 1.100000 28.08600
12817 SI 12817 SI SI1 12817 1.100000 28.08600
12818 SI 12818 SI SI1 12818 1.100000 28.08600
12819 SI 12819 SI SI1 12819 1.100000 28.08600
12820 SI 12820 SI SI1 12820 1.100000 28.08600
12821 SI 12821 SI SI1 12821 1.100000 28.08600
12822 SI 12822 SI SI1 12822 1.100000 28.08600
12823 SI 12823 SI SI1 12823 1.100000 28.08600
12824 SI 12824 SI SI1 12824 1.100000 28.08600
12825 SI 12825 SI SI1 12825 1.100000 28.08600
12826 SI 12826 SI SI1 12826 1.100000 28.08600
12827 SI 12827 SI SI1 12827 1.100000 28.08600
12828 SI 12828 SI SI1 12828 1.100000 28.08600
12829 SI 12829 SI SI1 12829 1.100000 28.08600
12830 SI 12830 SI SI1 12830 1.100000 28.08600
12831 SI 12831 SI SI1 12831 1.100000 28.08600
12832 SI 12832 SI SI1 12832 1.100000 28.08600
12833 SI 12833 SI SI1 12833 1.100000 28.08600
12834 SI 12834 SI SI1 12834 1.100000 28.08600
12835 SI 12835 SI SI1 12835 1.100000 28.08600
12836 SI 12836 SI SI1 12836 1.100000 28.08600
12837 SI 12837 SI SI1 12837 1.100000 28.08600
12838 SI 12838 SI SI1 12838 1.100000 28.08600
12839 SI 12839 SI SI1 12839 1.100000 28.08600
12840 SI 12840 SI SI1 12840 1.100000 28.08600
12841 SI 12841 SI SI1 12841 1.100000 28.08600
12842 SI 12842 SI SI1 12842 1.100000 28.08600
12843 SI 12843 SI SI1 12843 1.100000 28.08600
12844 SI 12844 SI SI1 12844 1.100000 28.08600
12845 SI 12845 SI SI1 12845 1.100000 28.08600
12846 SI 12846 SI SI1 12846 1.100000 28.08600
12847 SI 12847 SI SI1 12847 1.100000 28.08600
12848 SI 12848 SI SI1 12848 1.100000 28.08600
12849 SI 12849 SI SI1 12849 1.100000 28.08600
12850 SI 12850 SI SI1 12850 1.100000 28.08600
12851 SI 12851 SI SI1 12851 1.100000 28.08600
12852 SI 12852 SI SI1 12852 1.100000 28.08600
12853 SI 12853 SI SI1 12853 1.100000 28.08600
12854 SI 12854 SI SI1 12854 1.100000 28.08600
12855 SI 12855 SI SI1 12855 1.100000 28.08600
12856 SI 12856 SI SI1 12856 1.100000 28.08600
12857 SI 12857 SI SI1 12857 1.100000 28.08600
12858 SI 12858 SI SI1 12858 1.100000 28.08600
12859 SI 12859 SI SI1 12859 1.100000 28.08600
12860 SI 12860 SI SI1 12860 1.100000 28.08600
12861 SI 12861 SI SI1 12861 1.100000 28.08600
12862 SI 12862 SI SI1 12862 1.100000 28.08600
12863 SI 12863 SI SI1 12863 1.100000 28.08600
12864 SI 12864 SI SI1 12864 1.100000 28.08600
12865 SI 12865 SI SI1 12865 1.100000 28.08600
12866 SI 12866 SI SI1 12866 1.100000 28.08600
12867 SI 12867 SI SI1 12867 1.100000 28.08600
12868 SI 12868 SI SI1 12868 1.100000 28.08600
12869 SI 12869 SI SI1 12869 1.100000 28.08600
12870 SI 12870 SI SI1 12870 1.100000 28.08600
12871 SI 12871 SI SI1 12871 1.100000 28.08600
12872 SI 12872 SI SI1 12872 1.100000 28.08600
12873 SI 12873 SI SI1 12873 1.100000 28.08600
12874 SI 12874 SI SI1 12874 1.100000 28.08600
12875 SI 12875 SI SI1 12875 1.100000 28.08600
12876 SI 12876 SI SI1 12876 1.100000 28.08600
12877 SI 12877 SI SI1 12877 1.100000 28.08600
12878 SI 12878 SI SI1 12878 1.100000 28.08600
12879 SI 12879 SI SI1 12879 1.100000 28.08600
12880 SI 12880 SI SI1 12880 1.100000 28.08600
12881 SI 12881 SI SI1 12881 1.100000 28.08600
12882 SI 12882 SI SI1 12882 1.100000 28.08600
12883 SI 12883 SI SI1 12883 1.100000 28.08600
12884 SI 12884 SI SI1 12884 1.100000 28.08600
12885 SI 12885 SI SI1 12885 1.100000 28.08600
12886 SI 12886 SI SI1 12886 1.100000 28.08600
12887 SI 12887 SI SI1 12887 1.100000 28.08600
12888 SI 12888 SI SI1 12888 1.100000 28.08600
12889 SI 12889 SI SI1 12889 1.100000 28.08600
12890 SI 12890 SI SI1 12890 1.100000 28.08600
12891 SI 12891 SI SI1 12891 1.100000 28.08600
12892 SI 12892 SI SI1 12892 1.100000 28.08600
12893 SI 12893 SI SI1 12893 1.100000 28.08600
12894 SI 12894 SI SI1 12894 1.100000 28.08600
12895 SI 12895 SI SI1 12895 1.100000 28.08600
12896 SI 12896 SI SI1 12896 1.100000 28.08600
12897 SI 12897 SI SI1 12897 1.100000 28.08600
12898 SI 12898 SI SI1 12898 1.100000 28.08600
12899 SI 12899 SI SI1 12899 1.100000 28.08600
12900 SI 12900 SI SI1 12900 1.100000 28.08600
12901 SI 12901 SI SI1 12901 1.100000 28.08600
12902 SI 12902 SI SI1 12902 1.100000 28.08600
12903 SI 12903 SI SI1 12903 1.100000 28.08600
12904 SI 12904 SI SI1 12904 1.100000 28.08600
12905 SI 12905 SI SI1 12905 1.100000 28.08600
12906 SI 12906 SI SI1 12906 1.100000 28.08600
12907 SI 12907 SI SI1 12907 1.100000 28.08600
12908 SI 12908 SI SI1 12908 1.100000 28.08600
12909 SI 12909 SI SI1 12909 1.100000 28.08600
12910 SI 12910 SI SI1 12910 1.100000 28.08600
12911 SI 12911 SI SI1 12911 1.100000 28.08600
12912 SI 12912 SI SI1 12912 1.100000 28.08600
12913 SI 12913 SI SI1 12913 1.100000 28.08600
12914 SI 12914 SI SI1 12914 1.100000 28.08600
12915 SI 12915 SI SI1 12915 1.100000 28.08600
12916 SI 12916 SI SI1 12916 1.100000 28.08600
12917 SI 12917 SI SI1 12917 1.100000 28.08600
12918 SI 12918 SI SI1 12918 1.100000 28.08600
12919 SI 12919 SI SI1 12919 1.100000 28.08600
12920 SI 12920 SI SI1 12920 1.100000 28.08600
12921 SI 12921 SI SI1 12921 1.100000 28.08600
12922 SI 12922 SI SI1 12922 1.100000 28.08600
12923 SI 12923 SI SI1 12923 1.100000 28.08600
12924 SI 12924 SI SI1 12924 1.100000 28.08600
12925 SI 12925 SI SI1 12925 1.100000 28.08600
12926 SI 12926 SI SI1 12926 1.100000 28.08600
12927 SI 12927 SI SI1 12927 1.100000 28.08600
12928 SI 12928 SI SI1 12928 1.100000 28.08600
12929 SI 12929 SI SI1 12929 1.100000 28.08600
12930 SI 12930 SI SI1 12930 1.100000 28.08600
12931 SI 12931 SI SI1 12931 1.100000 28.08600
12932 SI 12932 SI SI1 12932 1.100000 28.08600
12933 SI 12933 SI SI1 12933 1.100000 28.08600
12934 SI 12934 SI SI1 12934 1.100000 28.08600
12935 SI 12935 SI SI1 12935 1.100000 28.08600
12936 SI 12936 SI SI1 12936 1.100000 28.08600
12937 SI 12937 SI SI1 12937 1.100000 28.08600
12938 SI 12938 SI SI1 12938 1.100000 28.08600
12939 SI 12939 SI SI1 12939 1.100000 28.08600
12940 SI 12940 SI SI1 12940 1.100000 28.08600
12941 SI 12941 SI SI1 12941 1.100000 28.08600
12942 SI 12942 SI SI1 12942 1.100000 28.08600
12943 SI 12943 SI SI1 12943 1.100000 28.08600
12944 SI 12944 SI SI1 12944 1.100000 28.08600
12945 SI 12945 SI SI1 12945 1.100000 28.08600
12946 SI 12946 SI SI1 12946 1.100000 28.08600
12947 SI 12947 SI SI1 12947 1.100000 28.08600
12948 SI 12948 SI SI1 12948 1.100000 28.08600
12949 SI 12949 SI SI1 12949 1.100000 28.08600
12950 SI 12950 SI SI1 12950 1.100000 28.08600
12951 SI 12951 SI SI1 12951 1.100000 28.08600
12952 SI 12952 SI SI1 12952 1.100000 28.08600
12953 SI 12953 SI SI1 12953 1.100000 28.08600
12954 SI 12954 SI SI1 12954 1.100000 28.08600
12955 SI 12955 SI SI1 12955 1.100000 28.08600
12956 SI 12956 SI SI1 12956 1.100000 28.08600
12957 SI 12957 SI SI1 12957 1.100000 28.08600
12958 SI 12958 SI SI1 12958 1.100000 28.08600
12959 SI 12959 SI SI1 12959 1.100000 28.08600
12960 SI 12960 SI SI1 12960 1.100000 28.08600
12961 SI 12961 SI SI1 12961 1.100000 28.08600
12962 SI 12962 SI SI1 12962 1.100000 28.08600
12963 SI 12963 SI SI1 12963 1.100000 28.08600
12964 SI 12964 SI SI1 12964 1.100000 28.08600
12965 SI 12965 SI SI1 12965 1.100000 28.08600
12966 SI 12966 SI SI1 12966 1.100000 28.08600
12967 SI 12967 SI SI1 12967 1.100000 28.08600
12968 SI 12968 SI SI1 12968 1.100000 28.08600
12969 SI 12969 SI SI1 12969 1.100000 28.08600
12970 SI 12970 SI SI1 12970 1.100000 28.08600
12971 SI 12971 SI SI1 12971 1.100000 28.08600
12972 SI 12972 SI SI1 12972 1.100000 28.08600
12973 SI 12973 SI SI1 12973 1.100000 28.08600
12974 SI 12974 SI SI1 12974 1.100000 28.08600
12975 SI 12975 SI SI1 12975 1.100000 28.08600
12976 SI 12976 SI SI1 12976 1.100000 28.08600
12977 SI 12977 SI SI1 12977 1.100000 28.08600
12978 SI 12978 SI SI1 12978 1.100000 28.08600
12979 SI 12979 SI SI1 12979 1.100000 28.08600
12980 SI 12980 SI SI1 12980 1.100000 28.08600
12981 SI 12981 SI SI1 12981 1.100000 28.08600
12982 SI 12982 SI SI1 12982 1.100000 28.08600
12983 SI 12983 SI SI1 12983 1.100000 28.08600
12984 SI 12984 SI SI1 12984 1.100000 28.08600
12985 SI 12985 SI SI1 12985 1.100000 28.08600
12986 SI 12986 SI SI1 12986 1.100000 28.08600
12987 SI 12987 SI SI1 12987 1.100000 28.08600
12988 SI 12988 SI SI1 12988 1.100000 28.08600
12989 SI 12989 SI SI1 12989 1.100000 28.08600
12990 SI 12990 SI SI1 12990 1.100000 28.08600
12991 SI 12991 SI SI1 12991 1.100000 28.08600
12992 SI 12992 SI SI1 12992 1.100000 28.08600
12993 SI 12993 SI SI1 12993 1.100000 28.08600
12994 SI 12994 SI SI1 12994 1.100000 28.08600
12995 SI 12995 SI SI1 12995 1.100000 28.08600
12996 SI 12996 SI SI1 12996 1.100000 28.08600
12997 SI 12997 SI SI1 12997 1.100000 28.08600
12998 SI 12998 SI SI1 12998 1.100000 28.08600
12999 SI 12999 SI SI1 12999 1.100000 28.08600
13000 SI 13000 SI SI1 13000 1.100000 28.08600
13001 SI 13001 SI SI1 13001 1.100000 28.08600
13002 SI 13002 SI SI1 13002 1.100000 28.08600
13003 SI 13003 SI SI1 13003 1.100000 28.08600
13004 SI 13004 SI SI1 13004 1.100000 28.08600
13005 SI 13005 SI SI1 13005 1.100000 28.08600
13006 SI 13006 SI SI1 13006 1.100000 28.08600
13007 SI 13007 SI SI1 13007 1.100000 28.08600
13008 SI 13008 SI SI1 13008 1.100000 28.08600
13009 SI 13009 SI SI1 13009 1.100000 28.08600
13010 SI 13010 SI SI1 13010 1.100000 28.08600
13011 SI 13011 SI SI1 13011 1.100000 28.08600
13012 SI 13012 SI SI1 13012 1.100000 28.08600
13013 SI 13013 SI SI1 13013 1.100000 28.08600
13014 SI 13014 SI SI1 13014 1.100000 28.08600
13015 SI 13015 SI SI1 13015 1.100000 28.08600
13016 SI 13016 SI SI1 13016 1.100000 28.08600
13017 SI 13017 SI SI1 13017 1.100000 28.08600
13018 SI 13018 SI SI1 13018 1.100000 28.08600
13019 SI 13019 SI SI1 13019 1.100000 28.08600
13020 SI 13020 SI SI1 13020 1.100000 28.08600
13021 SI 13021 SI SI1 13021 1.100000 28.08600
13022 SI 13022 SI SI1 13022 1.100000 28.08600
13023 SI 13023 SI SI1 13023 1.100000 28.08600
13024 SI 13024 SI SI1 13024 1.100000 28.08600
13025 SI 13025 SI SI1 13025 1.100000 28.08600
13026 SI 13026 SI SI1 13026 1.100000 28.08600
13027 SI 13027 SI SI1 13027 1.100000 28.08600
13028 SI 13028 SI SI1 13028 1.100000 28.08600
13029 SI 13029 SI SI1 13029 1.100000 28.08600
13030 SI 13030 SI SI1 13030 1.100000 28.08600
13031 SI 13031 SI SI1 13031 1.100000 28.08600
13032 SI 13032 SI SI1 13032 1.100000 28.08600
13033 SI 13033 SI SI1 13033 1.100000 28.08600
13034 SI 13034 SI SI1 13034 1.100000 28.08600
13035 SI 13035 SI SI1 13035 1.100000 28.08600
13036 SI 13036 SI SI1 13036 1.100000 28.08600
13037 SI 13037 SI SI1 13037 1.100000 28.08600
13038 SI 13038 SI SI1 13038 1.100000 28.08600
13039 SI 13039 SI SI1 13039 1.100000 28.08600
13040 SI 13040 SI SI1 13040 1.100000 28.08600
13041 SI 13041 SI SI1 13041 1.100000 28.08600
13042 SI 13042 SI SI1 13042 1.100000 28.08600
13043 SI 13043 SI SI1 13043 1.100000 28.08600
13044 SI 13044 SI SI1 13044 1.100000 28.08600
13045 SI 13045 SI SI1 13045 1.100000 28.08600
13046 SI 13046 SI SI1 13046 1.100000 28.08600
13047 SI 13047 SI SI1 13047 1.100000 28.08600
13048 SI 13048 SI SI1 13048 1.100000 28.08600
13049 SI 13049 SI SI1 13049 1.100000 28.08600
13050 SI 13050 SI SI1 13050 1.100000 28.08600
13051 SI 13051 SI SI1 13051 1.100000 28.08600
13052 SI 13052 SI SI1 13052 1.100000 28.08600
13053 SI 13053 SI SI1 13053 1.100000 28.08600
13054 SI 13054 SI SI1 13054 1.100000 28.08600
13055 SI 13055 SI SI1 13055 1.100000 28.08600
13056 SI 13056 SI SI1 13056 1.100000 28.08600
13057 SI 13057 SI SI1 13057 1.100000 28.08600
13058 SI 13058 SI SI1 13058 1.100000 28.08600
13059 SI 13059 SI SI1 13059 1.100000 28.08600
13060 SI 13060 SI SI1 13060 1.100000 28.08600
13061 SI 13061 SI SI1 13061 1.100000 28.08600
13062 SI 13062 SI SI1 13062 1.100000 28.08600
13063 SI 13063 SI SI1 13063 1.100000 28.08600
13064 SI 13064 SI SI1 13064 1.100000 28.08600
13065 SI 13065 SI SI1 13065 1.100000 28.08600
13066 SI 13066 SI SI1 13066 1.100000 28.08600
13067 SI 13067 SI SI1 13067 1.100000 28.08600
13068 SI 13068 SI SI1 13068 1.100000 28.08600
13069 SI 13069 SI SI1 13069 1.100000 28.08600
13070 SI 13070 SI SI1 13070 1.100000 28.08600
13071 SI 13071 SI SI1 13071 1.100000 28.08600
13072 SI 13072 SI SI1 13072 1.100000 28.08600
13073 SI 13073 SI SI1 13073 1.100000 28.08600
13074 SI 13074 SI SI1 13074 1.100000 28.08600
13075 SI 13075 SI SI1 13075 1.100000 28.08600
13076 SI 13076 SI SI1 13076 1.100000 28.08600
13077 SI 13077 SI SI1 13077 1.100000 28.08600
13078 SI 13078 SI SI1 13078 1.100000 28.08600
13079 SI 13079 SI SI1 13079 1.100000 28.08600
13080 SI 13080 SI SI1 13080 1.100000 28.08600
13081 SI 13081 SI SI1 13081 1.100000 28.08600
13082 SI 13082 SI SI1 13082 1.100000 28.08600
13083 SI 13083 SI SI1 13083 1.100000 28.08600
13084 SI 13084 SI SI1 13084 1.100000 28.08600
13085 SI 13085 SI SI1 13085 1.100000 28.08600
13086 SI 13086 SI SI1 13086 1.100000 28.08600
13087 SI 13087 SI SI1 13087 1.100000 28.08600
13088 SI 13088 SI SI1 13088 1.100000 28.08600
13089 SI 13089 SI SI1 13089 1.100000 28.08600
13090 SI 13090 SI SI1 13090 1.100000 28.08600
13091 SI 13091 SI SI1 13091 1.100000 28.08600
13092 SI 13092 SI SI1 13092 1.100000 28.08600
13093 SI 13093 SI SI1 13093 1.100000 28.08600
13094 SI 13094 SI SI1 13094 1.100000 28.08600
13095 SI 13095 SI SI1 13095 1.100000 28.08600
13096 SI 13096 SI SI1 13096 1.100000 28.08600
13097 SI 13097 SI SI1 13097 1.100000 28.08600
13098 SI 13098 SI SI1 13098 1.100000 28.08600
13099 SI 13099 SI SI1 13099 1.100000 28.08600
13100 SI 13100 SI SI1 13100 1.100000 28.08600
13101 SI 13101 SI SI1 13101 1.100000 28.08600
13102 SI 13102 SI SI1 13102 1.100000 28.08600
13103 SI 13103 SI SI1 13103 1.100000 28.08600
13104 SI 13104 SI SI1 13104 1.100000 28.08600
13105 SI 13105 SI SI1 13105 1.100000 28.08600
13106 SI 13106 SI SI1 13106 1.100000 28.08600
13107 SI 13107 SI SI1 13107 1.100000 28.08600
13108 SI 13108 SI SI1 13108 1.100000 28.08600
13109 SI 13109 SI SI1 13109 1.100000 28.08600
13110 SI 13110 SI SI1 13110 1.100000 28.08600
13111 SI 13111 SI SI1 13111 1.100000 28.08600
13112 SI 13112 SI SI1 13112 1.100000 28.08600
13113 SI 13113 SI SI1 13113 1.100000 28.08600
13114 SI 13114 SI SI1 13114 1.100000 28.08600
13115 SI 13115 SI SI1 13115 1.100000 28.08600
13116 SI 13116 SI SI1 13116 1.100000 28.08600
13117 SI 13117 SI SI1 13117 1.100000 28.08600
13118 SI 13118 SI SI1 13118 1.100000 28.08600
13119 SI 13119 SI SI1 13119 1.100000 28.08600
13120 SI 13120 SI SI1 13120 1.100000 28.08600
13121 SI 13121 SI SI1 13121 1.100000 28.08600
13122 SI 13122 SI SI1 13122 1.100000 28.08600
13123 SI 13123 SI SI1 13123 1.100000 28.08600
13124 SI 13124 SI SI1 13124 1.100000 28.08600
13125 SI 13125 SI SI1 13125 1.100000 28.08600
13126 SI 13126 SI SI1 13126 1.100000 28.08600
13127 SI 13127 SI SI1 13127 1.100000 28.08600
13128 SI 13128 SI SI1 13128 1.100000 28.08600
13129 SI 13129 SI SI1 13129 1.100000 28.08600
13130 SI 13130 SI SI1 13130 1.100000 28.08600
13131 SI 13131 SI SI1 13131 1.100000 28.08600
13132 SI 13132 SI SI1 13132 1.100000 28.08600
13133 SI 13133 SI SI1 13133 1.100000 28.08600
13134 SI 13134 SI SI1 13134 1.100000 28.08600
13135 SI 13135 SI SI1 13135 1.100000 28.08600
13136 SI 13136 SI SI1 13136 1.100000 28.08600
13137 SI 13137 SI SI1 13137 1.100000 28.08600
13138 SI 13138 SI SI1 13138 1.100000 28.08600
13139 SI 13139 SI SI1 13139 1.100000 28.08600
13140 SI 13140 SI SI1 13140 1.100000 28.08600
13141 SI 13141 SI SI1 13141 1.100000 28.08600
13142 SI 13142 SI SI1 13142 1.100000 28.08600
13143 SI 13143 SI SI1 13143 1.100000 28.08600
13144 SI 13144 SI SI1 13144 1.100000 28.08600
13145 SI 13145 SI SI1 13145 1.100000 28.08600
13146 SI 13146 SI SI1 13146 1.100000 28.08600
13147 SI 13147 SI SI1 13147 1.100000 28.08600
13148 SI 13148 SI SI1 13148 1.100000 28.08600
13149 SI 13149 SI SI1 13149 1.100000 28.08600
13150 SI 13150 SI SI1 13150 1.100000 28.08600
13151 SI 13151 SI SI1 13151 1.100000 28.08600
13152 SI 13152 SI SI1 13152 1.100000 28.08600
13153 SI 13153 SI SI1 13153 1.100000 28.08600
13154 SI 13154 SI SI1 13154 1.100000 28.08600
13155 SI 13155 SI SI1 13155 1.100000 28.08600
13156 SI 13156 SI SI1 13156 1.100000 28.08600
13157 SI 13157 SI SI1 13157 1.100000 28.08600
13158 SI 13158 SI SI1 13158 1.100000 28.08600
13159 SI 13159 SI SI1 13159 1.100000 28.08600
13160 SI 13160 SI SI1 13160 1.100000 28.08600
13161 SI 13161 SI SI1 13161 1.100000 28.08600
13162 SI 13162 SI SI1 13162 1.100000 28.08600
13163 SI 13163 SI SI1 13163 1.100000 28.08600
13164 SI 13164 SI SI1 13164 1.100000 28.08600
13165 SI 13165 SI SI1 13165 1.100000 28.08600
13166 SI 13166 SI SI1 13166 1.100000 28.08600
13167 SI 13167 SI SI1 13167 1.100000 28.08600
13168 SI 13168 SI SI1 13168 1.100000 28.08600
13169 SI 13169 SI SI1 13169 1.100000 28.08600
13170 SI 13170 SI SI1 13170 1.100000 28.08600
13171 SI 13171 SI SI1 13171 1.100000 28.08600
13172 SI 13172 SI SI1 13172 1.100000 28.08600
13173 SI 13173 SI SI1 13173 1.100000 28.08600
13174 SI 13174 SI SI1 13174 1.100000 28.08600
13175 SI 13175 SI SI1 13175 1.100000 28.08600
13176 SI 13176 SI SI1 13176 1.100000 28.08600
13177 SI 13177 SI SI1 13177 1.100000 28.08600
13178 SI 13178 SI SI1 13178 1.100000 28.08600
13179 SI 13179 SI SI1 13179 1.100000 28.08600
13180 SI 13180 SI SI1 13180 1.100000 28.08600
13181 SI 13181 SI SI1 13181 1.100000 28.08600
13182 SI 13182 SI SI1 13182 1.100000 28.08600
13183 SI 13183 SI SI1 13183 1.100000 28.08600
13184 SI 13184 SI SI1 13184 1.100000 28.08600
13185 SI 13185 SI SI1 13185 1.100000 28.08600
13186 SI 13186 SI SI1 13186 1.100000 28.08600
13187 SI 13187 SI SI1 13187 1.100000 28.08600
13188 SI 13188 SI SI1 13188 1.100000 28.08600
13189 SI 13189 SI SI1 13189 1.100000 28.08600
13190 SI 13190 SI SI1 13190 1.100000 28.08600
13191 SI 13191 SI SI1 13191 1.100000 28.08600
13192 SI 13192 SI SI1 13192 1.100000 28.08600
13193 SI 13193 SI SI1 13193 1.100000 28.08600
13194 SI 13194 SI SI1 13194 1.100000 28.08600
13195 SI 13195 SI SI1 13195 1.100000 28.08600
13196 SI 13196 SI SI1 13196 1.100000 28.08600
13197 SI 13197 SI SI1 13197 1.100000 28.08600
13198 SI 13198 SI SI1 13198 1.100000 28.08600
13199 SI 13199 SI SI1 13199 1.100000 28.08600
13200 SI 13200 SI SI1 13200 1.100000 28.08600
13201 SI 13201 SI SI1 13201 1.100000 28.08600
13202 SI 13202 SI SI1 13202 1.100000 28.08600
13203 SI 13203 SI SI1 13203 1.100000 28.08600
13204 SI 13204 SI SI1 13204 1.100000 28.08600
13205 SI 13205 SI SI1 13205 1.100000 28.08600
13206 SI 13206 SI SI1 13206 1.100000 28.08600
13207 SI 13207 SI SI1 13207 1.100000 28.08600
13208 SI 13208 SI SI1 13208 1.100000 28.08600
13209 SI 13209 SI SI1 13209 1.100000 28.08600
13210 SI 13210 SI SI1 13210 1.100000 28.08600
13211 SI 13211 SI SI1 13211 1.100000 28.08600
13212 SI 13212 SI SI1 13212 1.100000 28.08600
13213 SI 13213 SI SI1 13213 1.100000 28.08600
13214 SI 13214 SI SI1 13214 1.100000 28.08600
13215 SI 13215 SI SI1 13215 1.100000 28.08600
13216 SI 13216 SI SI1 13216 1.100000 28.08600
13217 SI 13217 SI SI1 13217 1.100000 28.08600
13218 SI 13218 SI SI1 13218 1.100000 28.08600
13219 SI 13219 SI SI1 13219 1.100000 28.08600
13220 SI 13220 SI SI1 13220 1.100000 28.08600
13221 SI 13221 SI SI1 13221 1.100000 28.08600
13222 SI 13222 SI SI1 13222 1.100000 28.08600
13223 SI 13223 SI SI1 13223 1.100000 28.08600
13224 SI 13224 SI SI1 13224 1.100000 28.08600
13225 SI 13225 SI SI1 13225 1.100000 28.08600
13226 SI 13226 SI SI1 13226 1.100000 28.08600
13227 SI 13227 SI SI1 13227 1.100000 28.08600
13228 SI 13228 SI SI1 13228 1.100000 28.08600
13229 SI 13229 SI SI1 13229 1.100000 28.08600
13230 SI 13230 SI SI1 13230 1.100000 28.08600
13231 SI 13231 SI SI1 13231 1.100000 28.08600
13232 SI 13232 SI SI1 13232 1.100000 28.08600
13233 SI 13233 SI SI1 13233 1.100000 28.08600
13234 SI 13234 SI SI1 13234 1.100000 28.08600
13235 SI 13235 SI SI1 13235 1.100000 28.08600
13236 SI 13236 SI SI1 13236 1.100000 28.08600
13237 SI 13237 SI SI1 13237 1.100000 28.08600
13238 SI 13238 SI SI1 13238 1.100000 28.08600
13239 SI 13239 SI SI1 13239 1.100000 28.08600
13240 SI 13240 SI SI1 13240 1.100000 28.08600
13241 SI 13241 SI SI1 13241 1.100000 28.08600
13242 SI 13242 SI SI1 13242 1.100000 28.08600
13243 SI 13243 SI SI1 13243 1.100000 28.08600
13244 SI 13244 SI SI1 13244 1.100000 28.08600
13245 SI 13245 SI SI1 13245 1.100000 28.08600
13246 SI 13246 SI SI1 13246 1.100000 28.08600
13247 SI 13247 SI SI1 13247 1.100000 28.08600
13248 SI 13248 SI SI1 13248 1.100000 28.08600
13249 SI 13249 SI SI1 13249 1.100000 28.08600
13250 SI 13250 SI SI1 13250 1.100000 28.08600
13251 SI 13251 SI SI1 13251 1.100000 28.08600
13252 SI 13252 SI SI1 13252 1.100000 28.08600
13253 SI 13253 SI SI1 13253 1.100000 28.08600
13254 SI 13254 SI SI1 13254 1.100000 28.08600
13255 SI 13255 SI SI1 13255 1.100000 28.08600
13256 SI 13256 SI SI1 13256 1.100000 28.08600
13257 SI 13257 SI SI1 13257 1.100000 28.08600
13258 SI 13258 SI SI1 13258 1.100000 28.08600
13259 SI 13259 SI SI1 13259 1.100000 28.08600
13260 SI 13260 SI SI1 13260 1.100000 28.08600
13261 SI 13261 SI SI1 13261 1.100000 28.08600
13262 SI 13262 SI SI1 13262 1.100000 28.08600
13263 SI 13263 SI SI1 13263 1.100000 28.08600
13264 SI 13264 SI SI1 13264 1.100000 28.08600
13265 SI 13265 SI SI1 13265 1.100000 28.08600
13266 SI 13266 SI SI1 13266 1.100000 28.08600
13267 SI 13267 SI SI1 13267 1.100000 28.08600
13268 SI 13268 SI SI1 13268 1.100000 28.08600
13269 SI 13269 SI SI1 13269 1.100000 28.08600
13270 SI 13270 SI SI1 13270 1.100000 28.08600
13271 SI 13271 SI SI1 13271 1.100000 28.08600
13272 SI 13272 SI SI1 13272 1.100000 28.08600
13273 SI 13273 SI SI1 13273 1.100000 28.08600
13274 SI 13274 SI SI1 13274 1.100000 28.08600
13275 SI 13275 SI SI1 13275 1.100000 28.08600
13276 SI 13276 SI SI1 13276 1.100000 28.08600
13277 SI 13277 SI SI1 13277 1.100000 28.08600
13278 SI 13278 SI SI1 13278 1.100000 28.08600
13279 SI 13279 SI SI1 13279 1.100000 28.08600
13280 SI 13280 SI SI1 13280 1.100000 28.08600
13281 SI 13281 SI SI1 13281 1.100000 28.08600
13282 SI 13282 SI SI1 13282 1.100000 28.08600
13283 SI 13283 SI SI1 13283 1.100000 28.08600
13284 SI 13284 SI SI1 13284 1.100000 28.08600
13285 SI 13285 SI SI1 13285 1.100000 28.08600
13286 SI 13286 SI SI1 13286 1.100000 28.08600
13287 SI 13287 SI SI1 13287 1.100000 28.08600
13288 SI 13288 SI SI1 13288 1.100000 28.08600
13289 SI 13289 SI SI1 13289 1.100000 28.08600
13290 SI 13290 SI SI1 13290 1.100000 28.08600
13291 SI 13291 SI SI1 13291 1.100000 28.08600
13292 SI 13292 SI SI1 13292 1.100000 28.08600
13293 SI 13293 SI SI1 13293 1.100000 28.08600
13294 SI 13294 SI SI1 13294 1.100000 28.08600
13295 SI 13295 SI SI1 13295 1.100000 28.08600
13296 SI 13296 SI SI1 13296 1.100000 28.08600
13297 SI 13297 SI SI1 13297 1.100000 28.08600
13298 SI 13298 SI SI1 13298 1.100000 28.08600
13299 SI 13299 SI SI1 13299 1.100000 28.08600
13300 SI 13300 SI SI1 13300 1.100000 28.08600
13301 SI 13301 SI SI1 13301 1.100000 28.08600
13302 SI 13302 SI SI1 13302 1.100000 28.08600
13303 SI 13303 SI SI1 13303 1.100000 28.08600
13304 SI 13304 SI SI1 13304 1.100000 28.08600
13305 SI 13305 SI SI1 13305 1.100000 28.08600
13306 SI 13306 SI SI1 13306 1.100000 28.08600
13307 SI 13307 SI SI1 13307 1.100000 28.08600
13308 SI 13308 SI SI1 13308 1.100000 28.08600
13309 SI 13309 SI SI1 13309 1.100000 28.08600
13310 SI 13310 SI SI1 13310 1.100000 28.08600
13311 SI 13311 SI SI1 13311 1.100000 28.08600
13312 SI 13312 SI SI1 13312 1.100000 28.08600
13313 SI 13313 SI SI1 13313 1.100000 28.08600
13314 SI 13314 SI SI1 13314 1.100000 28.08600
13315 SI 13315 SI SI1 13315 1.100000 28.08600
13316 SI 13316 SI SI1 13316 1.100000 28.08600
13317 SI 13317 SI SI1 13317 1.100000 28.08600
13318 SI 13318 SI SI1 13318 1.100000 28.08600
13319 SI 13319 SI SI1 13319 1.100000 28.08600
13320 SI 13320 SI SI1 13320 1.100000 28.08600
13321 SI 13321 SI SI1 13321 1.100000 28.08600
13322 SI 13322 SI SI1 13322 1.100000 28.08600
13323 SI 13323 SI SI1 13323 1.100000 28.08600
13324 SI 13324 SI SI1 13324 1.100000 28.08600
13325 SI 13325 SI SI1 13325 1.100000 28.08600
13326 SI 13326 SI SI1 13326 1.100000 28.08600
13327 SI 13327 SI SI1 13327 1.100000 28.08600
13328 SI 13328 SI SI1 13328 1.100000 28.08600
13329 SI 13329 SI SI1 13329 1.100000 28.08600
13330 SI 13330 SI SI1 13330 1.100000 28.08600
13331 SI 13331 SI SI1 13331 1.100000 28.08600
13332 SI 13332 SI SI1 13332 1.100000 28.08600
13333 SI 13333 SI SI1 13333 1.100000 28.08600
13334 SI 13334 SI SI1 13334 1.100000 28.08600
13335 SI 13335 SI SI1 13335 1.100000 28.08600
13336 SI 13336 SI SI1 13336 1.100000 28.08600
13337 SI 13337 SI SI1 13337 1.100000 28.08600
13338 SI 13338 SI SI1 13338 1.100000 28.08600
13339 SI 13339 SI SI1 13339 1.100000 28.08600
13340 SI 13340 SI SI1 13340 1.100000 28.08600
13341 SI 13341 SI SI1 13341 1.100000 28.08600
13342 SI 13342 SI SI1 13342 1.100000 28.08600
13343 SI 13343 SI SI1 13343 1.100000 28.08600
13344 SI 13344 SI SI1 13344 1.100000 28.08600
13345 SI 13345 SI SI1 13345 1.100000 28.08600
13346 SI 13346 SI SI1 13346 1.100000 28.08600
13347 SI 13347 SI SI1 13347 1.100000 28.08600
13348 SI 13348 SI SI1 13348 1.100000 28.08600
13349 SI 13349 SI SI1 13349 1.100000 28.08600
13350 SI 13350 SI SI1 13350 1.100000 28.08600
13351 SI 13351 SI SI1 13351 1.100000 28.08600
13352 SI 13352 SI SI1 13352 1.100000 28.08600
13353 SI 13353 SI SI1 13353 1.100000 28.08600
13354 SI 13354 SI SI1 13354 1.100000 28.08600
13355 SI 13355 SI SI1 13355 1.100000 28.08600
13356 SI 13356 SI SI1 13356 1.100000 28.08600
13357 SI 13357 SI SI1 13357 1.100000 28.08600
13358 SI 13358 SI SI1 13358 1.100000 28.08600
13359 SI 13359 SI SI1 13359 1.100000 28.08600
13360 SI 13360 SI SI1 13360 1.100000 28.08600
13361 SI 13361 SI SI1 13361 1.100000 28.08600
13362 SI 13362 SI SI1 13362 1.100000 28.08600
13363 SI 13363 SI SI1 13363 1.100000 28.08600
13364 SI 13364 SI SI1 13364 1.100000 28.08600
13365 SI 13365 SI SI1 13365 1.100000 28.08600
13366 SI 13366 SI SI1 13366 1.100000 28.08600
13367 SI 13367 SI SI1 13367 1.100000 28.08600
13368 SI 13368 SI SI1 13368 1.100000 28.08600
13369 SI 13369 SI SI1 13369 1.100000 28.08600
13370 SI 13370 SI SI1 13370 1.100000 28.08600
13371 SI 13371 SI SI1 13371 1.100000 28.08600
13372 SI 13372 SI SI1 13372 1.100000 28.08600
13373 SI 13373 SI SI1 13373 1.100000 28.08600
13374 SI 13374 SI SI1 13374 1.100000 28.08600
13375 SI 13375 SI SI1 13375 1.100000 28.08600
13376 SI 13376 SI SI1 13376 1.100000 28.08600
13377 SI 13377 SI SI1 13377 1.100000 28.08600
13378 SI 13378 SI SI1 13378 1.100000 28.08600
13379 SI 13379 SI SI1 13379 1.100000 28.08600
13380 SI 13380 SI SI1 13380 1.100000 28.08600
13381 SI 13381 SI SI1 13381 1.100000 28.08600
13382 SI 13382 SI SI1 13382 1.100000 28.08600
13383 SI 13383 SI SI1 13383 1.100000 28.08600
13384 SI 13384 SI SI1 13384 1.100000 28.08600
13385 SI 13385 SI SI1 13385 1.100000 28.08600
13386 SI 13386 SI SI1 13386 1.100000 28.08600
13387 SI 13387 SI SI1 13387 1.100000 28.08600
13388 SI 13388 SI SI1 13388 1.100000 28.08600
13389 SI 13389 SI SI1 13389 1.100000 28.08600
13390 SI 13390 SI SI1 13390 1.100000 28.08600
13391 SI 13391 SI SI1 13391 1.100000 28.08600
13392 SI 13392 SI SI1 13392 1.100000 28.08600
13393 SI 13393 SI SI1 13393 1.100000 28.08600
13394 SI 13394 SI SI1 13394 1.100000 28.08600
13395 SI 13395 SI SI1 13395 1.100000 28.08600
13396 SI 13396 SI SI1 13396 1.100000 28.08600
13397 SI 13397 SI SI1 13397 1.100000 28.08600
13398 SI 13398 SI SI1 13398 1.100000 28.08600
13399 SI 13399 SI SI1 13399 1.100000 28.08600
13400 SI 13400 SI SI1 13400 1.100000 28.08600
13401 SI 13401 SI SI1 13401 1.100000 28.08600
13402 SI 13402 SI SI1 13402 1.100000 28.08600
13403 SI 13403 SI SI1 13403 1.100000 28.08600
13404 SI 13404 SI SI1 13404 1.100000 28.08600
13405 SI 13405 SI SI1 13405 1.100000 28.08600
13406 SI 13406 SI SI1 13406 1.100000 28.08600
13407 SI 13407 SI SI1 13407 1.100000 28.08600
13408 SI 13408 SI SI1 13408 1.100000 28.08600
13409 SI 13409 SI SI1 13409 1.100000 28.08600
13410 SI 13410 SI SI1 13410 1.100000 28.08600
13411 SI 13411 SI SI1 13411 1.100000 28.08600
13412 SI 13412 SI SI1 13412 1.100000 28.08600
13413 SI 13413 SI SI1 13413 1.100000 28.08600
13414 SI 13414 SI SI1 13414 1.100000 28.08600
13415 SI 13415 SI SI1 13415 1.100000 28.08600
13416 SI 13416 SI SI1 13416 1.100000 28.08600
13417 SI 13417 SI SI1 13417 1.100000 28.08600
13418 SI 13418 SI SI1 13418 1.100000 28.08600
13419 SI 13419 SI SI1 13419 1.100000 28.08600
13420 SI 13420 SI SI1 13420 1.100000 28.08600
13421 SI 13421 SI SI1 13421 1.100000 28.08600
13422 SI 13422 SI SI1 13422 1.100000 28.08600
13423 SI 13423 SI SI1 13423 1.100000 28.08600
13424 SI 13424 SI SI1 13424 1.100000 28.08600
13425 SI 13425 SI SI1 13425 1.100000 28.08600
13426 SI 13426 SI SI1 13426 1.100000 28.08600
13427 SI 13427 SI SI1 13427 1.100000 28.08600
13428 SI 13428 SI SI1 13428 1.100000 28.08600
13429 SI 13429 SI SI1 13429 1.100000 28.08600
13430 SI 13430 SI SI1 13430 1.100000 28.08600
13431 SI 13431 SI SI1 13431 1.100000 28.08600
13432 SI 13432 SI SI1 13432 1.100000 28.08600
13433 SI 13433 SI SI1 13433 1.100000 28.08600
13434 SI 13434 SI SI1 13434 1.100000 28.08600
13435 SI 13435 SI SI1 13435 1.100000 28.08600
13436 SI 13436 SI SI1 13436 1.100000 28.08600
13437 SI 13437 SI SI1 13437 1.100000 28.08600
13438 SI 13438 SI SI1 13438 1.100000 28.08600
13439 SI 13439 SI SI1 13439 1.100000 28.08600
13440 SI 13440 SI SI1 13440 1.100000 28.08600
13441 SI 13441 SI SI1 13441 1.100000 28.08600
13442 SI 13442 SI SI1 13442 1.100000 28.08600
13443 SI 13443 SI SI1 13443 1.100000 28.08600
13444 SI 13444 SI SI1 13444 1.100000 28.08600
13445 SI 13445 SI SI1 13445 1.100000 28.08600
13446 SI 13446 SI SI1 13446 1.100000 28.08600
13447 SI 13447 SI SI1 13447 1.100000 28.08600
13448 SI 13448 SI SI1 13448 1.100000 28.08600
13449 SI 13449 SI SI1 13449 1.100000 28.08600
13450 SI 13450 SI SI1 13450 1.100000 28.08600
13451 SI 13451 SI SI1 13451 1.100000 28.08600
13452 SI 13452 SI SI1 13452 1.100000 28.08600
13453 SI 13453 SI SI1 13453 1.100000 28.08600
13454 SI 13454 SI SI1 13454 1.100000 28.08600
13455 SI 13455 SI SI1 13455 1.100000 28.08600
13456 SI 13456 SI SI1 13456 1.100000 28.08600
13457 SI 13457 SI SI1 13457 1.100000 28.08600
13458 SI 13458 SI SI1 13458 1.100000 28.08600
13459 SI 13459 SI SI1 13459 1.100000 28.08600
13460 SI 13460 SI SI1 13460 1.100000 28.08600
13461 SI 13461 SI SI1 13461 1.100000 28.08600
13462 SI 13462 SI SI1 13462 1.100000 28.08600
13463 SI 13463 SI SI1 13463 1.100000 28.08600
13464 SI 13464 SI SI1 13464 1.100000 28.08600
13465 SI 13465 SI SI1 13465 1.100000 28.08600
13466 SI 13466 SI SI1 13466 1.100000 28.08600
13467 SI 13467 SI SI1 13467 1.100000 28.08600
13468 SI 13468 SI SI1 13468 1.100000 28.08600
13469 SI 13469 SI SI1 13469 1.100000 28.08600
13470 SI 13470 SI SI1 13470 1.100000 28.08600
13471 SI 13471 SI SI1 13471 1.100000 28.08600
13472 SI 13472 SI SI1 13472 1.100000 28.08600
13473 SI 13473 SI SI1 13473 1.100000 28.08600
13474 SI 13474 SI SI1 13474 1.100000 28.08600
13475 SI 13475 SI SI1 13475 1.100000 28.08600
13476 SI 13476 SI SI1 13476 1.100000 28.08600
13477 SI 13477 SI SI1 13477 1.100000 28.08600
13478 SI 13478 SI SI1 13478 1.100000 28.08600
13479 SI 13479 SI SI1 13479 1.100000 28.08600
13480 SI 13480 SI SI1 13480 1.100000 28.08600
13481 SI 13481 SI SI1 13481 1.100000 28.08600
13482 SI 13482 SI SI1 13482 1.100000 28.08600
13483 SI 13483 SI SI1 13483 1.100000 28.08600
13484 SI 13484 SI SI1 13484 1.100000 28.08600
13485 SI 13485 SI SI1 13485 1.100000 28.08600
13486 SI 13486 SI SI1 13486 1.100000 28.08600
13487 SI 13487 SI SI1 13487 1.100000 28.08600
13488 SI 13488 SI SI1 13488 1.100000 28.08600
13489 SI 13489 SI SI1 13489 1.100000 28.08600
13490 SI 13490 SI SI1 13490 1.100000 28.08600
13491 SI 13491 SI SI1 13491 1.100000 28.08600
13492 SI 13492 SI SI1 13492 1.100000 28.08600
13493 SI 13493 SI SI1 13493 1.100000 28.08600
13494 SI 13494 SI SI1 13494 1.100000 28.08600
13495 SI 13495 SI SI1 13495 1.100000 28.08600
13496 SI 13496 SI SI1 13496 1.100000 28.08600
13497 SI 13497 SI SI1 13497 1.100000 28.08600
13498 SI 13498 SI SI1 13498 1.100000 28.08600
13499 SI 13499 SI SI1 13499 1.100000 28.08600
13500 SI 13500 SI SI1 13500 1.100000 28.08600
13501 SI 13501 SI SI1 13501 1.100000 28.08600
13502 SI 13502 SI SI1 13502 1.100000 28.08600
13503 SI 13503 SI SI1 13503 1.100000 28.08600
13504 SI 13504 SI SI1 13504 1.100000 28.08600
13505 SI 13505 SI SI1 13505 1.100000 28.08600
13506 SI 13506 SI SI1 13506 1.100000 28.08600
13507 SI 13507 SI SI1 13507 1.100000 28.08600
13508 SI 13508 SI SI1 13508 1.100000 28.08600
13509 SI 13509 SI SI1 13509 1.100000 28.08600
13510 SI 13510 SI SI1 13510 1.100000 28.08600
13511 SI 13511 SI SI1 13511 1.100000 28.08600
13512 SI 13512 SI SI1 13512 1.100000 28.08600
13513 SI 13513 SI SI1 13513 1.100000 28.08600
13514 SI 13514 SI SI1 13514 1.100000 28.08600
13515 SI 13515 SI SI1 13515 1.100000 28.08600
13516 SI 13516 SI SI1 13516 1.100000 28.08600
13517 SI 13517 SI SI1 13517 1.100000 28.08600
13518 SI 13518 SI SI1 13518 1.100000 28.08600
13519 SI 13519 SI SI1 13519 1.100000 28.08600
13520 SI 13520 SI SI1 13520 1.100000 28.08600
13521 SI 13521 SI SI1 13521 1.100000 28.08600
13522 SI 13522 SI SI1 13522 1.100000 28.08600
13523 SI 13523 SI SI1 13523 1.100000 28.08600
13524 SI 13524 SI SI1 13524 1.100000 28.08600
13525 SI 13525 SI SI1 13525 1.100000 28.08600
13526 SI 13526 SI SI1 13526 1.100000 28.08600
13527 SI 13527 SI SI1 13527 1.100000 28.08600
13528 SI 13528 SI SI1 13528 1.100000 28.08600
13529 SI 13529 SI SI1 13529 1.100000 28.08600
13530 SI 13530 SI SI1 13530 1.100000 28.08600
13531 SI 13531 SI SI1 13531 1.100000 28.08600
13532 SI 13532 SI SI1 13532 1.100000 28.08600
13533 SI 13533 SI SI1 13533 1.100000 28.08600
13534 SI 13534 SI SI1 13534 1.100000 28.08600
13535 SI 13535 SI SI1 13535 1.100000 28.08600
13536 SI 13536 SI SI1 13536 1.100000 28.08600
13537 SI 13537 SI SI1 13537 1.100000 28.08600
13538 SI 13538 SI SI1 13538 1.100000 28.08600
13539 SI 13539 SI SI1 13539 1.100000 28.08600
13540 SI 13540 SI SI1 13540 1.100000 28.08600
13541 SI 13541 SI SI1 13541 1.100000 28.08600
13542 SI 13542 SI SI1 13542 1.100000 28.08600
13543 SI 13543 SI SI1 13543 1.100000 28.08600
13544 SI 13544 SI SI1 13544 1.100000 28.08600
13545 SI 13545 SI SI1 13545 1.100000 28.08600
13546 SI 13546 SI SI1 13546 1.100000 28.08600
13547 SI 13547 SI SI1 13547 1.100000 28.08600
13548 SI 13548 SI SI1 13548 1.100000 28.08600
13549 SI 13549 SI SI1 13549 1.100000 28.08600
13550 SI 13550 SI SI1 13550 1.100000 28.08600
13551 SI 13551 SI SI1 13551 1.100000 28.08600
13552 SI 13552 SI SI1 13552 1.100000 28.08600
13553 SI 13553 SI SI1 13553 1.100000 28.08600
13554 SI 13554 SI SI1 13554 1.100000 28.08600
13555 SI 13555 SI SI1 13555 1.100000 28.08600
13556 SI 13556 SI SI1 13556 1.100000 28.08600
13557 SI 13557 SI SI1 13557 1.100000 28.08600
13558 SI 13558 SI SI1 13558 1.100000 28.08600
13559 SI 13559 SI SI1 13559 1.100000 28.08600
13560 SI 13560 SI SI1 13560 1.100000 28.08600
13561 SI 13561 SI SI1 13561 1.100000 28.08600
13562 SI 13562 SI SI1 13562 1.100000 28.08600
13563 SI 13563 SI SI1 13563 1.100000 28.08600
13564 SI 13564 SI SI1 13564 1.100000 28.08600
13565 SI 13565 SI SI1 13565 1.100000 28.08600
13566 SI 13566 SI SI1 13566 1.100000 28.08600
13567 SI 13567 SI SI1 13567 1.100000 28.08600
13568 SI 13568 SI SI1 13568 1.100000 28.08600
13569 SI 13569 SI SI1 13569 1.100000 28.08600
13570 SI 13570 SI SI1 13570 1.100000 28.08600
13571 SI 13571 SI SI1 13571 1.100000 28.08600
13572 SI 13572 SI SI1 13572 1.100000 28.08600
13573 SI 13573 SI SI1 13573 1.100000 28.08600
13574 SI 13574 SI SI1 13574 1.100000 28.08600
13575 SI 13575 SI SI1 13575 1.100000 28.08600
13576 SI 13576 SI SI1 13576 1.100000 28.08600
13577 SI 13577 SI SI1 13577 1.100000 28.08600
13578 SI 13578 SI SI1 13578 1.100000 28.08600
13579 SI 13579 SI SI1 13579 1.100000 28.08600
13580 SI 13580 SI SI1 13580 1.100000 28.08600
13581 SI 13581 SI SI1 13581 1.100000 28.08600
13582 SI 13582 SI SI1 13582 1.100000 28.08600
13583 SI 13583 SI SI1 13583 1.100000 28.08600
13584 SI 13584 SI SI1 13584 1.100000 28.08600
13585 SI 13585 SI SI1 13585 1.100000 28.08600
13586 SI 13586 SI SI1 13586 1.100000 28.08600
13587 SI 13587 SI SI1 13587 1.100000 28.08600
13588 SI 13588 SI SI1 13588 1.100000 28.08600
13589 SI 13589 SI SI1 13589 1.100000 28.08600
13590 SI 13590 SI SI1 13590 1.100000 28.08600
13591 SI 13591 SI SI1 13591 1.100000 28.08600
13592 SI 13592 SI SI1 13592 1.100000 28.08600
13593 SI 13593 SI SI1 13593 1.100000 28.08600
13594 SI 13594 SI SI1 13594 1.100000 28.08600
13595 SI 13595 SI SI1 13595 1.100000 28.08600
13596 SI 13596 SI SI1 13596 1.100000 28.08600
13597 SI 13597 SI SI1 13597 1.100000 28.08600
13598 SI 13598 SI SI1 13598 1.100000 28.08600
13599 SI 13599 SI SI1 13599 1.100000 28.08600
13600 SI 13600 SI SI1 13600 1.100000 28.08600
13601 SI 13601 SI SI1 13601 1.100000 28.08600
13602 SI 13602 SI SI1 13602 1.100000 28.08600
13603 SI 13603 SI SI1 13603 1.100000 28.08600
13604 SI 13604 SI SI1 13604 1.100000 28.08600
13605 SI 13605 SI SI1 13605 1.100000 28.08600
13606 SI 13606 SI SI1 13606 1.100000 28.08600
13607 SI 13607 SI SI1 13607 1.100000 28.08600
13608 SI 13608 SI SI1 13608 1.100000 28.08600
13609 SI 13609 SI SI1 13609 1.100000 28.08600
13610 SI 13610 SI SI1 13610 1.100000 28.08600
13611 SI 13611 SI SI1 13611 1.100000 28.08600
13612 SI 13612 SI SI1 13612 1.100000 28.08600
13613 SI 13613 SI SI1 13613 1.100000 28.08600
13614 SI 13614 SI SI1 13614 1.100000 28.08600
13615 SI 13615 SI SI1 13615 1.100000 28.08600
13616 SI 13616 SI SI1 13616 1.100000 28.08600
13617 SI 13617 SI SI1 13617 1.100000 28.08600
13618 SI 13618 SI SI1 13618 1.100000 28.08600
13619 SI 13619 SI SI1 13619 1.100000 28.08600
13620 SI 13620 SI SI1 13620 1.100000 28.08600
13621 SI 13621 SI SI1 13621 1.100000 28.08600
13622 SI 13622 SI SI1 13622 1.100000 28.08600
13623 SI 13623 SI SI1 13623 1.100000 28.08600
13624 SI 13624 SI SI1 13624 1.100000 28.08600
13625 SI 13625 SI SI1 13625 1.100000 28.08600
13626 SI 13626 SI SI1 13626 1.100000 28.08600
13627 SI 13627 SI SI1 13627 1.100000 28.08600
13628 SI 13628 SI SI1 13628 1.100000 28.08600
13629 SI 13629 SI SI1 13629 1.100000 28.08600
13630 SI 13630 SI SI1 13630 1.100000 28.08600
13631 SI 13631 SI SI1 13631 1.100000 28.08600
13632 SI 13632 SI SI1 13632 1.100000 28.08600
13633 SI 13633 SI SI1 13633 1.100000 28.08600
13634 SI 13634 SI SI1 13634 1.100000 28.08600
13635 SI 13635 SI SI1 13635 1.100000 28.08600
13636 SI 13636 SI SI1 13636 1.100000 28.08600
13637 SI 13637 SI SI1 13637 1.100000 28.08600
13638 SI 13638 SI SI1 13638 1.100000 28.08600
13639 SI 13639 SI SI1 13639 1.100000 28.08600
13640 SI 13640 SI SI1 13640 1.100000 28.08600
13641 SI 13641 SI SI1 13641 1.100000 28.08600
13642 SI 13642 SI SI1 13642 1.100000 28.08600
13643 SI 13643 SI SI1 13643 1.100000 28.08600
13644 SI 13644 SI SI1 13644 1.100000 28.08600
13645 SI 13645 SI SI1 13645 1.100000 28.08600
13646 SI 13646 SI SI1 13646 1.100000 28.08600
13647 SI 13647 SI SI1 13647 1.100000 28.08600
13648 SI 13648 SI SI1 13648 1.100000 28.08600
13649 SI 13649 SI SI1 13649 1.100000 28.08600
13650 SI 13650 SI SI1 13650 1.100000 28.08600
13651 SI 13651 SI SI1 13651 1.100000 28.08600
13652 SI 13652 SI SI1 13652 1.100000 28.08600
13653 SI 13653 SI SI1 13653 1.100000 28.08600
13654 SI 13654 SI SI1 13654 1.100000 28.08600
13655 SI 13655 SI SI1 13655 1.100000 28.08600
13656 SI 13656 SI SI1 13656 1.100000 28.08600
13657 SI 13657 SI SI1 13657 1.100000 28.08600
13658 SI 13658 SI SI1 13658 1.100000 28.08600
13659 SI 13659 SI SI1 13659 1.100000 28.08600
13660 SI 13660 SI SI1 13660 1.100000 28.08600
13661 SI 13661 SI SI1 13661 1.100000 28.08600
13662 SI 13662 SI SI1 13662 1.100000 28.08600
13663 SI 13663 SI SI1 13663 1.100000 28.08600
13664 SI 13664 SI SI1 13664 1.100000 28.08600
13665 SI 13665 SI SI1 13665 1.100000 28.08600
13666 SI 13666 SI SI1 13666 1.100000 28.08600
13667 SI 13667 SI SI1 13667 1.100000 28.08600
13668 SI 13668 SI SI1 13668 1.100000 28.08600
13669 SI 13669 SI SI1 13669 1.100000 28.08600
13670 SI 13670 SI SI1 13670 1.100000 28.08600
13671 SI 13671 SI SI1 13671 1.100000 28.08600
13672 SI 13672 SI SI1 13672 1.100000 28.08600
13673 SI 13673 SI SI1 13673 1.100000 28.08600
13674 SI 13674 SI SI1 13674 1.100000 28.08600
13675 SI 13675 SI SI1 13675 1.100000 28.08600
13676 SI 13676 SI SI1 13676 1.100000 28.08600
13677 SI 13677 SI SI1 13677 1.100000 28.08600
13678 SI 13678 SI SI1 13678 1.100000 28.08600
13679 SI 13679 SI SI1 13679 1.100000 28.08600
13680 SI 13680 SI SI1 13680 1.100000 28.08600
13681 SI 13681 SI SI1 13681 1.100000 28.08600
13682 SI 13682 SI SI1 13682 1.100000 28.08600
13683 SI 13683 SI SI1 13683 1.100000 28.08600
13684 SI 13684 SI SI1 13684 1.100000 28.08600
13685 SI 13685 SI SI1 13685 1.100000 28.08600
13686 SI 13686 SI SI1 13686 1.100000 28.08600
13687 SI 13687 SI SI1 13687 1.100000 28.08600
13688 SI 13688 SI SI1 13688 1.100000 28.08600
13689 SI 13689 SI SI1 13689 1.100000 28.08600
13690 SI 13690 SI SI1 13690 1.100000 28.08600
13691 SI 13691 SI SI1 13691 1.100000 28.08600
13692 SI 13692 SI SI1 13692 1.100000 28.08600
13693 SI 13693 SI SI1 13693 1.100000 28.08600
13694 SI 13694 SI SI1 13694 1.100000 28.08600
13695 SI 13695 SI SI1 13695 1.100000 28.08600
13696 SI 13696 SI SI1 13696 1.100000 28.08600
13697 SI 13697 SI SI1 13697 1.100000 28.08600
13698 SI 13698 SI SI1 13698 1.100000 28.08600
13699 SI 13699 SI SI1 13699 1.100000 28.08600
13700 SI 13700 SI SI1 13700 1.100000 28.08600
13701 SI 13701 SI SI1 13701 1.100000 28.08600
13702 SI 13702 SI SI1 13702 1.100000 28.08600
13703 SI 13703 SI SI1 13703 1.100000 28.08600
13704 SI 13704 SI SI1 13704 1.100000 28.08600
13705 SI 13705 SI SI1 13705 1.100000 28.08600
13706 SI 13706 SI SI1 13706 1.100000 28.08600
13707 SI 13707 SI SI1 13707 1.100000 28.08600
13708 SI 13708 SI SI1 13708 1.100000 28.08600
13709 SI 13709 SI SI1 13709 1.100000 28.08600
13710 SI 13710 SI SI1 13710 1.100000 28.08600
13711 SI 13711 SI SI1 13711 1.100000 28.08600
13712 SI 13712 SI SI1 13712 1.100000 28.08600
13713 SI 13713 SI SI1 13713 1.100000 28.08600
13714 SI 13714 SI SI1 13714 1.100000 28.08600
13715 SI 13715 SI SI1 13715 1.100000 28.08600
13716 SI 13716 SI SI1 13716 1.100000 28.08600
13717 SI 13717 SI SI1 13717 1.100000 28.08600
13718 SI 13718 SI SI1 13718 1.100000 28.08600
13719 SI 13719 SI SI1 13719 1.100000 28.08600
13720 SI 13720 SI SI1 13720 1.100000 28.08600
13721 SI 13721 SI SI1 13721 1.100000 28.08600
13722 SI 13722 SI SI1 13722 1.100000 28.08600
13723 SI 13723 SI SI1 13723 1.100000 28.08600
13724 SI 13724 SI SI1 13724 1.100000 28.08600
13725 SI 13725 SI SI1 13725 1.100000 28.08600
13726 SI 13726 SI SI1 13726 1.100000 28.08600
13727 SI 13727 SI SI1 13727 1.100000 28.08600
13728 SI 13728 SI SI1 13728 1.100000 28.08600
13729 SI 13729 SI SI1 13729 1.100000 28.08600
13730 SI 13730 SI SI1 13730 1.100000 28.08600
13731 SI 13731 SI SI1 13731 1.100000 28.08600
13732 SI 13732 SI SI1 13732 1.100000 28.08600
13733 SI 13733 SI SI1 13733 1.100000 28.08600
13734 SI 13734 SI SI1 13734 1.100000 28.08600
13735 SI 13735 SI SI1 13735 1.100000 28.08600
13736 SI 13736 SI SI1 13736 1.100000 28.08600
13737 SI 13737 SI SI1 13737 1.100000 28.08600
13738 SI 13738 SI SI1 13738 1.100000 28.08600
13739 SI 13739 SI SI1 13739 1.100000 28.08600
13740 SI 13740 SI SI1 13740 1.100000 28.08600
13741 SI 13741 SI SI1 13741 1.100000 28.08600
13742 SI 13742 SI SI1 13742 1.100000 28.08600
13743 SI 13743 SI SI1 13743 1.100000 28.08600
13744 SI 13744 SI SI1 13744 1.100000 28.08600
13745 SI 13745 SI SI1 13745 1.100000 28.08600
13746 SI 13746 SI SI1 13746 1.100000 28.08600
13747 SI 13747 SI SI1 13747 1.100000 28.08600
13748 SI 13748 SI SI1 13748 1.100000 28.08600
13749 SI 13749 SI SI1 13749 1.100000 28.08600
13750 SI 13750 SI SI1 13750 1.100000 28.08600
13751 SI 13751 SI SI1 13751 1.100000 28.08600
13752 SI 13752 SI SI1 13752 1.100000 28.08600
13753 SI 13753 SI SI1 13753 1.100000 28.08600
13754 SI 13754 SI SI1 13754 1.100000 28.08600
13755 SI 13755 SI SI1 13755 1.100000 28.08600
13756 SI 13756 SI SI1 13756 1.100000 28.08600
13757 SI 13757 SI SI1 13757 1.100000 28.08600
13758 SI 13758 SI SI1 13758 1.100000 28.08600
13759 SI 13759 SI SI1 13759 1.100000 28.08600
13760 SI 13760 SI SI1 13760 1.100000 28.08600
13761 SI 13761 SI SI1 13761 1.100000 28.08600
13762 SI 13762 SI SI1 13762 1.100000 28.08600
13763 SI 13763 SI SI1 13763 1.100000 28.08600
13764 SI 13764 SI SI1 13764 1.100000 28.08600
13765 SI 13765 SI SI1 13765 1.100000 28.08600
13766 SI 13766 SI SI1 13766 1.100000 28.08600
13767 SI 13767 SI SI1 13767 1.100000 28.08600
13768 SI 13768 SI SI1 13768 1.100000 28.08600
13769 SI 13769 SI SI1 13769 1.100000 28.08600
13770 SI 13770 SI SI1 13770 1.100000 28.08600
13771 SI 13771 SI SI1 13771 1.100000 28.08600
13772 SI 13772 SI SI1 13772 1.100000 28.08600
13773 SI 13773 SI SI1 13773 1.100000 28.08600
13774 SI 13774 SI SI1 13774 1.100000 28.08600
13775 SI 13775 SI SI1 13775 1.100000 28.08600
13776 SI 13776 SI SI1 13776 1.100000 28.08600
13777 SI 13777 SI SI1 13777 1.100000 28.08600
13778 SI 13778 SI SI1 13778 1.100000 28.08600
13779 SI 13779 SI SI1 13779 1.100000 28.08600
13780 SI 13780 SI SI1 13780 1.100000 28.08600
13781 SI 13781 SI SI1 13781 1.100000 28.08600
13782 SI 13782 SI SI1 13782 1.100000 28.08600
13783 SI 13783 SI SI1 13783 1.100000 28.08600
13784 SI 13784 SI SI1 13784 1.100000 28.08600
13785 SI 13785 SI SI1 13785 1.100000 28.08600
13786 SI 13786 SI SI1 13786 1.100000 28.08600
13787 SI 13787 SI SI1 13787 1.100000 28.08600
13788 SI 13788 SI SI1 13788 1.100000 28.08600
13789 SI 13789 SI SI1 13789 1.100000 28.08600
13790 SI 13790 SI SI1 13790 1.100000 28.08600
13791 SI 13791 SI SI1 13791 1.100000 28.08600
13792 SI 13792 SI SI1 13792 1.100000 28.08600
13793 SI 13793 SI SI1 13793 1.100000 28.08600
13794 SI 13794 SI SI1 13794 1.100000 28.08600
13795 SI 13795 SI SI1 13795 1.100000 28.08600
13796 SI 13796 SI SI1 13796 1.100000 28.08600
13797 SI 13797 SI SI1 13797 1.100000 28.08600
13798 SI 13798 SI SI1 13798 1.100000 28.08600
13799 SI 13799 SI SI1 13799 1.100000 28.08600
13800 SI 13800 SI SI1 13800 1.100000 28.08600
13801 SI 13801 SI SI1 13801 1.100000 28.08600
13802 SI 13802 SI SI1 13802 1.100000 28.08600
13803 SI 13803 SI SI1 13803 1.100000 28.08600
13804 SI 13804 SI SI1 13804 1.100000 28.08600
13805 SI 13805 SI SI1 13805 1.100000 28.08600
13806 SI 13806 SI SI1 13806 1.100000 28.08600
13807 SI 13807 SI SI1 13807 1.100000 28.08600
13808 SI 13808 SI SI1 13808 1.100000 28.08600
13809 SI 13809 SI SI1 13809 1.100000 28.08600
13810 SI 13810 SI SI1 13810 1.100000 28.08600
13811 SI 13811 SI SI1 13811 1.100000 28.08600
13812 SI 13812 SI SI1 13812 1.100000 28.08600
13813 SI 13813 SI SI1 13813 1.100000 28.08600
13814 SI 13814 SI SI1 13814 1.100000 28.08600
13815 SI 13815 SI SI1 13815 1.100000 28.08600
13816 SI 13816 SI SI1 13816 1.100000 28.08600
13817 SI 13817 SI SI1 13817 1.100000 28.08600
13818 SI 13818 SI SI1 13818 1.100000 28.08600
13819 SI 13819 SI SI1 13819 1.100000 28.08600
13820 SI 13820 SI SI1 13820 1.100000 28.08600
13821 SI 13821 SI SI1 13821 1.100000 28.08600
13822 SI 13822 SI SI1 13822 1.100000 28.08600
13823 SI 13823 SI SI1 13823 1.100000 28.08600
13824 SI 13824 SI SI1 13824 1.100000 28.08600
13825 SI 13825 SI SI1 13825 1.100000 28.08600
13826 SI 13826 SI SI1 13826 1.100000 28.08600
13827 SI 13827 SI SI1 13827 1.100000 28.08600
13828 SI 13828 SI SI1 13828 1.100000 28.08600
13829 SI 13829 SI SI1 13829 1.100000 28.08600
13830 SI 13830 SI SI1 13830 1.100000 28.08600
13831 SI 13831 SI SI1 13831 1.100000 28.08600
13832 SI 13832 SI SI1 13832 1.100000 28.08600
13833 SI 13833 SI SI1 13833 1.100000 28.08600
13834 SI 13834 SI SI1 13834 1.100000 28.08600
13835 SI 13835 SI SI1 13835 1.100000 28.08600
13836 SI 13836 SI SI1 13836 1.100000 28.08600
13837 SI 13837 SI SI1 13837 1.100000 28.08600
13838 SI 13838 SI SI1 13838 1.100000 28.08600
13839 SI 13839 SI SI1 13839 1.100000 28.08600
13840 SI 13840 SI SI1 13840 1.100000 28.08600
13841 SI 13841 SI SI1 13841 1.100000 28.08600
13842 SI 13842 SI SI1 13842 1.100000 28.08600
13843 SI 13843 SI SI1 13843 1.100000 28.08600
13844 SI 13844 SI SI1 13844 1.100000 28.08600
13845 SI 13845 SI SI1 13845 1.100000 28.08600
13846 SI 13846 SI SI1 13846 1.100000 28.08600
13847 SI 13847 SI SI1 13847 1.100000 28.08600
13848 SI 13848 SI SI1 13848 1.100000 28.08600
13849 SI 13849 SI SI1 13849 1.100000 28.08600
13850 SI 13850 SI SI1 13850 1.100000 28.08600
13851 SI 13851 SI SI1 13851 1.100000 28.08600
13852 SI 13852 SI SI1 13852 1.100000 28.08600
13853 SI 13853 SI SI1 13853 1.100000 28.08600
13854 SI 13854 SI SI1 13854 1.100000 28.08600
13855 SI 13855 SI SI1 13855 1.100000 28.08600
13856 SI 13856 SI SI1 13856 1.100000 28.08600
13857 SI 13857 SI SI1 13857 1.100000 28.08600
13858 SI 13858 SI SI1 13858 1.100000 28.08600
13859 SI 13859 SI SI1 13859 1.100000 28.08600
13860 SI 13860 SI SI1 13860 1.100000 28.08600
13861 SI 13861 SI SI1 13861 1.100000 28.08600
13862 SI 13862 SI SI1 13862 1.100000 28.08600
13863 SI 13863 SI SI1 13863 1.100000 28.08600
13864 SI 13864 SI SI1 13864 1.100000 28.08600
13865 SI 13865 SI SI1 13865 1.100000 28.08600
13866 SI 13866 SI SI1 13866 1.100000 28.08600
13867 SI 13867 SI SI1 13867 1.100000 28.08600
13868 SI 13868 SI SI1 13868 1.100000 28.08600
13869 SI 13869 SI SI1 13869 1.100000 28.08600
13870 SI 13870 SI SI1 13870 1.100000 28.08600
13871 SI 13871 SI SI1 13871 1.100000 28.08600
13872 SI 13872 SI SI1 13872 1.100000 28.08600
13873 SI 13873 SI SI1 13873 1.100000 28.08600
13874 SI 13874 SI SI1 13874 1.100000 28.08600
13875 SI 13875 SI SI1 13875 1.100000 28.08600
13876 SI 13876 SI SI1 13876 1.100000 28.08600
13877 SI 13877 SI SI1 13877 1.100000 28.08600
13878 SI 13878 SI SI1 13878 1.100000 28.08600
13879 SI 13879 SI SI1 13879 1.100000 28.08600
13880 SI 13880 SI SI1 13880 1.100000 28.08600
13881 SI 13881 SI SI1 13881 1.100000 28.08600
13882 SI 13882 SI SI1 13882 1.100000 28.08600
13883 SI 13883 SI SI1 13883 1.100000 28.08600
13884 SI 13884 SI SI1 13884 1.100000 28.08600
13885 SI 13885 SI SI1 13885 1.100000 28.08600
13886 SI 13886 SI SI1 13886 1.100000 28.08600
13887 SI 13887 SI SI1 13887 1.100000 28.08600
13888 SI 13888 SI SI1 13888 1.100000 28.08600
13889 SI 13889 SI SI1 13889 1.100000 28.08600
13890 SI 13890 SI SI1 13890 1.100000 28.08600
13891 SI 13891 SI SI1 13891 1.100000 28.08600
13892 SI 13892 SI SI1 13892 1.100000 28.08600
13893 SI 13893 SI SI1 13893 1.100000 28.08600
13894 SI 13894 SI SI1 13894 1.100000 28.08600
13895 SI 13895 SI SI1 13895 1.100000 28.08600
13896 SI 13896 SI SI1 13896 1.100000 28.08600
13897 SI 13897 SI SI1 13897 1.100000 28.08600
13898 SI 13898 SI SI1 13898 1.100000 28.08600
13899 SI 13899 SI SI1 13899 1.100000 28.08600
13900 SI 13900 SI SI1 13900 1.100000 28.08600
13901 SI 13901 SI SI1 13901 1.100000 28.08600
13902 SI 13902 SI SI1 13902 1.100000 28.08600
13903 SI 13903 SI SI1 13903 1.100000 28.08600
13904 SI 13904 SI SI1 13904 1.100000 28.08600
13905 SI 13905 SI SI1 13905 1.100000 28.08600
13906 SI 13906 SI SI1 13906 1.100000 28.08600
13907 SI 13907 SI SI1 13907 1.100000 28.08600
13908 SI 13908 SI SI1 13908 1.100000 28.08600
13909 SI 13909 SI SI1 13909 1.100000 28.08600
13910 SI 13910 SI SI1 13910 1.100000 28.08600
13911 SI 13911 SI SI1 13911 1.100000 28.08600
13912 SI 13912 SI SI1 13912 1.100000 28.08600
13913 SI 13913 SI SI1 13913 1.100000 28.08600
13914 SI 13914 SI SI1 13914 1.100000 28.08600
13915 SI 13915 SI SI1 13915 1.100000 28.08600
13916 SI 13916 SI SI1 13916 1.100000 28.08600
13917 SI 13917 SI SI1 13917 1.100000 28.08600
13918 SI 13918 SI SI1 13918 1.100000 28.08600
13919 SI 13919 SI SI1 13919 1.100000 28.08600
13920 SI 13920 SI SI1 13920 1.100000 28.08600
13921 SI 13921 SI SI1 13921 1.100000 28.08600
13922 SI 13922 SI SI1 13922 1.100000 28.08600
13923 SI 13923 SI SI1 13923 1.100000 28.08600
13924 SI 13924 SI SI1 13924 1.100000 28.08600
13925 SI 13925 SI SI1 13925 1.100000 28.08600
13926 SI 13926 SI SI1 13926 1.100000 28.08600
13927 SI 13927 SI SI1 13927 1.100000 28.08600
13928 SI 13928 SI SI1 13928 1.100000 28.08600
13929 SI 13929 SI SI1 13929 1.100000 28.08600
13930 SI 13930 SI SI1 13930 1.100000 28.08600
13931 SI 13931 SI SI1 13931 1.100000 28.08600
13932 SI 13932 SI SI1 13932 1.100000 28.08600
13933 SI 13933 SI SI1 13933 1.100000 28.08600
13934 SI 13934 SI SI1 13934 1.100000 28.08600
13935 SI 13935 SI SI1 13935 1.100000 28.08600
13936 SI 13936 SI SI1 13936 1.100000 28.08600
13937 SI 13937 SI SI1 13937 1.100000 28.08600
13938 SI 13938 SI SI1 13938 1.100000 28.08600
13939 SI 13939 SI SI1 13939 1.100000 28.08600
13940 SI 13940 SI SI1 13940 1.100000 28.08600
13941 SI 13941 SI SI1 13941 1.100000 28.08600
13942 SI 13942 SI SI1 13942 1.100000 28.08600
13943 SI 13943 SI SI1 13943 1.100000 28.08600
13944 SI 13944 SI SI1 13944 1.100000 28.08600
13945 SI 13945 SI SI1 13945 1.100000 28.08600
13946 SI 13946 SI SI1 13946 1.100000 28.08600
13947 SI 13947 SI SI1 13947 1.100000 28.08600
13948 SI 13948 SI SI1 13948 1.100000 28.08600
13949 SI 13949 SI SI1 13949 1.100000 28.08600
13950 SI 13950 SI SI1 13950 1.100000 28.08600
13951 SI 13951 SI SI1 13951 1.100000 28.08600
13952 SI 13952 SI SI1 13952 1.100000 28.08600
13953 SI 13953 SI SI1 13953 1.100000 28.08600
13954 SI 13954 SI SI1 13954 1.100000 28.08600
13955 SI 13955 SI SI1 13955 1.100000 28.08600
13956 SI 13956 SI SI1 13956 1.100000 28.08600
13957 SI 13957 SI SI1 13957 1.100000 28.08600
13958 SI 13958 SI SI1 13958 1.100000 28.08600
13959 SI 13959 SI SI1 13959 1.100000 28.08600
13960 SI 13960 SI SI1 13960 1.100000 28.08600
13961 SI 13961 SI SI1 13961 1.100000 28.08600
13962 SI 13962 SI SI1 13962 1.100000 28.08600
13963 SI 13963 SI SI1 13963 1.100000 28.08600
13964 SI 13964 SI SI1 13964 1.100000 28.08600
13965 SI 13965 SI SI1 13965 1.100000 28.08600
13966 SI 13966 SI SI1 13966 1.100000 28.08600
13967 SI 13967 SI SI1 13967 1.100000 28.08600
13968 SI 13968 SI SI1 13968 1.100000 28.08600
13969 SI 13969 SI SI1 13969 1.100000 28.08600
13970 SI 13970 SI SI1 13970 1.100000 28.08600
13971 SI 13971 SI SI1 13971 1.100000 28.08600
13972 SI 13972 SI SI1 13972 1.100000 28.08600
13973 SI 13973 SI SI1 13973 1.100000 28.08600
13974 SI 13974 SI SI1 13974 1.100000 28.08600
13975 SI 13975 SI SI1 13975 1.100000 28.08600
13976 SI 13976 SI SI1 13976 1.100000 28.08600
13977 SI 13977 SI SI1 13977 1.100000 28.08600
13978 SI 13978 SI SI1 13978 1.100000 28.08600
13979 SI 13979 SI SI1 13979 1.100000 28.08600
13980 SI 13980 SI SI1 13980 1.100000 28.08600
13981 SI 13981 SI SI1 13981 1.100000 28.08600
13982 SI 13982 SI SI1 13982 1.100000 28.08600
13983 SI 13983 SI SI1 13983 1.100000 28.08600
13984 SI 13984 SI SI1 13984 1.100000 28.08600
13985 SI 13985 SI SI1 13985 1.100000 28.08600
13986 SI 13986 SI SI1 13986 1.100000 28.08600
13987 SI 13987 SI SI1 13987 1.100000 28.08600
13988 SI 13988 SI SI1 13988 1.100000 28.08600
13989 SI 13989 SI SI1 13989 1.100000 28.08600
13990 SI 13990 SI SI1 13990 1.100000 28.08600
13991 SI 13991 SI SI1 13991 1.100000 28.08600
13992 SI 13992 SI SI1 13992 1.100000 28.08600
13993 SI 13993 SI SI1 13993 1.100000 28.08600
13994 SI 13994 SI SI1 13994 1.100000 28.08600
13995 SI 13995 SI SI1 13995 1.100000 28.08600
13996 SI 13996 SI SI1 13996 1.100000 28.08600
13997 SI 13997 SI SI1 13997 1.100000 28.08600
13998 SI 13998 SI SI1 13998 1.100000 28.08600
13999 SI 13999 SI SI1 13999 1.100000 28.08600
14000 SI 14000 SI SI1 14000 1.100000 28.08600
14001 SI 14001 SI SI1 14001 1.100000 28.08600
14002 SI 14002 SI SI1 14002 1.100000 28.08600
14003 SI 14003 SI SI1 14003 1.100000 28.08600
14004 SI 14004 SI SI1 14004 1.100000 28.08600
14005 SI 14005 SI SI1 14005 1.100000 28.08600
14006 SI 14006 SI SI1 14006 1.100000 28.08600
14007 SI 14007 SI SI1 14007 1.100000 28.08600
14008 SI 14008 SI SI1 14008 1.100000 28.08600
14009 SI 14009 SI SI1 14009 1.100000 28.08600
14010 SI 14010 SI SI1 14010 1.100000 28.08600
14011 SI 14011 SI SI1 14011 1.100000 28.08600
14012 SI 14012 SI SI1 14012 1.100000 28.08600
14013 SI 14013 SI SI1 14013 1.100000 28.08600
14014 SI 14014 SI SI1 14014 1.100000 28.08600
14015 SI 14015 SI SI1 14015 1.100000 28.08600
14016 SI 14016 SI SI1 14016 1.100000 28.08600
14017 SI 14017 SI SI1 14017 1.100000 28.08600
14018 SI 14018 SI SI1 14018 1.100000 28.08600
14019 SI 14019 SI SI1 14019 1.100000 28.08600
14020 SI 14020 SI SI1 14020 1.100000 28.08600
14021 SI 14021 SI SI1 14021 1.100000 28.08600
14022 SI 14022 SI SI1 14022 1.100000 28.08600
14023 SI 14023 SI SI1 14023 1.100000 28.08600
14024 SI 14024 SI SI1 14024 1.100000 28.08600
14025 SI 14025 SI SI1 14025 1.100000 28.08600
14026 SI 14026 SI SI1 14026 1.100000 28.08600
14027 SI 14027 SI SI1 14027 1.100000 28.08600
14028 SI 14028 SI SI1 14028 1.100000 28.08600
14029 SI 14029 SI SI1 14029 1.100000 28.08600
14030 SI 14030 SI SI1 14030 1.100000 28.08600
14031 SI 14031 SI SI1 14031 1.100000 28.08600
14032 SI 14032 SI SI1 14032 1.100000 28.08600
14033 SI 14033 SI SI1 14033 1.100000 28.08600
14034 SI 14034 SI SI1 14034 1.100000 28.08600
14035 SI 14035 SI SI1 14035 1.100000 28.08600
14036 SI 14036 SI SI1 14036 1.100000 28.08600
14037 SI 14037 SI SI1 14037 1.100000 28.08600
14038 SI 14038 SI SI1 14038 1.100000 28.08600
14039 SI 14039 SI SI1 14039 1.100000 28.08600
14040 SI 14040 SI SI1 14040 1.100000 28.08600
14041 SI 14041 SI SI1 14041 1.100000 28.08600
14042 SI 14042 SI SI1 14042 1.100000 28.08600
14043 SI 14043 SI SI1 14043 1.100000 28.08600
14044 SI 14044 SI SI1 14044 1.100000 28.08600
14045 SI 14045 SI SI1 14045 1.100000 28.08600
14046 SI 14046 SI SI1 14046 1.100000 28.08600
14047 SI 14047 SI SI1 14047 1.100000 28.08600
14048 SI 14048 SI SI1 14048 1.100000 28.08600
14049 SI 14049 SI SI1 14049 1.100000 28.08600
14050 SI 14050 SI SI1 14050 1.100000 28.08600
14051 SI 14051 SI SI1 14051 1.100000 28.08600
14052 SI 14052 SI SI1 14052 1.100000 28.08600
14053 SI 14053 SI SI1 14053 1.100000 28.08600
14054 SI 14054 SI SI1 14054 1.100000 28.08600
14055 SI 14055 SI SI1 14055 1.100000 28.08600
14056 SI 14056 SI SI1 14056 1.100000 28.08600
14057 SI 14057 SI SI1 14057 1.100000 28.08600
14058 SI 14058 SI SI1 14058 1.100000 28.08600
14059 SI 14059 SI SI1 14059 1.100000 28.08600
14060 SI 14060 SI SI1 14060 1.100000 28.08600
14061 SI 14061 SI SI1 14061 1.100000 28.08600
14062 SI 14062 SI SI1 14062 1.100000 28.08600
14063 SI 14063 SI SI1 14063 1.100000 28.08600
14064 SI 14064 SI SI1 14064 1.100000 28.08600
14065 SI 14065 SI SI1 14065 1.100000 28.08600
14066 SI 14066 SI SI1 14066 1.100000 28.08600
14067 SI 14067 SI SI1 14067 1.100000 28.08600
14068 SI 14068 SI SI1 14068 1.100000 28.08600
14069 SI 14069 SI SI1 14069 1.100000 28.08600
14070 SI 14070 SI SI1 14070 1.100000 28.08600
14071 SI 14071 SI SI1 14071 1.100000 28.08600
14072 SI 14072 SI SI1 14072 1.100000 28.08600
14073 SI 14073 SI SI1 14073 1.100000 28.08600
14074 SI 14074 SI SI1 14074 1.100000 28.08600
14075 SI 14075 SI SI1 14075 1.100000 28.08600
14076 SI 14076 SI SI1 14076 1.100000 28.08600
14077 SI 14077 SI SI1 14077 1.100000 28.08600
14078 SI 14078 SI SI1 14078 1.100000 28.08600
14079 SI 14079 SI SI1 14079 1.100000 28.08600
14080 SI 14080 SI SI1 14080 1.100000 28.08600
14081 SI 14081 SI SI1 14081 1.100000 28.08600
14082 SI 14082 SI SI1 14082 1.100000 28.08600
14083 SI 14083 SI SI1 14083 1.100000 28.08600
14084 SI 14084 SI SI1 14084 1.100000 28.08600
14085 SI 14085 SI SI1 14085 1.100000 28.08600
14086 SI 14086 SI SI1 14086 1.100000 28.08600
14087 SI 14087 SI SI1 14087 1.100000 28.08600
14088 SI 14088 SI SI1 14088 1.100000 28.08600
14089 SI 14089 SI SI1 14089 1.100000 28.08600
14090 SI 14090 SI SI1 14090 1.100000 28.08600
14091 SI 14091 SI SI1 14091 1.100000 28.08600
14092 SI 14092 SI SI1 14092 1.100000 28.08600
14093 SI 14093 SI SI1 14093 1.100000 28.08600
14094 SI 14094 SI SI1 14094 1.100000 28.08600
14095 SI 14095 SI SI1 14095 1.100000 28.08600
14096 SI 14096 SI SI1 14096 1.100000 28.08600
14097 SI 14097 SI SI1 14097 1.100000 28.08600
14098 SI 14098 SI SI1 14098 1.100000 28.08600
14099 SI 14099 SI SI1 14099 1.100000 28.08600
14100 SI 14100 SI SI1 14100 1.100000 28.08600
14101 SI 14101 SI SI1 14101 1.100000 28.08600
14102 SI 14102 SI SI1 14102 1.100000 28.08600
14103 SI 14103 SI SI1 14103 1.100000 28.08600
14104 SI 14104 SI SI1 14104 1.100000 28.08600
14105 SI 14105 SI SI1 14105 1.100000 28.08600
14106 SI 14106 SI SI1 14106 1.100000 28.08600
14107 SI 14107 SI SI1 14107 1.100000 28.08600
14108 SI 14108 SI SI1 14108 1.100000 28.08600
14109 SI 14109 SI SI1 14109 1.100000 28.08600
14110 SI 14110 SI SI1 14110 1.100000 28.08600
14111 SI 14111 SI SI1 14111 1.100000 28.08600
14112 SI 14112 SI SI1 14112 1.100000 28.08600
14113 SI 14113 SI SI1 14113 1.100000 28.08600
14114 SI 14114 SI SI1 14114 1.100000 28.08600
14115 SI 14115 SI SI1 14115 1.100000 28.08600
14116 SI 14116 SI SI1 14116 1.100000 28.08600
14117 SI 14117 SI SI1 14117 1.100000 28.08600
14118 SI 14118 SI SI1 14118 1.100000 28.08600
14119 SI 14119 SI SI1 14119 1.100000 28.08600
14120 SI 14120 SI SI1 14120 1.100000 28.08600
14121 SI 14121 SI SI1 14121 1.100000 28.08600
14122 SI 14122 SI SI1 14122 1.100000 28.08600
14123 SI 14123 SI SI1 14123 1.100000 28.08600
14124 SI 14124 SI SI1 14124 1.100000 28.08600
14125 SI 14125 SI SI1 14125 1.100000 28.08600
14126 SI 14126 SI SI1 14126 1.100000 28.08600
14127 SI 14127 SI SI1 14127 1.100000 28.08600
14128 SI 14128 SI SI1 14128 1.100000 28.08600
14129 SI 14129 SI SI1 14129 1.100000 28.08600
14130 SI 14130 SI SI1 14130 1.100000 28.08600
14131 SI 14131 SI SI1 14131 1.100000 28.08600
14132 SI 14132 SI SI1 14132 1.100000 28.08600
14133 SI 14133 SI SI1 14133 1.100000 28.08600
14134 SI 14134 SI SI1 14134 1.100000 28.08600
14135 SI 14135 SI SI1 14135 1.100000 28.08600
14136 SI 14136 SI SI1 14136 1.100000 28.08600
14137 SI 14137 SI SI1 14137 1.100000 28.08600
14138 SI 14138 SI SI1 14138 1.100000 28.08600
14139 SI 14139 SI SI1 14139 1.100000 28.08600
14140 SI 14140 SI SI1 14140 1.100000 28.08600
14141 SI 14141 SI SI1 14141 1.100000 28.08600
14142 SI 14142 SI SI1 14142 1.100000 28.08600
14143 SI 14143 SI SI1 14143 1.100000 28.08600
14144 SI 14144 SI SI1 14144 1.100000 28.08600
14145 SI 14145 SI SI1 14145 1.100000 28.08600
14146 SI 14146 SI SI1 14146 1.100000 28.08600
14147 SI 14147 SI SI1 14147 1.100000 28.08600
14148 SI 14148 SI SI1 14148 1.100000 28.08600
14149 SI 14149 SI SI1 14149 1.100000 28.08600
14150 SI 14150 SI SI1 14150 1.100000 28.08600
14151 SI 14151 SI SI1 14151 1.100000 28.08600
14152 SI 14152 SI SI1 14152 1.100000 28.08600
14153 SI 14153 SI SI1 14153 1.100000 28.08600
14154 SI 14154 SI SI1 14154 1.100000 28.08600
14155 SI 14155 SI SI1 14155 1.100000 28.08600
14156 SI 14156 SI SI1 14156 1.100000 28.08600
14157 SI 14157 SI SI1 14157 1.100000 28.08600
14158 SI 14158 SI SI1 14158 1.100000 28.08600
14159 SI 14159 SI SI1 14159 1.100000 28.08600
14160 SI 14160 SI SI1 14160 1.100000 28.08600
14161 SI 14161 SI SI1 14161 1.100000 28.08600
14162 SI 14162 SI SI1 14162 1.100000 28.08600
14163 SI 14163 SI SI1 14163 1.100000 28.08600
14164 SI 14164 SI SI1 14164 1.100000 28.08600
14165 SI 14165 SI SI1 14165 1.100000 28.08600
14166 SI 14166 SI SI1 14166 1.100000 28.08600
14167 SI 14167 SI SI1 14167 1.100000 28.08600
14168 SI 14168 SI SI1 14168 1.100000 28.08600
14169 SI 14169 SI SI1 14169 1.100000 28.08600
14170 SI 14170 SI SI1 14170 1.100000 28.08600
14171 SI 14171 SI SI1 14171 1.100000 28.08600
14172 SI 14172 SI SI1 14172 1.100000 28.08600
14173 SI 14173 SI SI1 14173 1.100000 28.08600
14174 SI 14174 SI SI1 14174 1.100000 28.08600
14175 SI 14175 SI SI1 14175 1.100000 28.08600
14176 SI 14176 SI SI1 14176 1.100000 28.08600
14177 SI 14177 SI SI1 14177 1.100000 28.08600
14178 SI 14178 SI SI1 14178 1.100000 28.08600
14179 SI 14179 SI SI1 14179 1.100000 28.08600
14180 SI 14180 SI SI1 14180 1.100000 28.08600
14181 SI 14181 SI SI1 14181 1.100000 28.08600
14182 SI 14182 SI SI1 14182 1.100000 28.08600
14183 SI 14183 SI SI1 14183 1.100000 28.08600
14184 SI 14184 SI SI1 14184 1.100000 28.08600
14185 SI 14185 SI SI1 14185 1.100000 28.08600
14186 SI 14186 SI SI1 14186 1.100000 28.08600
14187 SI 14187 SI SI1 14187 1.100000 28.08600
14188 SI 14188 SI SI1 14188 1.100000 28.08600
14189 SI 14189 SI SI1 14189 1.100000 28.08600
14190 SI 14190 SI SI1 14190 1.100000 28.08600
14191 SI 14191 SI SI1 14191 1.100000 28.08600
14192 SI 14192 SI SI1 14192 1.100000 28.08600
14193 SI 14193 SI SI1 14193 1.100000 28.08600
14194 SI 14194 SI SI1 14194 1.100000 28.08600
14195 SI 14195 SI SI1 14195 1.100000 28.08600
14196 SI 14196 SI SI1 14196 1.100000 28.08600
14197 SI 14197 SI SI1 14197 1.100000 28.08600
14198 SI 14198 SI SI1 14198 1.100000 28.08600
14199 SI 14199 SI SI1 14199 1.100000 28.08600
14200 SI 14200 SI SI1 14200 1.100000 28.08600
14201 SI 14201 SI SI1 14201 1.100000 28.08600
14202 SI 14202 SI SI1 14202 1.100000 28.08600
14203 SI 14203 SI SI1 14203 1.100000 28.08600
14204 SI 14204 SI SI1 14204 1.100000 28.08600
14205 SI 14205 SI SI1 14205 1.100000 28.08600
14206 SI 14206 SI SI1 14206 1.100000 28.08600
14207 SI 14207 SI SI1 14207 1.100000 28.08600
14208 SI 14208 SI SI1 14208 1.100000 28.08600
14209 SI 14209 SI SI1 14209 1.100000 28.08600
14210 SI 14210 SI SI1 14210 1.100000 28.08600
14211 SI 14211 SI SI1 14211 1.100000 28.08600
14212 SI 14212 SI SI1 14212 1.100000 28.08600
14213 SI 14213 SI SI1 14213 1.100000 28.08600
14214 SI 14214 SI SI1 14214 1.100000 28.08600
14215 SI 14215 SI SI1 14215 1.100000 28.08600
14216 SI 14216 SI SI1 14216 1.100000 28.08600
14217 SI 14217 SI SI1 14217 1.100000 28.08600
14218 SI 14218 SI SI1 14218 1.100000 28.08600
14219 SI 14219 SI SI1 14219 1.100000 28.08600
14220 SI 14220 SI SI1 14220 1.100000 28.08600
14221 SI 14221 SI SI1 14221 1.100000 28.08600
14222 SI 14222 SI SI1 14222 1.100000 28.08600
14223 SI 14223 SI SI1 14223 1.100000 28.08600
14224 SI 14224 SI SI1 14224 1.100000 28.08600
14225 SI 14225 SI SI1 14225 1.100000 28.08600
14226 SI 14226 SI SI1 14226 1.100000 28.08600
14227 SI 14227 SI SI1 14227 1.100000 28.08600
14228 SI 14228 SI SI1 14228 1.100000 28.08600
14229 SI 14229 SI SI1 14229 1.100000 28.08600
14230 SI 14230 SI SI1 14230 1.100000 28.08600
14231 SI 14231 SI SI1 14231 1.100000 28.08600
14232 SI 14232 SI SI1 14232 1.100000 28.08600
14233 SI 14233 SI SI1 14233 1.100000 28.08600
14234 SI 14234 SI SI1 14234 1.100000 28.08600
14235 SI 14235 SI SI1 14235 1.100000 28.08600
14236 SI 14236 SI SI1 14236 1.100000 28.08600
14237 SI 14237 SI SI1 14237 1.100000 28.08600
14238 SI 14238 SI SI1 14238 1.100000 28.08600
14239 SI 14239 SI SI1 14239 1.100000 28.08600
14240 SI 14240 SI SI1 14240 1.100000 28.08600
14241 SI 14241 SI SI1 14241 1.100000 28.08600
14242 SI 14242 SI SI1 14242 1.100000 28.08600
14243 SI 14243 SI SI1 14243 1.100000 28.08600
14244 SI 14244 SI SI1 14244 1.100000 28.08600
14245 SI 14245 SI SI1 14245 1.100000 28.08600
14246 SI 14246 SI SI1 14246 1.100000 28.08600
14247 SI 14247 SI SI1 14247 1.100000 28.08600
14248 SI 14248 SI SI1 14248 1.100000 28.08600
14249 SI 14249 SI SI1 14249 1.100000 28.08600
14250 SI 14250 SI SI1 14250 1.100000 28.08600
14251 SI 14251 SI SI1 14251 1.100000 28.08600
14252 SI 14252 SI SI1 14252 1.100000 28.08600
14253 SI 14253 SI SI1 14253 1.100000 28.08600
14254 SI 14254 SI SI1 14254 1.100000 28.08600
14255 SI 14255 SI SI1 14255 1.100000 28.08600
14256 SI 14256 SI SI1 14256 1.100000 28.08600
14257 SI 14257 SI SI1 14257 1.100000 28.08600
14258 SI 14258 SI SI1 14258 1.100000 28.08600
14259 SI 14259 SI SI1 14259 1.100000 28.08600
14260 SI 14260 SI SI1 14260 1.100000 28.08600
14261 SI 14261 SI SI1 14261 1.100000 28.08600
14262 SI 14262 SI SI1 14262 1.100000 28.08600
14263 SI 14263 SI SI1 14263 1.100000 28.08600
14264 SI 14264 SI SI1 14264 1.100000 28.08600
14265 SI 14265 SI SI1 14265 1.100000 28.08600
14266 SI 14266 SI SI1 14266 1.100000 28.08600
14267 SI 14267 SI SI1 14267 1.100000 28.08600
14268 SI 14268 SI SI1 14268 1.100000 28.08600
14269 SI 14269 SI SI1 14269 1.100000 28.08600
14270 SI 14270 SI SI1 14270 1.100000 28.08600
14271 SI 14271 SI SI1 14271 1.100000 28.08600
14272 SI 14272 SI SI1 14272 1.100000 28.08600
14273 SI 14273 SI SI1 14273 1.100000 28.08600
14274 SI 14274 SI SI1 14274 1.100000 28.08600
14275 SI 14275 SI SI1 14275 1.100000 28.08600
14276 SI 14276 SI SI1 14276 1.100000 28.08600
14277 SI 14277 SI SI1 14277 1.100000 28.08600
14278 SI 14278 SI SI1 14278 1.100000 28.08600
14279 SI 14279 SI SI1 14279 1.100000 28.08600
14280 SI 14280 SI SI1 14280 1.100000 28.08600
14281 SI 14281 SI SI1 14281 1.100000 28.08600
14282 SI 14282 SI SI1 14282 1.100000 28.08600
14283 SI 14283 SI SI1 14283 1.100000 28.08600
14284 SI 14284 SI SI1 14284 1.100000 28.08600
14285 SI 14285 SI SI1 14285 1.100000 28.08600
14286 SI 14286 SI SI1 14286 1.100000 28.08600
14287 SI 14287 SI SI1 14287 1.100000 28.08600
14288 SI 14288 SI SI1 14288 1.100000 28.08600
14289 SI 14289 SI SI1 14289 1.100000 28.08600
14290 SI 14290 SI SI1 14290 1.100000 28.08600
14291 SI 14291 SI SI1 14291 1.100000 28.08600
14292 SI 14292 SI SI1 14292 1.100000 28.08600
14293 SI 14293 SI SI1 14293 1.100000 28.08600
14294 SI 14294 SI SI1 14294 1.100000 28.08600
14295 SI 14295 SI SI1 14295 1.100000 28.08600
14296 SI 14296 SI SI1 14296 1.100000 28.08600
14297 SI 14297 SI SI1 14297 1.100000 28.08600
14298 SI 14298 SI SI1 14298 1.100000 28.08600
14299 SI 14299 SI SI1 14299 1.100000 28.08600
14300 SI 14300 SI SI1 14300 1.100000 28.08600
14301 SI 14301 SI SI1 14301 1.100000 28.08600
14302 SI 14302 SI SI1 14302 1.100000 28.08600
14303 SI 14303 SI SI1 14303 1.100000 28.08600
14304 SI 14304 SI SI1 14304 1.100000 28.08600
14305 SI 14305 SI SI1 14305 1.100000 28.08600
14306 SI 14306 SI SI1 14306 1.100000 28.08600
14307 SI 14307 SI SI1 14307 1.100000 28.08600
14308 SI 14308 SI SI1 14308 1.100000 28.08600
14309 SI 14309 SI SI1 14309 1.100000 28.08600
14310 SI 14310 SI SI1 14310 1.100000 28.08600
14311 SI 14311 SI SI1 14311 1.100000 28.08600
14312 SI 14312 SI SI1 14312 1.100000 28.08600
14313 SI 14313 SI SI1 14313 1.100000 28.08600
14314 SI 14314 SI SI1 14314 1.100000 28.08600
14315 SI 14315 SI SI1 14315 1.100000 28.08600
14316 SI 14316 SI SI1 14316 1.100000 28.08600
14317 SI 14317 SI SI1 14317 1.100000 28.08600
14318 SI 14318 SI SI1 14318 1.100000 28.08600
14319 SI 14319 SI SI1 14319 1.100000 28.08600
14320 SI 14320 SI SI1 14320 1.100000 28.08600
14321 SI 14321 SI SI1 14321 1.100000 28.08600
14322 SI 14322 SI SI1 14322 1.100000 28.08600
14323 SI 14323 SI SI1 14323 1.100000 28.08600
14324 SI 14324 SI SI1 14324 1.100000 28.08600
14325 SI 14325 SI SI1 14325 1.100000 28.08600
14326 SI 14326 SI SI1 14326 1.100000 28.08600
14327 SI 14327 SI SI1 14327 1.100000 28.08600
14328 SI 14328 SI SI1 14328 1.100000 28.08600
14329 SI 14329 SI SI1 14329 1.100000 28.08600
14330 SI 14330 SI SI1 14330 1.100000 28.08600
14331 SI 14331 SI SI1 14331 1.100000 28.08600
14332 SI 14332 SI SI1 14332 1.100000 28.08600
14333 SI 14333 SI SI1 14333 1.100000 28.08600
14334 SI 14334 SI SI1 14334 1.100000 28.08600
14335 SI 14335 SI SI1 14335 1.100000 28.08600
14336 SI 14336 SI SI1 14336 1.100000 28.08600
14337 SI 14337 SI SI1 14337 1.100000 28.08600
14338 SI 14338 SI SI1 14338 1.100000 28.08600
14339 SI 14339 SI SI1 14339 1.100000 28.08600
14340 SI 14340 SI SI1 14340 1.100000 28.08600
14341 SI 14341 SI SI1 14341 1.100000 28.08600
14342 SI 14342 SI SI1 14342 1.100000 28.08600
14343 SI 14343 SI SI1 14343 1.100000 28.08600
14344 SI 14344 SI SI1 14344 1.100000 28.08600
14345 SI 14345 SI SI1 14345 1.100000 28.08600
14346 SI 14346 SI SI1 14346 1.100000 28.08600
14347 SI 14347 SI SI1 14347 1.100000 28.08600
14348 SI 14348 SI SI1 14348 1.100000 28.08600
14349 SI 14349 SI SI1 14349 1.100000 28.08600
14350 SI 14350 SI SI1 14350 1.100000 28.08600
14351 SI 14351 SI SI1 14351 1.100000 28.08600
14352 SI 14352 SI SI1 14352 1.100000 28.08600
14353 SI 14353 SI SI1 14353 1.100000 28.08600
14354 SI 14354 SI SI1 14354 1.100000 28.08600
14355 SI 14355 SI SI1 14355 1.100000 28.08600
14356 SI 14356 SI SI1 14356 1.100000 28.08600
14357 SI 14357 SI SI1 14357 1.100000 28.08600
14358 SI 14358 SI SI1 14358 1.100000 28.08600
14359 SI 14359 SI SI1 14359 1.100000 28.08600
14360 SI 14360 SI SI1 14360 1.100000 28.08600
14361 SI 14361 SI SI1 14361 1.100000 28.08600
14362 SI 14362 SI SI1 14362 1.100000 28.08600
14363 SI 14363 SI SI1 14363 1.100000 28.08600
14364 SI 14364 SI SI1 14364 1.100000 28.08600
14365 SI 14365 SI SI1 14365 1.100000 28.08600
14366 SI 14366 SI SI1 14366 1.100000 28.08600
14367 SI 14367 SI SI1 14367 1.100000 28.08600
14368 SI 14368 SI SI1 14368 1.100000 28.08600
14369 SI 14369 SI SI1 14369 1.100000 28.08600
14370 SI 14370 SI SI1 14370 1.100000 28.08600
14371 SI 14371 SI SI1 14371 1.100000 28.08600
14372 SI 14372 SI SI1 14372 1.100000 28.08600
14373 SI 14373 SI SI1 14373 1.100000 28.08600
14374 SI 14374 SI SI1 14374 1.100000 28.08600
14375 SI 14375 SI SI1 14375 1.100000 28.08600
14376 SI 14376 SI SI1 14376 1.100000 28.08600
14377 SI 14377 SI SI1 14377 1.100000 28.08600
14378 SI 14378 SI SI1 14378 1.100000 28.08600
14379 SI 14379 SI SI1 14379 1.100000 28.08600
14380 SI 14380 SI SI1 14380 1.100000 28.08600
14381 SI 14381 SI SI1 14381 1.100000 28.08600
14382 SI 14382 SI SI1 14382 1.100000 28.08600
14383 SI 14383 SI SI1 14383 1.100000 28.08600
14384 SI 14384 SI SI1 14384 1.100000 28.08600
14385 SI 14385 SI SI1 14385 1.100000 28.08600
14386 SI 14386 SI SI1 14386 1.100000 28.08600
14387 SI 14387 SI SI1 14387 1.100000 28.08600
14388 SI 14388 SI SI1 14388 1.100000 28.08600
14389 SI 14389 SI SI1 14389 1.100000 28.08600
14390 SI 14390 SI SI1 14390 1.100000 28.08600
14391 SI 14391 SI SI1 14391 1.100000 28.08600
14392 SI 14392 SI SI1 14392 1.100000 28.08600
14393 SI 14393 SI SI1 14393 1.100000 28.08600
14394 SI 14394 SI SI1 14394 1.100000 28.08600
14395 SI 14395 SI SI1 14395 1.100000 28.08600
14396 SI 14396 SI SI1 14396 1.100000 28.08600
14397 SI 14397 SI SI1 14397 1.100000 28.08600
14398 SI 14398 SI SI1 14398 1.100000 28.08600
14399 SI 14399 SI SI1 14399 1.100000 28.08600
14400 SI 14400 SI SI1 14400 1.100000 28.08600
14401 SI 14401 SI SI1 14401 1.100000 28.08600
14402 SI 14402 SI SI1 14402 1.100000 28.08600
14403 SI 14403 SI SI1 14403 1.100000 28.08600
14404 SI 14404 SI SI1 14404 1.100000 28.08600
14405 SI 14405 SI SI1 14405 1.100000 28.08600
14406 SI 14406 SI SI1 14406 1.100000 28.08600
14407 SI 14407 SI SI1 14407 1.100000 28.08600
14408 SI 14408 SI SI1 14408 1.100000 28.08600
14409 SI 14409 SI SI1 14409 1.100000 28.08600
14410 SI 14410 SI SI1 14410 1.100000 28.08600
14411 SI 14411 SI SI1 14411 1.100000 28.08600
14412 SI 14412 SI SI1 14412 1.100000 28.08600
14413 SI 14413 SI SI1 14413 1.100000 28.08600
14414 SI 14414 SI SI1 14414 1.100000 28.08600
14415 SI 14415 SI SI1 14415 1.100000 28.08600
14416 SI 14416 SI SI1 14416 1.100000 28.08600
14417 SI 14417 SI SI1 14417 1.100000 28.08600
14418 SI 14418 SI SI1 14418 1.100000 28.08600
14419 SI 14419 SI SI1 14419 1.100000 28.08600
14420 SI 14420 SI SI1 14420 1.100000 28.08600
14421 SI 14421 SI SI1 14421 1.100000 28.08600
14422 SI 14422 SI SI1 14422 1.100000 28.08600
14423 SI 14423 SI SI1 14423 1.100000 28.08600
14424 SI 14424 SI SI1 14424 1.100000 28.08600
14425 SI 14425 SI SI1 14425 1.100000 28.08600
14426 SI 14426 SI SI1 14426 1.100000 28.08600
14427 SI 14427 SI SI1 14427 1.100000 28.08600
14428 SI 14428 SI SI1 14428 1.100000 28.08600
14429 SI 14429 SI SI1 14429 1.100000 28.08600
14430 SI 14430 SI SI1 14430 1.100000 28.08600
14431 SI 14431 SI SI1 14431 1.100000 28.08600
14432 SI 14432 SI SI1 14432 1.100000 28.08600
14433 SI 14433 SI SI1 14433 1.100000 28.08600
14434 SI 14434 SI SI1 14434 1.100000 28.08600
14435 SI 14435 SI SI1 14435 1.100000 28.08600
14436 SI 14436 SI SI1 14436 1.100000 28.08600
14437 SI 14437 SI SI1 14437 1.100000 28.08600
14438 SI 14438 SI SI1 14438 1.100000 28.08600
14439 SI 14439 SI SI1 14439 1.100000 28.08600
14440 SI 14440 SI SI1 14440 1.100000 28.08600
14441 SI 14441 SI SI1 14441 1.100000 28.08600
14442 SI 14442 SI SI1 14442 1.100000 28.08600
14443 SI 14443 SI SI1 14443 1.100000 28.08600
14444 SI 14444 SI SI1 14444 1.100000 28.08600
14445 SI 14445 SI SI1 14445 1.100000 28.08600
14446 SI 14446 SI SI1 14446 1.100000 28.08600
14447 SI 14447 SI SI1 14447 1.100000 28.08600
14448 SI 14448 SI SI1 14448 1.100000 28.08600
14449 SI 14449 SI SI1 14449 1.100000 28.08600
14450 SI 14450 SI SI1 14450 1.100000 28.08600
14451 SI 14451 SI SI1 14451 1.100000 28.08600
14452 SI 14452 SI SI1 14452 1.100000 28.08600
14453 SI 14453 SI SI1 14453 1.100000 28.08600
14454 SI 14454 SI SI1 14454 1.100000 28.08600
14455 SI 14455 SI SI1 14455 1.100000 28.08600
14456 SI 14456 SI SI1 14456 1.100000 28.08600
14457 SI 14457 SI SI1 14457 1.100000 28.08600
14458 SI 14458 SI SI1 14458 1.100000 28.08600
14459 SI 14459 SI SI1 14459 1.100000 28.08600
14460 SI 14460 SI SI1 14460 1.100000 28.08600
14461 SI 14461 SI SI1 14461 1.100000 28.08600
14462 SI 14462 SI SI1 14462 1.100000 28.08600
14463 SI 14463 SI SI1 14463 1.100000 28.08600
14464 SI 14464 SI SI1 14464 1.100000 28.08600
14465 SI 14465 SI SI1 14465 1.100000 28.08600
14466 SI 14466 SI SI1 14466 1.100000 28.08600
14467 SI 14467 SI SI1 14467 1.100000 28.08600
14468 SI 14468 SI SI1 14468 1.100000 28.08600
14469 SI 14469 SI SI1 14469 1.100000 28.08600
14470 SI 14470 SI SI1 14470 1.100000 28.08600
14471 SI 14471 SI SI1 14471 1.100000 28.08600
14472 SI 14472 SI SI1 14472 1.100000 28.08600
14473 SI 14473 SI SI1 14473 1.100000 28.08600
14474 SI 14474 SI SI1 14474 1.100000 28.08600
14475 SI 14475 SI SI1 14475 1.100000 28.08600
14476 SI 14476 SI SI1 14476 1.100000 28.08600
14477 SI 14477 SI SI1 14477 1.100000 28.08600
14478 SI 14478 SI SI1 14478 1.100000 28.08600
14479 SI 14479 SI SI1 14479 1.100000 28.08600
14480 SI 14480 SI SI1 14480 1.100000 28.08600
14481 SI 14481 SI SI1 14481 1.100000 28.08600
14482 SI 14482 SI SI1 14482 1.100000 28.08600
14483 SI 14483 SI SI1 14483 1.100000 28.08600
14484 SI 14484 SI SI1 14484 1.100000 28.08600
14485 SI 14485 SI SI1 14485 1.100000 28.08600
14486 SI 14486 SI SI1 14486 1.100000 28.08600
14487 SI 14487 SI SI1 14487 1.100000 28.08600
14488 SI 14488 SI SI1 14488 1.100000 28.08600
14489 SI 14489 SI SI1 14489 1.100000 28.08600
14490 SI 14490 SI SI1 14490 1.100000 28.08600
14491 SI 14491 SI SI1 14491 1.100000 28.08600
14492 SI 14492 SI SI1 14492 1.100000 28.08600
14493 SI 14493 SI SI1 14493 1.100000 28.08600
14494 SI 14494 SI SI1 14494 1.100000 28.08600
14495 SI 14495 SI SI1 14495 1.100000 28.08600
14496 SI 14496 SI SI1 14496 1.100000 28.08600
14497 SI 14497 SI SI1 14497 1.100000 28.08600
14498 SI 14498 SI SI1 14498 1.100000 28.08600
14499 SI 14499 SI SI1 14499 1.100000 28.08600
14500 SI 14500 SI SI1 14500 1.100000 28.08600
14501 SI 14501 SI SI1 14501 1.100000 28.08600
14502 SI 14502 SI SI1 14502 1.100000 28.08600
14503 SI 14503 SI SI1 14503 1.100000 28.08600
14504 SI 14504 SI SI1 14504 1.100000 28.08600
14505 SI 14505 SI SI1 14505 1.100000 28.08600
14506 SI 14506 SI SI1 14506 1.100000 28.08600
14507 SI 14507 SI SI1 14507 1.100000 28.08600
14508 SI 14508 SI SI1 14508 1.100000 28.08600
14509 SI 14509 SI SI1 14509 1.100000 28.08600
14510 SI 14510 SI SI1 14510 1.100000 28.08600
14511 SI 14511 SI SI1 14511 1.100000 28.08600
14512 SI 14512 SI SI1 14512 1.100000 28.08600
14513 SI 14513 SI SI1 14513 1.100000 28.08600
14514 SI 14514 SI SI1 14514 1.100000 28.08600
14515 SI 14515 SI SI1 14515 1.100000 28.08600
14516 SI 14516 SI SI1 14516 1.100000 28.08600
14517 SI 14517 SI SI1 14517 1.100000 28.08600
14518 SI 14518 SI SI1 14518 1.100000 28.08600
14519 SI 14519 SI SI1 14519 1.100000 28.08600
14520 SI 14520 SI SI1 14520 1.100000 28.08600
14521 SI 14521 SI SI1 14521 1.100000 28.08600
14522 SI 14522 SI SI1 14522 1.100000 28.08600
14523 SI 14523 SI SI1 14523 1.100000 28.08600
14524 SI 14524 SI SI1 14524 1.100000 28.08600
14525 SI 14525 SI SI1 14525 1.100000 28.08600
14526 SI 14526 SI SI1 14526 1.100000 28.08600
14527 SI 14527 SI SI1 14527 1.100000 28.08600
14528 SI 14528 SI SI1 14528 1.100000 28.08600
14529 SI 14529 SI SI1 14529 1.100000 28.08600
14530 SI 14530 SI SI1 14530 1.100000 28.08600
14531 SI 14531 SI SI1 14531 1.100000 28.08600
14532 SI 14532 SI SI1 14532 1.100000 28.08600
14533 SI 14533 SI SI1 14533 1.100000 28.08600
14534 SI 14534 SI SI1 14534 1.100000 28.08600
14535 SI 14535 SI SI1 14535 1.100000 28.08600
14536 SI 14536 SI SI1 14536 1.100000 28.08600
14537 SI 14537 SI SI1 14537 1.100000 28.08600
14538 SI 14538 SI SI1 14538 1.100000 28.08600
14539 SI 14539 SI SI1 14539 1.100000 28.08600
14540 SI 14540 SI SI1 14540 1.100000 28.08600
14541 SI 14541 SI SI1 14541 1.100000 28.08600
14542 SI 14542 SI SI1 14542 1.100000 28.08600
14543 SI 14543 SI SI1 14543 1.100000 28.08600
14544 SI 14544 SI SI1 14544 1.100000 28.08600
14545 SI 14545 SI SI1 14545 1.100000 28.08600
14546 SI 14546 SI SI1 14546 1.100000 28.08600
14547 SI 14547 SI SI1 14547 1.100000 28.08600
14548 SI 14548 SI SI1 14548 1.100000 28.08600
14549 SI 14549 SI SI1 14549 1.100000 28.08600
14550 SI 14550 SI SI1 14550 1.100000 28.08600
14551 SI 14551 SI SI1 14551 1.100000 28.08600
14552 SI 14552 SI SI1 14552 1.100000 28.08600
14553 SI 14553 SI SI1 14553 1.100000 28.08600
14554 SI 14554 SI SI1 14554 1.100000 28.08600
14555 SI 14555 SI SI1 14555 1.100000 28.08600
14556 SI 14556 SI SI1 14556 1.100000 28.08600
14557 SI 14557 SI SI1 14557 1.100000 28.08600
14558 SI 14558 SI SI1 14558 1.100000 28.08600
14559 SI 14559 SI SI1 14559 1.100000 28.08600
14560 SI 14560 SI SI1 14560 1.100000 28.08600
14561 SI 14561 SI SI1 14561 1.100000 28.08600
14562 SI 14562 SI SI1 14562 1.100000 28.08600
14563 SI 14563 SI SI1 14563 1.100000 28.08600
14564 SI 14564 SI SI1 14564 1.100000 28.08600
14565 SI 14565 SI SI1 14565 1.100000 28.08600
14566 SI 14566 SI SI1 14566 1.100000 28.08600
14567 SI 14567 SI SI1 14567 1.100000 28.08600
14568 SI 14568 SI SI1 14568 1.100000 28.08600
14569 SI 14569 SI SI1 14569 1.100000 28.08600
14570 SI 14570 SI SI1 14570 1.100000 28.08600
14571 SI 14571 SI SI1 14571 1.100000 28.08600
14572 SI 14572 SI SI1 14572 1.100000 28.08600
14573 SI 14573 SI SI1 14573 1.100000 28.08600
14574 SI 14574 SI SI1 14574 1.100000 28.08600
14575 SI 14575 SI SI1 14575 1.100000 28.08600
14576 SI 14576 SI SI1 14576 1.100000 28.08600
14577 SI 14577 SI SI1 14577 1.100000 28.08600
14578 SI 14578 SI SI1 14578 1.100000 28.08600
14579 SI 14579 SI SI1 14579 1.100000 28.08600
14580 SI 14580 SI SI1 14580 1.100000 28.08600
14581 SI 14581 SI SI1 14581 1.100000 28.08600
14582 SI 14582 SI SI1 14582 1.100000 28.08600
14583 SI 14583 SI SI1 14583 1.100000 28.08600
14584 SI 14584 SI SI1 14584 1.100000 28.08600
14585 SI 14585 SI SI1 14585 1.100000 28.08600
14586 SI 14586 SI SI1 14586 1.100000 28.08600
14587 SI 14587 SI SI1 14587 1.100000 28.08600
14588 SI 14588 SI SI1 14588 1.100000 28.08600
14589 SI 14589 SI SI1 14589 1.100000 28.08600
14590 SI 14590 SI SI1 14590 1.100000 28.08600
14591 SI 14591 SI SI1 14591 1.100000 28.08600
14592 SI 14592 SI SI1 14592 1.100000 28.08600
14593 SI 14593 SI SI1 14593 1.100000 28.08600
14594 SI 14594 SI SI1 14594 1.100000 28.08600
14595 SI 14595 SI SI1 14595 1.100000 28.08600
14596 SI 14596 SI SI1 14596 1.100000 28.08600
14597 SI 14597 SI SI1 14597 1.100000 28.08600
14598 SI 14598 SI SI1 14598 1.100000 28.08600
14599 SI 14599 SI SI1 14599 1.100000 28.08600
14600 SI 14600 SI SI1 14600 1.100000 28.08600
14601 SI 14601 SI SI1 14601 1.100000 28.08600
14602 SI 14602 SI SI1 14602 1.100000 28.08600
14603 SI 14603 SI SI1 14603 1.100000 28.08600
14604 SI 14604 SI SI1 14604 1.100000 28.08600
14605 SI 14605 SI SI1 14605 1.100000 28.08600
14606 SI 14606 SI SI1 14606 1.100000 28.08600
14607 SI 14607 SI SI1 14607 1.100000 28.08600
14608 SI 14608 SI SI1 14608 1.100000 28.08600
14609 SI 14609 SI SI1 14609 1.100000 28.08600
14610 SI 14610 SI SI1 14610 1.100000 28.08600
14611 SI 14611 SI SI1 14611 1.100000 28.08600
14612 SI 14612 SI SI1 14612 1.100000 28.08600
14613 SI 14613 SI SI1 14613 1.100000 28.08600
14614 SI 14614 SI SI1 14614 1.100000 28.08600
14615 SI 14615 SI SI1 14615 1.100000 28.08600
14616 SI 14616 SI SI1 14616 1.100000 28.08600
14617 SI 14617 SI SI1 14617 1.100000 28.08600
14618 SI 14618 SI SI1 14618 1.100000 28.08600
14619 SI 14619 SI SI1 14619 1.100000 28.08600
14620 SI 14620 SI SI1 14620 1.100000 28.08600
14621 SI 14621 SI SI1 14621 1.100000 28.08600
14622 SI 14622 SI SI1 14622 1.100000 28.08600
14623 SI 14623 SI SI1 14623 1.100000 28.08600
14624 SI 14624 SI SI1 14624 1.100000 28.08600
14625 SI 14625 SI SI1 14625 1.100000 28.08600
14626 SI 14626 SI SI1 14626 1.100000 28.08600
14627 SI 14627 SI SI1 14627 1.100000 28.08600
14628 SI 14628 SI SI1 14628 1.100000 28.08600
14629 SI 14629 SI SI1 14629 1.100000 28.08600
14630 SI 14630 SI SI1 14630 1.100000 28.08600
14631 SI 14631 SI SI1 14631 1.100000 28.08600
14632 SI 14632 SI SI1 14632 1.100000 28.08600
14633 SI 14633 SI SI1 14633 1.100000 28.08600
14634 SI 14634 SI SI1 14634 1.100000 28.08600
14635 SI 14635 SI SI1 14635 1.100000 28.08600
14636 SI 14636 SI SI1 14636 1.100000 28.08600
14637 SI 14637 SI SI1 14637 1.100000 28.08600
14638 SI 14638 SI SI1 14638 1.100000 28.08600
14639 SI 14639 SI SI1 14639 1.100000 28.08600
14640 SI 14640 SI SI1 14640 1.100000 28.08600
14641 SI 14641 SI SI1 14641 1.100000 28.08600
14642 SI 14642 SI SI1 14642 1.100000 28.08600
14643 SI 14643 SI SI1 14643 1.100000 28.08600
14644 SI 14644 SI SI1 14644 1.100000 28.08600
14645 SI 14645 SI SI1 14645 1.100000 28.08600
14646 SI 14646 SI SI1 14646 1.100000 28.08600
14647 SI 14647 SI SI1 14647 1.100000 28.08600
14648 SI 14648 SI SI1 14648 1.100000 28.08600
14649 SI 14649 SI SI1 14649 1.100000 28.08600
14650 SI 14650 SI SI1 14650 1.100000 28.08600
14651 SI 14651 SI SI1 14651 1.100000 28.08600
14652 SI 14652 SI SI1 14652 1.100000 28.08600
14653 SI 14653 SI SI1 14653 1.100000 28.08600
14654 SI 14654 SI SI1 14654 1.100000 28.08600
14655 SI 14655 SI SI1 14655 1.100000 28.08600
14656 SI 14656 SI SI1 14656 1.100000 28.08600
14657 SI 14657 SI SI1 14657 1.100000 28.08600
14658 SI 14658 SI SI1 14658 1.100000 28.08600
14659 SI 14659 SI SI1 14659 1.100000 28.08600
14660 SI 14660 SI SI1 14660 1.100000 28.08600
14661 SI 14661 SI SI1 14661 1.100000 28.08600
14662 SI 14662 SI SI1 14662 1.100000 28.08600
14663 SI 14663 SI SI1 14663 1.100000 28.08600
14664 SI 14664 SI SI1 14664 1.100000 28.08600
14665 SI 14665 SI SI1 14665 1.100000 28.08600
14666 SI 14666 SI SI1 14666 1.100000 28.08600
14667 SI 14667 SI SI1 14667 1.100000 28.08600
14668 SI 14668 SI SI1 14668 1.100000 28.08600
14669 SI 14669 SI SI1 14669 1.100000 28.08600
14670 SI 14670 SI SI1 14670 1.100000 28.08600
14671 SI 14671 SI SI1 14671 1.100000 28.08600
14672 SI 14672 SI SI1 14672 1.100000 28.08600
14673 SI 14673 SI SI1 14673 1.100000 28.08600
14674 SI 14674 SI SI1 14674 1.100000 28.08600
14675 SI 14675 SI SI1 14675 1.100000 28.08600
14676 SI 14676 SI SI1 14676 1.100000 28.08600
14677 SI 14677 SI SI1 14677 1.100000 28.08600
14678 SI 14678 SI SI1 14678 1.100000 28.08600
14679 SI 14679 SI SI1 14679 1.100000 28.08600
14680 SI 14680 SI SI1 14680 1.100000 28.08600
14681 SI 14681 SI SI1 14681 1.100000 28.08600
14682 SI 14682 SI SI1 14682 1.100000 28.08600
14683 SI 14683 SI SI1 14683 1.100000 28.08600
14684 SI 14684 SI SI1 14684 1.100000 28.08600
14685 SI 14685 SI SI1 14685 1.100000 28.08600
14686 SI 14686 SI SI1 14686 1.100000 28.08600
14687 SI 14687 SI SI1 14687 1.100000 28.08600
14688 SI 14688 SI SI1 14688 1.100000 28.08600
14689 SI 14689 SI SI1 14689 1.100000 28.08600
14690 SI 14690 SI SI1 14690 1.100000 28.08600
14691 SI 14691 SI SI1 14691 1.100000 28.08600
14692 SI 14692 SI SI1 14692 1.100000 28.08600
14693 SI 14693 SI SI1 14693 1.100000 28.08600
14694 SI 14694 SI SI1 14694 1.100000 28.08600
14695 SI 14695 SI SI1 14695 1.100000 28.08600
14696 SI 14696 SI SI1 14696 1.100000 28.08600
14697 SI 14697 SI SI1 14697 1.100000 28.08600
14698 SI 14698 SI SI1 14698 1.100000 28.08600
14699 SI 14699 SI SI1 14699 1.100000 28.08600
14700 SI 14700 SI SI1 14700 1.100000 28.08600
14701 SI 14701 SI SI1 14701 1.100000 28.08600
14702 SI 14702 SI SI1 14702 1.100000 28.08600
14703 SI 14703 SI SI1 14703 1.100000 28.08600
14704 SI 14704 SI SI1 14704 1.100000 28.08600
14705 SI 14705 SI SI1 14705 1.100000 28.08600
14706 SI 14706 SI SI1 14706 1.100000 28.08600
14707 SI 14707 SI SI1 14707 1.100000 28.08600
14708 SI 14708 SI SI1 14708 1.100000 28.08600
14709 SI 14709 SI SI1 14709 1.100000 28.08600
14710 SI 14710 SI SI1 14710 1.100000 28.08600
14711 SI 14711 SI SI1 14711 1.100000 28.08600
14712 SI 14712 SI SI1 14712 1.100000 28.08600
14713 SI 14713 SI SI1 14713 1.100000 28.08600
14714 SI 14714 SI SI1 14714 1.100000 28.08600
14715 SI 14715 SI SI1 14715 1.100000 28.08600
14716 SI 14716 SI SI1 14716 1.100000 28.08600
14717 SI 14717 SI SI1 14717 1.100000 28.08600
14718 SI 14718 SI SI1 14718 1.100000 28.08600
14719 SI 14719 SI SI1 14719 1.100000 28.08600
14720 SI 14720 SI SI1 14720 1.100000 28.08600
14721 SI 14721 SI SI1 14721 1.100000 28.08600
14722 SI 14722 SI SI1 14722 1.100000 28.08600
14723 SI 14723 SI SI1 14723 1.100000 28.08600
14724 SI 14724 SI SI1 14724 1.100000 28.08600
14725 SI 14725 SI SI1 14725 1.100000 28.08600
14726 SI 14726 SI SI1 14726 1.100000 28.08600
14727 SI 14727 SI SI1 14727 1.100000 28.08600
14728 SI 14728 SI SI1 14728 1.100000 28.08600
14729 SI 14729 SI SI1 14729 1.100000 28.08600
14730 SI 14730 SI SI1 14730 1.100000 28.08600
14731 SI 14731 SI SI1 14731 1.100000 28.08600
14732 SI 14732 SI SI1 14732 1.100000 28.08600
14733 SI 14733 SI SI1 14733 1.100000 28.08600
14734 SI 14734 SI SI1 14734 1.100000 28.08600
14735 SI 14735 SI SI1 14735 1.100000 28.08600
14736 SI 14736 SI SI1 14736 1.100000 28.08600
14737 SI 14737 SI SI1 14737 1.100000 28.08600
14738 SI 14738 SI SI1 14738 1.100000 28.08600
14739 SI 14739 SI SI1 14739 1.100000 28.08600
14740 SI 14740 SI SI1 14740 1.100000 28.08600
14741 SI 14741 SI SI1 14741 1.100000 28.08600
14742 SI 14742 SI SI1 14742 1.100000 28.08600
14743 SI 14743 SI SI1 14743 1.100000 28.08600
14744 SI 14744 SI SI1 14744 1.100000 28.08600
14745 SI 14745 SI SI1 14745 1.100000 28.08600
14746 SI 14746 SI SI1 14746 1.100000 28.08600
14747 SI 14747 SI SI1 14747 1.100000 28.08600
14748 SI 14748 SI SI1 14748 1.100000 28.08600
14749 SI 14749 SI SI1 14749 1.100000 28.08600
14750 SI 14750 SI SI1 14750 1.100000 28.08600
14751 SI 14751 SI SI1 14751 1.100000 28.08600
14752 SI 14752 SI SI1 14752 1.100000 28.08600
14753 SI 14753 SI SI1 14753 1.100000 28.08600
14754 SI 14754 SI SI1 14754 1.100000 28.08600
14755 SI 14755 SI SI1 14755 1.100000 28.08600
14756 SI 14756 SI SI1 14756 1.100000 28.08600
14757 SI 14757 SI SI1 14757 1.100000 28.08600
14758 SI 14758 SI SI1 14758 1.100000 28.08600
14759 SI 14759 SI SI1 14759 1.100000 28.08600
14760 SI 14760 SI SI1 14760 1.100000 28.08600
14761 SI 14761 SI SI1 14761 1.100000 28.08600
14762 SI 14762 SI SI1 14762 1.100000 28.08600
14763 SI 14763 SI SI1 14763 1.100000 28.08600
14764 SI 14764 SI SI1 14764 1.100000 28.08600
14765 SI 14765 SI SI1 14765 1.100000 28.08600
14766 SI 14766 SI SI1 14766 1.100000 28.08600
14767 SI 14767 SI SI1 14767 1.100000 28.08600
14768 SI 14768 SI SI1 14768 1.100000 28.08600
14769 SI 14769 SI SI1 14769 1.100000 28.08600
14770 SI 14770 SI SI1 14770 1.100000 28.08600
14771 SI 14771 SI SI1 14771 1.100000 28.08600
14772 SI 14772 SI SI1 14772 1.100000 28.08600
14773 SI 14773 SI SI1 14773 1.100000 28.08600
14774 SI 14774 SI SI1 14774 1.100000 28.08600
14775 SI 14775 SI SI1 14775 1.100000 28.08600
14776 SI 14776 SI SI1 14776 1.100000 28.08600
14777 SI 14777 SI SI1 14777 1.100000 28.08600
14778 SI 14778 SI SI1 14778 1.100000 28.08600
14779 SI 14779 SI SI1 14779 1.100000 28.08600
14780 SI 14780 SI SI1 14780 1.100000 28.08600
14781 SI 14781 SI SI1 14781 1.100000 28.08600
14782 SI 14782 SI SI1 14782 1.100000 28.08600
14783 SI 14783 SI SI1 14783 1.100000 28.08600
14784 SI 14784 SI SI1 14784 1.100000 28.08600
14785 SI 14785 SI SI1 14785 1.100000 28.08600
14786 SI 14786 SI SI1 14786 1.100000 28.08600
14787 SI 14787 SI SI1 14787 1.100000 28.08600
14788 SI 14788 SI SI1 14788 1.100000 28.08600
14789 SI 14789 SI SI1 14789 1.100000 28.08600
14790 SI 14790 SI SI1 14790 1.100000 28.08600
14791 SI 14791 SI SI1 14791 1.100000 28.08600
14792 SI 14792 SI SI1 14792 1.100000 28.08600
14793 SI 14793 SI SI1 14793 1.100000 28.08600
14794 SI 14794 SI SI1 14794 1.100000 28.08600
14795 SI 14795 SI SI1 14795 1.100000 28.08600
14796 SI 14796 SI SI1 14796 1.100000 28.08600
14797 SI 14797 SI SI1 14797 1.100000 28.08600
14798 SI 14798 SI SI1 14798 1.100000 28.08600
14799 SI 14799 SI SI1 14799 1.100000 28.08600
14800 SI 14800 SI SI1 14800 1.100000 28.08600
14801 SI 14801 SI SI1 14801 1.100000 28.08600
14802 SI 14802 SI SI1 14802 1.100000 28.08600
14803 SI 14803 SI SI1 14803 1.100000 28.08600
14804 SI 14804 SI SI1 14804 1.100000 28.08600
14805 SI 14805 SI SI1 14805 1.100000 28.08600
14806 SI 14806 SI SI1 14806 1.100000 28.08600
14807 SI 14807 SI SI1 14807 1.100000 28.08600
14808 SI 14808 SI SI1 14808 1.100000 28.08600
14809 SI 14809 SI SI1 14809 1.100000 28.08600
14810 SI 14810 SI SI1 14810 1.100000 28.08600
14811 SI 14811 SI SI1 14811 1.100000 28.08600
14812 SI 14812 SI SI1 14812 1.100000 28.08600
14813 SI 14813 SI SI1 14813 1.100000 28.08600
14814 SI 14814 SI SI1 14814 1.100000 28.08600
14815 SI 14815 SI SI1 14815 1.100000 28.08600
14816 SI 14816 SI SI1 14816 1.100000 28.08600
14817 SI 14817 SI SI1 14817 1.100000 28.08600
14818 SI 14818 SI SI1 14818 1.100000 28.08600
14819 SI 14819 SI SI1 14819 1.100000 28.08600
14820 SI 14820 SI SI1 14820 1.100000 28.08600
14821 SI 14821 SI SI1 14821 1.100000 28.08600
14822 SI 14822 SI SI1 14822 1.100000 28.08600
14823 SI 14823 SI SI1 14823 1.100000 28.08600
14824 SI 14824 SI SI1 14824 1.100000 28.08600
14825 SI 14825 SI SI1 14825 1.100000 28.08600
14826 SI 14826 SI SI1 14826 1.100000 28.08600
14827 SI 14827 SI SI1 14827 1.100000 28.08600
14828 SI 14828 SI SI1 14828 1.100000 28.08600
14829 SI 14829 SI SI1 14829 1.100000 28.08600
14830 SI 14830 SI SI1 14830 1.100000 28.08600
14831 SI 14831 SI SI1 14831 1.100000 28.08600
14832 SI 14832 SI SI1 14832 1.100000 28.08600
14833 SI 14833 SI SI1 14833 1.100000 28.08600
14834 SI 14834 SI SI1 14834 1.100000 28.08600
14835 SI 14835 SI SI1 14835 1.100000 28.08600
14836 SI 14836 SI SI1 14836 1.100000 28.08600
14837 SI 14837 SI SI1 14837 1.100000 28.08600
14838 SI 14838 SI SI1 14838 1.100000 28.08600
14839 SI 14839 SI SI1 14839 1.100000 28.08600
14840 SI 14840 SI SI1 14840 1.100000 28.08600
14841 SI 14841 SI SI1 14841 1.100000 28.08600
14842 SI 14842 SI SI1 14842 1.100000 28.08600
14843 SI 14843 SI SI1 14843 1.100000 28.08600
14844 SI 14844 SI SI1 14844 1.100000 28.08600
14845 SI 14845 SI SI1 14845 1.100000 28.08600
14846 SI 14846 SI SI1 14846 1.100000 28.08600
14847 SI 14847 SI SI1 14847 1.100000 28.08600
14848 SI 14848 SI SI1 14848 1.100000 28.08600
14849 SI 14849 SI SI1 14849 1.100000 28.08600
14850 SI 14850 SI SI1 14850 1.100000 28.08600
14851 SI 14851 SI SI1 14851 1.100000 28.08600
14852 SI 14852 SI SI1 14852 1.100000 28.08600
14853 SI 14853 SI SI1 14853 1.100000 28.08600
14854 SI 14854 SI SI1 14854 1.100000 28.08600
14855 SI 14855 SI SI1 14855 1.100000 28.08600
14856 SI 14856 SI SI1 14856 1.100000 28.08600
14857 SI 14857 SI SI1 14857 1.100000 28.08600
14858 SI 14858 SI SI1 14858 1.100000 28.08600
14859 SI 14859 SI SI1 14859 1.100000 28.08600
14860 SI 14860 SI SI1 14860 1.100000 28.08600
14861 SI 14861 SI SI1 14861 1.100000 28.08600
14862 SI 14862 SI SI1 14862 1.100000 28.08600
14863 SI 14863 SI SI1 14863 1.100000 28.08600
14864 SI 14864 SI SI1 14864 1.100000 28.08600
14865 SI 14865 SI SI1 14865 1.100000 28.08600
14866 SI 14866 SI SI1 14866 1.100000 28.08600
14867 SI 14867 SI SI1 14867 1.100000 28.08600
14868 SI 14868 SI SI1 14868 1.100000 28.08600
14869 SI 14869 SI SI1 14869 1.100000 28.08600
14870 SI 14870 SI SI1 14870 1.100000 28.08600
14871 SI 14871 SI SI1 14871 1.100000 28.08600
14872 SI 14872 SI SI1 14872 1.100000 28.08600
14873 SI 14873 SI SI1 14873 1.100000 28.08600
14874 SI 14874 SI SI1 14874 1.100000 28.08600
14875 SI 14875 SI SI1 14875 1.100000 28.08600
14876 SI 14876 SI SI1 14876 1.100000 28.08600
14877 SI 14877 SI SI1 14877 1.100000 28.08600
14878 SI 14878 SI SI1 14878 1.100000 28.08600
14879 SI 14879 SI SI1 14879 1.100000 28.08600
14880 SI 14880 SI SI1 14880 1.100000 28.08600
14881 SI 14881 SI SI1 14881 1.100000 28.08600
14882 SI 14882 SI SI1 14882 1.100000 28.08600
14883 SI 14883 SI SI1 14883 1.100000 28.08600
14884 SI 14884 SI SI1 14884 1.100000 28.08600
14885 SI 14885 SI SI1 14885 1.100000 28.08600
14886 SI 14886 SI SI1 14886 1.100000 28.08600
14887 SI 14887 SI SI1 14887 1.100000 28.08600
14888 SI 14888 SI SI1 14888 1.100000 28.08600
14889 SI 14889 SI SI1 14889 1.100000 28.08600
14890 SI 14890 SI SI1 14890 1.100000 28.08600
14891 SI 14891 SI SI1 14891 1.100000 28.08600
14892 SI 14892 SI SI1 14892 1.100000 28.08600
14893 SI 14893 SI SI1 14893 1.100000 28.08600
14894 SI 14894 SI SI1 14894 1.100000 28.08600
14895 SI 14895 SI SI1 14895 1.100000 28.08600
14896 SI 14896 SI SI1 14896 1.100000 28.08600
14897 SI 14897 SI SI1 14897 1.100000 28.08600
14898 SI 14898 SI SI1 14898 1.100000 28.08600
14899 SI 14899 SI SI1 14899 1.100000 28.08600
14900 SI 14900 SI SI1 14900 1.100000 28.08600
14901 SI 14901 SI SI1 14901 1.100000 28.08600
14902 SI 14902 SI SI1 14902 1.100000 28.08600
14903 SI 14903 SI SI1 14903 1.100000 28.08600
14904 SI 14904 SI SI1 14904 1.100000 28.08600
14905 SI 14905 SI SI1 14905 1.100000 28.08600
14906 SI 14906 SI SI1 14906 1.100000 28.08600
14907 SI 14907 SI SI1 14907 1.100000 28.08600
14908 SI 14908 SI SI1 14908 1.100000 28.08600
14909 SI 14909 SI SI1 14909 1.100000 28.08600
14910 SI 14910 SI SI1 14910 1.100000 28.08600
14911 SI 14911 SI SI1 14911 1.100000 28.08600
14912 SI 14912 SI SI1 14912 1.100000 28.08600
14913 SI 14913 SI SI1 14913 1.100000 28.08600
14914 SI 14914 SI SI1 14914 1.100000 28.08600
14915 SI 14915 SI SI1 14915 1.100000 28.08600
14916 SI 14916 SI SI1 14916 1.100000 28.08600
14917 SI 14917 SI SI1 14917 1.100000 28.08600
14918 SI 14918 SI SI1 14918 1.100000 28.08600
14919 SI 14919 SI SI1 14919 1.100000 28.08600
14920 SI 14920 SI SI1 14920 1.100000 28.08600
14921 SI 14921 SI SI1 14921 1.100000 28.08600
14922 SI 14922 SI SI1 14922 1.100000 28.08600
14923 SI 14923 SI SI1 14923 1.100000 28.08600
14924 SI 14924 SI SI1 14924 1.100000 28.08600
14925 SI 14925 SI SI1 14925 1.100000 28.08600
14926 SI 14926 SI SI1 14926 1.100000 28.08600
14927 SI 14927 SI SI1 14927 1.100000 28.08600
14928 SI 14928 SI SI1 14928 1.100000 28.08600
14929 SI 14929 SI SI1 14929 1.100000 28.08600
14930 SI 14930 SI SI1 14930 1.100000 28.08600
14931 SI 14931 SI SI1 14931 1.100000 28.08600
14932 SI 14932 SI SI1 14932 1.100000 28.08600
14933 SI 14933 SI SI1 14933 1.100000 28.08600
14934 SI 14934 SI SI1 14934 1.100000 28.08600
14935 SI 14935 SI SI1 14935 1.100000 28.08600
14936 SI 14936 SI SI1 14936 1.100000 28.08600
14937 SI 14937 SI SI1 14937 1.100000 28.08600
14938 SI 14938 SI SI1 14938 1.100000 28.08600
14939 SI 14939 SI SI1 14939 1.100000 28.08600
14940 SI 14940 SI SI1 14940 1.100000 28.08600
14941 SI 14941 SI SI1 14941 1.100000 28.08600
14942 SI 14942 SI SI1 14942 1.100000 28.08600
14943 SI 14943 SI SI1 14943 1.100000 28.08600
14944 SI 14944 SI SI1 14944 1.100000 28.08600
14945 SI 14945 SI SI1 14945 1.100000 28.08600
14946 SI 14946 SI SI1 14946 1.100000 28.08600
14947 SI 14947 SI SI1 14947 1.100000 28.08600
14948 SI 14948 SI SI1 14948 1.100000 28.08600
14949 SI 14949 SI SI1 14949 1.100000 28.08600
14950 SI 14950 SI SI1 14950 1.100000 28.08600
14951 SI 14951 SI SI1 14951 1.100000 28.08600
14952 SI 14952 SI SI1 14952 1.100000 28.08600
14953 SI 14953 SI SI1 14953 1.100000 28.08600
14954 SI 14954 SI SI1 14954 1.100000 28.08600
14955 SI 14955 SI SI1 14955 1.100000 28.08600
14956 SI 14956 SI SI1 14956 1.100000 28.08600
14957 SI 14957 SI SI1 14957 1.100000 28.08600
14958 SI 14958 SI SI1 14958 1.100000 28.08600
14959 SI 14959 SI SI1 14959 1.100000 28.08600
14960 SI 14960 SI SI1 14960 1.100000 28.08600
14961 SI 14961 SI SI1 14961 1.100000 28.08600
14962 SI 14962 SI SI1 14962 1.100000 28.08600
14963 SI 14963 SI SI1 14963 1.100000 28.08600
14964 SI 14964 SI SI1 14964 1.100000 28.08600
14965 SI 14965 SI SI1 14965 1.100000 28.08600
14966 SI 14966 SI SI1 14966 1.100000 28.08600
14967 SI 14967 SI SI1 14967 1.100000 28.08600
14968 SI 14968 SI SI1 14968 1.100000 28.08600
14969 SI 14969 SI SI1 14969 1.100000 28.08600
14970 SI 14970 SI SI1 14970 1.100000 28.08600
14971 SI 14971 SI SI1 14971 1.100000 28.08600
14972 SI 14972 SI SI1 14972 1.100000 28.08600
14973 SI 14973 SI SI1 14973 1.100000 28.08600
14974 SI 14974 SI SI1 14974 1.100000 28.08600
14975 SI 14975 SI SI1 14975 1.100000 28.08600
14976 SI 14976 SI SI1 14976 1.100000 28.08600
14977 SI 14977 SI SI1 14977 1.100000 28.08600
14978 SI 14978 SI SI1 14978 1.100000 28.08600
14979 SI 14979 SI SI1 14979 1.100000 28.08600
14980 SI 14980 SI SI1 14980 1.100000 28.08600
14981 SI 14981 SI SI1 14981 1.100000 28.08600
14982 SI 14982 SI SI1 14982 1.100000 28.08600
14983 SI 14983 SI SI1 14983 1.100000 28.08600
14984 SI 14984 SI SI1 14984 1.100000 28.08600
14985 SI 14985 SI SI1 14985 1.100000 28.08600
14986 SI 14986 SI SI1 14986 1.100000 28.08600
14987 SI 14987 SI SI1 14987 1.100000 28.08600
14988 SI 14988 SI SI1 14988 1.100000 28.08600
14989 SI 14989 SI SI1 14989 1.100000 28.08600
14990 SI 14990 SI SI1 14990 1.100000 28.08600
14991 SI 14991 SI SI1 14991 1.100000 28.08600
14992 SI 14992 SI SI1 14992 1.100000 28.08600
14993 SI 14993 SI SI1 14993 1.100000 28.08600
14994 SI 14994 SI SI1 14994 1.100000 28.08600
14995 SI 14995 SI SI1 14995 1.100000 28.08600
14996 SI 14996 SI SI1 14996 1.100000 28.08600
14997 SI 14997 SI SI1 14997 1.100000 28.08600
14998 SI 14998 SI SI1 14998 1.100000 28.08600
14999 SI 14999 SI SI1 14999 1.100000 28.08600
15000 SI 15000 SI SI1 15000 1.100000 28.08600
15001 SI 15001 SI SI1 15001 1.100000 28.08600
15002 SI 15002 SI SI1 15002 1.100000 28.08600
15003 SI 15003 SI SI1 15003 1.100000 28.08600
15004 SI 15004 SI SI1 15004 1.100000 28.08600
15005 SI 15005 SI SI1 15005 1.100000 28.08600
15006 SI 15006 SI SI1 15006 1.100000 28.08600
15007 SI 15007 SI SI1 15007 1.100000 28.08600
15008 SI 15008 SI SI1 15008 1.100000 28.08600
15009 SI 15009 SI SI1 15009 1.100000 28.08600
15010 SI 15010 SI SI1 15010 1.100000 28.08600
15011 SI 15011 SI SI1 15011 1.100000 28.08600
15012 SI 15012 SI SI1 15012 1.100000 28.08600
15013 SI 15013 SI SI1 15013 1.100000 28.08600
15014 SI 15014 SI SI1 15014 1.100000 28.08600
15015 SI 15015 SI SI1 15015 1.100000 28.08600
15016 SI 15016 SI SI1 15016 1.100000 28.08600
15017 SI 15017 SI SI1 15017 1.100000 28.08600
15018 SI 15018 SI SI1 15018 1.100000 28.08600
15019 SI 15019 SI SI1 15019 1.100000 28.08600
15020 SI 15020 SI SI1 15020 1.100000 28.08600
15021 SI 15021 SI SI1 15021 1.100000 28.08600
15022 SI 15022 SI SI1 15022 1.100000 28.08600
15023 SI 15023 SI SI1 15023 1.100000 28.08600
15024 SI 15024 SI SI1 15024 1.100000 28.08600
15025 SI 15025 SI SI1 15025 1.100000 28.08600
15026 SI 15026 SI SI1 15026 1.100000 28.08600
15027 SI 15027 SI SI1 15027 1.100000 28.08600
15028 SI 15028 SI SI1 15028 1.100000 28.08600
15029 SI 15029 SI SI1 15029 1.100000 28.08600
15030 SI 15030 SI SI1 15030 1.100000 28.08600
15031 SI 15031 SI SI1 15031 1.100000 28.08600
15032 SI 15032 SI SI1 15032 1.100000 28.08600
15033 SI 15033 SI SI1 15033 1.100000 28.08600
15034 SI 15034 SI SI1 15034 1.100000 28.08600
15035 SI 15035 SI SI1 15035 1.100000 28.08600
15036 SI 15036 SI SI1 15036 1.100000 28.08600
15037 SI 15037 SI SI1 15037 1.100000 28.08600
15038 SI 15038 SI SI1 15038 1.100000 28.08600
15039 SI 15039 SI SI1 15039 1.100000 28.08600
15040 SI 15040 SI SI1 15040 1.100000 28.08600
15041 SI 15041 SI SI1 15041 1.100000 28.08600
15042 SI 15042 SI SI1 15042 1.100000 28.08600
15043 SI 15043 SI SI1 15043 1.100000 28.08600
15044 SI 15044 SI SI1 15044 1.100000 28.08600
15045 SI 15045 SI SI1 15045 1.100000 28.08600
15046 SI 15046 SI SI1 15046 1.100000 28.08600
15047 SI 15047 SI SI1 15047 1.100000 28.08600
15048 SI 15048 SI SI1 15048 1.100000 28.08600
15049 SI 15049 SI SI1 15049 1.100000 28.08600
15050 SI 15050 SI SI1 15050 1.100000 28.08600
15051 SI 15051 SI SI1 15051 1.100000 28.08600
15052 SI 15052 SI SI1 15052 1.100000 28.08600
15053 SI 15053 SI SI1 15053 1.100000 28.08600
15054 SI 15054 SI SI1 15054 1.100000 28.08600
15055 SI 15055 SI SI1 15055 1.100000 28.08600
15056 SI 15056 SI SI1 15056 1.100000 28.08600
15057 SI 15057 SI SI1 15057 1.100000 28.08600
15058 SI 15058 SI SI1 15058 1.100000 28.08600
15059 SI 15059 SI SI1 15059 1.100000 28.08600
15060 SI 15060 SI SI1 15060 1.100000 28.08600
15061 SI 15061 SI SI1 15061 1.100000 28.08600
15062 SI 15062 SI SI1 15062 1.100000 28.08600
15063 SI 15063 SI SI1 15063 1.100000 28.08600
15064 SI 15064 SI SI1 15064 1.100000 28.08600
15065 SI 15065 SI SI1 15065 1.100000 28.08600
15066 SI 15066 SI SI1 15066 1.100000 28.08600
15067 SI 15067 SI SI1 15067 1.100000 28.08600
15068 SI 15068 SI SI1 15068 1.100000 28.08600
15069 SI 15069 SI SI1 15069 1.100000 28.08600
15070 SI 15070 SI SI1 15070 1.100000 28.08600
15071 SI 15071 SI SI1 15071 1.100000 28.08600
15072 SI 15072 SI SI1 15072 1.100000 28.08600
15073 SI 15073 SI SI1 15073 1.100000 28.08600
15074 SI 15074 SI SI1 15074 1.100000 28.08600
15075 SI 15075 SI SI1 15075 1.100000 28.08600
15076 SI 15076 SI SI1 15076 1.100000 28.08600
15077 SI 15077 SI SI1 15077 1.100000 28.08600
15078 SI 15078 SI SI1 15078 1.100000 28.08600
15079 SI 15079 SI SI1 15079 1.100000 28.08600
15080 SI 15080 SI SI1 15080 1.100000 28.08600
15081 SI 15081 SI SI1 15081 1.100000 28.08600
15082 SI 15082 SI SI1 15082 1.100000 28.08600
15083 SI 15083 SI SI1 15083 1.100000 28.08600
15084 SI 15084 SI SI1 15084 1.100000 28.08600
15085 SI 15085 SI SI1 15085 1.100000 28.08600
15086 SI 15086 SI SI1 15086 1.100000 28.08600
15087 SI 15087 SI SI1 15087 1.100000 28.08600
15088 SI 15088 SI SI1 15088 1.100000 28.08600
15089 SI 15089 SI SI1 15089 1.100000 28.08600
15090 SI 15090 SI SI1 15090 1.100000 28.08600
15091 SI 15091 SI SI1 15091 1.100000 28.08600
15092 SI 15092 SI SI1 15092 1.100000 28.08600
15093 SI 15093 SI SI1 15093 1.100000 28.08600
15094 SI 15094 SI SI1 15094 1.100000 28.08600
15095 SI 15095 SI SI1 15095 1.100000 28.08600
15096 SI 15096 SI SI1 15096 1.100000 28.08600
15097 SI 15097 SI SI1 15097 1.100000 28.08600
15098 SI 15098 SI SI1 15098 1.100000 28.08600
15099 SI 15099 SI SI1 15099 1.100000 28.08600
15100 SI 15100 SI SI1 15100 1.100000 28.08600
15101 SI 15101 SI SI1 15101 1.100000 28.08600
15102 SI 15102 SI SI1 15102 1.100000 28.08600
15103 SI 15103 SI SI1 15103 1.100000 28.08600
15104 SI 15104 SI SI1 15104 1.100000 28.08600
15105 SI 15105 SI SI1 15105 1.100000 28.08600
15106 SI 15106 SI SI1 15106 1.100000 28.08600
15107 SI 15107 SI SI1 15107 1.100000 28.08600
15108 SI 15108 SI SI1 15108 1.100000 28.08600
15109 SI 15109 SI SI1 15109 1.100000 28.08600
15110 SI 15110 SI SI1 15110 1.100000 28.08600
15111 SI 15111 SI SI1 15111 1.100000 28.08600
15112 SI 15112 SI SI1 15112 1.100000 28.08600
15113 SI 15113 SI SI1 15113 1.100000 28.08600
15114 SI 15114 SI SI1 15114 1.100000 28.08600
15115 SI 15115 SI SI1 15115 1.100000 28.08600
15116 SI 15116 SI SI1 15116 1.100000 28.08600
15117 SI 15117 SI SI1 15117 1.100000 28.08600
15118 SI 15118 SI SI1 15118 1.100000 28.08600
15119 SI 15119 SI SI1 15119 1.100000 28.08600
15120 SI 15120 SI SI1 15120 1.100000 28.08600
15121 SI 15121 SI SI1 15121 1.100000 28.08600
15122 SI 15122 SI SI1 15122 1.100000 28.08600
15123 SI 15123 SI SI1 15123 1.100000 28.08600
15124 SI 15124 SI SI1 15124 1.100000 28.08600
15125 SI 15125 SI SI1 15125 1.100000 28.08600
15126 SI 15126 SI SI1 15126 1.100000 28.08600
15127 SI 15127 SI SI1 15127 1.100000 28.08600
15128 SI 15128 SI SI1 15128 1.100000 28.08600
15129 SI 15129 SI SI1 15129 1.100000 28.08600
15130 SI 15130 SI SI1 15130 1.100000 28.08600
15131 SI 15131 SI SI1 15131 1.100000 28.08600
15132 SI 15132 SI SI1 15132 1.100000 28.08600
15133 SI 15133 SI SI1 15133 1.100000 28.08600
15134 SI 15134 SI SI1 15134 1.100000 28.08600
15135 SI 15135 SI SI1 15135 1.100000 28.08600
15136 SI 15136 SI SI1 15136 1.100000 28.08600
15137 SI 15137 SI SI1 15137 1.100000 28.08600
15138 SI 15138 SI SI1 15138 1.100000 28.08600
15139 SI 15139 SI SI1 15139 1.100000 28.08600
15140 SI 15140 SI SI1 15140 1.100000 28.08600
15141 SI 15141 SI SI1 15141 1.100000 28.08600
15142 SI 15142 SI SI1 15142 1.100000 28.08600
15143 SI 15143 SI SI1 15143 1.100000 28.08600
15144 SI 15144 SI SI1 15144 1.100000 28.08600
15145 SI 15145 SI SI1 15145 1.100000 28.08600
15146 SI 15146 SI SI1 15146 1.100000 28.08600
15147 SI 15147 SI SI1 15147 1.100000 28.08600
15148 SI 15148 SI SI1 15148 1.100000 28.08600
15149 SI 15149 SI SI1 15149 1.100000 28.08600
15150 SI 15150 SI SI1 15150 1.100000 28.08600
15151 SI 15151 SI SI1 15151 1.100000 28.08600
15152 SI 15152 SI SI1 15152 1.100000 28.08600
15153 SI 15153 SI SI1 15153 1.100000 28.08600
15154 SI 15154 SI SI1 15154 1.100000 28.08600
15155 SI 15155 SI SI1 15155 1.100000 28.08600
15156 SI 15156 SI SI1 15156 1.100000 28.08600
15157 SI 15157 SI SI1 15157 1.100000 28.08600
15158 SI 15158 SI SI1 15158 1.100000 28.08600
15159 SI 15159 SI SI1 15159 1.100000 28.08600
15160 SI 15160 SI SI1 15160 1.100000 28.08600
15161 SI 15161 SI SI1 15161 1.100000 28.08600
15162 SI 15162 SI SI1 15162 1.100000 28.08600
15163 SI 15163 SI SI1 15163 1.100000 28.08600
15164 SI 15164 SI SI1 15164 1.100000 28.08600
15165 SI 15165 SI SI1 15165 1.100000 28.08600
15166 SI 15166 SI SI1 15166 1.100000 28.08600
15167 SI 15167 SI SI1 15167 1.100000 28.08600
15168 SI 15168 SI SI1 15168 1.100000 28.08600
15169 SI 15169 SI SI1 15169 1.100000 28.08600
15170 SI 15170 SI SI1 15170 1.100000 28.08600
15171 SI 15171 SI SI1 15171 1.100000 28.08600
15172 SI 15172 SI SI1 15172 1.100000 28.08600
15173 SI 15173 SI SI1 15173 1.100000 28.08600
15174 SI 15174 SI SI1 15174 1.100000 28.08600
15175 SI 15175 SI SI1 15175 1.100000 28.08600
15176 SI 15176 SI SI1 15176 1.100000 28.08600
15177 SI 15177 SI SI1 15177 1.100000 28.08600
15178 SI 15178 SI SI1 15178 1.100000 28.08600
15179 SI 15179 SI SI1 15179 1.100000 28.08600
15180 SI 15180 SI SI1 15180 1.100000 28.08600
15181 SI 15181 SI SI1 15181 1.100000 28.08600
15182 SI 15182 SI SI1 15182 1.100000 28.08600
15183 SI 15183 SI SI1 15183 1.100000 28.08600
15184 SI 15184 SI SI1 15184 1.100000 28.08600
15185 SI 15185 SI SI1 15185 1.100000 28.08600
15186 SI 15186 SI SI1 15186 1.100000 28.08600
15187 SI 15187 SI SI1 15187 1.100000 28.08600
15188 SI 15188 SI SI1 15188 1.100000 28.08600
15189 SI 15189 SI SI1 15189 1.100000 28.08600
15190 SI 15190 SI SI1 15190 1.100000 28.08600
15191 SI 15191 SI SI1 15191 1.100000 28.08600
15192 SI 15192 SI SI1 15192 1.100000 28.08600
15193 SI 15193 SI SI1 15193 1.100000 28.08600
15194 SI 15194 SI SI1 15194 1.100000 28.08600
15195 SI 15195 SI SI1 15195 1.100000 28.08600
15196 SI 15196 SI SI1 15196 1.100000 28.08600
15197 SI 15197 SI SI1 15197 1.100000 28.08600
15198 SI 15198 SI SI1 15198 1.100000 28.08600
15199 SI 15199 SI SI1 15199 1.100000 28.08600
15200 SI 15200 SI SI1 15200 1.100000 28.08600
15201 SI 15201 SI SI1 15201 1.100000 28.08600
15202 SI 15202 SI SI1 15202 1.100000 28.08600
15203 SI 15203 SI SI1 15203 1.100000 28.08600
15204 SI 15204 SI SI1 15204 1.100000 28.08600
15205 SI 15205 SI SI1 15205 1.100000 28.08600
15206 SI 15206 SI SI1 15206 1.100000 28.08600
15207 SI 15207 SI SI1 15207 1.100000 28.08600
15208 SI 15208 SI SI1 15208 1.100000 28.08600
15209 SI 15209 SI SI1 15209 1.100000 28.08600
15210 SI 15210 SI SI1 15210 1.100000 28.08600
15211 SI 15211 SI SI1 15211 1.100000 28.08600
15212 SI 15212 SI SI1 15212 1.100000 28.08600
15213 SI 15213 SI SI1 15213 1.100000 28.08600
15214 SI 15214 SI SI1 15214 1.100000 28.08600
15215 SI 15215 SI SI1 15215 1.100000 28.08600
15216 SI 15216 SI SI1 15216 1.100000 28.08600
15217 SI 15217 SI SI1 15217 1.100000 28.08600
15218 SI 15218 SI SI1 15218 1.100000 28.08600
15219 SI 15219 SI SI1 15219 1.100000 28.08600
15220 SI 15220 SI SI1 15220 1.100000 28.08600
15221 SI 15221 SI SI1 15221 1.100000 28.08600
15222 SI 15222 SI SI1 15222 1.100000 28.08600
15223 SI 15223 SI SI1 15223 1.100000 28.08600
15224 SI 15224 SI SI1 15224 1.100000 28.08600
15225 SI 15225 SI SI1 15225 1.100000 28.08600
15226 SI 15226 SI SI1 15226 1.100000 28.08600
15227 SI 15227 SI SI1 15227 1.100000 28.08600
15228 SI 15228 SI SI1 15228 1.100000 28.08600
15229 SI 15229 SI SI1 15229 1.100000 28.08600
15230 SI 15230 SI SI1 15230 1.100000 28.08600
15231 SI 15231 SI SI1 15231 1.100000 28.08600
15232 SI 15232 SI SI1 15232 1.100000 28.08600
15233 SI 15233 SI SI1 15233 1.100000 28.08600
15234 SI 15234 SI SI1 15234 1.100000 28.08600
15235 SI 15235 SI SI1 15235 1.100000 28.08600
15236 SI 15236 SI SI1 15236 1.100000 28.08600
15237 SI 15237 SI SI1 15237 1.100000 28.08600
15238 SI 15238 SI SI1 15238 1.100000 28.08600
15239 SI 15239 SI SI1 15239 1.100000 28.08600
15240 SI 15240 SI SI1 15240 1.100000 28.08600
15241 SI 15241 SI SI1 15241 1.100000 28.08600
15242 SI 15242 SI SI1 15242 1.100000 28.08600
15243 SI 15243 SI SI1 15243 1.100000 28.08600
15244 SI 15244 SI SI1 15244 1.100000 28.08600
15245 SI 15245 SI SI1 15245 1.100000 28.08600
15246 SI 15246 SI SI1 15246 1.100000 28.08600
15247 SI 15247 SI SI1 15247 1.100000 28.08600
15248 SI 15248 SI SI1 15248 1.100000 28.08600
15249 SI 15249 SI SI1 15249 1.100000 28.08600
15250 SI 15250 SI SI1 15250 1.100000 28.08600
15251 SI 15251 SI SI1 15251 1.100000 28.08600
15252 SI 15252 SI SI1 15252 1.100000 28.08600
15253 SI 15253 SI SI1 15253 1.100000 28.08600
15254 SI 15254 SI SI1 15254 1.100000 28.08600
15255 SI 15255 SI SI1 15255 1.100000 28.08600
15256 SI 15256 SI SI1 15256 1.100000 28.08600
15257 SI 15257 SI SI1 15257 1.100000 28.08600
15258 SI 15258 SI SI1 15258 1.100000 28.08600
15259 SI 15259 SI SI1 15259 1.100000 28.08600
15260 SI 15260 SI SI1 15260 1.100000 28.08600
15261 SI 15261 SI SI1 15261 1.100000 28.08600
15262 SI 15262 SI SI1 15262 1.100000 28.08600
15263 SI 15263 SI SI1 15263 1.100000 28.08600
15264 SI 15264 SI SI1 15264 1.100000 28.08600
15265 SI 15265 SI SI1 15265 1.100000 28.08600
15266 SI 15266 SI SI1 15266 1.100000 28.08600
15267 SI 15267 SI SI1 15267 1.100000 28.08600
15268 SI 15268 SI SI1 15268 1.100000 28.08600
15269 SI 15269 SI SI1 15269 1.100000 28.08600
15270 SI 15270 SI SI1 15270 1.100000 28.08600
15271 SI 15271 SI SI1 15271 1.100000 28.08600
15272 SI 15272 SI SI1 15272 1.100000 28.08600
15273 SI 15273 SI SI1 15273 1.100000 28.08600
15274 SI 15274 SI SI1 15274 1.100000 28.08600
15275 SI 15275 SI SI1 15275 1.100000 28.08600
15276 SI 15276 SI SI1 15276 1.100000 28.08600
15277 SI 15277 SI SI1 15277 1.100000 28.08600
15278 SI 15278 SI SI1 15278 1.100000 28.08600
15279 SI 15279 SI SI1 15279 1.100000 28.08600
15280 SI 15280 SI SI1 15280 1.100000 28.08600
15281 SI 15281 SI SI1 15281 1.100000 28.08600
15282 SI 15282 SI SI1 15282 1.100000 28.08600
15283 SI 15283 SI SI1 15283 1.100000 28.08600
15284 SI 15284 SI SI1 15284 1.100000 28.08600
15285 SI 15285 SI SI1 15285 1.100000 28.08600
15286 SI 15286 SI SI1 15286 1.100000 28.08600
15287 SI 15287 SI SI1 15287 1.100000 28.08600
15288 SI 15288 SI SI1 15288 1.100000 28.08600
15289 SI 15289 SI SI1 15289 1.100000 28.08600
15290 SI 15290 SI SI1 15290 1.100000 28.08600
15291 SI 15291 SI SI1 15291 1.100000 28.08600
15292 SI 15292 SI SI1 15292 1.100000 28.08600
15293 SI 15293 SI SI1 15293 1.100000 28.08600
15294 SI 15294 SI SI1 15294 1.100000 28.08600
15295 SI 15295 SI SI1 15295 1.100000 28.08600
15296 SI 15296 SI SI1 15296 1.100000 28.08600
15297 SI 15297 SI SI1 15297 1.100000 28.08600
15298 SI 15298 SI SI1 15298 1.100000 28.08600
15299 SI 15299 SI SI1 15299 1.100000 28.08600
15300 SI 15300 SI SI1 15300 1.100000 28.08600
15301 SI 15301 SI SI1 15301 1.100000 28.08600
15302 SI 15302 SI SI1 15302 1.100000 28.08600
15303 SI 15303 SI SI1 15303 1.100000 28.08600
15304 SI 15304 SI SI1 15304 1.100000 28.08600
15305 SI 15305 SI SI1 15305 1.100000 28.08600
15306 SI 15306 SI SI1 15306 1.100000 28.08600
15307 SI 15307 SI SI1 15307 1.100000 28.08600
15308 SI 15308 SI SI1 15308 1.100000 28.08600
15309 SI 15309 SI SI1 15309 1.100000 28.08600
15310 SI 15310 SI SI1 15310 1.100000 28.08600
15311 SI 15311 SI SI1 15311 1.100000 28.08600
15312 SI 15312 SI SI1 15312 1.100000 28.08600
15313 SI 15313 SI SI1 15313 1.100000 28.08600
15314 SI 15314 SI SI1 15314 1.100000 28.08600
15315 SI 15315 SI SI1 15315 1.100000 28.08600
15316 SI 15316 SI SI1 15316 1.100000 28.08600
15317 SI 15317 SI SI1 15317 1.100000 28.08600
15318 SI 15318 SI SI1 15318 1.100000 28.08600
15319 SI 15319 SI SI1 15319 1.100000 28.08600
15320 SI 15320 SI SI1 15320 1.100000 28.08600
15321 SI 15321 SI SI1 15321 1.100000 28.08600
15322 SI 15322 SI SI1 15322 1.100000 28.08600
15323 SI 15323 SI SI1 15323 1.100000 28.08600
15324 SI 15324 SI SI1 15324 1.100000 28.08600
15325 SI 15325 SI SI1 15325 1.100000 28.08600
15326 SI 15326 SI SI1 15326 1.100000 28.08600
15327 SI 15327 SI SI1 15327 1.100000 28.08600
15328 SI 15328 SI SI1 15328 1.100000 28.08600
15329 SI 15329 SI SI1 15329 1.100000 28.08600
15330 SI 15330 SI SI1 15330 1.100000 28.08600
15331 SI 15331 SI SI1 15331 1.100000 28.08600
15332 SI 15332 SI SI1 15332 1.100000 28.08600
15333 SI 15333 SI SI1 15333 1.100000 28.08600
15334 SI 15334 SI SI1 15334 1.100000 28.08600
15335 SI 15335 SI SI1 15335 1.100000 28.08600
15336 SI 15336 SI SI1 15336 1.100000 28.08600
15337 SI 15337 SI SI1 15337 1.100000 28.08600
15338 SI 15338 SI SI1 15338 1.100000 28.08600
15339 SI 15339 SI SI1 15339 1.100000 28.08600
15340 SI 15340 SI SI1 15340 1.100000 28.08600
15341 SI 15341 SI SI1 15341 1.100000 28.08600
15342 SI 15342 SI SI1 15342 1.100000 28.08600
15343 SI 15343 SI SI1 15343 1.100000 28.08600
15344 SI 15344 SI SI1 15344 1.100000 28.08600
15345 SI 15345 SI SI1 15345 1.100000 28.08600
15346 SI 15346 SI SI1 15346 1.100000 28.08600
15347 SI 15347 SI SI1 15347 1.100000 28.08600
15348 SI 15348 SI SI1 15348 1.100000 28.08600
15349 SI 15349 SI SI1 15349 1.100000 28.08600
15350 SI 15350 SI SI1 15350 1.100000 28.08600
15351 SI 15351 SI SI1 15351 1.100000 28.08600
15352 SI 15352 SI SI1 15352 1.100000 28.08600
15353 SI 15353 SI SI1 15353 1.100000 28.08600
15354 SI 15354 SI SI1 15354 1.100000 28.08600
15355 SI 15355 SI SI1 15355 1.100000 28.08600
15356 SI 15356 SI SI1 15356 1.100000 28.08600
15357 SI 15357 SI SI1 15357 1.100000 28.08600
15358 SI 15358 SI SI1 15358 1.100000 28.08600
15359 SI 15359 SI SI1 15359 1.100000 28.08600
15360 SI 15360 SI SI1 15360 1.100000 28.08600
15361 SI 15361 SI SI1 15361 1.100000 28.08600
15362 SI 15362 SI SI1 15362 1.100000 28.08600
15363 SI 15363 SI SI1 15363 1.100000 28.08600
15364 SI 15364 SI SI1 15364 1.100000 28.08600
15365 SI 15365 SI SI1 15365 1.100000 28.08600
15366 SI 15366 SI SI1 15366 1.100000 28.08600
15367 SI 15367 SI SI1 15367 1.100000 28.08600
15368 SI 15368 SI SI1 15368 1.100000 28.08600
15369 SI 15369 SI SI1 15369 1.100000 28.08600
15370 SI 15370 SI SI1 15370 1.100000 28.08600
15371 SI 15371 SI SI1 15371 1.100000 28.08600
15372 SI 15372 SI SI1 15372 1.100000 28.08600
15373 SI 15373 SI SI1 15373 1.100000 28.08600
15374 SI 15374 SI SI1 15374 1.100000 28.08600
15375 SI 15375 SI SI1 15375 1.100000 28.08600
15376 SI 15376 SI SI1 15376 1.100000 28.08600
15377 SI 15377 SI SI1 15377 1.100000 28.08600
15378 SI 15378 SI SI1 15378 1.100000 28.08600
15379 SI 15379 SI SI1 15379 1.100000 28.08600
15380 SI 15380 SI SI1 15380 1.100000 28.08600
15381 SI 15381 SI SI1 15381 1.100000 28.08600
15382 SI 15382 SI SI1 15382 1.100000 28.08600
15383 SI 15383 SI SI1 15383 1.100000 28.08600
15384 SI 15384 SI SI1 15384 1.100000 28.08600
15385 SI 15385 SI SI1 15385 1.100000 28.08600
15386 SI 15386 SI SI1 15386 1.100000 28.08600
15387 SI 15387 SI SI1 15387 1.100000 28.08600
15388 SI 15388 SI SI1 15388 1.100000 28.08600
15389 SI 15389 SI SI1 15389 1.100000 28.08600
15390 SI 15390 SI SI1 15390 1.100000 28.08600
15391 SI 15391 SI SI1 15391 1.100000 28.08600
15392 SI 15392 SI SI1 15392 1.100000 28.08600
15393 SI 15393 SI SI1 15393 1.100000 28.08600
15394 SI 15394 SI SI1 15394 1.100000 28.08600
15395 SI 15395 SI SI1 15395 1.100000 28.08600
15396 SI 15396 SI SI1 15396 1.100000 28.08600
15397 SI 15397 SI SI1 15397 1.100000 28.08600
15398 SI 15398 SI SI1 15398 1.100000 28.08600
15399 SI 15399 SI SI1 15399 1.100000 28.08600
15400 SI 15400 SI SI1 15400 1.100000 28.08600
15401 SI 15401 SI SI1 15401 1.100000 28.08600
15402 SI 15402 SI SI1 15402 1.100000 28.08600
15403 SI 15403 SI SI1 15403 1.100000 28.08600
15404 SI 15404 SI SI1 15404 1.100000 28.08600
15405 SI 15405 SI SI1 15405 1.100000 28.08600
15406 SI 15406 SI SI1 15406 1.100000 28.08600
15407 SI 15407 SI SI1 15407 1.100000 28.08600
15408 SI 15408 SI SI1 15408 1.100000 28.08600
15409 SI 15409 SI SI1 15409 1.100000 28.08600
15410 SI 15410 SI SI1 15410 1.100000 28.08600
15411 SI 15411 SI SI1 15411 1.100000 28.08600
15412 SI 15412 SI SI1 15412 1.100000 28.08600
15413 SI 15413 SI SI1 15413 1.100000 28.08600
15414 SI 15414 SI SI1 15414 1.100000 28.08600
15415 SI 15415 SI SI1 15415 1.100000 28.08600
15416 SI 15416 SI SI1 15416 1.100000 28.08600
15417 SI 15417 SI SI1 15417 1.100000 28.08600
15418 SI 15418 SI SI1 15418 1.100000 28.08600
15419 SI 15419 SI SI1 15419 1.100000 28.08600
15420 SI 15420 SI SI1 15420 1.100000 28.08600
15421 SI 15421 SI SI1 15421 1.100000 28.08600
15422 SI 15422 SI SI1 15422 1.100000 28.08600
15423 SI 15423 SI SI1 15423 1.100000 28.08600
15424 SI 15424 SI SI1 15424 1.100000 28.08600
15425 SI 15425 SI SI1 15425 1.100000 28.08600
15426 SI 15426 SI SI1 15426 1.100000 28.08600
15427 SI 15427 SI SI1 15427 1.100000 28.08600
15428 SI 15428 SI SI1 15428 1.100000 28.08600
15429 SI 15429 SI SI1 15429 1.100000 28.08600
15430 SI 15430 SI SI1 15430 1.100000 28.08600
15431 SI 15431 SI SI1 15431 1.100000 28.08600
15432 SI 15432 SI SI1 15432 1.100000 28.08600
15433 SI 15433 SI SI1 15433 1.100000 28.08600
15434 SI 15434 SI SI1 15434 1.100000 28.08600
15435 SI 15435 SI SI1 15435 1.100000 28.08600
15436 SI 15436 SI SI1 15436 1.100000 28.08600
15437 SI 15437 SI SI1 15437 1.100000 28.08600
15438 SI 15438 SI SI1 15438 1.100000 28.08600
15439 SI 15439 SI SI1 15439 1.100000 28.08600
15440 SI 15440 SI SI1 15440 1.100000 28.08600
15441 SI 15441 SI SI1 15441 1.100000 28.08600
15442 SI 15442 SI SI1 15442 1.100000 28.08600
15443 SI 15443 SI SI1 15443 1.100000 28.08600
15444 SI 15444 SI SI1 15444 1.100000 28.08600
15445 SI 15445 SI SI1 15445 1.100000 28.08600
15446 SI 15446 SI SI1 15446 1.100000 28.08600
15447 SI 15447 SI SI1 15447 1.100000 28.08600
15448 SI 15448 SI SI1 15448 1.100000 28.08600
15449 SI 15449 SI SI1 15449 1.100000 28.08600
15450 SI 15450 SI SI1 15450 1.100000 28.08600
15451 SI 15451 SI SI1 15451 1.100000 28.08600
15452 SI 15452 SI SI1 15452 1.100000 28.08600
15453 SI 15453 SI SI1 15453 1.100000 28.08600
15454 SI 15454 SI SI1 15454 1.100000 28.08600
15455 SI 15455 SI SI1 15455 1.100000 28.08600
15456 SI 15456 SI SI1 15456 1.100000 28.08600
15457 SI 15457 SI SI1 15457 1.100000 28.08600
15458 SI 15458 SI SI1 15458 1.100000 28.08600
15459 SI 15459 SI SI1 15459 1.100000 28.08600
15460 SI 15460 SI SI1 15460 1.100000 28.08600
15461 SI 15461 SI SI1 15461 1.100000 28.08600
15462 SI 15462 SI SI1 15462 1.100000 28.08600
15463 SI 15463 SI SI1 15463 1.100000 28.08600
15464 SI 15464 SI SI1 15464 1.100000 28.08600
15465 SI 15465 SI SI1 15465 1.100000 28.08600
15466 SI 15466 SI SI1 15466 1.100000 28.08600
15467 SI 15467 SI SI1 15467 1.100000 28.08600
15468 SI 15468 SI SI1 15468 1.100000 28.08600
15469 SI 15469 SI SI1 15469 1.100000 28.08600
15470 SI 15470 SI SI1 15470 1.100000 28.08600
15471 SI 15471 SI SI1 15471 1.100000 28.08600
15472 SI 15472 SI SI1 15472 1.100000 28.08600
15473 SI 15473 SI SI1 15473 1.100000 28.08600
15474 SI 15474 SI SI1 15474 1.100000 28.08600
15475 SI 15475 SI SI1 15475 1.100000 28.08600
15476 SI 15476 SI SI1 15476 1.100000 28.08600
15477 SI 15477 SI SI1 15477 1.100000 28.08600
15478 SI 15478 SI SI1 15478 1.100000 28.08600
15479 SI 15479 SI SI1 15479 1.100000 28.08600
15480 SI 15480 SI SI1 15480 1.100000 28.08600
15481 SI 15481 SI SI1 15481 1.100000 28.08600
15482 SI 15482 SI SI1 15482 1.100000 28.08600
15483 SI 15483 SI SI1 15483 1.100000 28.08600
15484 SI 15484 SI SI1 15484 1.100000 28.08600
15485 SI 15485 SI SI1 15485 1.100000 28.08600
15486 SI 15486 SI SI1 15486 1.100000 28.08600
15487 SI 15487 SI SI1 15487 1.100000 28.08600
15488 SI 15488 SI SI1 15488 1.100000 28.08600
15489 SI 15489 SI SI1 15489 1.100000 28.08600
15490 SI 15490 SI SI1 15490 1.100000 28.08600
15491 SI 15491 SI SI1 15491 1.100000 28.08600
15492 SI 15492 SI SI1 15492 1.100000 28.08600
15493 SI 15493 SI SI1 15493 1.100000 28.08600
15494 SI 15494 SI SI1 15494 1.100000 28.08600
15495 SI 15495 SI SI1 15495 1.100000 28.08600
15496 SI 15496 SI SI1 15496 1.100000 28.08600
15497 SI 15497 SI SI1 15497 1.100000 28.08600
15498 SI 15498 SI SI1 15498 1.100000 28.08600
15499 SI 15499 SI SI1 15499 1.100000 28.08600
15500 SI 15500 SI SI1 15500 1.100000 28.08600
15501 SI 15501 SI SI1 15501 1.100000 28.08600
15502 SI 15502 SI SI1 15502 1.100000 28.08600
15503 SI 15503 SI SI1 15503 1.100000 28.08600
15504 SI 15504 SI SI1 15504 1.100000 28.08600
15505 SI 15505 SI SI1 15505 1.100000 28.08600
15506 SI 15506 SI SI1 15506 1.100000 28.08600
15507 SI 15507 SI SI1 15507 1.100000 28.08600
15508 SI 15508 SI SI1 15508 1.100000 28.08600
15509 SI 15509 SI SI1 15509 1.100000 28.08600
15510 SI 15510 SI SI1 15510 1.100000 28.08600
15511 SI 15511 SI SI1 15511 1.100000 28.08600
15512 SI 15512 SI SI1 15512 1.100000 28.08600
15513 SI 15513 SI SI1 15513 1.100000 28.08600
15514 SI 15514 SI SI1 15514 1.100000 28.08600
15515 SI 15515 SI SI1 15515 1.100000 28.08600
15516 SI 15516 SI SI1 15516 1.100000 28.08600
15517 SI 15517 SI SI1 15517 1.100000 28.08600
15518 SI 15518 SI SI1 15518 1.100000 28.08600
15519 SI 15519 SI SI1 15519 1.100000 28.08600
15520 SI 15520 SI SI1 15520 1.100000 28.08600
15521 SI 15521 SI SI1 15521 1.100000 28.08600
15522 SI 15522 SI SI1 15522 1.100000 28.08600
15523 SI 15523 SI SI1 15523 1.100000 28.08600
15524 SI 15524 SI SI1 15524 1.100000 28.08600
15525 SI 15525 SI SI1 15525 1.100000 28.08600
15526 SI 15526 SI SI1 15526 1.100000 28.08600
15527 SI 15527 SI SI1 15527 1.100000 28.08600
15528 SI 15528 SI SI1 15528 1.100000 28.08600
15529 SI 15529 SI SI1 15529 1.100000 28.08600
15530 SI 15530 SI SI1 15530 1.100000 28.08600
15531 SI 15531 SI SI1 15531 1.100000 28.08600
15532 SI 15532 SI SI1 15532 1.100000 28.08600
15533 SI 15533 SI SI1 15533 1.100000 28.08600
15534 SI 15534 SI SI1 15534 1.100000 28.08600
15535 SI 15535 SI SI1 15535 1.100000 28.08600
15536 SI 15536 SI SI1 15536 1.100000 28.08600
15537 SI 15537 SI SI1 15537 1.100000 28.08600
15538 SI 15538 SI SI1 15538 1.100000 28.08600
15539 SI 15539 SI SI1 15539 1.100000 28.08600
15540 SI 15540 SI SI1 15540 1.100000 28.08600
15541 SI 15541 SI SI1 15541 1.100000 28.08600
15542 SI 15542 SI SI1 15542 1.100000 28.08600
15543 SI 15543 SI SI1 15543 1.100000 28.08600
15544 SI 15544 SI SI1 15544 1.100000 28.08600
15545 SI 15545 SI SI1 15545 1.100000 28.08600
15546 SI 15546 SI SI1 15546 1.100000 28.08600
15547 SI 15547 SI SI1 15547 1.100000 28.08600
15548 SI 15548 SI SI1 15548 1.100000 28.08600
15549 SI 15549 SI SI1 15549 1.100000 28.08600
15550 SI 15550 SI SI1 15550 1.100000 28.08600
15551 SI 15551 SI SI1 15551 1.100000 28.08600
15552 SI 15552 SI SI1 15552 1.100000 28.08600
15553 SI 15553 SI SI1 15553 1.100000 28.08600
15554 SI 15554 SI SI1 15554 1.100000 28.08600
15555 SI 15555 SI SI1 15555 1.100000 28.08600
15556 SI 15556 SI SI1 15556 1.100000 28.08600
15557 SI 15557 SI SI1 15557 1.100000 28.08600
15558 SI 15558 SI SI1 15558 1.100000 28.08600
15559 SI 15559 SI SI1 15559 1.100000 28.08600
15560 SI 15560 SI SI1 15560 1.100000 28.08600
15561 SI 15561 SI SI1 15561 1.100000 28.08600
15562 SI 15562 SI SI1 15562 1.100000 28.08600
15563 SI 15563 SI SI1 15563 1.100000 28.08600
15564 SI 15564 SI SI1 15564 1.100000 28.08600
15565 SI 15565 SI SI1 15565 1.100000 28.08600
15566 SI 15566 SI SI1 15566 1.100000 28.08600
15567 SI 15567 SI SI1 15567 1.100000 28.08600
15568 SI 15568 SI SI1 15568 1.100000 28.08600
15569 SI 15569 SI SI1 15569 1.100000 28.08600
15570 SI 15570 SI SI1 15570 1.100000 28.08600
15571 SI 15571 SI SI1 15571 1.100000 28.08600
15572 SI 15572 SI SI1 15572 1.100000 28.08600
15573 SI 15573 SI SI1 15573 1.100000 28.08600
15574 SI 15574 SI SI1 15574 1.100000 28.08600
15575 SI 15575 SI SI1 15575 1.100000 28.08600
15576 SI 15576 SI SI1 15576 1.100000 28.08600
15577 SI 15577 SI SI1 15577 1.100000 28.08600
15578 SI 15578 SI SI1 15578 1.100000 28.08600
15579 SI 15579 SI SI1 15579 1.100000 28.08600
15580 SI 15580 SI SI1 15580 1.100000 28.08600
15581 SI 15581 SI SI1 15581 1.100000 28.08600
15582 SI 15582 SI SI1 15582 1.100000 28.08600
15583 SI 15583 SI SI1 15583 1.100000 28.08600
15584 SI 15584 SI SI1 15584 1.100000 28.08600
15585 SI 15585 SI SI1 15585 1.100000 28.08600
15586 SI 15586 SI SI1 15586 1.100000 28.08600
15587 SI 15587 SI SI1 15587 1.100000 28.08600
15588 SI 15588 SI SI1 15588 1.100000 28.08600
15589 SI 15589 SI SI1 15589 1.100000 28.08600
15590 SI 15590 SI SI1 15590 1.100000 28.08600
15591 SI 15591 SI SI1 15591 1.100000 28.08600
15592 SI 15592 SI SI1 15592 1.100000 28.08600
15593 SI 15593 SI SI1 15593 1.100000 28.08600
15594 SI 15594 SI SI1 15594 1.100000 28.08600
15595 SI 15595 SI SI1 15595 1.100000 28.08600
15596 SI 15596 SI SI1 15596 1.100000 28.08600
15597 SI 15597 SI SI1 15597 1.100000 28.08600
15598 SI 15598 SI SI1 15598 1.100000 28.08600
15599 SI 15599 SI SI1 15599 1.100000 28.08600
15600 SI 15600 SI SI1 15600 1.100000 28.08600
15601 SI 15601 SI SI1 15601 1.100000 28.08600
15602 SI 15602 SI SI1 15602 1.100000 28.08600
15603 SI 15603 SI SI1 15603 1.100000 28.08600
15604 SI 15604 SI SI1 15604 1.100000 28.08600
15605 SI 15605 SI SI1 15605 1.100000 28.08600
15606 SI 15606 SI SI1 15606 1.100000 28.08600
15607 SI 15607 SI SI1 15607 1.100000 28.08600
15608 SI 15608 SI SI1 15608 1.100000 28.08600
15609 SI 15609 SI SI1 15609 1.100000 28.08600
15610 SI 15610 SI SI1 15610 1.100000 28.08600
15611 SI 15611 SI SI1 15611 1.100000 28.08600
15612 SI 15612 SI SI1 15612 1.100000 28.08600
15613 SI 15613 SI SI1 15613 1.100000 28.08600
15614 SI 15614 SI SI1 15614 1.100000 28.08600
15615 SI 15615 SI SI1 15615 1.100000 28.08600
15616 SI 15616 SI SI1 15616 1.100000 28.08600
15617 SI 15617 SI SI1 15617 1.100000 28.08600
15618 SI 15618 SI SI1 15618 1.100000 28.08600
15619 SI 15619 SI SI1 15619 1.100000 28.08600
15620 SI 15620 SI SI1 15620 1.100000 28.08600
15621 SI 15621 SI SI1 15621 1.100000 28.08600
15622 SI 15622 SI SI1 15622 1.100000 28.08600
15623 SI 15623 SI SI1 15623 1.100000 28.08600
15624 SI 15624 SI SI1 15624 1.100000 28.08600
15625 SI 15625 SI SI1 15625 1.100000 28.08600
15626 SI 15626 SI SI1 15626 1.100000 28.08600
15627 SI 15627 SI SI1 15627 1.100000 28.08600
15628 SI 15628 SI SI1 15628 1.100000 28.08600
15629 SI 15629 SI SI1 15629 1.100000 28.08600
15630 SI 15630 SI SI1 15630 1.100000 28.08600
15631 SI 15631 SI SI1 15631 1.100000 28.08600
15632 SI 15632 SI SI1 15632 1.100000 28.08600
15633 SI 15633 SI SI1 15633 1.100000 28.08600
15634 SI 15634 SI SI1 15634 1.100000 28.08600
15635 SI 15635 SI SI1 15635 1.100000 28.08600
15636 SI 15636 SI SI1 15636 1.100000 28.08600
15637 SI 15637 SI SI1 15637 1.100000 28.08600
15638 SI 15638 SI SI1 15638 1.100000 28.08600
15639 SI 15639 SI SI1 15639 1.100000 28.08600
15640 SI 15640 SI SI1 15640 1.100000 28.08600
15641 SI 15641 SI SI1 15641 1.100000 28.08600
15642 SI 15642 SI SI1 15642 1.100000 28.08600
15643 SI 15643 SI SI1 15643 1.100000 28.08600
15644 SI 15644 SI SI1 15644 1.100000 28.08600
15645 SI 15645 SI SI1 15645 1.100000 28.08600
15646 SI 15646 SI SI1 15646 1.100000 28.08600
15647 SI 15647 SI SI1 15647 1.100000 28.08600
15648 SI 15648 SI SI1 15648 1.100000 28.08600
15649 SI 15649 SI SI1 15649 1.100000 28.08600
15650 SI 15650 SI SI1 15650 1.100000 28.08600
15651 SI 15651 SI SI1 15651 1.100000 28.08600
15652 SI 15652 SI SI1 15652 1.100000 28.08600
15653 SI 15653 SI SI1 15653 1.100000 28.08600
15654 SI 15654 SI SI1 15654 1.100000 28.08600
15655 SI 15655 SI SI1 15655 1.100000 28.08600
15656 SI 15656 SI SI1 15656 1.100000 28.08600
15657 SI 15657 SI SI1 15657 1.100000 28.08600
15658 SI 15658 SI SI1 15658 1.100000 28.08600
15659 SI 15659 SI SI1 15659 1.100000 28.08600
15660 SI 15660 SI SI1 15660 1.100000 28.08600
15661 SI 15661 SI SI1 15661 1.100000 28.08600
15662 SI 15662 SI SI1 15662 1.100000 28.08600
15663 SI 15663 SI SI1 15663 1.100000 28.08600
15664 SI 15664 SI SI1 15664 1.100000 28.08600
15665 SI 15665 SI SI1 15665 1.100000 28.08600
15666 SI 15666 SI SI1 15666 1.100000 28.08600
15667 SI 15667 SI SI1 15667 1.100000 28.08600
15668 SI 15668 SI SI1 15668 1.100000 28.08600
15669 SI 15669 SI SI1 15669 1.100000 28.08600
15670 SI 15670 SI SI1 15670 1.100000 28.08600
15671 SI 15671 SI SI1 15671 1.100000 28.08600
15672 SI 15672 SI SI1 15672 1.100000 28.08600
15673 SI 15673 SI SI1 15673 1.100000 28.08600
15674 SI 15674 SI SI1 15674 1.100000 28.08600
15675 SI 15675 SI SI1 15675 1.100000 28.08600
15676 SI 15676 SI SI1 15676 1.100000 28.08600
15677 SI 15677 SI SI1 15677 1.100000 28.08600
15678 SI 15678 SI SI1 15678 1.100000 28.08600
15679 SI 15679 SI SI1 15679 1.100000 28.08600
15680 SI 15680 SI SI1 15680 1.100000 28.08600
15681 SI 15681 SI SI1 15681 1.100000 28.08600
15682 SI 15682 SI SI1 15682 1.100000 28.08600
15683 SI 15683 SI SI1 15683 1.100000 28.08600
15684 SI 15684 SI SI1 15684 1.100000 28.08600
15685 SI 15685 SI SI1 15685 1.100000 28.08600
15686 SI 15686 SI SI1 15686 1.100000 28.08600
15687 SI 15687 SI SI1 15687 1.100000 28.08600
15688 SI 15688 SI SI1 15688 1.100000 28.08600
15689 SI 15689 SI SI1 15689 1.100000 28.08600
15690 SI 15690 SI SI1 15690 1.100000 28.08600
15691 SI 15691 SI SI1 15691 1.100000 28.08600
15692 SI 15692 SI SI1 15692 1.100000 28.08600
15693 SI 15693 SI SI1 15693 1.100000 28.08600
15694 SI 15694 SI SI1 15694 1.100000 28.08600
15695 SI 15695 SI SI1 15695 1.100000 28.08600
15696 SI 15696 SI SI1 15696 1.100000 28.08600
15697 SI 15697 SI SI1 15697 1.100000 28.08600
15698 SI 15698 SI SI1 15698 1.100000 28.08600
15699 SI 15699 SI SI1 15699 1.100000 28.08600
15700 SI 15700 SI SI1 15700 1.100000 28.08600
15701 SI 15701 SI SI1 15701 1.100000 28.08600
15702 SI 15702 SI SI1 15702 1.100000 28.08600
15703 SI 15703 SI SI1 15703 1.100000 28.08600
15704 SI 15704 SI SI1 15704 1.100000 28.08600
15705 SI 15705 SI SI1 15705 1.100000 28.08600
15706 SI 15706 SI SI1 15706 1.100000 28.08600
15707 SI 15707 SI SI1 15707 1.100000 28.08600
15708 SI 15708 SI SI1 15708 1.100000 28.08600
15709 SI 15709 SI SI1 15709 1.100000 28.08600
15710 SI 15710 SI SI1 15710 1.100000 28.08600
15711 SI 15711 SI SI1 15711 1.100000 28.08600
15712 SI 15712 SI SI1 15712 1.100000 28.08600
15713 SI 15713 SI SI1 15713 1.100000 28.08600
15714 SI 15714 SI SI1 15714 1.100000 28.08600
15715 SI 15715 SI SI1 15715 1.100000 28.08600
15716 SI 15716 SI SI1 15716 1.100000 28.08600
15717 SI 15717 SI SI1 15717 1.100000 28.08600
15718 SI 15718 SI SI1 15718 1.100000 28.08600
15719 SI 15719 SI SI1 15719 1.100000 28.08600
15720 SI 15720 SI SI1 15720 1.100000 28.08600
15721 SI 15721 SI SI1 15721 1.100000 28.08600
15722 SI 15722 SI SI1 15722 1.100000 28.08600
15723 SI 15723 SI SI1 15723 1.100000 28.08600
15724 SI 15724 SI SI1 15724 1.100000 28.08600
15725 SI 15725 SI SI1 15725 1.100000 28.08600
15726 SI 15726 SI SI1 15726 1.100000 28.08600
15727 SI 15727 SI SI1 15727 1.100000 28.08600
15728 SI 15728 SI SI1 15728 1.100000 28.08600
15729 SI 15729 SI SI1 15729 1.100000 28.08600
15730 SI 15730 SI SI1 15730 1.100000 28.08600
15731 SI 15731 SI SI1 15731 1.100000 28.08600
15732 SI 15732 SI SI1 15732 1.100000 28.08600
15733 SI 15733 SI SI1 15733 1.100000 28.08600
15734 SI 15734 SI SI1 15734 1.100000 28.08600
15735 SI 15735 SI SI1 15735 1.100000 28.08600
15736 SI 15736 SI SI1 15736 1.100000 28.08600
15737 SI 15737 SI SI1 15737 1.100000 28.08600
15738 SI 15738 SI SI1 15738 1.100000 28.08600
15739 SI 15739 SI SI1 15739 1.100000 28.08600
15740 SI 15740 SI SI1 15740 1.100000 28.08600
15741 SI 15741 SI SI1 15741 1.100000 28.08600
15742 SI 15742 SI SI1 15742 1.100000 28.08600
15743 SI 15743 SI SI1 15743 1.100000 28.08600
15744 SI 15744 SI SI1 15744 1.100000 28.08600
15745 SI 15745 SI SI1 15745 1.100000 28.08600
15746 SI 15746 SI SI1 15746 1.100000 28.08600
15747 SI 15747 SI SI1 15747 1.100000 28.08600
15748 SI 15748 SI SI1 15748 1.100000 28.08600
15749 SI 15749 SI SI1 15749 1.100000 28.08600
15750 SI 15750 SI SI1 15750 1.100000 28.08600
15751 SI 15751 SI SI1 15751 1.100000 28.08600
15752 SI 15752 SI SI1 15752 1.100000 28.08600
15753 SI 15753 SI SI1 15753 1.100000 28.08600
15754 SI 15754 SI SI1 15754 1.100000 28.08600
15755 SI 15755 SI SI1 15755 1.100000 28.08600
15756 SI 15756 SI SI1 15756 1.100000 28.08600
15757 SI 15757 SI SI1 15757 1.100000 28.08600
15758 SI 15758 SI SI1 15758 1.100000 28.08600
15759 SI 15759 SI SI1 15759 1.100000 28.08600
15760 SI 15760 SI SI1 15760 1.100000 28.08600
15761 SI 15761 SI SI1 15761 1.100000 28.08600
15762 SI 15762 SI SI1 15762 1.100000 28.08600
15763 SI 15763 SI SI1 15763 1.100000 28.08600
15764 SI 15764 SI SI1 15764 1.100000 28.08600
15765 SI 15765 SI SI1 15765 1.100000 28.08600
15766 SI 15766 SI SI1 15766 1.100000 28.08600
15767 SI 15767 SI SI1 15767 1.100000 28.08600
15768 SI 15768 SI SI1 15768 1.100000 28.08600
15769 SI 15769 SI SI1 15769 1.100000 28.08600
15770 SI 15770 SI SI1 15770 1.100000 28.08600
15771 SI 15771 SI SI1 15771 1.100000 28.08600
15772 SI 15772 SI SI1 15772 1.100000 28.08600
15773 SI 15773 SI SI1 15773 1.100000 28.08600
15774 SI 15774 SI SI1 15774 1.100000 28.08600
15775 SI 15775 SI SI1 15775 1.100000 28.08600
15776 SI 15776 SI SI1 15776 1.100000 28.08600
15777 SI 15777 SI SI1 15777 1.100000 28.08600
15778 SI 15778 SI SI1 15778 1.100000 28.08600
15779 SI 15779 SI SI1 15779 1.100000 28.08600
15780 SI 15780 SI SI1 15780 1.100000 28.08600
15781 SI 15781 SI SI1 15781 1.100000 28.08600
15782 SI 15782 SI SI1 15782 1.100000 28.08600
15783 SI 15783 SI SI1 15783 1.100000 28.08600
15784 SI 15784 SI SI1 15784 1.100000 28.08600
15785 SI 15785 SI SI1 15785 1.100000 28.08600
15786 SI 15786 SI SI1 15786 1.100000 28.08600
15787 SI 15787 SI SI1 15787 1.100000 28.08600
15788 SI 15788 SI SI1 15788 1.100000 28.08600
15789 SI 15789 SI SI1 15789 1.100000 28.08600
15790 SI 15790 SI SI1 15790 1.100000 28.08600
15791 SI 15791 SI SI1 15791 1.100000 28.08600
15792 SI 15792 SI SI1 15792 1.100000 28.08600
15793 SI 15793 SI SI1 15793 1.100000 28.08600
15794 SI 15794 SI SI1 15794 1.100000 28.08600
15795 SI 15795 SI SI1 15795 1.100000 28.08600
15796 SI 15796 SI SI1 15796 1.100000 28.08600
15797 SI 15797 SI SI1 15797 1.100000 28.08600
15798 SI 15798 SI SI1 15798 1.100000 28.08600
15799 SI 15799 SI SI1 15799 1.100000 28.08600
15800 SI 15800 SI SI1 15800 1.100000 28.08600
15801 SI 15801 SI SI1 15801 1.100000 28.08600
15802 SI 15802 SI SI1 15802 1.100000 28.08600
15803 SI 15803 SI SI1 15803 1.100000 28.08600
15804 SI 15804 SI SI1 15804 1.100000 28.08600
15805 SI 15805 SI SI1 15805 1.100000 28.08600
15806 SI 15806 SI SI1 15806 1.100000 28.08600
15807 SI 15807 SI SI1 15807 1.100000 28.08600
15808 SI 15808 SI SI1 15808 1.100000 28.08600
15809 SI 15809 SI SI1 15809 1.100000 28.08600
15810 SI 15810 SI SI1 15810 1.100000 28.08600
15811 SI 15811 SI SI1 15811 1.100000 28.08600
15812 SI 15812 SI SI1 15812 1.100000 28.08600
15813 SI 15813 SI SI1 15813 1.100000 28.08600
15814 SI 15814 SI SI1 15814 1.100000 28.08600
15815 SI 15815 SI SI1 15815 1.100000 28.08600
15816 SI 15816 SI SI1 15816 1.100000 28.08600
15817 SI 15817 SI SI1 15817 1.100000 28.08600
15818 SI 15818 SI SI1 15818 1.100000 28.08600
15819 SI 15819 SI SI1 15819 1.100000 28.08600
15820 SI 15820 SI SI1 15820 1.100000 28.08600
15821 SI 15821 SI SI1 15821 1.100000 28.08600
15822 SI 15822 SI SI1 15822 1.100000 28.08600
15823 SI 15823 SI SI1 15823 1.100000 28.08600
15824 SI 15824 SI SI1 15824 1.100000 28.08600
15825 SI 15825 SI SI1 15825 1.100000 28.08600
15826 SI 15826 SI SI1 15826 1.100000 28.08600
15827 SI 15827 SI SI1 15827 1.100000 28.08600
15828 SI 15828 SI SI1 15828 1.100000 28.08600
15829 SI 15829 SI SI1 15829 1.100000 28.08600
15830 SI 15830 SI SI1 15830 1.100000 28.08600
15831 SI 15831 SI SI1 15831 1.100000 28.08600
15832 SI 15832 SI SI1 15832 1.100000 28.08600
15833 SI 15833 SI SI1 15833 1.100000 28.08600
15834 SI 15834 SI SI1 15834 1.100000 28.08600
15835 SI 15835 SI SI1 15835 1.100000 28.08600
15836 SI 15836 SI SI1 15836 1.100000 28.08600
15837 SI 15837 SI SI1 15837 1.100000 28.08600
15838 SI 15838 SI SI1 15838 1.100000 28.08600
15839 SI 15839 SI SI1 15839 1.100000 28.08600
15840 SI 15840 SI SI1 15840 1.100000 28.08600
15841 SI 15841 SI SI1 15841 1.100000 28.08600
15842 SI 15842 SI SI1 15842 1.100000 28.08600
15843 SI 15843 SI SI1 15843 1.100000 28.08600
15844 SI 15844 SI SI1 15844 1.100000 28.08600
15845 SI 15845 SI SI1 15845 1.100000 28.08600
15846 SI 15846 SI SI1 15846 1.100000 28.08600
15847 SI 15847 SI SI1 15847 1.100000 28.08600
15848 SI 15848 SI SI1 15848 1.100000 28.08600
15849 SI 15849 SI SI1 15849 1.100000 28.08600
15850 SI 15850 SI SI1 15850 1.100000 28.08600
15851 SI 15851 SI SI1 15851 1.100000 28.08600
15852 SI 15852 SI SI1 15852 1.100000 28.08600
15853 SI 15853 SI SI1 15853 1.100000 28.08600
15854 SI 15854 SI SI1 15854 1.100000 28.08600
15855 SI 15855 SI SI1 15855 1.100000 28.08600
15856 SI 15856 SI SI1 15856 1.100000 28.08600
15857 SI 15857 SI SI1 15857 1.100000 28.08600
15858 SI 15858 SI SI1 15858 1.100000 28.08600
15859 SI 15859 SI SI1 15859 1.100000 28.08600
15860 SI 15860 SI SI1 15860 1.100000 28.08600
15861 SI 15861 SI SI1 15861 1.100000 28.08600
15862 SI 15862 SI SI1 15862 1.100000 28.08600
15863 SI 15863 SI SI1 15863 1.100000 28.08600
15864 SI 15864 SI SI1 15864 1.100000 28.08600
15865 SI 15865 SI SI1 15865 1.100000 28.08600
15866 SI 15866 SI SI1 15866 1.100000 28.08600
15867 SI 15867 SI SI1 15867 1.100000 28.08600
15868 SI 15868 SI SI1 15868 1.100000 28.08600
15869 SI 15869 SI SI1 15869 1.100000 28.08600
15870 SI 15870 SI SI1 15870 1.100000 28.08600
15871 SI 15871 SI SI1 15871 1.100000 28.08600
15872 SI 15872 SI SI1 15872 1.100000 28.08600
15873 SI 15873 SI SI1 15873 1.100000 28.08600
15874 SI 15874 SI SI1 15874 1.100000 28.08600
15875 SI 15875 SI SI1 15875 1.100000 28.08600
15876 SI 15876 SI SI1 15876 1.100000 28.08600
15877 SI 15877 SI SI1 15877 1.100000 28.08600
15878 SI 15878 SI SI1 15878 1.100000 28.08600
15879 SI 15879 SI SI1 15879 1.100000 28.08600
15880 SI 15880 SI SI1 15880 1.100000 28.08600
15881 SI 15881 SI SI1 15881 1.100000 28.08600
15882 SI 15882 SI SI1 15882 1.100000 28.08600
15883 SI 15883 SI SI1 15883 1.100000 28.08600
15884 SI 15884 SI SI1 15884 1.100000 28.08600
15885 SI 15885 SI SI1 15885 1.100000 28.08600
15886 SI 15886 SI SI1 15886 1.100000 28.08600
15887 SI 15887 SI SI1 15887 1.100000 28.08600
15888 SI 15888 SI SI1 15888 1.100000 28.08600
15889 SI 15889 SI SI1 15889 1.100000 28.08600
15890 SI 15890 SI SI1 15890 1.100000 28.08600
15891 SI 15891 SI SI1 15891 1.100000 28.08600
15892 SI 15892 SI SI1 15892 1.100000 28.08600
15893 SI 15893 SI SI1 15893 1.100000 28.08600
15894 SI 15894 SI SI1 15894 1.100000 28.08600
15895 SI 15895 SI SI1 15895 1.100000 28.08600
15896 SI 15896 SI SI1 15896 1.100000 28.08600
15897 SI 15897 SI SI1 15897 1.100000 28.08600
15898 SI 15898 SI SI1 15898 1.100000 28.08600
15899 SI 15899 SI SI1 15899 1.100000 28.08600
15900 SI 15900 SI SI1 15900 1.100000 28.08600
15901 SI 15901 SI SI1 15901 1.100000 28.08600
15902 SI 15902 SI SI1 15902 1.100000 28.08600
15903 SI 15903 SI SI1 15903 1.100000 28.08600
15904 SI 15904 SI SI1 15904 1.100000 28.08600
15905 SI 15905 SI SI1 15905 1.100000 28.08600
15906 SI 15906 SI SI1 15906 1.100000 28.08600
15907 SI 15907 SI SI1 15907 1.100000 28.08600
15908 SI 15908 SI SI1 15908 1.100000 28.08600
15909 SI 15909 SI SI1 15909 1.100000 28.08600
15910 SI 15910 SI SI1 15910 1.100000 28.08600
15911 SI 15911 SI SI1 15911 1.100000 28.08600
15912 SI 15912 SI SI1 15912 1.100000 28.08600
15913 SI 15913 SI SI1 15913 1.100000 28.08600
15914 SI 15914 SI SI1 15914 1.100000 28.08600
15915 SI 15915 SI SI1 15915 1.100000 28.08600
15916 SI 15916 SI SI1 15916 1.100000 28.08600
15917 SI 15917 SI SI1 15917 1.100000 28.08600
15918 SI 15918 SI SI1 15918 1.100000 28.08600
15919 SI 15919 SI SI1 15919 1.100000 28.08600
15920 SI 15920 SI SI1 15920 1.100000 28.08600
15921 SI 15921 SI SI1 15921 1.100000 28.08600
15922 SI 15922 SI SI1 15922 1.100000 28.08600
15923 SI 15923 SI SI1 15923 1.100000 28.08600
15924 SI 15924 SI SI1 15924 1.100000 28.08600
15925 SI 15925 SI SI1 15925 1.100000 28.08600
15926 SI 15926 SI SI1 15926 1.100000 28.08600
15927 SI 15927 SI SI1 15927 1.100000 28.08600
15928 SI 15928 SI SI1 15928 1.100000 28.08600
15929 SI 15929 SI SI1 15929 1.100000 28.08600
15930 SI 15930 SI SI1 15930 1.100000 28.08600
15931 SI 15931 SI SI1 15931 1.100000 28.08600
15932 SI 15932 SI SI1 15932 1.100000 28.08600
15933 SI 15933 SI SI1 15933 1.100000 28.08600
15934 SI 15934 SI SI1 15934 1.100000 28.08600
15935 SI 15935 SI SI1 15935 1.100000 28.08600
15936 SI 15936 SI SI1 15936 1.100000 28.08600
15937 SI 15937 SI SI1 15937 1.100000 28.08600
15938 SI 15938 SI SI1 15938 1.100000 28.08600
15939 SI 15939 SI SI1 15939 1.100000 28.08600
15940 SI 15940 SI SI1 15940 1.100000 28.08600
15941 SI 15941 SI SI1 15941 1.100000 28.08600
15942 SI 15942 SI SI1 15942 1.100000 28.08600
15943 SI 15943 SI SI1 15943 1.100000 28.08600
15944 SI 15944 SI SI1 15944 1.100000 28.08600
15945 SI 15945 SI SI1 15945 1.100000 28.08600
15946 SI 15946 SI SI1 15946 1.100000 28.08600
15947 SI 15947 SI SI1 15947 1.100000 28.08600
15948 SI 15948 SI SI1 15948 1.100000 28.08600
15949 SI 15949 SI SI1 15949 1.100000 28.08600
15950 SI 15950 SI SI1 15950 1.100000 28.08600
15951 SI 15951 SI SI1 15951 1.100000 28.08600
15952 SI 15952 SI SI1 15952 1.100000 28.08600
15953 SI 15953 SI SI1 15953 1.100000 28.08600
15954 SI 15954 SI SI1 15954 1.100000 28.08600
15955 SI 15955 SI SI1 15955 1.100000 28.08600
15956 SI 15956 SI SI1 15956 1.100000 28.08600
15957 SI 15957 SI SI1 15957 1.100000 28.08600
15958 SI 15958 SI SI1 15958 1.100000 28.08600
15959 SI 15959 SI SI1 15959 1.100000 28.08600
15960 SI 15960 SI SI1 15960 1.100000 28.08600
15961 SI 15961 SI SI1 15961 1.100000 28.08600
15962 SI 15962 SI SI1 15962 1.100000 28.08600
15963 SI 15963 SI SI1 15963 1.100000 28.08600
15964 SI 15964 SI SI1 15964 1.100000 28.08600
15965 SI 15965 SI SI1 15965 1.100000 28.08600
15966 SI 15966 SI SI1 15966 1.100000 28.08600
15967 SI 15967 SI SI1 15967 1.100000 28.08600
15968 SI 15968 SI SI1 15968 1.100000 28.08600
15969 SI 15969 SI SI1 15969 1.100000 28.08600
15970 SI 15970 SI SI1 15970 1.100000 28.08600
15971 SI 15971 SI SI1 15971 1.100000 28.08600
15972 SI 15972 SI SI1 15972 1.100000 28.08600
15973 SI 15973 SI SI1 15973 1.100000 28.08600
15974 SI 15974 SI SI1 15974 1.100000 28.08600
15975 SI 15975 SI SI1 15975 1.100000 28.08600
15976 SI 15976 SI SI1 15976 1.100000 28.08600
15977 SI 15977 SI SI1 15977 1.100000 28.08600
15978 SI 15978 SI SI1 15978 1.100000 28.08600
15979 SI 15979 SI SI1 15979 1.100000 28.08600
15980 SI 15980 SI SI1 15980 1.100000 28.08600
15981 SI 15981 SI SI1 15981 1.100000 28.08600
15982 SI 15982 SI SI1 15982 1.100000 28.08600
15983 SI 15983 SI SI1 15983 1.100000 28.08600
15984 SI 15984 SI SI1 15984 1.100000 28.08600
15985 SI 15985 SI SI1 15985 1.100000 28.08600
15986 SI 15986 SI SI1 15986 1.100000 28.08600
15987 SI 15987 SI SI1 15987 1.100000 28.08600
15988 SI 15988 SI SI1 15988 1.100000 28.08600
15989 SI 15989 SI SI1 15989 1.100000 28.08600
15990 SI 15990 SI SI1 15990 1.100000 28.08600
15991 SI 15991 SI SI1 15991 1.100000 28.08600
15992 SI 15992 SI SI1 15992 1.100000 28.08600
15993 SI 15993 SI SI1 15993 1.100000 28.08600
15994 SI 15994 SI SI1 15994 1.100000 28.08600
15995 SI 15995 SI SI1 15995 1.100000 28.08600
15996 SI 15996 SI SI1 15996 1.100000 28.08600
15997 SI 15997 SI SI1 15997 1.100000 28.08600
15998 SI 15998 SI SI1 15998 1.100000 28.08600
15999 SI 15999 SI SI1 15999 1.100000 28.08600
16000 SI 16000 SI SI1 16000 1.100000 28.08600
16001 SI 16001 SI SI1 16001 1.100000 28.08600
16002 SI 16002 SI SI1 16002 1.100000 28.08600
16003 SI 16003 SI SI1 16003 1.100000 28.08600
16004 SI 16004 SI SI1 16004 1.100000 28.08600
16005 SI 16005 SI SI1 16005 1.100000 28.08600
16006 SI 16006 SI SI1 16006 1.100000 28.08600
16007 SI 16007 SI SI1 16007 1.100000 28.08600
16008 SI 16008 SI SI1 16008 1.100000 28.08600
16009 SI 16009 SI SI1 16009 1.100000 28.08600
16010 SI 16010 SI SI1 16010 1.100000 28.08600
16011 SI 16011 SI SI1 16011 1.100000 28.08600
16012 SI 16012 SI SI1 16012 1.100000 28.08600
16013 SI 16013 SI SI1 16013 1.100000 28.08600
16014 SI 16014 SI SI1 16014 1.100000 28.08600
16015 SI 16015 SI SI1 16015 1.100000 28.08600
16016 SI 16016 SI SI1 16016 1.100000 28.08600
16017 SI 16017 SI SI1 16017 1.100000 28.08600
16018 SI 16018 SI SI1 16018 1.100000 28.08600
16019 SI 16019 SI SI1 16019 1.100000 28.08600
16020 SI 16020 SI SI1 16020 1.100000 28.08600
16021 SI 16021 SI SI1 16021 1.100000 28.08600
16022 SI 16022 SI SI1 16022 1.100000 28.08600
16023 SI 16023 SI SI1 16023 1.100000 28.08600
16024 SI 16024 SI SI1 16024 1.100000 28.08600
16025 SI 16025 SI SI1 16025 1.100000 28.08600
16026 SI 16026 SI SI1 16026 1.100000 28.08600
16027 SI 16027 SI SI1 16027 1.100000 28.08600
16028 SI 16028 SI SI1 16028 1.100000 28.08600
16029 SI 16029 SI SI1 16029 1.100000 28.08600
16030 SI 16030 SI SI1 16030 1.100000 28.08600
16031 SI 16031 SI SI1 16031 1.100000 28.08600
16032 SI 16032 SI SI1 16032 1.100000 28.08600
16033 SI 16033 SI SI1 16033 1.100000 28.08600
16034 SI 16034 SI SI1 16034 1.100000 28.08600
16035 SI 16035 SI SI1 16035 1.100000 28.08600
16036 SI 16036 SI SI1 16036 1.100000 28.08600
16037 SI 16037 SI SI1 16037 1.100000 28.08600
16038 SI 16038 SI SI1 16038 1.100000 28.08600
16039 SI 16039 SI SI1 16039 1.100000 28.08600
16040 SI 16040 SI SI1 16040 1.100000 28.08600
16041 SI 16041 SI SI1 16041 1.100000 28.08600
16042 SI 16042 SI SI1 16042 1.100000 28.08600
16043 SI 16043 SI SI1 16043 1.100000 28.08600
16044 SI 16044 SI SI1 16044 1.100000 28.08600
16045 SI 16045 SI SI1 16045 1.100000 28.08600
16046 SI 16046 SI SI1 16046 1.100000 28.08600
16047 SI 16047 SI SI1 16047 1.100000 28.08600
16048 SI 16048 SI SI1 16048 1.100000 28.08600
16049 SI 16049 SI SI1 16049 1.100000 28.08600
16050 SI 16050 SI SI1 16050 1.100000 28.08600
16051 SI 16051 SI SI1 16051 1.100000 28.08600
16052 SI 16052 SI SI1 16052 1.100000 28.08600
16053 SI 16053 SI SI1 16053 1.100000 28.08600
16054 SI 16054 SI SI1 16054 1.100000 28.08600
16055 SI 16055 SI SI1 16055 1.100000 28.08600
16056 SI 16056 SI SI1 16056 1.100000 28.08600
16057 SI 16057 SI SI1 16057 1.100000 28.08600
16058 SI 16058 SI SI1 16058 1.100000 28.08600
16059 SI 16059 SI SI1 16059 1.100000 28.08600
16060 SI 16060 SI SI1 16060 1.100000 28.08600
16061 SI 16061 SI SI1 16061 1.100000 28.08600
16062 SI 16062 SI SI1 16062 1.100000 28.08600
16063 SI 16063 SI SI1 16063 1.100000 28.08600
16064 SI 16064 SI SI1 16064 1.100000 28.08600
16065 SI 16065 SI SI1 16065 1.100000 28.08600
16066 SI 16066 SI SI1 16066 1.100000 28.08600
16067 SI 16067 SI SI1 16067 1.100000 28.08600
16068 SI 16068 SI SI1 16068 1.100000 28.08600
16069 SI 16069 SI SI1 16069 1.100000 28.08600
16070 SI 16070 SI SI1 16070 1.100000 28.08600
16071 SI 16071 SI SI1 16071 1.100000 28.08600
16072 SI 16072 SI SI1 16072 1.100000 28.08600
16073 SI 16073 SI SI1 16073 1.100000 28.08600
16074 SI 16074 SI SI1 16074 1.100000 28.08600
16075 SI 16075 SI SI1 16075 1.100000 28.08600
16076 SI 16076 SI SI1 16076 1.100000 28.08600
16077 SI 16077 SI SI1 16077 1.100000 28.08600
16078 SI 16078 SI SI1 16078 1.100000 28.08600
16079 SI 16079 SI SI1 16079 1.100000 28.08600
16080 SI 16080 SI SI1 16080 1.100000 28.08600
16081 SI 16081 SI SI1 16081 1.100000 28.08600
16082 SI 16082 SI SI1 16082 1.100000 28.08600
16083 SI 16083 SI SI1 16083 1.100000 28.08600
16084 SI 16084 SI SI1 16084 1.100000 28.08600
16085 SI 16085 SI SI1 16085 1.100000 28.08600
16086 SI 16086 SI SI1 16086 1.100000 28.08600
16087 SI 16087 SI SI1 16087 1.100000 28.08600
16088 SI 16088 SI SI1 16088 1.100000 28.08600
16089 SI 16089 SI SI1 16089 1.100000 28.08600
16090 SI 16090 SI SI1 16090 1.100000 28.08600
16091 SI 16091 SI SI1 16091 1.100000 28.08600
16092 SI 16092 SI SI1 16092 1.100000 28.08600
16093 SI 16093 SI SI1 16093 1.100000 28.08600
16094 SI 16094 SI SI1 16094 1.100000 28.08600
16095 SI 16095 SI SI1 16095 1.100000 28.08600
16096 SI 16096 SI SI1 16096 1.100000 28.08600
16097 SI 16097 SI SI1 16097 1.100000 28.08600
16098 SI 16098 SI SI1 16098 1.100000 28.08600
16099 SI 16099 SI SI1 16099 1.100000 28.08600
16100 SI 16100 SI SI1 16100 1.100000 28.08600
16101 SI 16101 SI SI1 16101 1.100000 28.08600
16102 SI 16102 SI SI1 16102 1.100000 28.08600
16103 SI 16103 SI SI1 16103 1.100000 28.08600
16104 SI 16104 SI SI1 16104 1.100000 28.08600
16105 SI 16105 SI SI1 16105 1.100000 28.08600
16106 SI 16106 SI SI1 16106 1.100000 28.08600
16107 SI 16107 SI SI1 16107 1.100000 28.08600
16108 SI 16108 SI SI1 16108 1.100000 28.08600
16109 SI 16109 SI SI1 16109 1.100000 28.08600
16110 SI 16110 SI SI1 16110 1.100000 28.08600
16111 SI 16111 SI SI1 16111 1.100000 28.08600
16112 SI 16112 SI SI1 16112 1.100000 28.08600
16113 SI 16113 SI SI1 16113 1.100000 28.08600
16114 SI 16114 SI SI1 16114 1.100000 28.08600
16115 SI 16115 SI SI1 16115 1.100000 28.08600
16116 SI 16116 SI SI1 16116 1.100000 28.08600
16117 SI 16117 SI SI1 16117 1.100000 28.08600
16118 SI 16118 SI SI1 16118 1.100000 28.08600
16119 SI 16119 SI SI1 16119 1.100000 28.08600
16120 SI 16120 SI SI1 16120 1.100000 28.08600
16121 SI 16121 SI SI1 16121 1.100000 28.08600
16122 SI 16122 SI SI1 16122 1.100000 28.08600
16123 SI 16123 SI SI1 16123 1.100000 28.08600
16124 SI 16124 SI SI1 16124 1.100000 28.08600
16125 SI 16125 SI SI1 16125 1.100000 28.08600
16126 SI 16126 SI SI1 16126 1.100000 28.08600
16127 SI 16127 SI SI1 16127 1.100000 28.08600
16128 SI 16128 SI SI1 16128 1.100000 28.08600
16129 SI 16129 SI SI1 16129 1.100000 28.08600
16130 SI 16130 SI SI1 16130 1.100000 28.08600
16131 SI 16131 SI SI1 16131 1.100000 28.08600
16132 SI 16132 SI SI1 16132 1.100000 28.08600
16133 SI 16133 SI SI1 16133 1.100000 28.08600
16134 SI 16134 SI SI1 16134 1.100000 28.08600
16135 SI 16135 SI SI1 16135 1.100000 28.08600
16136 SI 16136 SI SI1 16136 1.100000 28.08600
16137 SI 16137 SI SI1 16137 1.100000 28.08600
16138 SI 16138 SI SI1 16138 1.100000 28.08600
16139 SI 16139 SI SI1 16139 1.100000 28.08600
16140 SI 16140 SI SI1 16140 1.100000 28.08600
16141 SI 16141 SI SI1 16141 1.100000 28.08600
16142 SI 16142 SI SI1 16142 1.100000 28.08600
16143 SI 16143 SI SI1 16143 1.100000 28.08600
16144 SI 16144 SI SI1 16144 1.100000 28.08600
16145 SI 16145 SI SI1 16145 1.100000 28.08600
16146 SI 16146 SI SI1 16146 1.100000 28.08600
16147 SI 16147 SI SI1 16147 1.100000 28.08600
16148 SI 16148 SI SI1 16148 1.100000 28.08600
16149 SI 16149 SI SI1 16149 1.100000 28.08600
16150 SI 16150 SI SI1 16150 1.100000 28.08600
16151 SI 16151 SI SI1 16151 1.100000 28.08600
16152 SI 16152 SI SI1 16152 1.100000 28.08600
16153 SI 16153 SI SI1 16153 1.100000 28.08600
16154 SI 16154 SI SI1 16154 1.100000 28.08600
16155 SI 16155 SI SI1 16155 1.100000 28.08600
16156 SI 16156 SI SI1 16156 1.100000 28.08600
16157 SI 16157 SI SI1 16157 1.100000 28.08600
16158 SI 16158 SI SI1 16158 1.100000 28.08600
16159 SI 16159 SI SI1 16159 1.100000 28.08600
16160 SI 16160 SI SI1 16160 1.100000 28.08600
16161 SI 16161 SI SI1 16161 1.100000 28.08600
16162 SI 16162 SI SI1 16162 1.100000 28.08600
16163 SI 16163 SI SI1 16163 1.100000 28.08600
16164 SI 16164 SI SI1 16164 1.100000 28.08600
16165 SI 16165 SI SI1 16165 1.100000 28.08600
16166 SI 16166 SI SI1 16166 1.100000 28.08600
16167 SI 16167 SI SI1 16167 1.100000 28.08600
16168 SI 16168 SI SI1 16168 1.100000 28.08600
16169 SI 16169 SI SI1 16169 1.100000 28.08600
16170 SI 16170 SI SI1 16170 1.100000 28.08600
16171 SI 16171 SI SI1 16171 1.100000 28.08600
16172 SI 16172 SI SI1 16172 1.100000 28.08600
16173 SI 16173 SI SI1 16173 1.100000 28.08600
16174 SI 16174 SI SI1 16174 1.100000 28.08600
16175 SI 16175 SI SI1 16175 1.100000 28.08600
16176 SI 16176 SI SI1 16176 1.100000 28.08600
16177 SI 16177 SI SI1 16177 1.100000 28.08600
16178 SI 16178 SI SI1 16178 1.100000 28.08600
16179 SI 16179 SI SI1 16179 1.100000 28.08600
16180 SI 16180 SI SI1 16180 1.100000 28.08600
16181 SI 16181 SI SI1 16181 1.100000 28.08600
16182 SI 16182 SI SI1 16182 1.100000 28.08600
16183 SI 16183 SI SI1 16183 1.100000 28.08600
16184 SI 16184 SI SI1 16184 1.100000 28.08600
16185 SI 16185 SI SI1 16185 1.100000 28.08600
16186 SI 16186 SI SI1 16186 1.100000 28.08600
16187 SI 16187 SI SI1 16187 1.100000 28.08600
16188 SI 16188 SI SI1 16188 1.100000 28.08600
16189 SI 16189 SI SI1 16189 1.100000 28.08600
16190 SI 16190 SI SI1 16190 1.100000 28.08600
16191 SI 16191 SI SI1 16191 1.100000 28.08600
16192 SI 16192 SI SI1 16192 1.100000 28.08600
16193 SI 16193 SI SI1 16193 1.100000 28.08600
16194 SI 16194 SI SI1 16194 1.100000 28.08600
16195 SI 16195 SI SI1 16195 1.100000 28.08600
16196 SI 16196 SI SI1 16196 1.100000 28.08600
16197 SI 16197 SI SI1 16197 1.100000 28.08600
16198 SI 16198 SI SI1 16198 1.100000 28.08600
16199 SI 16199 SI SI1 16199 1.100000 28.08600
16200 SI 16200 SI SI1 16200 1.100000 28.08600
16201 SI 16201 SI SI1 16201 1.100000 28.08600
16202 SI 16202 SI SI1 16202 1.100000 28.08600
16203 SI 16203 SI SI1 16203 1.100000 28.08600
16204 SI 16204 SI SI1 16204 1.100000 28.08600
16205 SI 16205 SI SI1 16205 1.100000 28.08600
16206 SI 16206 SI SI1 16206 1.100000 28.08600
16207 SI 16207 SI SI1 16207 1.100000 28.08600
16208 SI 16208 SI SI1 16208 1.100000 28.08600
16209 SI 16209 SI SI1 16209 1.100000 28.08600
16210 SI 16210 SI SI1 16210 1.100000 28.08600
16211 SI 16211 SI SI1 16211 1.100000 28.08600
16212 SI 16212 SI SI1 16212 1.100000 28.08600
16213 SI 16213 SI SI1 16213 1.100000 28.08600
16214 SI 16214 SI SI1 16214 1.100000 28.08600
16215 SI 16215 SI SI1 16215 1.100000 28.08600
16216 SI 16216 SI SI1 16216 1.100000 28.08600
16217 SI 16217 SI SI1 16217 1.100000 28.08600
16218 SI 16218 SI SI1 16218 1.100000 28.08600
16219 SI 16219 SI SI1 16219 1.100000 28.08600
16220 SI 16220 SI SI1 16220 1.100000 28.08600
16221 SI 16221 SI SI1 16221 1.100000 28.08600
16222 SI 16222 SI SI1 16222 1.100000 28.08600
16223 SI 16223 SI SI1 16223 1.100000 28.08600
16224 SI 16224 SI SI1 16224 1.100000 28.08600
16225 SI 16225 SI SI1 16225 1.100000 28.08600
16226 SI 16226 SI SI1 16226 1.100000 28.08600
16227 SI 16227 SI SI1 16227 1.100000 28.08600
16228 SI 16228 SI SI1 16228 1.100000 28.08600
16229 SI 16229 SI SI1 16229 1.100000 28.08600
16230 SI 16230 SI SI1 16230 1.100000 28.08600
16231 SI 16231 SI SI1 16231 1.100000 28.08600
16232 SI 16232 SI SI1 16232 1.100000 28.08600
16233 SI 16233 SI SI1 16233 1.100000 28.08600
16234 SI 16234 SI SI1 16234 1.100000 28.08600
16235 SI 16235 SI SI1 16235 1.100000 28.08600
16236 SI 16236 SI SI1 16236 1.100000 28.08600
16237 SI 16237 SI SI1 16237 1.100000 28.08600
16238 SI 16238 SI SI1 16238 1.100000 28.08600
16239 SI 16239 SI SI1 16239 1.100000 28.08600
16240 SI 16240 SI SI1 16240 1.100000 28.08600
16241 SI 16241 SI SI1 16241 1.100000 28.08600
16242 SI 16242 SI SI1 16242 1.100000 28.08600
16243 SI 16243 SI SI1 16243 1.100000 28.08600
16244 SI 16244 SI SI1 16244 1.100000 28.08600
16245 SI 16245 SI SI1 16245 1.100000 28.08600
16246 SI 16246 SI SI1 16246 1.100000 28.08600
16247 SI 16247 SI SI1 16247 1.100000 28.08600
16248 SI 16248 SI SI1 16248 1.100000 28.08600
16249 SI 16249 SI SI1 16249 1.100000 28.08600
16250 SI 16250 SI SI1 16250 1.100000 28.08600
16251 SI 16251 SI SI1 16251 1.100000 28.08600
16252 SI 16252 SI SI1 16252 1.100000 28.08600
16253 SI 16253 SI SI1 16253 1.100000 28.08600
16254 SI 16254 SI SI1 16254 1.100000 28.08600
16255 SI 16255 SI SI1 16255 1.100000 28.08600
16256 SI 16256 SI SI1 16256 1.100000 28.08600
16257 SI 16257 SI SI1 16257 1.100000 28.08600
16258 SI 16258 SI SI1 16258 1.100000 28.08600
16259 SI 16259 SI SI1 16259 1.100000 28.08600
16260 SI 16260 SI SI1 16260 1.100000 28.08600
16261 SI 16261 SI SI1 16261 1.100000 28.08600
16262 SI 16262 SI SI1 16262 1.100000 28.08600
16263 SI 16263 SI SI1 16263 1.100000 28.08600
16264 SI 16264 SI SI1 16264 1.100000 28.08600
16265 SI 16265 SI SI1 16265 1.100000 28.08600
16266 SI 16266 SI SI1 16266 1.100000 28.08600
16267 SI 16267 SI SI1 16267 1.100000 28.08600
16268 SI 16268 SI SI1 16268 1.100000 28.08600
16269 SI 16269 SI SI1 16269 1.100000 28.08600
16270 SI 16270 SI SI1 16270 1.100000 28.08600
16271 SI 16271 SI SI1 16271 1.100000 28.08600
16272 SI 16272 SI SI1 16272 1.100000 28.08600
16273 SI 16273 SI SI1 16273 1.100000 28.08600
16274 SI 16274 SI SI1 16274 1.100000 28.08600
16275 SI 16275 SI SI1 16275 1.100000 28.08600
16276 SI 16276 SI SI1 16276 1.100000 28.08600
16277 SI 16277 SI SI1 16277 1.100000 28.08600
16278 SI 16278 SI SI1 16278 1.100000 28.08600
16279 SI 16279 SI SI1 16279 1.100000 28.08600
16280 SI 16280 SI SI1 16280 1.100000 28.08600
16281 SI 16281 SI SI1 16281 1.100000 28.08600
16282 SI 16282 SI SI1 16282 1.100000 28.08600
16283 SI 16283 SI SI1 16283 1.100000 28.08600
16284 SI 16284 SI SI1 16284 1.100000 28.08600
16285 SI 16285 SI SI1 16285 1.100000 28.08600
16286 SI 16286 SI SI1 16286 1.100000 28.08600
16287 SI 16287 SI SI1 16287 1.100000 28.08600
16288 SI 16288 SI SI1 16288 1.100000 28.08600
16289 SI 16289 SI SI1 16289 1.100000 28.08600
16290 SI 16290 SI SI1 16290 1.100000 28.08600
16291 SI 16291 SI SI1 16291 1.100000 28.08600
16292 SI 16292 SI SI1 16292 1.100000 28.08600
16293 SI 16293 SI SI1 16293 1.100000 28.08600
16294 SI 16294 SI SI1 16294 1.100000 28.08600
16295 SI 16295 SI SI1 16295 1.100000 28.08600
16296 SI 16296 SI SI1 16296 1.100000 28.08600
16297 SI 16297 SI SI1 16297 1.100000 28.08600
16298 SI 16298 SI SI1 16298 1.100000 28.08600
16299 SI 16299 SI SI1 16299 1.100000 28.08600
16300 SI 16300 SI SI1 16300 1.100000 28.08600
16301 SI 16301 SI SI1 16301 1.100000 28.08600
16302 SI 16302 SI SI1 16302 1.100000 28.08600
16303 SI 16303 SI SI1 16303 1.100000 28.08600
16304 SI 16304 SI SI1 16304 1.100000 28.08600
16305 SI 16305 SI SI1 16305 1.100000 28.08600
16306 SI 16306 SI SI1 16306 1.100000 28.08600
16307 SI 16307 SI SI1 16307 1.100000 28.08600
16308 SI 16308 SI SI1 16308 1.100000 28.08600
16309 SI 16309 SI SI1 16309 1.100000 28.08600
16310 SI 16310 SI SI1 16310 1.100000 28.08600
16311 SI 16311 SI SI1 16311 1.100000 28.08600
16312 SI 16312 SI SI1 16312 1.100000 28.08600
16313 SI 16313 SI SI1 16313 1.100000 28.08600
16314 SI 16314 SI SI1 16314 1.100000 28.08600
16315 SI 16315 SI SI1 16315 1.100000 28.08600
16316 SI 16316 SI SI1 16316 1.100000 28.08600
16317 SI 16317 SI SI1 16317 1.100000 28.08600
16318 SI 16318 SI SI1 16318 1.100000 28.08600
16319 SI 16319 SI SI1 16319 1.100000 28.08600
16320 SI 16320 SI SI1 16320 1.100000 28.08600
16321 SI 16321 SI SI1 16321 1.100000 28.08600
16322 SI 16322 SI SI1 16322 1.100000 28.08600
16323 SI 16323 SI SI1 16323 1.100000 28.08600
16324 SI 16324 SI SI1 16324 1.100000 28.08600
16325 SI 16325 SI SI1 16325 1.100000 28.08600
16326 SI 16326 SI SI1 16326 1.100000 28.08600
16327 SI 16327 SI SI1 16327 1.100000 28.08600
16328 SI 16328 SI SI1 16328 1.100000 28.08600
16329 SI 16329 SI SI1 16329 1.100000 28.08600
16330 SI 16330 SI SI1 16330 1.100000 28.08600
16331 SI 16331 SI SI1 16331 1.100000 28.08600
16332 SI 16332 SI SI1 16332 1.100000 28.08600
16333 SI 16333 SI SI1 16333 1.100000 28.08600
16334 SI 16334 SI SI1 16334 1.100000 28.08600
16335 SI 16335 SI SI1 16335 1.100000 28.08600
16336 SI 16336 SI SI1 16336 1.100000 28.08600
16337 SI 16337 SI SI1 16337 1.100000 28.08600
16338 SI 16338 SI SI1 16338 1.100000 28.08600
16339 SI 16339 SI SI1 16339 1.100000 28.08600
16340 SI 16340 SI SI1 16340 1.100000 28.08600
16341 SI 16341 SI SI1 16341 1.100000 28.08600
16342 SI 16342 SI SI1 16342 1.100000 28.08600
16343 SI 16343 SI SI1 16343 1.100000 28.08600
16344 SI 16344 SI SI1 16344 1.100000 28.08600
16345 SI 16345 SI SI1 16345 1.100000 28.08600
16346 SI 16346 SI SI1 16346 1.100000 28.08600
16347 SI 16347 SI SI1 16347 1.100000 28.08600
16348 SI 16348 SI SI1 16348 1.100000 28.08600
16349 SI 16349 SI SI1 16349 1.100000 28.08600
16350 SI 16350 SI SI1 16350 1.100000 28.08600
16351 SI 16351 SI SI1 16351 1.100000 28.08600
16352 SI 16352 SI SI1 16352 1.100000 28.08600
16353 SI 16353 SI SI1 16353 1.100000 28.08600
16354 SI 16354 SI SI1 16354 1.100000 28.08600
16355 SI 16355 SI SI1 16355 1.100000 28.08600
16356 SI 16356 SI SI1 16356 1.100000 28.08600
16357 SI 16357 SI SI1 16357 1.100000 28.08600
16358 SI 16358 SI SI1 16358 1.100000 28.08600
16359 SI 16359 SI SI1 16359 1.100000 28.08600
16360 SI 16360 SI SI1 16360 1.100000 28.08600
16361 SI 16361 SI SI1 16361 1.100000 28.08600
16362 SI 16362 SI SI1 16362 1.100000 28.08600
16363 SI 16363 SI SI1 16363 1.100000 28.08600
16364 SI 16364 SI SI1 16364 1.100000 28.08600
16365 SI 16365 SI SI1 16365 1.100000 28.08600
16366 SI 16366 SI SI1 16366 1.100000 28.08600
16367 SI 16367 SI SI1 16367 1.100000 28.08600
16368 SI 16368 SI SI1 16368 1.100000 28.08600
16369 SI 16369 SI SI1 16369 1.100000 28.08600
16370 SI 16370 SI SI1 16370 1.100000 28.08600
16371 SI 16371 SI SI1 16371 1.100000 28.08600
16372 SI 16372 SI SI1 16372 1.100000 28.08600
16373 SI 16373 SI SI1 16373 1.100000 28.08600
16374 SI 16374 SI SI1 16374 1.100000 28.08600
16375 SI 16375 SI SI1 16375 1.100000 28.08600
16376 SI 16376 SI SI1 16376 1.100000 28.08600
16377 SI 16377 SI SI1 16377 1.100000 28.08600
16378 SI 16378 SI SI1 16378 1.100000 28.08600
16379 SI 16379 SI SI1 16379 1.100000 28.08600
16380 SI 16380 SI SI1 16380 1.100000 28.08600
16381 SI 16381 SI SI1 16381 1.100000 28.08600
16382 SI 16382 SI SI1 16382 1.100000 28.08600
16383 SI 16383 SI SI1 16383 1.100000 28.08600
16384 SI 16384 SI SI1 16384 1.100000 28.08600
16385 SI 16385 SI SI1 16385 1.100000 28.08600
16386 SI 16386 SI SI1 16386 1.100000 28.08600
16387 SI 16387 SI SI1 16387 1.100000 28.08600
16388 SI 16388 SI SI1 16388 1.100000 28.08600
16389 SI 16389 SI SI1 16389 1.100000 28.08600
16390 SI 16390 SI SI1 16390 1.100000 28.08600
16391 SI 16391 SI SI1 16391 1.100000 28.08600
16392 SI 16392 SI SI1 16392 1.100000 28.08600
16393 SI 16393 SI SI1 16393 1.100000 28.08600
16394 SI 16394 SI SI1 16394 1.100000 28.08600
16395 SI 16395 SI SI1 16395 1.100000 28.08600
16396 SI 16396 SI SI1 16396 1.100000 28.08600
16397 SI 16397 SI SI1 16397 1.100000 28.08600
16398 SI 16398 SI SI1 16398 1.100000 28.08600
16399 SI 16399 SI SI1 16399 1.100000 28.08600
16400 SI 16400 SI SI1 16400 1.100000 28.08600
16401 SI 16401 SI SI1 16401 1.100000 28.08600
16402 SI 16402 SI SI1 16402 1.100000 28.08600
16403 SI 16403 SI SI1 16403 1.100000 28.08600
16404 SI 16404 SI SI1 16404 1.100000 28.08600
16405 SI 16405 SI SI1 16405 1.100000 28.08600
16406 SI 16406 SI SI1 16406 1.100000 28.08600
16407 SI 16407 SI SI1 16407 1.100000 28.08600
16408 SI 16408 SI SI1 16408 1.100000 28.08600
16409 SI 16409 SI SI1 16409 1.100000 28.08600
16410 SI 16410 SI SI1 16410 1.100000 28.08600
16411 SI 16411 SI SI1 16411 1.100000 28.08600
16412 SI 16412 SI SI1 16412 1.100000 28.08600
16413 SI 16413 SI SI1 16413 1.100000 28.08600
16414 SI 16414 SI SI1 16414 1.100000 28.08600
16415 SI 16415 SI SI1 16415 1.100000 28.08600
16416 SI 16416 SI SI1 16416 1.100000 28.08600
16417 SI 16417 SI SI1 16417 1.100000 28.08600
16418 SI 16418 SI SI1 16418 1.100000 28.08600
16419 SI 16419 SI SI1 16419 1.100000 28.08600
16420 SI 16420 SI SI1 16420 1.100000 28.08600
16421 SI 16421 SI SI1 16421 1.100000 28.08600
16422 SI 16422 SI SI1 16422 1.100000 28.08600
16423 SI 16423 SI SI1 16423 1.100000 28.08600
16424 SI 16424 SI SI1 16424 1.100000 28.08600
16425 SI 16425 SI SI1 16425 1.100000 28.08600
16426 SI 16426 SI SI1 16426 1.100000 28.08600
16427 SI 16427 SI SI1 16427 1.100000 28.08600
16428 SI 16428 SI SI1 16428 1.100000 28.08600
16429 SI 16429 SI SI1 16429 1.100000 28.08600
16430 SI 16430 SI SI1 16430 1.100000 28.08600
16431 SI 16431 SI SI1 16431 1.100000 28.08600
16432 SI 16432 SI SI1 16432 1.100000 28.08600
16433 SI 16433 SI SI1 16433 1.100000 28.08600
16434 SI 16434 SI SI1 16434 1.100000 28.08600
16435 SI 16435 SI SI1 16435 1.100000 28.08600
16436 SI 16436 SI SI1 16436 1.100000 28.08600
16437 SI 16437 SI SI1 16437 1.100000 28.08600
16438 SI 16438 SI SI1 16438 1.100000 28.08600
16439 SI 16439 SI SI1 16439 1.100000 28.08600
16440 SI 16440 SI SI1 16440 1.100000 28.08600
16441 SI 16441 SI SI1 16441 1.100000 28.08600
16442 SI 16442 SI SI1 16442 1.100000 28.08600
16443 SI 16443 SI SI1 16443 1.100000 28.08600
16444 SI 16444 SI SI1 16444 1.100000 28.08600
16445 SI 16445 SI SI1 16445 1.100000 28.08600
16446 SI 16446 SI SI1 16446 1.100000 28.08600
16447 SI 16447 SI SI1 16447 1.100000 28.08600
16448 SI 16448 SI SI1 16448 1.100000 28.08600
16449 SI 16449 SI SI1 16449 1.100000 28.08600
16450 SI 16450 SI SI1 16450 1.100000 28.08600
16451 SI 16451 SI SI1 16451 1.100000 28.08600
16452 SI 16452 SI SI1 16452 1.100000 28.08600
16453 SI 16453 SI SI1 16453 1.100000 28.08600
16454 SI 16454 SI SI1 16454 1.100000 28.08600
16455 SI 16455 SI SI1 16455 1.100000 28.08600
16456 SI 16456 SI SI1 16456 1.100000 28.08600
16457 SI 16457 SI SI1 16457 1.100000 28.08600
16458 SI 16458 SI SI1 16458 1.100000 28.08600
16459 SI 16459 SI SI1 16459 1.100000 28.08600
16460 SI 16460 SI SI1 16460 1.100000 28.08600
16461 SI 16461 SI SI1 16461 1.100000 28.08600
16462 SI 16462 SI SI1 16462 1.100000 28.08600
16463 SI 16463 SI SI1 16463 1.100000 28.08600
16464 SI 16464 SI SI1 16464 1.100000 28.08600
16465 SI 16465 SI SI1 16465 1.100000 28.08600
16466 SI 16466 SI SI1 16466 1.100000 28.08600
16467 SI 16467 SI SI1 16467 1.100000 28.08600
16468 SI 16468 SI SI1 16468 1.100000 28.08600
16469 SI 16469 SI SI1 16469 1.100000 28.08600
16470 SI 16470 SI SI1 16470 1.100000 28.08600
16471 SI 16471 SI SI1 16471 1.100000 28.08600
16472 SI 16472 SI SI1 16472 1.100000 28.08600
16473 SI 16473 SI SI1 16473 1.100000 28.08600
16474 SI 16474 SI SI1 16474 1.100000 28.08600
16475 SI 16475 SI SI1 16475 1.100000 28.08600
16476 SI 16476 SI SI1 16476 1.100000 28.08600
16477 SI 16477 SI SI1 16477 1.100000 28.08600
16478 SI 16478 SI SI1 16478 1.100000 28.08600
16479 SI 16479 SI SI1 16479 1.100000 28.08600
16480 SI 16480 SI SI1 16480 1.100000 28.08600
16481 SI 16481 SI SI1 16481 1.100000 28.08600
16482 SI 16482 SI SI1 16482 1.100000 28.08600
16483 SI 16483 SI SI1 16483 1.100000 28.08600
16484 SI 16484 SI SI1 16484 1.100000 28.08600
16485 SI 16485 SI SI1 16485 1.100000 28.08600
16486 SI 16486 SI SI1 16486 1.100000 28.08600
16487 SI 16487 SI SI1 16487 1.100000 28.08600
16488 SI 16488 SI SI1 16488 1.100000 28.08600
16489 SI 16489 SI SI1 16489 1.100000 28.08600
16490 SI 16490 SI SI1 16490 1.100000 28.08600
16491 SI 16491 SI SI1 16491 1.100000 28.08600
16492 SI 16492 SI SI1 16492 1.100000 28.08600
16493 SI 16493 SI SI1 16493 1.100000 28.08600
16494 SI 16494 SI SI1 16494 1.100000 28.08600
16495 SI 16495 SI SI1 16495 1.100000 28.08600
16496 SI 16496 SI SI1 16496 1.100000 28.08600
16497 SI 16497 SI SI1 16497 1.100000 28.08600
16498 SI 16498 SI SI1 16498 1.100000 28.08600
16499 SI 16499 SI SI1 16499 1.100000 28.08600
16500 SI 16500 SI SI1 16500 1.100000 28.08600
16501 SI 16501 SI SI1 16501 1.100000 28.08600
16502 SI 16502 SI SI1 16502 1.100000 28.08600
16503 SI 16503 SI SI1 16503 1.100000 28.08600
16504 SI 16504 SI SI1 16504 1.100000 28.08600
16505 SI 16505 SI SI1 16505 1.100000 28.08600
16506 SI 16506 SI SI1 16506 1.100000 28.08600
16507 SI 16507 SI SI1 16507 1.100000 28.08600
16508 SI 16508 SI SI1 16508 1.100000 28.08600
16509 SI 16509 SI SI1 16509 1.100000 28.08600
16510 SI 16510 SI SI1 16510 1.100000 28.08600
16511 SI 16511 SI SI1 16511 1.100000 28.08600
16512 SI 16512 SI SI1 16512 1.100000 28.08600
16513 SI 16513 SI SI1 16513 1.100000 28.08600
16514 SI 16514 SI SI1 16514 1.100000 28.08600
16515 SI 16515 SI SI1 16515 1.100000 28.08600
16516 SI 16516 SI SI1 16516 1.100000 28.08600
16517 SI 16517 SI SI1 16517 1.100000 28.08600
16518 SI 16518 SI SI1 16518 1.100000 28.08600
16519 SI 16519 SI SI1 16519 1.100000 28.08600
16520 SI 16520 SI SI1 16520 1.100000 28.08600
16521 SI 16521 SI SI1 16521 1.100000 28.08600
16522 SI 16522 SI SI1 16522 1.100000 28.08600
16523 SI 16523 SI SI1 16523 1.100000 28.08600
16524 SI 16524 SI SI1 16524 1.100000 28.08600
16525 SI 16525 SI SI1 16525 1.100000 28.08600
16526 SI 16526 SI SI1 16526 1.100000 28.08600
16527 SI 16527 SI SI1 16527 1.100000 28.08600
16528 SI 16528 SI SI1 16528 1.100000 28.08600
16529 SI 16529 SI SI1 16529 1.100000 28.08600
16530 SI 16530 SI SI1 16530 1.100000 28.08600
16531 SI 16531 SI SI1 16531 1.100000 28.08600
16532 SI 16532 SI SI1 16532 1.100000 28.08600
16533 SI 16533 SI SI1 16533 1.100000 28.08600
16534 SI 16534 SI SI1 16534 1.100000 28.08600
16535 SI 16535 SI SI1 16535 1.100000 28.08600
16536 SI 16536 SI SI1 16536 1.100000 28.08600
16537 SI 16537 SI SI1 16537 1.100000 28.08600
16538 SI 16538 SI SI1 16538 1.100000 28.08600
16539 SI 16539 SI SI1 16539 1.100000 28.08600
16540 SI 16540 SI SI1 16540 1.100000 28.08600
16541 SI 16541 SI SI1 16541 1.100000 28.08600
16542 SI 16542 SI SI1 16542 1.100000 28.08600
16543 SI 16543 SI SI1 16543 1.100000 28.08600
16544 SI 16544 SI SI1 16544 1.100000 28.08600
16545 SI 16545 SI SI1 16545 1.100000 28.08600
16546 SI 16546 SI SI1 16546 1.100000 28.08600
16547 SI 16547 SI SI1 16547 1.100000 28.08600
16548 SI 16548 SI SI1 16548 1.100000 28.08600
16549 SI 16549 SI SI1 16549 1.100000 28.08600
16550 SI 16550 SI SI1 16550 1.100000 28.08600
16551 SI 16551 SI SI1 16551 1.100000 28.08600
16552 SI 16552 SI SI1 16552 1.100000 28.08600
16553 SI 16553 SI SI1 16553 1.100000 28.08600
16554 SI 16554 SI SI1 16554 1.100000 28.08600
16555 SI 16555 SI SI1 16555 1.100000 28.08600
16556 SI 16556 SI SI1 16556 1.100000 28.08600
16557 SI 16557 SI SI1 16557 1.100000 28.08600
16558 SI 16558 SI SI1 16558 1.100000 28.08600
16559 SI 16559 SI SI1 16559 1.100000 28.08600
16560 SI 16560 SI SI1 16560 1.100000 28.08600
16561 SI 16561 SI SI1 16561 1.100000 28.08600
16562 SI 16562 SI SI1 16562 1.100000 28.08600
16563 SI 16563 SI SI1 16563 1.100000 28.08600
16564 SI 16564 SI SI1 16564 1.100000 28.08600
16565 SI 16565 SI SI1 16565 1.100000 28.08600
16566 SI 16566 SI SI1 16566 1.100000 28.08600
16567 SI 16567 SI SI1 16567 1.100000 28.08600
16568 SI 16568 SI SI1 16568 1.100000 28.08600
16569 SI 16569 SI SI1 16569 1.100000 28.08600
16570 SI 16570 SI SI1 16570 1.100000 28.08600
16571 SI 16571 SI SI1 16571 1.100000 28.08600
16572 SI 16572 SI SI1 16572 1.100000 28.08600
16573 SI 16573 SI SI1 16573 1.100000 28.08600
16574 SI 16574 SI SI1 16574 1.100000 28.08600
16575 SI 16575 SI SI1 16575 1.100000 28.08600
16576 SI 16576 SI SI1 16576 1.100000 28.08600
16577 SI 16577 SI SI1 16577 1.100000 28.08600
16578 SI 16578 SI SI1 16578 1.100000 28.08600
16579 SI 16579 SI SI1 16579 1.100000 28.08600
16580 SI 16580 SI SI1 16580 1.100000 28.08600
16581 SI 16581 SI SI1 16581 1.100000 28.08600
16582 SI 16582 SI SI1 16582 1.100000 28.08600
16583 SI 16583 SI SI1 16583 1.100000 28.08600
16584 SI 16584 SI SI1 16584 1.100000 28.08600
16585 SI 16585 SI SI1 16585 1.100000 28.08600
16586 SI 16586 SI SI1 16586 1.100000 28.08600
16587 SI 16587 SI SI1 16587 1.100000 28.08600
16588 SI 16588 SI SI1 16588 1.100000 28.08600
16589 SI 16589 SI SI1 16589 1.100000 28.08600
16590 SI 16590 SI SI1 16590 1.100000 28.08600
16591 SI 16591 SI SI1 16591 1.100000 28.08600
16592 SI 16592 SI SI1 16592 1.100000 28.08600
16593 SI 16593 SI SI1 16593 1.100000 28.08600
16594 SI 16594 SI SI1 16594 1.100000 28.08600
16595 SI 16595 SI SI1 16595 1.100000 28.08600
16596 SI 16596 SI SI1 16596 1.100000 28.08600
16597 SI 16597 SI SI1 16597 1.100000 28.08600
16598 SI 16598 SI SI1 16598 1.100000 28.08600
16599 SI 16599 SI SI1 16599 1.100000 28.08600
16600 SI 16600 SI SI1 16600 1.100000 28.08600
16601 SI 16601 SI SI1 16601 1.100000 28.08600
16602 SI 16602 SI SI1 16602 1.100000 28.08600
16603 SI 16603 SI SI1 16603 1.100000 28.08600
16604 SI 16604 SI SI1 16604 1.100000 28.08600
16605 SI 16605 SI SI1 16605 1.100000 28.08600
16606 SI 16606 SI SI1 16606 1.100000 28.08600
16607 SI 16607 SI SI1 16607 1.100000 28.08600
16608 SI 16608 SI SI1 16608 1.100000 28.08600
16609 SI 16609 SI SI1 16609 1.100000 28.08600
16610 SI 16610 SI SI1 16610 1.100000 28.08600
16611 SI 16611 SI SI1 16611 1.100000 28.08600
16612 SI 16612 SI SI1 16612 1.100000 28.08600
16613 SI 16613 SI SI1 16613 1.100000 28.08600
16614 SI 16614 SI SI1 16614 1.100000 28.08600
16615 SI 16615 SI SI1 16615 1.100000 28.08600
16616 SI 16616 SI SI1 16616 1.100000 28.08600
16617 SI 16617 SI SI1 16617 1.100000 28.08600
16618 SI 16618 SI SI1 16618 1.100000 28.08600
16619 SI 16619 SI SI1 16619 1.100000 28.08600
16620 SI 16620 SI SI1 16620 1.100000 28.08600
16621 SI 16621 SI SI1 16621 1.100000 28.08600
16622 SI 16622 SI SI1 16622 1.100000 28.08600
16623 SI 16623 SI SI1 16623 1.100000 28.08600
16624 SI 16624 SI SI1 16624 1.100000 28.08600
16625 SI 16625 SI SI1 16625 1.100000 28.08600
16626 SI 16626 SI SI1 16626 1.100000 28.08600
16627 SI 16627 SI SI1 16627 1.100000 28.08600
16628 SI 16628 SI SI1 16628 1.100000 28.08600
16629 SI 16629 SI SI1 16629 1.100000 28.08600
16630 SI 16630 SI SI1 16630 1.100000 28.08600
16631 SI 16631 SI SI1 16631 1.100000 28.08600
16632 SI 16632 SI SI1 16632 1.100000 28.08600
16633 SI 16633 SI SI1 16633 1.100000 28.08600
16634 SI 16634 SI SI1 16634 1.100000 28.08600
16635 SI 16635 SI SI1 16635 1.100000 28.08600
16636 SI 16636 SI SI1 16636 1.100000 28.08600
16637 SI 16637 SI SI1 16637 1.100000 28.08600
16638 SI 16638 SI SI1 16638 1.100000 28.08600
16639 SI 16639 SI SI1 16639 1.100000 28.08600
16640 SI 16640 SI SI1 16640 1.100000 28.08600
16641 SI 16641 SI SI1 16641 1.100000 28.08600
16642 SI 16642 SI SI1 16642 1.100000 28.08600
16643 SI 16643 SI SI1 16643 1.100000 28.08600
16644 SI 16644 SI SI1 16644 1.100000 28.08600
16645 SI 16645 SI SI1 16645 1.100000 28.08600
16646 SI 16646 SI SI1 16646 1.100000 28.08600
16647 SI 16647 SI SI1 16647 1.100000 28.08600
16648 SI 16648 SI SI1 16648 1.100000 28.08600
16649 SI 16649 SI SI1 16649 1.100000 28.08600
16650 SI 16650 SI SI1 16650 1.100000 28.08600
16651 SI 16651 SI SI1 16651 1.100000 28.08600
16652 SI 16652 SI SI1 16652 1.100000 28.08600
16653 SI 16653 SI SI1 16653 1.100000 28.08600
16654 SI 16654 SI SI1 16654 1.100000 28.08600
16655 SI 16655 SI SI1 16655 1.100000 28.08600
16656 SI 16656 SI SI1 16656 1.100000 28.08600
16657 SI 16657 SI SI1 16657 1.100000 28.08600
16658 SI 16658 SI SI1 16658 1.100000 28.08600
16659 SI 16659 SI SI1 16659 1.100000 28.08600
16660 SI 16660 SI SI1 16660 1.100000 28.08600
16661 SI 16661 SI SI1 16661 1.100000 28.08600
16662 SI 16662 SI SI1 16662 1.100000 28.08600
16663 SI 16663 SI SI1 16663 1.100000 28.08600
16664 SI 16664 SI SI1 16664 1.100000 28.08600
16665 SI 16665 SI SI1 16665 1.100000 28.08600
16666 SI 16666 SI SI1 16666 1.100000 28.08600
16667 SI 16667 SI SI1 16667 1.100000 28.08600
16668 SI 16668 SI SI1 16668 1.100000 28.08600
16669 SI 16669 SI SI1 16669 1.100000 28.08600
16670 SI 16670 SI SI1 16670 1.100000 28.08600
16671 SI 16671 SI SI1 16671 1.100000 28.08600
16672 SI 16672 SI SI1 16672 1.100000 28.08600
16673 SI 16673 SI SI1 16673 1.100000 28.08600
16674 SI 16674 SI SI1 16674 1.100000 28.08600
16675 SI 16675 SI SI1 16675 1.100000 28.08600
16676 SI 16676 SI SI1 16676 1.100000 28.08600
16677 SI 16677 SI SI1 16677 1.100000 28.08600
16678 SI 16678 SI SI1 16678 1.100000 28.08600
16679 SI 16679 SI SI1 16679 1.100000 28.08600
16680 SI 16680 SI SI1 16680 1.100000 28.08600
16681 SI 16681 SI SI1 16681 1.100000 28.08600
16682 SI 16682 SI SI1 16682 1.100000 28.08600
16683 SI 16683 SI SI1 16683 1.100000 28.08600
16684 SI 16684 SI SI1 16684 1.100000 28.08600
16685 SI 16685 SI SI1 16685 1.100000 28.08600
16686 SI 16686 SI SI1 16686 1.100000 28.08600
16687 SI 16687 SI SI1 16687 1.100000 28.08600
16688 SI 16688 SI SI1 16688 1.100000 28.08600
16689 SI 16689 SI SI1 16689 1.100000 28.08600
16690 SI 16690 SI SI1 16690 1.100000 28.08600
16691 SI 16691 SI SI1 16691 1.100000 28.08600
16692 SI 16692 SI SI1 16692 1.100000 28.08600
16693 SI 16693 SI SI1 16693 1.100000 28.08600
16694 SI 16694 SI SI1 16694 1.100000 28.08600
16695 SI 16695 SI SI1 16695 1.100000 28.08600
16696 SI 16696 SI SI1 16696 1.100000 28.08600
16697 ha 16697 TPSG HA2 16697 0.1332 1.008000
16698 ca 16697 TPSG CA2 16698 -0.0753 12.010000
16699 ca 16697 TPSG CA1 16699 -0.361 12.010000
16700 si 16697 TPSG Si 16700 1.1 28.085000
16701 ca 16697 TPSG CA6 16701 -0.0753 12.010000
16702 ha 16697 TPSG HH6 16702 0.1332 1.008000
16703 ca 16697 TPSG CA5 16703 -0.1548 12.010000
16704 ha 16697 TPSG HA5 16704 0.1282 1.008000
16705 ca 16697 TPSG CA4 16705 -0.1028 12.010000
16706 ha 16697 TPSG HA4 16706 0.1262 1.008000
16707 ca 16697 TPSG CA3 16707 -0.1548 12.010000
16708 ha 16697 TPSG HA3 16708 0.1282 1.008000
16709 OA 16697 TPSG O1 16709 -0.675000 15.99940
16710 HG 16697 TPSG H6 16710 0.400000 2.01600
16711 ha 16698 TPSG HA2 16711 0.1332 1.008000
16712 ca 16698 TPSG CA2 16712 -0.0753 12.010000
16713 ca 16698 TPSG CA1 16713 -0.361 12.010000
16714 si 16698 TPSG Si 16714 1.1 28.085000
16715 ca 16698 TPSG CA6 16715 -0.0753 12.010000
16716 ha 16698 TPSG HH6 16716 0.1332 1.008000
16717 ca 16698 TPSG CA5 16717 -0.1548 12.010000
16718 ha 16698 TPSG HA5 16718 0.1282 1.008000
16719 ca 16698 TPSG CA4 16719 -0.1028 12.010000
16720 ha 16698 TPSG HA4 16720 0.1262 1.008000
16721 ca 16698 TPSG CA3 16721 -0.1548 12.010000
16722 ha 16698 TPSG HA3 16722 0.1282 1.008000
16723 OA 16698 TPSG O1 16723 -0.675000 15.99940
16724 HG 16698 TPSG H6 16724 0.400000 2.01600
16725 ha 16699 TPSG HA2 16725 0.1332 1.008000
16726 ca 16699 TPSG CA2 16726 -0.0753 12.010000
16727 ca 16699 TPSG CA1 16727 -0.361 12.010000
16728 si 16699 TPSG Si 16728 1.1 28.085000
16729 ca 16699 TPSG CA6 16729 -0.0753 12.010000
16730 ha 16699 TPSG HH6 16730 0.1332 1.008000
16731 ca 16699 TPSG CA5 16731 -0.1548 12.010000
16732 ha 16699 TPSG HA5 16732 0.1282 1.008000
16733 ca 16699 TPSG CA4 16733 -0.1028 12.010000
16734 ha 16699 TPSG HA4 16734 0.1262 1.008000
16735 ca 16699 TPSG CA3 16735 -0.1548 12.010000
16736 ha 16699 TPSG HA3 16736 0.1282 1.008000
16737 OA 16699 TPSG O1 16737 -0.675000 15.99940
16738 HG 16699 TPSG H6 16738 0.400000 2.01600
16739 ha 16700 TPSG HA2 16739 0.1332 1.008000
16740 ca 16700 TPSG CA2 16740 -0.0753 12.010000
16741 ca 16700 TPSG CA1 16741 -0.361 12.010000
16742 si 16700 TPSG Si 16742 1.1 28.085000
16743 ca 16700 TPSG CA6 16743 -0.0753 12.010000
16744 ha 16700 TPSG HH6 16744 0.1332 1.008000
16745 ca 16700 TPSG CA5 16745 -0.1548 12.010000
16746 ha 16700 TPSG HA5 16746 0.1282 1.008000
16747 ca 16700 TPSG CA4 16747 -0.1028 12.010000
16748 ha 16700 TPSG HA4 16748 0.1262 1.008000
16749 ca 16700 TPSG CA3 16749 -0.1548 12.010000
16750 ha 16700 TPSG HA3 16750 0.1282 1.008000
16751 OA 16700 TPSG O1 16751 -0.675000 15.99940
16752 HG 16700 TPSG H6 16752 0.400000 2.01600
16753 ha 16701 TPSG HA2 16753 0.1332 1.008000
16754 ca 16701 TPSG CA2 16754 -0.0753 12.010000
16755 ca 16701 TPSG CA1 16755 -0.361 12.010000
16756 si 16701 TPSG Si 16756 1.1 28.085000
16757 ca 16701 TPSG CA6 16757 -0.0753 12.010000
16758 ha 16701 TPSG HH6 16758 0.1332 1.008000
16759 ca 16701 TPSG CA5 16759 -0.1548 12.010000
16760 ha 16701 TPSG HA5 16760 0.1282 1.008000
16761 ca 16701 TPSG CA4 16761 -0.1028 12.010000
16762 ha 16701 TPSG HA4 16762 0.1262 1.008000
16763 ca 16701 TPSG CA3 16763 -0.1548 12.010000
16764 ha 16701 TPSG HA3 16764 0.1282 1.008000
16765 OA 16701 TPSG O1 16765 -0.675000 15.99940
16766 HG 16701 TPSG H6 16766 0.400000 2.01600
16767 ha 16702 TPSG HA2 16767 0.1332 1.008000
16768 ca 16702 TPSG CA2 16768 -0.0753 12.010000
16769 ca 16702 TPSG CA1 16769 -0.361 12.010000
16770 si 16702 TPSG Si 16770 1.1 28.085000
16771 ca 16702 TPSG CA6 16771 -0.0753 12.010000
16772 ha 16702 TPSG HH6 16772 0.1332 1.008000
16773 ca 16702 TPSG CA5 16773 -0.1548 12.010000
16774 ha 16702 TPSG HA5 16774 0.1282 1.008000
16775 ca 16702 TPSG CA4 16775 -0.1028 12.010000
16776 ha 16702 TPSG HA4 16776 0.1262 1.008000
16777 ca 16702 TPSG CA3 16777 -0.1548 12.010000
16778 ha 16702 TPSG HA3 16778 0.1282 1.008000
16779 OA 16702 TPSG O1 16779 -0.675000 15.99940
16780 HG 16702 TPSG H6 16780 0.400000 2.01600
16781 ha 16703 TPSG HA2 16781 0.1332 1.008000
16782 ca 16703 TPSG CA2 16782 -0.0753 12.010000
16783 ca 16703 TPSG CA1 16783 -0.361 12.010000
16784 si 16703 TPSG Si 16784 1.1 28.085000
16785 ca 16703 TPSG CA6 16785 -0.0753 12.010000
16786 ha 16703 TPSG HH6 16786 0.1332 1.008000
16787 ca 16703 TPSG CA5 16787 -0.1548 12.010000
16788 ha 16703 TPSG HA5 16788 0.1282 1.008000
16789 ca 16703 TPSG CA4 16789 -0.1028 12.010000
16790 ha 16703 TPSG HA4 16790 0.1262 1.008000
16791 ca 16703 TPSG CA3 16791 -0.1548 12.010000
16792 ha 16703 TPSG HA3 16792 0.1282 1.008000
16793 OA 16703 TPSG O1 16793 -0.675000 15.99940
16794 HG 16703 TPSG H6 16794 0.400000 2.01600
16795 ha 16704 TPSG HA2 16795 0.1332 1.008000
16796 ca 16704 TPSG CA2 16796 -0.0753 12.010000
16797 ca 16704 TPSG CA1 16797 -0.361 12.010000
16798 si 16704 TPSG Si 16798 1.1 28.085000
16799 ca 16704 TPSG CA6 16799 -0.0753 12.010000
16800 ha 16704 TPSG HH6 16800 0.1332 1.008000
16801 ca 16704 TPSG CA5 16801 -0.1548 12.010000
16802 ha 16704 TPSG HA5 16802 0.1282 1.008000
16803 ca 16704 TPSG CA4 16803 -0.1028 12.010000
16804 ha 16704 TPSG HA4 16804 0.1262 1.008000
16805 ca 16704 TPSG CA3 16805 -0.1548 12.010000
16806 ha 16704 TPSG HA3 16806 0.1282 1.008000
16807 OA 16704 TPSG O1 16807 -0.675000 15.99940
16808 HG 16704 TPSG H6 16808 0.400000 2.01600
16809 ha 16705 TPSG HA2 16809 0.1332 1.008000
16810 ca 16705 TPSG CA2 16810 -0.0753 12.010000
16811 ca 16705 TPSG CA1 16811 -0.361 12.010000
16812 si 16705 TPSG Si 16812 1.1 28.085000
16813 ca 16705 TPSG CA6 16813 -0.0753 12.010000
16814 ha 16705 TPSG HH6 16814 0.1332 1.008000
16815 ca 16705 TPSG CA5 16815 -0.1548 12.010000
16816 ha 16705 TPSG HA5 16816 0.1282 1.008000
16817 ca 16705 TPSG CA4 16817 -0.1028 12.010000
16818 ha 16705 TPSG HA4 16818 0.1262 1.008000
16819 ca 16705 TPSG CA3 16819 -0.1548 12.010000
16820 ha 16705 TPSG HA3 16820 0.1282 1.008000
16821 OA 16705 TPSG O1 16821 -0.675000 15.99940
16822 HG 16705 TPSG H6 16822 0.400000 2.01600
16823 ha 16706 TPSG HA2 16823 0.1332 1.008000
16824 ca 16706 TPSG CA2 16824 -0.0753 12.010000
16825 ca 16706 TPSG CA1 16825 -0.361 12.010000
16826 si 16706 TPSG Si 16826 1.1 28.085000
16827 ca 16706 TPSG CA6 16827 -0.0753 12.010000
16828 ha 16706 TPSG HH6 16828 0.1332 1.008000
16829 ca 16706 TPSG CA5 16829 -0.1548 12.010000
16830 ha 16706 TPSG HA5 16830 0.1282 1.008000
16831 ca 16706 TPSG CA4 16831 -0.1028 12.010000
16832 ha 16706 TPSG HA4 16832 0.1262 1.008000
16833 ca 16706 TPSG CA3 16833 -0.1548 12.010000
16834 ha 16706 TPSG HA3 16834 0.1282 1.008000
16835 OA 16706 TPSG O1 16835 -0.675000 15.99940
16836 HG 16706 TPSG H6 16836 0.400000 2.01600
16837 ha 16707 TPSG HA2 16837 0.1332 1.008000
16838 ca 16707 TPSG CA2 16838 -0.0753 12.010000
16839 ca 16707 TPSG CA1 16839 -0.361 12.010000
16840 si 16707 TPSG Si 16840 1.1 28.085000
16841 ca 16707 TPSG CA6 16841 -0.0753 12.010000
16842 ha 16707 TPSG HH6 16842 0.1332 1.008000
16843 ca 16707 TPSG CA5 16843 -0.1548 12.010000
16844 ha 16707 TPSG HA5 16844 0.1282 1.008000
16845 ca 16707 TPSG CA4 16845 -0.1028 12.010000
16846 ha 16707 TPSG HA4 16846 0.1262 1.008000
16847 ca 16707 TPSG CA3 16847 -0.1548 12.010000
16848 ha 16707 TPSG HA3 16848 0.1282 1.008000
16849 OA 16707 TPSG O1 16849 -0.675000 15.99940
16850 HG 16707 TPSG H6 16850 0.400000 2.01600
16851 ha 16708 TPSG HA2 16851 0.1332 1.008000
16852 ca 16708 TPSG CA2 16852 -0.0753 12.010000
16853 ca 16708 TPSG CA1 16853 -0.361 12.010000
16854 si 16708 TPSG Si 16854 1.1 28.085000
16855 ca 16708 TPSG CA6 16855 -0.0753 12.010000
16856 ha 16708 TPSG HH6 16856 0.1332 1.008000
16857 ca 16708 TPSG CA5 16857 -0.1548 12.010000
16858 ha 16708 TPSG HA5 16858 0.1282 1.008000
16859 ca 16708 TPSG CA4 16859 -0.1028 12.010000
16860 ha 16708 TPSG HA4 16860 0.1262 1.008000
16861 ca 16708 TPSG CA3 16861 -0.1548 12.010000
16862 ha 16708 TPSG HA3 16862 0.1282 1.008000
16863 OA 16708 TPSG O1 16863 -0.675000 15.99940
16864 HG 16708 TPSG H6 16864 0.400000 2.01600
16865 ha 16709 TPSG HA2 16865 0.1332 1.008000
16866 ca 16709 TPSG CA2 16866 -0.0753 12.010000
16867 ca 16709 TPSG CA1 16867 -0.361 12.010000
16868 si 16709 TPSG Si 16868 1.1 28.085000
16869 ca 16709 TPSG CA6 16869 -0.0753 12.010000
16870 ha 16709 TPSG HH6 16870 0.1332 1.008000
16871 ca 16709 TPSG CA5 16871 -0.1548 12.010000
16872 ha 16709 TPSG HA5 16872 0.1282 1.008000
16873 ca 16709 TPSG CA4 16873 -0.1028 12.010000
16874 ha 16709 TPSG HA4 16874 0.1262 1.008000
16875 ca 16709 TPSG CA3 16875 -0.1548 12.010000
16876 ha 16709 TPSG HA3 16876 0.1282 1.008000
16877 OA 16709 TPSG O1 16877 -0.675000 15.99940
16878 HG 16709 TPSG H6 16878 0.400000 2.01600
16879 ha 16710 TPSG HA2 16879 0.1332 1.008000
16880 ca 16710 TPSG CA2 16880 -0.0753 12.010000
16881 ca 16710 TPSG CA1 16881 -0.361 12.010000
16882 si 16710 TPSG Si 16882 1.1 28.085000
16883 ca 16710 TPSG CA6 16883 -0.0753 12.010000
16884 ha 16710 TPSG HH6 16884 0.1332 1.008000
16885 ca 16710 TPSG CA5 16885 -0.1548 12.010000
16886 ha 16710 TPSG HA5 16886 0.1282 1.008000
16887 ca 16710 TPSG CA4 16887 -0.1028 12.010000
16888 ha 16710 TPSG HA4 16888 0.1262 1.008000
16889 ca 16710 TPSG CA3 16889 -0.1548 12.010000
16890 ha 16710 TPSG HA3 16890 0.1282 1.008000
16891 OA 16710 TPSG O1 16891 -0.675000 15.99940
16892 HG 16710 TPSG H6 16892 0.400000 2.01600
16893 ha 16711 TPSG HA2 16893 0.1332 1.008000
16894 ca 16711 TPSG CA2 16894 -0.0753 12.010000
16895 ca 16711 TPSG CA1 16895 -0.361 12.010000
16896 si 16711 TPSG Si 16896 1.1 28.085000
16897 ca 16711 TPSG CA6 16897 -0.0753 12.010000
16898 ha 16711 TPSG HH6 16898 0.1332 1.008000
16899 ca 16711 TPSG CA5 16899 -0.1548 12.010000
16900 ha 16711 TPSG HA5 16900 0.1282 1.008000
16901 ca 16711 TPSG CA4 16901 -0.1028 12.010000
16902 ha 16711 TPSG HA4 16902 0.1262 1.008000
16903 ca 16711 TPSG CA3 16903 -0.1548 12.010000
16904 ha 16711 TPSG HA3 16904 0.1282 1.008000
16905 OA 16711 TPSG O1 16905 -0.675000 15.99940
16906 HG 16711 TPSG H6 16906 0.400000 2.01600
16907 ha 16712 TPSG HA2 16907 0.1332 1.008000
16908 ca 16712 TPSG CA2 16908 -0.0753 12.010000
16909 ca 16712 TPSG CA1 16909 -0.361 12.010000
16910 si 16712 TPSG Si 16910 1.1 28.085000
16911 ca 16712 TPSG CA6 16911 -0.0753 12.010000
16912 ha 16712 TPSG HH6 16912 0.1332 1.008000
16913 ca 16712 TPSG CA5 16913 -0.1548 12.010000
16914 ha 16712 TPSG HA5 16914 0.1282 1.008000
16915 ca 16712 TPSG CA4 16915 -0.1028 12.010000
16916 ha 16712 TPSG HA4 16916 0.1262 1.008000
16917 ca 16712 TPSG CA3 16917 -0.1548 12.010000
16918 ha 16712 TPSG HA3 16918 0.1282 1.008000
16919 OA 16712 TPSG O1 16919 -0.675000 15.99940
16920 HG 16712 TPSG H6 16920 0.400000 2.01600
16921 ha 16713 TPSG HA2 16921 0.1332 1.008000
16922 ca 16713 TPSG CA2 16922 -0.0753 12.010000
16923 ca 16713 TPSG CA1 16923 -0.361 12.010000
16924 si 16713 TPSG Si 16924 1.1 28.085000
16925 ca 16713 TPSG CA6 16925 -0.0753 12.010000
16926 ha 16713 TPSG HH6 16926 0.1332 1.008000
16927 ca 16713 TPSG CA5 16927 -0.1548 12.010000
16928 ha 16713 TPSG HA5 16928 0.1282 1.008000
16929 ca 16713 TPSG CA4 16929 -0.1028 12.010000
16930 ha 16713 TPSG HA4 16930 0.1262 1.008000
16931 ca 16713 TPSG CA3 16931 -0.1548 12.010000
16932 ha 16713 TPSG HA3 16932 0.1282 1.008000
16933 OA 16713 TPSG O1 16933 -0.675000 15.99940
16934 HG 16713 TPSG H6 16934 0.400000 2.01600
16935 ha 16714 TPSG HA2 16935 0.1332 1.008000
16936 ca 16714 TPSG CA2 16936 -0.0753 12.010000
16937 ca 16714 TPSG CA1 16937 -0.361 12.010000
16938 si 16714 TPSG Si 16938 1.1 28.085000
16939 ca 16714 TPSG CA6 16939 -0.0753 12.010000
16940 ha 16714 TPSG HH6 16940 0.1332 1.008000
16941 ca 16714 TPSG CA5 16941 -0.1548 12.010000
16942 ha 16714 TPSG HA5 16942 0.1282 1.008000
16943 ca 16714 TPSG CA4 16943 -0.1028 12.010000
16944 ha 16714 TPSG HA4 16944 0.1262 1.008000
16945 ca 16714 TPSG CA3 16945 -0.1548 12.010000
16946 ha 16714 TPSG HA3 16946 0.1282 1.008000
16947 OA 16714 TPSG O1 16947 -0.675000 15.99940
16948 HG 16714 TPSG H6 16948 0.400000 2.01600
16949 ha 16715 TPSG HA2 16949 0.1332 1.008000
16950 ca 16715 TPSG CA2 16950 -0.0753 12.010000
16951 ca 16715 TPSG CA1 16951 -0.361 12.010000
16952 si 16715 TPSG Si 16952 1.1 28.085000
16953 ca 16715 TPSG CA6 16953 -0.0753 12.010000
16954 ha 16715 TPSG HH6 16954 0.1332 1.008000
16955 ca 16715 TPSG CA5 16955 -0.1548 12.010000
16956 ha 16715 TPSG HA5 16956 0.1282 1.008000
16957 ca 16715 TPSG CA4 16957 -0.1028 12.010000
16958 ha 16715 TPSG HA4 16958 0.1262 1.008000
16959 ca 16715 TPSG CA3 16959 -0.1548 12.010000
16960 ha 16715 TPSG HA3 16960 0.1282 1.008000
16961 OA 16715 TPSG O1 16961 -0.675000 15.99940
16962 HG 16715 TPSG H6 16962 0.400000 2.01600
16963 ha 16716 TPSG HA2 16963 0.1332 1.008000
16964 ca 16716 TPSG CA2 16964 -0.0753 12.010000
16965 ca 16716 TPSG CA1 16965 -0.361 12.010000
16966 si 16716 TPSG Si 16966 1.1 28.085000
16967 ca 16716 TPSG CA6 16967 -0.0753 12.010000
16968 ha 16716 TPSG HH6 16968 0.1332 1.008000
16969 ca 16716 TPSG CA5 16969 -0.1548 12.010000
16970 ha 16716 TPSG HA5 16970 0.1282 1.008000
16971 ca 16716 TPSG CA4 16971 -0.1028 12.010000
16972 ha 16716 TPSG HA4 16972 0.1262 1.008000
16973 ca 16716 TPSG CA3 16973 -0.1548 12.010000
16974 ha 16716 TPSG HA3 16974 0.1282 1.008000
16975 OA 16716 TPSG O1 16975 -0.675000 15.99940
16976 HG 16716 TPSG H6 16976 0.400000 2.01600
16977 ha 16717 TPSG HA2 16977 0.1332 1.008000
16978 ca 16717 TPSG CA2 16978 -0.0753 12.010000
16979 ca 16717 TPSG CA1 16979 -0.361 12.010000
16980 si 16717 TPSG Si 16980 1.1 28.085000
16981 ca 16717 TPSG CA6 16981 -0.0753 12.010000
16982 ha 16717 TPSG HH6 16982 0.1332 1.008000
16983 ca 16717 TPSG CA5 16983 -0.1548 12.010000
16984 ha 16717 TPSG HA5 16984 0.1282 1.008000
16985 ca 16717 TPSG CA4 16985 -0.1028 12.010000
16986 ha 16717 TPSG HA4 16986 0.1262 1.008000
16987 ca 16717 TPSG CA3 16987 -0.1548 12.010000
16988 ha 16717 TPSG HA3 16988 0.1282 1.008000
16989 OA 16717 TPSG O1 16989 -0.675000 15.99940
16990 HG 16717 TPSG H6 16990 0.400000 2.01600
16991 ha 16718 TPSG HA2 16991 0.1332 1.008000
16992 ca 16718 TPSG CA2 16992 -0.0753 12.010000
16993 ca 16718 TPSG CA1 16993 -0.361 12.010000
16994 si 16718 TPSG Si 16994 1.1 28.085000
16995 ca 16718 TPSG CA6 16995 -0.0753 12.010000
16996 ha 16718 TPSG HH6 16996 0.1332 1.008000
16997 ca 16718 TPSG CA5 16997 -0.1548 12.010000
16998 ha 16718 TPSG HA5 16998 0.1282 1.008000
16999 ca 16718 TPSG CA4 16999 -0.1028 12.010000
17000 ha 16718 TPSG HA4 17000 0.1262 1.008000
17001 ca 16718 TPSG CA3 17001 -0.1548 12.010000
17002 ha 16718 TPSG HA3 17002 0.1282 1.008000
17003 OA 16718 TPSG O1 17003 -0.675000 15.99940
17004 HG 16718 TPSG H6 17004 0.400000 2.01600
17005 ha 16719 TPSG HA2 17005 0.1332 1.008000
17006 ca 16719 TPSG CA2 17006 -0.0753 12.010000
17007 ca 16719 TPSG CA1 17007 -0.361 12.010000
17008 si 16719 TPSG Si 17008 1.1 28.085000
17009 ca 16719 TPSG CA6 17009 -0.0753 12.010000
17010 ha 16719 TPSG HH6 17010 0.1332 1.008000
17011 ca 16719 TPSG CA5 17011 -0.1548 12.010000
17012 ha 16719 TPSG HA5 17012 0.1282 1.008000
17013 ca 16719 TPSG CA4 17013 -0.1028 12.010000
17014 ha 16719 TPSG HA4 17014 0.1262 1.008000
17015 ca 16719 TPSG CA3 17015 -0.1548 12.010000
17016 ha 16719 TPSG HA3 17016 0.1282 1.008000
17017 OA 16719 TPSG O1 17017 -0.675000 15.99940
17018 HG 16719 TPSG H6 17018 0.400000 2.01600
17019 ha 16720 TPSG HA2 17019 0.1332 1.008000
17020 ca 16720 TPSG CA2 17020 -0.0753 12.010000
17021 ca 16720 TPSG CA1 17021 -0.361 12.010000
17022 si 16720 TPSG Si 17022 1.1 28.085000
17023 ca 16720 TPSG CA6 17023 -0.0753 12.010000
17024 ha 16720 TPSG HH6 17024 0.1332 1.008000
17025 ca 16720 TPSG CA5 17025 -0.1548 12.010000
17026 ha 16720 TPSG HA5 17026 0.1282 1.008000
17027 ca 16720 TPSG CA4 17027 -0.1028 12.010000
17028 ha 16720 TPSG HA4 17028 0.1262 1.008000
17029 ca 16720 TPSG CA3 17029 -0.1548 12.010000
17030 ha 16720 TPSG HA3 17030 0.1282 1.008000
17031 OA 16720 TPSG O1 17031 -0.675000 15.99940
17032 HG 16720 TPSG H6 17032 0.400000 2.01600
17033 ha 16721 TPSG HA2 17033 0.1332 1.008000
17034 ca 16721 TPSG CA2 17034 -0.0753 12.010000
17035 ca 16721 TPSG CA1 17035 -0.361 12.010000
17036 si 16721 TPSG Si 17036 1.1 28.085000
17037 ca 16721 TPSG CA6 17037 -0.0753 12.010000
17038 ha 16721 TPSG HH6 17038 0.1332 1.008000
17039 ca 16721 TPSG CA5 17039 -0.1548 12.010000
17040 ha 16721 TPSG HA5 17040 0.1282 1.008000
17041 ca 16721 TPSG CA4 17041 -0.1028 12.010000
17042 ha 16721 TPSG HA4 17042 0.1262 1.008000
17043 ca 16721 TPSG CA3 17043 -0.1548 12.010000
17044 ha 16721 TPSG HA3 17044 0.1282 1.008000
17045 OA 16721 TPSG O1 17045 -0.675000 15.99940
17046 HG 16721 TPSG H6 17046 0.400000 2.01600
17047 ha 16722 TPSG HA2 17047 0.1332 1.008000
17048 ca 16722 TPSG CA2 17048 -0.0753 12.010000
17049 ca 16722 TPSG CA1 17049 -0.361 12.010000
17050 si 16722 TPSG Si 17050 1.1 28.085000
17051 ca 16722 TPSG CA6 17051 -0.0753 12.010000
17052 ha 16722 TPSG HH6 17052 0.1332 1.008000
17053 ca 16722 TPSG CA5 17053 -0.1548 12.010000
17054 ha 16722 TPSG HA5 17054 0.1282 1.008000
17055 ca 16722 TPSG CA4 17055 -0.1028 12.010000
17056 ha 16722 TPSG HA4 17056 0.1262 1.008000
17057 ca 16722 TPSG CA3 17057 -0.1548 12.010000
17058 ha 16722 TPSG HA3 17058 0.1282 1.008000
17059 OA 16722 TPSG O1 17059 -0.675000 15.99940
17060 HG 16722 TPSG H6 17060 0.400000 2.01600
17061 ha 16723 TPSG HA2 17061 0.1332 1.008000
17062 ca 16723 TPSG CA2 17062 -0.0753 12.010000
17063 ca 16723 TPSG CA1 17063 -0.361 12.010000
17064 si 16723 TPSG Si 17064 1.1 28.085000
17065 ca 16723 TPSG CA6 17065 -0.0753 12.010000
17066 ha 16723 TPSG HH6 17066 0.1332 1.008000
17067 ca 16723 TPSG CA5 17067 -0.1548 12.010000
17068 ha 16723 TPSG HA5 17068 0.1282 1.008000
17069 ca 16723 TPSG CA4 17069 -0.1028 12.010000
17070 ha 16723 TPSG HA4 17070 0.1262 1.008000
17071 ca 16723 TPSG CA3 17071 -0.1548 12.010000
17072 ha 16723 TPSG HA3 17072 0.1282 1.008000
17073 OA 16723 TPSG O1 17073 -0.675000 15.99940
17074 HG 16723 TPSG H6 17074 0.400000 2.01600
17075 ha 16724 TPSG HA2 17075 0.1332 1.008000
17076 ca 16724 TPSG CA2 17076 -0.0753 12.010000
17077 ca 16724 TPSG CA1 17077 -0.361 12.010000
17078 si 16724 TPSG Si 17078 1.1 28.085000
17079 ca 16724 TPSG CA6 17079 -0.0753 12.010000
17080 ha 16724 TPSG HH6 17080 0.1332 1.008000
17081 ca 16724 TPSG CA5 17081 -0.1548 12.010000
17082 ha 16724 TPSG HA5 17082 0.1282 1.008000
17083 ca 16724 TPSG CA4 17083 -0.1028 12.010000
17084 ha 16724 TPSG HA4 17084 0.1262 1.008000
17085 ca 16724 TPSG CA3 17085 -0.1548 12.010000
17086 ha 16724 TPSG HA3 17086 0.1282 1.008000
17087 OA 16724 TPSG O1 17087 -0.675000 15.99940
17088 HG 16724 TPSG H6 17088 0.400000 2.01600
17089 ha 16725 TPSG HA2 17089 0.1332 1.008000
17090 ca 16725 TPSG CA2 17090 -0.0753 12.010000
17091 ca 16725 TPSG CA1 17091 -0.361 12.010000
17092 si 16725 TPSG Si 17092 1.1 28.085000
17093 ca 16725 TPSG CA6 17093 -0.0753 12.010000
17094 ha 16725 TPSG HH6 17094 0.1332 1.008000
17095 ca 16725 TPSG CA5 17095 -0.1548 12.010000
17096 ha 16725 TPSG HA5 17096 0.1282 1.008000
17097 ca 16725 TPSG CA4 17097 -0.1028 12.010000
17098 ha 16725 TPSG HA4 17098 0.1262 1.008000
17099 ca 16725 TPSG CA3 17099 -0.1548 12.010000
17100 ha 16725 TPSG HA3 17100 0.1282 1.008000
17101 OA 16725 TPSG O1 17101 -0.675000 15.99940
17102 HG 16725 TPSG H6 17102 0.400000 2.01600
17103 ha 16726 TPSG HA2 17103 0.1332 1.008000
17104 ca 16726 TPSG CA2 17104 -0.0753 12.010000
17105 ca 16726 TPSG CA1 17105 -0.361 12.010000
17106 si 16726 TPSG Si 17106 1.1 28.085000
17107 ca 16726 TPSG CA6 17107 -0.0753 12.010000
17108 ha 16726 TPSG HH6 17108 0.1332 1.008000
17109 ca 16726 TPSG CA5 17109 -0.1548 12.010000
17110 ha 16726 TPSG HA5 17110 0.1282 1.008000
17111 ca 16726 TPSG CA4 17111 -0.1028 12.010000
17112 ha 16726 TPSG HA4 17112 0.1262 1.008000
17113 ca 16726 TPSG CA3 17113 -0.1548 12.010000
17114 ha 16726 TPSG HA3 17114 0.1282 1.008000
17115 OA 16726 TPSG O1 17115 -0.675000 15.99940
17116 HG 16726 TPSG H6 17116 0.400000 2.01600
17117 ha 16727 TPSG HA2 17117 0.1332 1.008000
17118 ca 16727 TPSG CA2 17118 -0.0753 12.010000
17119 ca 16727 TPSG CA1 17119 -0.361 12.010000
17120 si 16727 TPSG Si 17120 1.1 28.085000
17121 ca 16727 TPSG CA6 17121 -0.0753 12.010000
17122 ha 16727 TPSG HH6 17122 0.1332 1.008000
17123 ca 16727 TPSG CA5 17123 -0.1548 12.010000
17124 ha 16727 TPSG HA5 17124 0.1282 1.008000
17125 ca 16727 TPSG CA4 17125 -0.1028 12.010000
17126 ha 16727 TPSG HA4 17126 0.1262 1.008000
17127 ca 16727 TPSG CA3 17127 -0.1548 12.010000
17128 ha 16727 TPSG HA3 17128 0.1282 1.008000
17129 OA 16727 TPSG O1 17129 -0.675000 15.99940
17130 HG 16727 TPSG H6 17130 0.400000 2.01600
17131 ha 16728 TPSG HA2 17131 0.1332 1.008000
17132 ca 16728 TPSG CA2 17132 -0.0753 12.010000
17133 ca 16728 TPSG CA1 17133 -0.361 12.010000
17134 si 16728 TPSG Si 17134 1.1 28.085000
17135 ca 16728 TPSG CA6 17135 -0.0753 12.010000
17136 ha 16728 TPSG HH6 17136 0.1332 1.008000
17137 ca 16728 TPSG CA5 17137 -0.1548 12.010000
17138 ha 16728 TPSG HA5 17138 0.1282 1.008000
17139 ca 16728 TPSG CA4 17139 -0.1028 12.010000
17140 ha 16728 TPSG HA4 17140 0.1262 1.008000
17141 ca 16728 TPSG CA3 17141 -0.1548 12.010000
17142 ha 16728 TPSG HA3 17142 0.1282 1.008000
17143 OA 16728 TPSG O1 17143 -0.675000 15.99940
17144 HG 16728 TPSG H6 17144 0.400000 2.01600
17145 ha 16729 TPSG HA2 17145 0.1332 1.008000
17146 ca 16729 TPSG CA2 17146 -0.0753 12.010000
17147 ca 16729 TPSG CA1 17147 -0.361 12.010000
17148 si 16729 TPSG Si 17148 1.1 28.085000
17149 ca 16729 TPSG CA6 17149 -0.0753 12.010000
17150 ha 16729 TPSG HH6 17150 0.1332 1.008000
17151 ca 16729 TPSG CA5 17151 -0.1548 12.010000
17152 ha 16729 TPSG HA5 17152 0.1282 1.008000
17153 ca 16729 TPSG CA4 17153 -0.1028 12.010000
17154 ha 16729 TPSG HA4 17154 0.1262 1.008000
17155 ca 16729 TPSG CA3 17155 -0.1548 12.010000
17156 ha 16729 TPSG HA3 17156 0.1282 1.008000
17157 OA 16729 TPSG O1 17157 -0.675000 15.99940
17158 HG 16729 TPSG H6 17158 0.400000 2.01600
17159 ha 16730 TPSG HA2 17159 0.1332 1.008000
17160 ca 16730 TPSG CA2 17160 -0.0753 12.010000
17161 ca 16730 TPSG CA1 17161 -0.361 12.010000
17162 si 16730 TPSG Si 17162 1.1 28.085000
17163 ca 16730 TPSG CA6 17163 -0.0753 12.010000
17164 ha 16730 TPSG HH6 17164 0.1332 1.008000
17165 ca 16730 TPSG CA5 17165 -0.1548 12.010000
17166 ha 16730 TPSG HA5 17166 0.1282 1.008000
17167 ca 16730 TPSG CA4 17167 -0.1028 12.010000
17168 ha 16730 TPSG HA4 17168 0.1262 1.008000
17169 ca 16730 TPSG CA3 17169 -0.1548 12.010000
17170 ha 16730 TPSG HA3 17170 0.1282 1.008000
17171 OA 16730 TPSG O1 17171 -0.675000 15.99940
17172 HG 16730 TPSG H6 17172 0.400000 2.01600
17173 ha 16731 TPSG HA2 17173 0.1332 1.008000
17174 ca 16731 TPSG CA2 17174 -0.0753 12.010000
17175 ca 16731 TPSG CA1 17175 -0.361 12.010000
17176 si 16731 TPSG Si 17176 1.1 28.085000
17177 ca 16731 TPSG CA6 17177 -0.0753 12.010000
17178 ha 16731 TPSG HH6 17178 0.1332 1.008000
17179 ca 16731 TPSG CA5 17179 -0.1548 12.010000
17180 ha 16731 TPSG HA5 17180 0.1282 1.008000
17181 ca 16731 TPSG CA4 17181 -0.1028 12.010000
17182 ha 16731 TPSG HA4 17182 0.1262 1.008000
17183 ca 16731 TPSG CA3 17183 -0.1548 12.010000
17184 ha 16731 TPSG HA3 17184 0.1282 1.008000
17185 OA 16731 TPSG O1 17185 -0.675000 15.99940
17186 HG 16731 TPSG H6 17186 0.400000 2.01600
17187 ha 16732 TPSG HA2 17187 0.1332 1.008000
17188 ca 16732 TPSG CA2 17188 -0.0753 12.010000
17189 ca 16732 TPSG CA1 17189 -0.361 12.010000
17190 si 16732 TPSG Si 17190 1.1 28.085000
17191 ca 16732 TPSG CA6 17191 -0.0753 12.010000
17192 ha 16732 TPSG HH6 17192 0.1332 1.008000
17193 ca 16732 TPSG CA5 17193 -0.1548 12.010000
17194 ha 16732 TPSG HA5 17194 0.1282 1.008000
17195 ca 16732 TPSG CA4 17195 -0.1028 12.010000
17196 ha 16732 TPSG HA4 17196 0.1262 1.008000
17197 ca 16732 TPSG CA3 17197 -0.1548 12.010000
17198 ha 16732 TPSG HA3 17198 0.1282 1.008000
17199 OA 16732 TPSG O1 17199 -0.675000 15.99940
17200 HG 16732 TPSG H6 17200 0.400000 2.01600
17201 ha 16733 TPSG HA2 17201 0.1332 1.008000
17202 ca 16733 TPSG CA2 17202 -0.0753 12.010000
17203 ca 16733 TPSG CA1 17203 -0.361 12.010000
17204 si 16733 TPSG Si 17204 1.1 28.085000
17205 ca 16733 TPSG CA6 17205 -0.0753 12.010000
17206 ha 16733 TPSG HH6 17206 0.1332 1.008000
17207 ca 16733 TPSG CA5 17207 -0.1548 12.010000
17208 ha 16733 TPSG HA5 17208 0.1282 1.008000
17209 ca 16733 TPSG CA4 17209 -0.1028 12.010000
17210 ha 16733 TPSG HA4 17210 0.1262 1.008000
17211 ca 16733 TPSG CA3 17211 -0.1548 12.010000
17212 ha 16733 TPSG HA3 17212 0.1282 1.008000
17213 OA 16733 TPSG O1 17213 -0.675000 15.99940
17214 HG 16733 TPSG H6 17214 0.400000 2.01600
17215 ha 16734 TPSG HA2 17215 0.1332 1.008000
17216 ca 16734 TPSG CA2 17216 -0.0753 12.010000
17217 ca 16734 TPSG CA1 17217 -0.361 12.010000
17218 si 16734 TPSG Si 17218 1.1 28.085000
17219 ca 16734 TPSG CA6 17219 -0.0753 12.010000
17220 ha 16734 TPSG HH6 17220 0.1332 1.008000
17221 ca 16734 TPSG CA5 17221 -0.1548 12.010000
17222 ha 16734 TPSG HA5 17222 0.1282 1.008000
17223 ca 16734 TPSG CA4 17223 -0.1028 12.010000
17224 ha 16734 TPSG HA4 17224 0.1262 1.008000
17225 ca 16734 TPSG CA3 17225 -0.1548 12.010000
17226 ha 16734 TPSG HA3 17226 0.1282 1.008000
17227 OA 16734 TPSG O1 17227 -0.675000 15.99940
17228 HG 16734 TPSG H6 17228 0.400000 2.01600
17229 ha 16735 TPSG HA2 17229 0.1332 1.008000
17230 ca 16735 TPSG CA2 17230 -0.0753 12.010000
17231 ca 16735 TPSG CA1 17231 -0.361 12.010000
17232 si 16735 TPSG Si 17232 1.1 28.085000
17233 ca 16735 TPSG CA6 17233 -0.0753 12.010000
17234 ha 16735 TPSG HH6 17234 0.1332 1.008000
17235 ca 16735 TPSG CA5 17235 -0.1548 12.010000
17236 ha 16735 TPSG HA5 17236 0.1282 1.008000
17237 ca 16735 TPSG CA4 17237 -0.1028 12.010000
17238 ha 16735 TPSG HA4 17238 0.1262 1.008000
17239 ca 16735 TPSG CA3 17239 -0.1548 12.010000
17240 ha 16735 TPSG HA3 17240 0.1282 1.008000
17241 OA 16735 TPSG O1 17241 -0.675000 15.99940
17242 HG 16735 TPSG H6 17242 0.400000 2.01600
17243 ha 16736 TPSG HA2 17243 0.1332 1.008000
17244 ca 16736 TPSG CA2 17244 -0.0753 12.010000
17245 ca 16736 TPSG CA1 17245 -0.361 12.010000
17246 si 16736 TPSG Si 17246 1.1 28.085000
17247 ca 16736 TPSG CA6 17247 -0.0753 12.010000
17248 ha 16736 TPSG HH6 17248 0.1332 1.008000
17249 ca 16736 TPSG CA5 17249 -0.1548 12.010000
17250 ha 16736 TPSG HA5 17250 0.1282 1.008000
17251 ca 16736 TPSG CA4 17251 -0.1028 12.010000
17252 ha 16736 TPSG HA4 17252 0.1262 1.008000
17253 ca 16736 TPSG CA3 17253 -0.1548 12.010000
17254 ha 16736 TPSG HA3 17254 0.1282 1.008000
17255 OA 16736 TPSG O1 17255 -0.675000 15.99940
17256 HG 16736 TPSG H6 17256 0.400000 2.01600
17257 ha 16737 TPSG HA2 17257 0.1332 1.008000
17258 ca 16737 TPSG CA2 17258 -0.0753 12.010000
17259 ca 16737 TPSG CA1 17259 -0.361 12.010000
17260 si 16737 TPSG Si 17260 1.1 28.085000
17261 ca 16737 TPSG CA6 17261 -0.0753 12.010000
17262 ha 16737 TPSG HH6 17262 0.1332 1.008000
17263 ca 16737 TPSG CA5 17263 -0.1548 12.010000
17264 ha 16737 TPSG HA5 17264 0.1282 1.008000
17265 ca 16737 TPSG CA4 17265 -0.1028 12.010000
17266 ha 16737 TPSG HA4 17266 0.1262 1.008000
17267 ca 16737 TPSG CA3 17267 -0.1548 12.010000
17268 ha 16737 TPSG HA3 17268 0.1282 1.008000
17269 OA 16737 TPSG O1 17269 -0.675000 15.99940
17270 HG 16737 TPSG H6 17270 0.400000 2.01600
17271 ha 16738 TPSG HA2 17271 0.1332 1.008000
17272 ca 16738 TPSG CA2 17272 -0.0753 12.010000
17273 ca 16738 TPSG CA1 17273 -0.361 12.010000
17274 si 16738 TPSG Si 17274 1.1 28.085000
17275 ca 16738 TPSG CA6 17275 -0.0753 12.010000
17276 ha 16738 TPSG HH6 17276 0.1332 1.008000
17277 ca 16738 TPSG CA5 17277 -0.1548 12.010000
17278 ha 16738 TPSG HA5 17278 0.1282 1.008000
17279 ca 16738 TPSG CA4 17279 -0.1028 12.010000
17280 ha 16738 TPSG HA4 17280 0.1262 1.008000
17281 ca 16738 TPSG CA3 17281 -0.1548 12.010000
17282 ha 16738 TPSG HA3 17282 0.1282 1.008000
17283 OA 16738 TPSG O1 17283 -0.675000 15.99940
17284 HG 16738 TPSG H6 17284 0.400000 2.01600
17285 ha 16739 TPSG HA2 17285 0.1332 1.008000
17286 ca 16739 TPSG CA2 17286 -0.0753 12.010000
17287 ca 16739 TPSG CA1 17287 -0.361 12.010000
17288 si 16739 TPSG Si 17288 1.1 28.085000
17289 ca 16739 TPSG CA6 17289 -0.0753 12.010000
17290 ha 16739 TPSG HH6 17290 0.1332 1.008000
17291 ca 16739 TPSG CA5 17291 -0.1548 12.010000
17292 ha 16739 TPSG HA5 17292 0.1282 1.008000
17293 ca 16739 TPSG CA4 17293 -0.1028 12.010000
17294 ha 16739 TPSG HA4 17294 0.1262 1.008000
17295 ca 16739 TPSG CA3 17295 -0.1548 12.010000
17296 ha 16739 TPSG HA3 17296 0.1282 1.008000
17297 OA 16739 TPSG O1 17297 -0.675000 15.99940
17298 HG 16739 TPSG H6 17298 0.400000 2.01600
17299 ha 16740 TPSG HA2 17299 0.1332 1.008000
17300 ca 16740 TPSG CA2 17300 -0.0753 12.010000
17301 ca 16740 TPSG CA1 17301 -0.361 12.010000
17302 si 16740 TPSG Si 17302 1.1 28.085000
17303 ca 16740 TPSG CA6 17303 -0.0753 12.010000
17304 ha 16740 TPSG HH6 17304 0.1332 1.008000
17305 ca 16740 TPSG CA5 17305 -0.1548 12.010000
17306 ha 16740 TPSG HA5 17306 0.1282 1.008000
17307 ca 16740 TPSG CA4 17307 -0.1028 12.010000
17308 ha 16740 TPSG HA4 17308 0.1262 1.008000
17309 ca 16740 TPSG CA3 17309 -0.1548 12.010000
17310 ha 16740 TPSG HA3 17310 0.1282 1.008000
17311 OA 16740 TPSG O1 17311 -0.675000 15.99940
17312 HG 16740 TPSG H6 17312 0.400000 2.01600
17313 ha 16741 TPSG HA2 17313 0.1332 1.008000
17314 ca 16741 TPSG CA2 17314 -0.0753 12.010000
17315 ca 16741 TPSG CA1 17315 -0.361 12.010000
17316 si 16741 TPSG Si 17316 1.1 28.085000
17317 ca 16741 TPSG CA6 17317 -0.0753 12.010000
17318 ha 16741 TPSG HH6 17318 0.1332 1.008000
17319 ca 16741 TPSG CA5 17319 -0.1548 12.010000
17320 ha 16741 TPSG HA5 17320 0.1282 1.008000
17321 ca 16741 TPSG CA4 17321 -0.1028 12.010000
17322 ha 16741 TPSG HA4 17322 0.1262 1.008000
17323 ca 16741 TPSG CA3 17323 -0.1548 12.010000
17324 ha 16741 TPSG HA3 17324 0.1282 1.008000
17325 OA 16741 TPSG O1 17325 -0.675000 15.99940
17326 HG 16741 TPSG H6 17326 0.400000 2.01600
17327 ha 16742 TPSG HA2 17327 0.1332 1.008000
17328 ca 16742 TPSG CA2 17328 -0.0753 12.010000
17329 ca 16742 TPSG CA1 17329 -0.361 12.010000
17330 si 16742 TPSG Si 17330 1.1 28.085000
17331 ca 16742 TPSG CA6 17331 -0.0753 12.010000
17332 ha 16742 TPSG HH6 17332 0.1332 1.008000
17333 ca 16742 TPSG CA5 17333 -0.1548 12.010000
17334 ha 16742 TPSG HA5 17334 0.1282 1.008000
17335 ca 16742 TPSG CA4 17335 -0.1028 12.010000
17336 ha 16742 TPSG HA4 17336 0.1262 1.008000
17337 ca 16742 TPSG CA3 17337 -0.1548 12.010000
17338 ha 16742 TPSG HA3 17338 0.1282 1.008000
17339 OA 16742 TPSG O1 17339 -0.675000 15.99940
17340 HG 16742 TPSG H6 17340 0.400000 2.01600
17341 ha 16743 TPSG HA2 17341 0.1332 1.008000
17342 ca 16743 TPSG CA2 17342 -0.0753 12.010000
17343 ca 16743 TPSG CA1 17343 -0.361 12.010000
17344 si 16743 TPSG Si 17344 1.1 28.085000
17345 ca 16743 TPSG CA6 17345 -0.0753 12.010000
17346 ha 16743 TPSG HH6 17346 0.1332 1.008000
17347 ca 16743 TPSG CA5 17347 -0.1548 12.010000
17348 ha 16743 TPSG HA5 17348 0.1282 1.008000
17349 ca 16743 TPSG CA4 17349 -0.1028 12.010000
17350 ha 16743 TPSG HA4 17350 0.1262 1.008000
17351 ca 16743 TPSG CA3 17351 -0.1548 12.010000
17352 ha 16743 TPSG HA3 17352 0.1282 1.008000
17353 OA 16743 TPSG O1 17353 -0.675000 15.99940
17354 HG 16743 TPSG H6 17354 0.400000 2.01600
17355 ha 16744 TPSG HA2 17355 0.1332 1.008000
17356 ca 16744 TPSG CA2 17356 -0.0753 12.010000
17357 ca 16744 TPSG CA1 17357 -0.361 12.010000
17358 si 16744 TPSG Si 17358 1.1 28.085000
17359 ca 16744 TPSG CA6 17359 -0.0753 12.010000
17360 ha 16744 TPSG HH6 17360 0.1332 1.008000
17361 ca 16744 TPSG CA5 17361 -0.1548 12.010000
17362 ha 16744 TPSG HA5 17362 0.1282 1.008000
17363 ca 16744 TPSG CA4 17363 -0.1028 12.010000
17364 ha 16744 TPSG HA4 17364 0.1262 1.008000
17365 ca 16744 TPSG CA3 17365 -0.1548 12.010000
17366 ha 16744 TPSG HA3 17366 0.1282 1.008000
17367 OA 16744 TPSG O1 17367 -0.675000 15.99940
17368 HG 16744 TPSG H6 17368 0.400000 2.01600
17369 ha 16745 TPSG HA2 17369 0.1332 1.008000
17370 ca 16745 TPSG CA2 17370 -0.0753 12.010000
17371 ca 16745 TPSG CA1 17371 -0.361 12.010000
17372 si 16745 TPSG Si 17372 1.1 28.085000
17373 ca 16745 TPSG CA6 17373 -0.0753 12.010000
17374 ha 16745 TPSG HH6 17374 0.1332 1.008000
17375 ca 16745 TPSG CA5 17375 -0.1548 12.010000
17376 ha 16745 TPSG HA5 17376 0.1282 1.008000
17377 ca 16745 TPSG CA4 17377 -0.1028 12.010000
17378 ha 16745 TPSG HA4 17378 0.1262 1.008000
17379 ca 16745 TPSG CA3 17379 -0.1548 12.010000
17380 ha 16745 TPSG HA3 17380 0.1282 1.008000
17381 OA 16745 TPSG O1 17381 -0.675000 15.99940
17382 HG 16745 TPSG H6 17382 0.400000 2.01600
17383 ha 16746 TPSG HA2 17383 0.1332 1.008000
17384 ca 16746 TPSG CA2 17384 -0.0753 12.010000
17385 ca 16746 TPSG CA1 17385 -0.361 12.010000
17386 si 16746 TPSG Si 17386 1.1 28.085000
17387 ca 16746 TPSG CA6 17387 -0.0753 12.010000
17388 ha 16746 TPSG HH6 17388 0.1332 1.008000
17389 ca 16746 TPSG CA5 17389 -0.1548 12.010000
17390 ha 16746 TPSG HA5 17390 0.1282 1.008000
17391 ca 16746 TPSG CA4 17391 -0.1028 12.010000
17392 ha 16746 TPSG HA4 17392 0.1262 1.008000
17393 ca 16746 TPSG CA3 17393 -0.1548 12.010000
17394 ha 16746 TPSG HA3 17394 0.1282 1.008000
17395 OA 16746 TPSG O1 17395 -0.675000 15.99940
17396 HG 16746 TPSG H6 17396 0.400000 2.01600
17397 ha 16747 TPSG HA2 17397 0.1332 1.008000
17398 ca 16747 TPSG CA2 17398 -0.0753 12.010000
17399 ca 16747 TPSG CA1 17399 -0.361 12.010000
17400 si 16747 TPSG Si 17400 1.1 28.085000
17401 ca 16747 TPSG CA6 17401 -0.0753 12.010000
17402 ha 16747 TPSG HH6 17402 0.1332 1.008000
17403 ca 16747 TPSG CA5 17403 -0.1548 12.010000
17404 ha 16747 TPSG HA5 17404 0.1282 1.008000
17405 ca 16747 TPSG CA4 17405 -0.1028 12.010000
17406 ha 16747 TPSG HA4 17406 0.1262 1.008000
17407 ca 16747 TPSG CA3 17407 -0.1548 12.010000
17408 ha 16747 TPSG HA3 17408 0.1282 1.008000
17409 OA 16747 TPSG O1 17409 -0.675000 15.99940
17410 HG 16747 TPSG H6 17410 0.400000 2.01600
17411 ha 16748 TPSG HA2 17411 0.1332 1.008000
17412 ca 16748 TPSG CA2 17412 -0.0753 12.010000
17413 ca 16748 TPSG CA1 17413 -0.361 12.010000
17414 si 16748 TPSG Si 17414 1.1 28.085000
17415 ca 16748 TPSG CA6 17415 -0.0753 12.010000
17416 ha 16748 TPSG HH6 17416 0.1332 1.008000
17417 ca 16748 TPSG CA5 17417 -0.1548 12.010000
17418 ha 16748 TPSG HA5 17418 0.1282 1.008000
17419 ca 16748 TPSG CA4 17419 -0.1028 12.010000
17420 ha 16748 TPSG HA4 17420 0.1262 1.008000
17421 ca 16748 TPSG CA3 17421 -0.1548 12.010000
17422 ha 16748 TPSG HA3 17422 0.1282 1.008000
17423 OA 16748 TPSG O1 17423 -0.675000 15.99940
17424 HG 16748 TPSG H6 17424 0.400000 2.01600
17425 ha 16749 TPSG HA2 17425 0.1332 1.008000
17426 ca 16749 TPSG CA2 17426 -0.0753 12.010000
17427 ca 16749 TPSG CA1 17427 -0.361 12.010000
17428 si 16749 TPSG Si 17428 1.1 28.085000
17429 ca 16749 TPSG CA6 17429 -0.0753 12.010000
17430 ha 16749 TPSG HH6 17430 0.1332 1.008000
17431 ca 16749 TPSG CA5 17431 -0.1548 12.010000
17432 ha 16749 TPSG HA5 17432 0.1282 1.008000
17433 ca 16749 TPSG CA4 17433 -0.1028 12.010000
17434 ha 16749 TPSG HA4 17434 0.1262 1.008000
17435 ca 16749 TPSG CA3 17435 -0.1548 12.010000
17436 ha 16749 TPSG HA3 17436 0.1282 1.008000
17437 OA 16749 TPSG O1 17437 -0.675000 15.99940
17438 HG 16749 TPSG H6 17438 0.400000 2.01600
17439 ha 16750 TPSG HA2 17439 0.1332 1.008000
17440 ca 16750 TPSG CA2 17440 -0.0753 12.010000
17441 ca 16750 TPSG CA1 17441 -0.361 12.010000
17442 si 16750 TPSG Si 17442 1.1 28.085000
17443 ca 16750 TPSG CA6 17443 -0.0753 12.010000
17444 ha 16750 TPSG HH6 17444 0.1332 1.008000
17445 ca 16750 TPSG CA5 17445 -0.1548 12.010000
17446 ha 16750 TPSG HA5 17446 0.1282 1.008000
17447 ca 16750 TPSG CA4 17447 -0.1028 12.010000
17448 ha 16750 TPSG HA4 17448 0.1262 1.008000
17449 ca 16750 TPSG CA3 17449 -0.1548 12.010000
17450 ha 16750 TPSG HA3 17450 0.1282 1.008000
17451 OA 16750 TPSG O1 17451 -0.675000 15.99940
17452 HG 16750 TPSG H6 17452 0.400000 2.01600
17453 ha 16751 TPSG HA2 17453 0.1332 1.008000
17454 ca 16751 TPSG CA2 17454 -0.0753 12.010000
17455 ca 16751 TPSG CA1 17455 -0.361 12.010000
17456 si 16751 TPSG Si 17456 1.1 28.085000
17457 ca 16751 TPSG CA6 17457 -0.0753 12.010000
17458 ha 16751 TPSG HH6 17458 0.1332 1.008000
17459 ca 16751 TPSG CA5 17459 -0.1548 12.010000
17460 ha 16751 TPSG HA5 17460 0.1282 1.008000
17461 ca 16751 TPSG CA4 17461 -0.1028 12.010000
17462 ha 16751 TPSG HA4 17462 0.1262 1.008000
17463 ca 16751 TPSG CA3 17463 -0.1548 12.010000
17464 ha 16751 TPSG HA3 17464 0.1282 1.008000
17465 OA 16751 TPSG O1 17465 -0.675000 15.99940
17466 HG 16751 TPSG H6 17466 0.400000 2.01600
17467 ha 16752 TPSG HA2 17467 0.1332 1.008000
17468 ca 16752 TPSG CA2 17468 -0.0753 12.010000
17469 ca 16752 TPSG CA1 17469 -0.361 12.010000
17470 si 16752 TPSG Si 17470 1.1 28.085000
17471 ca 16752 TPSG CA6 17471 -0.0753 12.010000
17472 ha 16752 TPSG HH6 17472 0.1332 1.008000
17473 ca 16752 TPSG CA5 17473 -0.1548 12.010000
17474 ha 16752 TPSG HA5 17474 0.1282 1.008000
17475 ca 16752 TPSG CA4 17475 -0.1028 12.010000
17476 ha 16752 TPSG HA4 17476 0.1262 1.008000
17477 ca 16752 TPSG CA3 17477 -0.1548 12.010000
17478 ha 16752 TPSG HA3 17478 0.1282 1.008000
17479 OA 16752 TPSG O1 17479 -0.675000 15.99940
17480 HG 16752 TPSG H6 17480 0.400000 2.01600
17481 ha 16753 TPSG HA2 17481 0.1332 1.008000
17482 ca 16753 TPSG CA2 17482 -0.0753 12.010000
17483 ca 16753 TPSG CA1 17483 -0.361 12.010000
17484 si 16753 TPSG Si 17484 1.1 28.085000
17485 ca 16753 TPSG CA6 17485 -0.0753 12.010000
17486 ha 16753 TPSG HH6 17486 0.1332 1.008000
17487 ca 16753 TPSG CA5 17487 -0.1548 12.010000
17488 ha 16753 TPSG HA5 17488 0.1282 1.008000
17489 ca 16753 TPSG CA4 17489 -0.1028 12.010000
17490 ha 16753 TPSG HA4 17490 0.1262 1.008000
17491 ca 16753 TPSG CA3 17491 -0.1548 12.010000
17492 ha 16753 TPSG HA3 17492 0.1282 1.008000
17493 OA 16753 TPSG O1 17493 -0.675000 15.99940
17494 HG 16753 TPSG H6 17494 0.400000 2.01600
17495 ha 16754 TPSG HA2 17495 0.1332 1.008000
17496 ca 16754 TPSG CA2 17496 -0.0753 12.010000
17497 ca 16754 TPSG CA1 17497 -0.361 12.010000
17498 si 16754 TPSG Si 17498 1.1 28.085000
17499 ca 16754 TPSG CA6 17499 -0.0753 12.010000
17500 ha 16754 TPSG HH6 17500 0.1332 1.008000
17501 ca 16754 TPSG CA5 17501 -0.1548 12.010000
17502 ha 16754 TPSG HA5 17502 0.1282 1.008000
17503 ca 16754 TPSG CA4 17503 -0.1028 12.010000
17504 ha 16754 TPSG HA4 17504 0.1262 1.008000
17505 ca 16754 TPSG CA3 17505 -0.1548 12.010000
17506 ha 16754 TPSG HA3 17506 0.1282 1.008000
17507 OA 16754 TPSG O1 17507 -0.675000 15.99940
17508 HG 16754 TPSG H6 17508 0.400000 2.01600
17509 ha 16755 TPSG HA2 17509 0.1332 1.008000
17510 ca 16755 TPSG CA2 17510 -0.0753 12.010000
17511 ca 16755 TPSG CA1 17511 -0.361 12.010000
17512 si 16755 TPSG Si 17512 1.1 28.085000
17513 ca 16755 TPSG CA6 17513 -0.0753 12.010000
17514 ha 16755 TPSG HH6 17514 0.1332 1.008000
17515 ca 16755 TPSG CA5 17515 -0.1548 12.010000
17516 ha 16755 TPSG HA5 17516 0.1282 1.008000
17517 ca 16755 TPSG CA4 17517 -0.1028 12.010000
17518 ha 16755 TPSG HA4 17518 0.1262 1.008000
17519 ca 16755 TPSG CA3 17519 -0.1548 12.010000
17520 ha 16755 TPSG HA3 17520 0.1282 1.008000
17521 OA 16755 TPSG O1 17521 -0.675000 15.99940
17522 HG 16755 TPSG H6 17522 0.400000 2.01600
17523 ha 16756 TPSG HA2 17523 0.1332 1.008000
17524 ca 16756 TPSG CA2 17524 -0.0753 12.010000
17525 ca 16756 TPSG CA1 17525 -0.361 12.010000
17526 si 16756 TPSG Si 17526 1.1 28.085000
17527 ca 16756 TPSG CA6 17527 -0.0753 12.010000
17528 ha 16756 TPSG HH6 17528 0.1332 1.008000
17529 ca 16756 TPSG CA5 17529 -0.1548 12.010000
17530 ha 16756 TPSG HA5 17530 0.1282 1.008000
17531 ca 16756 TPSG CA4 17531 -0.1028 12.010000
17532 ha 16756 TPSG HA4 17532 0.1262 1.008000
17533 ca 16756 TPSG CA3 17533 -0.1548 12.010000
17534 ha 16756 TPSG HA3 17534 0.1282 1.008000
17535 OA 16756 TPSG O1 17535 -0.675000 15.99940
17536 HG 16756 TPSG H6 17536 0.400000 2.01600
17537 ha 16757 TPSG HA2 17537 0.1332 1.008000
17538 ca 16757 TPSG CA2 17538 -0.0753 12.010000
17539 ca 16757 TPSG CA1 17539 -0.361 12.010000
17540 si 16757 TPSG Si 17540 1.1 28.085000
17541 ca 16757 TPSG CA6 17541 -0.0753 12.010000
17542 ha 16757 TPSG HH6 17542 0.1332 1.008000
17543 ca 16757 TPSG CA5 17543 -0.1548 12.010000
17544 ha 16757 TPSG HA5 17544 0.1282 1.008000
17545 ca 16757 TPSG CA4 17545 -0.1028 12.010000
17546 ha 16757 TPSG HA4 17546 0.1262 1.008000
17547 ca 16757 TPSG CA3 17547 -0.1548 12.010000
17548 ha 16757 TPSG HA3 17548 0.1282 1.008000
17549 OA 16757 TPSG O1 17549 -0.675000 15.99940
17550 HG 16757 TPSG H6 17550 0.400000 2.01600
17551 ha 16758 TPSG HA2 17551 0.1332 1.008000
17552 ca 16758 TPSG CA2 17552 -0.0753 12.010000
17553 ca 16758 TPSG CA1 17553 -0.361 12.010000
17554 si 16758 TPSG Si 17554 1.1 28.085000
17555 ca 16758 TPSG CA6 17555 -0.0753 12.010000
17556 ha 16758 TPSG HH6 17556 0.1332 1.008000
17557 ca 16758 TPSG CA5 17557 -0.1548 12.010000
17558 ha 16758 TPSG HA5 17558 0.1282 1.008000
17559 ca 16758 TPSG CA4 17559 -0.1028 12.010000
17560 ha 16758 TPSG HA4 17560 0.1262 1.008000
17561 ca 16758 TPSG CA3 17561 -0.1548 12.010000
17562 ha 16758 TPSG HA3 17562 0.1282 1.008000
17563 OA 16758 TPSG O1 17563 -0.675000 15.99940
17564 HG 16758 TPSG H6 17564 0.400000 2.01600
17565 ha 16759 TPSG HA2 17565 0.1332 1.008000
17566 ca 16759 TPSG CA2 17566 -0.0753 12.010000
17567 ca 16759 TPSG CA1 17567 -0.361 12.010000
17568 si 16759 TPSG Si 17568 1.1 28.085000
17569 ca 16759 TPSG CA6 17569 -0.0753 12.010000
17570 ha 16759 TPSG HH6 17570 0.1332 1.008000
17571 ca 16759 TPSG CA5 17571 -0.1548 12.010000
17572 ha 16759 TPSG HA5 17572 0.1282 1.008000
17573 ca 16759 TPSG CA4 17573 -0.1028 12.010000
17574 ha 16759 TPSG HA4 17574 0.1262 1.008000
17575 ca 16759 TPSG CA3 17575 -0.1548 12.010000
17576 ha 16759 TPSG HA3 17576 0.1282 1.008000
17577 OA 16759 TPSG O1 17577 -0.675000 15.99940
17578 HG 16759 TPSG H6 17578 0.400000 2.01600
17579 ha 16760 TPSG HA2 17579 0.1332 1.008000
17580 ca 16760 TPSG CA2 17580 -0.0753 12.010000
17581 ca 16760 TPSG CA1 17581 -0.361 12.010000
17582 si 16760 TPSG Si 17582 1.1 28.085000
17583 ca 16760 TPSG CA6 17583 -0.0753 12.010000
17584 ha 16760 TPSG HH6 17584 0.1332 1.008000
17585 ca 16760 TPSG CA5 17585 -0.1548 12.010000
17586 ha 16760 TPSG HA5 17586 0.1282 1.008000
17587 ca 16760 TPSG CA4 17587 -0.1028 12.010000
17588 ha 16760 TPSG HA4 17588 0.1262 1.008000
17589 ca 16760 TPSG CA3 17589 -0.1548 12.010000
17590 ha 16760 TPSG HA3 17590 0.1282 1.008000
17591 OA 16760 TPSG O1 17591 -0.675000 15.99940
17592 HG 16760 TPSG H6 17592 0.400000 2.01600
17593 ha 16761 TPSG HA2 17593 0.1332 1.008000
17594 ca 16761 TPSG CA2 17594 -0.0753 12.010000
17595 ca 16761 TPSG CA1 17595 -0.361 12.010000
17596 si 16761 TPSG Si 17596 1.1 28.085000
17597 ca 16761 TPSG CA6 17597 -0.0753 12.010000
17598 ha 16761 TPSG HH6 17598 0.1332 1.008000
17599 ca 16761 TPSG CA5 17599 -0.1548 12.010000
17600 ha 16761 TPSG HA5 17600 0.1282 1.008000
17601 ca 16761 TPSG CA4 17601 -0.1028 12.010000
17602 ha 16761 TPSG HA4 17602 0.1262 1.008000
17603 ca 16761 TPSG CA3 17603 -0.1548 12.010000
17604 ha 16761 TPSG HA3 17604 0.1282 1.008000
17605 OA 16761 TPSG O1 17605 -0.675000 15.99940
17606 HG 16761 TPSG H6 17606 0.400000 2.01600
17607 ha 16762 TPSG HA2 17607 0.1332 1.008000
17608 ca 16762 TPSG CA2 17608 -0.0753 12.010000
17609 ca 16762 TPSG CA1 17609 -0.361 12.010000
17610 si 16762 TPSG Si 17610 1.1 28.085000
17611 ca 16762 TPSG CA6 17611 -0.0753 12.010000
17612 ha 16762 TPSG HH6 17612 0.1332 1.008000
17613 ca 16762 TPSG CA5 17613 -0.1548 12.010000
17614 ha 16762 TPSG HA5 17614 0.1282 1.008000
17615 ca 16762 TPSG CA4 17615 -0.1028 12.010000
17616 ha 16762 TPSG HA4 17616 0.1262 1.008000
17617 ca 16762 TPSG CA3 17617 -0.1548 12.010000
17618 ha 16762 TPSG HA3 17618 0.1282 1.008000
17619 OA 16762 TPSG O1 17619 -0.675000 15.99940
17620 HG 16762 TPSG H6 17620 0.400000 2.01600
17621 ha 16763 TPSG HA2 17621 0.1332 1.008000
17622 ca 16763 TPSG CA2 17622 -0.0753 12.010000
17623 ca 16763 TPSG CA1 17623 -0.361 12.010000
17624 si 16763 TPSG Si 17624 1.1 28.085000
17625 ca 16763 TPSG CA6 17625 -0.0753 12.010000
17626 ha 16763 TPSG HH6 17626 0.1332 1.008000
17627 ca 16763 TPSG CA5 17627 -0.1548 12.010000
17628 ha 16763 TPSG HA5 17628 0.1282 1.008000
17629 ca 16763 TPSG CA4 17629 -0.1028 12.010000
17630 ha 16763 TPSG HA4 17630 0.1262 1.008000
17631 ca 16763 TPSG CA3 17631 -0.1548 12.010000
17632 ha 16763 TPSG HA3 17632 0.1282 1.008000
17633 OA 16763 TPSG O1 17633 -0.675000 15.99940
17634 HG 16763 TPSG H6 17634 0.400000 2.01600
17635 ha 16764 TPSG HA2 17635 0.1332 1.008000
17636 ca 16764 TPSG CA2 17636 -0.0753 12.010000
17637 ca 16764 TPSG CA1 17637 -0.361 12.010000
17638 si 16764 TPSG Si 17638 1.1 28.085000
17639 ca 16764 TPSG CA6 17639 -0.0753 12.010000
17640 ha 16764 TPSG HH6 17640 0.1332 1.008000
17641 ca 16764 TPSG CA5 17641 -0.1548 12.010000
17642 ha 16764 TPSG HA5 17642 0.1282 1.008000
17643 ca 16764 TPSG CA4 17643 -0.1028 12.010000
17644 ha 16764 TPSG HA4 17644 0.1262 1.008000
17645 ca 16764 TPSG CA3 17645 -0.1548 12.010000
17646 ha 16764 TPSG HA3 17646 0.1282 1.008000
17647 OA 16764 TPSG O1 17647 -0.675000 15.99940
17648 HG 16764 TPSG H6 17648 0.400000 2.01600
17649 ha 16765 TPSG HA2 17649 0.1332 1.008000
17650 ca 16765 TPSG CA2 17650 -0.0753 12.010000
17651 ca 16765 TPSG CA1 17651 -0.361 12.010000
17652 si 16765 TPSG Si 17652 1.1 28.085000
17653 ca 16765 TPSG CA6 17653 -0.0753 12.010000
17654 ha 16765 TPSG HH6 17654 0.1332 1.008000
17655 ca 16765 TPSG CA5 17655 -0.1548 12.010000
17656 ha 16765 TPSG HA5 17656 0.1282 1.008000
17657 ca 16765 TPSG CA4 17657 -0.1028 12.010000
17658 ha 16765 TPSG HA4 17658 0.1262 1.008000
17659 ca 16765 TPSG CA3 17659 -0.1548 12.010000
17660 ha 16765 TPSG HA3 17660 0.1282 1.008000
17661 OA 16765 TPSG O1 17661 -0.675000 15.99940
17662 HG 16765 TPSG H6 17662 0.400000 2.01600
17663 ha 16766 TPSG HA2 17663 0.1332 1.008000
17664 ca 16766 TPSG CA2 17664 -0.0753 12.010000
17665 ca 16766 TPSG CA1 17665 -0.361 12.010000
17666 si 16766 TPSG Si 17666 1.1 28.085000
17667 ca 16766 TPSG CA6 17667 -0.0753 12.010000
17668 ha 16766 TPSG HH6 17668 0.1332 1.008000
17669 ca 16766 TPSG CA5 17669 -0.1548 12.010000
17670 ha 16766 TPSG HA5 17670 0.1282 1.008000
17671 ca 16766 TPSG CA4 17671 -0.1028 12.010000
17672 ha 16766 TPSG HA4 17672 0.1262 1.008000
17673 ca 16766 TPSG CA3 17673 -0.1548 12.010000
17674 ha 16766 TPSG HA3 17674 0.1282 1.008000
17675 OA 16766 TPSG O1 17675 -0.675000 15.99940
17676 HG 16766 TPSG H6 17676 0.400000 2.01600
17677 ha 16767 TPSG HA2 17677 0.1332 1.008000
17678 ca 16767 TPSG CA2 17678 -0.0753 12.010000
17679 ca 16767 TPSG CA1 17679 -0.361 12.010000
17680 si 16767 TPSG Si 17680 1.1 28.085000
17681 ca 16767 TPSG CA6 17681 -0.0753 12.010000
17682 ha 16767 TPSG HH6 17682 0.1332 1.008000
17683 ca 16767 TPSG CA5 17683 -0.1548 12.010000
17684 ha 16767 TPSG HA5 17684 0.1282 1.008000
17685 ca 16767 TPSG CA4 17685 -0.1028 12.010000
17686 ha 16767 TPSG HA4 17686 0.1262 1.008000
17687 ca 16767 TPSG CA3 17687 -0.1548 12.010000
17688 ha 16767 TPSG HA3 17688 0.1282 1.008000
17689 OA 16767 TPSG O1 17689 -0.675000 15.99940
17690 HG 16767 TPSG H6 17690 0.400000 2.01600
17691 ha 16768 TPSG HA2 17691 0.1332 1.008000
17692 ca 16768 TPSG CA2 17692 -0.0753 12.010000
17693 ca 16768 TPSG CA1 17693 -0.361 12.010000
17694 si 16768 TPSG Si 17694 1.1 28.085000
17695 ca 16768 TPSG CA6 17695 -0.0753 12.010000
17696 ha 16768 TPSG HH6 17696 0.1332 1.008000
17697 ca 16768 TPSG CA5 17697 -0.1548 12.010000
17698 ha 16768 TPSG HA5 17698 0.1282 1.008000
17699 ca 16768 TPSG CA4 17699 -0.1028 12.010000
17700 ha 16768 TPSG HA4 17700 0.1262 1.008000
17701 ca 16768 TPSG CA3 17701 -0.1548 12.010000
17702 ha 16768 TPSG HA3 17702 0.1282 1.008000
17703 OA 16768 TPSG O1 17703 -0.675000 15.99940
17704 HG 16768 TPSG H6 17704 0.400000 2.01600
17705 ha 16769 TPSG HA2 17705 0.1332 1.008000
17706 ca 16769 TPSG CA2 17706 -0.0753 12.010000
17707 ca 16769 TPSG CA1 17707 -0.361 12.010000
17708 si 16769 TPSG Si 17708 1.1 28.085000
17709 ca 16769 TPSG CA6 17709 -0.0753 12.010000
17710 ha 16769 TPSG HH6 17710 0.1332 1.008000
17711 ca 16769 TPSG CA5 17711 -0.1548 12.010000
17712 ha 16769 TPSG HA5 17712 0.1282 1.008000
17713 ca 16769 TPSG CA4 17713 -0.1028 12.010000
17714 ha 16769 TPSG HA4 17714 0.1262 1.008000
17715 ca 16769 TPSG CA3 17715 -0.1548 12.010000
17716 ha 16769 TPSG HA3 17716 0.1282 1.008000
17717 OA 16769 TPSG O1 17717 -0.675000 15.99940
17718 HG 16769 TPSG H6 17718 0.400000 2.01600
17719 ha 16770 TPSG HA2 17719 0.1332 1.008000
17720 ca 16770 TPSG CA2 17720 -0.0753 12.010000
17721 ca 16770 TPSG CA1 17721 -0.361 12.010000
17722 si 16770 TPSG Si 17722 1.1 28.085000
17723 ca 16770 TPSG CA6 17723 -0.0753 12.010000
17724 ha 16770 TPSG HH6 17724 0.1332 1.008000
17725 ca 16770 TPSG CA5 17725 -0.1548 12.010000
17726 ha 16770 TPSG HA5 17726 0.1282 1.008000
17727 ca 16770 TPSG CA4 17727 -0.1028 12.010000
17728 ha 16770 TPSG HA4 17728 0.1262 1.008000
17729 ca 16770 TPSG CA3 17729 -0.1548 12.010000
17730 ha 16770 TPSG HA3 17730 0.1282 1.008000
17731 OA 16770 TPSG O1 17731 -0.675000 15.99940
17732 HG 16770 TPSG H6 17732 0.400000 2.01600
17733 ha 16771 TPSG HA2 17733 0.1332 1.008000
17734 ca 16771 TPSG CA2 17734 -0.0753 12.010000
17735 ca 16771 TPSG CA1 17735 -0.361 12.010000
17736 si 16771 TPSG Si 17736 1.1 28.085000
17737 ca 16771 TPSG CA6 17737 -0.0753 12.010000
17738 ha 16771 TPSG HH6 17738 0.1332 1.008000
17739 ca 16771 TPSG CA5 17739 -0.1548 12.010000
17740 ha 16771 TPSG HA5 17740 0.1282 1.008000
17741 ca 16771 TPSG CA4 17741 -0.1028 12.010000
17742 ha 16771 TPSG HA4 17742 0.1262 1.008000
17743 ca 16771 TPSG CA3 17743 -0.1548 12.010000
17744 ha 16771 TPSG HA3 17744 0.1282 1.008000
17745 OA 16771 TPSG O1 17745 -0.675000 15.99940
17746 HG 16771 TPSG H6 17746 0.400000 2.01600
17747 ha 16772 TPSG HA2 17747 0.1332 1.008000
17748 ca 16772 TPSG CA2 17748 -0.0753 12.010000
17749 ca 16772 TPSG CA1 17749 -0.361 12.010000
17750 si 16772 TPSG Si 17750 1.1 28.085000
17751 ca 16772 TPSG CA6 17751 -0.0753 12.010000
17752 ha 16772 TPSG HH6 17752 0.1332 1.008000
17753 ca 16772 TPSG CA5 17753 -0.1548 12.010000
17754 ha 16772 TPSG HA5 17754 0.1282 1.008000
17755 ca 16772 TPSG CA4 17755 -0.1028 12.010000
17756 ha 16772 TPSG HA4 17756 0.1262 1.008000
17757 ca 16772 TPSG CA3 17757 -0.1548 12.010000
17758 ha 16772 TPSG HA3 17758 0.1282 1.008000
17759 OA 16772 TPSG O1 17759 -0.675000 15.99940
17760 HG 16772 TPSG H6 17760 0.400000 2.01600
17761 ha 16773 TPSG HA2 17761 0.1332 1.008000
17762 ca 16773 TPSG CA2 17762 -0.0753 12.010000
17763 ca 16773 TPSG CA1 17763 -0.361 12.010000
17764 si 16773 TPSG Si 17764 1.1 28.085000
17765 ca 16773 TPSG CA6 17765 -0.0753 12.010000
17766 ha 16773 TPSG HH6 17766 0.1332 1.008000
17767 ca 16773 TPSG CA5 17767 -0.1548 12.010000
17768 ha 16773 TPSG HA5 17768 0.1282 1.008000
17769 ca 16773 TPSG CA4 17769 -0.1028 12.010000
17770 ha 16773 TPSG HA4 17770 0.1262 1.008000
17771 ca 16773 TPSG CA3 17771 -0.1548 12.010000
17772 ha 16773 TPSG HA3 17772 0.1282 1.008000
17773 OA 16773 TPSG O1 17773 -0.675000 15.99940
17774 HG 16773 TPSG H6 17774 0.400000 2.01600
17775 ha 16774 TPSG HA2 17775 0.1332 1.008000
17776 ca 16774 TPSG CA2 17776 -0.0753 12.010000
17777 ca 16774 TPSG CA1 17777 -0.361 12.010000
17778 si 16774 TPSG Si 17778 1.1 28.085000
17779 ca 16774 TPSG CA6 17779 -0.0753 12.010000
17780 ha 16774 TPSG HH6 17780 0.1332 1.008000
17781 ca 16774 TPSG CA5 17781 -0.1548 12.010000
17782 ha 16774 TPSG HA5 17782 0.1282 1.008000
17783 ca 16774 TPSG CA4 17783 -0.1028 12.010000
17784 ha 16774 TPSG HA4 17784 0.1262 1.008000
17785 ca 16774 TPSG CA3 17785 -0.1548 12.010000
17786 ha 16774 TPSG HA3 17786 0.1282 1.008000
17787 OA 16774 TPSG O1 17787 -0.675000 15.99940
17788 HG 16774 TPSG H6 17788 0.400000 2.01600
17789 ha 16775 TPSG HA2 17789 0.1332 1.008000
17790 ca 16775 TPSG CA2 17790 -0.0753 12.010000
17791 ca 16775 TPSG CA1 17791 -0.361 12.010000
17792 si 16775 TPSG Si 17792 1.1 28.085000
17793 ca 16775 TPSG CA6 17793 -0.0753 12.010000
17794 ha 16775 TPSG HH6 17794 0.1332 1.008000
17795 ca 16775 TPSG CA5 17795 -0.1548 12.010000
17796 ha 16775 TPSG HA5 17796 0.1282 1.008000
17797 ca 16775 TPSG CA4 17797 -0.1028 12.010000
17798 ha 16775 TPSG HA4 17798 0.1262 1.008000
17799 ca 16775 TPSG CA3 17799 -0.1548 12.010000
17800 ha 16775 TPSG HA3 17800 0.1282 1.008000
17801 OA 16775 TPSG O1 17801 -0.675000 15.99940
17802 HG 16775 TPSG H6 17802 0.400000 2.01600
17803 ha 16776 TPSG HA2 17803 0.1332 1.008000
17804 ca 16776 TPSG CA2 17804 -0.0753 12.010000
17805 ca 16776 TPSG CA1 17805 -0.361 12.010000
17806 si 16776 TPSG Si 17806 1.1 28.085000
17807 ca 16776 TPSG CA6 17807 -0.0753 12.010000
17808 ha 16776 TPSG HH6 17808 0.1332 1.008000
17809 ca 16776 TPSG CA5 17809 -0.1548 12.010000
17810 ha 16776 TPSG HA5 17810 0.1282 1.008000
17811 ca 16776 TPSG CA4 17811 -0.1028 12.010000
17812 ha 16776 TPSG HA4 17812 0.1262 1.008000
17813 ca 16776 TPSG CA3 17813 -0.1548 12.010000
17814 ha 16776 TPSG HA3 17814 0.1282 1.008000
17815 OA 16776 TPSG O1 17815 -0.675000 15.99940
17816 HG 16776 TPSG H6 17816 0.400000 2.01600
17817 ha 16777 TPSG HA2 17817 0.1332 1.008000
17818 ca 16777 TPSG CA2 17818 -0.0753 12.010000
17819 ca 16777 TPSG CA1 17819 -0.361 12.010000
17820 si 16777 TPSG Si 17820 1.1 28.085000
17821 ca 16777 TPSG CA6 17821 -0.0753 12.010000
17822 ha 16777 TPSG HH6 17822 0.1332 1.008000
17823 ca 16777 TPSG CA5 17823 -0.1548 12.010000
17824 ha 16777 TPSG HA5 17824 0.1282 1.008000
17825 ca 16777 TPSG CA4 17825 -0.1028 12.010000
17826 ha 16777 TPSG HA4 17826 0.1262 1.008000
17827 ca 16777 TPSG CA3 17827 -0.1548 12.010000
17828 ha 16777 TPSG HA3 17828 0.1282 1.008000
17829 OA 16777 TPSG O1 17829 -0.675000 15.99940
17830 HG 16777 TPSG H6 17830 0.400000 2.01600
17831 ha 16778 TPSG HA2 17831 0.1332 1.008000
17832 ca 16778 TPSG CA2 17832 -0.0753 12.010000
17833 ca 16778 TPSG CA1 17833 -0.361 12.010000
17834 si 16778 TPSG Si 17834 1.1 28.085000
17835 ca 16778 TPSG CA6 17835 -0.0753 12.010000
17836 ha 16778 TPSG HH6 17836 0.1332 1.008000
17837 ca 16778 TPSG CA5 17837 -0.1548 12.010000
17838 ha 16778 TPSG HA5 17838 0.1282 1.008000
17839 ca 16778 TPSG CA4 17839 -0.1028 12.010000
17840 ha 16778 TPSG HA4 17840 0.1262 1.008000
17841 ca 16778 TPSG CA3 17841 -0.1548 12.010000
17842 ha 16778 TPSG HA3 17842 0.1282 1.008000
17843 OA 16778 TPSG O1 17843 -0.675000 15.99940
17844 HG 16778 TPSG H6 17844 0.400000 2.01600
17845 ha 16779 TPSG HA2 17845 0.1332 1.008000
17846 ca 16779 TPSG CA2 17846 -0.0753 12.010000
17847 ca 16779 TPSG CA1 17847 -0.361 12.010000
17848 si 16779 TPSG Si 17848 1.1 28.085000
17849 ca 16779 TPSG CA6 17849 -0.0753 12.010000
17850 ha 16779 TPSG HH6 17850 0.1332 1.008000
17851 ca 16779 TPSG CA5 17851 -0.1548 12.010000
17852 ha 16779 TPSG HA5 17852 0.1282 1.008000
17853 ca 16779 TPSG CA4 17853 -0.1028 12.010000
17854 ha 16779 TPSG HA4 17854 0.1262 1.008000
17855 ca 16779 TPSG CA3 17855 -0.1548 12.010000
17856 ha 16779 TPSG HA3 17856 0.1282 1.008000
17857 OA 16779 TPSG O1 17857 -0.675000 15.99940
17858 HG 16779 TPSG H6 17858 0.400000 2.01600
17859 ha 16780 TPSG HA2 17859 0.1332 1.008000
17860 ca 16780 TPSG CA2 17860 -0.0753 12.010000
17861 ca 16780 TPSG CA1 17861 -0.361 12.010000
17862 si 16780 TPSG Si 17862 1.1 28.085000
17863 ca 16780 TPSG CA6 17863 -0.0753 12.010000
17864 ha 16780 TPSG HH6 17864 0.1332 1.008000
17865 ca 16780 TPSG CA5 17865 -0.1548 12.010000
17866 ha 16780 TPSG HA5 17866 0.1282 1.008000
17867 ca 16780 TPSG CA4 17867 -0.1028 12.010000
17868 ha 16780 TPSG HA4 17868 0.1262 1.008000
17869 ca 16780 TPSG CA3 17869 -0.1548 12.010000
17870 ha 16780 TPSG HA3 17870 0.1282 1.008000
17871 OA 16780 TPSG O1 17871 -0.675000 15.99940
17872 HG 16780 TPSG H6 17872 0.400000 2.01600
17873 ha 16781 TPSG HA2 17873 0.1332 1.008000
17874 ca 16781 TPSG CA2 17874 -0.0753 12.010000
17875 ca 16781 TPSG CA1 17875 -0.361 12.010000
17876 si 16781 TPSG Si 17876 1.1 28.085000
17877 ca 16781 TPSG CA6 17877 -0.0753 12.010000
17878 ha 16781 TPSG HH6 17878 0.1332 1.008000
17879 ca 16781 TPSG CA5 17879 -0.1548 12.010000
17880 ha 16781 TPSG HA5 17880 0.1282 1.008000
17881 ca 16781 TPSG CA4 17881 -0.1028 12.010000
17882 ha 16781 TPSG HA4 17882 0.1262 1.008000
17883 ca 16781 TPSG CA3 17883 -0.1548 12.010000
17884 ha 16781 TPSG HA3 17884 0.1282 1.008000
17885 OA 16781 TPSG O1 17885 -0.675000 15.99940
17886 HG 16781 TPSG H6 17886 0.400000 2.01600
17887 ha 16782 TPSG HA2 17887 0.1332 1.008000
17888 ca 16782 TPSG CA2 17888 -0.0753 12.010000
17889 ca 16782 TPSG CA1 17889 -0.361 12.010000
17890 si 16782 TPSG Si 17890 1.1 28.085000
17891 ca 16782 TPSG CA6 17891 -0.0753 12.010000
17892 ha 16782 TPSG HH6 17892 0.1332 1.008000
17893 ca 16782 TPSG CA5 17893 -0.1548 12.010000
17894 ha 16782 TPSG HA5 17894 0.1282 1.008000
17895 ca 16782 TPSG CA4 17895 -0.1028 12.010000
17896 ha 16782 TPSG HA4 17896 0.1262 1.008000
17897 ca 16782 TPSG CA3 17897 -0.1548 12.010000
17898 ha 16782 TPSG HA3 17898 0.1282 1.008000
17899 OA 16782 TPSG O1 17899 -0.675000 15.99940
17900 HG 16782 TPSG H6 17900 0.400000 2.01600
17901 ha 16783 TPSG HA2 17901 0.1332 1.008000
17902 ca 16783 TPSG CA2 17902 -0.0753 12.010000
17903 ca 16783 TPSG CA1 17903 -0.361 12.010000
17904 si 16783 TPSG Si 17904 1.1 28.085000
17905 ca 16783 TPSG CA6 17905 -0.0753 12.010000
17906 ha 16783 TPSG HH6 17906 0.1332 1.008000
17907 ca 16783 TPSG CA5 17907 -0.1548 12.010000
17908 ha 16783 TPSG HA5 17908 0.1282 1.008000
17909 ca 16783 TPSG CA4 17909 -0.1028 12.010000
17910 ha 16783 TPSG HA4 17910 0.1262 1.008000
17911 ca 16783 TPSG CA3 17911 -0.1548 12.010000
17912 ha 16783 TPSG HA3 17912 0.1282 1.008000
17913 OA 16783 TPSG O1 17913 -0.675000 15.99940
17914 HG 16783 TPSG H6 17914 0.400000 2.01600
17915 ha 16784 TPSG HA2 17915 0.1332 1.008000
17916 ca 16784 TPSG CA2 17916 -0.0753 12.010000
17917 ca 16784 TPSG CA1 17917 -0.361 12.010000
17918 si 16784 TPSG Si 17918 1.1 28.085000
17919 ca 16784 TPSG CA6 17919 -0.0753 12.010000
17920 ha 16784 TPSG HH6 17920 0.1332 1.008000
17921 ca 16784 TPSG CA5 17921 -0.1548 12.010000
17922 ha 16784 TPSG HA5 17922 0.1282 1.008000
17923 ca 16784 TPSG CA4 17923 -0.1028 12.010000
17924 ha 16784 TPSG HA4 17924 0.1262 1.008000
17925 ca 16784 TPSG CA3 17925 -0.1548 12.010000
17926 ha 16784 TPSG HA3 17926 0.1282 1.008000
17927 OA 16784 TPSG O1 17927 -0.675000 15.99940
17928 HG 16784 TPSG H6 17928 0.400000 2.01600
17929 ha 16785 TPSG HA2 17929 0.1332 1.008000
17930 ca 16785 TPSG CA2 17930 -0.0753 12.010000
17931 ca 16785 TPSG CA1 17931 -0.361 12.010000
17932 si 16785 TPSG Si 17932 1.1 28.085000
17933 ca 16785 TPSG CA6 17933 -0.0753 12.010000
17934 ha 16785 TPSG HH6 17934 0.1332 1.008000
17935 ca 16785 TPSG CA5 17935 -0.1548 12.010000
17936 ha 16785 TPSG HA5 17936 0.1282 1.008000
17937 ca 16785 TPSG CA4 17937 -0.1028 12.010000
17938 ha 16785 TPSG HA4 17938 0.1262 1.008000
17939 ca 16785 TPSG CA3 17939 -0.1548 12.010000
17940 ha 16785 TPSG HA3 17940 0.1282 1.008000
17941 OA 16785 TPSG O1 17941 -0.675000 15.99940
17942 HG 16785 TPSG H6 17942 0.400000 2.01600
17943 ha 16786 TPSG HA2 17943 0.1332 1.008000
17944 ca 16786 TPSG CA2 17944 -0.0753 12.010000
17945 ca 16786 TPSG CA1 17945 -0.361 12.010000
17946 si 16786 TPSG Si 17946 1.1 28.085000
17947 ca 16786 TPSG CA6 17947 -0.0753 12.010000
17948 ha 16786 TPSG HH6 17948 0.1332 1.008000
17949 ca 16786 TPSG CA5 17949 -0.1548 12.010000
17950 ha 16786 TPSG HA5 17950 0.1282 1.008000
17951 ca 16786 TPSG CA4 17951 -0.1028 12.010000
17952 ha 16786 TPSG HA4 17952 0.1262 1.008000
17953 ca 16786 TPSG CA3 17953 -0.1548 12.010000
17954 ha 16786 TPSG HA3 17954 0.1282 1.008000
17955 OA 16786 TPSG O1 17955 -0.675000 15.99940
17956 HG 16786 TPSG H6 17956 0.400000 2.01600
17957 ha 16787 TPSG HA2 17957 0.1332 1.008000
17958 ca 16787 TPSG CA2 17958 -0.0753 12.010000
17959 ca 16787 TPSG CA1 17959 -0.361 12.010000
17960 si 16787 TPSG Si 17960 1.1 28.085000
17961 ca 16787 TPSG CA6 17961 -0.0753 12.010000
17962 ha 16787 TPSG HH6 17962 0.1332 1.008000
17963 ca 16787 TPSG CA5 17963 -0.1548 12.010000
17964 ha 16787 TPSG HA5 17964 0.1282 1.008000
17965 ca 16787 TPSG CA4 17965 -0.1028 12.010000
17966 ha 16787 TPSG HA4 17966 0.1262 1.008000
17967 ca 16787 TPSG CA3 17967 -0.1548 12.010000
17968 ha 16787 TPSG HA3 17968 0.1282 1.008000
17969 OA 16787 TPSG O1 17969 -0.675000 15.99940
17970 HG 16787 TPSG H6 17970 0.400000 2.01600
17971 ha 16788 TPSG HA2 17971 0.1332 1.008000
17972 ca 16788 TPSG CA2 17972 -0.0753 12.010000
17973 ca 16788 TPSG CA1 17973 -0.361 12.010000
17974 si 16788 TPSG Si 17974 1.1 28.085000
17975 ca 16788 TPSG CA6 17975 -0.0753 12.010000
17976 ha 16788 TPSG HH6 17976 0.1332 1.008000
17977 ca 16788 TPSG CA5 17977 -0.1548 12.010000
17978 ha 16788 TPSG HA5 17978 0.1282 1.008000
17979 ca 16788 TPSG CA4 17979 -0.1028 12.010000
17980 ha 16788 TPSG HA4 17980 0.1262 1.008000
17981 ca 16788 TPSG CA3 17981 -0.1548 12.010000
17982 ha 16788 TPSG HA3 17982 0.1282 1.008000
17983 OA 16788 TPSG O1 17983 -0.675000 15.99940
17984 HG 16788 TPSG H6 17984 0.400000 2.01600
17985 ha 16789 TPSG HA2 17985 0.1332 1.008000
17986 ca 16789 TPSG CA2 17986 -0.0753 12.010000
17987 ca 16789 TPSG CA1 17987 -0.361 12.010000
17988 si 16789 TPSG Si 17988 1.1 28.085000
17989 ca 16789 TPSG CA6 17989 -0.0753 12.010000
17990 ha 16789 TPSG HH6 17990 0.1332 1.008000
17991 ca 16789 TPSG CA5 17991 -0.1548 12.010000
17992 ha 16789 TPSG HA5 17992 0.1282 1.008000
17993 ca 16789 TPSG CA4 17993 -0.1028 12.010000
17994 ha 16789 TPSG HA4 17994 0.1262 1.008000
17995 ca 16789 TPSG CA3 17995 -0.1548 12.010000
17996 ha 16789 TPSG HA3 17996 0.1282 1.008000
17997 OA 16789 TPSG O1 17997 -0.675000 15.99940
17998 HG 16789 TPSG H6 17998 0.400000 2.01600
17999 ha 16790 TPSG HA2 17999 0.1332 1.008000
18000 ca 16790 TPSG CA2 18000 -0.0753 12.010000
18001 ca 16790 TPSG CA1 18001 -0.361 12.010000
18002 si 16790 TPSG Si 18002 1.1 28.085000
18003 ca 16790 TPSG CA6 18003 -0.0753 12.010000
18004 ha 16790 TPSG HH6 18004 0.1332 1.008000
18005 ca 16790 TPSG CA5 18005 -0.1548 12.010000
18006 ha 16790 TPSG HA5 18006 0.1282 1.008000
18007 ca 16790 TPSG CA4 18007 -0.1028 12.010000
18008 ha 16790 TPSG HA4 18008 0.1262 1.008000
18009 ca 16790 TPSG CA3 18009 -0.1548 12.010000
18010 ha 16790 TPSG HA3 18010 0.1282 1.008000
18011 OA 16790 TPSG O1 18011 -0.675000 15.99940
18012 HG 16790 TPSG H6 18012 0.400000 2.01600
18013 ha 16791 TPSG HA2 18013 0.1332 1.008000
18014 ca 16791 TPSG CA2 18014 -0.0753 12.010000
18015 ca 16791 TPSG CA1 18015 -0.361 12.010000
18016 si 16791 TPSG Si 18016 1.1 28.085000
18017 ca 16791 TPSG CA6 18017 -0.0753 12.010000
18018 ha 16791 TPSG HH6 18018 0.1332 1.008000
18019 ca 16791 TPSG CA5 18019 -0.1548 12.010000
18020 ha 16791 TPSG HA5 18020 0.1282 1.008000
18021 ca 16791 TPSG CA4 18021 -0.1028 12.010000
18022 ha 16791 TPSG HA4 18022 0.1262 1.008000
18023 ca 16791 TPSG CA3 18023 -0.1548 12.010000
18024 ha 16791 TPSG HA3 18024 0.1282 1.008000
18025 OA 16791 TPSG O1 18025 -0.675000 15.99940
18026 HG 16791 TPSG H6 18026 0.400000 2.01600
18027 ha 16792 TPSG HA2 18027 0.1332 1.008000
18028 ca 16792 TPSG CA2 18028 -0.0753 12.010000
18029 ca 16792 TPSG CA1 18029 -0.361 12.010000
18030 si 16792 TPSG Si 18030 1.1 28.085000
18031 ca 16792 TPSG CA6 18031 -0.0753 12.010000
18032 ha 16792 TPSG HH6 18032 0.1332 1.008000
18033 ca 16792 TPSG CA5 18033 -0.1548 12.010000
18034 ha 16792 TPSG HA5 18034 0.1282 1.008000
18035 ca 16792 TPSG CA4 18035 -0.1028 12.010000
18036 ha 16792 TPSG HA4 18036 0.1262 1.008000
18037 ca 16792 TPSG CA3 18037 -0.1548 12.010000
18038 ha 16792 TPSG HA3 18038 0.1282 1.008000
18039 OA 16792 TPSG O1 18039 -0.675000 15.99940
18040 HG 16792 TPSG H6 18040 0.400000 2.01600
18041 ha 16793 TPSG HA2 18041 0.1332 1.008000
18042 ca 16793 TPSG CA2 18042 -0.0753 12.010000
18043 ca 16793 TPSG CA1 18043 -0.361 12.010000
18044 si 16793 TPSG Si 18044 1.1 28.085000
18045 ca 16793 TPSG CA6 18045 -0.0753 12.010000
18046 ha 16793 TPSG HH6 18046 0.1332 1.008000
18047 ca 16793 TPSG CA5 18047 -0.1548 12.010000
18048 ha 16793 TPSG HA5 18048 0.1282 1.008000
18049 ca 16793 TPSG CA4 18049 -0.1028 12.010000
18050 ha 16793 TPSG HA4 18050 0.1262 1.008000
18051 ca 16793 TPSG CA3 18051 -0.1548 12.010000
18052 ha 16793 TPSG HA3 18052 0.1282 1.008000
18053 OA 16793 TPSG O1 18053 -0.675000 15.99940
18054 HG 16793 TPSG H6 18054 0.400000 2.01600
18055 ha 16794 TPS HA2 18055 0.1332 1.008000
18056 ca 16794 TPS CA2 18056 -0.0753 12.010000
18057 ca 16794 TPS CA1 18057 -0.361 12.010000
18058 si 16794 TPS Si 18058 1.1 28.085000
18059 ca 16794 TPS CA6 18059 -0.0753 12.010000
18060 ha 16794 TPS HH6 18060 0.1332 1.008000
18061 ca 16794 TPS CA5 18061 -0.1548 12.010000
18062 ha 16794 TPS HA5 18062 0.1282 1.008000
18063 ca 16794 TPS CA4 18063 -0.1028 12.010000
18064 ha 16794 TPS HA4 18064 0.1262 1.008000
18065 ca 16794 TPS CA3 18065 -0.1548 12.010000
18066 ha 16794 TPS HA3 18066 0.1282 1.008000
18067 ha 16795 TPS HA2 18067 0.1332 1.008000
18068 ca 16795 TPS CA2 18068 -0.0753 12.010000
18069 ca 16795 TPS CA1 18069 -0.361 12.010000
18070 si 16795 TPS Si 18070 1.1 28.085000
18071 ca 16795 TPS CA6 18071 -0.0753 12.010000
18072 ha 16795 TPS HH6 18072 0.1332 1.008000
18073 ca 16795 TPS CA5 18073 -0.1548 12.010000
18074 ha 16795 TPS HA5 18074 0.1282 1.008000
18075 ca 16795 TPS CA4 18075 -0.1028 12.010000
18076 ha 16795 TPS HA4 18076 0.1262 1.008000
18077 ca 16795 TPS CA3 18077 -0.1548 12.010000
18078 ha 16795 TPS HA3 18078 0.1282 1.008000
18079 ha 16796 TPS HA2 18079 0.1332 1.008000
18080 ca 16796 TPS CA2 18080 -0.0753 12.010000
18081 ca 16796 TPS CA1 18081 -0.361 12.010000
18082 si 16796 TPS Si 18082 1.1 28.085000
18083 ca 16796 TPS CA6 18083 -0.0753 12.010000
18084 ha 16796 TPS HH6 18084 0.1332 1.008000
18085 ca 16796 TPS CA5 18085 -0.1548 12.010000
18086 ha 16796 TPS HA5 18086 0.1282 1.008000
18087 ca 16796 TPS CA4 18087 -0.1028 12.010000
18088 ha 16796 TPS HA4 18088 0.1262 1.008000
18089 ca 16796 TPS CA3 18089 -0.1548 12.010000
18090 ha 16796 TPS HA3 18090 0.1282 1.008000
18091 ha 16797 TPS HA2 18091 0.1332 1.008000
18092 ca 16797 TPS CA2 18092 -0.0753 12.010000
18093 ca 16797 TPS CA1 18093 -0.361 12.010000
18094 si 16797 TPS Si 18094 1.1 28.085000
18095 ca 16797 TPS CA6 18095 -0.0753 12.010000
18096 ha 16797 TPS HH6 18096 0.1332 1.008000
18097 ca 16797 TPS CA5 18097 -0.1548 12.010000
18098 ha 16797 TPS HA5 18098 0.1282 1.008000
18099 ca 16797 TPS CA4 18099 -0.1028 12.010000
18100 ha 16797 TPS HA4 18100 0.1262 1.008000
18101 ca 16797 TPS CA3 18101 -0.1548 12.010000
18102 ha 16797 TPS HA3 18102 0.1282 1.008000
18103 ha 16798 TPS HA2 18103 0.1332 1.008000
18104 ca 16798 TPS CA2 18104 -0.0753 12.010000
18105 ca 16798 TPS CA1 18105 -0.361 12.010000
18106 si 16798 TPS Si 18106 1.1 28.085000
18107 ca 16798 TPS CA6 18107 -0.0753 12.010000
18108 ha 16798 TPS HH6 18108 0.1332 1.008000
18109 ca 16798 TPS CA5 18109 -0.1548 12.010000
18110 ha 16798 TPS HA5 18110 0.1282 1.008000
18111 ca 16798 TPS CA4 18111 -0.1028 12.010000
18112 ha 16798 TPS HA4 18112 0.1262 1.008000
18113 ca 16798 TPS CA3 18113 -0.1548 12.010000
18114 ha 16798 TPS HA3 18114 0.1282 1.008000
18115 ha 16799 TPS HA2 18115 0.1332 1.008000
18116 ca 16799 TPS CA2 18116 -0.0753 12.010000
18117 ca 16799 TPS CA1 18117 -0.361 12.010000
18118 si 16799 TPS Si 18118 1.1 28.085000
18119 ca 16799 TPS CA6 18119 -0.0753 12.010000
18120 ha 16799 TPS HH6 18120 0.1332 1.008000
18121 ca 16799 TPS CA5 18121 -0.1548 12.010000
18122 ha 16799 TPS HA5 18122 0.1282 1.008000
18123 ca 16799 TPS CA4 18123 -0.1028 12.010000
18124 ha 16799 TPS HA4 18124 0.1262 1.008000
18125 ca 16799 TPS CA3 18125 -0.1548 12.010000
18126 ha 16799 TPS HA3 18126 0.1282 1.008000
18127 ha 16800 TPS HA2 18127 0.1332 1.008000
18128 ca 16800 TPS CA2 18128 -0.0753 12.010000
18129 ca 16800 TPS CA1 18129 -0.361 12.010000
18130 si 16800 TPS Si 18130 1.1 28.085000
18131 ca 16800 TPS CA6 18131 -0.0753 12.010000
18132 ha 16800 TPS HH6 18132 0.1332 1.008000
18133 ca 16800 TPS CA5 18133 -0.1548 12.010000
18134 ha 16800 TPS HA5 18134 0.1282 1.008000
18135 ca 16800 TPS CA4 18135 -0.1028 12.010000
18136 ha 16800 TPS HA4 18136 0.1262 1.008000
18137 ca 16800 TPS CA3 18137 -0.1548 12.010000
18138 ha 16800 TPS HA3 18138 0.1282 1.008000
18139 ha 16801 TPS HA2 18139 0.1332 1.008000
18140 ca 16801 TPS CA2 18140 -0.0753 12.010000
18141 ca 16801 TPS CA1 18141 -0.361 12.010000
18142 si 16801 TPS Si 18142 1.1 28.085000
18143 ca 16801 TPS CA6 18143 -0.0753 12.010000
18144 ha 16801 TPS HH6 18144 0.1332 1.008000
18145 ca 16801 TPS CA5 18145 -0.1548 12.010000
18146 ha 16801 TPS HA5 18146 0.1282 1.008000
18147 ca 16801 TPS CA4 18147 -0.1028 12.010000
18148 ha 16801 TPS HA4 18148 0.1262 1.008000
18149 ca 16801 TPS CA3 18149 -0.1548 12.010000
18150 ha 16801 TPS HA3 18150 0.1282 1.008000
18151 ha 16802 TPS HA2 18151 0.1332 1.008000
18152 ca 16802 TPS CA2 18152 -0.0753 12.010000
18153 ca 16802 TPS CA1 18153 -0.361 12.010000
18154 si 16802 TPS Si 18154 1.1 28.085000
18155 ca 16802 TPS CA6 18155 -0.0753 12.010000
18156 ha 16802 TPS HH6 18156 0.1332 1.008000
18157 ca 16802 TPS CA5 18157 -0.1548 12.010000
18158 ha 16802 TPS HA5 18158 0.1282 1.008000
18159 ca 16802 TPS CA4 18159 -0.1028 12.010000
18160 ha 16802 TPS HA4 18160 0.1262 1.008000
18161 ca 16802 TPS CA3 18161 -0.1548 12.010000
18162 ha 16802 TPS HA3 18162 0.1282 1.008000
18163 ha 16803 TPS HA2 18163 0.1332 1.008000
18164 ca 16803 TPS CA2 18164 -0.0753 12.010000
18165 ca 16803 TPS CA1 18165 -0.361 12.010000
18166 si 16803 TPS Si 18166 1.1 28.085000
18167 ca 16803 TPS CA6 18167 -0.0753 12.010000
18168 ha 16803 TPS HH6 18168 0.1332 1.008000
18169 ca 16803 TPS CA5 18169 -0.1548 12.010000
18170 ha 16803 TPS HA5 18170 0.1282 1.008000
18171 ca 16803 TPS CA4 18171 -0.1028 12.010000
18172 ha 16803 TPS HA4 18172 0.1262 1.008000
18173 ca 16803 TPS CA3 18173 -0.1548 12.010000
18174 ha 16803 TPS HA3 18174 0.1282 1.008000
18175 ha 16804 TPS HA2 18175 0.1332 1.008000
18176 ca 16804 TPS CA2 18176 -0.0753 12.010000
18177 ca 16804 TPS CA1 18177 -0.361 12.010000
18178 si 16804 TPS Si 18178 1.1 28.085000
18179 ca 16804 TPS CA6 18179 -0.0753 12.010000
18180 ha 16804 TPS HH6 18180 0.1332 1.008000
18181 ca 16804 TPS CA5 18181 -0.1548 12.010000
18182 ha 16804 TPS HA5 18182 0.1282 1.008000
18183 ca 16804 TPS CA4 18183 -0.1028 12.010000
18184 ha 16804 TPS HA4 18184 0.1262 1.008000
18185 ca 16804 TPS CA3 18185 -0.1548 12.010000
18186 ha 16804 TPS HA3 18186 0.1282 1.008000
18187 ha 16805 TPS HA2 18187 0.1332 1.008000
18188 ca 16805 TPS CA2 18188 -0.0753 12.010000
18189 ca 16805 TPS CA1 18189 -0.361 12.010000
18190 si 16805 TPS Si 18190 1.1 28.085000
18191 ca 16805 TPS CA6 18191 -0.0753 12.010000
18192 ha 16805 TPS HH6 18192 0.1332 1.008000
18193 ca 16805 TPS CA5 18193 -0.1548 12.010000
18194 ha 16805 TPS HA5 18194 0.1282 1.008000
18195 ca 16805 TPS CA4 18195 -0.1028 12.010000
18196 ha 16805 TPS HA4 18196 0.1262 1.008000
18197 ca 16805 TPS CA3 18197 -0.1548 12.010000
18198 ha 16805 TPS HA3 18198 0.1282 1.008000
18199 ha 16806 TPS HA2 18199 0.1332 1.008000
18200 ca 16806 TPS CA2 18200 -0.0753 12.010000
18201 ca 16806 TPS CA1 18201 -0.361 12.010000
18202 si 16806 TPS Si 18202 1.1 28.085000
18203 ca 16806 TPS CA6 18203 -0.0753 12.010000
18204 ha 16806 TPS HH6 18204 0.1332 1.008000
18205 ca 16806 TPS CA5 18205 -0.1548 12.010000
18206 ha 16806 TPS HA5 18206 0.1282 1.008000
18207 ca 16806 TPS CA4 18207 -0.1028 12.010000
18208 ha 16806 TPS HA4 18208 0.1262 1.008000
18209 ca 16806 TPS CA3 18209 -0.1548 12.010000
18210 ha 16806 TPS HA3 18210 0.1282 1.008000
18211 ha 16807 TPS HA2 18211 0.1332 1.008000
18212 ca 16807 TPS CA2 18212 -0.0753 12.010000
18213 ca 16807 TPS CA1 18213 -0.361 12.010000
18214 si 16807 TPS Si 18214 1.1 28.085000
18215 ca 16807 TPS CA6 18215 -0.0753 12.010000
18216 ha 16807 TPS HH6 18216 0.1332 1.008000
18217 ca 16807 TPS CA5 18217 -0.1548 12.010000
18218 ha 16807 TPS HA5 18218 0.1282 1.008000
18219 ca 16807 TPS CA4 18219 -0.1028 12.010000
18220 ha 16807 TPS HA4 18220 0.1262 1.008000
18221 ca 16807 TPS CA3 18221 -0.1548 12.010000
18222 ha 16807 TPS HA3 18222 0.1282 1.008000
18223 ha 16808 TPS HA2 18223 0.1332 1.008000
18224 ca 16808 TPS CA2 18224 -0.0753 12.010000
18225 ca 16808 TPS CA1 18225 -0.361 12.010000
18226 si 16808 TPS Si 18226 1.1 28.085000
18227 ca 16808 TPS CA6 18227 -0.0753 12.010000
18228 ha 16808 TPS HH6 18228 0.1332 1.008000
18229 ca 16808 TPS CA5 18229 -0.1548 12.010000
18230 ha 16808 TPS HA5 18230 0.1282 1.008000
18231 ca 16808 TPS CA4 18231 -0.1028 12.010000
18232 ha 16808 TPS HA4 18232 0.1262 1.008000
18233 ca 16808 TPS CA3 18233 -0.1548 12.010000
18234 ha 16808 TPS HA3 18234 0.1282 1.008000
18235 ha 16809 TPS HA2 18235 0.1332 1.008000
18236 ca 16809 TPS CA2 18236 -0.0753 12.010000
18237 ca 16809 TPS CA1 18237 -0.361 12.010000
18238 si 16809 TPS Si 18238 1.1 28.085000
18239 ca 16809 TPS CA6 18239 -0.0753 12.010000
18240 ha 16809 TPS HH6 18240 0.1332 1.008000
18241 ca 16809 TPS CA5 18241 -0.1548 12.010000
18242 ha 16809 TPS HA5 18242 0.1282 1.008000
18243 ca 16809 TPS CA4 18243 -0.1028 12.010000
18244 ha 16809 TPS HA4 18244 0.1262 1.008000
18245 ca 16809 TPS CA3 18245 -0.1548 12.010000
18246 ha 16809 TPS HA3 18246 0.1282 1.008000
18247 ha 16810 TPS HA2 18247 0.1332 1.008000
18248 ca 16810 TPS CA2 18248 -0.0753 12.010000
18249 ca 16810 TPS CA1 18249 -0.361 12.010000
18250 si 16810 TPS Si 18250 1.1 28.085000
18251 ca 16810 TPS CA6 18251 -0.0753 12.010000
18252 ha 16810 TPS HH6 18252 0.1332 1.008000
18253 ca 16810 TPS CA5 18253 -0.1548 12.010000
18254 ha 16810 TPS HA5 18254 0.1282 1.008000
18255 ca 16810 TPS CA4 18255 -0.1028 12.010000
18256 ha 16810 TPS HA4 18256 0.1262 1.008000
18257 ca 16810 TPS CA3 18257 -0.1548 12.010000
18258 ha 16810 TPS HA3 18258 0.1282 1.008000
18259 ha 16811 TPS HA2 18259 0.1332 1.008000
18260 ca 16811 TPS CA2 18260 -0.0753 12.010000
18261 ca 16811 TPS CA1 18261 -0.361 12.010000
18262 si 16811 TPS Si 18262 1.1 28.085000
18263 ca 16811 TPS CA6 18263 -0.0753 12.010000
18264 ha 16811 TPS HH6 18264 0.1332 1.008000
18265 ca 16811 TPS CA5 18265 -0.1548 12.010000
18266 ha 16811 TPS HA5 18266 0.1282 1.008000
18267 ca 16811 TPS CA4 18267 -0.1028 12.010000
18268 ha 16811 TPS HA4 18268 0.1262 1.008000
18269 ca 16811 TPS CA3 18269 -0.1548 12.010000
18270 ha 16811 TPS HA3 18270 0.1282 1.008000
18271 ha 16812 TPS HA2 18271 0.1332 1.008000
18272 ca 16812 TPS CA2 18272 -0.0753 12.010000
18273 ca 16812 TPS CA1 18273 -0.361 12.010000
18274 si 16812 TPS Si 18274 1.1 28.085000
18275 ca 16812 TPS CA6 18275 -0.0753 12.010000
18276 ha 16812 TPS HH6 18276 0.1332 1.008000
18277 ca 16812 TPS CA5 18277 -0.1548 12.010000
18278 ha 16812 TPS HA5 18278 0.1282 1.008000
18279 ca 16812 TPS CA4 18279 -0.1028 12.010000
18280 ha 16812 TPS HA4 18280 0.1262 1.008000
18281 ca 16812 TPS CA3 18281 -0.1548 12.010000
18282 ha 16812 TPS HA3 18282 0.1282 1.008000
18283 ha 16813 TPS HA2 18283 0.1332 1.008000
18284 ca 16813 TPS CA2 18284 -0.0753 12.010000
18285 ca 16813 TPS CA1 18285 -0.361 12.010000
18286 si 16813 TPS Si 18286 1.1 28.085000
18287 ca 16813 TPS CA6 18287 -0.0753 12.010000
18288 ha 16813 TPS HH6 18288 0.1332 1.008000
18289 ca 16813 TPS CA5 18289 -0.1548 12.010000
18290 ha 16813 TPS HA5 18290 0.1282 1.008000
18291 ca 16813 TPS CA4 18291 -0.1028 12.010000
18292 ha 16813 TPS HA4 18292 0.1262 1.008000
18293 ca 16813 TPS CA3 18293 -0.1548 12.010000
18294 ha 16813 TPS HA3 18294 0.1282 1.008000
18295 ha 16814 TPS HA2 18295 0.1332 1.008000
18296 ca 16814 TPS CA2 18296 -0.0753 12.010000
18297 ca 16814 TPS CA1 18297 -0.361 12.010000
18298 si 16814 TPS Si 18298 1.1 28.085000
18299 ca 16814 TPS CA6 18299 -0.0753 12.010000
18300 ha 16814 TPS HH6 18300 0.1332 1.008000
18301 ca 16814 TPS CA5 18301 -0.1548 12.010000
18302 ha 16814 TPS HA5 18302 0.1282 1.008000
18303 ca 16814 TPS CA4 18303 -0.1028 12.010000
18304 ha 16814 TPS HA4 18304 0.1262 1.008000
18305 ca 16814 TPS CA3 18305 -0.1548 12.010000
18306 ha 16814 TPS HA3 18306 0.1282 1.008000
18307 ha 16815 TPS HA2 18307 0.1332 1.008000
18308 ca 16815 TPS CA2 18308 -0.0753 12.010000
18309 ca 16815 TPS CA1 18309 -0.361 12.010000
18310 si 16815 TPS Si 18310 1.1 28.085000
18311 ca 16815 TPS CA6 18311 -0.0753 12.010000
18312 ha 16815 TPS HH6 18312 0.1332 1.008000
18313 ca 16815 TPS CA5 18313 -0.1548 12.010000
18314 ha 16815 TPS HA5 18314 0.1282 1.008000
18315 ca 16815 TPS CA4 18315 -0.1028 12.010000
18316 ha 16815 TPS HA4 18316 0.1262 1.008000
18317 ca 16815 TPS CA3 18317 -0.1548 12.010000
18318 ha 16815 TPS HA3 18318 0.1282 1.008000
18319 ha 16816 TPS HA2 18319 0.1332 1.008000
18320 ca 16816 TPS CA2 18320 -0.0753 12.010000
18321 ca 16816 TPS CA1 18321 -0.361 12.010000
18322 si 16816 TPS Si 18322 1.1 28.085000
18323 ca 16816 TPS CA6 18323 -0.0753 12.010000
18324 ha 16816 TPS HH6 18324 0.1332 1.008000
18325 ca 16816 TPS CA5 18325 -0.1548 12.010000
18326 ha 16816 TPS HA5 18326 0.1282 1.008000
18327 ca 16816 TPS CA4 18327 -0.1028 12.010000
18328 ha 16816 TPS HA4 18328 0.1262 1.008000
18329 ca 16816 TPS CA3 18329 -0.1548 12.010000
18330 ha 16816 TPS HA3 18330 0.1282 1.008000
18331 ha 16817 TPS HA2 18331 0.1332 1.008000
18332 ca 16817 TPS CA2 18332 -0.0753 12.010000
18333 ca 16817 TPS CA1 18333 -0.361 12.010000
18334 si 16817 TPS Si 18334 1.1 28.085000
18335 ca 16817 TPS CA6 18335 -0.0753 12.010000
18336 ha 16817 TPS HH6 18336 0.1332 1.008000
18337 ca 16817 TPS CA5 18337 -0.1548 12.010000
18338 ha 16817 TPS HA5 18338 0.1282 1.008000
18339 ca 16817 TPS CA4 18339 -0.1028 12.010000
18340 ha 16817 TPS HA4 18340 0.1262 1.008000
18341 ca 16817 TPS CA3 18341 -0.1548 12.010000
18342 ha 16817 TPS HA3 18342 0.1282 1.008000
18343 ha 16818 TPS HA2 18343 0.1332 1.008000
18344 ca 16818 TPS CA2 18344 -0.0753 12.010000
18345 ca 16818 TPS CA1 18345 -0.361 12.010000
18346 si 16818 TPS Si 18346 1.1 28.085000
18347 ca 16818 TPS CA6 18347 -0.0753 12.010000
18348 ha 16818 TPS HH6 18348 0.1332 1.008000
18349 ca 16818 TPS CA5 18349 -0.1548 12.010000
18350 ha 16818 TPS HA5 18350 0.1282 1.008000
18351 ca 16818 TPS CA4 18351 -0.1028 12.010000
18352 ha 16818 TPS HA4 18352 0.1262 1.008000
18353 ca 16818 TPS CA3 18353 -0.1548 12.010000
18354 ha 16818 TPS HA3 18354 0.1282 1.008000
18355 ha 16819 TPS HA2 18355 0.1332 1.008000
18356 ca 16819 TPS CA2 18356 -0.0753 12.010000
18357 ca 16819 TPS CA1 18357 -0.361 12.010000
18358 si 16819 TPS Si 18358 1.1 28.085000
18359 ca 16819 TPS CA6 18359 -0.0753 12.010000
18360 ha 16819 TPS HH6 18360 0.1332 1.008000
18361 ca 16819 TPS CA5 18361 -0.1548 12.010000
18362 ha 16819 TPS HA5 18362 0.1282 1.008000
18363 ca 16819 TPS CA4 18363 -0.1028 12.010000
18364 ha 16819 TPS HA4 18364 0.1262 1.008000
18365 ca 16819 TPS CA3 18365 -0.1548 12.010000
18366 ha 16819 TPS HA3 18366 0.1282 1.008000
18367 ha 16820 TPS HA2 18367 0.1332 1.008000
18368 ca 16820 TPS CA2 18368 -0.0753 12.010000
18369 ca 16820 TPS CA1 18369 -0.361 12.010000
18370 si 16820 TPS Si 18370 1.1 28.085000
18371 ca 16820 TPS CA6 18371 -0.0753 12.010000
18372 ha 16820 TPS HH6 18372 0.1332 1.008000
18373 ca 16820 TPS CA5 18373 -0.1548 12.010000
18374 ha 16820 TPS HA5 18374 0.1282 1.008000
18375 ca 16820 TPS CA4 18375 -0.1028 12.010000
18376 ha 16820 TPS HA4 18376 0.1262 1.008000
18377 ca 16820 TPS CA3 18377 -0.1548 12.010000
18378 ha 16820 TPS HA3 18378 0.1282 1.008000
18379 ha 16821 TPS HA2 18379 0.1332 1.008000
18380 ca 16821 TPS CA2 18380 -0.0753 12.010000
18381 ca 16821 TPS CA1 18381 -0.361 12.010000
18382 si 16821 TPS Si 18382 1.1 28.085000
18383 ca 16821 TPS CA6 18383 -0.0753 12.010000
18384 ha 16821 TPS HH6 18384 0.1332 1.008000
18385 ca 16821 TPS CA5 18385 -0.1548 12.010000
18386 ha 16821 TPS HA5 18386 0.1282 1.008000
18387 ca 16821 TPS CA4 18387 -0.1028 12.010000
18388 ha 16821 TPS HA4 18388 0.1262 1.008000
18389 ca 16821 TPS CA3 18389 -0.1548 12.010000
18390 ha 16821 TPS HA3 18390 0.1282 1.008000
18391 ha 16822 TPS HA2 18391 0.1332 1.008000
18392 ca 16822 TPS CA2 18392 -0.0753 12.010000
18393 ca 16822 TPS CA1 18393 -0.361 12.010000
18394 si 16822 TPS Si 18394 1.1 28.085000
18395 ca 16822 TPS CA6 18395 -0.0753 12.010000
18396 ha 16822 TPS HH6 18396 0.1332 1.008000
18397 ca 16822 TPS CA5 18397 -0.1548 12.010000
18398 ha 16822 TPS HA5 18398 0.1282 1.008000
18399 ca 16822 TPS CA4 18399 -0.1028 12.010000
18400 ha 16822 TPS HA4 18400 0.1262 1.008000
18401 ca 16822 TPS CA3 18401 -0.1548 12.010000
18402 ha 16822 TPS HA3 18402 0.1282 1.008000
18403 ha 16823 TPS HA2 18403 0.1332 1.008000
18404 ca 16823 TPS CA2 18404 -0.0753 12.010000
18405 ca 16823 TPS CA1 18405 -0.361 12.010000
18406 si 16823 TPS Si 18406 1.1 28.085000
18407 ca 16823 TPS CA6 18407 -0.0753 12.010000
18408 ha 16823 TPS HH6 18408 0.1332 1.008000
18409 ca 16823 TPS CA5 18409 -0.1548 12.010000
18410 ha 16823 TPS HA5 18410 0.1282 1.008000
18411 ca 16823 TPS CA4 18411 -0.1028 12.010000
18412 ha 16823 TPS HA4 18412 0.1262 1.008000
18413 ca 16823 TPS CA3 18413 -0.1548 12.010000
18414 ha 16823 TPS HA3 18414 0.1282 1.008000
18415 ha 16824 TPS HA2 18415 0.1332 1.008000
18416 ca 16824 TPS CA2 18416 -0.0753 12.010000
18417 ca 16824 TPS CA1 18417 -0.361 12.010000
18418 si 16824 TPS Si 18418 1.1 28.085000
18419 ca 16824 TPS CA6 18419 -0.0753 12.010000
18420 ha 16824 TPS HH6 18420 0.1332 1.008000
18421 ca 16824 TPS CA5 18421 -0.1548 12.010000
18422 ha 16824 TPS HA5 18422 0.1282 1.008000
18423 ca 16824 TPS CA4 18423 -0.1028 12.010000
18424 ha 16824 TPS HA4 18424 0.1262 1.008000
18425 ca 16824 TPS CA3 18425 -0.1548 12.010000
18426 ha 16824 TPS HA3 18426 0.1282 1.008000
18427 ha 16825 TPS HA2 18427 0.1332 1.008000
18428 ca 16825 TPS CA2 18428 -0.0753 12.010000
18429 ca 16825 TPS CA1 18429 -0.361 12.010000
18430 si 16825 TPS Si 18430 1.1 28.085000
18431 ca 16825 TPS CA6 18431 -0.0753 12.010000
18432 ha 16825 TPS HH6 18432 0.1332 1.008000
18433 ca 16825 TPS CA5 18433 -0.1548 12.010000
18434 ha 16825 TPS HA5 18434 0.1282 1.008000
18435 ca 16825 TPS CA4 18435 -0.1028 12.010000
18436 ha 16825 TPS HA4 18436 0.1262 1.008000
18437 ca 16825 TPS CA3 18437 -0.1548 12.010000
18438 ha 16825 TPS HA3 18438 0.1282 1.008000
18439 ha 16826 TPS HA2 18439 0.1332 1.008000
18440 ca 16826 TPS CA2 18440 -0.0753 12.010000
18441 ca 16826 TPS CA1 18441 -0.361 12.010000
18442 si 16826 TPS Si 18442 1.1 28.085000
18443 ca 16826 TPS CA6 18443 -0.0753 12.010000
18444 ha 16826 TPS HH6 18444 0.1332 1.008000
18445 ca 16826 TPS CA5 18445 -0.1548 12.010000
18446 ha 16826 TPS HA5 18446 0.1282 1.008000
18447 ca 16826 TPS CA4 18447 -0.1028 12.010000
18448 ha 16826 TPS HA4 18448 0.1262 1.008000
18449 ca 16826 TPS CA3 18449 -0.1548 12.010000
18450 ha 16826 TPS HA3 18450 0.1282 1.008000
18451 ha 16827 TPS HA2 18451 0.1332 1.008000
18452 ca 16827 TPS CA2 18452 -0.0753 12.010000
18453 ca 16827 TPS CA1 18453 -0.361 12.010000
18454 si 16827 TPS Si 18454 1.1 28.085000
18455 ca 16827 TPS CA6 18455 -0.0753 12.010000
18456 ha 16827 TPS HH6 18456 0.1332 1.008000
18457 ca 16827 TPS CA5 18457 -0.1548 12.010000
18458 ha 16827 TPS HA5 18458 0.1282 1.008000
18459 ca 16827 TPS CA4 18459 -0.1028 12.010000
18460 ha 16827 TPS HA4 18460 0.1262 1.008000
18461 ca 16827 TPS CA3 18461 -0.1548 12.010000
18462 ha 16827 TPS HA3 18462 0.1282 1.008000
18463 ha 16828 TPS HA2 18463 0.1332 1.008000
18464 ca 16828 TPS CA2 18464 -0.0753 12.010000
18465 ca 16828 TPS CA1 18465 -0.361 12.010000
18466 si 16828 TPS Si 18466 1.1 28.085000
18467 ca 16828 TPS CA6 18467 -0.0753 12.010000
18468 ha 16828 TPS HH6 18468 0.1332 1.008000
18469 ca 16828 TPS CA5 18469 -0.1548 12.010000
18470 ha 16828 TPS HA5 18470 0.1282 1.008000
18471 ca 16828 TPS CA4 18471 -0.1028 12.010000
18472 ha 16828 TPS HA4 18472 0.1262 1.008000
18473 ca 16828 TPS CA3 18473 -0.1548 12.010000
18474 ha 16828 TPS HA3 18474 0.1282 1.008000
18475 ha 16829 TPS HA2 18475 0.1332 1.008000
18476 ca 16829 TPS CA2 18476 -0.0753 12.010000
18477 ca 16829 TPS CA1 18477 -0.361 12.010000
18478 si 16829 TPS Si 18478 1.1 28.085000
18479 ca 16829 TPS CA6 18479 -0.0753 12.010000
18480 ha 16829 TPS HH6 18480 0.1332 1.008000
18481 ca 16829 TPS CA5 18481 -0.1548 12.010000
18482 ha 16829 TPS HA5 18482 0.1282 1.008000
18483 ca 16829 TPS CA4 18483 -0.1028 12.010000
18484 ha 16829 TPS HA4 18484 0.1262 1.008000
18485 ca 16829 TPS CA3 18485 -0.1548 12.010000
18486 ha 16829 TPS HA3 18486 0.1282 1.008000
18487 ha 16830 TPS HA2 18487 0.1332 1.008000
18488 ca 16830 TPS CA2 18488 -0.0753 12.010000
18489 ca 16830 TPS CA1 18489 -0.361 12.010000
18490 si 16830 TPS Si 18490 1.1 28.085000
18491 ca 16830 TPS CA6 18491 -0.0753 12.010000
18492 ha 16830 TPS HH6 18492 0.1332 1.008000
18493 ca 16830 TPS CA5 18493 -0.1548 12.010000
18494 ha 16830 TPS HA5 18494 0.1282 1.008000
18495 ca 16830 TPS CA4 18495 -0.1028 12.010000
18496 ha 16830 TPS HA4 18496 0.1262 1.008000
18497 ca 16830 TPS CA3 18497 -0.1548 12.010000
18498 ha 16830 TPS HA3 18498 0.1282 1.008000
18499 ha 16831 TPS HA2 18499 0.1332 1.008000
18500 ca 16831 TPS CA2 18500 -0.0753 12.010000
18501 ca 16831 TPS CA1 18501 -0.361 12.010000
18502 si 16831 TPS Si 18502 1.1 28.085000
18503 ca 16831 TPS CA6 18503 -0.0753 12.010000
18504 ha 16831 TPS HH6 18504 0.1332 1.008000
18505 ca 16831 TPS CA5 18505 -0.1548 12.010000
18506 ha 16831 TPS HA5 18506 0.1282 1.008000
18507 ca 16831 TPS CA4 18507 -0.1028 12.010000
18508 ha 16831 TPS HA4 18508 0.1262 1.008000
18509 ca 16831 TPS CA3 18509 -0.1548 12.010000
18510 ha 16831 TPS HA3 18510 0.1282 1.008000
18511 ha 16832 TPS HA2 18511 0.1332 1.008000
18512 ca 16832 TPS CA2 18512 -0.0753 12.010000
18513 ca 16832 TPS CA1 18513 -0.361 12.010000
18514 si 16832 TPS Si 18514 1.1 28.085000
18515 ca 16832 TPS CA6 18515 -0.0753 12.010000
18516 ha 16832 TPS HH6 18516 0.1332 1.008000
18517 ca 16832 TPS CA5 18517 -0.1548 12.010000
18518 ha 16832 TPS HA5 18518 0.1282 1.008000
18519 ca 16832 TPS CA4 18519 -0.1028 12.010000
18520 ha 16832 TPS HA4 18520 0.1262 1.008000
18521 ca 16832 TPS CA3 18521 -0.1548 12.010000
18522 ha 16832 TPS HA3 18522 0.1282 1.008000
18523 ha 16833 TPS HA2 18523 0.1332 1.008000
18524 ca 16833 TPS CA2 18524 -0.0753 12.010000
18525 ca 16833 TPS CA1 18525 -0.361 12.010000
18526 si 16833 TPS Si 18526 1.1 28.085000
18527 ca 16833 TPS CA6 18527 -0.0753 12.010000
18528 ha 16833 TPS HH6 18528 0.1332 1.008000
18529 ca 16833 TPS CA5 18529 -0.1548 12.010000
18530 ha 16833 TPS HA5 18530 0.1282 1.008000
18531 ca 16833 TPS CA4 18531 -0.1028 12.010000
18532 ha 16833 TPS HA4 18532 0.1262 1.008000
18533 ca 16833 TPS CA3 18533 -0.1548 12.010000
18534 ha 16833 TPS HA3 18534 0.1282 1.008000
18535 ha 16834 TPS HA2 18535 0.1332 1.008000
18536 ca 16834 TPS CA2 18536 -0.0753 12.010000
18537 ca 16834 TPS CA1 18537 -0.361 12.010000
18538 si 16834 TPS Si 18538 1.1 28.085000
18539 ca 16834 TPS CA6 18539 -0.0753 12.010000
18540 ha 16834 TPS HH6 18540 0.1332 1.008000
18541 ca 16834 TPS CA5 18541 -0.1548 12.010000
18542 ha 16834 TPS HA5 18542 0.1282 1.008000
18543 ca 16834 TPS CA4 18543 -0.1028 12.010000
18544 ha 16834 TPS HA4 18544 0.1262 1.008000
18545 ca 16834 TPS CA3 18545 -0.1548 12.010000
18546 ha 16834 TPS HA3 18546 0.1282 1.008000
18547 ha 16835 TPS HA2 18547 0.1332 1.008000
18548 ca 16835 TPS CA2 18548 -0.0753 12.010000
18549 ca 16835 TPS CA1 18549 -0.361 12.010000
18550 si 16835 TPS Si 18550 1.1 28.085000
18551 ca 16835 TPS CA6 18551 -0.0753 12.010000
18552 ha 16835 TPS HH6 18552 0.1332 1.008000
18553 ca 16835 TPS CA5 18553 -0.1548 12.010000
18554 ha 16835 TPS HA5 18554 0.1282 1.008000
18555 ca 16835 TPS CA4 18555 -0.1028 12.010000
18556 ha 16835 TPS HA4 18556 0.1262 1.008000
18557 ca 16835 TPS CA3 18557 -0.1548 12.010000
18558 ha 16835 TPS HA3 18558 0.1282 1.008000
18559 ha 16836 TPS HA2 18559 0.1332 1.008000
18560 ca 16836 TPS CA2 18560 -0.0753 12.010000
18561 ca 16836 TPS CA1 18561 -0.361 12.010000
18562 si 16836 TPS Si 18562 1.1 28.085000
18563 ca 16836 TPS CA6 18563 -0.0753 12.010000
18564 ha 16836 TPS HH6 18564 0.1332 1.008000
18565 ca 16836 TPS CA5 18565 -0.1548 12.010000
18566 ha 16836 TPS HA5 18566 0.1282 1.008000
18567 ca 16836 TPS CA4 18567 -0.1028 12.010000
18568 ha 16836 TPS HA4 18568 0.1262 1.008000
18569 ca 16836 TPS CA3 18569 -0.1548 12.010000
18570 ha 16836 TPS HA3 18570 0.1282 1.008000
18571 ha 16837 TPS HA2 18571 0.1332 1.008000
18572 ca 16837 TPS CA2 18572 -0.0753 12.010000
18573 ca 16837 TPS CA1 18573 -0.361 12.010000
18574 si 16837 TPS Si 18574 1.1 28.085000
18575 ca 16837 TPS CA6 18575 -0.0753 12.010000
18576 ha 16837 TPS HH6 18576 0.1332 1.008000
18577 ca 16837 TPS CA5 18577 -0.1548 12.010000
18578 ha 16837 TPS HA5 18578 0.1282 1.008000
18579 ca 16837 TPS CA4 18579 -0.1028 12.010000
18580 ha 16837 TPS HA4 18580 0.1262 1.008000
18581 ca 16837 TPS CA3 18581 -0.1548 12.010000
18582 ha 16837 TPS HA3 18582 0.1282 1.008000
18583 ha 16838 TPS HA2 18583 0.1332 1.008000
18584 ca 16838 TPS CA2 18584 -0.0753 12.010000
18585 ca 16838 TPS CA1 18585 -0.361 12.010000
18586 si 16838 TPS Si 18586 1.1 28.085000
18587 ca 16838 TPS CA6 18587 -0.0753 12.010000
18588 ha 16838 TPS HH6 18588 0.1332 1.008000
18589 ca 16838 TPS CA5 18589 -0.1548 12.010000
18590 ha 16838 TPS HA5 18590 0.1282 1.008000
18591 ca 16838 TPS CA4 18591 -0.1028 12.010000
18592 ha 16838 TPS HA4 18592 0.1262 1.008000
18593 ca 16838 TPS CA3 18593 -0.1548 12.010000
18594 ha 16838 TPS HA3 18594 0.1282 1.008000
18595 ha 16839 TPS HA2 18595 0.1332 1.008000
18596 ca 16839 TPS CA2 18596 -0.0753 12.010000
18597 ca 16839 TPS CA1 18597 -0.361 12.010000
18598 si 16839 TPS Si 18598 1.1 28.085000
18599 ca 16839 TPS CA6 18599 -0.0753 12.010000
18600 ha 16839 TPS HH6 18600 0.1332 1.008000
18601 ca 16839 TPS CA5 18601 -0.1548 12.010000
18602 ha 16839 TPS HA5 18602 0.1282 1.008000
18603 ca 16839 TPS CA4 18603 -0.1028 12.010000
18604 ha 16839 TPS HA4 18604 0.1262 1.008000
18605 ca 16839 TPS CA3 18605 -0.1548 12.010000
18606 ha 16839 TPS HA3 18606 0.1282 1.008000
18607 ha 16840 TPS HA2 18607 0.1332 1.008000
18608 ca 16840 TPS CA2 18608 -0.0753 12.010000
18609 ca 16840 TPS CA1 18609 -0.361 12.010000
18610 si 16840 TPS Si 18610 1.1 28.085000
18611 ca 16840 TPS CA6 18611 -0.0753 12.010000
18612 ha 16840 TPS HH6 18612 0.1332 1.008000
18613 ca 16840 TPS CA5 18613 -0.1548 12.010000
18614 ha 16840 TPS HA5 18614 0.1282 1.008000
18615 ca 16840 TPS CA4 18615 -0.1028 12.010000
18616 ha 16840 TPS HA4 18616 0.1262 1.008000
18617 ca 16840 TPS CA3 18617 -0.1548 12.010000
18618 ha 16840 TPS HA3 18618 0.1282 1.008000
18619 ha 16841 TPS HA2 18619 0.1332 1.008000
18620 ca 16841 TPS CA2 18620 -0.0753 12.010000
18621 ca 16841 TPS CA1 18621 -0.361 12.010000
18622 si 16841 TPS Si 18622 1.1 28.085000
18623 ca 16841 TPS CA6 18623 -0.0753 12.010000
18624 ha 16841 TPS HH6 18624 0.1332 1.008000
18625 ca 16841 TPS CA5 18625 -0.1548 12.010000
18626 ha 16841 TPS HA5 18626 0.1282 1.008000
18627 ca 16841 TPS CA4 18627 -0.1028 12.010000
18628 ha 16841 TPS HA4 18628 0.1262 1.008000
18629 ca 16841 TPS CA3 18629 -0.1548 12.010000
18630 ha 16841 TPS HA3 18630 0.1282 1.008000
18631 ha 16842 TPS HA2 18631 0.1332 1.008000
18632 ca 16842 TPS CA2 18632 -0.0753 12.010000
18633 ca 16842 TPS CA1 18633 -0.361 12.010000
18634 si 16842 TPS Si 18634 1.1 28.085000
18635 ca 16842 TPS CA6 18635 -0.0753 12.010000
18636 ha 16842 TPS HH6 18636 0.1332 1.008000
18637 ca 16842 TPS CA5 18637 -0.1548 12.010000
18638 ha 16842 TPS HA5 18638 0.1282 1.008000
18639 ca 16842 TPS CA4 18639 -0.1028 12.010000
18640 ha 16842 TPS HA4 18640 0.1262 1.008000
18641 ca 16842 TPS CA3 18641 -0.1548 12.010000
18642 ha 16842 TPS HA3 18642 0.1282 1.008000
18643 ha 16843 TPS HA2 18643 0.1332 1.008000
18644 ca 16843 TPS CA2 18644 -0.0753 12.010000
18645 ca 16843 TPS CA1 18645 -0.361 12.010000
18646 si 16843 TPS Si 18646 1.1 28.085000
18647 ca 16843 TPS CA6 18647 -0.0753 12.010000
18648 ha 16843 TPS HH6 18648 0.1332 1.008000
18649 ca 16843 TPS CA5 18649 -0.1548 12.010000
18650 ha 16843 TPS HA5 18650 0.1282 1.008000
18651 ca 16843 TPS CA4 18651 -0.1028 12.010000
18652 ha 16843 TPS HA4 18652 0.1262 1.008000
18653 ca 16843 TPS CA3 18653 -0.1548 12.010000
18654 ha 16843 TPS HA3 18654 0.1282 1.008000
18655 ha 16844 TPS HA2 18655 0.1332 1.008000
18656 ca 16844 TPS CA2 18656 -0.0753 12.010000
18657 ca 16844 TPS CA1 18657 -0.361 12.010000
18658 si 16844 TPS Si 18658 1.1 28.085000
18659 ca 16844 TPS CA6 18659 -0.0753 12.010000
18660 ha 16844 TPS HH6 18660 0.1332 1.008000
18661 ca 16844 TPS CA5 18661 -0.1548 12.010000
18662 ha 16844 TPS HA5 18662 0.1282 1.008000
18663 ca 16844 TPS CA4 18663 -0.1028 12.010000
18664 ha 16844 TPS HA4 18664 0.1262 1.008000
18665 ca 16844 TPS CA3 18665 -0.1548 12.010000
18666 ha 16844 TPS HA3 18666 0.1282 1.008000
18667 ha 16845 TPS HA2 18667 0.1332 1.008000
18668 ca 16845 TPS CA2 18668 -0.0753 12.010000
18669 ca 16845 TPS CA1 18669 -0.361 12.010000
18670 si 16845 TPS Si 18670 1.1 28.085000
18671 ca 16845 TPS CA6 18671 -0.0753 12.010000
18672 ha 16845 TPS HH6 18672 0.1332 1.008000
18673 ca 16845 TPS CA5 18673 -0.1548 12.010000
18674 ha 16845 TPS HA5 18674 0.1282 1.008000
18675 ca 16845 TPS CA4 18675 -0.1028 12.010000
18676 ha 16845 TPS HA4 18676 0.1262 1.008000
18677 ca 16845 TPS CA3 18677 -0.1548 12.010000
18678 ha 16845 TPS HA3 18678 0.1282 1.008000
18679 ha 16846 TPS HA2 18679 0.1332 1.008000
18680 ca 16846 TPS CA2 18680 -0.0753 12.010000
18681 ca 16846 TPS CA1 18681 -0.361 12.010000
18682 si 16846 TPS Si 18682 1.1 28.085000
18683 ca 16846 TPS CA6 18683 -0.0753 12.010000
18684 ha 16846 TPS HH6 18684 0.1332 1.008000
18685 ca 16846 TPS CA5 18685 -0.1548 12.010000
18686 ha 16846 TPS HA5 18686 0.1282 1.008000
18687 ca 16846 TPS CA4 18687 -0.1028 12.010000
18688 ha 16846 TPS HA4 18688 0.1262 1.008000
18689 ca 16846 TPS CA3 18689 -0.1548 12.010000
18690 ha 16846 TPS HA3 18690 0.1282 1.008000
18691 ha 16847 TPS HA2 18691 0.1332 1.008000
18692 ca 16847 TPS CA2 18692 -0.0753 12.010000
18693 ca 16847 TPS CA1 18693 -0.361 12.010000
18694 si 16847 TPS Si 18694 1.1 28.085000
18695 ca 16847 TPS CA6 18695 -0.0753 12.010000
18696 ha 16847 TPS HH6 18696 0.1332 1.008000
18697 ca 16847 TPS CA5 18697 -0.1548 12.010000
18698 ha 16847 TPS HA5 18698 0.1282 1.008000
18699 ca 16847 TPS CA4 18699 -0.1028 12.010000
18700 ha 16847 TPS HA4 18700 0.1262 1.008000
18701 ca 16847 TPS CA3 18701 -0.1548 12.010000
18702 ha 16847 TPS HA3 18702 0.1282 1.008000
18703 ha 16848 TPS HA2 18703 0.1332 1.008000
18704 ca 16848 TPS CA2 18704 -0.0753 12.010000
18705 ca 16848 TPS CA1 18705 -0.361 12.010000
18706 si 16848 TPS Si 18706 1.1 28.085000
18707 ca 16848 TPS CA6 18707 -0.0753 12.010000
18708 ha 16848 TPS HH6 18708 0.1332 1.008000
18709 ca 16848 TPS CA5 18709 -0.1548 12.010000
18710 ha 16848 TPS HA5 18710 0.1282 1.008000
18711 ca 16848 TPS CA4 18711 -0.1028 12.010000
18712 ha 16848 TPS HA4 18712 0.1262 1.008000
18713 ca 16848 TPS CA3 18713 -0.1548 12.010000
18714 ha 16848 TPS HA3 18714 0.1282 1.008000
18715 ha 16849 TPS HA2 18715 0.1332 1.008000
18716 ca 16849 TPS CA2 18716 -0.0753 12.010000
18717 ca 16849 TPS CA1 18717 -0.361 12.010000
18718 si 16849 TPS Si 18718 1.1 28.085000
18719 ca 16849 TPS CA6 18719 -0.0753 12.010000
18720 ha 16849 TPS HH6 18720 0.1332 1.008000
18721 ca 16849 TPS CA5 18721 -0.1548 12.010000
18722 ha 16849 TPS HA5 18722 0.1282 1.008000
18723 ca 16849 TPS CA4 18723 -0.1028 12.010000
18724 ha 16849 TPS HA4 18724 0.1262 1.008000
18725 ca 16849 TPS CA3 18725 -0.1548 12.010000
18726 ha 16849 TPS HA3 18726 0.1282 1.008000
18727 ha 16850 TPS HA2 18727 0.1332 1.008000
18728 ca 16850 TPS CA2 18728 -0.0753 12.010000
18729 ca 16850 TPS CA1 18729 -0.361 12.010000
18730 si 16850 TPS Si 18730 1.1 28.085000
18731 ca 16850 TPS CA6 18731 -0.0753 12.010000
18732 ha 16850 TPS HH6 18732 0.1332 1.008000
18733 ca 16850 TPS CA5 18733 -0.1548 12.010000
18734 ha 16850 TPS HA5 18734 0.1282 1.008000
18735 ca 16850 TPS CA4 18735 -0.1028 12.010000
18736 ha 16850 TPS HA4 18736 0.1262 1.008000
18737 ca 16850 TPS CA3 18737 -0.1548 12.010000
18738 ha 16850 TPS HA3 18738 0.1282 1.008000
18739 ha 16851 TPS HA2 18739 0.1332 1.008000
18740 ca 16851 TPS CA2 18740 -0.0753 12.010000
18741 ca 16851 TPS CA1 18741 -0.361 12.010000
18742 si 16851 TPS Si 18742 1.1 28.085000
18743 ca 16851 TPS CA6 18743 -0.0753 12.010000
18744 ha 16851 TPS HH6 18744 0.1332 1.008000
18745 ca 16851 TPS CA5 18745 -0.1548 12.010000
18746 ha 16851 TPS HA5 18746 0.1282 1.008000
18747 ca 16851 TPS CA4 18747 -0.1028 12.010000
18748 ha 16851 TPS HA4 18748 0.1262 1.008000
18749 ca 16851 TPS CA3 18749 -0.1548 12.010000
18750 ha 16851 TPS HA3 18750 0.1282 1.008000
18751 ha 16852 TPS HA2 18751 0.1332 1.008000
18752 ca 16852 TPS CA2 18752 -0.0753 12.010000
18753 ca 16852 TPS CA1 18753 -0.361 12.010000
18754 si 16852 TPS Si 18754 1.1 28.085000
18755 ca 16852 TPS CA6 18755 -0.0753 12.010000
18756 ha 16852 TPS HH6 18756 0.1332 1.008000
18757 ca 16852 TPS CA5 18757 -0.1548 12.010000
18758 ha 16852 TPS HA5 18758 0.1282 1.008000
18759 ca 16852 TPS CA4 18759 -0.1028 12.010000
18760 ha 16852 TPS HA4 18760 0.1262 1.008000
18761 ca 16852 TPS CA3 18761 -0.1548 12.010000
18762 ha 16852 TPS HA3 18762 0.1282 1.008000
18763 ha 16853 TPS HA2 18763 0.1332 1.008000
18764 ca 16853 TPS CA2 18764 -0.0753 12.010000
18765 ca 16853 TPS CA1 18765 -0.361 12.010000
18766 si 16853 TPS Si 18766 1.1 28.085000
18767 ca 16853 TPS CA6 18767 -0.0753 12.010000
18768 ha 16853 TPS HH6 18768 0.1332 1.008000
18769 ca 16853 TPS CA5 18769 -0.1548 12.010000
18770 ha 16853 TPS HA5 18770 0.1282 1.008000
18771 ca 16853 TPS CA4 18771 -0.1028 12.010000
18772 ha 16853 TPS HA4 18772 0.1262 1.008000
18773 ca 16853 TPS CA3 18773 -0.1548 12.010000
18774 ha 16853 TPS HA3 18774 0.1282 1.008000
18775 ha 16854 TPS HA2 18775 0.1332 1.008000
18776 ca 16854 TPS CA2 18776 -0.0753 12.010000
18777 ca 16854 TPS CA1 18777 -0.361 12.010000
18778 si 16854 TPS Si 18778 1.1 28.085000
18779 ca 16854 TPS CA6 18779 -0.0753 12.010000
18780 ha 16854 TPS HH6 18780 0.1332 1.008000
18781 ca 16854 TPS CA5 18781 -0.1548 12.010000
18782 ha 16854 TPS HA5 18782 0.1282 1.008000
18783 ca 16854 TPS CA4 18783 -0.1028 12.010000
18784 ha 16854 TPS HA4 18784 0.1262 1.008000
18785 ca 16854 TPS CA3 18785 -0.1548 12.010000
18786 ha 16854 TPS HA3 18786 0.1282 1.008000
18787 ha 16855 TPS HA2 18787 0.1332 1.008000
18788 ca 16855 TPS CA2 18788 -0.0753 12.010000
18789 ca 16855 TPS CA1 18789 -0.361 12.010000
18790 si 16855 TPS Si 18790 1.1 28.085000
18791 ca 16855 TPS CA6 18791 -0.0753 12.010000
18792 ha 16855 TPS HH6 18792 0.1332 1.008000
18793 ca 16855 TPS CA5 18793 -0.1548 12.010000
18794 ha 16855 TPS HA5 18794 0.1282 1.008000
18795 ca 16855 TPS CA4 18795 -0.1028 12.010000
18796 ha 16855 TPS HA4 18796 0.1262 1.008000
18797 ca 16855 TPS CA3 18797 -0.1548 12.010000
18798 ha 16855 TPS HA3 18798 0.1282 1.008000
18799 ha 16856 TPS HA2 18799 0.1332 1.008000
18800 ca 16856 TPS CA2 18800 -0.0753 12.010000
18801 ca 16856 TPS CA1 18801 -0.361 12.010000
18802 si 16856 TPS Si 18802 1.1 28.085000
18803 ca 16856 TPS CA6 18803 -0.0753 12.010000
18804 ha 16856 TPS HH6 18804 0.1332 1.008000
18805 ca 16856 TPS CA5 18805 -0.1548 12.010000
18806 ha 16856 TPS HA5 18806 0.1282 1.008000
18807 ca 16856 TPS CA4 18807 -0.1028 12.010000
18808 ha 16856 TPS HA4 18808 0.1262 1.008000
18809 ca 16856 TPS CA3 18809 -0.1548 12.010000
18810 ha 16856 TPS HA3 18810 0.1282 1.008000
18811 ha 16857 TPS HA2 18811 0.1332 1.008000
18812 ca 16857 TPS CA2 18812 -0.0753 12.010000
18813 ca 16857 TPS CA1 18813 -0.361 12.010000
18814 si 16857 TPS Si 18814 1.1 28.085000
18815 ca 16857 TPS CA6 18815 -0.0753 12.010000
18816 ha 16857 TPS HH6 18816 0.1332 1.008000
18817 ca 16857 TPS CA5 18817 -0.1548 12.010000
18818 ha 16857 TPS HA5 18818 0.1282 1.008000
18819 ca 16857 TPS CA4 18819 -0.1028 12.010000
18820 ha 16857 TPS HA4 18820 0.1262 1.008000
18821 ca 16857 TPS CA3 18821 -0.1548 12.010000
18822 ha 16857 TPS HA3 18822 0.1282 1.008000
18823 ha 16858 TPS HA2 18823 0.1332 1.008000
18824 ca 16858 TPS CA2 18824 -0.0753 12.010000
18825 ca 16858 TPS CA1 18825 -0.361 12.010000
18826 si 16858 TPS Si 18826 1.1 28.085000
18827 ca 16858 TPS CA6 18827 -0.0753 12.010000
18828 ha 16858 TPS HH6 18828 0.1332 1.008000
18829 ca 16858 TPS CA5 18829 -0.1548 12.010000
18830 ha 16858 TPS HA5 18830 0.1282 1.008000
18831 ca 16858 TPS CA4 18831 -0.1028 12.010000
18832 ha 16858 TPS HA4 18832 0.1262 1.008000
18833 ca 16858 TPS CA3 18833 -0.1548 12.010000
18834 ha 16858 TPS HA3 18834 0.1282 1.008000
18835 ha 16859 TPS HA2 18835 0.1332 1.008000
18836 ca 16859 TPS CA2 18836 -0.0753 12.010000
18837 ca 16859 TPS CA1 18837 -0.361 12.010000
18838 si 16859 TPS Si 18838 1.1 28.085000
18839 ca 16859 TPS CA6 18839 -0.0753 12.010000
18840 ha 16859 TPS HH6 18840 0.1332 1.008000
18841 ca 16859 TPS CA5 18841 -0.1548 12.010000
18842 ha 16859 TPS HA5 18842 0.1282 1.008000
18843 ca 16859 TPS CA4 18843 -0.1028 12.010000
18844 ha 16859 TPS HA4 18844 0.1262 1.008000
18845 ca 16859 TPS CA3 18845 -0.1548 12.010000
18846 ha 16859 TPS HA3 18846 0.1282 1.008000
18847 ha 16860 TPS HA2 18847 0.1332 1.008000
18848 ca 16860 TPS CA2 18848 -0.0753 12.010000
18849 ca 16860 TPS CA1 18849 -0.361 12.010000
18850 si 16860 TPS Si 18850 1.1 28.085000
18851 ca 16860 TPS CA6 18851 -0.0753 12.010000
18852 ha 16860 TPS HH6 18852 0.1332 1.008000
18853 ca 16860 TPS CA5 18853 -0.1548 12.010000
18854 ha 16860 TPS HA5 18854 0.1282 1.008000
18855 ca 16860 TPS CA4 18855 -0.1028 12.010000
18856 ha 16860 TPS HA4 18856 0.1262 1.008000
18857 ca 16860 TPS CA3 18857 -0.1548 12.010000
18858 ha 16860 TPS HA3 18858 0.1282 1.008000
18859 ha 16861 TPS HA2 18859 0.1332 1.008000
18860 ca 16861 TPS CA2 18860 -0.0753 12.010000
18861 ca 16861 TPS CA1 18861 -0.361 12.010000
18862 si 16861 TPS Si 18862 1.1 28.085000
18863 ca 16861 TPS CA6 18863 -0.0753 12.010000
18864 ha 16861 TPS HH6 18864 0.1332 1.008000
18865 ca 16861 TPS CA5 18865 -0.1548 12.010000
18866 ha 16861 TPS HA5 18866 0.1282 1.008000
18867 ca 16861 TPS CA4 18867 -0.1028 12.010000
18868 ha 16861 TPS HA4 18868 0.1262 1.008000
18869 ca 16861 TPS CA3 18869 -0.1548 12.010000
18870 ha 16861 TPS HA3 18870 0.1282 1.008000
18871 ha 16862 TPS HA2 18871 0.1332 1.008000
18872 ca 16862 TPS CA2 18872 -0.0753 12.010000
18873 ca 16862 TPS CA1 18873 -0.361 12.010000
18874 si 16862 TPS Si 18874 1.1 28.085000
18875 ca 16862 TPS CA6 18875 -0.0753 12.010000
18876 ha 16862 TPS HH6 18876 0.1332 1.008000
18877 ca 16862 TPS CA5 18877 -0.1548 12.010000
18878 ha 16862 TPS HA5 18878 0.1282 1.008000
18879 ca 16862 TPS CA4 18879 -0.1028 12.010000
18880 ha 16862 TPS HA4 18880 0.1262 1.008000
18881 ca 16862 TPS CA3 18881 -0.1548 12.010000
18882 ha 16862 TPS HA3 18882 0.1282 1.008000
18883 ha 16863 TPS HA2 18883 0.1332 1.008000
18884 ca 16863 TPS CA2 18884 -0.0753 12.010000
18885 ca 16863 TPS CA1 18885 -0.361 12.010000
18886 si 16863 TPS Si 18886 1.1 28.085000
18887 ca 16863 TPS CA6 18887 -0.0753 12.010000
18888 ha 16863 TPS HH6 18888 0.1332 1.008000
18889 ca 16863 TPS CA5 18889 -0.1548 12.010000
18890 ha 16863 TPS HA5 18890 0.1282 1.008000
18891 ca 16863 TPS CA4 18891 -0.1028 12.010000
18892 ha 16863 TPS HA4 18892 0.1262 1.008000
18893 ca 16863 TPS CA3 18893 -0.1548 12.010000
18894 ha 16863 TPS HA3 18894 0.1282 1.008000
18895 ha 16864 TPS HA2 18895 0.1332 1.008000
18896 ca 16864 TPS CA2 18896 -0.0753 12.010000
18897 ca 16864 TPS CA1 18897 -0.361 12.010000
18898 si 16864 TPS Si 18898 1.1 28.085000
18899 ca 16864 TPS CA6 18899 -0.0753 12.010000
18900 ha 16864 TPS HH6 18900 0.1332 1.008000
18901 ca 16864 TPS CA5 18901 -0.1548 12.010000
18902 ha 16864 TPS HA5 18902 0.1282 1.008000
18903 ca 16864 TPS CA4 18903 -0.1028 12.010000
18904 ha 16864 TPS HA4 18904 0.1262 1.008000
18905 ca 16864 TPS CA3 18905 -0.1548 12.010000
18906 ha 16864 TPS HA3 18906 0.1282 1.008000
18907 ha 16865 TPS HA2 18907 0.1332 1.008000
18908 ca 16865 TPS CA2 18908 -0.0753 12.010000
18909 ca 16865 TPS CA1 18909 -0.361 12.010000
18910 si 16865 TPS Si 18910 1.1 28.085000
18911 ca 16865 TPS CA6 18911 -0.0753 12.010000
18912 ha 16865 TPS HH6 18912 0.1332 1.008000
18913 ca 16865 TPS CA5 18913 -0.1548 12.010000
18914 ha 16865 TPS HA5 18914 0.1282 1.008000
18915 ca 16865 TPS CA4 18915 -0.1028 12.010000
18916 ha 16865 TPS HA4 18916 0.1262 1.008000
18917 ca 16865 TPS CA3 18917 -0.1548 12.010000
18918 ha 16865 TPS HA3 18918 0.1282 1.008000
18919 ha 16866 TPS HA2 18919 0.1332 1.008000
18920 ca 16866 TPS CA2 18920 -0.0753 12.010000
18921 ca 16866 TPS CA1 18921 -0.361 12.010000
18922 si 16866 TPS Si 18922 1.1 28.085000
18923 ca 16866 TPS CA6 18923 -0.0753 12.010000
18924 ha 16866 TPS HH6 18924 0.1332 1.008000
18925 ca 16866 TPS CA5 18925 -0.1548 12.010000
18926 ha 16866 TPS HA5 18926 0.1282 1.008000
18927 ca 16866 TPS CA4 18927 -0.1028 12.010000
18928 ha 16866 TPS HA4 18928 0.1262 1.008000
18929 ca 16866 TPS CA3 18929 -0.1548 12.010000
18930 ha 16866 TPS HA3 18930 0.1282 1.008000
18931 ha 16867 TPS HA2 18931 0.1332 1.008000
18932 ca 16867 TPS CA2 18932 -0.0753 12.010000
18933 ca 16867 TPS CA1 18933 -0.361 12.010000
18934 si 16867 TPS Si 18934 1.1 28.085000
18935 ca 16867 TPS CA6 18935 -0.0753 12.010000
18936 ha 16867 TPS HH6 18936 0.1332 1.008000
18937 ca 16867 TPS CA5 18937 -0.1548 12.010000
18938 ha 16867 TPS HA5 18938 0.1282 1.008000
18939 ca 16867 TPS CA4 18939 -0.1028 12.010000
18940 ha 16867 TPS HA4 18940 0.1262 1.008000
18941 ca 16867 TPS CA3 18941 -0.1548 12.010000
18942 ha 16867 TPS HA3 18942 0.1282 1.008000
18943 ha 16868 TPS HA2 18943 0.1332 1.008000
18944 ca 16868 TPS CA2 18944 -0.0753 12.010000
18945 ca 16868 TPS CA1 18945 -0.361 12.010000
18946 si 16868 TPS Si 18946 1.1 28.085000
18947 ca 16868 TPS CA6 18947 -0.0753 12.010000
18948 ha 16868 TPS HH6 18948 0.1332 1.008000
18949 ca 16868 TPS CA5 18949 -0.1548 12.010000
18950 ha 16868 TPS HA5 18950 0.1282 1.008000
18951 ca 16868 TPS CA4 18951 -0.1028 12.010000
18952 ha 16868 TPS HA4 18952 0.1262 1.008000
18953 ca 16868 TPS CA3 18953 -0.1548 12.010000
18954 ha 16868 TPS HA3 18954 0.1282 1.008000
18955 ha 16869 TPS HA2 18955 0.1332 1.008000
18956 ca 16869 TPS CA2 18956 -0.0753 12.010000
18957 ca 16869 TPS CA1 18957 -0.361 12.010000
18958 si 16869 TPS Si 18958 1.1 28.085000
18959 ca 16869 TPS CA6 18959 -0.0753 12.010000
18960 ha 16869 TPS HH6 18960 0.1332 1.008000
18961 ca 16869 TPS CA5 18961 -0.1548 12.010000
18962 ha 16869 TPS HA5 18962 0.1282 1.008000
18963 ca 16869 TPS CA4 18963 -0.1028 12.010000
18964 ha 16869 TPS HA4 18964 0.1262 1.008000
18965 ca 16869 TPS CA3 18965 -0.1548 12.010000
18966 ha 16869 TPS HA3 18966 0.1282 1.008000
18967 ha 16870 TPS HA2 18967 0.1332 1.008000
18968 ca 16870 TPS CA2 18968 -0.0753 12.010000
18969 ca 16870 TPS CA1 18969 -0.361 12.010000
18970 si 16870 TPS Si 18970 1.1 28.085000
18971 ca 16870 TPS CA6 18971 -0.0753 12.010000
18972 ha 16870 TPS HH6 18972 0.1332 1.008000
18973 ca 16870 TPS CA5 18973 -0.1548 12.010000
18974 ha 16870 TPS HA5 18974 0.1282 1.008000
18975 ca 16870 TPS CA4 18975 -0.1028 12.010000
18976 ha 16870 TPS HA4 18976 0.1262 1.008000
18977 ca 16870 TPS CA3 18977 -0.1548 12.010000
18978 ha 16870 TPS HA3 18978 0.1282 1.008000
18979 ha 16871 TPS HA2 18979 0.1332 1.008000
18980 ca 16871 TPS CA2 18980 -0.0753 12.010000
18981 ca 16871 TPS CA1 18981 -0.361 12.010000
18982 si 16871 TPS Si 18982 1.1 28.085000
18983 ca 16871 TPS CA6 18983 -0.0753 12.010000
18984 ha 16871 TPS HH6 18984 0.1332 1.008000
18985 ca 16871 TPS CA5 18985 -0.1548 12.010000
18986 ha 16871 TPS HA5 18986 0.1282 1.008000
18987 ca 16871 TPS CA4 18987 -0.1028 12.010000
18988 ha 16871 TPS HA4 18988 0.1262 1.008000
18989 ca 16871 TPS CA3 18989 -0.1548 12.010000
18990 ha 16871 TPS HA3 18990 0.1282 1.008000
18991 ha 16872 TPS HA2 18991 0.1332 1.008000
18992 ca 16872 TPS CA2 18992 -0.0753 12.010000
18993 ca 16872 TPS CA1 18993 -0.361 12.010000
18994 si 16872 TPS Si 18994 1.1 28.085000
18995 ca 16872 TPS CA6 18995 -0.0753 12.010000
18996 ha 16872 TPS HH6 18996 0.1332 1.008000
18997 ca 16872 TPS CA5 18997 -0.1548 12.010000
18998 ha 16872 TPS HA5 18998 0.1282 1.008000
18999 ca 16872 TPS CA4 18999 -0.1028 12.010000
19000 ha 16872 TPS HA4 19000 0.1262 1.008000
19001 ca 16872 TPS CA3 19001 -0.1548 12.010000
19002 ha 16872 TPS HA3 19002 0.1282 1.008000
19003 ha 16873 TPS HA2 19003 0.1332 1.008000
19004 ca 16873 TPS CA2 19004 -0.0753 12.010000
19005 ca 16873 TPS CA1 19005 -0.361 12.010000
19006 si 16873 TPS Si 19006 1.1 28.085000
19007 ca 16873 TPS CA6 19007 -0.0753 12.010000
19008 ha 16873 TPS HH6 19008 0.1332 1.008000
19009 ca 16873 TPS CA5 19009 -0.1548 12.010000
19010 ha 16873 TPS HA5 19010 0.1282 1.008000
19011 ca 16873 TPS CA4 19011 -0.1028 12.010000
19012 ha 16873 TPS HA4 19012 0.1262 1.008000
19013 ca 16873 TPS CA3 19013 -0.1548 12.010000
19014 ha 16873 TPS HA3 19014 0.1282 1.008000
19015 ha 16874 TPS HA2 19015 0.1332 1.008000
19016 ca 16874 TPS CA2 19016 -0.0753 12.010000
19017 ca 16874 TPS CA1 19017 -0.361 12.010000
19018 si 16874 TPS Si 19018 1.1 28.085000
19019 ca 16874 TPS CA6 19019 -0.0753 12.010000
19020 ha 16874 TPS HH6 19020 0.1332 1.008000
19021 ca 16874 TPS CA5 19021 -0.1548 12.010000
19022 ha 16874 TPS HA5 19022 0.1282 1.008000
19023 ca 16874 TPS CA4 19023 -0.1028 12.010000
19024 ha 16874 TPS HA4 19024 0.1262 1.008000
19025 ca 16874 TPS CA3 19025 -0.1548 12.010000
19026 ha 16874 TPS HA3 19026 0.1282 1.008000
19027 ha 16875 TPS HA2 19027 0.1332 1.008000
19028 ca 16875 TPS CA2 19028 -0.0753 12.010000
19029 ca 16875 TPS CA1 19029 -0.361 12.010000
19030 si 16875 TPS Si 19030 1.1 28.085000
19031 ca 16875 TPS CA6 19031 -0.0753 12.010000
19032 ha 16875 TPS HH6 19032 0.1332 1.008000
19033 ca 16875 TPS CA5 19033 -0.1548 12.010000
19034 ha 16875 TPS HA5 19034 0.1282 1.008000
19035 ca 16875 TPS CA4 19035 -0.1028 12.010000
19036 ha 16875 TPS HA4 19036 0.1262 1.008000
19037 ca 16875 TPS CA3 19037 -0.1548 12.010000
19038 ha 16875 TPS HA3 19038 0.1282 1.008000
19039 ha 16876 TPS HA2 19039 0.1332 1.008000
19040 ca 16876 TPS CA2 19040 -0.0753 12.010000
19041 ca 16876 TPS CA1 19041 -0.361 12.010000
19042 si 16876 TPS Si 19042 1.1 28.085000
19043 ca 16876 TPS CA6 19043 -0.0753 12.010000
19044 ha 16876 TPS HH6 19044 0.1332 1.008000
19045 ca 16876 TPS CA5 19045 -0.1548 12.010000
19046 ha 16876 TPS HA5 19046 0.1282 1.008000
19047 ca 16876 TPS CA4 19047 -0.1028 12.010000
19048 ha 16876 TPS HA4 19048 0.1262 1.008000
19049 ca 16876 TPS CA3 19049 -0.1548 12.010000
19050 ha 16876 TPS HA3 19050 0.1282 1.008000
19051 ha 16877 TPS HA2 19051 0.1332 1.008000
19052 ca 16877 TPS CA2 19052 -0.0753 12.010000
19053 ca 16877 TPS CA1 19053 -0.361 12.010000
19054 si 16877 TPS Si 19054 1.1 28.085000
19055 ca 16877 TPS CA6 19055 -0.0753 12.010000
19056 ha 16877 TPS HH6 19056 0.1332 1.008000
19057 ca 16877 TPS CA5 19057 -0.1548 12.010000
19058 ha 16877 TPS HA5 19058 0.1282 1.008000
19059 ca 16877 TPS CA4 19059 -0.1028 12.010000
19060 ha 16877 TPS HA4 19060 0.1262 1.008000
19061 ca 16877 TPS CA3 19061 -0.1548 12.010000
19062 ha 16877 TPS HA3 19062 0.1282 1.008000
19063 ha 16878 TPS HA2 19063 0.1332 1.008000
19064 ca 16878 TPS CA2 19064 -0.0753 12.010000
19065 ca 16878 TPS CA1 19065 -0.361 12.010000
19066 si 16878 TPS Si 19066 1.1 28.085000
19067 ca 16878 TPS CA6 19067 -0.0753 12.010000
19068 ha 16878 TPS HH6 19068 0.1332 1.008000
19069 ca 16878 TPS CA5 19069 -0.1548 12.010000
19070 ha 16878 TPS HA5 19070 0.1282 1.008000
19071 ca 16878 TPS CA4 19071 -0.1028 12.010000
19072 ha 16878 TPS HA4 19072 0.1262 1.008000
19073 ca 16878 TPS CA3 19073 -0.1548 12.010000
19074 ha 16878 TPS HA3 19074 0.1282 1.008000
19075 ha 16879 TPS HA2 19075 0.1332 1.008000
19076 ca 16879 TPS CA2 19076 -0.0753 12.010000
19077 ca 16879 TPS CA1 19077 -0.361 12.010000
19078 si 16879 TPS Si 19078 1.1 28.085000
19079 ca 16879 TPS CA6 19079 -0.0753 12.010000
19080 ha 16879 TPS HH6 19080 0.1332 1.008000
19081 ca 16879 TPS CA5 19081 -0.1548 12.010000
19082 ha 16879 TPS HA5 19082 0.1282 1.008000
19083 ca 16879 TPS CA4 19083 -0.1028 12.010000
19084 ha 16879 TPS HA4 19084 0.1262 1.008000
19085 ca 16879 TPS CA3 19085 -0.1548 12.010000
19086 ha 16879 TPS HA3 19086 0.1282 1.008000
19087 ha 16880 TPS HA2 19087 0.1332 1.008000
19088 ca 16880 TPS CA2 19088 -0.0753 12.010000
19089 ca 16880 TPS CA1 19089 -0.361 12.010000
19090 si 16880 TPS Si 19090 1.1 28.085000
19091 ca 16880 TPS CA6 19091 -0.0753 12.010000
19092 ha 16880 TPS HH6 19092 0.1332 1.008000
19093 ca 16880 TPS CA5 19093 -0.1548 12.010000
19094 ha 16880 TPS HA5 19094 0.1282 1.008000
19095 ca 16880 TPS CA4 19095 -0.1028 12.010000
19096 ha 16880 TPS HA4 19096 0.1262 1.008000
19097 ca 16880 TPS CA3 19097 -0.1548 12.010000
19098 ha 16880 TPS HA3 19098 0.1282 1.008000
19099 ha 16881 TPS HA2 19099 0.1332 1.008000
19100 ca 16881 TPS CA2 19100 -0.0753 12.010000
19101 ca 16881 TPS CA1 19101 -0.361 12.010000
19102 si 16881 TPS Si 19102 1.1 28.085000
19103 ca 16881 TPS CA6 19103 -0.0753 12.010000
19104 ha 16881 TPS HH6 19104 0.1332 1.008000
19105 ca 16881 TPS CA5 19105 -0.1548 12.010000
19106 ha 16881 TPS HA5 19106 0.1282 1.008000
19107 ca 16881 TPS CA4 19107 -0.1028 12.010000
19108 ha 16881 TPS HA4 19108 0.1262 1.008000
19109 ca 16881 TPS CA3 19109 -0.1548 12.010000
19110 ha 16881 TPS HA3 19110 0.1282 1.008000
19111 ha 16882 TPS HA2 19111 0.1332 1.008000
19112 ca 16882 TPS CA2 19112 -0.0753 12.010000
19113 ca 16882 TPS CA1 19113 -0.361 12.010000
19114 si 16882 TPS Si 19114 1.1 28.085000
19115 ca 16882 TPS CA6 19115 -0.0753 12.010000
19116 ha 16882 TPS HH6 19116 0.1332 1.008000
19117 ca 16882 TPS CA5 19117 -0.1548 12.010000
19118 ha 16882 TPS HA5 19118 0.1282 1.008000
19119 ca 16882 TPS CA4 19119 -0.1028 12.010000
19120 ha 16882 TPS HA4 19120 0.1262 1.008000
19121 ca 16882 TPS CA3 19121 -0.1548 12.010000
19122 ha 16882 TPS HA3 19122 0.1282 1.008000
19123 ha 16883 TPS HA2 19123 0.1332 1.008000
19124 ca 16883 TPS CA2 19124 -0.0753 12.010000
19125 ca 16883 TPS CA1 19125 -0.361 12.010000
19126 si 16883 TPS Si 19126 1.1 28.085000
19127 ca 16883 TPS CA6 19127 -0.0753 12.010000
19128 ha 16883 TPS HH6 19128 0.1332 1.008000
19129 ca 16883 TPS CA5 19129 -0.1548 12.010000
19130 ha 16883 TPS HA5 19130 0.1282 1.008000
19131 ca 16883 TPS CA4 19131 -0.1028 12.010000
19132 ha 16883 TPS HA4 19132 0.1262 1.008000
19133 ca 16883 TPS CA3 19133 -0.1548 12.010000
19134 ha 16883 TPS HA3 19134 0.1282 1.008000
19135 ha 16884 TPS HA2 19135 0.1332 1.008000
19136 ca 16884 TPS CA2 19136 -0.0753 12.010000
19137 ca 16884 TPS CA1 19137 -0.361 12.010000
19138 si 16884 TPS Si 19138 1.1 28.085000
19139 ca 16884 TPS CA6 19139 -0.0753 12.010000
19140 ha 16884 TPS HH6 19140 0.1332 1.008000
19141 ca 16884 TPS CA5 19141 -0.1548 12.010000
19142 ha 16884 TPS HA5 19142 0.1282 1.008000
19143 ca 16884 TPS CA4 19143 -0.1028 12.010000
19144 ha 16884 TPS HA4 19144 0.1262 1.008000
19145 ca 16884 TPS CA3 19145 -0.1548 12.010000
19146 ha 16884 TPS HA3 19146 0.1282 1.008000
19147 ha 16885 TPS HA2 19147 0.1332 1.008000
19148 ca 16885 TPS CA2 19148 -0.0753 12.010000
19149 ca 16885 TPS CA1 19149 -0.361 12.010000
19150 si 16885 TPS Si 19150 1.1 28.085000
19151 ca 16885 TPS CA6 19151 -0.0753 12.010000
19152 ha 16885 TPS HH6 19152 0.1332 1.008000
19153 ca 16885 TPS CA5 19153 -0.1548 12.010000
19154 ha 16885 TPS HA5 19154 0.1282 1.008000
19155 ca 16885 TPS CA4 19155 -0.1028 12.010000
19156 ha 16885 TPS HA4 19156 0.1262 1.008000
19157 ca 16885 TPS CA3 19157 -0.1548 12.010000
19158 ha 16885 TPS HA3 19158 0.1282 1.008000
19159 ha 16886 TPS HA2 19159 0.1332 1.008000
19160 ca 16886 TPS CA2 19160 -0.0753 12.010000
19161 ca 16886 TPS CA1 19161 -0.361 12.010000
19162 si 16886 TPS Si 19162 1.1 28.085000
19163 ca 16886 TPS CA6 19163 -0.0753 12.010000
19164 ha 16886 TPS HH6 19164 0.1332 1.008000
19165 ca 16886 TPS CA5 19165 -0.1548 12.010000
19166 ha 16886 TPS HA5 19166 0.1282 1.008000
19167 ca 16886 TPS CA4 19167 -0.1028 12.010000
19168 ha 16886 TPS HA4 19168 0.1262 1.008000
19169 ca 16886 TPS CA3 19169 -0.1548 12.010000
19170 ha 16886 TPS HA3 19170 0.1282 1.008000
19171 ha 16887 TPS HA2 19171 0.1332 1.008000
19172 ca 16887 TPS CA2 19172 -0.0753 12.010000
19173 ca 16887 TPS CA1 19173 -0.361 12.010000
19174 si 16887 TPS Si 19174 1.1 28.085000
19175 ca 16887 TPS CA6 19175 -0.0753 12.010000
19176 ha 16887 TPS HH6 19176 0.1332 1.008000
19177 ca 16887 TPS CA5 19177 -0.1548 12.010000
19178 ha 16887 TPS HA5 19178 0.1282 1.008000
19179 ca 16887 TPS CA4 19179 -0.1028 12.010000
19180 ha 16887 TPS HA4 19180 0.1262 1.008000
19181 ca 16887 TPS CA3 19181 -0.1548 12.010000
19182 ha 16887 TPS HA3 19182 0.1282 1.008000
19183 ha 16888 TPS HA2 19183 0.1332 1.008000
19184 ca 16888 TPS CA2 19184 -0.0753 12.010000
19185 ca 16888 TPS CA1 19185 -0.361 12.010000
19186 si 16888 TPS Si 19186 1.1 28.085000
19187 ca 16888 TPS CA6 19187 -0.0753 12.010000
19188 ha 16888 TPS HH6 19188 0.1332 1.008000
19189 ca 16888 TPS CA5 19189 -0.1548 12.010000
19190 ha 16888 TPS HA5 19190 0.1282 1.008000
19191 ca 16888 TPS CA4 19191 -0.1028 12.010000
19192 ha 16888 TPS HA4 19192 0.1262 1.008000
19193 ca 16888 TPS CA3 19193 -0.1548 12.010000
19194 ha 16888 TPS HA3 19194 0.1282 1.008000
19195 ha 16889 TPS HA2 19195 0.1332 1.008000
19196 ca 16889 TPS CA2 19196 -0.0753 12.010000
19197 ca 16889 TPS CA1 19197 -0.361 12.010000
19198 si 16889 TPS Si 19198 1.1 28.085000
19199 ca 16889 TPS CA6 19199 -0.0753 12.010000
19200 ha 16889 TPS HH6 19200 0.1332 1.008000
19201 ca 16889 TPS CA5 19201 -0.1548 12.010000
19202 ha 16889 TPS HA5 19202 0.1282 1.008000
19203 ca 16889 TPS CA4 19203 -0.1028 12.010000
19204 ha 16889 TPS HA4 19204 0.1262 1.008000
19205 ca 16889 TPS CA3 19205 -0.1548 12.010000
19206 ha 16889 TPS HA3 19206 0.1282 1.008000
19207 ha 16890 TPS HA2 19207 0.1332 1.008000
19208 ca 16890 TPS CA2 19208 -0.0753 12.010000
19209 ca 16890 TPS CA1 19209 -0.361 12.010000
19210 si 16890 TPS Si 19210 1.1 28.085000
19211 ca 16890 TPS CA6 19211 -0.0753 12.010000
19212 ha 16890 TPS HH6 19212 0.1332 1.008000
19213 ca 16890 TPS CA5 19213 -0.1548 12.010000
19214 ha 16890 TPS HA5 19214 0.1282 1.008000
19215 ca 16890 TPS CA4 19215 -0.1028 12.010000
19216 ha 16890 TPS HA4 19216 0.1262 1.008000
19217 ca 16890 TPS CA3 19217 -0.1548 12.010000
19218 ha 16890 TPS HA3 19218 0.1282 1.008000
19219 ha 16891 TPS HA2 19219 0.1332 1.008000
19220 ca 16891 TPS CA2 19220 -0.0753 12.010000
19221 ca 16891 TPS CA1 19221 -0.361 12.010000
19222 si 16891 TPS Si 19222 1.1 28.085000
19223 ca 16891 TPS CA6 19223 -0.0753 12.010000
19224 ha 16891 TPS HH6 19224 0.1332 1.008000
19225 ca 16891 TPS CA5 19225 -0.1548 12.010000
19226 ha 16891 TPS HA5 19226 0.1282 1.008000
19227 ca 16891 TPS CA4 19227 -0.1028 12.010000
19228 ha 16891 TPS HA4 19228 0.1262 1.008000
19229 ca 16891 TPS CA3 19229 -0.1548 12.010000
19230 ha 16891 TPS HA3 19230 0.1282 1.008000
19231 ha 16892 TPS HA2 19231 0.1332 1.008000
19232 ca 16892 TPS CA2 19232 -0.0753 12.010000
19233 ca 16892 TPS CA1 19233 -0.361 12.010000
19234 si 16892 TPS Si 19234 1.1 28.085000
19235 ca 16892 TPS CA6 19235 -0.0753 12.010000
19236 ha 16892 TPS HH6 19236 0.1332 1.008000
19237 ca 16892 TPS CA5 19237 -0.1548 12.010000
19238 ha 16892 TPS HA5 19238 0.1282 1.008000
19239 ca 16892 TPS CA4 19239 -0.1028 12.010000
19240 ha 16892 TPS HA4 19240 0.1262 1.008000
19241 ca 16892 TPS CA3 19241 -0.1548 12.010000
19242 ha 16892 TPS HA3 19242 0.1282 1.008000
19243 ha 16893 TPS HA2 19243 0.1332 1.008000
19244 ca 16893 TPS CA2 19244 -0.0753 12.010000
19245 ca 16893 TPS CA1 19245 -0.361 12.010000
19246 si 16893 TPS Si 19246 1.1 28.085000
19247 ca 16893 TPS CA6 19247 -0.0753 12.010000
19248 ha 16893 TPS HH6 19248 0.1332 1.008000
19249 ca 16893 TPS CA5 19249 -0.1548 12.010000
19250 ha 16893 TPS HA5 19250 0.1282 1.008000
19251 ca 16893 TPS CA4 19251 -0.1028 12.010000
19252 ha 16893 TPS HA4 19252 0.1262 1.008000
19253 ca 16893 TPS CA3 19253 -0.1548 12.010000
19254 ha 16893 TPS HA3 19254 0.1282 1.008000
19255 ha 16894 TPS HA2 19255 0.1332 1.008000
19256 ca 16894 TPS CA2 19256 -0.0753 12.010000
19257 ca 16894 TPS CA1 19257 -0.361 12.010000
19258 si 16894 TPS Si 19258 1.1 28.085000
19259 ca 16894 TPS CA6 19259 -0.0753 12.010000
19260 ha 16894 TPS HH6 19260 0.1332 1.008000
19261 ca 16894 TPS CA5 19261 -0.1548 12.010000
19262 ha 16894 TPS HA5 19262 0.1282 1.008000
19263 ca 16894 TPS CA4 19263 -0.1028 12.010000
19264 ha 16894 TPS HA4 19264 0.1262 1.008000
19265 ca 16894 TPS CA3 19265 -0.1548 12.010000
19266 ha 16894 TPS HA3 19266 0.1282 1.008000
19267 ha 16895 TPS HA2 19267 0.1332 1.008000
19268 ca 16895 TPS CA2 19268 -0.0753 12.010000
19269 ca 16895 TPS CA1 19269 -0.361 12.010000
19270 si 16895 TPS Si 19270 1.1 28.085000
19271 ca 16895 TPS CA6 19271 -0.0753 12.010000
19272 ha 16895 TPS HH6 19272 0.1332 1.008000
19273 ca 16895 TPS CA5 19273 -0.1548 12.010000
19274 ha 16895 TPS HA5 19274 0.1282 1.008000
19275 ca 16895 TPS CA4 19275 -0.1028 12.010000
19276 ha 16895 TPS HA4 19276 0.1262 1.008000
19277 ca 16895 TPS CA3 19277 -0.1548 12.010000
19278 ha 16895 TPS HA3 19278 0.1282 1.008000
19279 ha 16896 TPS HA2 19279 0.1332 1.008000
19280 ca 16896 TPS CA2 19280 -0.0753 12.010000
19281 ca 16896 TPS CA1 19281 -0.361 12.010000
19282 si 16896 TPS Si 19282 1.1 28.085000
19283 ca 16896 TPS CA6 19283 -0.0753 12.010000
19284 ha 16896 TPS HH6 19284 0.1332 1.008000
19285 ca 16896 TPS CA5 19285 -0.1548 12.010000
19286 ha 16896 TPS HA5 19286 0.1282 1.008000
19287 ca 16896 TPS CA4 19287 -0.1028 12.010000
19288 ha 16896 TPS HA4 19288 0.1262 1.008000
19289 ca 16896 TPS CA3 19289 -0.1548 12.010000
19290 ha 16896 TPS HA3 19290 0.1282 1.008000
19291 ha 16897 TPS HA2 19291 0.1332 1.008000
19292 ca 16897 TPS CA2 19292 -0.0753 12.010000
19293 ca 16897 TPS CA1 19293 -0.361 12.010000
19294 si 16897 TPS Si 19294 1.1 28.085000
19295 ca 16897 TPS CA6 19295 -0.0753 12.010000
19296 ha 16897 TPS HH6 19296 0.1332 1.008000
19297 ca 16897 TPS CA5 19297 -0.1548 12.010000
19298 ha 16897 TPS HA5 19298 0.1282 1.008000
19299 ca 16897 TPS CA4 19299 -0.1028 12.010000
19300 ha 16897 TPS HA4 19300 0.1262 1.008000
19301 ca 16897 TPS CA3 19301 -0.1548 12.010000
19302 ha 16897 TPS HA3 19302 0.1282 1.008000
19303 ha 16898 TPS HA2 19303 0.1332 1.008000
19304 ca 16898 TPS CA2 19304 -0.0753 12.010000
19305 ca 16898 TPS CA1 19305 -0.361 12.010000
19306 si 16898 TPS Si 19306 1.1 28.085000
19307 ca 16898 TPS CA6 19307 -0.0753 12.010000
19308 ha 16898 TPS HH6 19308 0.1332 1.008000
19309 ca 16898 TPS CA5 19309 -0.1548 12.010000
19310 ha 16898 TPS HA5 19310 0.1282 1.008000
19311 ca 16898 TPS CA4 19311 -0.1028 12.010000
19312 ha 16898 TPS HA4 19312 0.1262 1.008000
19313 ca 16898 TPS CA3 19313 -0.1548 12.010000
19314 ha 16898 TPS HA3 19314 0.1282 1.008000
19315 ha 16899 TPS HA2 19315 0.1332 1.008000
19316 ca 16899 TPS CA2 19316 -0.0753 12.010000
19317 ca 16899 TPS CA1 19317 -0.361 12.010000
19318 si 16899 TPS Si 19318 1.1 28.085000
19319 ca 16899 TPS CA6 19319 -0.0753 12.010000
19320 ha 16899 TPS HH6 19320 0.1332 1.008000
19321 ca 16899 TPS CA5 19321 -0.1548 12.010000
19322 ha 16899 TPS HA5 19322 0.1282 1.008000
19323 ca 16899 TPS CA4 19323 -0.1028 12.010000
19324 ha 16899 TPS HA4 19324 0.1262 1.008000
19325 ca 16899 TPS CA3 19325 -0.1548 12.010000
19326 ha 16899 TPS HA3 19326 0.1282 1.008000
19327 ha 16900 TPS HA2 19327 0.1332 1.008000
19328 ca 16900 TPS CA2 19328 -0.0753 12.010000
19329 ca 16900 TPS CA1 19329 -0.361 12.010000
19330 si 16900 TPS Si 19330 1.1 28.085000
19331 ca 16900 TPS CA6 19331 -0.0753 12.010000
19332 ha 16900 TPS HH6 19332 0.1332 1.008000
19333 ca 16900 TPS CA5 19333 -0.1548 12.010000
19334 ha 16900 TPS HA5 19334 0.1282 1.008000
19335 ca 16900 TPS CA4 19335 -0.1028 12.010000
19336 ha 16900 TPS HA4 19336 0.1262 1.008000
19337 ca 16900 TPS CA3 19337 -0.1548 12.010000
19338 ha 16900 TPS HA3 19338 0.1282 1.008000
19339 ha 16901 TPS HA2 19339 0.1332 1.008000
19340 ca 16901 TPS CA2 19340 -0.0753 12.010000
19341 ca 16901 TPS CA1 19341 -0.361 12.010000
19342 si 16901 TPS Si 19342 1.1 28.085000
19343 ca 16901 TPS CA6 19343 -0.0753 12.010000
19344 ha 16901 TPS HH6 19344 0.1332 1.008000
19345 ca 16901 TPS CA5 19345 -0.1548 12.010000
19346 ha 16901 TPS HA5 19346 0.1282 1.008000
19347 ca 16901 TPS CA4 19347 -0.1028 12.010000
19348 ha 16901 TPS HA4 19348 0.1262 1.008000
19349 ca 16901 TPS CA3 19349 -0.1548 12.010000
19350 ha 16901 TPS HA3 19350 0.1282 1.008000
19351 ha 16902 TPS HA2 19351 0.1332 1.008000
19352 ca 16902 TPS CA2 19352 -0.0753 12.010000
19353 ca 16902 TPS CA1 19353 -0.361 12.010000
19354 si 16902 TPS Si 19354 1.1 28.085000
19355 ca 16902 TPS CA6 19355 -0.0753 12.010000
19356 ha 16902 TPS HH6 19356 0.1332 1.008000
19357 ca 16902 TPS CA5 19357 -0.1548 12.010000
19358 ha 16902 TPS HA5 19358 0.1282 1.008000
19359 ca 16902 TPS CA4 19359 -0.1028 12.010000
19360 ha 16902 TPS HA4 19360 0.1262 1.008000
19361 ca 16902 TPS CA3 19361 -0.1548 12.010000
19362 ha 16902 TPS HA3 19362 0.1282 1.008000
19363 ha 16903 TPS HA2 19363 0.1332 1.008000
19364 ca 16903 TPS CA2 19364 -0.0753 12.010000
19365 ca 16903 TPS CA1 19365 -0.361 12.010000
19366 si 16903 TPS Si 19366 1.1 28.085000
19367 ca 16903 TPS CA6 19367 -0.0753 12.010000
19368 ha 16903 TPS HH6 19368 0.1332 1.008000
19369 ca 16903 TPS CA5 19369 -0.1548 12.010000
19370 ha 16903 TPS HA5 19370 0.1282 1.008000
19371 ca 16903 TPS CA4 19371 -0.1028 12.010000
19372 ha 16903 TPS HA4 19372 0.1262 1.008000
19373 ca 16903 TPS CA3 19373 -0.1548 12.010000
19374 ha 16903 TPS HA3 19374 0.1282 1.008000
19375 ha 16904 TPS HA2 19375 0.1332 1.008000
19376 ca 16904 TPS CA2 19376 -0.0753 12.010000
19377 ca 16904 TPS CA1 19377 -0.361 12.010000
19378 si 16904 TPS Si 19378 1.1 28.085000
19379 ca 16904 TPS CA6 19379 -0.0753 12.010000
19380 ha 16904 TPS HH6 19380 0.1332 1.008000
19381 ca 16904 TPS CA5 19381 -0.1548 12.010000
19382 ha 16904 TPS HA5 19382 0.1282 1.008000
19383 ca 16904 TPS CA4 19383 -0.1028 12.010000
19384 ha 16904 TPS HA4 19384 0.1262 1.008000
19385 ca 16904 TPS CA3 19385 -0.1548 12.010000
19386 ha 16904 TPS HA3 19386 0.1282 1.008000
19387 ha 16905 TPS HA2 19387 0.1332 1.008000
19388 ca 16905 TPS CA2 19388 -0.0753 12.010000
19389 ca 16905 TPS CA1 19389 -0.361 12.010000
19390 si 16905 TPS Si 19390 1.1 28.085000
19391 ca 16905 TPS CA6 19391 -0.0753 12.010000
19392 ha 16905 TPS HH6 19392 0.1332 1.008000
19393 ca 16905 TPS CA5 19393 -0.1548 12.010000
19394 ha 16905 TPS HA5 19394 0.1282 1.008000
19395 ca 16905 TPS CA4 19395 -0.1028 12.010000
19396 ha 16905 TPS HA4 19396 0.1262 1.008000
19397 ca 16905 TPS CA3 19397 -0.1548 12.010000
19398 ha 16905 TPS HA3 19398 0.1282 1.008000
19399 ha 16906 TPS HA2 19399 0.1332 1.008000
19400 ca 16906 TPS CA2 19400 -0.0753 12.010000
19401 ca 16906 TPS CA1 19401 -0.361 12.010000
19402 si 16906 TPS Si 19402 1.1 28.085000
19403 ca 16906 TPS CA6 19403 -0.0753 12.010000
19404 ha 16906 TPS HH6 19404 0.1332 1.008000
19405 ca 16906 TPS CA5 19405 -0.1548 12.010000
19406 ha 16906 TPS HA5 19406 0.1282 1.008000
19407 ca 16906 TPS CA4 19407 -0.1028 12.010000
19408 ha 16906 TPS HA4 19408 0.1262 1.008000
19409 ca 16906 TPS CA3 19409 -0.1548 12.010000
19410 ha 16906 TPS HA3 19410 0.1282 1.008000
19411 ha 16907 TPS HA2 19411 0.1332 1.008000
19412 ca 16907 TPS CA2 19412 -0.0753 12.010000
19413 ca 16907 TPS CA1 19413 -0.361 12.010000
19414 si 16907 TPS Si 19414 1.1 28.085000
19415 ca 16907 TPS CA6 19415 -0.0753 12.010000
19416 ha 16907 TPS HH6 19416 0.1332 1.008000
19417 ca 16907 TPS CA5 19417 -0.1548 12.010000
19418 ha 16907 TPS HA5 19418 0.1282 1.008000
19419 ca 16907 TPS CA4 19419 -0.1028 12.010000
19420 ha 16907 TPS HA4 19420 0.1262 1.008000
19421 ca 16907 TPS CA3 19421 -0.1548 12.010000
19422 ha 16907 TPS HA3 19422 0.1282 1.008000
19423 ha 16908 TPS HA2 19423 0.1332 1.008000
19424 ca 16908 TPS CA2 19424 -0.0753 12.010000
19425 ca 16908 TPS CA1 19425 -0.361 12.010000
19426 si 16908 TPS Si 19426 1.1 28.085000
19427 ca 16908 TPS CA6 19427 -0.0753 12.010000
19428 ha 16908 TPS HH6 19428 0.1332 1.008000
19429 ca 16908 TPS CA5 19429 -0.1548 12.010000
19430 ha 16908 TPS HA5 19430 0.1282 1.008000
19431 ca 16908 TPS CA4 19431 -0.1028 12.010000
19432 ha 16908 TPS HA4 19432 0.1262 1.008000
19433 ca 16908 TPS CA3 19433 -0.1548 12.010000
19434 ha 16908 TPS HA3 19434 0.1282 1.008000
19435 ha 16909 TPS HA2 19435 0.1332 1.008000
19436 ca 16909 TPS CA2 19436 -0.0753 12.010000
19437 ca 16909 TPS CA1 19437 -0.361 12.010000
19438 si 16909 TPS Si 19438 1.1 28.085000
19439 ca 16909 TPS CA6 19439 -0.0753 12.010000
19440 ha 16909 TPS HH6 19440 0.1332 1.008000
19441 ca 16909 TPS CA5 19441 -0.1548 12.010000
19442 ha 16909 TPS HA5 19442 0.1282 1.008000
19443 ca 16909 TPS CA4 19443 -0.1028 12.010000
19444 ha 16909 TPS HA4 19444 0.1262 1.008000
19445 ca 16909 TPS CA3 19445 -0.1548 12.010000
19446 ha 16909 TPS HA3 19446 0.1282 1.008000
19447 ha 16910 TPS HA2 19447 0.1332 1.008000
19448 ca 16910 TPS CA2 19448 -0.0753 12.010000
19449 ca 16910 TPS CA1 19449 -0.361 12.010000
19450 si 16910 TPS Si 19450 1.1 28.085000
19451 ca 16910 TPS CA6 19451 -0.0753 12.010000
19452 ha 16910 TPS HH6 19452 0.1332 1.008000
19453 ca 16910 TPS CA5 19453 -0.1548 12.010000
19454 ha 16910 TPS HA5 19454 0.1282 1.008000
19455 ca 16910 TPS CA4 19455 -0.1028 12.010000
19456 ha 16910 TPS HA4 19456 0.1262 1.008000
19457 ca 16910 TPS CA3 19457 -0.1548 12.010000
19458 ha 16910 TPS HA3 19458 0.1282 1.008000
19459 ha 16911 TPS HA2 19459 0.1332 1.008000
19460 ca 16911 TPS CA2 19460 -0.0753 12.010000
19461 ca 16911 TPS CA1 19461 -0.361 12.010000
19462 si 16911 TPS Si 19462 1.1 28.085000
19463 ca 16911 TPS CA6 19463 -0.0753 12.010000
19464 ha 16911 TPS HH6 19464 0.1332 1.008000
19465 ca 16911 TPS CA5 19465 -0.1548 12.010000
19466 ha 16911 TPS HA5 19466 0.1282 1.008000
19467 ca 16911 TPS CA4 19467 -0.1028 12.010000
19468 ha 16911 TPS HA4 19468 0.1262 1.008000
19469 ca 16911 TPS CA3 19469 -0.1548 12.010000
19470 ha 16911 TPS HA3 19470 0.1282 1.008000
19471 ha 16912 TPS HA2 19471 0.1332 1.008000
19472 ca 16912 TPS CA2 19472 -0.0753 12.010000
19473 ca 16912 TPS CA1 19473 -0.361 12.010000
19474 si 16912 TPS Si 19474 1.1 28.085000
19475 ca 16912 TPS CA6 19475 -0.0753 12.010000
19476 ha 16912 TPS HH6 19476 0.1332 1.008000
19477 ca 16912 TPS CA5 19477 -0.1548 12.010000
19478 ha 16912 TPS HA5 19478 0.1282 1.008000
19479 ca 16912 TPS CA4 19479 -0.1028 12.010000
19480 ha 16912 TPS HA4 19480 0.1262 1.008000
19481 ca 16912 TPS CA3 19481 -0.1548 12.010000
19482 ha 16912 TPS HA3 19482 0.1282 1.008000
19483 ha 16913 TPS HA2 19483 0.1332 1.008000
19484 ca 16913 TPS CA2 19484 -0.0753 12.010000
19485 ca 16913 TPS CA1 19485 -0.361 12.010000
19486 si 16913 TPS Si 19486 1.1 28.085000
19487 ca 16913 TPS CA6 19487 -0.0753 12.010000
19488 ha 16913 TPS HH6 19488 0.1332 1.008000
19489 ca 16913 TPS CA5 19489 -0.1548 12.010000
19490 ha 16913 TPS HA5 19490 0.1282 1.008000
19491 ca 16913 TPS CA4 19491 -0.1028 12.010000
19492 ha 16913 TPS HA4 19492 0.1262 1.008000
19493 ca 16913 TPS CA3 19493 -0.1548 12.010000
19494 ha 16913 TPS HA3 19494 0.1282 1.008000
19495 ha 16914 TPS HA2 19495 0.1332 1.008000
19496 ca 16914 TPS CA2 19496 -0.0753 12.010000
19497 ca 16914 TPS CA1 19497 -0.361 12.010000
19498 si 16914 TPS Si 19498 1.1 28.085000
19499 ca 16914 TPS CA6 19499 -0.0753 12.010000
19500 ha 16914 TPS HH6 19500 0.1332 1.008000
19501 ca 16914 TPS CA5 19501 -0.1548 12.010000
19502 ha 16914 TPS HA5 19502 0.1282 1.008000
19503 ca 16914 TPS CA4 19503 -0.1028 12.010000
19504 ha 16914 TPS HA4 19504 0.1262 1.008000
19505 ca 16914 TPS CA3 19505 -0.1548 12.010000
19506 ha 16914 TPS HA3 19506 0.1282 1.008000
19507 ha 16915 TPS HA2 19507 0.1332 1.008000
19508 ca 16915 TPS CA2 19508 -0.0753 12.010000
19509 ca 16915 TPS CA1 19509 -0.361 12.010000
19510 si 16915 TPS Si 19510 1.1 28.085000
19511 ca 16915 TPS CA6 19511 -0.0753 12.010000
19512 ha 16915 TPS HH6 19512 0.1332 1.008000
19513 ca 16915 TPS CA5 19513 -0.1548 12.010000
19514 ha 16915 TPS HA5 19514 0.1282 1.008000
19515 ca 16915 TPS CA4 19515 -0.1028 12.010000
19516 ha 16915 TPS HA4 19516 0.1262 1.008000
19517 ca 16915 TPS CA3 19517 -0.1548 12.010000
19518 ha 16915 TPS HA3 19518 0.1282 1.008000
19519 ha 16916 TPS HA2 19519 0.1332 1.008000
19520 ca 16916 TPS CA2 19520 -0.0753 12.010000
19521 ca 16916 TPS CA1 19521 -0.361 12.010000
19522 si 16916 TPS Si 19522 1.1 28.085000
19523 ca 16916 TPS CA6 19523 -0.0753 12.010000
19524 ha 16916 TPS HH6 19524 0.1332 1.008000
19525 ca 16916 TPS CA5 19525 -0.1548 12.010000
19526 ha 16916 TPS HA5 19526 0.1282 1.008000
19527 ca 16916 TPS CA4 19527 -0.1028 12.010000
19528 ha 16916 TPS HA4 19528 0.1262 1.008000
19529 ca 16916 TPS CA3 19529 -0.1548 12.010000
19530 ha 16916 TPS HA3 19530 0.1282 1.008000
19531 ha 16917 TPS HA2 19531 0.1332 1.008000
19532 ca 16917 TPS CA2 19532 -0.0753 12.010000
19533 ca 16917 TPS CA1 19533 -0.361 12.010000
19534 si 16917 TPS Si 19534 1.1 28.085000
19535 ca 16917 TPS CA6 19535 -0.0753 12.010000
19536 ha 16917 TPS HH6 19536 0.1332 1.008000
19537 ca 16917 TPS CA5 19537 -0.1548 12.010000
19538 ha 16917 TPS HA5 19538 0.1282 1.008000
19539 ca 16917 TPS CA4 19539 -0.1028 12.010000
19540 ha 16917 TPS HA4 19540 0.1262 1.008000
19541 ca 16917 TPS CA3 19541 -0.1548 12.010000
19542 ha 16917 TPS HA3 19542 0.1282 1.008000
19543 ha 16918 TPS HA2 19543 0.1332 1.008000
19544 ca 16918 TPS CA2 19544 -0.0753 12.010000
19545 ca 16918 TPS CA1 19545 -0.361 12.010000
19546 si 16918 TPS Si 19546 1.1 28.085000
19547 ca 16918 TPS CA6 19547 -0.0753 12.010000
19548 ha 16918 TPS HH6 19548 0.1332 1.008000
19549 ca 16918 TPS CA5 19549 -0.1548 12.010000
19550 ha 16918 TPS HA5 19550 0.1282 1.008000
19551 ca 16918 TPS CA4 19551 -0.1028 12.010000
19552 ha 16918 TPS HA4 19552 0.1262 1.008000
19553 ca 16918 TPS CA3 19553 -0.1548 12.010000
19554 ha 16918 TPS HA3 19554 0.1282 1.008000
19555 ha 16919 TPS HA2 19555 0.1332 1.008000
19556 ca 16919 TPS CA2 19556 -0.0753 12.010000
19557 ca 16919 TPS CA1 19557 -0.361 12.010000
19558 si 16919 TPS Si 19558 1.1 28.085000
19559 ca 16919 TPS CA6 19559 -0.0753 12.010000
19560 ha 16919 TPS HH6 19560 0.1332 1.008000
19561 ca 16919 TPS CA5 19561 -0.1548 12.010000
19562 ha 16919 TPS HA5 19562 0.1282 1.008000
19563 ca 16919 TPS CA4 19563 -0.1028 12.010000
19564 ha 16919 TPS HA4 19564 0.1262 1.008000
19565 ca 16919 TPS CA3 19565 -0.1548 12.010000
19566 ha 16919 TPS HA3 19566 0.1282 1.008000
19567 ha 16920 TPS HA2 19567 0.1332 1.008000
19568 ca 16920 TPS CA2 19568 -0.0753 12.010000
19569 ca 16920 TPS CA1 19569 -0.361 12.010000
19570 si 16920 TPS Si 19570 1.1 28.085000
19571 ca 16920 TPS CA6 19571 -0.0753 12.010000
19572 ha 16920 TPS HH6 19572 0.1332 1.008000
19573 ca 16920 TPS CA5 19573 -0.1548 12.010000
19574 ha 16920 TPS HA5 19574 0.1282 1.008000
19575 ca 16920 TPS CA4 19575 -0.1028 12.010000
19576 ha 16920 TPS HA4 19576 0.1262 1.008000
19577 ca 16920 TPS CA3 19577 -0.1548 12.010000
19578 ha 16920 TPS HA3 19578 0.1282 1.008000
19579 ha 16921 TPS HA2 19579 0.1332 1.008000
19580 ca 16921 TPS CA2 19580 -0.0753 12.010000
19581 ca 16921 TPS CA1 19581 -0.361 12.010000
19582 si 16921 TPS Si 19582 1.1 28.085000
19583 ca 16921 TPS CA6 19583 -0.0753 12.010000
19584 ha 16921 TPS HH6 19584 0.1332 1.008000
19585 ca 16921 TPS CA5 19585 -0.1548 12.010000
19586 ha 16921 TPS HA5 19586 0.1282 1.008000
19587 ca 16921 TPS CA4 19587 -0.1028 12.010000
19588 ha 16921 TPS HA4 19588 0.1262 1.008000
19589 ca 16921 TPS CA3 19589 -0.1548 12.010000
19590 ha 16921 TPS HA3 19590 0.1282 1.008000
19591 ha 16922 TPS HA2 19591 0.1332 1.008000
19592 ca 16922 TPS CA2 19592 -0.0753 12.010000
19593 ca 16922 TPS CA1 19593 -0.361 12.010000
19594 si 16922 TPS Si 19594 1.1 28.085000
19595 ca 16922 TPS CA6 19595 -0.0753 12.010000
19596 ha 16922 TPS HH6 19596 0.1332 1.008000
19597 ca 16922 TPS CA5 19597 -0.1548 12.010000
19598 ha 16922 TPS HA5 19598 0.1282 1.008000
19599 ca 16922 TPS CA4 19599 -0.1028 12.010000
19600 ha 16922 TPS HA4 19600 0.1262 1.008000
19601 ca 16922 TPS CA3 19601 -0.1548 12.010000
19602 ha 16922 TPS HA3 19602 0.1282 1.008000
19603 ha 16923 TPS HA2 19603 0.1332 1.008000
19604 ca 16923 TPS CA2 19604 -0.0753 12.010000
19605 ca 16923 TPS CA1 19605 -0.361 12.010000
19606 si 16923 TPS Si 19606 1.1 28.085000
19607 ca 16923 TPS CA6 19607 -0.0753 12.010000
19608 ha 16923 TPS HH6 19608 0.1332 1.008000
19609 ca 16923 TPS CA5 19609 -0.1548 12.010000
19610 ha 16923 TPS HA5 19610 0.1282 1.008000
19611 ca 16923 TPS CA4 19611 -0.1028 12.010000
19612 ha 16923 TPS HA4 19612 0.1262 1.008000
19613 ca 16923 TPS CA3 19613 -0.1548 12.010000
19614 ha 16923 TPS HA3 19614 0.1282 1.008000
19615 ha 16924 TPS HA2 19615 0.1332 1.008000
19616 ca 16924 TPS CA2 19616 -0.0753 12.010000
19617 ca 16924 TPS CA1 19617 -0.361 12.010000
19618 si 16924 TPS Si 19618 1.1 28.085000
19619 ca 16924 TPS CA6 19619 -0.0753 12.010000
19620 ha 16924 TPS HH6 19620 0.1332 1.008000
19621 ca 16924 TPS CA5 19621 -0.1548 12.010000
19622 ha 16924 TPS HA5 19622 0.1282 1.008000
19623 ca 16924 TPS CA4 19623 -0.1028 12.010000
19624 ha 16924 TPS HA4 19624 0.1262 1.008000
19625 ca 16924 TPS CA3 19625 -0.1548 12.010000
19626 ha 16924 TPS HA3 19626 0.1282 1.008000
19627 ha 16925 TPS HA2 19627 0.1332 1.008000
19628 ca 16925 TPS CA2 19628 -0.0753 12.010000
19629 ca 16925 TPS CA1 19629 -0.361 12.010000
19630 si 16925 TPS Si 19630 1.1 28.085000
19631 ca 16925 TPS CA6 19631 -0.0753 12.010000
19632 ha 16925 TPS HH6 19632 0.1332 1.008000
19633 ca 16925 TPS CA5 19633 -0.1548 12.010000
19634 ha 16925 TPS HA5 19634 0.1282 1.008000
19635 ca 16925 TPS CA4 19635 -0.1028 12.010000
19636 ha 16925 TPS HA4 19636 0.1262 1.008000
19637 ca 16925 TPS CA3 19637 -0.1548 12.010000
19638 ha 16925 TPS HA3 19638 0.1282 1.008000
19639 ha 16926 TPS HA2 19639 0.1332 1.008000
19640 ca 16926 TPS CA2 19640 -0.0753 12.010000
19641 ca 16926 TPS CA1 19641 -0.361 12.010000
19642 si 16926 TPS Si 19642 1.1 28.085000
19643 ca 16926 TPS CA6 19643 -0.0753 12.010000
19644 ha 16926 TPS HH6 19644 0.1332 1.008000
19645 ca 16926 TPS CA5 19645 -0.1548 12.010000
19646 ha 16926 TPS HA5 19646 0.1282 1.008000
19647 ca 16926 TPS CA4 19647 -0.1028 12.010000
19648 ha 16926 TPS HA4 19648 0.1262 1.008000
19649 ca 16926 TPS CA3 19649 -0.1548 12.010000
19650 ha 16926 TPS HA3 19650 0.1282 1.008000
19651 ha 16927 TPS HA2 19651 0.1332 1.008000
19652 ca 16927 TPS CA2 19652 -0.0753 12.010000
19653 ca 16927 TPS CA1 19653 -0.361 12.010000
19654 si 16927 TPS Si 19654 1.1 28.085000
19655 ca 16927 TPS CA6 19655 -0.0753 12.010000
19656 ha 16927 TPS HH6 19656 0.1332 1.008000
19657 ca 16927 TPS CA5 19657 -0.1548 12.010000
19658 ha 16927 TPS HA5 19658 0.1282 1.008000
19659 ca 16927 TPS CA4 19659 -0.1028 12.010000
19660 ha 16927 TPS HA4 19660 0.1262 1.008000
19661 ca 16927 TPS CA3 19661 -0.1548 12.010000
19662 ha 16927 TPS HA3 19662 0.1282 1.008000
19663 ha 16928 TPS HA2 19663 0.1332 1.008000
19664 ca 16928 TPS CA2 19664 -0.0753 12.010000
19665 ca 16928 TPS CA1 19665 -0.361 12.010000
19666 si 16928 TPS Si 19666 1.1 28.085000
19667 ca 16928 TPS CA6 19667 -0.0753 12.010000
19668 ha 16928 TPS HH6 19668 0.1332 1.008000
19669 ca 16928 TPS CA5 19669 -0.1548 12.010000
19670 ha 16928 TPS HA5 19670 0.1282 1.008000
19671 ca 16928 TPS CA4 19671 -0.1028 12.010000
19672 ha 16928 TPS HA4 19672 0.1262 1.008000
19673 ca 16928 TPS CA3 19673 -0.1548 12.010000
19674 ha 16928 TPS HA3 19674 0.1282 1.008000
19675 ha 16929 TPS HA2 19675 0.1332 1.008000
19676 ca 16929 TPS CA2 19676 -0.0753 12.010000
19677 ca 16929 TPS CA1 19677 -0.361 12.010000
19678 si 16929 TPS Si 19678 1.1 28.085000
19679 ca 16929 TPS CA6 19679 -0.0753 12.010000
19680 ha 16929 TPS HH6 19680 0.1332 1.008000
19681 ca 16929 TPS CA5 19681 -0.1548 12.010000
19682 ha 16929 TPS HA5 19682 0.1282 1.008000
19683 ca 16929 TPS CA4 19683 -0.1028 12.010000
19684 ha 16929 TPS HA4 19684 0.1262 1.008000
19685 ca 16929 TPS CA3 19685 -0.1548 12.010000
19686 ha 16929 TPS HA3 19686 0.1282 1.008000
19687 ha 16930 TPS HA2 19687 0.1332 1.008000
19688 ca 16930 TPS CA2 19688 -0.0753 12.010000
19689 ca 16930 TPS CA1 19689 -0.361 12.010000
19690 si 16930 TPS Si 19690 1.1 28.085000
19691 ca 16930 TPS CA6 19691 -0.0753 12.010000
19692 ha 16930 TPS HH6 19692 0.1332 1.008000
19693 ca 16930 TPS CA5 19693 -0.1548 12.010000
19694 ha 16930 TPS HA5 19694 0.1282 1.008000
19695 ca 16930 TPS CA4 19695 -0.1028 12.010000
19696 ha 16930 TPS HA4 19696 0.1262 1.008000
19697 ca 16930 TPS CA3 19697 -0.1548 12.010000
19698 ha 16930 TPS HA3 19698 0.1282 1.008000
19699 ha 16931 TPS HA2 19699 0.1332 1.008000
19700 ca 16931 TPS CA2 19700 -0.0753 12.010000
19701 ca 16931 TPS CA1 19701 -0.361 12.010000
19702 si 16931 TPS Si 19702 1.1 28.085000
19703 ca 16931 TPS CA6 19703 -0.0753 12.010000
19704 ha 16931 TPS HH6 19704 0.1332 1.008000
19705 ca 16931 TPS CA5 19705 -0.1548 12.010000
19706 ha 16931 TPS HA5 19706 0.1282 1.008000
19707 ca 16931 TPS CA4 19707 -0.1028 12.010000
19708 ha 16931 TPS HA4 19708 0.1262 1.008000
19709 ca 16931 TPS CA3 19709 -0.1548 12.010000
19710 ha 16931 TPS HA3 19710 0.1282 1.008000
19711 ha 16932 TPS HA2 19711 0.1332 1.008000
19712 ca 16932 TPS CA2 19712 -0.0753 12.010000
19713 ca 16932 TPS CA1 19713 -0.361 12.010000
19714 si 16932 TPS Si 19714 1.1 28.085000
19715 ca 16932 TPS CA6 19715 -0.0753 12.010000
19716 ha 16932 TPS HH6 19716 0.1332 1.008000
19717 ca 16932 TPS CA5 19717 -0.1548 12.010000
19718 ha 16932 TPS HA5 19718 0.1282 1.008000
19719 ca 16932 TPS CA4 19719 -0.1028 12.010000
19720 ha 16932 TPS HA4 19720 0.1262 1.008000
19721 ca 16932 TPS CA3 19721 -0.1548 12.010000
19722 ha 16932 TPS HA3 19722 0.1282 1.008000
19723 ha 16933 TPS HA2 19723 0.1332 1.008000
19724 ca 16933 TPS CA2 19724 -0.0753 12.010000
19725 ca 16933 TPS CA1 19725 -0.361 12.010000
19726 si 16933 TPS Si 19726 1.1 28.085000
19727 ca 16933 TPS CA6 19727 -0.0753 12.010000
19728 ha 16933 TPS HH6 19728 0.1332 1.008000
19729 ca 16933 TPS CA5 19729 -0.1548 12.010000
19730 ha 16933 TPS HA5 19730 0.1282 1.008000
19731 ca 16933 TPS CA4 19731 -0.1028 12.010000
19732 ha 16933 TPS HA4 19732 0.1262 1.008000
19733 ca 16933 TPS CA3 19733 -0.1548 12.010000
19734 ha 16933 TPS HA3 19734 0.1282 1.008000
19735 ha 16934 TPS HA2 19735 0.1332 1.008000
19736 ca 16934 TPS CA2 19736 -0.0753 12.010000
19737 ca 16934 TPS CA1 19737 -0.361 12.010000
19738 si 16934 TPS Si 19738 1.1 28.085000
19739 ca 16934 TPS CA6 19739 -0.0753 12.010000
19740 ha 16934 TPS HH6 19740 0.1332 1.008000
19741 ca 16934 TPS CA5 19741 -0.1548 12.010000
19742 ha 16934 TPS HA5 19742 0.1282 1.008000
19743 ca 16934 TPS CA4 19743 -0.1028 12.010000
19744 ha 16934 TPS HA4 19744 0.1262 1.008000
19745 ca 16934 TPS CA3 19745 -0.1548 12.010000
19746 ha 16934 TPS HA3 19746 0.1282 1.008000
19747 ha 16935 TPS HA2 19747 0.1332 1.008000
19748 ca 16935 TPS CA2 19748 -0.0753 12.010000
19749 ca 16935 TPS CA1 19749 -0.361 12.010000
19750 si 16935 TPS Si 19750 1.1 28.085000
19751 ca 16935 TPS CA6 19751 -0.0753 12.010000
19752 ha 16935 TPS HH6 19752 0.1332 1.008000
19753 ca 16935 TPS CA5 19753 -0.1548 12.010000
19754 ha 16935 TPS HA5 19754 0.1282 1.008000
19755 ca 16935 TPS CA4 19755 -0.1028 12.010000
19756 ha 16935 TPS HA4 19756 0.1262 1.008000
19757 ca 16935 TPS CA3 19757 -0.1548 12.010000
19758 ha 16935 TPS HA3 19758 0.1282 1.008000
19759 ha 16936 TPS HA2 19759 0.1332 1.008000
19760 ca 16936 TPS CA2 19760 -0.0753 12.010000
19761 ca 16936 TPS CA1 19761 -0.361 12.010000
19762 si 16936 TPS Si 19762 1.1 28.085000
19763 ca 16936 TPS CA6 19763 -0.0753 12.010000
19764 ha 16936 TPS HH6 19764 0.1332 1.008000
19765 ca 16936 TPS CA5 19765 -0.1548 12.010000
19766 ha 16936 TPS HA5 19766 0.1282 1.008000
19767 ca 16936 TPS CA4 19767 -0.1028 12.010000
19768 ha 16936 TPS HA4 19768 0.1262 1.008000
19769 ca 16936 TPS CA3 19769 -0.1548 12.010000
19770 ha 16936 TPS HA3 19770 0.1282 1.008000
19771 ha 16937 TPS HA2 19771 0.1332 1.008000
19772 ca 16937 TPS CA2 19772 -0.0753 12.010000
19773 ca 16937 TPS CA1 19773 -0.361 12.010000
19774 si 16937 TPS Si 19774 1.1 28.085000
19775 ca 16937 TPS CA6 19775 -0.0753 12.010000
19776 ha 16937 TPS HH6 19776 0.1332 1.008000
19777 ca 16937 TPS CA5 19777 -0.1548 12.010000
19778 ha 16937 TPS HA5 19778 0.1282 1.008000
19779 ca 16937 TPS CA4 19779 -0.1028 12.010000
19780 ha 16937 TPS HA4 19780 0.1262 1.008000
19781 ca 16937 TPS CA3 19781 -0.1548 12.010000
19782 ha 16937 TPS HA3 19782 0.1282 1.008000
19783 ha 16938 TPS HA2 19783 0.1332 1.008000
19784 ca 16938 TPS CA2 19784 -0.0753 12.010000
19785 ca 16938 TPS CA1 19785 -0.361 12.010000
19786 si 16938 TPS Si 19786 1.1 28.085000
19787 ca 16938 TPS CA6 19787 -0.0753 12.010000
19788 ha 16938 TPS HH6 19788 0.1332 1.008000
19789 ca 16938 TPS CA5 19789 -0.1548 12.010000
19790 ha 16938 TPS HA5 19790 0.1282 1.008000
19791 ca 16938 TPS CA4 19791 -0.1028 12.010000
19792 ha 16938 TPS HA4 19792 0.1262 1.008000
19793 ca 16938 TPS CA3 19793 -0.1548 12.010000
19794 ha 16938 TPS HA3 19794 0.1282 1.008000
19795 ha 16939 TPS HA2 19795 0.1332 1.008000
19796 ca 16939 TPS CA2 19796 -0.0753 12.010000
19797 ca 16939 TPS CA1 19797 -0.361 12.010000
19798 si 16939 TPS Si 19798 1.1 28.085000
19799 ca 16939 TPS CA6 19799 -0.0753 12.010000
19800 ha 16939 TPS HH6 19800 0.1332 1.008000
19801 ca 16939 TPS CA5 19801 -0.1548 12.010000
19802 ha 16939 TPS HA5 19802 0.1282 1.008000
19803 ca 16939 TPS CA4 19803 -0.1028 12.010000
19804 ha 16939 TPS HA4 19804 0.1262 1.008000
19805 ca 16939 TPS CA3 19805 -0.1548 12.010000
19806 ha 16939 TPS HA3 19806 0.1282 1.008000
19807 ha 16940 TPS HA2 19807 0.1332 1.008000
19808 ca 16940 TPS CA2 19808 -0.0753 12.010000
19809 ca 16940 TPS CA1 19809 -0.361 12.010000
19810 si 16940 TPS Si 19810 1.1 28.085000
19811 ca 16940 TPS CA6 19811 -0.0753 12.010000
19812 ha 16940 TPS HH6 19812 0.1332 1.008000
19813 ca 16940 TPS CA5 19813 -0.1548 12.010000
19814 ha 16940 TPS HA5 19814 0.1282 1.008000
19815 ca 16940 TPS CA4 19815 -0.1028 12.010000
19816 ha 16940 TPS HA4 19816 0.1262 1.008000
19817 ca 16940 TPS CA3 19817 -0.1548 12.010000
19818 ha 16940 TPS HA3 19818 0.1282 1.008000
19819 ha 16941 TPS HA2 19819 0.1332 1.008000
19820 ca 16941 TPS CA2 19820 -0.0753 12.010000
19821 ca 16941 TPS CA1 19821 -0.361 12.010000
19822 si 16941 TPS Si 19822 1.1 28.085000
19823 ca 16941 TPS CA6 19823 -0.0753 12.010000
19824 ha 16941 TPS HH6 19824 0.1332 1.008000
19825 ca 16941 TPS CA5 19825 -0.1548 12.010000
19826 ha 16941 TPS HA5 19826 0.1282 1.008000
19827 ca 16941 TPS CA4 19827 -0.1028 12.010000
19828 ha 16941 TPS HA4 19828 0.1262 1.008000
19829 ca 16941 TPS CA3 19829 -0.1548 12.010000
19830 ha 16941 TPS HA3 19830 0.1282 1.008000
19831 ha 16942 TPS HA2 19831 0.1332 1.008000
19832 ca 16942 TPS CA2 19832 -0.0753 12.010000
19833 ca 16942 TPS CA1 19833 -0.361 12.010000
19834 si 16942 TPS Si 19834 1.1 28.085000
19835 ca 16942 TPS CA6 19835 -0.0753 12.010000
19836 ha 16942 TPS HH6 19836 0.1332 1.008000
19837 ca 16942 TPS CA5 19837 -0.1548 12.010000
19838 ha 16942 TPS HA5 19838 0.1282 1.008000
19839 ca 16942 TPS CA4 19839 -0.1028 12.010000
19840 ha 16942 TPS HA4 19840 0.1262 1.008000
19841 ca 16942 TPS CA3 19841 -0.1548 12.010000
19842 ha 16942 TPS HA3 19842 0.1282 1.008000
19843 ha 16943 TPS HA2 19843 0.1332 1.008000
19844 ca 16943 TPS CA2 19844 -0.0753 12.010000
19845 ca 16943 TPS CA1 19845 -0.361 12.010000
19846 si 16943 TPS Si 19846 1.1 28.085000
19847 ca 16943 TPS CA6 19847 -0.0753 12.010000
19848 ha 16943 TPS HH6 19848 0.1332 1.008000
19849 ca 16943 TPS CA5 19849 -0.1548 12.010000
19850 ha 16943 TPS HA5 19850 0.1282 1.008000
19851 ca 16943 TPS CA4 19851 -0.1028 12.010000
19852 ha 16943 TPS HA4 19852 0.1262 1.008000
19853 ca 16943 TPS CA3 19853 -0.1548 12.010000
19854 ha 16943 TPS HA3 19854 0.1282 1.008000
19855 ha 16944 TPS HA2 19855 0.1332 1.008000
19856 ca 16944 TPS CA2 19856 -0.0753 12.010000
19857 ca 16944 TPS CA1 19857 -0.361 12.010000
19858 si 16944 TPS Si 19858 1.1 28.085000
19859 ca 16944 TPS CA6 19859 -0.0753 12.010000
19860 ha 16944 TPS HH6 19860 0.1332 1.008000
19861 ca 16944 TPS CA5 19861 -0.1548 12.010000
19862 ha 16944 TPS HA5 19862 0.1282 1.008000
19863 ca 16944 TPS CA4 19863 -0.1028 12.010000
19864 ha 16944 TPS HA4 19864 0.1262 1.008000
19865 ca 16944 TPS CA3 19865 -0.1548 12.010000
19866 ha 16944 TPS HA3 19866 0.1282 1.008000
19867 ha 16945 TPS HA2 19867 0.1332 1.008000
19868 ca 16945 TPS CA2 19868 -0.0753 12.010000
19869 ca 16945 TPS CA1 19869 -0.361 12.010000
19870 si 16945 TPS Si 19870 1.1 28.085000
19871 ca 16945 TPS CA6 19871 -0.0753 12.010000
19872 ha 16945 TPS HH6 19872 0.1332 1.008000
19873 ca 16945 TPS CA5 19873 -0.1548 12.010000
19874 ha 16945 TPS HA5 19874 0.1282 1.008000
19875 ca 16945 TPS CA4 19875 -0.1028 12.010000
19876 ha 16945 TPS HA4 19876 0.1262 1.008000
19877 ca 16945 TPS CA3 19877 -0.1548 12.010000
19878 ha 16945 TPS HA3 19878 0.1282 1.008000
19879 ha 16946 TPS HA2 19879 0.1332 1.008000
19880 ca 16946 TPS CA2 19880 -0.0753 12.010000
19881 ca 16946 TPS CA1 19881 -0.361 12.010000
19882 si 16946 TPS Si 19882 1.1 28.085000
19883 ca 16946 TPS CA6 19883 -0.0753 12.010000
19884 ha 16946 TPS HH6 19884 0.1332 1.008000
19885 ca 16946 TPS CA5 19885 -0.1548 12.010000
19886 ha 16946 TPS HA5 19886 0.1282 1.008000
19887 ca 16946 TPS CA4 19887 -0.1028 12.010000
19888 ha 16946 TPS HA4 19888 0.1262 1.008000
19889 ca 16946 TPS CA3 19889 -0.1548 12.010000
19890 ha 16946 TPS HA3 19890 0.1282 1.008000
19891 ha 16947 TPS HA2 19891 0.1332 1.008000
19892 ca 16947 TPS CA2 19892 -0.0753 12.010000
19893 ca 16947 TPS CA1 19893 -0.361 12.010000
19894 si 16947 TPS Si 19894 1.1 28.085000
19895 ca 16947 TPS CA6 19895 -0.0753 12.010000
19896 ha 16947 TPS HH6 19896 0.1332 1.008000
19897 ca 16947 TPS CA5 19897 -0.1548 12.010000
19898 ha 16947 TPS HA5 19898 0.1282 1.008000
19899 ca 16947 TPS CA4 19899 -0.1028 12.010000
19900 ha 16947 TPS HA4 19900 0.1262 1.008000
19901 ca 16947 TPS CA3 19901 -0.1548 12.010000
19902 ha 16947 TPS HA3 19902 0.1282 1.008000
19903 ha 16948 TPS HA2 19903 0.1332 1.008000
19904 ca 16948 TPS CA2 19904 -0.0753 12.010000
19905 ca 16948 TPS CA1 19905 -0.361 12.010000
19906 si 16948 TPS Si 19906 1.1 28.085000
19907 ca 16948 TPS CA6 19907 -0.0753 12.010000
19908 ha 16948 TPS HH6 19908 0.1332 1.008000
19909 ca 16948 TPS CA5 19909 -0.1548 12.010000
19910 ha 16948 TPS HA5 19910 0.1282 1.008000
19911 ca 16948 TPS CA4 19911 -0.1028 12.010000
19912 ha 16948 TPS HA4 19912 0.1262 1.008000
19913 ca 16948 TPS CA3 19913 -0.1548 12.010000
19914 ha 16948 TPS HA3 19914 0.1282 1.008000
19915 ha 16949 TPS HA2 19915 0.1332 1.008000
19916 ca 16949 TPS CA2 19916 -0.0753 12.010000
19917 ca 16949 TPS CA1 19917 -0.361 12.010000
19918 si 16949 TPS Si 19918 1.1 28.085000
19919 ca 16949 TPS CA6 19919 -0.0753 12.010000
19920 ha 16949 TPS HH6 19920 0.1332 1.008000
19921 ca 16949 TPS CA5 19921 -0.1548 12.010000
19922 ha 16949 TPS HA5 19922 0.1282 1.008000
19923 ca 16949 TPS CA4 19923 -0.1028 12.010000
19924 ha 16949 TPS HA4 19924 0.1262 1.008000
19925 ca 16949 TPS CA3 19925 -0.1548 12.010000
19926 ha 16949 TPS HA3 19926 0.1282 1.008000
19927 ha 16950 TPS HA2 19927 0.1332 1.008000
19928 ca 16950 TPS CA2 19928 -0.0753 12.010000
19929 ca 16950 TPS CA1 19929 -0.361 12.010000
19930 si 16950 TPS Si 19930 1.1 28.085000
19931 ca 16950 TPS CA6 19931 -0.0753 12.010000
19932 ha 16950 TPS HH6 19932 0.1332 1.008000
19933 ca 16950 TPS CA5 19933 -0.1548 12.010000
19934 ha 16950 TPS HA5 19934 0.1282 1.008000
19935 ca 16950 TPS CA4 19935 -0.1028 12.010000
19936 ha 16950 TPS HA4 19936 0.1262 1.008000
19937 ca 16950 TPS CA3 19937 -0.1548 12.010000
19938 ha 16950 TPS HA3 19938 0.1282 1.008000
19939 SI 16951 SL Si1 19939 1.100000 28.08600
19940 OA 16951 SL O1 19940 -0.675000 15.99940
19941 HG 16951 SL H1 19941 0.400000 2.01600
19942 SI 16952 SL Si1 19942 1.100000 28.08600
19943 OA 16952 SL O1 19943 -0.675000 15.99940
19944 HG 16952 SL H1 19944 0.400000 2.01600
19945 SI 16953 SL Si1 19945 1.100000 28.08600
19946 OA 16953 SL O1 19946 -0.675000 15.99940
19947 HG 16953 SL H1 19947 0.400000 2.01600
19948 SI 16954 SL Si1 19948 1.100000 28.08600
19949 OA 16954 SL O1 19949 -0.675000 15.99940
19950 HG 16954 SL H1 19950 0.400000 2.01600
19951 SI 16955 SL Si1 19951 1.100000 28.08600
19952 OA 16955 SL O1 19952 -0.675000 15.99940
19953 HG 16955 SL H1 19953 0.400000 2.01600
19954 SI 16956 SL Si1 19954 1.100000 28.08600
19955 OA 16956 SL O1 19955 -0.675000 15.99940
19956 HG 16956 SL H1 19956 0.400000 2.01600
19957 SI 16957 SL Si1 19957 1.100000 28.08600
19958 OA 16957 SL O1 19958 -0.675000 15.99940
19959 HG 16957 SL H1 19959 0.400000 2.01600
19960 SI 16958 SL Si1 19960 1.100000 28.08600
19961 OA 16958 SL O1 19961 -0.675000 15.99940
19962 HG 16958 SL H1 19962 0.400000 2.01600
19963 SI 16959 SL Si1 19963 1.100000 28.08600
19964 OA 16959 SL O1 19964 -0.675000 15.99940
19965 HG 16959 SL H1 19965 0.400000 2.01600
19966 SI 16960 SL Si1 19966 1.100000 28.08600
19967 OA 16960 SL O1 19967 -0.675000 15.99940
19968 HG 16960 SL H1 19968 0.400000 2.01600
19969 SI 16961 SL Si1 19969 1.100000 28.08600
19970 OA 16961 SL O1 19970 -0.675000 15.99940
19971 HG 16961 SL H1 19971 0.400000 2.01600
19972 SI 16962 SL Si1 19972 1.100000 28.08600
19973 OA 16962 SL O1 19973 -0.675000 15.99940
19974 HG 16962 SL H1 19974 0.400000 2.01600
19975 SI 16963 SL Si1 19975 1.100000 28.08600
19976 OA 16963 SL O1 19976 -0.675000 15.99940
19977 HG 16963 SL H1 19977 0.400000 2.01600
19978 SI 16964 SL Si1 19978 1.100000 28.08600
19979 OA 16964 SL O1 19979 -0.675000 15.99940
19980 HG 16964 SL H1 19980 0.400000 2.01600
19981 SI 16965 SL Si1 19981 1.100000 28.08600
19982 OA 16965 SL O1 19982 -0.675000 15.99940
19983 HG 16965 SL H1 19983 0.400000 2.01600
19984 SI 16966 SL Si1 19984 1.100000 28.08600
19985 OA 16966 SL O1 19985 -0.675000 15.99940
19986 HG 16966 SL H1 19986 0.400000 2.01600
19987 SI 16967 SL Si1 19987 1.100000 28.08600
19988 OA 16967 SL O1 19988 -0.675000 15.99940
19989 HG 16967 SL H1 19989 0.400000 2.01600
19990 SI 16968 SL Si1 19990 1.100000 28.08600
19991 OA 16968 SL O1 19991 -0.675000 15.99940
19992 HG 16968 SL H1 19992 0.400000 2.01600
19993 SI 16969 SL Si1 19993 1.100000 28.08600
19994 OA 16969 SL O1 19994 -0.675000 15.99940
19995 HG 16969 SL H1 19995 0.400000 2.01600
19996 SI 16970 SL Si1 19996 1.100000 28.08600
19997 OA 16970 SL O1 19997 -0.675000 15.99940
19998 HG 16970 SL H1 19998 0.400000 2.01600
19999 SI 16971 SL Si1 19999 1.100000 28.08600
20000 OA 16971 SL O1 20000 -0.675000 15.99940
20001 HG 16971 SL H1 20001 0.400000 2.01600
20002 SI 16972 SL Si1 20002 1.100000 28.08600
20003 OA 16972 SL O1 20003 -0.675000 15.99940
20004 HG 16972 SL H1 20004 0.400000 2.01600
20005 SI 16973 SL Si1 20005 1.100000 28.08600
20006 OA 16973 SL O1 20006 -0.675000 15.99940
20007 HG 16973 SL H1 20007 0.400000 2.01600
20008 SI 16974 SL Si1 20008 1.100000 28.08600
20009 OA 16974 SL O1 20009 -0.675000 15.99940
20010 HG 16974 SL H1 20010 0.400000 2.01600
20011 SI 16975 SL Si1 20011 1.100000 28.08600
20012 OA 16975 SL O1 20012 -0.675000 15.99940
20013 HG 16975 SL H1 20013 0.400000 2.01600
20014 SI 16976 SL Si1 20014 1.100000 28.08600
20015 OA 16976 SL O1 20015 -0.675000 15.99940
20016 HG 16976 SL H1 20016 0.400000 2.01600
20017 SI 16977 SL Si1 20017 1.100000 28.08600
20018 OA 16977 SL O1 20018 -0.675000 15.99940
20019 HG 16977 SL H1 20019 0.400000 2.01600
20020 SI 16978 SL Si1 20020 1.100000 28.08600
20021 OA 16978 SL O1 20021 -0.675000 15.99940
20022 HG 16978 SL H1 20022 0.400000 2.01600
20023 SI 16979 SL Si1 20023 1.100000 28.08600
20024 OA 16979 SL O1 20024 -0.675000 15.99940
20025 HG 16979 SL H1 20025 0.400000 2.01600
20026 SI 16980 SL Si1 20026 1.100000 28.08600
20027 OA 16980 SL O1 20027 -0.675000 15.99940
20028 HG 16980 SL H1 20028 0.400000 2.01600
20029 SI 16981 SL Si1 20029 1.100000 28.08600
20030 OA 16981 SL O1 20030 -0.675000 15.99940
20031 HG 16981 SL H1 20031 0.400000 2.01600
20032 SI 16982 SL Si1 20032 1.100000 28.08600
20033 OA 16982 SL O1 20033 -0.675000 15.99940
20034 HG 16982 SL H1 20034 0.400000 2.01600
20035 SI 16983 SL Si1 20035 1.100000 28.08600
20036 OA 16983 SL O1 20036 -0.675000 15.99940
20037 HG 16983 SL H1 20037 0.400000 2.01600
20038 SI 16984 SL Si1 20038 1.100000 28.08600
20039 OA 16984 SL O1 20039 -0.675000 15.99940
20040 HG 16984 SL H1 20040 0.400000 2.01600
20041 SI 16985 SL Si1 20041 1.100000 28.08600
20042 OA 16985 SL O1 20042 -0.675000 15.99940
20043 HG 16985 SL H1 20043 0.400000 2.01600
20044 SI 16986 SL Si1 20044 1.100000 28.08600
20045 OA 16986 SL O1 20045 -0.675000 15.99940
20046 HG 16986 SL H1 20046 0.400000 2.01600
20047 SI 16987 SL Si1 20047 1.100000 28.08600
20048 OA 16987 SL O1 20048 -0.675000 15.99940
20049 HG 16987 SL H1 20049 0.400000 2.01600
20050 SI 16988 SL Si1 20050 1.100000 28.08600
20051 OA 16988 SL O1 20051 -0.675000 15.99940
20052 HG 16988 SL H1 20052 0.400000 2.01600
20053 SI 16989 SL Si1 20053 1.100000 28.08600
20054 OA 16989 SL O1 20054 -0.675000 15.99940
20055 HG 16989 SL H1 20055 0.400000 2.01600
20056 SI 16990 SL Si1 20056 1.100000 28.08600
20057 OA 16990 SL O1 20057 -0.675000 15.99940
20058 HG 16990 SL H1 20058 0.400000 2.01600
20059 SI 16991 SL Si1 20059 1.100000 28.08600
20060 OA 16991 SL O1 20060 -0.675000 15.99940
20061 HG 16991 SL H1 20061 0.400000 2.01600
20062 SI 16992 SL Si1 20062 1.100000 28.08600
20063 OA 16992 SL O1 20063 -0.675000 15.99940
20064 HG 16992 SL H1 20064 0.400000 2.01600
20065 SI 16993 SL Si1 20065 1.100000 28.08600
20066 OA 16993 SL O1 20066 -0.675000 15.99940
20067 HG 16993 SL H1 20067 0.400000 2.01600
20068 SI 16994 SL Si1 20068 1.100000 28.08600
20069 OA 16994 SL O1 20069 -0.675000 15.99940
20070 HG 16994 SL H1 20070 0.400000 2.01600
20071 SI 16995 SL Si1 20071 1.100000 28.08600
20072 OA 16995 SL O1 20072 -0.675000 15.99940
20073 HG 16995 SL H1 20073 0.400000 2.01600
20074 SI 16996 SL Si1 20074 1.100000 28.08600
20075 OA 16996 SL O1 20075 -0.675000 15.99940
20076 HG 16996 SL H1 20076 0.400000 2.01600
20077 SI 16997 SL Si1 20077 1.100000 28.08600
20078 OA 16997 SL O1 20078 -0.675000 15.99940
20079 HG 16997 SL H1 20079 0.400000 2.01600
20080 SI 16998 SL Si1 20080 1.100000 28.08600
20081 OA 16998 SL O1 20081 -0.675000 15.99940
20082 HG 16998 SL H1 20082 0.400000 2.01600
20083 SI 16999 SL Si1 20083 1.100000 28.08600
20084 OA 16999 SL O1 20084 -0.675000 15.99940
20085 HG 16999 SL H1 20085 0.400000 2.01600
20086 SI 17000 SL Si1 20086 1.100000 28.08600
20087 OA 17000 SL O1 20087 -0.675000 15.99940
20088 HG 17000 SL H1 20088 0.400000 2.01600
20089 SI 17001 SL Si1 20089 1.100000 28.08600
20090 OA 17001 SL O1 20090 -0.675000 15.99940
20091 HG 17001 SL H1 20091 0.400000 2.01600
20092 SI 17002 SL Si1 20092 1.100000 28.08600
20093 OA 17002 SL O1 20093 -0.675000 15.99940
20094 HG 17002 SL H1 20094 0.400000 2.01600
20095 SI 17003 SL Si1 20095 1.100000 28.08600
20096 OA 17003 SL O1 20096 -0.675000 15.99940
20097 HG 17003 SL H1 20097 0.400000 2.01600
20098 SI 17004 SL Si1 20098 1.100000 28.08600
20099 OA 17004 SL O1 20099 -0.675000 15.99940
20100 HG 17004 SL H1 20100 0.400000 2.01600
20101 SI 17005 SL Si1 20101 1.100000 28.08600
20102 OA 17005 SL O1 20102 -0.675000 15.99940
20103 HG 17005 SL H1 20103 0.400000 2.01600
20104 SI 17006 SL Si1 20104 1.100000 28.08600
20105 OA 17006 SL O1 20105 -0.675000 15.99940
20106 HG 17006 SL H1 20106 0.400000 2.01600
20107 SI 17007 SL Si1 20107 1.100000 28.08600
20108 OA 17007 SL O1 20108 -0.675000 15.99940
20109 HG 17007 SL H1 20109 0.400000 2.01600
20110 SI 17008 SL Si1 20110 1.100000 28.08600
20111 OA 17008 SL O1 20111 -0.675000 15.99940
20112 HG 17008 SL H1 20112 0.400000 2.01600
20113 SI 17009 SL Si1 20113 1.100000 28.08600
20114 OA 17009 SL O1 20114 -0.675000 15.99940
20115 HG 17009 SL H1 20115 0.400000 2.01600
20116 SI 17010 SL Si1 20116 1.100000 28.08600
20117 OA 17010 SL O1 20117 -0.675000 15.99940
20118 HG 17010 SL H1 20118 0.400000 2.01600
20119 SI 17011 SL Si1 20119 1.100000 28.08600
20120 OA 17011 SL O1 20120 -0.675000 15.99940
20121 HG 17011 SL H1 20121 0.400000 2.01600
20122 SI 17012 SL Si1 20122 1.100000 28.08600
20123 OA 17012 SL O1 20123 -0.675000 15.99940
20124 HG 17012 SL H1 20124 0.400000 2.01600
20125 SI 17013 SL Si1 20125 1.100000 28.08600
20126 OA 17013 SL O1 20126 -0.675000 15.99940
20127 HG 17013 SL H1 20127 0.400000 2.01600
20128 SI 17014 SL Si1 20128 1.100000 28.08600
20129 OA 17014 SL O1 20129 -0.675000 15.99940
20130 HG 17014 SL H1 20130 0.400000 2.01600
20131 SI 17015 SL Si1 20131 1.100000 28.08600
20132 OA 17015 SL O1 20132 -0.675000 15.99940
20133 HG 17015 SL H1 20133 0.400000 2.01600
20134 SI 17016 SL Si1 20134 1.100000 28.08600
20135 OA 17016 SL O1 20135 -0.675000 15.99940
20136 HG 17016 SL H1 20136 0.400000 2.01600
20137 SI 17017 SL Si1 20137 1.100000 28.08600
20138 OA 17017 SL O1 20138 -0.675000 15.99940
20139 HG 17017 SL H1 20139 0.400000 2.01600
20140 SI 17018 SL Si1 20140 1.100000 28.08600
20141 OA 17018 SL O1 20141 -0.675000 15.99940
20142 HG 17018 SL H1 20142 0.400000 2.01600
20143 SI 17019 SL Si1 20143 1.100000 28.08600
20144 OA 17019 SL O1 20144 -0.675000 15.99940
20145 HG 17019 SL H1 20145 0.400000 2.01600
20146 SI 17020 SL Si1 20146 1.100000 28.08600
20147 OA 17020 SL O1 20147 -0.675000 15.99940
20148 HG 17020 SL H1 20148 0.400000 2.01600
20149 SI 17021 SL Si1 20149 1.100000 28.08600
20150 OA 17021 SL O1 20150 -0.675000 15.99940
20151 HG 17021 SL H1 20151 0.400000 2.01600
20152 SI 17022 SL Si1 20152 1.100000 28.08600
20153 OA 17022 SL O1 20153 -0.675000 15.99940
20154 HG 17022 SL H1 20154 0.400000 2.01600
20155 SI 17023 SL Si1 20155 1.100000 28.08600
20156 OA 17023 SL O1 20156 -0.675000 15.99940
20157 HG 17023 SL H1 20157 0.400000 2.01600
20158 SI 17024 SL Si1 20158 1.100000 28.08600
20159 OA 17024 SL O1 20159 -0.675000 15.99940
20160 HG 17024 SL H1 20160 0.400000 2.01600
20161 SI 17025 SL Si1 20161 1.100000 28.08600
20162 OA 17025 SL O1 20162 -0.675000 15.99940
20163 HG 17025 SL H1 20163 0.400000 2.01600
20164 SI 17026 SL Si1 20164 1.100000 28.08600
20165 OA 17026 SL O1 20165 -0.675000 15.99940
20166 HG 17026 SL H1 20166 0.400000 2.01600
20167 SI 17027 SL Si1 20167 1.100000 28.08600
20168 OA 17027 SL O1 20168 -0.675000 15.99940
20169 HG 17027 SL H1 20169 0.400000 2.01600
20170 SI 17028 SL Si1 20170 1.100000 28.08600
20171 OA 17028 SL O1 20171 -0.675000 15.99940
20172 HG 17028 SL H1 20172 0.400000 2.01600
20173 SI 17029 SL Si1 20173 1.100000 28.08600
20174 OA 17029 SL O1 20174 -0.675000 15.99940
20175 HG 17029 SL H1 20175 0.400000 2.01600
20176 SI 17030 SL Si1 20176 1.100000 28.08600
20177 OA 17030 SL O1 20177 -0.675000 15.99940
20178 HG 17030 SL H1 20178 0.400000 2.01600
20179 SI 17031 SL Si1 20179 1.100000 28.08600
20180 OA 17031 SL O1 20180 -0.675000 15.99940
20181 HG 17031 SL H1 20181 0.400000 2.01600
20182 SI 17032 SL Si1 20182 1.100000 28.08600
20183 OA 17032 SL O1 20183 -0.675000 15.99940
20184 HG 17032 SL H1 20184 0.400000 2.01600
20185 SI 17033 SL Si1 20185 1.100000 28.08600
20186 OA 17033 SL O1 20186 -0.675000 15.99940
20187 HG 17033 SL H1 20187 0.400000 2.01600
20188 SI 17034 SL Si1 20188 1.100000 28.08600
20189 OA 17034 SL O1 20189 -0.675000 15.99940
20190 HG 17034 SL H1 20190 0.400000 2.01600
20191 SI 17035 SL Si1 20191 1.100000 28.08600
20192 OA 17035 SL O1 20192 -0.675000 15.99940
20193 HG 17035 SL H1 20193 0.400000 2.01600
20194 SI 17036 SL Si1 20194 1.100000 28.08600
20195 OA 17036 SL O1 20195 -0.675000 15.99940
20196 HG 17036 SL H1 20196 0.400000 2.01600
20197 SI 17037 SL Si1 20197 1.100000 28.08600
20198 OA 17037 SL O1 20198 -0.675000 15.99940
20199 HG 17037 SL H1 20199 0.400000 2.01600
20200 SI 17038 SL Si1 20200 1.100000 28.08600
20201 OA 17038 SL O1 20201 -0.675000 15.99940
20202 HG 17038 SL H1 20202 0.400000 2.01600
20203 SI 17039 SL Si1 20203 1.100000 28.08600
20204 OA 17039 SL O1 20204 -0.675000 15.99940
20205 HG 17039 SL H1 20205 0.400000 2.01600
20206 SI 17040 SL Si1 20206 1.100000 28.08600
20207 OA 17040 SL O1 20207 -0.675000 15.99940
20208 HG 17040 SL H1 20208 0.400000 2.01600
20209 SI 17041 SL Si1 20209 1.100000 28.08600
20210 OA 17041 SL O1 20210 -0.675000 15.99940
20211 HG 17041 SL H1 20211 0.400000 2.01600
20212 SI 17042 SL Si1 20212 1.100000 28.08600
20213 OA 17042 SL O1 20213 -0.675000 15.99940
20214 HG 17042 SL H1 20214 0.400000 2.01600
20215 SI 17043 SL Si1 20215 1.100000 28.08600
20216 OA 17043 SL O1 20216 -0.675000 15.99940
20217 HG 17043 SL H1 20217 0.400000 2.01600
20218 SI 17044 SL Si1 20218 1.100000 28.08600
20219 OA 17044 SL O1 20219 -0.675000 15.99940
20220 HG 17044 SL H1 20220 0.400000 2.01600
20221 SI 17045 SL Si1 20221 1.100000 28.08600
20222 OA 17045 SL O1 20222 -0.675000 15.99940
20223 HG 17045 SL H1 20223 0.400000 2.01600
20224 SI 17046 SL Si1 20224 1.100000 28.08600
20225 OA 17046 SL O1 20225 -0.675000 15.99940
20226 HG 17046 SL H1 20226 0.400000 2.01600
20227 SI 17047 SL Si1 20227 1.100000 28.08600
20228 OA 17047 SL O1 20228 -0.675000 15.99940
20229 HG 17047 SL H1 20229 0.400000 2.01600
20230 SI 17048 SL Si1 20230 1.100000 28.08600
20231 OA 17048 SL O1 20231 -0.675000 15.99940
20232 HG 17048 SL H1 20232 0.400000 2.01600
20233 SI 17049 SL Si1 20233 1.100000 28.08600
20234 OA 17049 SL O1 20234 -0.675000 15.99940
20235 HG 17049 SL H1 20235 0.400000 2.01600
20236 SI 17050 SL Si1 20236 1.100000 28.08600
20237 OA 17050 SL O1 20237 -0.675000 15.99940
20238 HG 17050 SL H1 20238 0.400000 2.01600
20239 SI 17051 SL Si1 20239 1.100000 28.08600
20240 OA 17051 SL O1 20240 -0.675000 15.99940
20241 HG 17051 SL H1 20241 0.400000 2.01600
20242 SI 17052 SL Si1 20242 1.100000 28.08600
20243 OA 17052 SL O1 20243 -0.675000 15.99940
20244 HG 17052 SL H1 20244 0.400000 2.01600
20245 SI 17053 SL Si1 20245 1.100000 28.08600
20246 OA 17053 SL O1 20246 -0.675000 15.99940
20247 HG 17053 SL H1 20247 0.400000 2.01600
20248 SI 17054 SL Si1 20248 1.100000 28.08600
20249 OA 17054 SL O1 20249 -0.675000 15.99940
20250 HG 17054 SL H1 20250 0.400000 2.01600
20251 SI 17055 SL Si1 20251 1.100000 28.08600
20252 OA 17055 SL O1 20252 -0.675000 15.99940
20253 HG 17055 SL H1 20253 0.400000 2.01600
20254 SI 17056 SL Si1 20254 1.100000 28.08600
20255 OA 17056 SL O1 20255 -0.675000 15.99940
20256 HG 17056 SL H1 20256 0.400000 2.01600
20257 SI 17057 SL Si1 20257 1.100000 28.08600
20258 OA 17057 SL O1 20258 -0.675000 15.99940
20259 HG 17057 SL H1 20259 0.400000 2.01600
20260 SI 17058 SL Si1 20260 1.100000 28.08600
20261 OA 17058 SL O1 20261 -0.675000 15.99940
20262 HG 17058 SL H1 20262 0.400000 2.01600
20263 SI 17059 SL Si1 20263 1.100000 28.08600
20264 OA 17059 SL O1 20264 -0.675000 15.99940
20265 HG 17059 SL H1 20265 0.400000 2.01600
20266 SI 17060 SL Si1 20266 1.100000 28.08600
20267 OA 17060 SL O1 20267 -0.675000 15.99940
20268 HG 17060 SL H1 20268 0.400000 2.01600
20269 SI 17061 SL Si1 20269 1.100000 28.08600
20270 OA 17061 SL O1 20270 -0.675000 15.99940
20271 HG 17061 SL H1 20271 0.400000 2.01600
20272 SI 17062 SL Si1 20272 1.100000 28.08600
20273 OA 17062 SL O1 20273 -0.675000 15.99940
20274 HG 17062 SL H1 20274 0.400000 2.01600
20275 SI 17063 SL Si1 20275 1.100000 28.08600
20276 OA 17063 SL O1 20276 -0.675000 15.99940
20277 HG 17063 SL H1 20277 0.400000 2.01600
20278 SI 17064 SL Si1 20278 1.100000 28.08600
20279 OA 17064 SL O1 20279 -0.675000 15.99940
20280 HG 17064 SL H1 20280 0.400000 2.01600
20281 SI 17065 SL Si1 20281 1.100000 28.08600
20282 OA 17065 SL O1 20282 -0.675000 15.99940
20283 HG 17065 SL H1 20283 0.400000 2.01600
20284 SI 17066 SL Si1 20284 1.100000 28.08600
20285 OA 17066 SL O1 20285 -0.675000 15.99940
20286 HG 17066 SL H1 20286 0.400000 2.01600
20287 SI 17067 SL Si1 20287 1.100000 28.08600
20288 OA 17067 SL O1 20288 -0.675000 15.99940
20289 HG 17067 SL H1 20289 0.400000 2.01600
20290 SI 17068 SL Si1 20290 1.100000 28.08600
20291 OA 17068 SL O1 20291 -0.675000 15.99940
20292 HG 17068 SL H1 20292 0.400000 2.01600
20293 SI 17069 SL Si1 20293 1.100000 28.08600
20294 OA 17069 SL O1 20294 -0.675000 15.99940
20295 HG 17069 SL H1 20295 0.400000 2.01600
20296 SI 17070 SL Si1 20296 1.100000 28.08600
20297 OA 17070 SL O1 20297 -0.675000 15.99940
20298 HG 17070 SL H1 20298 0.400000 2.01600
20299 SI 17071 SL Si1 20299 1.100000 28.08600
20300 OA 17071 SL O1 20300 -0.675000 15.99940
20301 HG 17071 SL H1 20301 0.400000 2.01600
20302 SI 17072 SL Si1 20302 1.100000 28.08600
20303 OA 17072 SL O1 20303 -0.675000 15.99940
20304 HG 17072 SL H1 20304 0.400000 2.01600
20305 SI 17073 SL Si1 20305 1.100000 28.08600
20306 OA 17073 SL O1 20306 -0.675000 15.99940
20307 HG 17073 SL H1 20307 0.400000 2.01600
20308 SI 17074 SL Si1 20308 1.100000 28.08600
20309 OA 17074 SL O1 20309 -0.675000 15.99940
20310 HG 17074 SL H1 20310 0.400000 2.01600
20311 SI 17075 SL Si1 20311 1.100000 28.08600
20312 OA 17075 SL O1 20312 -0.675000 15.99940
20313 HG 17075 SL H1 20313 0.400000 2.01600
20314 SI 17076 SL Si1 20314 1.100000 28.08600
20315 OA 17076 SL O1 20315 -0.675000 15.99940
20316 HG 17076 SL H1 20316 0.400000 2.01600
20317 SI 17077 SL Si1 20317 1.100000 28.08600
20318 OA 17077 SL O1 20318 -0.675000 15.99940
20319 HG 17077 SL H1 20319 0.400000 2.01600
20320 SI 17078 SL Si1 20320 1.100000 28.08600
20321 OA 17078 SL O1 20321 -0.675000 15.99940
20322 HG 17078 SL H1 20322 0.400000 2.01600
20323 SI 17079 SL Si1 20323 1.100000 28.08600
20324 OA 17079 SL O1 20324 -0.675000 15.99940
20325 HG 17079 SL H1 20325 0.400000 2.01600
20326 SI 17080 SL Si1 20326 1.100000 28.08600
20327 OA 17080 SL O1 20327 -0.675000 15.99940
20328 HG 17080 SL H1 20328 0.400000 2.01600
20329 SI 17081 SL Si1 20329 1.100000 28.08600
20330 OA 17081 SL O1 20330 -0.675000 15.99940
20331 HG 17081 SL H1 20331 0.400000 2.01600
20332 SI 17082 SL Si1 20332 1.100000 28.08600
20333 OA 17082 SL O1 20333 -0.675000 15.99940
20334 HG 17082 SL H1 20334 0.400000 2.01600
20335 SI 17083 SL Si1 20335 1.100000 28.08600
20336 OA 17083 SL O1 20336 -0.675000 15.99940
20337 HG 17083 SL H1 20337 0.400000 2.01600
20338 SI 17084 SL Si1 20338 1.100000 28.08600
20339 OA 17084 SL O1 20339 -0.675000 15.99940
20340 HG 17084 SL H1 20340 0.400000 2.01600
20341 SI 17085 SL Si1 20341 1.100000 28.08600
20342 OA 17085 SL O1 20342 -0.675000 15.99940
20343 HG 17085 SL H1 20343 0.400000 2.01600
20344 SI 17086 SL Si1 20344 1.100000 28.08600
20345 OA 17086 SL O1 20345 -0.675000 15.99940
20346 HG 17086 SL H1 20346 0.400000 2.01600
20347 SI 17087 SL Si1 20347 1.100000 28.08600
20348 OA 17087 SL O1 20348 -0.675000 15.99940
20349 HG 17087 SL H1 20349 0.400000 2.01600
20350 SI 17088 SL Si1 20350 1.100000 28.08600
20351 OA 17088 SL O1 20351 -0.675000 15.99940
20352 HG 17088 SL H1 20352 0.400000 2.01600
20353 SI 17089 SL Si1 20353 1.100000 28.08600
20354 OA 17089 SL O1 20354 -0.675000 15.99940
20355 HG 17089 SL H1 20355 0.400000 2.01600
20356 SI 17090 SL Si1 20356 1.100000 28.08600
20357 OA 17090 SL O1 20357 -0.675000 15.99940
20358 HG 17090 SL H1 20358 0.400000 2.01600
20359 SI 17091 SL Si1 20359 1.100000 28.08600
20360 OA 17091 SL O1 20360 -0.675000 15.99940
20361 HG 17091 SL H1 20361 0.400000 2.01600
20362 SI 17092 SL Si1 20362 1.100000 28.08600
20363 OA 17092 SL O1 20363 -0.675000 15.99940
20364 HG 17092 SL H1 20364 0.400000 2.01600
20365 SI 17093 SL Si1 20365 1.100000 28.08600
20366 OA 17093 SL O1 20366 -0.675000 15.99940
20367 HG 17093 SL H1 20367 0.400000 2.01600
20368 SI 17094 SL Si1 20368 1.100000 28.08600
20369 OA 17094 SL O1 20369 -0.675000 15.99940
20370 HG 17094 SL H1 20370 0.400000 2.01600
20371 SI 17095 SL Si1 20371 1.100000 28.08600
20372 OA 17095 SL O1 20372 -0.675000 15.99940
20373 HG 17095 SL H1 20373 0.400000 2.01600
20374 SI 17096 SL Si1 20374 1.100000 28.08600
20375 OA 17096 SL O1 20375 -0.675000 15.99940
20376 HG 17096 SL H1 20376 0.400000 2.01600
20377 SI 17097 SL Si1 20377 1.100000 28.08600
20378 OA 17097 SL O1 20378 -0.675000 15.99940
20379 HG 17097 SL H1 20379 0.400000 2.01600
20380 SI 17098 SL Si1 20380 1.100000 28.08600
20381 OA 17098 SL O1 20381 -0.675000 15.99940
20382 HG 17098 SL H1 20382 0.400000 2.01600
20383 SI 17099 SL Si1 20383 1.100000 28.08600
20384 OA 17099 SL O1 20384 -0.675000 15.99940
20385 HG 17099 SL H1 20385 0.400000 2.01600
20386 SI 17100 SL Si1 20386 1.100000 28.08600
20387 OA 17100 SL O1 20387 -0.675000 15.99940
20388 HG 17100 SL H1 20388 0.400000 2.01600
20389 SI 17101 SL Si1 20389 1.100000 28.08600
20390 OA 17101 SL O1 20390 -0.675000 15.99940
20391 HG 17101 SL H1 20391 0.400000 2.01600
20392 SI 17102 SL Si1 20392 1.100000 28.08600
20393 OA 17102 SL O1 20393 -0.675000 15.99940
20394 HG 17102 SL H1 20394 0.400000 2.01600
20395 SI 17103 SL Si1 20395 1.100000 28.08600
20396 OA 17103 SL O1 20396 -0.675000 15.99940
20397 HG 17103 SL H1 20397 0.400000 2.01600
20398 SI 17104 SL Si1 20398 1.100000 28.08600
20399 OA 17104 SL O1 20399 -0.675000 15.99940
20400 HG 17104 SL H1 20400 0.400000 2.01600
20401 SI 17105 SL Si1 20401 1.100000 28.08600
20402 OA 17105 SL O1 20402 -0.675000 15.99940
20403 HG 17105 SL H1 20403 0.400000 2.01600
20404 SI 17106 SL Si1 20404 1.100000 28.08600
20405 OA 17106 SL O1 20405 -0.675000 15.99940
20406 HG 17106 SL H1 20406 0.400000 2.01600
20407 SI 17107 SL Si1 20407 1.100000 28.08600
20408 OA 17107 SL O1 20408 -0.675000 15.99940
20409 HG 17107 SL H1 20409 0.400000 2.01600
20410 SI 17108 SL Si1 20410 1.100000 28.08600
20411 OA 17108 SL O1 20411 -0.675000 15.99940
20412 HG 17108 SL H1 20412 0.400000 2.01600
20413 SI 17109 SL Si1 20413 1.100000 28.08600
20414 OA 17109 SL O1 20414 -0.675000 15.99940
20415 HG 17109 SL H1 20415 0.400000 2.01600
20416 SI 17110 SL Si1 20416 1.100000 28.08600
20417 OA 17110 SL O1 20417 -0.675000 15.99940
20418 HG 17110 SL H1 20418 0.400000 2.01600
20419 SI 17111 SL Si1 20419 1.100000 28.08600
20420 OA 17111 SL O1 20420 -0.675000 15.99940
20421 HG 17111 SL H1 20421 0.400000 2.01600
20422 SI 17112 SL Si1 20422 1.100000 28.08600
20423 OA 17112 SL O1 20423 -0.675000 15.99940
20424 HG 17112 SL H1 20424 0.400000 2.01600
20425 SI 17113 SL Si1 20425 1.100000 28.08600
20426 OA 17113 SL O1 20426 -0.675000 15.99940
20427 HG 17113 SL H1 20427 0.400000 2.01600
20428 SI 17114 SL Si1 20428 1.100000 28.08600
20429 OA 17114 SL O1 20429 -0.675000 15.99940
20430 HG 17114 SL H1 20430 0.400000 2.01600
20431 SI 17115 SL Si1 20431 1.100000 28.08600
20432 OA 17115 SL O1 20432 -0.675000 15.99940
20433 HG 17115 SL H1 20433 0.400000 2.01600
20434 SI 17116 SL Si1 20434 1.100000 28.08600
20435 OA 17116 SL O1 20435 -0.675000 15.99940
20436 HG 17116 SL H1 20436 0.400000 2.01600
20437 SI 17117 SL Si1 20437 1.100000 28.08600
20438 OA 17117 SL O1 20438 -0.675000 15.99940
20439 HG 17117 SL H1 20439 0.400000 2.01600
20440 SI 17118 SL Si1 20440 1.100000 28.08600
20441 OA 17118 SL O1 20441 -0.675000 15.99940
20442 HG 17118 SL H1 20442 0.400000 2.01600
20443 SI 17119 SL Si1 20443 1.100000 28.08600
20444 OA 17119 SL O1 20444 -0.675000 15.99940
20445 HG 17119 SL H1 20445 0.400000 2.01600
20446 SI 17120 SL Si1 20446 1.100000 28.08600
20447 OA 17120 SL O1 20447 -0.675000 15.99940
20448 HG 17120 SL H1 20448 0.400000 2.01600
20449 SI 17121 SL Si1 20449 1.100000 28.08600
20450 OA 17121 SL O1 20450 -0.675000 15.99940
20451 HG 17121 SL H1 20451 0.400000 2.01600
20452 SI 17122 SL Si1 20452 1.100000 28.08600
20453 OA 17122 SL O1 20453 -0.675000 15.99940
20454 HG 17122 SL H1 20454 0.400000 2.01600
20455 SI 17123 SL Si1 20455 1.100000 28.08600
20456 OA 17123 SL O1 20456 -0.675000 15.99940
20457 HG 17123 SL H1 20457 0.400000 2.01600
20458 SI 17124 SL Si1 20458 1.100000 28.08600
20459 OA 17124 SL O1 20459 -0.675000 15.99940
20460 HG 17124 SL H1 20460 0.400000 2.01600
20461 SI 17125 SL Si1 20461 1.100000 28.08600
20462 OA 17125 SL O1 20462 -0.675000 15.99940
20463 HG 17125 SL H1 20463 0.400000 2.01600
20464 SI 17126 SL Si1 20464 1.100000 28.08600
20465 OA 17126 SL O1 20465 -0.675000 15.99940
20466 HG 17126 SL H1 20466 0.400000 2.01600
20467 SI 17127 SL Si1 20467 1.100000 28.08600
20468 OA 17127 SL O1 20468 -0.675000 15.99940
20469 HG 17127 SL H1 20469 0.400000 2.01600
20470 SI 17128 SL Si1 20470 1.100000 28.08600
20471 OA 17128 SL O1 20471 -0.675000 15.99940
20472 HG 17128 SL H1 20472 0.400000 2.01600
20473 SI 17129 SL Si1 20473 1.100000 28.08600
20474 OA 17129 SL O1 20474 -0.675000 15.99940
20475 HG 17129 SL H1 20475 0.400000 2.01600
20476 SI 17130 SL Si1 20476 1.100000 28.08600
20477 OA 17130 SL O1 20477 -0.675000 15.99940
20478 HG 17130 SL H1 20478 0.400000 2.01600
20479 SI 17131 SL Si1 20479 1.100000 28.08600
20480 OA 17131 SL O1 20480 -0.675000 15.99940
20481 HG 17131 SL H1 20481 0.400000 2.01600
20482 SI 17132 SL Si1 20482 1.100000 28.08600
20483 OA 17132 SL O1 20483 -0.675000 15.99940
20484 HG 17132 SL H1 20484 0.400000 2.01600
20485 SI 17133 SL Si1 20485 1.100000 28.08600
20486 OA 17133 SL O1 20486 -0.675000 15.99940
20487 HG 17133 SL H1 20487 0.400000 2.01600
20488 SI 17134 SL Si1 20488 1.100000 28.08600
20489 OA 17134 SL O1 20489 -0.675000 15.99940
20490 HG 17134 SL H1 20490 0.400000 2.01600
20491 SI 17135 SL Si1 20491 1.100000 28.08600
20492 OA 17135 SL O1 20492 -0.675000 15.99940
20493 HG 17135 SL H1 20493 0.400000 2.01600
20494 SI 17136 SL Si1 20494 1.100000 28.08600
20495 OA 17136 SL O1 20495 -0.675000 15.99940
20496 HG 17136 SL H1 20496 0.400000 2.01600
20497 SI 17137 SL Si1 20497 1.100000 28.08600
20498 OA 17137 SL O1 20498 -0.675000 15.99940
20499 HG 17137 SL H1 20499 0.400000 2.01600
20500 SI 17138 SL Si1 20500 1.100000 28.08600
20501 OA 17138 SL O1 20501 -0.675000 15.99940
20502 HG 17138 SL H1 20502 0.400000 2.01600
20503 SI 17139 SL Si1 20503 1.100000 28.08600
20504 OA 17139 SL O1 20504 -0.675000 15.99940
20505 HG 17139 SL H1 20505 0.400000 2.01600
20506 SI 17140 SL Si1 20506 1.100000 28.08600
20507 OA 17140 SL O1 20507 -0.675000 15.99940
20508 HG 17140 SL H1 20508 0.400000 2.01600
20509 SI 17141 SL Si1 20509 1.100000 28.08600
20510 OA 17141 SL O1 20510 -0.675000 15.99940
20511 HG 17141 SL H1 20511 0.400000 2.01600
20512 SI 17142 SL Si1 20512 1.100000 28.08600
20513 OA 17142 SL O1 20513 -0.675000 15.99940
20514 HG 17142 SL H1 20514 0.400000 2.01600
20515 SI 17143 SL Si1 20515 1.100000 28.08600
20516 OA 17143 SL O1 20516 -0.675000 15.99940
20517 HG 17143 SL H1 20517 0.400000 2.01600
20518 SI 17144 SL Si1 20518 1.100000 28.08600
20519 OA 17144 SL O1 20519 -0.675000 15.99940
20520 HG 17144 SL H1 20520 0.400000 2.01600
20521 SI 17145 SL Si1 20521 1.100000 28.08600
20522 OA 17145 SL O1 20522 -0.675000 15.99940
20523 HG 17145 SL H1 20523 0.400000 2.01600
20524 SI 17146 SL Si1 20524 1.100000 28.08600
20525 OA 17146 SL O1 20525 -0.675000 15.99940
20526 HG 17146 SL H1 20526 0.400000 2.01600
20527 SI 17147 SL Si1 20527 1.100000 28.08600
20528 OA 17147 SL O1 20528 -0.675000 15.99940
20529 HG 17147 SL H1 20529 0.400000 2.01600
20530 SI 17148 SL Si1 20530 1.100000 28.08600
20531 OA 17148 SL O1 20531 -0.675000 15.99940
20532 HG 17148 SL H1 20532 0.400000 2.01600
20533 SI 17149 SL Si1 20533 1.100000 28.08600
20534 OA 17149 SL O1 20534 -0.675000 15.99940
20535 HG 17149 SL H1 20535 0.400000 2.01600
20536 SI 17150 SL Si1 20536 1.100000 28.08600
20537 OA 17150 SL O1 20537 -0.675000 15.99940
20538 HG 17150 SL H1 20538 0.400000 2.01600
20539 SI 17151 SL Si1 20539 1.100000 28.08600
20540 OA 17151 SL O1 20540 -0.675000 15.99940
20541 HG 17151 SL H1 20541 0.400000 2.01600
20542 SI 17152 SL Si1 20542 1.100000 28.08600
20543 OA 17152 SL O1 20543 -0.675000 15.99940
20544 HG 17152 SL H1 20544 0.400000 2.01600
20545 SI 17153 SL Si1 20545 1.100000 28.08600
20546 OA 17153 SL O1 20546 -0.675000 15.99940
20547 HG 17153 SL H1 20547 0.400000 2.01600
20548 SI 17154 SL Si1 20548 1.100000 28.08600
20549 OA 17154 SL O1 20549 -0.675000 15.99940
20550 HG 17154 SL H1 20550 0.400000 2.01600
20551 SI 17155 SL Si1 20551 1.100000 28.08600
20552 OA 17155 SL O1 20552 -0.675000 15.99940
20553 HG 17155 SL H1 20553 0.400000 2.01600
20554 SI 17156 SL Si1 20554 1.100000 28.08600
20555 OA 17156 SL O1 20555 -0.675000 15.99940
20556 HG 17156 SL H1 20556 0.400000 2.01600
20557 SI 17157 SL Si1 20557 1.100000 28.08600
20558 OA 17157 SL O1 20558 -0.675000 15.99940
20559 HG 17157 SL H1 20559 0.400000 2.01600
20560 SI 17158 SL Si1 20560 1.100000 28.08600
20561 OA 17158 SL O1 20561 -0.675000 15.99940
20562 HG 17158 SL H1 20562 0.400000 2.01600
20563 SI 17159 SL Si1 20563 1.100000 28.08600
20564 OA 17159 SL O1 20564 -0.675000 15.99940
20565 HG 17159 SL H1 20565 0.400000 2.01600
20566 SI 17160 SL Si1 20566 1.100000 28.08600
20567 OA 17160 SL O1 20567 -0.675000 15.99940
20568 HG 17160 SL H1 20568 0.400000 2.01600
20569 SI 17161 SL Si1 20569 1.100000 28.08600
20570 OA 17161 SL O1 20570 -0.675000 15.99940
20571 HG 17161 SL H1 20571 0.400000 2.01600
20572 SI 17162 SL Si1 20572 1.100000 28.08600
20573 OA 17162 SL O1 20573 -0.675000 15.99940
20574 HG 17162 SL H1 20574 0.400000 2.01600
20575 SI 17163 SL Si1 20575 1.100000 28.08600
20576 OA 17163 SL O1 20576 -0.675000 15.99940
20577 HG 17163 SL H1 20577 0.400000 2.01600
20578 SI 17164 SL Si1 20578 1.100000 28.08600
20579 OA 17164 SL O1 20579 -0.675000 15.99940
20580 HG 17164 SL H1 20580 0.400000 2.01600
20581 SI 17165 SL Si1 20581 1.100000 28.08600
20582 OA 17165 SL O1 20582 -0.675000 15.99940
20583 HG 17165 SL H1 20583 0.400000 2.01600
20584 SI 17166 SL Si1 20584 1.100000 28.08600
20585 OA 17166 SL O1 20585 -0.675000 15.99940
20586 HG 17166 SL H1 20586 0.400000 2.01600
20587 SI 17167 SL Si1 20587 1.100000 28.08600
20588 OA 17167 SL O1 20588 -0.675000 15.99940
20589 HG 17167 SL H1 20589 0.400000 2.01600
20590 SI 17168 SL Si1 20590 1.100000 28.08600
20591 OA 17168 SL O1 20591 -0.675000 15.99940
20592 HG 17168 SL H1 20592 0.400000 2.01600
20593 SI 17169 SL Si1 20593 1.100000 28.08600
20594 OA 17169 SL O1 20594 -0.675000 15.99940
20595 HG 17169 SL H1 20595 0.400000 2.01600
20596 SI 17170 SL Si1 20596 1.100000 28.08600
20597 OA 17170 SL O1 20597 -0.675000 15.99940
20598 HG 17170 SL H1 20598 0.400000 2.01600
20599 SI 17171 SL Si1 20599 1.100000 28.08600
20600 OA 17171 SL O1 20600 -0.675000 15.99940
20601 HG 17171 SL H1 20601 0.400000 2.01600
20602 SI 17172 SL Si1 20602 1.100000 28.08600
20603 OA 17172 SL O1 20603 -0.675000 15.99940
20604 HG 17172 SL H1 20604 0.400000 2.01600
20605 SI 17173 SL Si1 20605 1.100000 28.08600
20606 OA 17173 SL O1 20606 -0.675000 15.99940
20607 HG 17173 SL H1 20607 0.400000 2.01600
20608 SI 17174 SL Si1 20608 1.100000 28.08600
20609 OA 17174 SL O1 20609 -0.675000 15.99940
20610 HG 17174 SL H1 20610 0.400000 2.01600
20611 SI 17175 SL Si1 20611 1.100000 28.08600
20612 OA 17175 SL O1 20612 -0.675000 15.99940
20613 HG 17175 SL H1 20613 0.400000 2.01600
20614 SI 17176 SL Si1 20614 1.100000 28.08600
20615 OA 17176 SL O1 20615 -0.675000 15.99940
20616 HG 17176 SL H1 20616 0.400000 2.01600
20617 SI 17177 SL Si1 20617 1.100000 28.08600
20618 OA 17177 SL O1 20618 -0.675000 15.99940
20619 HG 17177 SL H1 20619 0.400000 2.01600
20620 SI 17178 SL Si1 20620 1.100000 28.08600
20621 OA 17178 SL O1 20621 -0.675000 15.99940
20622 HG 17178 SL H1 20622 0.400000 2.01600
20623 SI 17179 SL Si1 20623 1.100000 28.08600
20624 OA 17179 SL O1 20624 -0.675000 15.99940
20625 HG 17179 SL H1 20625 0.400000 2.01600
20626 SI 17180 SL Si1 20626 1.100000 28.08600
20627 OA 17180 SL O1 20627 -0.675000 15.99940
20628 HG 17180 SL H1 20628 0.400000 2.01600
20629 SI 17181 SL Si1 20629 1.100000 28.08600
20630 OA 17181 SL O1 20630 -0.675000 15.99940
20631 HG 17181 SL H1 20631 0.400000 2.01600
20632 SI 17182 SL Si1 20632 1.100000 28.08600
20633 OA 17182 SL O1 20633 -0.675000 15.99940
20634 HG 17182 SL H1 20634 0.400000 2.01600
20635 SI 17183 SL Si1 20635 1.100000 28.08600
20636 OA 17183 SL O1 20636 -0.675000 15.99940
20637 HG 17183 SL H1 20637 0.400000 2.01600
20638 SI 17184 SL Si1 20638 1.100000 28.08600
20639 OA 17184 SL O1 20639 -0.675000 15.99940
20640 HG 17184 SL H1 20640 0.400000 2.01600
20641 SI 17185 SL Si1 20641 1.100000 28.08600
20642 OA 17185 SL O1 20642 -0.675000 15.99940
20643 HG 17185 SL H1 20643 0.400000 2.01600
20644 SI 17186 SL Si1 20644 1.100000 28.08600
20645 OA 17186 SL O1 20645 -0.675000 15.99940
20646 HG 17186 SL H1 20646 0.400000 2.01600
20647 SI 17187 SL Si1 20647 1.100000 28.08600
20648 OA 17187 SL O1 20648 -0.675000 15.99940
20649 HG 17187 SL H1 20649 0.400000 2.01600
20650 SI 17188 SL Si1 20650 1.100000 28.08600
20651 OA 17188 SL O1 20651 -0.675000 15.99940
20652 HG 17188 SL H1 20652 0.400000 2.01600
20653 SI 17189 SL Si1 20653 1.100000 28.08600
20654 OA 17189 SL O1 20654 -0.675000 15.99940
20655 HG 17189 SL H1 20655 0.400000 2.01600
20656 SI 17190 SL Si1 20656 1.100000 28.08600
20657 OA 17190 SL O1 20657 -0.675000 15.99940
20658 HG 17190 SL H1 20658 0.400000 2.01600
20659 SI 17191 SL Si1 20659 1.100000 28.08600
20660 OA 17191 SL O1 20660 -0.675000 15.99940
20661 HG 17191 SL H1 20661 0.400000 2.01600
20662 SI 17192 SL Si1 20662 1.100000 28.08600
20663 OA 17192 SL O1 20663 -0.675000 15.99940
20664 HG 17192 SL H1 20664 0.400000 2.01600
20665 SI 17193 SL Si1 20665 1.100000 28.08600
20666 OA 17193 SL O1 20666 -0.675000 15.99940
20667 HG 17193 SL H1 20667 0.400000 2.01600
20668 SI 17194 SL Si1 20668 1.100000 28.08600
20669 OA 17194 SL O1 20669 -0.675000 15.99940
20670 HG 17194 SL H1 20670 0.400000 2.01600
20671 SI 17195 SL Si1 20671 1.100000 28.08600
20672 OA 17195 SL O1 20672 -0.675000 15.99940
20673 HG 17195 SL H1 20673 0.400000 2.01600
20674 SI 17196 SL Si1 20674 1.100000 28.08600
20675 OA 17196 SL O1 20675 -0.675000 15.99940
20676 HG 17196 SL H1 20676 0.400000 2.01600
20677 SI 17197 SL Si1 20677 1.100000 28.08600
20678 OA 17197 SL O1 20678 -0.675000 15.99940
20679 HG 17197 SL H1 20679 0.400000 2.01600
20680 SI 17198 SL Si1 20680 1.100000 28.08600
20681 OA 17198 SL O1 20681 -0.675000 15.99940
20682 HG 17198 SL H1 20682 0.400000 2.01600
20683 SI 17199 SL Si1 20683 1.100000 28.08600
20684 OA 17199 SL O1 20684 -0.675000 15.99940
20685 HG 17199 SL H1 20685 0.400000 2.01600
20686 SI 17200 SL Si1 20686 1.100000 28.08600
20687 OA 17200 SL O1 20687 -0.675000 15.99940
20688 HG 17200 SL H1 20688 0.400000 2.01600
20689 SI 17201 SL Si1 20689 1.100000 28.08600
20690 OA 17201 SL O1 20690 -0.675000 15.99940
20691 HG 17201 SL H1 20691 0.400000 2.01600
20692 SI 17202 SL Si1 20692 1.100000 28.08600
20693 OA 17202 SL O1 20693 -0.675000 15.99940
20694 HG 17202 SL H1 20694 0.400000 2.01600
20695 SI 17203 SL Si1 20695 1.100000 28.08600
20696 OA 17203 SL O1 20696 -0.675000 15.99940
20697 HG 17203 SL H1 20697 0.400000 2.01600
20698 SI 17204 SL Si1 20698 1.100000 28.08600
20699 OA 17204 SL O1 20699 -0.675000 15.99940
20700 HG 17204 SL H1 20700 0.400000 2.01600
20701 SI 17205 SL Si1 20701 1.100000 28.08600
20702 OA 17205 SL O1 20702 -0.675000 15.99940
20703 HG 17205 SL H1 20703 0.400000 2.01600
20704 SI 17206 SL Si1 20704 1.100000 28.08600
20705 OA 17206 SL O1 20705 -0.675000 15.99940
20706 HG 17206 SL H1 20706 0.400000 2.01600
20707 SI 17207 SL Si1 20707 1.100000 28.08600
20708 OA 17207 SL O1 20708 -0.675000 15.99940
20709 HG 17207 SL H1 20709 0.400000 2.01600
20710 SI 17208 SL Si1 20710 1.100000 28.08600
20711 OA 17208 SL O1 20711 -0.675000 15.99940
20712 HG 17208 SL H1 20712 0.400000 2.01600
20713 SI 17209 SL Si1 20713 1.100000 28.08600
20714 OA 17209 SL O1 20714 -0.675000 15.99940
20715 HG 17209 SL H1 20715 0.400000 2.01600
20716 SI 17210 SL Si1 20716 1.100000 28.08600
20717 OA 17210 SL O1 20717 -0.675000 15.99940
20718 HG 17210 SL H1 20718 0.400000 2.01600
20719 SI 17211 SL Si1 20719 1.100000 28.08600
20720 OA 17211 SL O1 20720 -0.675000 15.99940
20721 HG 17211 SL H1 20721 0.400000 2.01600
20722 SI 17212 SL Si1 20722 1.100000 28.08600
20723 OA 17212 SL O1 20723 -0.675000 15.99940
20724 HG 17212 SL H1 20724 0.400000 2.01600
20725 SI 17213 SL Si1 20725 1.100000 28.08600
20726 OA 17213 SL O1 20726 -0.675000 15.99940
20727 HG 17213 SL H1 20727 0.400000 2.01600
20728 SI 17214 SL Si1 20728 1.100000 28.08600
20729 OA 17214 SL O1 20729 -0.675000 15.99940
20730 HG 17214 SL H1 20730 0.400000 2.01600
20731 SI 17215 SL Si1 20731 1.100000 28.08600
20732 OA 17215 SL O1 20732 -0.675000 15.99940
20733 HG 17215 SL H1 20733 0.400000 2.01600
20734 SI 17216 SL Si1 20734 1.100000 28.08600
20735 OA 17216 SL O1 20735 -0.675000 15.99940
20736 HG 17216 SL H1 20736 0.400000 2.01600
20737 SI 17217 SL Si1 20737 1.100000 28.08600
20738 OA 17217 SL O1 20738 -0.675000 15.99940
20739 HG 17217 SL H1 20739 0.400000 2.01600
20740 SI 17218 SL Si1 20740 1.100000 28.08600
20741 OA 17218 SL O1 20741 -0.675000 15.99940
20742 HG 17218 SL H1 20742 0.400000 2.01600
20743 SI 17219 SL Si1 20743 1.100000 28.08600
20744 OA 17219 SL O1 20744 -0.675000 15.99940
20745 HG 17219 SL H1 20745 0.400000 2.01600
20746 SI 17220 SL Si1 20746 1.100000 28.08600
20747 OA 17220 SL O1 20747 -0.675000 15.99940
20748 HG 17220 SL H1 20748 0.400000 2.01600
20749 SI 17221 SL Si1 20749 1.100000 28.08600
20750 OA 17221 SL O1 20750 -0.675000 15.99940
20751 HG 17221 SL H1 20751 0.400000 2.01600
20752 SI 17222 SL Si1 20752 1.100000 28.08600
20753 OA 17222 SL O1 20753 -0.675000 15.99940
20754 HG 17222 SL H1 20754 0.400000 2.01600
20755 SI 17223 SL Si1 20755 1.100000 28.08600
20756 OA 17223 SL O1 20756 -0.675000 15.99940
20757 HG 17223 SL H1 20757 0.400000 2.01600
20758 SI 17224 SL Si1 20758 1.100000 28.08600
20759 OA 17224 SL O1 20759 -0.675000 15.99940
20760 HG 17224 SL H1 20760 0.400000 2.01600
20761 SI 17225 SL Si1 20761 1.100000 28.08600
20762 OA 17225 SL O1 20762 -0.675000 15.99940
20763 HG 17225 SL H1 20763 0.400000 2.01600
20764 SI 17226 SL Si1 20764 1.100000 28.08600
20765 OA 17226 SL O1 20765 -0.675000 15.99940
20766 HG 17226 SL H1 20766 0.400000 2.01600
20767 SI 17227 SL Si1 20767 1.100000 28.08600
20768 OA 17227 SL O1 20768 -0.675000 15.99940
20769 HG 17227 SL H1 20769 0.400000 2.01600
20770 SI 17228 SL Si1 20770 1.100000 28.08600
20771 OA 17228 SL O1 20771 -0.675000 15.99940
20772 HG 17228 SL H1 20772 0.400000 2.01600
20773 SI 17229 SL Si1 20773 1.100000 28.08600
20774 OA 17229 SL O1 20774 -0.675000 15.99940
20775 HG 17229 SL H1 20775 0.400000 2.01600
20776 SI 17230 SL Si1 20776 1.100000 28.08600
20777 OA 17230 SL O1 20777 -0.675000 15.99940
20778 HG 17230 SL H1 20778 0.400000 2.01600
20779 SI 17231 SL Si1 20779 1.100000 28.08600
20780 OA 17231 SL O1 20780 -0.675000 15.99940
20781 HG 17231 SL H1 20781 0.400000 2.01600
20782 SI 17232 SL Si1 20782 1.100000 28.08600
20783 OA 17232 SL O1 20783 -0.675000 15.99940
20784 HG 17232 SL H1 20784 0.400000 2.01600
20785 SI 17233 SL Si1 20785 1.100000 28.08600
20786 OA 17233 SL O1 20786 -0.675000 15.99940
20787 HG 17233 SL H1 20787 0.400000 2.01600
20788 SI 17234 SL Si1 20788 1.100000 28.08600
20789 OA 17234 SL O1 20789 -0.675000 15.99940
20790 HG 17234 SL H1 20790 0.400000 2.01600
20791 SI 17235 SL Si1 20791 1.100000 28.08600
20792 OA 17235 SL O1 20792 -0.675000 15.99940
20793 HG 17235 SL H1 20793 0.400000 2.01600
20794 SI 17236 SL Si1 20794 1.100000 28.08600
20795 OA 17236 SL O1 20795 -0.675000 15.99940
20796 HG 17236 SL H1 20796 0.400000 2.01600
20797 SI 17237 SL Si1 20797 1.100000 28.08600
20798 OA 17237 SL O1 20798 -0.675000 15.99940
20799 HG 17237 SL H1 20799 0.400000 2.01600
20800 SI 17238 SL Si1 20800 1.100000 28.08600
20801 OA 17238 SL O1 20801 -0.675000 15.99940
20802 HG 17238 SL H1 20802 0.400000 2.01600
20803 SI 17239 SL Si1 20803 1.100000 28.08600
20804 OA 17239 SL O1 20804 -0.675000 15.99940
20805 HG 17239 SL H1 20805 0.400000 2.01600
20806 SI 17240 SL Si1 20806 1.100000 28.08600
20807 OA 17240 SL O1 20807 -0.675000 15.99940
20808 HG 17240 SL H1 20808 0.400000 2.01600
20809 SI 17241 SL Si1 20809 1.100000 28.08600
20810 OA 17241 SL O1 20810 -0.675000 15.99940
20811 HG 17241 SL H1 20811 0.400000 2.01600
20812 SI 17242 SL Si1 20812 1.100000 28.08600
20813 OA 17242 SL O1 20813 -0.675000 15.99940
20814 HG 17242 SL H1 20814 0.400000 2.01600
20815 SI 17243 SL Si1 20815 1.100000 28.08600
20816 OA 17243 SL O1 20816 -0.675000 15.99940
20817 HG 17243 SL H1 20817 0.400000 2.01600
20818 SI 17244 SL Si1 20818 1.100000 28.08600
20819 OA 17244 SL O1 20819 -0.675000 15.99940
20820 HG 17244 SL H1 20820 0.400000 2.01600
20821 SI 17245 SL Si1 20821 1.100000 28.08600
20822 OA 17245 SL O1 20822 -0.675000 15.99940
20823 HG 17245 SL H1 20823 0.400000 2.01600
20824 SI 17246 SL Si1 20824 1.100000 28.08600
20825 OA 17246 SL O1 20825 -0.675000 15.99940
20826 HG 17246 SL H1 20826 0.400000 2.01600
20827 SI 17247 SL Si1 20827 1.100000 28.08600
20828 OA 17247 SL O1 20828 -0.675000 15.99940
20829 HG 17247 SL H1 20829 0.400000 2.01600
20830 SI 17248 SL Si1 20830 1.100000 28.08600
20831 OA 17248 SL O1 20831 -0.675000 15.99940
20832 HG 17248 SL H1 20832 0.400000 2.01600
20833 SI 17249 SL Si1 20833 1.100000 28.08600
20834 OA 17249 SL O1 20834 -0.675000 15.99940
20835 HG 17249 SL H1 20835 0.400000 2.01600
20836 SI 17250 SL Si1 20836 1.100000 28.08600
20837 OA 17250 SL O1 20837 -0.675000 15.99940
20838 HG 17250 SL H1 20838 0.400000 2.01600
20839 SI 17251 SL Si1 20839 1.100000 28.08600
20840 OA 17251 SL O1 20840 -0.675000 15.99940
20841 HG 17251 SL H1 20841 0.400000 2.01600
20842 SI 17252 SL Si1 20842 1.100000 28.08600
20843 OA 17252 SL O1 20843 -0.675000 15.99940
20844 HG 17252 SL H1 20844 0.400000 2.01600
20845 SI 17253 SL Si1 20845 1.100000 28.08600
20846 OA 17253 SL O1 20846 -0.675000 15.99940
20847 HG 17253 SL H1 20847 0.400000 2.01600
20848 SI 17254 SL Si1 20848 1.100000 28.08600
20849 OA 17254 SL O1 20849 -0.675000 15.99940
20850 HG 17254 SL H1 20850 0.400000 2.01600
20851 SI 17255 SL Si1 20851 1.100000 28.08600
20852 OA 17255 SL O1 20852 -0.675000 15.99940
20853 HG 17255 SL H1 20853 0.400000 2.01600
20854 SI 17256 SL Si1 20854 1.100000 28.08600
20855 OA 17256 SL O1 20855 -0.675000 15.99940
20856 HG 17256 SL H1 20856 0.400000 2.01600
20857 SI 17257 SL Si1 20857 1.100000 28.08600
20858 OA 17257 SL O1 20858 -0.675000 15.99940
20859 HG 17257 SL H1 20859 0.400000 2.01600
20860 SI 17258 SL Si1 20860 1.100000 28.08600
20861 OA 17258 SL O1 20861 -0.675000 15.99940
20862 HG 17258 SL H1 20862 0.400000 2.01600
20863 SI 17259 SL Si1 20863 1.100000 28.08600
20864 OA 17259 SL O1 20864 -0.675000 15.99940
20865 HG 17259 SL H1 20865 0.400000 2.01600
20866 SI 17260 SL Si1 20866 1.100000 28.08600
20867 OA 17260 SL O1 20867 -0.675000 15.99940
20868 HG 17260 SL H1 20868 0.400000 2.01600
20869 SI 17261 SL Si1 20869 1.100000 28.08600
20870 OA 17261 SL O1 20870 -0.675000 15.99940
20871 HG 17261 SL H1 20871 0.400000 2.01600
20872 SI 17262 SL Si1 20872 1.100000 28.08600
20873 OA 17262 SL O1 20873 -0.675000 15.99940
20874 HG 17262 SL H1 20874 0.400000 2.01600
20875 SI 17263 SL Si1 20875 1.100000 28.08600
20876 OA 17263 SL O1 20876 -0.675000 15.99940
20877 HG 17263 SL H1 20877 0.400000 2.01600
20878 SI 17264 SLG Si1 20878 1.100000 28.08600
20879 OA 17264 SLG O1 20879 -0.675000 15.99940
20880 HG 17264 SLG H1 20880 0.400000 2.01600
20881 OA 17264 SLG O2 20881 -0.675000 15.99940
20882 HG 17264 SLG H2 20882 0.400000 2.01600
20883 SI 17265 SLG Si1 20883 1.100000 28.08600
20884 OA 17265 SLG O1 20884 -0.675000 15.99940
20885 HG 17265 SLG H1 20885 0.400000 2.01600
20886 OA 17265 SLG O2 20886 -0.675000 15.99940
20887 HG 17265 SLG H2 20887 0.400000 2.01600
20888 SI 17266 SLG Si1 20888 1.100000 28.08600
20889 OA 17266 SLG O1 20889 -0.675000 15.99940
20890 HG 17266 SLG H1 20890 0.400000 2.01600
20891 OA 17266 SLG O2 20891 -0.675000 15.99940
20892 HG 17266 SLG H2 20892 0.400000 2.01600
20893 SI 17267 SLG Si1 20893 1.100000 28.08600
20894 OA 17267 SLG O1 20894 -0.675000 15.99940
20895 HG 17267 SLG H1 20895 0.400000 2.01600
20896 OA 17267 SLG O2 20896 -0.675000 15.99940
20897 HG 17267 SLG H2 20897 0.400000 2.01600
20898 SI 17268 SLG Si1 20898 1.100000 28.08600
20899 OA 17268 SLG O1 20899 -0.675000 15.99940
20900 HG 17268 SLG H1 20900 0.400000 2.01600
20901 OA 17268 SLG O2 20901 -0.675000 15.99940
20902 HG 17268 SLG H2 20902 0.400000 2.01600
20903 SI 17269 SLG Si1 20903 1.100000 28.08600
20904 OA 17269 SLG O1 20904 -0.675000 15.99940
20905 HG 17269 SLG H1 20905 0.400000 2.01600
20906 OA 17269 SLG O2 20906 -0.675000 15.99940
20907 HG 17269 SLG H2 20907 0.400000 2.01600
20908 SI 17270 SLG Si1 20908 1.100000 28.08600
20909 OA 17270 SLG O1 20909 -0.675000 15.99940
20910 HG 17270 SLG H1 20910 0.400000 2.01600
20911 OA 17270 SLG O2 20911 -0.675000 15.99940
20912 HG 17270 SLG H2 20912 0.400000 2.01600
20913 SI 17271 SLG Si1 20913 1.100000 28.08600
20914 OA 17271 SLG O1 20914 -0.675000 15.99940
20915 HG 17271 SLG H1 20915 0.400000 2.01600
20916 OA 17271 SLG O2 20916 -0.675000 15.99940
20917 HG 17271 SLG H2 20917 0.400000 2.01600
20918 SI 17272 SLG Si1 20918 1.100000 28.08600
20919 OA 17272 SLG O1 20919 -0.675000 15.99940
20920 HG 17272 SLG H1 20920 0.400000 2.01600
20921 OA 17272 SLG O2 20921 -0.675000 15.99940
20922 HG 17272 SLG H2 20922 0.400000 2.01600
20923 SI 17273 SLG Si1 20923 1.100000 28.08600
20924 OA 17273 SLG O1 20924 -0.675000 15.99940
20925 HG 17273 SLG H1 20925 0.400000 2.01600
20926 OA 17273 SLG O2 20926 -0.675000 15.99940
20927 HG 17273 SLG H2 20927 0.400000 2.01600
20928 SI 17274 SLG Si1 20928 1.100000 28.08600
20929 OA 17274 SLG O1 20929 -0.675000 15.99940
20930 HG 17274 SLG H1 20930 0.400000 2.01600
20931 OA 17274 SLG O2 20931 -0.675000 15.99940
20932 HG 17274 SLG H2 20932 0.400000 2.01600
20933 SI 17275 SLG Si1 20933 1.100000 28.08600
20934 OA 17275 SLG O1 20934 -0.675000 15.99940
20935 HG 17275 SLG H1 20935 0.400000 2.01600
20936 OA 17275 SLG O2 20936 -0.675000 15.99940
20937 HG 17275 SLG H2 20937 0.400000 2.01600
20938 SI 17276 SLG Si1 20938 1.100000 28.08600
20939 OA 17276 SLG O1 20939 -0.675000 15.99940
20940 HG 17276 SLG H1 20940 0.400000 2.01600
20941 OA 17276 SLG O2 20941 -0.675000 15.99940
20942 HG 17276 SLG H2 20942 0.400000 2.01600
20943 SI 17277 SLG Si1 20943 1.100000 28.08600
20944 OA 17277 SLG O1 20944 -0.675000 15.99940
20945 HG 17277 SLG H1 20945 0.400000 2.01600
20946 OA 17277 SLG O2 20946 -0.675000 15.99940
20947 HG 17277 SLG H2 20947 0.400000 2.01600
20948 SI 17278 SLG Si1 20948 1.100000 28.08600
20949 OA 17278 SLG O1 20949 -0.675000 15.99940
20950 HG 17278 SLG H1 20950 0.400000 2.01600
20951 OA 17278 SLG O2 20951 -0.675000 15.99940
20952 HG 17278 SLG H2 20952 0.400000 2.01600
20953 SI 17279 SLG Si1 20953 1.100000 28.08600
20954 OA 17279 SLG O1 20954 -0.675000 15.99940
20955 HG 17279 SLG H1 20955 0.400000 2.01600
20956 OA 17279 SLG O2 20956 -0.675000 15.99940
20957 HG 17279 SLG H2 20957 0.400000 2.01600
20958 SI 17280 SLG Si1 20958 1.100000 28.08600
20959 OA 17280 SLG O1 20959 -0.675000 15.99940
20960 HG 17280 SLG H1 20960 0.400000 2.01600
20961 OA 17280 SLG O2 20961 -0.675000 15.99940
20962 HG 17280 SLG H2 20962 0.400000 2.01600
20963 SI 17281 SLG Si1 20963 1.100000 28.08600
20964 OA 17281 SLG O1 20964 -0.675000 15.99940
20965 HG 17281 SLG H1 20965 0.400000 2.01600
20966 OA 17281 SLG O2 20966 -0.675000 15.99940
20967 HG 17281 SLG H2 20967 0.400000 2.01600
20968 SI 17282 SLG Si1 20968 1.100000 28.08600
20969 OA 17282 SLG O1 20969 -0.675000 15.99940
20970 HG 17282 SLG H1 20970 0.400000 2.01600
20971 OA 17282 SLG O2 20971 -0.675000 15.99940
20972 HG 17282 SLG H2 20972 0.400000 2.01600
20973 SI 17283 SLG Si1 20973 1.100000 28.08600
20974 OA 17283 SLG O1 20974 -0.675000 15.99940
20975 HG 17283 SLG H1 20975 0.400000 2.01600
20976 OA 17283 SLG O2 20976 -0.675000 15.99940
20977 HG 17283 SLG H2 20977 0.400000 2.01600
20978 SI 17284 SLG Si1 20978 1.100000 28.08600
20979 OA 17284 SLG O1 20979 -0.675000 15.99940
20980 HG 17284 SLG H1 20980 0.400000 2.01600
20981 OA 17284 SLG O2 20981 -0.675000 15.99940
20982 HG 17284 SLG H2 20982 0.400000 2.01600
20983 SI 17285 SLG Si1 20983 1.100000 28.08600
20984 OA 17285 SLG O1 20984 -0.675000 15.99940
20985 HG 17285 SLG H1 20985 0.400000 2.01600
20986 OA 17285 SLG O2 20986 -0.675000 15.99940
20987 HG 17285 SLG H2 20987 0.400000 2.01600
20988 SI 17286 SLG Si1 20988 1.100000 28.08600
20989 OA 17286 SLG O1 20989 -0.675000 15.99940
20990 HG 17286 SLG H1 20990 0.400000 2.01600
20991 OA 17286 SLG O2 20991 -0.675000 15.99940
20992 HG 17286 SLG H2 20992 0.400000 2.01600
20993 SI 17287 SLG Si1 20993 1.100000 28.08600
20994 OA 17287 SLG O1 20994 -0.675000 15.99940
20995 HG 17287 SLG H1 20995 0.400000 2.01600
20996 OA 17287 SLG O2 20996 -0.675000 15.99940
20997 HG 17287 SLG H2 20997 0.400000 2.01600
20998 SI 17288 SLG Si1 20998 1.100000 28.08600
20999 OA 17288 SLG O1 20999 -0.675000 15.99940
21000 HG 17288 SLG H1 21000 0.400000 2.01600
21001 OA 17288 SLG O2 21001 -0.675000 15.99940
21002 HG 17288 SLG H2 21002 0.400000 2.01600
21003 SI 17289 SLG Si1 21003 1.100000 28.08600
21004 OA 17289 SLG O1 21004 -0.675000 15.99940
21005 HG 17289 SLG H1 21005 0.400000 2.01600
21006 OA 17289 SLG O2 21006 -0.675000 15.99940
21007 HG 17289 SLG H2 21007 0.400000 2.01600
21008 SI 17290 SLG Si1 21008 1.100000 28.08600
21009 OA 17290 SLG O1 21009 -0.675000 15.99940
21010 HG 17290 SLG H1 21010 0.400000 2.01600
21011 OA 17290 SLG O2 21011 -0.675000 15.99940
21012 HG 17290 SLG H2 21012 0.400000 2.01600
21013 SI 17291 SLG Si1 21013 1.100000 28.08600
21014 OA 17291 SLG O1 21014 -0.675000 15.99940
21015 HG 17291 SLG H1 21015 0.400000 2.01600
21016 OA 17291 SLG O2 21016 -0.675000 15.99940
21017 HG 17291 SLG H2 21017 0.400000 2.01600
21018 SI 17292 SLG Si1 21018 1.100000 28.08600
21019 OA 17292 SLG O1 21019 -0.675000 15.99940
21020 HG 17292 SLG H1 21020 0.400000 2.01600
21021 OA 17292 SLG O2 21021 -0.675000 15.99940
21022 HG 17292 SLG H2 21022 0.400000 2.01600
21023 SI 17293 SLG Si1 21023 1.100000 28.08600
21024 OA 17293 SLG O1 21024 -0.675000 15.99940
21025 HG 17293 SLG H1 21025 0.400000 2.01600
21026 OA 17293 SLG O2 21026 -0.675000 15.99940
21027 HG 17293 SLG H2 21027 0.400000 2.01600

[ bonds ]
; ai aj funct params
1 11409 1 0.16500 119244.000000
1 15009 1 0.16500 119244.000000
2 11409 1 0.16500 119244.000000
2 15683 1 0.16500 119244.000000
3 11409 1 0.16500 119244.000000
3 15869 1 0.16500 119244.000000
4 11409 1 0.16500 119244.000000
4 11784 1 0.16500 119244.000000
5 11410 1 0.16500 119244.000000
5 11554 1 0.16500 119244.000000
6 11410 1 0.16500 119244.000000
6 20191 1 0.16500 119244.000000
7 11411 1 0.16500 119244.000000
7 15793 1 0.16500 119244.000000
8 11411 1 0.16500 119244.000000
8 16609 1 0.16500 119244.000000
9 11411 1 0.16500 119244.000000
9 11845 1 0.16500 119244.000000
10 11411 1 0.16500 119244.000000
10 12553 1 0.16500 119244.000000
11 11412 1 0.16500 119244.000000
11 12373 1 0.16500 119244.000000
12 11412 1 0.16500 119244.000000
12 12704 1 0.16500 119244.000000
13 11412 1 0.16500 119244.000000
13 13711 1 0.16500 119244.000000
14 11413 1 0.16500 119244.000000
14 11451 1 0.16500 119244.000000
15 11413 1 0.16500 119244.000000
15 13639 1 0.16500 119244.000000
16 11413 1 0.16500 119244.000000
16 13901 1 0.16500 119244.000000
17 11413 1 0.16500 119244.000000
17 12638 1 0.16500 119244.000000
18 12464 1 0.16500 119244.000000
18 20527 1 0.16500 119244.000000
19 11414 1 0.16500 119244.000000
19 20563 1 0.16500 119244.000000
20 11414 1 0.16500 119244.000000
20 14270 1 0.16500 119244.000000
21 11414 1 0.16500 119244.000000
21 14189 1 0.16500 119244.000000
22 11415 1 0.16500 119244.000000
22 15264 1 0.16500 119244.000000
23 11415 1 0.16500 119244.000000
23 16205 1 0.16500 119244.000000
24 11415 1 0.16500 119244.000000
24 20146 1 0.16500 119244.000000
25 11415 1 0.16500 119244.000000
25 12937 1 0.16500 119244.000000
26 11416 1 0.16500 119244.000000
26 12368 1 0.16500 119244.000000
27 11416 1 0.16500 119244.000000
27 13942 1 0.16500 119244.000000
28 11416 1 0.16500 119244.000000
28 15110 1 0.16500 119244.000000
29 11416 1 0.16500 119244.000000
29 16483 1 0.16500 119244.000000
30 11417 1 0.16500 119244.000000
30 19978 1 0.16500 119244.000000
31 11417 1 0.16500 119244.000000
31 17582 1 0.16500 119244.000000
32 11417 1 0.16500 119244.000000
32 13967 1 0.16500 119244.000000
33 11418 1 0.16500 119244.000000
33 14307 1 0.16500 119244.000000
34 11418 1 0.16500 119244.000000
34 15601 1 0.16500 119244.000000
35 11418 1 0.16500 119244.000000
35 12872 1 0.16500 119244.000000
36 11418 1 0.16500 119244.000000
36 15279 1 0.16500 119244.000000
37 11419 1 0.16500 119244.000000
37 14255 1 0.16500 119244.000000
38 11419 1 0.16500 119244.000000
38 13597 1 0.16500 119244.000000
39 11419 1 0.16500 119244.000000
39 12796 1 0.16500 119244.000000
40 11419 1 0.16500 119244.000000
40 14145 1 0.16500 119244.000000
41 11420 1 0.16500 119244.000000
41 15257 1 0.16500 119244.000000
42 11420 1 0.16500 119244.000000
42 14630 1 0.16500 119244.000000
43 11420 1 0.16500 119244.000000
43 15914 1 0.16500 119244.000000
44 11420 1 0.16500 119244.000000
44 16282 1 0.16500 119244.000000
45 11421 1 0.16500 119244.000000
45 15373 1 0.16500 119244.000000
46 11421 1 0.16500 119244.000000
46 14187 1 0.16500 119244.000000
47 11421 1 0.16500 119244.000000
47 14336 1 0.16500 119244.000000
48 11421 1 0.16500 119244.000000
48 15745 1 0.16500 119244.000000
49 11422 1 0.16500 119244.000000
49 14616 1 0.16500 119244.000000
50 11422 1 0.16500 119244.000000
50 14945 1 0.16500 119244.000000
51 11422 1 0.16500 119244.000000
51 14050 1 0.16500 119244.000000
52 11422 1 0.16500 119244.000000
52 12309 1 0.16500 119244.000000
53 11423 1 0.16500 119244.000000
53 14121 1 0.16500 119244.000000
54 11423 1 0.16500 119244.000000
54 12771 1 0.16500 119244.000000
55 11423 1 0.16500 119244.000000
55 15855 1 0.16500 119244.000000
56 11423 1 0.16500 119244.000000
56 12381 1 0.16500 119244.000000
57 11424 1 0.16500 119244.000000
57 14149 1 0.16500 119244.000000
58 11424 1 0.16500 119244.000000
58 13976 1 0.16500 119244.000000
59 11424 1 0.16500 119244.000000
59 11910 1 0.16500 119244.000000
60 11424 1 0.16500 119244.000000
60 15434 1 0.16500 119244.000000
61 11425 1 0.16500 119244.000000
61 20284 1 0.16500 119244.000000
62 11425 1 0.16500 119244.000000
62 12558 1 0.16500 119244.000000
63 11425 1 0.16500 119244.000000
63 11454 1 0.16500 119244.000000
64 11425 1 0.16500 119244.000000
64 12287 1 0.16500 119244.000000
65 11426 1 0.16500 119244.000000
65 11620 1 0.16500 119244.000000
66 11426 1 0.16500 119244.000000
66 16052 1 0.16500 119244.000000
67 11426 1 0.16500 119244.000000
67 16098 1 0.16500 119244.000000
68 11427 1 0.16500 119244.000000
68 16638 1 0.16500 119244.000000
69 11427 1 0.16500 119244.000000
69 15044 1 0.16500 119244.000000
70 11428 1 0.16500 119244.000000
70 15321 1 0.16500 119244.000000
71 11428 1 0.16500 119244.000000
71 13928 1 0.16500 119244.000000
72 11428 1 0.16500 119244.000000
72 16397 1 0.16500 119244.000000
73 11428 1 0.16500 119244.000000
73 15987 1 0.16500 119244.000000
74 11429 1 0.16500 119244.000000
74 20323 1 0.16500 119244.000000
75 11429 1 0.16500 119244.000000
75 20311 1 0.16500 119244.000000
76 11429 1 0.16500 119244.000000
76 15845 1 0.16500 119244.000000
77 11429 1 0.16500 119244.000000
77 16664 1 0.16500 119244.000000
78 11430 1 0.16500 119244.000000
78 12560 1 0.16500 119244.000000
79 11430 1 0.16500 119244.000000
79 11858 1 0.16500 119244.000000
80 11430 1 0.16500 119244.000000
80 15213 1 0.16500 119244.000000
81 11430 1 0.16500 119244.000000
81 14775 1 0.16500 119244.000000
82 11431 1 0.16500 119244.000000
82 13900 1 0.16500 119244.000000
83 11431 1 0.16500 119244.000000
83 16667 1 0.16500 119244.000000
84 11431 1 0.16500 119244.000000
84 14793 1 0.16500 119244.000000
85 11431 1 0.16500 119244.000000
85 16518 1 0.16500 119244.000000
86 13657 1 0.16500 119244.000000
86 13685 1 0.16500 119244.000000
87 11432 1 0.16500 119244.000000
87 13275 1 0.16500 119244.000000
88 11432 1 0.16500 119244.000000
88 13685 1 0.16500 119244.000000
89 11432 1 0.16500 119244.000000
89 15849 1 0.16500 119244.000000
90 11433 1 0.16500 119244.000000
90 20599 1 0.16500 119244.000000
91 11433 1 0.16500 119244.000000
91 15950 1 0.16500 119244.000000
92 11433 1 0.16500 119244.000000
92 15547 1 0.16500 119244.000000
93 11434 1 0.16500 119244.000000
93 13863 1 0.16500 119244.000000
94 11434 1 0.16500 119244.000000
94 13616 1 0.16500 119244.000000
95 11434 1 0.16500 119244.000000
95 16247 1 0.16500 119244.000000
96 11434 1 0.16500 119244.000000
96 12749 1 0.16500 119244.000000
97 11435 1 0.16500 119244.000000
97 15583 1 0.16500 119244.000000
98 11435 1 0.16500 119244.000000
98 13081 1 0.16500 119244.000000
99 11435 1 0.16500 119244.000000
99 13966 1 0.16500 119244.000000
100 11435 1 0.16500 119244.000000
100 16115 1 0.16500 119244.000000
101 11436 1 0.16500 119244.000000
101 11709 1 0.16500 119244.000000
102 11436 1 0.16500 119244.000000
102 14064 1 0.16500 119244.000000
103 11436 1 0.16500 119244.000000
103 12526 1 0.16500 119244.000000
104 11436 1 0.16500 119244.000000
104 16256 1 0.16500 119244.000000
105 11437 1 0.16500 119244.000000
105 12209 1 0.16500 119244.000000
106 11437 1 0.16500 119244.000000
106 16617 1 0.16500 119244.000000
107 11437 1 0.16500 119244.000000
107 16018 1 0.16500 119244.000000
108 11437 1 0.16500 119244.000000
108 16259 1 0.16500 119244.000000
109 11438 1 0.16500 119244.000000
109 14763 1 0.16500 119244.000000
110 11438 1 0.16500 119244.000000
110 16182 1 0.16500 119244.000000
111 11438 1 0.16500 119244.000000
111 13627 1 0.16500 119244.000000
112 11438 1 0.16500 119244.000000
112 15889 1 0.16500 119244.000000
113 11439 1 0.16500 119244.000000
113 11848 1 0.16500 119244.000000
114 11439 1 0.16500 119244.000000
114 12655 1 0.16500 119244.000000
115 11439 1 0.16500 119244.000000
115 16169 1 0.16500 119244.000000
116 11439 1 0.16500 119244.000000
116 11914 1 0.16500 119244.000000
117 11440 1 0.16500 119244.000000
117 14446 1 0.16500 119244.000000
118 11440 1 0.16500 119244.000000
118 11911 1 0.16500 119244.000000
119 11440 1 0.16500 119244.000000
119 15201 1 0.16500 119244.000000
120 11440 1 0.16500 119244.000000
120 12724 1 0.16500 119244.000000
121 11441 1 0.16500 119244.000000
121 16638 1 0.16500 119244.000000
122 11441 1 0.16500 119244.000000
122 16581 1 0.16500 119244.000000
123 11442 1 0.16500 119244.000000
123 11547 1 0.16500 119244.000000
124 11442 1 0.16500 119244.000000
124 16550 1 0.16500 119244.000000
125 11442 1 0.16500 119244.000000
125 18322 1 0.16500 119244.000000
126 11443 1 0.16500 119244.000000
126 11919 1 0.16500 119244.000000
127 11443 1 0.16500 119244.000000
127 11445 1 0.16500 119244.000000
128 11443 1 0.16500 119244.000000
128 11927 1 0.16500 119244.000000
129 11443 1 0.16500 119244.000000
129 11807 1 0.16500 119244.000000
130 11444 1 0.16500 119244.000000
130 12959 1 0.16500 119244.000000
131 11444 1 0.16500 119244.000000
131 13834 1 0.16500 119244.000000
132 11444 1 0.16500 119244.000000
132 13754 1 0.16500 119244.000000
133 11444 1 0.16500 119244.000000
133 15637 1 0.16500 119244.000000
134 11445 1 0.16500 119244.000000
134 13312 1 0.16500 119244.000000
135 11445 1 0.16500 119244.000000
135 13602 1 0.16500 119244.000000
136 11445 1 0.16500 119244.000000
136 15309 1 0.16500 119244.000000
137 11446 1 0.16500 119244.000000
137 11566 1 0.16500 119244.000000
138 11446 1 0.16500 119244.000000
138 15296 1 0.16500 119244.000000
139 11446 1 0.16500 119244.000000
139 12328 1 0.16500 119244.000000
140 11447 1 0.16500 119244.000000
140 12730 1 0.16500 119244.000000
141 11447 1 0.16500 119244.000000
141 13797 1 0.16500 119244.000000
142 11447 1 0.16500 119244.000000
142 12052 1 0.16500 119244.000000
143 11447 1 0.16500 119244.000000
143 11946 1 0.16500 119244.000000
144 11448 1 0.16500 119244.000000
144 15293 1 0.16500 119244.000000
145 11448 1 0.16500 119244.000000
145 12800 1 0.16500 119244.000000
146 11448 1 0.16500 119244.000000
146 12337 1 0.16500 119244.000000
147 11448 1 0.16500 119244.000000
147 12705 1 0.16500 119244.000000
148 13945 1 0.16500 119244.000000
148 15116 1 0.16500 119244.000000
149 11449 1 0.16500 119244.000000
149 14921 1 0.16500 119244.000000
150 11449 1 0.16500 119244.000000
150 15116 1 0.16500 119244.000000
151 11449 1 0.16500 119244.000000
151 11722 1 0.16500 119244.000000
152 11450 1 0.16500 119244.000000
152 14696 1 0.16500 119244.000000
153 11450 1 0.16500 119244.000000
153 11868 1 0.16500 119244.000000
154 11450 1 0.16500 119244.000000
154 14805 1 0.16500 119244.000000
155 11450 1 0.16500 119244.000000
155 11933 1 0.16500 119244.000000
156 11451 1 0.16500 119244.000000
156 12225 1 0.16500 119244.000000
157 11451 1 0.16500 119244.000000
157 13547 1 0.16500 119244.000000
158 11451 1 0.16500 119244.000000
158 14150 1 0.16500 119244.000000
159 13670 1 0.16500 119244.000000
159 13787 1 0.16500 119244.000000
160 11452 1 0.16500 119244.000000
160 11754 1 0.16500 119244.000000
161 11452 1 0.16500 119244.000000
161 12812 1 0.16500 119244.000000
162 11452 1 0.16500 119244.000000
162 15254 1 0.16500 119244.000000
163 11453 1 0.16500 119244.000000
163 13309 1 0.16500 119244.000000
164 11453 1 0.16500 119244.000000
164 13535 1 0.16500 119244.000000
165 11453 1 0.16500 119244.000000
165 16191 1 0.16500 119244.000000
166 11453 1 0.16500 119244.000000
166 14756 1 0.16500 119244.000000
167 11454 1 0.16500 119244.000000
167 13798 1 0.16500 119244.000000
168 11454 1 0.16500 119244.000000
168 12574 1 0.16500 119244.000000
169 11454 1 0.16500 119244.000000
169 14218 1 0.16500 119244.000000
170 11455 1 0.16500 119244.000000
170 16259 1 0.16500 119244.000000
171 11455 1 0.16500 119244.000000
171 12183 1 0.16500 119244.000000
172 11455 1 0.16500 119244.000000
172 13525 1 0.16500 119244.000000
173 11455 1 0.16500 119244.000000
173 15650 1 0.16500 119244.000000
174 11456 1 0.16500 119244.000000
174 19963 1 0.16500 119244.000000
175 11456 1 0.16500 119244.000000
175 15166 1 0.16500 119244.000000
176 11456 1 0.16500 119244.000000
176 11601 1 0.16500 119244.000000
177 11456 1 0.16500 119244.000000
177 16686 1 0.16500 119244.000000
178 17456 1 0.16500 119244.000000
178 18058 1 0.16500 119244.000000
179 16221 1 0.16500 119244.000000
179 18058 1 0.16500 119244.000000
180 11457 1 0.16500 119244.000000
180 12832 1 0.16500 119244.000000
181 11457 1 0.16500 119244.000000
181 20131 1 0.16500 119244.000000
182 11457 1 0.16500 119244.000000
182 16099 1 0.16500 119244.000000
183 11457 1 0.16500 119244.000000
183 16164 1 0.16500 119244.000000
184 11458 1 0.16500 119244.000000
184 14567 1 0.16500 119244.000000
185 11458 1 0.16500 119244.000000
185 13389 1 0.16500 119244.000000
186 11458 1 0.16500 119244.000000
186 12736 1 0.16500 119244.000000
187 11458 1 0.16500 119244.000000
187 13872 1 0.16500 119244.000000
188 11459 1 0.16500 119244.000000
188 15764 1 0.16500 119244.000000
189 11459 1 0.16500 119244.000000
189 13776 1 0.16500 119244.000000
190 11459 1 0.16500 119244.000000
190 15453 1 0.16500 119244.000000
191 11459 1 0.16500 119244.000000
191 12192 1 0.16500 119244.000000
192 11460 1 0.16500 119244.000000
192 14197 1 0.16500 119244.000000
193 11461 1 0.16500 119244.000000
193 13100 1 0.16500 119244.000000
194 11461 1 0.16500 119244.000000
194 14812 1 0.16500 119244.000000
195 11461 1 0.16500 119244.000000
195 14650 1 0.16500 119244.000000
196 11461 1 0.16500 119244.000000
196 12586 1 0.16500 119244.000000
197 11462 1 0.16500 119244.000000
197 16427 1 0.16500 119244.000000
198 11462 1 0.16500 119244.000000
198 14074 1 0.16500 119244.000000
199 11462 1 0.16500 119244.000000
199 14359 1 0.16500 119244.000000
200 11462 1 0.16500 119244.000000
200 12507 1 0.16500 119244.000000
201 11463 1 0.16500 119244.000000
201 15347 1 0.16500 119244.000000
202 11463 1 0.16500 119244.000000
202 15143 1 0.16500 119244.000000
203 11463 1 0.16500 119244.000000
203 13397 1 0.16500 119244.000000
204 12600 1 0.16500 119244.000000
204 15143 1 0.16500 119244.000000
205 20176 1 0.16500 119244.000000
205 20377 1 0.16500 119244.000000
206 11464 1 0.16500 119244.000000
206 15981 1 0.16500 119244.000000
207 11464 1 0.16500 119244.000000
207 20377 1 0.16500 119244.000000
208 11464 1 0.16500 119244.000000
208 11842 1 0.16500 119244.000000
209 11465 1 0.16500 119244.000000
209 13094 1 0.16500 119244.000000
210 11465 1 0.16500 119244.000000
210 16595 1 0.16500 119244.000000
211 11465 1 0.16500 119244.000000
211 15803 1 0.16500 119244.000000
212 11465 1 0.16500 119244.000000
212 16418 1 0.16500 119244.000000
213 13185 1 0.16500 119244.000000
213 16580 1 0.16500 119244.000000
214 11466 1 0.16500 119244.000000
214 13185 1 0.16500 119244.000000
215 11466 1 0.16500 119244.000000
215 14320 1 0.16500 119244.000000
216 11466 1 0.16500 119244.000000
216 13335 1 0.16500 119244.000000
217 11467 1 0.16500 119244.000000
217 14336 1 0.16500 119244.000000
218 11467 1 0.16500 119244.000000
218 15579 1 0.16500 119244.000000
219 11467 1 0.16500 119244.000000
219 12403 1 0.16500 119244.000000
220 11467 1 0.16500 119244.000000
220 15750 1 0.16500 119244.000000
221 11468 1 0.16500 119244.000000
221 13225 1 0.16500 119244.000000
222 11468 1 0.16500 119244.000000
222 13168 1 0.16500 119244.000000
223 11468 1 0.16500 119244.000000
223 16431 1 0.16500 119244.000000
224 11469 1 0.16500 119244.000000
224 16573 1 0.16500 119244.000000
225 11469 1 0.16500 119244.000000
225 13939 1 0.16500 119244.000000
226 11469 1 0.16500 119244.000000
226 11846 1 0.16500 119244.000000
227 11469 1 0.16500 119244.000000
227 16454 1 0.16500 119244.000000
228 11470 1 0.16500 119244.000000
228 13524 1 0.16500 119244.000000
229 11470 1 0.16500 119244.000000
229 14123 1 0.16500 119244.000000
230 11470 1 0.16500 119244.000000
230 12117 1 0.16500 119244.000000
231 11470 1 0.16500 119244.000000
231 16123 1 0.16500 119244.000000
232 11471 1 0.16500 119244.000000
232 20362 1 0.16500 119244.000000
233 11471 1 0.16500 119244.000000
233 16211 1 0.16500 119244.000000
234 11471 1 0.16500 119244.000000
234 15265 1 0.16500 119244.000000
235 14178 1 0.16500 119244.000000
235 16334 1 0.16500 119244.000000
236 14178 1 0.16500 119244.000000
236 14626 1 0.16500 119244.000000
237 11472 1 0.16500 119244.000000
237 14178 1 0.16500 119244.000000
238 13360 1 0.16500 119244.000000
238 14178 1 0.16500 119244.000000
239 11473 1 0.16500 119244.000000
239 15747 1 0.16500 119244.000000
240 11473 1 0.16500 119244.000000
240 15896 1 0.16500 119244.000000
241 11473 1 0.16500 119244.000000
241 17330 1 0.16500 119244.000000
242 11474 1 0.16500 119244.000000
242 16069 1 0.16500 119244.000000
243 11474 1 0.16500 119244.000000
243 13560 1 0.16500 119244.000000
244 11474 1 0.16500 119244.000000
244 14963 1 0.16500 119244.000000
245 11475 1 0.16500 119244.000000
245 20800 1 0.16500 119244.000000
246 11476 1 0.16500 119244.000000
246 12992 1 0.16500 119244.000000
247 11476 1 0.16500 119244.000000
247 16533 1 0.16500 119244.000000
248 11476 1 0.16500 119244.000000
248 13036 1 0.16500 119244.000000
249 11476 1 0.16500 119244.000000
249 11557 1 0.16500 119244.000000
250 11877 1 0.16500 119244.000000
250 13734 1 0.16500 119244.000000
251 11477 1 0.16500 119244.000000
251 15225 1 0.16500 119244.000000
252 11477 1 0.16500 119244.000000
252 14355 1 0.16500 119244.000000
253 11477 1 0.16500 119244.000000
253 13734 1 0.16500 119244.000000
254 11478 1 0.16500 119244.000000
254 11985 1 0.16500 119244.000000
255 11478 1 0.16500 119244.000000
255 11967 1 0.16500 119244.000000
256 11479 1 0.16500 119244.000000
256 14113 1 0.16500 119244.000000
257 11479 1 0.16500 119244.000000
257 13911 1 0.16500 119244.000000
258 11479 1 0.16500 119244.000000
258 14901 1 0.16500 119244.000000
259 11479 1 0.16500 119244.000000
259 14177 1 0.16500 119244.000000
260 11480 1 0.16500 119244.000000
260 12087 1 0.16500 119244.000000
261 11480 1 0.16500 119244.000000
261 12212 1 0.16500 119244.000000
262 11480 1 0.16500 119244.000000
262 15906 1 0.16500 119244.000000
263 11480 1 0.16500 119244.000000
263 11494 1 0.16500 119244.000000
264 11481 1 0.16500 119244.000000
264 16061 1 0.16500 119244.000000
265 11481 1 0.16500 119244.000000
265 14569 1 0.16500 119244.000000
266 11481 1 0.16500 119244.000000
266 16640 1 0.16500 119244.000000
267 11481 1 0.16500 119244.000000
267 12399 1 0.16500 119244.000000
268 11482 1 0.16500 119244.000000
268 12952 1 0.16500 119244.000000
269 11482 1 0.16500 119244.000000
269 13075 1 0.16500 119244.000000
270 11482 1 0.16500 119244.000000
270 15692 1 0.16500 119244.000000
271 11482 1 0.16500 119244.000000
271 11523 1 0.16500 119244.000000
272 11483 1 0.16500 119244.000000
272 16008 1 0.16500 119244.000000
273 11483 1 0.16500 119244.000000
273 14212 1 0.16500 119244.000000
274 11483 1 0.16500 119244.000000
274 18814 1 0.16500 119244.000000
275 11484 1 0.16500 119244.000000
275 14857 1 0.16500 119244.000000
276 11484 1 0.16500 119244.000000
276 15697 1 0.16500 119244.000000
277 11484 1 0.16500 119244.000000
277 12286 1 0.16500 119244.000000
278 11484 1 0.16500 119244.000000
278 14567 1 0.16500 119244.000000
279 11485 1 0.16500 119244.000000
279 13544 1 0.16500 119244.000000
280 11485 1 0.16500 119244.000000
280 12101 1 0.16500 119244.000000
281 11485 1 0.16500 119244.000000
281 15404 1 0.16500 119244.000000
282 11485 1 0.16500 119244.000000
282 14043 1 0.16500 119244.000000
283 11486 1 0.16500 119244.000000
283 14961 1 0.16500 119244.000000
284 11486 1 0.16500 119244.000000
284 13188 1 0.16500 119244.000000
285 11486 1 0.16500 119244.000000
285 20032 1 0.16500 119244.000000
286 11487 1 0.16500 119244.000000
286 12418 1 0.16500 119244.000000
287 11487 1 0.16500 119244.000000
287 13179 1 0.16500 119244.000000
288 11487 1 0.16500 119244.000000
288 14651 1 0.16500 119244.000000
289 11487 1 0.16500 119244.000000
289 11496 1 0.16500 119244.000000
290 11488 1 0.16500 119244.000000
290 11975 1 0.16500 119244.000000
291 11488 1 0.16500 119244.000000
291 12348 1 0.16500 119244.000000
292 11488 1 0.16500 119244.000000
292 11581 1 0.16500 119244.000000
293 11975 1 0.16500 119244.000000
293 12893 1 0.16500 119244.000000
294 11489 1 0.16500 119244.000000
294 14718 1 0.16500 119244.000000
295 11489 1 0.16500 119244.000000
295 16082 1 0.16500 119244.000000
296 11489 1 0.16500 119244.000000
296 13614 1 0.16500 119244.000000
297 13614 1 0.16500 119244.000000
297 13938 1 0.16500 119244.000000
298 11490 1 0.16500 119244.000000
298 15490 1 0.16500 119244.000000
299 11490 1 0.16500 119244.000000
299 15613 1 0.16500 119244.000000
300 11490 1 0.16500 119244.000000
300 12207 1 0.16500 119244.000000
301 11490 1 0.16500 119244.000000
301 12190 1 0.16500 119244.000000
302 11491 1 0.16500 119244.000000
302 14560 1 0.16500 119244.000000
303 11491 1 0.16500 119244.000000
303 12271 1 0.16500 119244.000000
304 11491 1 0.16500 119244.000000
304 14384 1 0.16500 119244.000000
305 11491 1 0.16500 119244.000000
305 15693 1 0.16500 119244.000000
306 11492 1 0.16500 119244.000000
306 16826 1 0.16500 119244.000000
307 11492 1 0.16500 119244.000000
307 13200 1 0.16500 119244.000000
308 11492 1 0.16500 119244.000000
308 14688 1 0.16500 119244.000000
309 11492 1 0.16500 119244.000000
309 16227 1 0.16500 119244.000000
310 11493 1 0.16500 119244.000000
310 12687 1 0.16500 119244.000000
311 11493 1 0.16500 119244.000000
311 11775 1 0.16500 119244.000000
312 11493 1 0.16500 119244.000000
312 15415 1 0.16500 119244.000000
313 11493 1 0.16500 119244.000000
313 16604 1 0.16500 119244.000000
314 11494 1 0.16500 119244.000000
314 20398 1 0.16500 119244.000000
315 11494 1 0.16500 119244.000000
315 12973 1 0.16500 119244.000000
316 11495 1 0.16500 119244.000000
316 11739 1 0.16500 119244.000000
317 11495 1 0.16500 119244.000000
317 12917 1 0.16500 119244.000000
318 11495 1 0.16500 119244.000000
318 14304 1 0.16500 119244.000000
319 11495 1 0.16500 119244.000000
319 15863 1 0.16500 119244.000000
320 15996 1 0.16500 119244.000000
320 18154 1 0.16500 119244.000000
321 11496 1 0.16500 119244.000000
321 15401 1 0.16500 119244.000000
322 11496 1 0.16500 119244.000000
322 12192 1 0.16500 119244.000000
323 11496 1 0.16500 119244.000000
323 16289 1 0.16500 119244.000000
324 11497 1 0.16500 119244.000000
324 15176 1 0.16500 119244.000000
325 11497 1 0.16500 119244.000000
325 14335 1 0.16500 119244.000000
326 11497 1 0.16500 119244.000000
326 15534 1 0.16500 119244.000000
327 11497 1 0.16500 119244.000000
327 14022 1 0.16500 119244.000000
328 11498 1 0.16500 119244.000000
328 11859 1 0.16500 119244.000000
329 11498 1 0.16500 119244.000000
329 14822 1 0.16500 119244.000000
330 11498 1 0.16500 119244.000000
330 16616 1 0.16500 119244.000000
331 11498 1 0.16500 119244.000000
331 11678 1 0.16500 119244.000000
332 11499 1 0.16500 119244.000000
332 15773 1 0.16500 119244.000000
333 11499 1 0.16500 119244.000000
333 12346 1 0.16500 119244.000000
334 11499 1 0.16500 119244.000000
334 12227 1 0.16500 119244.000000
335 11499 1 0.16500 119244.000000
335 14046 1 0.16500 119244.000000
336 12938 1 0.16500 119244.000000
336 15555 1 0.16500 119244.000000
337 15189 1 0.16500 119244.000000
337 15555 1 0.16500 119244.000000
338 11500 1 0.16500 119244.000000
338 16528 1 0.16500 119244.000000
339 11801 1 0.16500 119244.000000
339 15555 1 0.16500 119244.000000
340 11501 1 0.16500 119244.000000
340 12801 1 0.16500 119244.000000
341 11501 1 0.16500 119244.000000
341 14026 1 0.16500 119244.000000
342 11501 1 0.16500 119244.000000
342 12895 1 0.16500 119244.000000
343 11501 1 0.16500 119244.000000
343 14685 1 0.16500 119244.000000
344 11502 1 0.16500 119244.000000
344 14874 1 0.16500 119244.000000
345 11502 1 0.16500 119244.000000
345 11852 1 0.16500 119244.000000
346 11502 1 0.16500 119244.000000
346 15197 1 0.16500 119244.000000
347 11502 1 0.16500 119244.000000
347 11567 1 0.16500 119244.000000
348 12985 1 0.16500 119244.000000
348 20707 1 0.16500 119244.000000
349 14239 1 0.16500 119244.000000
349 20707 1 0.16500 119244.000000
350 11503 1 0.16500 119244.000000
350 20707 1 0.16500 119244.000000
351 11503 1 0.16500 119244.000000
351 14505 1 0.16500 119244.000000
352 11504 1 0.16500 119244.000000
352 16006 1 0.16500 119244.000000
353 11504 1 0.16500 119244.000000
353 13796 1 0.16500 119244.000000
354 11504 1 0.16500 119244.000000
354 14572 1 0.16500 119244.000000
355 11504 1 0.16500 119244.000000
355 16421 1 0.16500 119244.000000
356 11505 1 0.16500 119244.000000
356 19126 1 0.16500 119244.000000
357 11505 1 0.16500 119244.000000
357 15757 1 0.16500 119244.000000
358 11505 1 0.16500 119244.000000
358 15215 1 0.16500 119244.000000
359 11505 1 0.16500 119244.000000
359 14108 1 0.16500 119244.000000
360 11506 1 0.16500 119244.000000
360 12883 1 0.16500 119244.000000
361 11506 1 0.16500 119244.000000
361 15983 1 0.16500 119244.000000
362 11506 1 0.16500 119244.000000
362 11621 1 0.16500 119244.000000
363 11506 1 0.16500 119244.000000
363 12628 1 0.16500 119244.000000
364 11507 1 0.16500 119244.000000
364 16537 1 0.16500 119244.000000
365 11507 1 0.16500 119244.000000
365 16312 1 0.16500 119244.000000
366 11507 1 0.16500 119244.000000
366 12844 1 0.16500 119244.000000
367 11507 1 0.16500 119244.000000
367 14493 1 0.16500 119244.000000
368 13968 1 0.16500 119244.000000
368 16344 1 0.16500 119244.000000
369 11508 1 0.16500 119244.000000
369 16344 1 0.16500 119244.000000
370 12515 1 0.16500 119244.000000
370 16344 1 0.16500 119244.000000
371 13251 1 0.16500 119244.000000
371 20434 1 0.16500 119244.000000
372 11509 1 0.16500 119244.000000
372 13251 1 0.16500 119244.000000
373 13251 1 0.16500 119244.000000
373 15616 1 0.16500 119244.000000
374 11509 1 0.16500 119244.000000
374 11879 1 0.16500 119244.000000
375 11580 1 0.16500 119244.000000
375 11945 1 0.16500 119244.000000
376 11945 1 0.16500 119244.000000
376 12871 1 0.16500 119244.000000
377 11510 1 0.16500 119244.000000
377 12048 1 0.16500 119244.000000
378 11510 1 0.16500 119244.000000
378 11945 1 0.16500 119244.000000
379 11511 1 0.16500 119244.000000
379 12781 1 0.16500 119244.000000
380 11511 1 0.16500 119244.000000
380 13753 1 0.16500 119244.000000
381 11511 1 0.16500 119244.000000
381 14274 1 0.16500 119244.000000
382 11511 1 0.16500 119244.000000
382 16529 1 0.16500 119244.000000
383 11512 1 0.16500 119244.000000
383 20107 1 0.16500 119244.000000
384 11512 1 0.16500 119244.000000
384 15445 1 0.16500 119244.000000
385 11512 1 0.16500 119244.000000
385 15946 1 0.16500 119244.000000
386 11512 1 0.16500 119244.000000
386 14545 1 0.16500 119244.000000
387 11513 1 0.16500 119244.000000
387 15560 1 0.16500 119244.000000
388 11513 1 0.16500 119244.000000
388 11588 1 0.16500 119244.000000
389 11513 1 0.16500 119244.000000
389 13084 1 0.16500 119244.000000
390 11513 1 0.16500 119244.000000
390 11749 1 0.16500 119244.000000
391 11514 1 0.16500 119244.000000
391 13495 1 0.16500 119244.000000
392 11514 1 0.16500 119244.000000
392 13235 1 0.16500 119244.000000
393 11514 1 0.16500 119244.000000
393 11977 1 0.16500 119244.000000
394 11514 1 0.16500 119244.000000
394 12713 1 0.16500 119244.000000
395 11515 1 0.16500 119244.000000
395 17162 1 0.16500 119244.000000
396 11515 1 0.16500 119244.000000
396 11937 1 0.16500 119244.000000
397 11516 1 0.16500 119244.000000
397 14351 1 0.16500 119244.000000
398 11694 1 0.16500 119244.000000
398 14527 1 0.16500 119244.000000
399 11516 1 0.16500 119244.000000
399 12727 1 0.16500 119244.000000
400 11516 1 0.16500 119244.000000
400 14527 1 0.16500 119244.000000
401 11517 1 0.16500 119244.000000
401 11598 1 0.16500 119244.000000
402 11517 1 0.16500 119244.000000
402 14261 1 0.16500 119244.000000
403 11517 1 0.16500 119244.000000
403 16620 1 0.16500 119244.000000
404 11517 1 0.16500 119244.000000
404 11634 1 0.16500 119244.000000
405 11518 1 0.16500 119244.000000
405 15748 1 0.16500 119244.000000
406 11518 1 0.16500 119244.000000
406 13167 1 0.16500 119244.000000
407 13722 1 0.16500 119244.000000
407 15396 1 0.16500 119244.000000
408 11518 1 0.16500 119244.000000
408 15396 1 0.16500 119244.000000
409 11519 1 0.16500 119244.000000
409 12573 1 0.16500 119244.000000
410 11519 1 0.16500 119244.000000
410 13115 1 0.16500 119244.000000
411 11519 1 0.16500 119244.000000
411 14282 1 0.16500 119244.000000
412 11519 1 0.16500 119244.000000
412 16365 1 0.16500 119244.000000
413 11520 1 0.16500 119244.000000
413 13244 1 0.16500 119244.000000
414 11520 1 0.16500 119244.000000
414 16639 1 0.16500 119244.000000
415 11520 1 0.16500 119244.000000
415 12714 1 0.16500 119244.000000
416 11520 1 0.16500 119244.000000
416 17638 1 0.16500 119244.000000
417 11521 1 0.16500 119244.000000
417 20653 1 0.16500 119244.000000
418 11521 1 0.16500 119244.000000
418 13367 1 0.16500 119244.000000
419 11521 1 0.16500 119244.000000
419 16497 1 0.16500 119244.000000
420 11522 1 0.16500 119244.000000
420 13334 1 0.16500 119244.000000
421 11522 1 0.16500 119244.000000
421 14186 1 0.16500 119244.000000
422 11522 1 0.16500 119244.000000
422 14086 1 0.16500 119244.000000
423 11522 1 0.16500 119244.000000
423 13282 1 0.16500 119244.000000
424 11523 1 0.16500 119244.000000
424 14405 1 0.16500 119244.000000
425 11523 1 0.16500 119244.000000
425 12872 1 0.16500 119244.000000
426 11523 1 0.16500 119244.000000
426 11557 1 0.16500 119244.000000
427 11524 1 0.16500 119244.000000
427 15945 1 0.16500 119244.000000
428 11524 1 0.16500 119244.000000
428 16510 1 0.16500 119244.000000
429 11524 1 0.16500 119244.000000
429 14310 1 0.16500 119244.000000
430 11524 1 0.16500 119244.000000
430 11640 1 0.16500 119244.000000
431 11525 1 0.16500 119244.000000
431 12858 1 0.16500 119244.000000
432 11525 1 0.16500 119244.000000
432 12933 1 0.16500 119244.000000
433 11525 1 0.16500 119244.000000
433 13563 1 0.16500 119244.000000
434 11525 1 0.16500 119244.000000
434 15844 1 0.16500 119244.000000
435 12197 1 0.16500 119244.000000
435 14469 1 0.16500 119244.000000
436 11526 1 0.16500 119244.000000
436 12197 1 0.16500 119244.000000
437 11526 1 0.16500 119244.000000
437 13221 1 0.16500 119244.000000
438 11526 1 0.16500 119244.000000
438 14066 1 0.16500 119244.000000
439 11527 1 0.16500 119244.000000
439 13591 1 0.16500 119244.000000
440 11527 1 0.16500 119244.000000
440 12289 1 0.16500 119244.000000
441 11528 1 0.16500 119244.000000
441 17806 1 0.16500 119244.000000
442 11528 1 0.16500 119244.000000
442 16896 1 0.16500 119244.000000
443 11528 1 0.16500 119244.000000
443 15351 1 0.16500 119244.000000
444 11528 1 0.16500 119244.000000
444 15852 1 0.16500 119244.000000
445 11529 1 0.16500 119244.000000
445 11585 1 0.16500 119244.000000
446 11529 1 0.16500 119244.000000
446 12856 1 0.16500 119244.000000
447 11529 1 0.16500 119244.000000
447 14172 1 0.16500 119244.000000
448 11529 1 0.16500 119244.000000
448 14861 1 0.16500 119244.000000
449 11530 1 0.16500 119244.000000
449 13237 1 0.16500 119244.000000
450 11530 1 0.16500 119244.000000
450 12026 1 0.16500 119244.000000
451 11531 1 0.16500 119244.000000
451 13627 1 0.16500 119244.000000
452 11531 1 0.16500 119244.000000
452 15995 1 0.16500 119244.000000
453 11531 1 0.16500 119244.000000
453 14468 1 0.16500 119244.000000
454 11531 1 0.16500 119244.000000
454 12953 1 0.16500 119244.000000
455 11532 1 0.16500 119244.000000
455 14546 1 0.16500 119244.000000
456 11532 1 0.16500 119244.000000
456 11984 1 0.16500 119244.000000
457 11532 1 0.16500 119244.000000
457 12511 1 0.16500 119244.000000
458 11532 1 0.16500 119244.000000
458 18478 1 0.16500 119244.000000
459 11533 1 0.16500 119244.000000
459 16440 1 0.16500 119244.000000
460 11533 1 0.16500 119244.000000
460 18862 1 0.16500 119244.000000
461 11534 1 0.16500 119244.000000
461 15627 1 0.16500 119244.000000
462 11534 1 0.16500 119244.000000
462 13478 1 0.16500 119244.000000
463 11534 1 0.16500 119244.000000
463 14975 1 0.16500 119244.000000
464 11534 1 0.16500 119244.000000
464 15638 1 0.16500 119244.000000
465 11535 1 0.16500 119244.000000
465 16564 1 0.16500 119244.000000
466 11535 1 0.16500 119244.000000
466 16362 1 0.16500 119244.000000
467 11535 1 0.16500 119244.000000
467 14011 1 0.16500 119244.000000
468 11535 1 0.16500 119244.000000
468 13124 1 0.16500 119244.000000
469 11536 1 0.16500 119244.000000
469 15134 1 0.16500 119244.000000
470 11536 1 0.16500 119244.000000
470 12212 1 0.16500 119244.000000
471 11536 1 0.16500 119244.000000
471 15666 1 0.16500 119244.000000
472 11536 1 0.16500 119244.000000
472 14556 1 0.16500 119244.000000
473 11537 1 0.16500 119244.000000
473 13234 1 0.16500 119244.000000
474 11537 1 0.16500 119244.000000
474 15071 1 0.16500 119244.000000
475 11538 1 0.16500 119244.000000
475 14000 1 0.16500 119244.000000
476 11538 1 0.16500 119244.000000
476 14900 1 0.16500 119244.000000
477 11538 1 0.16500 119244.000000
477 14993 1 0.16500 119244.000000
478 11538 1 0.16500 119244.000000
478 13456 1 0.16500 119244.000000
479 11539 1 0.16500 119244.000000
479 15615 1 0.16500 119244.000000
480 14114 1 0.16500 119244.000000
480 18574 1 0.16500 119244.000000
481 16419 1 0.16500 119244.000000
481 20422 1 0.16500 119244.000000
482 11539 1 0.16500 119244.000000
482 20422 1 0.16500 119244.000000
483 11540 1 0.16500 119244.000000
483 13061 1 0.16500 119244.000000
484 11540 1 0.16500 119244.000000
484 12989 1 0.16500 119244.000000
485 11540 1 0.16500 119244.000000
485 14693 1 0.16500 119244.000000
486 11540 1 0.16500 119244.000000
486 14286 1 0.16500 119244.000000
487 11541 1 0.16500 119244.000000
487 12081 1 0.16500 119244.000000
488 11541 1 0.16500 119244.000000
488 11659 1 0.16500 119244.000000
489 11541 1 0.16500 119244.000000
489 16277 1 0.16500 119244.000000
490 11541 1 0.16500 119244.000000
490 13353 1 0.16500 119244.000000
491 11542 1 0.16500 119244.000000
491 19918 1 0.16500 119244.000000
492 11542 1 0.16500 119244.000000
492 14122 1 0.16500 119244.000000
493 11542 1 0.16500 119244.000000
493 16639 1 0.16500 119244.000000
494 11542 1 0.16500 119244.000000
494 15927 1 0.16500 119244.000000
495 13803 1 0.16500 119244.000000
495 16247 1 0.16500 119244.000000
496 11543 1 0.16500 119244.000000
496 15698 1 0.16500 119244.000000
497 11543 1 0.16500 119244.000000
497 13803 1 0.16500 119244.000000
498 11543 1 0.16500 119244.000000
498 15505 1 0.16500 119244.000000
499 14971 1 0.16500 119244.000000
499 19945 1 0.16500 119244.000000
500 11544 1 0.16500 119244.000000
500 14978 1 0.16500 119244.000000
501 11544 1 0.16500 119244.000000
501 11960 1 0.16500 119244.000000
502 11544 1 0.16500 119244.000000
502 15259 1 0.16500 119244.000000
503 11544 1 0.16500 119244.000000
503 11553 1 0.16500 119244.000000
504 11545 1 0.16500 119244.000000
504 15330 1 0.16500 119244.000000
505 11545 1 0.16500 119244.000000
505 13346 1 0.16500 119244.000000
506 11545 1 0.16500 119244.000000
506 14774 1 0.16500 119244.000000
507 11545 1 0.16500 119244.000000
507 12553 1 0.16500 119244.000000
508 11546 1 0.16500 119244.000000
508 13604 1 0.16500 119244.000000
509 11546 1 0.16500 119244.000000
509 13742 1 0.16500 119244.000000
510 11546 1 0.16500 119244.000000
510 13527 1 0.16500 119244.000000
511 11546 1 0.16500 119244.000000
511 15651 1 0.16500 119244.000000
512 11547 1 0.16500 119244.000000
512 19960 1 0.16500 119244.000000
513 11547 1 0.16500 119244.000000
513 12365 1 0.16500 119244.000000
514 11547 1 0.16500 119244.000000
514 17596 1 0.16500 119244.000000
515 11548 1 0.16500 119244.000000
515 13289 1 0.16500 119244.000000
516 11548 1 0.16500 119244.000000
516 16080 1 0.16500 119244.000000
517 11548 1 0.16500 119244.000000
517 14943 1 0.16500 119244.000000
518 11549 1 0.16500 119244.000000
518 20737 1 0.16500 119244.000000
519 11549 1 0.16500 119244.000000
519 18766 1 0.16500 119244.000000
520 11549 1 0.16500 119244.000000
520 16515 1 0.16500 119244.000000
521 11550 1 0.16500 119244.000000
521 19690 1 0.16500 119244.000000
522 11550 1 0.16500 119244.000000
522 15455 1 0.16500 119244.000000
523 12811 1 0.16500 119244.000000
523 19690 1 0.16500 119244.000000
524 11550 1 0.16500 119244.000000
524 12369 1 0.16500 119244.000000
525 11551 1 0.16500 119244.000000
525 16406 1 0.16500 119244.000000
526 11551 1 0.16500 119244.000000
526 16613 1 0.16500 119244.000000
527 11551 1 0.16500 119244.000000
527 16462 1 0.16500 119244.000000
528 11551 1 0.16500 119244.000000
528 11998 1 0.16500 119244.000000
529 11552 1 0.16500 119244.000000
529 12698 1 0.16500 119244.000000
530 11552 1 0.16500 119244.000000
530 15664 1 0.16500 119244.000000
531 11552 1 0.16500 119244.000000
531 11729 1 0.16500 119244.000000
532 11552 1 0.16500 119244.000000
532 15805 1 0.16500 119244.000000
533 11553 1 0.16500 119244.000000
533 12276 1 0.16500 119244.000000
534 11553 1 0.16500 119244.000000
534 15499 1 0.16500 119244.000000
535 11553 1 0.16500 119244.000000
535 13107 1 0.16500 119244.000000
536 11554 1 0.16500 119244.000000
536 15893 1 0.16500 119244.000000
537 11554 1 0.16500 119244.000000
537 12518 1 0.16500 119244.000000
538 11554 1 0.16500 119244.000000
538 15989 1 0.16500 119244.000000
539 11555 1 0.16500 119244.000000
539 14096 1 0.16500 119244.000000
540 11555 1 0.16500 119244.000000
540 15802 1 0.16500 119244.000000
541 11555 1 0.16500 119244.000000
541 13680 1 0.16500 119244.000000
542 11555 1 0.16500 119244.000000
542 12995 1 0.16500 119244.000000
543 12431 1 0.16500 119244.000000
543 12736 1 0.16500 119244.000000
544 12736 1 0.16500 119244.000000
544 16384 1 0.16500 119244.000000
545 11556 1 0.16500 119244.000000
545 12736 1 0.16500 119244.000000
546 11557 1 0.16500 119244.000000
546 13011 1 0.16500 119244.000000
547 11557 1 0.16500 119244.000000
547 12595 1 0.16500 119244.000000
548 11558 1 0.16500 119244.000000
548 16148 1 0.16500 119244.000000
549 11558 1 0.16500 119244.000000
549 14433 1 0.16500 119244.000000
550 11558 1 0.16500 119244.000000
550 15684 1 0.16500 119244.000000
551 11558 1 0.16500 119244.000000
551 15948 1 0.16500 119244.000000
552 11559 1 0.16500 119244.000000
552 13354 1 0.16500 119244.000000
553 11559 1 0.16500 119244.000000
553 11717 1 0.16500 119244.000000
554 11559 1 0.16500 119244.000000
554 15868 1 0.16500 119244.000000
555 11717 1 0.16500 119244.000000
555 13163 1 0.16500 119244.000000
556 11560 1 0.16500 119244.000000
556 16312 1 0.16500 119244.000000
557 11560 1 0.16500 119244.000000
557 13574 1 0.16500 119244.000000
558 11560 1 0.16500 119244.000000
558 14049 1 0.16500 119244.000000
559 11561 1 0.16500 119244.000000
559 12635 1 0.16500 119244.000000
560 11561 1 0.16500 119244.000000
560 11878 1 0.16500 119244.000000
561 11561 1 0.16500 119244.000000
561 12926 1 0.16500 119244.000000
562 11562 1 0.16500 119244.000000
562 16596 1 0.16500 119244.000000
563 11562 1 0.16500 119244.000000
563 12520 1 0.16500 119244.000000
564 11562 1 0.16500 119244.000000
564 15174 1 0.16500 119244.000000
565 11562 1 0.16500 119244.000000
565 14190 1 0.16500 119244.000000
566 11563 1 0.16500 119244.000000
566 12232 1 0.16500 119244.000000
567 11563 1 0.16500 119244.000000
567 14185 1 0.16500 119244.000000
568 11563 1 0.16500 119244.000000
568 15101 1 0.16500 119244.000000
569 11563 1 0.16500 119244.000000
569 13329 1 0.16500 119244.000000
570 11564 1 0.16500 119244.000000
570 11700 1 0.16500 119244.000000
571 11564 1 0.16500 119244.000000
571 12666 1 0.16500 119244.000000
572 11564 1 0.16500 119244.000000
572 16470 1 0.16500 119244.000000
573 11564 1 0.16500 119244.000000
573 13521 1 0.16500 119244.000000
574 11565 1 0.16500 119244.000000
574 14869 1 0.16500 119244.000000
575 11565 1 0.16500 119244.000000
575 15539 1 0.16500 119244.000000
576 11565 1 0.16500 119244.000000
576 13411 1 0.16500 119244.000000
577 11565 1 0.16500 119244.000000
577 12543 1 0.16500 119244.000000
578 11566 1 0.16500 119244.000000
578 14715 1 0.16500 119244.000000
579 11566 1 0.16500 119244.000000
579 18190 1 0.16500 119244.000000
580 11567 1 0.16500 119244.000000
580 12226 1 0.16500 119244.000000
581 11567 1 0.16500 119244.000000
581 12060 1 0.16500 119244.000000
582 11567 1 0.16500 119244.000000
582 13731 1 0.16500 119244.000000
583 11568 1 0.16500 119244.000000
583 14777 1 0.16500 119244.000000
584 11568 1 0.16500 119244.000000
584 13445 1 0.16500 119244.000000
585 11569 1 0.16500 119244.000000
585 16166 1 0.16500 119244.000000
586 11569 1 0.16500 119244.000000
586 15542 1 0.16500 119244.000000
587 11569 1 0.16500 119244.000000
587 16533 1 0.16500 119244.000000
588 11569 1 0.16500 119244.000000
588 12366 1 0.16500 119244.000000
589 11570 1 0.16500 119244.000000
589 14724 1 0.16500 119244.000000
590 11570 1 0.16500 119244.000000
590 16396 1 0.16500 119244.000000
591 11570 1 0.16500 119244.000000
591 12490 1 0.16500 119244.000000
592 11570 1 0.16500 119244.000000
592 13220 1 0.16500 119244.000000
593 11571 1 0.16500 119244.000000
593 12310 1 0.16500 119244.000000
594 11571 1 0.16500 119244.000000
594 14740 1 0.16500 119244.000000
595 11571 1 0.16500 119244.000000
595 15714 1 0.16500 119244.000000
596 11571 1 0.16500 119244.000000
596 14904 1 0.16500 119244.000000
597 11572 1 0.16500 119244.000000
597 14529 1 0.16500 119244.000000
598 11572 1 0.16500 119244.000000
598 16798 1 0.16500 119244.000000
599 11572 1 0.16500 119244.000000
599 11626 1 0.16500 119244.000000
600 11572 1 0.16500 119244.000000
600 13349 1 0.16500 119244.000000
601 11573 1 0.16500 119244.000000
601 16728 1 0.16500 119244.000000
602 11573 1 0.16500 119244.000000
602 15558 1 0.16500 119244.000000
603 11573 1 0.16500 119244.000000
603 17120 1 0.16500 119244.000000
604 11574 1 0.16500 119244.000000
604 14578 1 0.16500 119244.000000
605 11574 1 0.16500 119244.000000
605 14797 1 0.16500 119244.000000
606 11574 1 0.16500 119244.000000
606 11575 1 0.16500 119244.000000
607 11574 1 0.16500 119244.000000
607 16204 1 0.16500 119244.000000
608 11575 1 0.16500 119244.000000
608 12942 1 0.16500 119244.000000
609 11575 1 0.16500 119244.000000
609 11706 1 0.16500 119244.000000
610 11575 1 0.16500 119244.000000
610 12840 1 0.16500 119244.000000
611 11576 1 0.16500 119244.000000
611 13733 1 0.16500 119244.000000
612 11576 1 0.16500 119244.000000
612 12423 1 0.16500 119244.000000
613 11576 1 0.16500 119244.000000
613 15825 1 0.16500 119244.000000
614 11576 1 0.16500 119244.000000
614 16672 1 0.16500 119244.000000
615 11577 1 0.16500 119244.000000
615 15036 1 0.16500 119244.000000
616 11577 1 0.16500 119244.000000
616 14547 1 0.16500 119244.000000
617 11577 1 0.16500 119244.000000
617 15356 1 0.16500 119244.000000
618 11577 1 0.16500 119244.000000
618 14290 1 0.16500 119244.000000
619 11578 1 0.16500 119244.000000
619 15007 1 0.16500 119244.000000
620 11578 1 0.16500 119244.000000
620 20587 1 0.16500 119244.000000
621 11578 1 0.16500 119244.000000
621 14689 1 0.16500 119244.000000
622 11579 1 0.16500 119244.000000
622 15636 1 0.16500 119244.000000
623 11579 1 0.16500 119244.000000
623 12753 1 0.16500 119244.000000
624 11579 1 0.16500 119244.000000
624 13505 1 0.16500 119244.000000
625 11579 1 0.16500 119244.000000
625 13914 1 0.16500 119244.000000
626 11580 1 0.16500 119244.000000
626 15250 1 0.16500 119244.000000
627 11580 1 0.16500 119244.000000
627 15544 1 0.16500 119244.000000
628 11580 1 0.16500 119244.000000
628 12133 1 0.16500 119244.000000
629 11581 1 0.16500 119244.000000
629 11588 1 0.16500 119244.000000
630 11581 1 0.16500 119244.000000
630 13921 1 0.16500 119244.000000
631 11581 1 0.16500 119244.000000
631 15772 1 0.16500 119244.000000
632 11582 1 0.16500 119244.000000
632 15847 1 0.16500 119244.000000
633 11582 1 0.16500 119244.000000
633 14100 1 0.16500 119244.000000
634 11582 1 0.16500 119244.000000
634 12535 1 0.16500 119244.000000
635 11582 1 0.16500 119244.000000
635 12203 1 0.16500 119244.000000
636 11583 1 0.16500 119244.000000
636 15515 1 0.16500 119244.000000
637 11583 1 0.16500 119244.000000
637 12274 1 0.16500 119244.000000
638 11583 1 0.16500 119244.000000
638 14405 1 0.16500 119244.000000
639 11583 1 0.16500 119244.000000
639 15279 1 0.16500 119244.000000
640 11584 1 0.16500 119244.000000
640 11900 1 0.16500 119244.000000
641 11584 1 0.16500 119244.000000
641 12433 1 0.16500 119244.000000
642 11584 1 0.16500 119244.000000
642 14202 1 0.16500 119244.000000
643 11584 1 0.16500 119244.000000
643 15258 1 0.16500 119244.000000
644 11585 1 0.16500 119244.000000
644 12422 1 0.16500 119244.000000
645 11585 1 0.16500 119244.000000
645 16688 1 0.16500 119244.000000
646 11585 1 0.16500 119244.000000
646 11866 1 0.16500 119244.000000
647 11586 1 0.16500 119244.000000
647 12866 1 0.16500 119244.000000
648 11586 1 0.16500 119244.000000
648 14725 1 0.16500 119244.000000
649 11586 1 0.16500 119244.000000
649 14263 1 0.16500 119244.000000
650 11586 1 0.16500 119244.000000
650 15688 1 0.16500 119244.000000
651 11587 1 0.16500 119244.000000
651 13726 1 0.16500 119244.000000
652 11587 1 0.16500 119244.000000
652 20898 1 0.16500 119244.000000
653 11587 1 0.16500 119244.000000
653 14288 1 0.16500 119244.000000
654 11587 1 0.16500 119244.000000
654 19006 1 0.16500 119244.000000
655 11588 1 0.16500 119244.000000
655 12237 1 0.16500 119244.000000
656 11588 1 0.16500 119244.000000
656 12015 1 0.16500 119244.000000
657 11589 1 0.16500 119244.000000
657 13840 1 0.16500 119244.000000
658 11589 1 0.16500 119244.000000
658 12632 1 0.16500 119244.000000
659 11589 1 0.16500 119244.000000
659 13420 1 0.16500 119244.000000
660 12632 1 0.16500 119244.000000
660 16679 1 0.16500 119244.000000
661 11590 1 0.16500 119244.000000
661 16156 1 0.16500 119244.000000
662 11590 1 0.16500 119244.000000
662 16603 1 0.16500 119244.000000
663 14640 1 0.16500 119244.000000
663 16603 1 0.16500 119244.000000
664 11590 1 0.16500 119244.000000
664 12661 1 0.16500 119244.000000
665 11591 1 0.16500 119244.000000
665 15861 1 0.16500 119244.000000
666 14618 1 0.16500 119244.000000
666 15861 1 0.16500 119244.000000
667 11591 1 0.16500 119244.000000
667 13348 1 0.16500 119244.000000
668 11591 1 0.16500 119244.000000
668 11763 1 0.16500 119244.000000
669 11592 1 0.16500 119244.000000
669 12432 1 0.16500 119244.000000
670 11592 1 0.16500 119244.000000
670 15102 1 0.16500 119244.000000
671 11593 1 0.16500 119244.000000
671 14223 1 0.16500 119244.000000
672 11593 1 0.16500 119244.000000
672 15131 1 0.16500 119244.000000
673 12460 1 0.16500 119244.000000
673 14223 1 0.16500 119244.000000
674 11593 1 0.16500 119244.000000
674 12933 1 0.16500 119244.000000
675 11594 1 0.16500 119244.000000
675 12657 1 0.16500 119244.000000
676 11594 1 0.16500 119244.000000
676 15405 1 0.16500 119244.000000
677 11594 1 0.16500 119244.000000
677 11951 1 0.16500 119244.000000
678 11595 1 0.16500 119244.000000
678 11641 1 0.16500 119244.000000
679 11595 1 0.16500 119244.000000
679 14019 1 0.16500 119244.000000
680 11595 1 0.16500 119244.000000
680 16471 1 0.16500 119244.000000
681 11641 1 0.16500 119244.000000
681 15900 1 0.16500 119244.000000
682 11596 1 0.16500 119244.000000
682 12992 1 0.16500 119244.000000
683 14180 1 0.16500 119244.000000
683 15692 1 0.16500 119244.000000
684 11596 1 0.16500 119244.000000
684 13807 1 0.16500 119244.000000
685 11596 1 0.16500 119244.000000
685 14180 1 0.16500 119244.000000
686 11597 1 0.16500 119244.000000
686 13302 1 0.16500 119244.000000
687 11597 1 0.16500 119244.000000
687 11748 1 0.16500 119244.000000
688 11597 1 0.16500 119244.000000
688 15888 1 0.16500 119244.000000
689 11597 1 0.16500 119244.000000
689 15164 1 0.16500 119244.000000
690 11598 1 0.16500 119244.000000
690 12123 1 0.16500 119244.000000
691 11889 1 0.16500 119244.000000
691 13100 1 0.16500 119244.000000
692 11598 1 0.16500 119244.000000
692 11889 1 0.16500 119244.000000
693 11599 1 0.16500 119244.000000
693 13797 1 0.16500 119244.000000
694 11599 1 0.16500 119244.000000
694 14070 1 0.16500 119244.000000
695 11599 1 0.16500 119244.000000
695 12155 1 0.16500 119244.000000
696 11599 1 0.16500 119244.000000
696 12052 1 0.16500 119244.000000
697 11600 1 0.16500 119244.000000
697 13808 1 0.16500 119244.000000
698 11600 1 0.16500 119244.000000
698 13603 1 0.16500 119244.000000
699 11600 1 0.16500 119244.000000
699 12193 1 0.16500 119244.000000
700 11600 1 0.16500 119244.000000
700 12891 1 0.16500 119244.000000
701 11601 1 0.16500 119244.000000
701 13069 1 0.16500 119244.000000
702 11601 1 0.16500 119244.000000
702 14421 1 0.16500 119244.000000
703 11601 1 0.16500 119244.000000
703 14665 1 0.16500 119244.000000
704 11602 1 0.16500 119244.000000
704 12619 1 0.16500 119244.000000
705 11602 1 0.16500 119244.000000
705 14198 1 0.16500 119244.000000
706 11602 1 0.16500 119244.000000
706 14273 1 0.16500 119244.000000
707 11602 1 0.16500 119244.000000
707 13538 1 0.16500 119244.000000
708 11603 1 0.16500 119244.000000
708 20764 1 0.16500 119244.000000
709 11603 1 0.16500 119244.000000
709 12844 1 0.16500 119244.000000
710 11603 1 0.16500 119244.000000
710 14796 1 0.16500 119244.000000
711 11603 1 0.16500 119244.000000
711 13471 1 0.16500 119244.000000
712 11604 1 0.16500 119244.000000
712 16666 1 0.16500 119244.000000
713 11604 1 0.16500 119244.000000
713 14666 1 0.16500 119244.000000
714 11604 1 0.16500 119244.000000
714 14773 1 0.16500 119244.000000
715 14773 1 0.16500 119244.000000
715 15199 1 0.16500 119244.000000
716 13459 1 0.16500 119244.000000
716 15558 1 0.16500 119244.000000
717 11605 1 0.16500 119244.000000
717 15558 1 0.16500 119244.000000
718 11605 1 0.16500 119244.000000
718 18550 1 0.16500 119244.000000
719 11606 1 0.16500 119244.000000
719 15230 1 0.16500 119244.000000
720 11606 1 0.16500 119244.000000
720 12405 1 0.16500 119244.000000
721 11606 1 0.16500 119244.000000
721 20782 1 0.16500 119244.000000
722 11607 1 0.16500 119244.000000
722 14452 1 0.16500 119244.000000
723 11646 1 0.16500 119244.000000
723 14128 1 0.16500 119244.000000
724 14128 1 0.16500 119244.000000
724 14452 1 0.16500 119244.000000
725 11608 1 0.16500 119244.000000
725 13809 1 0.16500 119244.000000
726 11608 1 0.16500 119244.000000
726 13694 1 0.16500 119244.000000
727 11608 1 0.16500 119244.000000
727 12518 1 0.16500 119244.000000
728 11608 1 0.16500 119244.000000
728 13076 1 0.16500 119244.000000
729 11609 1 0.16500 119244.000000
729 12392 1 0.16500 119244.000000
730 11609 1 0.16500 119244.000000
730 16107 1 0.16500 119244.000000
731 11609 1 0.16500 119244.000000
731 16333 1 0.16500 119244.000000
732 11609 1 0.16500 119244.000000
732 12816 1 0.16500 119244.000000
733 11610 1 0.16500 119244.000000
733 15685 1 0.16500 119244.000000
734 11610 1 0.16500 119244.000000
734 12186 1 0.16500 119244.000000
735 11610 1 0.16500 119244.000000
735 16360 1 0.16500 119244.000000
736 11610 1 0.16500 119244.000000
736 14904 1 0.16500 119244.000000
737 11611 1 0.16500 119244.000000
737 15771 1 0.16500 119244.000000
738 11611 1 0.16500 119244.000000
738 12508 1 0.16500 119244.000000
739 11611 1 0.16500 119244.000000
739 12503 1 0.16500 119244.000000
740 11611 1 0.16500 119244.000000
740 12639 1 0.16500 119244.000000
741 11612 1 0.16500 119244.000000
741 11989 1 0.16500 119244.000000
742 11612 1 0.16500 119244.000000
742 19342 1 0.16500 119244.000000
743 11612 1 0.16500 119244.000000
743 14911 1 0.16500 119244.000000
744 11612 1 0.16500 119244.000000
744 13671 1 0.16500 119244.000000
745 11613 1 0.16500 119244.000000
745 12414 1 0.16500 119244.000000
746 11613 1 0.16500 119244.000000
746 13713 1 0.16500 119244.000000
747 11613 1 0.16500 119244.000000
747 14258 1 0.16500 119244.000000
748 11613 1 0.16500 119244.000000
748 14995 1 0.16500 119244.000000
749 11614 1 0.16500 119244.000000
749 15507 1 0.16500 119244.000000
750 11614 1 0.16500 119244.000000
750 14875 1 0.16500 119244.000000
751 11614 1 0.16500 119244.000000
751 15385 1 0.16500 119244.000000
752 11614 1 0.16500 119244.000000
752 13650 1 0.16500 119244.000000
753 11615 1 0.16500 119244.000000
753 12732 1 0.16500 119244.000000
754 11615 1 0.16500 119244.000000
754 12715 1 0.16500 119244.000000
755 11615 1 0.16500 119244.000000
755 12417 1 0.16500 119244.000000
756 11615 1 0.16500 119244.000000
756 12154 1 0.16500 119244.000000
757 11616 1 0.16500 119244.000000
757 12654 1 0.16500 119244.000000
758 11616 1 0.16500 119244.000000
758 11716 1 0.16500 119244.000000
759 11616 1 0.16500 119244.000000
759 13043 1 0.16500 119244.000000
760 11596 1 0.16500 119244.000000
760 11616 1 0.16500 119244.000000
761 11617 1 0.16500 119244.000000
761 13174 1 0.16500 119244.000000
762 11617 1 0.16500 119244.000000
762 13139 1 0.16500 119244.000000
763 11617 1 0.16500 119244.000000
763 15103 1 0.16500 119244.000000
764 11617 1 0.16500 119244.000000
764 15851 1 0.16500 119244.000000
765 11618 1 0.16500 119244.000000
765 14009 1 0.16500 119244.000000
766 11618 1 0.16500 119244.000000
766 14616 1 0.16500 119244.000000
767 11618 1 0.16500 119244.000000
767 14112 1 0.16500 119244.000000
768 11618 1 0.16500 119244.000000
768 14806 1 0.16500 119244.000000
769 11619 1 0.16500 119244.000000
769 12155 1 0.16500 119244.000000
770 11500 1 0.16500 119244.000000
770 11619 1 0.16500 119244.000000
771 11619 1 0.16500 119244.000000
771 14244 1 0.16500 119244.000000
772 11619 1 0.16500 119244.000000
772 14787 1 0.16500 119244.000000
773 11620 1 0.16500 119244.000000
773 13682 1 0.16500 119244.000000
774 11620 1 0.16500 119244.000000
774 15384 1 0.16500 119244.000000
775 11620 1 0.16500 119244.000000
775 20179 1 0.16500 119244.000000
776 11621 1 0.16500 119244.000000
776 16078 1 0.16500 119244.000000
777 11621 1 0.16500 119244.000000
777 13928 1 0.16500 119244.000000
778 13928 1 0.16500 119244.000000
778 14528 1 0.16500 119244.000000
779 11622 1 0.16500 119244.000000
779 17568 1 0.16500 119244.000000
780 11622 1 0.16500 119244.000000
780 13937 1 0.16500 119244.000000
781 11622 1 0.16500 119244.000000
781 12590 1 0.16500 119244.000000
782 11622 1 0.16500 119244.000000
782 16483 1 0.16500 119244.000000
783 11623 1 0.16500 119244.000000
783 20407 1 0.16500 119244.000000
784 11623 1 0.16500 119244.000000
784 12390 1 0.16500 119244.000000
785 11623 1 0.16500 119244.000000
785 20845 1 0.16500 119244.000000
786 11624 1 0.16500 119244.000000
786 14508 1 0.16500 119244.000000
787 11624 1 0.16500 119244.000000
787 13350 1 0.16500 119244.000000
788 11624 1 0.16500 119244.000000
788 14390 1 0.16500 119244.000000
789 11624 1 0.16500 119244.000000
789 16134 1 0.16500 119244.000000
790 11625 1 0.16500 119244.000000
790 16425 1 0.16500 119244.000000
791 11625 1 0.16500 119244.000000
791 16243 1 0.16500 119244.000000
792 11625 1 0.16500 119244.000000
792 15703 1 0.16500 119244.000000
793 14583 1 0.16500 119244.000000
793 20551 1 0.16500 119244.000000
794 11626 1 0.16500 119244.000000
794 15517 1 0.16500 119244.000000
795 11626 1 0.16500 119244.000000
795 16044 1 0.16500 119244.000000
796 11626 1 0.16500 119244.000000
796 12701 1 0.16500 119244.000000
797 11627 1 0.16500 119244.000000
797 12780 1 0.16500 119244.000000
798 11627 1 0.16500 119244.000000
798 14209 1 0.16500 119244.000000
799 11627 1 0.16500 119244.000000
799 20272 1 0.16500 119244.000000
800 11628 1 0.16500 119244.000000
800 13152 1 0.16500 119244.000000
801 11628 1 0.16500 119244.000000
801 12352 1 0.16500 119244.000000
802 11629 1 0.16500 119244.000000
802 15794 1 0.16500 119244.000000
803 11629 1 0.16500 119244.000000
803 15352 1 0.16500 119244.000000
804 11629 1 0.16500 119244.000000
804 12940 1 0.16500 119244.000000
805 11629 1 0.16500 119244.000000
805 13765 1 0.16500 119244.000000
806 11630 1 0.16500 119244.000000
806 11982 1 0.16500 119244.000000
807 11630 1 0.16500 119244.000000
807 16282 1 0.16500 119244.000000
808 11630 1 0.16500 119244.000000
808 13305 1 0.16500 119244.000000
809 11982 1 0.16500 119244.000000
809 14140 1 0.16500 119244.000000
810 14912 1 0.16500 119244.000000
810 15912 1 0.16500 119244.000000
811 11876 1 0.16500 119244.000000
811 15912 1 0.16500 119244.000000
812 15912 1 0.16500 119244.000000
812 16329 1 0.16500 119244.000000
813 11631 1 0.16500 119244.000000
813 15912 1 0.16500 119244.000000
814 11632 1 0.16500 119244.000000
814 15547 1 0.16500 119244.000000
815 11632 1 0.16500 119244.000000
815 13425 1 0.16500 119244.000000
816 11632 1 0.16500 119244.000000
816 13997 1 0.16500 119244.000000
817 11632 1 0.16500 119244.000000
817 16440 1 0.16500 119244.000000
818 11633 1 0.16500 119244.000000
818 13291 1 0.16500 119244.000000
819 11633 1 0.16500 119244.000000
819 16229 1 0.16500 119244.000000
820 11633 1 0.16500 119244.000000
820 14949 1 0.16500 119244.000000
821 11633 1 0.16500 119244.000000
821 15322 1 0.16500 119244.000000
822 11634 1 0.16500 119244.000000
822 12448 1 0.16500 119244.000000
823 11634 1 0.16500 119244.000000
823 13633 1 0.16500 119244.000000
824 11634 1 0.16500 119244.000000
824 16524 1 0.16500 119244.000000
825 11635 1 0.16500 119244.000000
825 16492 1 0.16500 119244.000000
826 16039 1 0.16500 119244.000000
826 16492 1 0.16500 119244.000000
827 11635 1 0.16500 119244.000000
827 15508 1 0.16500 119244.000000
828 11635 1 0.16500 119244.000000
828 12173 1 0.16500 119244.000000
829 11636 1 0.16500 119244.000000
829 15177 1 0.16500 119244.000000
830 11636 1 0.16500 119244.000000
830 14364 1 0.16500 119244.000000
831 11636 1 0.16500 119244.000000
831 14608 1 0.16500 119244.000000
832 11636 1 0.16500 119244.000000
832 14248 1 0.16500 119244.000000
833 11637 1 0.16500 119244.000000
833 16292 1 0.16500 119244.000000
834 11637 1 0.16500 119244.000000
834 16244 1 0.16500 119244.000000
835 11637 1 0.16500 119244.000000
835 15802 1 0.16500 119244.000000
836 11637 1 0.16500 119244.000000
836 16022 1 0.16500 119244.000000
837 18070 1 0.16500 119244.000000
837 18790 1 0.16500 119244.000000
838 13435 1 0.16500 119244.000000
838 18070 1 0.16500 119244.000000
839 15863 1 0.16500 119244.000000
839 18070 1 0.16500 119244.000000
840 11638 1 0.16500 119244.000000
840 18562 1 0.16500 119244.000000
841 11639 1 0.16500 119244.000000
841 12808 1 0.16500 119244.000000
842 11639 1 0.16500 119244.000000
842 16334 1 0.16500 119244.000000
843 11631 1 0.16500 119244.000000
843 11639 1 0.16500 119244.000000
844 11639 1 0.16500 119244.000000
844 14829 1 0.16500 119244.000000
845 12050 1 0.16500 119244.000000
845 20359 1 0.16500 119244.000000
846 11640 1 0.16500 119244.000000
846 14818 1 0.16500 119244.000000
847 11640 1 0.16500 119244.000000
847 12132 1 0.16500 119244.000000
848 11640 1 0.16500 119244.000000
848 12930 1 0.16500 119244.000000
849 11641 1 0.16500 119244.000000
849 14420 1 0.16500 119244.000000
850 11595 1 0.16500 119244.000000
850 13245 1 0.16500 119244.000000
851 11641 1 0.16500 119244.000000
851 15447 1 0.16500 119244.000000
852 11642 1 0.16500 119244.000000
852 16103 1 0.16500 119244.000000
853 11642 1 0.16500 119244.000000
853 20647 1 0.16500 119244.000000
854 11642 1 0.16500 119244.000000
854 11990 1 0.16500 119244.000000
855 11642 1 0.16500 119244.000000
855 12428 1 0.16500 119244.000000
856 11643 1 0.16500 119244.000000
856 11697 1 0.16500 119244.000000
857 11643 1 0.16500 119244.000000
857 14585 1 0.16500 119244.000000
858 11643 1 0.16500 119244.000000
858 12965 1 0.16500 119244.000000
859 11643 1 0.16500 119244.000000
859 15926 1 0.16500 119244.000000
860 11644 1 0.16500 119244.000000
860 14939 1 0.16500 119244.000000
861 11644 1 0.16500 119244.000000
861 12936 1 0.16500 119244.000000
862 11644 1 0.16500 119244.000000
862 16412 1 0.16500 119244.000000
863 11644 1 0.16500 119244.000000
863 16461 1 0.16500 119244.000000
864 11645 1 0.16500 119244.000000
864 19510 1 0.16500 119244.000000
865 11645 1 0.16500 119244.000000
865 11676 1 0.16500 119244.000000
866 11676 1 0.16500 119244.000000
866 15233 1 0.16500 119244.000000
867 11645 1 0.16500 119244.000000
867 16581 1 0.16500 119244.000000
868 11646 1 0.16500 119244.000000
868 13629 1 0.16500 119244.000000
869 11646 1 0.16500 119244.000000
869 11691 1 0.16500 119244.000000
870 11646 1 0.16500 119244.000000
870 13356 1 0.16500 119244.000000
871 11647 1 0.16500 119244.000000
871 12965 1 0.16500 119244.000000
872 11647 1 0.16500 119244.000000
872 13763 1 0.16500 119244.000000
873 11647 1 0.16500 119244.000000
873 15382 1 0.16500 119244.000000
874 11647 1 0.16500 119244.000000
874 15817 1 0.16500 119244.000000
875 11648 1 0.16500 119244.000000
875 12152 1 0.16500 119244.000000
876 11648 1 0.16500 119244.000000
876 12236 1 0.16500 119244.000000
877 11648 1 0.16500 119244.000000
877 15641 1 0.16500 119244.000000
878 11648 1 0.16500 119244.000000
878 13247 1 0.16500 119244.000000
879 11649 1 0.16500 119244.000000
879 16146 1 0.16500 119244.000000
880 11649 1 0.16500 119244.000000
880 15436 1 0.16500 119244.000000
881 11649 1 0.16500 119244.000000
881 14660 1 0.16500 119244.000000
882 11649 1 0.16500 119244.000000
882 12530 1 0.16500 119244.000000
883 11650 1 0.16500 119244.000000
883 13575 1 0.16500 119244.000000
884 11650 1 0.16500 119244.000000
884 15514 1 0.16500 119244.000000
885 11650 1 0.16500 119244.000000
885 15361 1 0.16500 119244.000000
886 11650 1 0.16500 119244.000000
886 14612 1 0.16500 119244.000000
887 11651 1 0.16500 119244.000000
887 14137 1 0.16500 119244.000000
888 11651 1 0.16500 119244.000000
888 14512 1 0.16500 119244.000000
889 11651 1 0.16500 119244.000000
889 12811 1 0.16500 119244.000000
890 11652 1 0.16500 119244.000000
890 14680 1 0.16500 119244.000000
891 11652 1 0.16500 119244.000000
891 13730 1 0.16500 119244.000000
892 11652 1 0.16500 119244.000000
892 16266 1 0.16500 119244.000000
893 11652 1 0.16500 119244.000000
893 12693 1 0.16500 119244.000000
894 11653 1 0.16500 119244.000000
894 11742 1 0.16500 119244.000000
895 12135 1 0.16500 119244.000000
895 12551 1 0.16500 119244.000000
896 11742 1 0.16500 119244.000000
896 20650 1 0.16500 119244.000000
897 12551 1 0.16500 119244.000000
897 14989 1 0.16500 119244.000000
898 11654 1 0.16500 119244.000000
898 14170 1 0.16500 119244.000000
899 11654 1 0.16500 119244.000000
899 13864 1 0.16500 119244.000000
900 11654 1 0.16500 119244.000000
900 12298 1 0.16500 119244.000000
901 11654 1 0.16500 119244.000000
901 16121 1 0.16500 119244.000000
902 12254 1 0.16500 119244.000000
902 12996 1 0.16500 119244.000000
903 12400 1 0.16500 119244.000000
903 12996 1 0.16500 119244.000000
904 11655 1 0.16500 119244.000000
904 12996 1 0.16500 119244.000000
905 12996 1 0.16500 119244.000000
905 14795 1 0.16500 119244.000000
906 12226 1 0.16500 119244.000000
906 14543 1 0.16500 119244.000000
907 11656 1 0.16500 119244.000000
907 15586 1 0.16500 119244.000000
908 11656 1 0.16500 119244.000000
908 15440 1 0.16500 119244.000000
909 11656 1 0.16500 119244.000000
909 14543 1 0.16500 119244.000000
910 11657 1 0.16500 119244.000000
910 15545 1 0.16500 119244.000000
911 11657 1 0.16500 119244.000000
911 12189 1 0.16500 119244.000000
912 11657 1 0.16500 119244.000000
912 16308 1 0.16500 119244.000000
913 11657 1 0.16500 119244.000000
913 16202 1 0.16500 119244.000000
914 11658 1 0.16500 119244.000000
914 15708 1 0.16500 119244.000000
915 11658 1 0.16500 119244.000000
915 13399 1 0.16500 119244.000000
916 11658 1 0.16500 119244.000000
916 15451 1 0.16500 119244.000000
917 11658 1 0.16500 119244.000000
917 14754 1 0.16500 119244.000000
918 11659 1 0.16500 119244.000000
918 12272 1 0.16500 119244.000000
919 11659 1 0.16500 119244.000000
919 16161 1 0.16500 119244.000000
920 11659 1 0.16500 119244.000000
920 16499 1 0.16500 119244.000000
921 11660 1 0.16500 119244.000000
921 15433 1 0.16500 119244.000000
922 11660 1 0.16500 119244.000000
922 14084 1 0.16500 119244.000000
923 11660 1 0.16500 119244.000000
923 13090 1 0.16500 119244.000000
924 11660 1 0.16500 119244.000000
924 11943 1 0.16500 119244.000000
925 11661 1 0.16500 119244.000000
925 11670 1 0.16500 119244.000000
926 11661 1 0.16500 119244.000000
926 13965 1 0.16500 119244.000000
927 11661 1 0.16500 119244.000000
927 12008 1 0.16500 119244.000000
928 11661 1 0.16500 119244.000000
928 16369 1 0.16500 119244.000000
929 11662 1 0.16500 119244.000000
929 15849 1 0.16500 119244.000000
930 11662 1 0.16500 119244.000000
930 15196 1 0.16500 119244.000000
931 11662 1 0.16500 119244.000000
931 13829 1 0.16500 119244.000000
932 11662 1 0.16500 119244.000000
932 15583 1 0.16500 119244.000000
933 11663 1 0.16500 119244.000000
933 13864 1 0.16500 119244.000000
934 11663 1 0.16500 119244.000000
934 16436 1 0.16500 119244.000000
935 11663 1 0.16500 119244.000000
935 13448 1 0.16500 119244.000000
936 11663 1 0.16500 119244.000000
936 14906 1 0.16500 119244.000000
937 11664 1 0.16500 119244.000000
937 15752 1 0.16500 119244.000000
938 11664 1 0.16500 119244.000000
938 16227 1 0.16500 119244.000000
939 11664 1 0.16500 119244.000000
939 13232 1 0.16500 119244.000000
940 11664 1 0.16500 119244.000000
940 19174 1 0.16500 119244.000000
941 11665 1 0.16500 119244.000000
941 11724 1 0.16500 119244.000000
942 11665 1 0.16500 119244.000000
942 15925 1 0.16500 119244.000000
943 11665 1 0.16500 119244.000000
943 20200 1 0.16500 119244.000000
944 11665 1 0.16500 119244.000000
944 14735 1 0.16500 119244.000000
945 11666 1 0.16500 119244.000000
945 15597 1 0.16500 119244.000000
946 11666 1 0.16500 119244.000000
946 11847 1 0.16500 119244.000000
947 11666 1 0.16500 119244.000000
947 16534 1 0.16500 119244.000000
948 11666 1 0.16500 119244.000000
948 16687 1 0.16500 119244.000000
949 11761 1 0.16500 119244.000000
949 14893 1 0.16500 119244.000000
950 11667 1 0.16500 119244.000000
950 12454 1 0.16500 119244.000000
951 11667 1 0.16500 119244.000000
951 14893 1 0.16500 119244.000000
952 11667 1 0.16500 119244.000000
952 13774 1 0.16500 119244.000000
953 11668 1 0.16500 119244.000000
953 11685 1 0.16500 119244.000000
954 11668 1 0.16500 119244.000000
954 13621 1 0.16500 119244.000000
955 11668 1 0.16500 119244.000000
955 12797 1 0.16500 119244.000000
956 11668 1 0.16500 119244.000000
956 15451 1 0.16500 119244.000000
957 11669 1 0.16500 119244.000000
957 11737 1 0.16500 119244.000000
958 11669 1 0.16500 119244.000000
958 12474 1 0.16500 119244.000000
959 11737 1 0.16500 119244.000000
959 13556 1 0.16500 119244.000000
960 12474 1 0.16500 119244.000000
960 12826 1 0.16500 119244.000000
961 11670 1 0.16500 119244.000000
961 15626 1 0.16500 119244.000000
962 11670 1 0.16500 119244.000000
962 14730 1 0.16500 119244.000000
963 11670 1 0.16500 119244.000000
963 14627 1 0.16500 119244.000000
964 16228 1 0.16500 119244.000000
964 18082 1 0.16500 119244.000000
965 13373 1 0.16500 119244.000000
965 18082 1 0.16500 119244.000000
966 11671 1 0.16500 119244.000000
966 12965 1 0.16500 119244.000000
967 11671 1 0.16500 119244.000000
967 14280 1 0.16500 119244.000000
968 11671 1 0.16500 119244.000000
968 14758 1 0.16500 119244.000000
969 11671 1 0.16500 119244.000000
969 16406 1 0.16500 119244.000000
970 11672 1 0.16500 119244.000000
970 15903 1 0.16500 119244.000000
971 11672 1 0.16500 119244.000000
971 11981 1 0.16500 119244.000000
972 11672 1 0.16500 119244.000000
972 12348 1 0.16500 119244.000000
973 11672 1 0.16500 119244.000000
973 11883 1 0.16500 119244.000000
974 11673 1 0.16500 119244.000000
974 14794 1 0.16500 119244.000000
975 11673 1 0.16500 119244.000000
975 14173 1 0.16500 119244.000000
976 11673 1 0.16500 119244.000000
976 16014 1 0.16500 119244.000000
977 11673 1 0.16500 119244.000000
977 14784 1 0.16500 119244.000000
978 11674 1 0.16500 119244.000000
978 16411 1 0.16500 119244.000000
979 11674 1 0.16500 119244.000000
979 15387 1 0.16500 119244.000000
980 11674 1 0.16500 119244.000000
980 19474 1 0.16500 119244.000000
981 11675 1 0.16500 119244.000000
981 15005 1 0.16500 119244.000000
982 12174 1 0.16500 119244.000000
982 15005 1 0.16500 119244.000000
983 11675 1 0.16500 119244.000000
983 12335 1 0.16500 119244.000000
984 11675 1 0.16500 119244.000000
984 11800 1 0.16500 119244.000000
985 12002 1 0.16500 119244.000000
985 18016 1 0.16500 119244.000000
986 11645 1 0.16500 119244.000000
986 18526 1 0.16500 119244.000000
987 11676 1 0.16500 119244.000000
987 12908 1 0.16500 119244.000000
988 11676 1 0.16500 119244.000000
988 15784 1 0.16500 119244.000000
989 11677 1 0.16500 119244.000000
989 16487 1 0.16500 119244.000000
990 11677 1 0.16500 119244.000000
990 16675 1 0.16500 119244.000000
991 11677 1 0.16500 119244.000000
991 15409 1 0.16500 119244.000000
992 11677 1 0.16500 119244.000000
992 11716 1 0.16500 119244.000000
993 11678 1 0.16500 119244.000000
993 13461 1 0.16500 119244.000000
994 11678 1 0.16500 119244.000000
994 16506 1 0.16500 119244.000000
995 11678 1 0.16500 119244.000000
995 11859 1 0.16500 119244.000000
996 11679 1 0.16500 119244.000000
996 16616 1 0.16500 119244.000000
997 11679 1 0.16500 119244.000000
997 16468 1 0.16500 119244.000000
998 11679 1 0.16500 119244.000000
998 16143 1 0.16500 119244.000000
999 11679 1 0.16500 119244.000000
999 12658 1 0.16500 119244.000000
1000 11680 1 0.16500 119244.000000
1000 13323 1 0.16500 119244.000000
1001 11680 1 0.16500 119244.000000
1001 16555 1 0.16500 119244.000000
1002 11680 1 0.16500 119244.000000
1002 16239 1 0.16500 119244.000000
1003 11680 1 0.16500 119244.000000
1003 15453 1 0.16500 119244.000000
1004 11681 1 0.16500 119244.000000
1004 12459 1 0.16500 119244.000000
1005 11681 1 0.16500 119244.000000
1005 12152 1 0.16500 119244.000000
1006 11681 1 0.16500 119244.000000
1006 14990 1 0.16500 119244.000000
1007 11681 1 0.16500 119244.000000
1007 14338 1 0.16500 119244.000000
1008 11682 1 0.16500 119244.000000
1008 11715 1 0.16500 119244.000000
1009 11682 1 0.16500 119244.000000
1009 15395 1 0.16500 119244.000000
1010 15065 1 0.16500 119244.000000
1010 15406 1 0.16500 119244.000000
1011 11682 1 0.16500 119244.000000
1011 15065 1 0.16500 119244.000000
1012 11683 1 0.16500 119244.000000
1012 14730 1 0.16500 119244.000000
1013 11683 1 0.16500 119244.000000
1013 15761 1 0.16500 119244.000000
1014 11683 1 0.16500 119244.000000
1014 16369 1 0.16500 119244.000000
1015 11683 1 0.16500 119244.000000
1015 12681 1 0.16500 119244.000000
1016 11684 1 0.16500 119244.000000
1016 11992 1 0.16500 119244.000000
1017 11684 1 0.16500 119244.000000
1017 16019 1 0.16500 119244.000000
1018 11684 1 0.16500 119244.000000
1018 14133 1 0.16500 119244.000000
1019 11684 1 0.16500 119244.000000
1019 12542 1 0.16500 119244.000000
1020 11685 1 0.16500 119244.000000
1020 13321 1 0.16500 119244.000000
1021 11685 1 0.16500 119244.000000
1021 15437 1 0.16500 119244.000000
1022 11685 1 0.16500 119244.000000
1022 12086 1 0.16500 119244.000000
1023 11686 1 0.16500 119244.000000
1023 15816 1 0.16500 119244.000000
1024 11686 1 0.16500 119244.000000
1024 16210 1 0.16500 119244.000000
1025 11686 1 0.16500 119244.000000
1025 13300 1 0.16500 119244.000000
1026 11686 1 0.16500 119244.000000
1026 16365 1 0.16500 119244.000000
1027 11687 1 0.16500 119244.000000
1027 12204 1 0.16500 119244.000000
1028 11687 1 0.16500 119244.000000
1028 12312 1 0.16500 119244.000000
1029 11687 1 0.16500 119244.000000
1029 15587 1 0.16500 119244.000000
1030 11655 1 0.16500 119244.000000
1030 11688 1 0.16500 119244.000000
1031 11688 1 0.16500 119244.000000
1031 15918 1 0.16500 119244.000000
1032 11688 1 0.16500 119244.000000
1032 14779 1 0.16500 119244.000000
1033 11688 1 0.16500 119244.000000
1033 15456 1 0.16500 119244.000000
1034 11689 1 0.16500 119244.000000
1034 16812 1 0.16500 119244.000000
1035 11689 1 0.16500 119244.000000
1035 14270 1 0.16500 119244.000000
1036 11882 1 0.16500 119244.000000
1036 15358 1 0.16500 119244.000000
1037 15358 1 0.16500 119244.000000
1037 20686 1 0.16500 119244.000000
1038 13204 1 0.16500 119244.000000
1038 15358 1 0.16500 119244.000000
1039 11690 1 0.16500 119244.000000
1039 15358 1 0.16500 119244.000000
1040 11691 1 0.16500 119244.000000
1040 15511 1 0.16500 119244.000000
1041 11691 1 0.16500 119244.000000
1041 15282 1 0.16500 119244.000000
1042 11691 1 0.16500 119244.000000
1042 11692 1 0.16500 119244.000000
1043 11692 1 0.16500 119244.000000
1043 14833 1 0.16500 119244.000000
1044 11692 1 0.16500 119244.000000
1044 18154 1 0.16500 119244.000000
1045 11693 1 0.16500 119244.000000
1045 15376 1 0.16500 119244.000000
1046 11693 1 0.16500 119244.000000
1046 15900 1 0.16500 119244.000000
1047 11693 1 0.16500 119244.000000
1047 11766 1 0.16500 119244.000000
1048 11693 1 0.16500 119244.000000
1048 15447 1 0.16500 119244.000000
1049 11694 1 0.16500 119244.000000
1049 15229 1 0.16500 119244.000000
1050 11694 1 0.16500 119244.000000
1050 15773 1 0.16500 119244.000000
1051 11694 1 0.16500 119244.000000
1051 14749 1 0.16500 119244.000000
1052 11695 1 0.16500 119244.000000
1052 11843 1 0.16500 119244.000000
1053 11695 1 0.16500 119244.000000
1053 15679 1 0.16500 119244.000000
1054 11695 1 0.16500 119244.000000
1054 15389 1 0.16500 119244.000000
1055 11695 1 0.16500 119244.000000
1055 12682 1 0.16500 119244.000000
1056 11696 1 0.16500 119244.000000
1056 11902 1 0.16500 119244.000000
1057 11696 1 0.16500 119244.000000
1057 16027 1 0.16500 119244.000000
1058 11696 1 0.16500 119244.000000
1058 14506 1 0.16500 119244.000000
1059 11696 1 0.16500 119244.000000
1059 15432 1 0.16500 119244.000000
1060 11697 1 0.16500 119244.000000
1060 15823 1 0.16500 119244.000000
1061 11697 1 0.16500 119244.000000
1061 15563 1 0.16500 119244.000000
1062 13012 1 0.16500 119244.000000
1062 15823 1 0.16500 119244.000000
1063 13353 1 0.16500 119244.000000
1063 13573 1 0.16500 119244.000000
1064 11698 1 0.16500 119244.000000
1064 13353 1 0.16500 119244.000000
1065 13353 1 0.16500 119244.000000
1065 14928 1 0.16500 119244.000000
1066 11699 1 0.16500 119244.000000
1066 13845 1 0.16500 119244.000000
1067 11699 1 0.16500 119244.000000
1067 14695 1 0.16500 119244.000000
1068 11699 1 0.16500 119244.000000
1068 14721 1 0.16500 119244.000000
1069 11699 1 0.16500 119244.000000
1069 12475 1 0.16500 119244.000000
1070 11700 1 0.16500 119244.000000
1070 15998 1 0.16500 119244.000000
1071 11700 1 0.16500 119244.000000
1071 16574 1 0.16500 119244.000000
1072 11700 1 0.16500 119244.000000
1072 15121 1 0.16500 119244.000000
1073 11701 1 0.16500 119244.000000
1073 11882 1 0.16500 119244.000000
1074 11701 1 0.16500 119244.000000
1074 16683 1 0.16500 119244.000000
1075 11701 1 0.16500 119244.000000
1075 20539 1 0.16500 119244.000000
1076 11701 1 0.16500 119244.000000
1076 14866 1 0.16500 119244.000000
1077 11702 1 0.16500 119244.000000
1077 13700 1 0.16500 119244.000000
1078 11702 1 0.16500 119244.000000
1078 13981 1 0.16500 119244.000000
1079 11702 1 0.16500 119244.000000
1079 16540 1 0.16500 119244.000000
1080 11702 1 0.16500 119244.000000
1080 15317 1 0.16500 119244.000000
1081 11703 1 0.16500 119244.000000
1081 15852 1 0.16500 119244.000000
1082 11703 1 0.16500 119244.000000
1082 12756 1 0.16500 119244.000000
1083 11703 1 0.16500 119244.000000
1083 16614 1 0.16500 119244.000000
1084 11703 1 0.16500 119244.000000
1084 14597 1 0.16500 119244.000000
1085 11704 1 0.16500 119244.000000
1085 13520 1 0.16500 119244.000000
1086 11704 1 0.16500 119244.000000
1086 12582 1 0.16500 119244.000000
1087 11704 1 0.16500 119244.000000
1087 14184 1 0.16500 119244.000000
1088 11704 1 0.16500 119244.000000
1088 13181 1 0.16500 119244.000000
1089 11705 1 0.16500 119244.000000
1089 14224 1 0.16500 119244.000000
1090 11705 1 0.16500 119244.000000
1090 14854 1 0.16500 119244.000000
1091 11705 1 0.16500 119244.000000
1091 13238 1 0.16500 119244.000000
1092 11705 1 0.16500 119244.000000
1092 16287 1 0.16500 119244.000000
1093 11706 1 0.16500 119244.000000
1093 13213 1 0.16500 119244.000000
1094 11706 1 0.16500 119244.000000
1094 14342 1 0.16500 119244.000000
1095 11706 1 0.16500 119244.000000
1095 16347 1 0.16500 119244.000000
1096 11707 1 0.16500 119244.000000
1096 14365 1 0.16500 119244.000000
1097 11707 1 0.16500 119244.000000
1097 13336 1 0.16500 119244.000000
1098 11707 1 0.16500 119244.000000
1098 14422 1 0.16500 119244.000000
1099 11707 1 0.16500 119244.000000
1099 12840 1 0.16500 119244.000000
1100 11708 1 0.16500 119244.000000
1100 13192 1 0.16500 119244.000000
1101 11708 1 0.16500 119244.000000
1101 13230 1 0.16500 119244.000000
1102 11708 1 0.16500 119244.000000
1102 15228 1 0.16500 119244.000000
1103 11708 1 0.16500 119244.000000
1103 16539 1 0.16500 119244.000000
1104 11709 1 0.16500 119244.000000
1104 16050 1 0.16500 119244.000000
1105 11709 1 0.16500 119244.000000
1105 14993 1 0.16500 119244.000000
1106 11709 1 0.16500 119244.000000
1106 16650 1 0.16500 119244.000000
1107 11710 1 0.16500 119244.000000
1107 12272 1 0.16500 119244.000000
1108 12272 1 0.16500 119244.000000
1108 16477 1 0.16500 119244.000000
1109 12272 1 0.16500 119244.000000
1109 13401 1 0.16500 119244.000000
1110 11711 1 0.16500 119244.000000
1110 20035 1 0.16500 119244.000000
1111 11711 1 0.16500 119244.000000
1111 13539 1 0.16500 119244.000000
1112 11711 1 0.16500 119244.000000
1112 20791 1 0.16500 119244.000000
1113 11712 1 0.16500 119244.000000
1113 16448 1 0.16500 119244.000000
1114 14606 1 0.16500 119244.000000
1114 16448 1 0.16500 119244.000000
1115 11712 1 0.16500 119244.000000
1115 15438 1 0.16500 119244.000000
1116 11712 1 0.16500 119244.000000
1116 11840 1 0.16500 119244.000000
1117 11713 1 0.16500 119244.000000
1117 13878 1 0.16500 119244.000000
1118 11713 1 0.16500 119244.000000
1118 12435 1 0.16500 119244.000000
1119 11713 1 0.16500 119244.000000
1119 15696 1 0.16500 119244.000000
1120 11713 1 0.16500 119244.000000
1120 20800 1 0.16500 119244.000000
1121 11714 1 0.16500 119244.000000
1121 13239 1 0.16500 119244.000000
1122 11714 1 0.16500 119244.000000
1122 15795 1 0.16500 119244.000000
1123 11714 1 0.16500 119244.000000
1123 18442 1 0.16500 119244.000000
1124 11714 1 0.16500 119244.000000
1124 15308 1 0.16500 119244.000000
1125 11715 1 0.16500 119244.000000
1125 16066 1 0.16500 119244.000000
1126 11715 1 0.16500 119244.000000
1126 15600 1 0.16500 119244.000000
1127 11715 1 0.16500 119244.000000
1127 16332 1 0.16500 119244.000000
1128 11716 1 0.16500 119244.000000
1128 12063 1 0.16500 119244.000000
1129 11716 1 0.16500 119244.000000
1129 12984 1 0.16500 119244.000000
1130 11717 1 0.16500 119244.000000
1130 15591 1 0.16500 119244.000000
1131 11559 1 0.16500 119244.000000
1131 15204 1 0.16500 119244.000000
1132 11717 1 0.16500 119244.000000
1132 15248 1 0.16500 119244.000000
1133 11718 1 0.16500 119244.000000
1133 14019 1 0.16500 119244.000000
1134 11718 1 0.16500 119244.000000
1134 12472 1 0.16500 119244.000000
1135 11718 1 0.16500 119244.000000
1135 14067 1 0.16500 119244.000000
1136 11718 1 0.16500 119244.000000
1136 13978 1 0.16500 119244.000000
1137 15911 1 0.16500 119244.000000
1137 20212 1 0.16500 119244.000000
1138 11719 1 0.16500 119244.000000
1138 15459 1 0.16500 119244.000000
1139 11719 1 0.16500 119244.000000
1139 12865 1 0.16500 119244.000000
1140 11719 1 0.16500 119244.000000
1140 15521 1 0.16500 119244.000000
1141 11719 1 0.16500 119244.000000
1141 11907 1 0.16500 119244.000000
1142 11720 1 0.16500 119244.000000
1142 12215 1 0.16500 119244.000000
1143 11720 1 0.16500 119244.000000
1143 11735 1 0.16500 119244.000000
1144 11720 1 0.16500 119244.000000
1144 13335 1 0.16500 119244.000000
1145 11720 1 0.16500 119244.000000
1145 13590 1 0.16500 119244.000000
1146 11721 1 0.16500 119244.000000
1146 16491 1 0.16500 119244.000000
1147 11721 1 0.16500 119244.000000
1147 12966 1 0.16500 119244.000000
1148 11721 1 0.16500 119244.000000
1148 19606 1 0.16500 119244.000000
1149 11721 1 0.16500 119244.000000
1149 15979 1 0.16500 119244.000000
1150 11722 1 0.16500 119244.000000
1150 13672 1 0.16500 119244.000000
1151 13672 1 0.16500 119244.000000
1151 14136 1 0.16500 119244.000000
1152 11722 1 0.16500 119244.000000
1152 12472 1 0.16500 119244.000000
1153 11723 1 0.16500 119244.000000
1153 16599 1 0.16500 119244.000000
1154 11723 1 0.16500 119244.000000
1154 13157 1 0.16500 119244.000000
1155 11723 1 0.16500 119244.000000
1155 14847 1 0.16500 119244.000000
1156 11723 1 0.16500 119244.000000
1156 15080 1 0.16500 119244.000000
1157 11724 1 0.16500 119244.000000
1157 16196 1 0.16500 119244.000000
1158 11724 1 0.16500 119244.000000
1158 12046 1 0.16500 119244.000000
1159 11724 1 0.16500 119244.000000
1159 14962 1 0.16500 119244.000000
1160 13170 1 0.16500 119244.000000
1160 15732 1 0.16500 119244.000000
1161 11725 1 0.16500 119244.000000
1161 12154 1 0.16500 119244.000000
1162 11725 1 0.16500 119244.000000
1162 13170 1 0.16500 119244.000000
1163 13170 1 0.16500 119244.000000
1163 13497 1 0.16500 119244.000000
1164 11726 1 0.16500 119244.000000
1164 14393 1 0.16500 119244.000000
1165 11726 1 0.16500 119244.000000
1165 16393 1 0.16500 119244.000000
1166 11726 1 0.16500 119244.000000
1166 13702 1 0.16500 119244.000000
1167 11726 1 0.16500 119244.000000
1167 14062 1 0.16500 119244.000000
1168 11727 1 0.16500 119244.000000
1168 16497 1 0.16500 119244.000000
1169 11727 1 0.16500 119244.000000
1169 15147 1 0.16500 119244.000000
1170 11727 1 0.16500 119244.000000
1170 12554 1 0.16500 119244.000000
1171 11727 1 0.16500 119244.000000
1171 20026 1 0.16500 119244.000000
1172 11728 1 0.16500 119244.000000
1172 14021 1 0.16500 119244.000000
1173 11728 1 0.16500 119244.000000
1173 15011 1 0.16500 119244.000000
1174 11728 1 0.16500 119244.000000
1174 12939 1 0.16500 119244.000000
1175 11728 1 0.16500 119244.000000
1175 14224 1 0.16500 119244.000000
1176 11729 1 0.16500 119244.000000
1176 15990 1 0.16500 119244.000000
1177 11729 1 0.16500 119244.000000
1177 14457 1 0.16500 119244.000000
1178 11729 1 0.16500 119244.000000
1178 16005 1 0.16500 119244.000000
1179 11730 1 0.16500 119244.000000
1179 16118 1 0.16500 119244.000000
1180 11730 1 0.16500 119244.000000
1180 17484 1 0.16500 119244.000000
1181 11731 1 0.16500 119244.000000
1181 15295 1 0.16500 119244.000000
1182 11731 1 0.16500 119244.000000
1182 14458 1 0.16500 119244.000000
1183 11731 1 0.16500 119244.000000
1183 16112 1 0.16500 119244.000000
1184 11731 1 0.16500 119244.000000
1184 15518 1 0.16500 119244.000000
1185 11732 1 0.16500 119244.000000
1185 13899 1 0.16500 119244.000000
1186 11732 1 0.16500 119244.000000
1186 12202 1 0.16500 119244.000000
1187 11732 1 0.16500 119244.000000
1187 11851 1 0.16500 119244.000000
1188 11732 1 0.16500 119244.000000
1188 16470 1 0.16500 119244.000000
1189 11733 1 0.16500 119244.000000
1189 13144 1 0.16500 119244.000000
1190 11733 1 0.16500 119244.000000
1190 16385 1 0.16500 119244.000000
1191 11733 1 0.16500 119244.000000
1191 14664 1 0.16500 119244.000000
1192 13144 1 0.16500 119244.000000
1192 14484 1 0.16500 119244.000000
1193 11734 1 0.16500 119244.000000
1193 14084 1 0.16500 119244.000000
1194 11734 1 0.16500 119244.000000
1194 13917 1 0.16500 119244.000000
1195 11734 1 0.16500 119244.000000
1195 12000 1 0.16500 119244.000000
1196 11734 1 0.16500 119244.000000
1196 12945 1 0.16500 119244.000000
1197 11466 1 0.16500 119244.000000
1197 11735 1 0.16500 119244.000000
1198 11735 1 0.16500 119244.000000
1198 16182 1 0.16500 119244.000000
1199 13673 1 0.16500 119244.000000
1199 14914 1 0.16500 119244.000000
1200 11736 1 0.16500 119244.000000
1200 14416 1 0.16500 119244.000000
1201 11736 1 0.16500 119244.000000
1201 13673 1 0.16500 119244.000000
1202 11736 1 0.16500 119244.000000
1202 14942 1 0.16500 119244.000000
1203 11669 1 0.16500 119244.000000
1203 12667 1 0.16500 119244.000000
1204 11737 1 0.16500 119244.000000
1204 12914 1 0.16500 119244.000000
1205 11737 1 0.16500 119244.000000
1205 12897 1 0.16500 119244.000000
1206 11738 1 0.16500 119244.000000
1206 12216 1 0.16500 119244.000000
1207 11738 1 0.16500 119244.000000
1207 16868 1 0.16500 119244.000000
1208 11739 1 0.16500 119244.000000
1208 15110 1 0.16500 119244.000000
1209 11739 1 0.16500 119244.000000
1209 13937 1 0.16500 119244.000000
1210 11739 1 0.16500 119244.000000
1210 13622 1 0.16500 119244.000000
1211 11740 1 0.16500 119244.000000
1211 14066 1 0.16500 119244.000000
1212 11488 1 0.16500 119244.000000
1212 11740 1 0.16500 119244.000000
1213 11740 1 0.16500 119244.000000
1213 15418 1 0.16500 119244.000000
1214 11740 1 0.16500 119244.000000
1214 12583 1 0.16500 119244.000000
1215 11741 1 0.16500 119244.000000
1215 16356 1 0.16500 119244.000000
1216 11741 1 0.16500 119244.000000
1216 12210 1 0.16500 119244.000000
1217 11741 1 0.16500 119244.000000
1217 14895 1 0.16500 119244.000000
1218 11741 1 0.16500 119244.000000
1218 11796 1 0.16500 119244.000000
1219 11742 1 0.16500 119244.000000
1219 14565 1 0.16500 119244.000000
1220 11653 1 0.16500 119244.000000
1220 15724 1 0.16500 119244.000000
1221 11742 1 0.16500 119244.000000
1221 16064 1 0.16500 119244.000000
1222 11743 1 0.16500 119244.000000
1222 20668 1 0.16500 119244.000000
1223 11743 1 0.16500 119244.000000
1223 12607 1 0.16500 119244.000000
1224 11743 1 0.16500 119244.000000
1224 20806 1 0.16500 119244.000000
1225 11744 1 0.16500 119244.000000
1225 11767 1 0.16500 119244.000000
1226 11744 1 0.16500 119244.000000
1226 15248 1 0.16500 119244.000000
1227 11744 1 0.16500 119244.000000
1227 16368 1 0.16500 119244.000000
1228 11744 1 0.16500 119244.000000
1228 13163 1 0.16500 119244.000000
1229 11745 1 0.16500 119244.000000
1229 13949 1 0.16500 119244.000000
1230 11745 1 0.16500 119244.000000
1230 16338 1 0.16500 119244.000000
1231 11745 1 0.16500 119244.000000
1231 20938 1 0.16500 119244.000000
1232 11745 1 0.16500 119244.000000
1232 13240 1 0.16500 119244.000000
1233 11746 1 0.16500 119244.000000
1233 14947 1 0.16500 119244.000000
1234 11746 1 0.16500 119244.000000
1234 15403 1 0.16500 119244.000000
1235 11746 1 0.16500 119244.000000
1235 13325 1 0.16500 119244.000000
1236 11746 1 0.16500 119244.000000
1236 14845 1 0.16500 119244.000000
1237 11747 1 0.16500 119244.000000
1237 20401 1 0.16500 119244.000000
1238 11747 1 0.16500 119244.000000
1238 15738 1 0.16500 119244.000000
1239 11747 1 0.16500 119244.000000
1239 13750 1 0.16500 119244.000000
1240 11748 1 0.16500 119244.000000
1240 14678 1 0.16500 119244.000000
1241 11748 1 0.16500 119244.000000
1241 13617 1 0.16500 119244.000000
1242 11748 1 0.16500 119244.000000
1242 12927 1 0.16500 119244.000000
1243 11749 1 0.16500 119244.000000
1243 15202 1 0.16500 119244.000000
1244 11749 1 0.16500 119244.000000
1244 15772 1 0.16500 119244.000000
1245 11749 1 0.16500 119244.000000
1245 16134 1 0.16500 119244.000000
1246 11750 1 0.16500 119244.000000
1246 14003 1 0.16500 119244.000000
1247 11750 1 0.16500 119244.000000
1247 11928 1 0.16500 119244.000000
1248 11750 1 0.16500 119244.000000
1248 15350 1 0.16500 119244.000000
1249 11750 1 0.16500 119244.000000
1249 14216 1 0.16500 119244.000000
1250 11751 1 0.16500 119244.000000
1250 15717 1 0.16500 119244.000000
1251 11751 1 0.16500 119244.000000
1251 13022 1 0.16500 119244.000000
1252 11751 1 0.16500 119244.000000
1252 12577 1 0.16500 119244.000000
1253 11751 1 0.16500 119244.000000
1253 14392 1 0.16500 119244.000000
1254 11752 1 0.16500 119244.000000
1254 14343 1 0.16500 119244.000000
1255 11752 1 0.16500 119244.000000
1255 14143 1 0.16500 119244.000000
1256 11752 1 0.16500 119244.000000
1256 11809 1 0.16500 119244.000000
1257 11752 1 0.16500 119244.000000
1257 16300 1 0.16500 119244.000000
1258 11897 1 0.16500 119244.000000
1258 12918 1 0.16500 119244.000000
1259 11753 1 0.16500 119244.000000
1259 17764 1 0.16500 119244.000000
1260 11753 1 0.16500 119244.000000
1260 20785 1 0.16500 119244.000000
1261 11753 1 0.16500 119244.000000
1261 13315 1 0.16500 119244.000000
1262 11753 1 0.16500 119244.000000
1262 16575 1 0.16500 119244.000000
1263 11754 1 0.16500 119244.000000
1263 16630 1 0.16500 119244.000000
1264 11754 1 0.16500 119244.000000
1264 15638 1 0.16500 119244.000000
1265 11754 1 0.16500 119244.000000
1265 12467 1 0.16500 119244.000000
1266 11755 1 0.16500 119244.000000
1266 13745 1 0.16500 119244.000000
1267 11755 1 0.16500 119244.000000
1267 15478 1 0.16500 119244.000000
1268 11755 1 0.16500 119244.000000
1268 13860 1 0.16500 119244.000000
1269 11755 1 0.16500 119244.000000
1269 20272 1 0.16500 119244.000000
1270 11756 1 0.16500 119244.000000
1270 14648 1 0.16500 119244.000000
1271 11756 1 0.16500 119244.000000
1271 16686 1 0.16500 119244.000000
1272 11756 1 0.16500 119244.000000
1272 14038 1 0.16500 119244.000000
1273 11756 1 0.16500 119244.000000
1273 12545 1 0.16500 119244.000000
1274 11757 1 0.16500 119244.000000
1274 16412 1 0.16500 119244.000000
1275 11757 1 0.16500 119244.000000
1275 13260 1 0.16500 119244.000000
1276 11757 1 0.16500 119244.000000
1276 13874 1 0.16500 119244.000000
1277 11757 1 0.16500 119244.000000
1277 13258 1 0.16500 119244.000000
1278 11758 1 0.16500 119244.000000
1278 12577 1 0.16500 119244.000000
1279 11758 1 0.16500 119244.000000
1279 12285 1 0.16500 119244.000000
1280 11758 1 0.16500 119244.000000
1280 14296 1 0.16500 119244.000000
1281 11758 1 0.16500 119244.000000
1281 15720 1 0.16500 119244.000000
1282 11759 1 0.16500 119244.000000
1282 14924 1 0.16500 119244.000000
1283 11759 1 0.16500 119244.000000
1283 15051 1 0.16500 119244.000000
1284 12371 1 0.16500 119244.000000
1284 16525 1 0.16500 119244.000000
1285 11759 1 0.16500 119244.000000
1285 16525 1 0.16500 119244.000000
1286 11760 1 0.16500 119244.000000
1286 15006 1 0.16500 119244.000000
1287 15006 1 0.16500 119244.000000
1287 16562 1 0.16500 119244.000000
1288 11760 1 0.16500 119244.000000
1288 19114 1 0.16500 119244.000000
1289 11761 1 0.16500 119244.000000
1289 13453 1 0.16500 119244.000000
1290 11761 1 0.16500 119244.000000
1290 14954 1 0.16500 119244.000000
1291 11761 1 0.16500 119244.000000
1291 20023 1 0.16500 119244.000000
1292 11762 1 0.16500 119244.000000
1292 15742 1 0.16500 119244.000000
1293 11762 1 0.16500 119244.000000
1293 16133 1 0.16500 119244.000000
1294 11762 1 0.16500 119244.000000
1294 15985 1 0.16500 119244.000000
1295 11762 1 0.16500 119244.000000
1295 16530 1 0.16500 119244.000000
1296 11763 1 0.16500 119244.000000
1296 15640 1 0.16500 119244.000000
1297 11763 1 0.16500 119244.000000
1297 15179 1 0.16500 119244.000000
1298 11763 1 0.16500 119244.000000
1298 12139 1 0.16500 119244.000000
1299 11764 1 0.16500 119244.000000
1299 11893 1 0.16500 119244.000000
1300 11764 1 0.16500 119244.000000
1300 16098 1 0.16500 119244.000000
1301 11764 1 0.16500 119244.000000
1301 12336 1 0.16500 119244.000000
1302 11764 1 0.16500 119244.000000
1302 12823 1 0.16500 119244.000000
1303 11765 1 0.16500 119244.000000
1303 15281 1 0.16500 119244.000000
1304 14416 1 0.16500 119244.000000
1304 16156 1 0.16500 119244.000000
1305 11765 1 0.16500 119244.000000
1305 14416 1 0.16500 119244.000000
1306 11765 1 0.16500 119244.000000
1306 16053 1 0.16500 119244.000000
1307 11766 1 0.16500 119244.000000
1307 14775 1 0.16500 119244.000000
1308 11766 1 0.16500 119244.000000
1308 11830 1 0.16500 119244.000000
1309 11766 1 0.16500 119244.000000
1309 12929 1 0.16500 119244.000000
1310 11767 1 0.16500 119244.000000
1310 16200 1 0.16500 119244.000000
1311 11767 1 0.16500 119244.000000
1311 14536 1 0.16500 119244.000000
1312 11690 1 0.16500 119244.000000
1312 11767 1 0.16500 119244.000000
1313 11768 1 0.16500 119244.000000
1313 12140 1 0.16500 119244.000000
1314 11768 1 0.16500 119244.000000
1314 16448 1 0.16500 119244.000000
1315 11768 1 0.16500 119244.000000
1315 13480 1 0.16500 119244.000000
1316 11768 1 0.16500 119244.000000
1316 12280 1 0.16500 119244.000000
1317 11769 1 0.16500 119244.000000
1317 12948 1 0.16500 119244.000000
1318 11769 1 0.16500 119244.000000
1318 14697 1 0.16500 119244.000000
1319 11769 1 0.16500 119244.000000
1319 16368 1 0.16500 119244.000000
1320 11769 1 0.16500 119244.000000
1320 14536 1 0.16500 119244.000000
1321 11770 1 0.16500 119244.000000
1321 14648 1 0.16500 119244.000000
1322 11770 1 0.16500 119244.000000
1322 14665 1 0.16500 119244.000000
1323 11770 1 0.16500 119244.000000
1323 16194 1 0.16500 119244.000000
1324 11770 1 0.16500 119244.000000
1324 12106 1 0.16500 119244.000000
1325 11771 1 0.16500 119244.000000
1325 12128 1 0.16500 119244.000000
1326 11771 1 0.16500 119244.000000
1326 14860 1 0.16500 119244.000000
1327 11771 1 0.16500 119244.000000
1327 17750 1 0.16500 119244.000000
1328 11771 1 0.16500 119244.000000
1328 14440 1 0.16500 119244.000000
1329 11772 1 0.16500 119244.000000
1329 19354 1 0.16500 119244.000000
1330 19354 1 0.16500 119244.000000
1330 20461 1 0.16500 119244.000000
1331 11772 1 0.16500 119244.000000
1331 12569 1 0.16500 119244.000000
1332 11773 1 0.16500 119244.000000
1332 15566 1 0.16500 119244.000000
1333 11773 1 0.16500 119244.000000
1333 15292 1 0.16500 119244.000000
1334 11773 1 0.16500 119244.000000
1334 14489 1 0.16500 119244.000000
1335 11773 1 0.16500 119244.000000
1335 13860 1 0.16500 119244.000000
1336 11774 1 0.16500 119244.000000
1336 14155 1 0.16500 119244.000000
1337 11774 1 0.16500 119244.000000
1337 15634 1 0.16500 119244.000000
1338 11774 1 0.16500 119244.000000
1338 12662 1 0.16500 119244.000000
1339 11774 1 0.16500 119244.000000
1339 14381 1 0.16500 119244.000000
1340 11775 1 0.16500 119244.000000
1340 15921 1 0.16500 119244.000000
1341 11775 1 0.16500 119244.000000
1341 13760 1 0.16500 119244.000000
1342 11775 1 0.16500 119244.000000
1342 16194 1 0.16500 119244.000000
1343 11776 1 0.16500 119244.000000
1343 11965 1 0.16500 119244.000000
1344 11776 1 0.16500 119244.000000
1344 11869 1 0.16500 119244.000000
1345 11777 1 0.16500 119244.000000
1345 12536 1 0.16500 119244.000000
1346 11777 1 0.16500 119244.000000
1346 11998 1 0.16500 119244.000000
1347 11777 1 0.16500 119244.000000
1347 14429 1 0.16500 119244.000000
1348 11777 1 0.16500 119244.000000
1348 16414 1 0.16500 119244.000000
1349 13651 1 0.16500 119244.000000
1349 15797 1 0.16500 119244.000000
1350 13651 1 0.16500 119244.000000
1350 15504 1 0.16500 119244.000000
1351 11778 1 0.16500 119244.000000
1351 13651 1 0.16500 119244.000000
1352 15396 1 0.16500 119244.000000
1352 15504 1 0.16500 119244.000000
1353 11779 1 0.16500 119244.000000
1353 14234 1 0.16500 119244.000000
1354 15246 1 0.16500 119244.000000
1354 15338 1 0.16500 119244.000000
1355 11779 1 0.16500 119244.000000
1355 16392 1 0.16500 119244.000000
1356 11779 1 0.16500 119244.000000
1356 15246 1 0.16500 119244.000000
1357 12322 1 0.16500 119244.000000
1357 15992 1 0.16500 119244.000000
1358 11780 1 0.16500 119244.000000
1358 15503 1 0.16500 119244.000000
1359 12322 1 0.16500 119244.000000
1359 14575 1 0.16500 119244.000000
1360 11780 1 0.16500 119244.000000
1360 12322 1 0.16500 119244.000000
1361 11781 1 0.16500 119244.000000
1361 16436 1 0.16500 119244.000000
1362 11781 1 0.16500 119244.000000
1362 15978 1 0.16500 119244.000000
1363 11781 1 0.16500 119244.000000
1363 13912 1 0.16500 119244.000000
1364 11781 1 0.16500 119244.000000
1364 11942 1 0.16500 119244.000000
1365 11782 1 0.16500 119244.000000
1365 14154 1 0.16500 119244.000000
1366 11782 1 0.16500 119244.000000
1366 12290 1 0.16500 119244.000000
1367 11782 1 0.16500 119244.000000
1367 15111 1 0.16500 119244.000000
1368 11782 1 0.16500 119244.000000
1368 13794 1 0.16500 119244.000000
1369 11783 1 0.16500 119244.000000
1369 13216 1 0.16500 119244.000000
1370 11783 1 0.16500 119244.000000
1370 14883 1 0.16500 119244.000000
1371 11783 1 0.16500 119244.000000
1371 14210 1 0.16500 119244.000000
1372 11783 1 0.16500 119244.000000
1372 11971 1 0.16500 119244.000000
1373 11784 1 0.16500 119244.000000
1373 12255 1 0.16500 119244.000000
1374 11784 1 0.16500 119244.000000
1374 13765 1 0.16500 119244.000000
1375 11784 1 0.16500 119244.000000
1375 15427 1 0.16500 119244.000000
1376 11785 1 0.16500 119244.000000
1376 12959 1 0.16500 119244.000000
1377 11785 1 0.16500 119244.000000
1377 15732 1 0.16500 119244.000000
1378 11785 1 0.16500 119244.000000
1378 14485 1 0.16500 119244.000000
1379 11785 1 0.16500 119244.000000
1379 12573 1 0.16500 119244.000000
1380 11786 1 0.16500 119244.000000
1380 14745 1 0.16500 119244.000000
1381 11786 1 0.16500 119244.000000
1381 12048 1 0.16500 119244.000000
1382 11786 1 0.16500 119244.000000
1382 17680 1 0.16500 119244.000000
1383 11787 1 0.16500 119244.000000
1383 15107 1 0.16500 119244.000000
1384 11787 1 0.16500 119244.000000
1384 16335 1 0.16500 119244.000000
1385 11787 1 0.16500 119244.000000
1385 15700 1 0.16500 119244.000000
1386 11787 1 0.16500 119244.000000
1386 14881 1 0.16500 119244.000000
1387 11788 1 0.16500 119244.000000
1387 19318 1 0.16500 119244.000000
1388 11788 1 0.16500 119244.000000
1388 14793 1 0.16500 119244.000000
1389 11788 1 0.16500 119244.000000
1389 15870 1 0.16500 119244.000000
1390 11789 1 0.16500 119244.000000
1390 15232 1 0.16500 119244.000000
1391 11789 1 0.16500 119244.000000
1391 13479 1 0.16500 119244.000000
1392 11789 1 0.16500 119244.000000
1392 13370 1 0.16500 119244.000000
1393 11789 1 0.16500 119244.000000
1393 12733 1 0.16500 119244.000000
1394 11790 1 0.16500 119244.000000
1394 15337 1 0.16500 119244.000000
1395 11790 1 0.16500 119244.000000
1395 13737 1 0.16500 119244.000000
1396 11790 1 0.16500 119244.000000
1396 12454 1 0.16500 119244.000000
1397 11790 1 0.16500 119244.000000
1397 14954 1 0.16500 119244.000000
1398 11791 1 0.16500 119244.000000
1398 14266 1 0.16500 119244.000000
1399 11791 1 0.16500 119244.000000
1399 13071 1 0.16500 119244.000000
1400 11791 1 0.16500 119244.000000
1400 14593 1 0.16500 119244.000000
1401 11791 1 0.16500 119244.000000
1401 13785 1 0.16500 119244.000000
1402 11792 1 0.16500 119244.000000
1402 15125 1 0.16500 119244.000000
1403 14170 1 0.16500 119244.000000
1403 16153 1 0.16500 119244.000000
1404 11792 1 0.16500 119244.000000
1404 13767 1 0.16500 119244.000000
1405 11792 1 0.16500 119244.000000
1405 14170 1 0.16500 119244.000000
1406 11793 1 0.16500 119244.000000
1406 12359 1 0.16500 119244.000000
1407 11793 1 0.16500 119244.000000
1407 20797 1 0.16500 119244.000000
1408 11793 1 0.16500 119244.000000
1408 15525 1 0.16500 119244.000000
1409 12339 1 0.16500 119244.000000
1409 15203 1 0.16500 119244.000000
1410 11794 1 0.16500 119244.000000
1410 15203 1 0.16500 119244.000000
1411 11794 1 0.16500 119244.000000
1411 15813 1 0.16500 119244.000000
1412 11794 1 0.16500 119244.000000
1412 15334 1 0.16500 119244.000000
1413 11795 1 0.16500 119244.000000
1413 14762 1 0.16500 119244.000000
1414 11795 1 0.16500 119244.000000
1414 19246 1 0.16500 119244.000000
1415 11796 1 0.16500 119244.000000
1415 16441 1 0.16500 119244.000000
1416 11796 1 0.16500 119244.000000
1416 11937 1 0.16500 119244.000000
1417 11796 1 0.16500 119244.000000
1417 14849 1 0.16500 119244.000000
1418 11797 1 0.16500 119244.000000
1418 15464 1 0.16500 119244.000000
1419 11797 1 0.16500 119244.000000
1419 16031 1 0.16500 119244.000000
1420 11797 1 0.16500 119244.000000
1420 13301 1 0.16500 119244.000000
1421 11797 1 0.16500 119244.000000
1421 13322 1 0.16500 119244.000000
1422 11798 1 0.16500 119244.000000
1422 13770 1 0.16500 119244.000000
1423 11798 1 0.16500 119244.000000
1423 12525 1 0.16500 119244.000000
1424 11798 1 0.16500 119244.000000
1424 12794 1 0.16500 119244.000000
1425 11798 1 0.16500 119244.000000
1425 15637 1 0.16500 119244.000000
1426 11799 1 0.16500 119244.000000
1426 13034 1 0.16500 119244.000000
1427 11799 1 0.16500 119244.000000
1427 13026 1 0.16500 119244.000000
1428 11799 1 0.16500 119244.000000
1428 16653 1 0.16500 119244.000000
1429 11799 1 0.16500 119244.000000
1429 14676 1 0.16500 119244.000000
1430 11800 1 0.16500 119244.000000
1430 15266 1 0.16500 119244.000000
1431 11800 1 0.16500 119244.000000
1431 14229 1 0.16500 119244.000000
1432 11800 1 0.16500 119244.000000
1432 15277 1 0.16500 119244.000000
1433 11801 1 0.16500 119244.000000
1433 13362 1 0.16500 119244.000000
1434 11801 1 0.16500 119244.000000
1434 12148 1 0.16500 119244.000000
1435 11801 1 0.16500 119244.000000
1435 15394 1 0.16500 119244.000000
1436 11802 1 0.16500 119244.000000
1436 15964 1 0.16500 119244.000000
1437 11802 1 0.16500 119244.000000
1437 13828 1 0.16500 119244.000000
1438 11802 1 0.16500 119244.000000
1438 15768 1 0.16500 119244.000000
1439 11802 1 0.16500 119244.000000
1439 12383 1 0.16500 119244.000000
1440 11803 1 0.16500 119244.000000
1440 14019 1 0.16500 119244.000000
1441 11803 1 0.16500 119244.000000
1441 15112 1 0.16500 119244.000000
1442 11803 1 0.16500 119244.000000
1442 16403 1 0.16500 119244.000000
1443 11804 1 0.16500 119244.000000
1443 15985 1 0.16500 119244.000000
1444 11804 1 0.16500 119244.000000
1444 20758 1 0.16500 119244.000000
1445 11805 1 0.16500 119244.000000
1445 14490 1 0.16500 119244.000000
1446 11805 1 0.16500 119244.000000
1446 16437 1 0.16500 119244.000000
1447 11805 1 0.16500 119244.000000
1447 16690 1 0.16500 119244.000000
1448 11805 1 0.16500 119244.000000
1448 13045 1 0.16500 119244.000000
1449 11806 1 0.16500 119244.000000
1449 16531 1 0.16500 119244.000000
1450 11806 1 0.16500 119244.000000
1450 13415 1 0.16500 119244.000000
1451 11807 1 0.16500 119244.000000
1451 12810 1 0.16500 119244.000000
1452 11807 1 0.16500 119244.000000
1452 15974 1 0.16500 119244.000000
1453 11807 1 0.16500 119244.000000
1453 14686 1 0.16500 119244.000000
1454 11808 1 0.16500 119244.000000
1454 14571 1 0.16500 119244.000000
1455 11808 1 0.16500 119244.000000
1455 20020 1 0.16500 119244.000000
1456 11808 1 0.16500 119244.000000
1456 15634 1 0.16500 119244.000000
1457 11809 1 0.16500 119244.000000
1457 13904 1 0.16500 119244.000000
1458 11809 1 0.16500 119244.000000
1458 16500 1 0.16500 119244.000000
1459 11809 1 0.16500 119244.000000
1459 16414 1 0.16500 119244.000000
1460 12626 1 0.16500 119244.000000
1460 15335 1 0.16500 119244.000000
1461 11810 1 0.16500 119244.000000
1461 15079 1 0.16500 119244.000000
1462 11810 1 0.16500 119244.000000
1462 15970 1 0.16500 119244.000000
1463 14017 1 0.16500 119244.000000
1463 15216 1 0.16500 119244.000000
1464 11811 1 0.16500 119244.000000
1464 14765 1 0.16500 119244.000000
1465 11811 1 0.16500 119244.000000
1465 14406 1 0.16500 119244.000000
1466 11811 1 0.16500 119244.000000
1466 14442 1 0.16500 119244.000000
1467 11811 1 0.16500 119244.000000
1467 15220 1 0.16500 119244.000000
1468 12232 1 0.16500 119244.000000
1468 16196 1 0.16500 119244.000000
1469 12579 1 0.16500 119244.000000
1469 14299 1 0.16500 119244.000000
1470 11812 1 0.16500 119244.000000
1470 12232 1 0.16500 119244.000000
1471 11812 1 0.16500 119244.000000
1471 12579 1 0.16500 119244.000000
1472 11813 1 0.16500 119244.000000
1472 12383 1 0.16500 119244.000000
1473 11813 1 0.16500 119244.000000
1473 13480 1 0.16500 119244.000000
1474 11813 1 0.16500 119244.000000
1474 12754 1 0.16500 119244.000000
1475 11813 1 0.16500 119244.000000
1475 13256 1 0.16500 119244.000000
1476 11814 1 0.16500 119244.000000
1476 13718 1 0.16500 119244.000000
1477 11814 1 0.16500 119244.000000
1477 14541 1 0.16500 119244.000000
1478 11815 1 0.16500 119244.000000
1478 15128 1 0.16500 119244.000000
1479 11815 1 0.16500 119244.000000
1479 16006 1 0.16500 119244.000000
1480 11815 1 0.16500 119244.000000
1480 15371 1 0.16500 119244.000000
1481 11815 1 0.16500 119244.000000
1481 17288 1 0.16500 119244.000000
1482 11816 1 0.16500 119244.000000
1482 14346 1 0.16500 119244.000000
1483 11816 1 0.16500 119244.000000
1483 15591 1 0.16500 119244.000000
1484 11816 1 0.16500 119244.000000
1484 12281 1 0.16500 119244.000000
1485 11816 1 0.16500 119244.000000
1485 15994 1 0.16500 119244.000000
1486 11817 1 0.16500 119244.000000
1486 14298 1 0.16500 119244.000000
1487 11817 1 0.16500 119244.000000
1487 15570 1 0.16500 119244.000000
1488 11817 1 0.16500 119244.000000
1488 16108 1 0.16500 119244.000000
1489 11817 1 0.16500 119244.000000
1489 15116 1 0.16500 119244.000000
1490 11818 1 0.16500 119244.000000
1490 13647 1 0.16500 119244.000000
1491 11818 1 0.16500 119244.000000
1491 13946 1 0.16500 119244.000000
1492 11818 1 0.16500 119244.000000
1492 12327 1 0.16500 119244.000000
1493 11818 1 0.16500 119244.000000
1493 14990 1 0.16500 119244.000000
1494 11819 1 0.16500 119244.000000
1494 12199 1 0.16500 119244.000000
1495 11819 1 0.16500 119244.000000
1495 20002 1 0.16500 119244.000000
1496 11819 1 0.16500 119244.000000
1496 13077 1 0.16500 119244.000000
1497 11819 1 0.16500 119244.000000
1497 12921 1 0.16500 119244.000000
1498 11820 1 0.16500 119244.000000
1498 15891 1 0.16500 119244.000000
1499 12427 1 0.16500 119244.000000
1499 13793 1 0.16500 119244.000000
1500 11820 1 0.16500 119244.000000
1500 12427 1 0.16500 119244.000000
1501 11820 1 0.16500 119244.000000
1501 12036 1 0.16500 119244.000000
1502 11821 1 0.16500 119244.000000
1502 12355 1 0.16500 119244.000000
1503 11821 1 0.16500 119244.000000
1503 13012 1 0.16500 119244.000000
1504 11821 1 0.16500 119244.000000
1504 15063 1 0.16500 119244.000000
1505 11821 1 0.16500 119244.000000
1505 14499 1 0.16500 119244.000000
1506 11822 1 0.16500 119244.000000
1506 14251 1 0.16500 119244.000000
1507 11822 1 0.16500 119244.000000
1507 13838 1 0.16500 119244.000000
1508 11822 1 0.16500 119244.000000
1508 15070 1 0.16500 119244.000000
1509 11822 1 0.16500 119244.000000
1509 16217 1 0.16500 119244.000000
1510 11823 1 0.16500 119244.000000
1510 13878 1 0.16500 119244.000000
1511 11823 1 0.16500 119244.000000
1511 14618 1 0.16500 119244.000000
1512 11823 1 0.16500 119244.000000
1512 15562 1 0.16500 119244.000000
1513 11823 1 0.16500 119244.000000
1513 15509 1 0.16500 119244.000000
1514 11824 1 0.16500 119244.000000
1514 13038 1 0.16500 119244.000000
1515 11824 1 0.16500 119244.000000
1515 15267 1 0.16500 119244.000000
1516 11824 1 0.16500 119244.000000
1516 14936 1 0.16500 119244.000000
1517 11824 1 0.16500 119244.000000
1517 14916 1 0.16500 119244.000000
1518 11825 1 0.16500 119244.000000
1518 14410 1 0.16500 119244.000000
1519 11825 1 0.16500 119244.000000
1519 14468 1 0.16500 119244.000000
1520 11825 1 0.16500 119244.000000
1520 12177 1 0.16500 119244.000000
1521 11825 1 0.16500 119244.000000
1521 16198 1 0.16500 119244.000000
1522 11826 1 0.16500 119244.000000
1522 14526 1 0.16500 119244.000000
1523 11826 1 0.16500 119244.000000
1523 14723 1 0.16500 119244.000000
1524 11826 1 0.16500 119244.000000
1524 13978 1 0.16500 119244.000000
1525 11826 1 0.16500 119244.000000
1525 15495 1 0.16500 119244.000000
1526 11827 1 0.16500 119244.000000
1526 19198 1 0.16500 119244.000000
1527 11827 1 0.16500 119244.000000
1527 14721 1 0.16500 119244.000000
1528 11827 1 0.16500 119244.000000
1528 16071 1 0.16500 119244.000000
1529 11827 1 0.16500 119244.000000
1529 13941 1 0.16500 119244.000000
1530 11828 1 0.16500 119244.000000
1530 15620 1 0.16500 119244.000000
1531 11828 1 0.16500 119244.000000
1531 16339 1 0.16500 119244.000000
1532 11828 1 0.16500 119244.000000
1532 14600 1 0.16500 119244.000000
1533 11828 1 0.16500 119244.000000
1533 14043 1 0.16500 119244.000000
1534 11829 1 0.16500 119244.000000
1534 14795 1 0.16500 119244.000000
1535 11829 1 0.16500 119244.000000
1535 15020 1 0.16500 119244.000000
1536 11829 1 0.16500 119244.000000
1536 15068 1 0.16500 119244.000000
1537 11829 1 0.16500 119244.000000
1537 15546 1 0.16500 119244.000000
1538 11830 1 0.16500 119244.000000
1538 16471 1 0.16500 119244.000000
1539 11830 1 0.16500 119244.000000
1539 13071 1 0.16500 119244.000000
1540 11830 1 0.16500 119244.000000
1540 14692 1 0.16500 119244.000000
1541 11831 1 0.16500 119244.000000
1541 13628 1 0.16500 119244.000000
1542 11831 1 0.16500 119244.000000
1542 14748 1 0.16500 119244.000000
1543 11832 1 0.16500 119244.000000
1543 16523 1 0.16500 119244.000000
1544 11832 1 0.16500 119244.000000
1544 12628 1 0.16500 119244.000000
1545 11832 1 0.16500 119244.000000
1545 14205 1 0.16500 119244.000000
1546 11832 1 0.16500 119244.000000
1546 13832 1 0.16500 119244.000000
1547 11833 1 0.16500 119244.000000
1547 12530 1 0.16500 119244.000000
1548 11833 1 0.16500 119244.000000
1548 12057 1 0.16500 119244.000000
1549 11833 1 0.16500 119244.000000
1549 15224 1 0.16500 119244.000000
1550 11833 1 0.16500 119244.000000
1550 13810 1 0.16500 119244.000000
1551 11834 1 0.16500 119244.000000
1551 15146 1 0.16500 119244.000000
1552 11834 1 0.16500 119244.000000
1552 13868 1 0.16500 119244.000000
1553 11834 1 0.16500 119244.000000
1553 15493 1 0.16500 119244.000000
1554 11834 1 0.16500 119244.000000
1554 14845 1 0.16500 119244.000000
1555 11835 1 0.16500 119244.000000
1555 12433 1 0.16500 119244.000000
1556 11835 1 0.16500 119244.000000
1556 14124 1 0.16500 119244.000000
1557 11835 1 0.16500 119244.000000
1557 14708 1 0.16500 119244.000000
1558 11835 1 0.16500 119244.000000
1558 14914 1 0.16500 119244.000000
1559 11836 1 0.16500 119244.000000
1559 15298 1 0.16500 119244.000000
1560 11836 1 0.16500 119244.000000
1560 15198 1 0.16500 119244.000000
1561 11836 1 0.16500 119244.000000
1561 15633 1 0.16500 119244.000000
1562 11836 1 0.16500 119244.000000
1562 16417 1 0.16500 119244.000000
1563 11837 1 0.16500 119244.000000
1563 14451 1 0.16500 119244.000000
1564 11837 1 0.16500 119244.000000
1564 14151 1 0.16500 119244.000000
1565 11837 1 0.16500 119244.000000
1565 12395 1 0.16500 119244.000000
1566 11837 1 0.16500 119244.000000
1566 12009 1 0.16500 119244.000000
1567 11838 1 0.16500 119244.000000
1567 11908 1 0.16500 119244.000000
1568 12533 1 0.16500 119244.000000
1568 16238 1 0.16500 119244.000000
1569 11838 1 0.16500 119244.000000
1569 12533 1 0.16500 119244.000000
1570 11838 1 0.16500 119244.000000
1570 13843 1 0.16500 119244.000000
1571 11839 1 0.16500 119244.000000
1571 12382 1 0.16500 119244.000000
1572 11839 1 0.16500 119244.000000
1572 16055 1 0.16500 119244.000000
1573 11839 1 0.16500 119244.000000
1573 15839 1 0.16500 119244.000000
1574 11839 1 0.16500 119244.000000
1574 12360 1 0.16500 119244.000000
1575 11840 1 0.16500 119244.000000
1575 15993 1 0.16500 119244.000000
1576 12093 1 0.16500 119244.000000
1576 15993 1 0.16500 119244.000000
1577 11840 1 0.16500 119244.000000
1577 16300 1 0.16500 119244.000000
1578 11840 1 0.16500 119244.000000
1578 14815 1 0.16500 119244.000000
1579 11841 1 0.16500 119244.000000
1579 13676 1 0.16500 119244.000000
1580 11841 1 0.16500 119244.000000
1580 14940 1 0.16500 119244.000000
1581 11841 1 0.16500 119244.000000
1581 13131 1 0.16500 119244.000000
1582 11841 1 0.16500 119244.000000
1582 14659 1 0.16500 119244.000000
1583 11842 1 0.16500 119244.000000
1583 12252 1 0.16500 119244.000000
1584 11842 1 0.16500 119244.000000
1584 13173 1 0.16500 119244.000000
1585 11842 1 0.16500 119244.000000
1585 13748 1 0.16500 119244.000000
1586 11843 1 0.16500 119244.000000
1586 12582 1 0.16500 119244.000000
1587 11843 1 0.16500 119244.000000
1587 16588 1 0.16500 119244.000000
1588 12497 1 0.16500 119244.000000
1588 16588 1 0.16500 119244.000000
1589 11844 1 0.16500 119244.000000
1589 15759 1 0.16500 119244.000000
1590 11844 1 0.16500 119244.000000
1590 13856 1 0.16500 119244.000000
1591 11844 1 0.16500 119244.000000
1591 15609 1 0.16500 119244.000000
1592 11844 1 0.16500 119244.000000
1592 15711 1 0.16500 119244.000000
1593 11845 1 0.16500 119244.000000
1593 15925 1 0.16500 119244.000000
1594 11845 1 0.16500 119244.000000
1594 13346 1 0.16500 119244.000000
1595 11845 1 0.16500 119244.000000
1595 15073 1 0.16500 119244.000000
1596 11846 1 0.16500 119244.000000
1596 16496 1 0.16500 119244.000000
1597 11556 1 0.16500 119244.000000
1597 11846 1 0.16500 119244.000000
1598 11846 1 0.16500 119244.000000
1598 15540 1 0.16500 119244.000000
1599 11847 1 0.16500 119244.000000
1599 14233 1 0.16500 119244.000000
1600 11847 1 0.16500 119244.000000
1600 13979 1 0.16500 119244.000000
1601 11847 1 0.16500 119244.000000
1601 11898 1 0.16500 119244.000000
1602 11848 1 0.16500 119244.000000
1602 12318 1 0.16500 119244.000000
1603 11848 1 0.16500 119244.000000
1603 13400 1 0.16500 119244.000000
1604 11848 1 0.16500 119244.000000
1604 13902 1 0.16500 119244.000000
1605 11849 1 0.16500 119244.000000
1605 13326 1 0.16500 119244.000000
1606 11849 1 0.16500 119244.000000
1606 14341 1 0.16500 119244.000000
1607 11849 1 0.16500 119244.000000
1607 14614 1 0.16500 119244.000000
1608 11849 1 0.16500 119244.000000
1608 12502 1 0.16500 119244.000000
1609 11850 1 0.16500 119244.000000
1609 13842 1 0.16500 119244.000000
1610 11850 1 0.16500 119244.000000
1610 14365 1 0.16500 119244.000000
1611 11850 1 0.16500 119244.000000
1611 13028 1 0.16500 119244.000000
1612 13842 1 0.16500 119244.000000
1612 15804 1 0.16500 119244.000000
1613 11851 1 0.16500 119244.000000
1613 12962 1 0.16500 119244.000000
1614 11851 1 0.16500 119244.000000
1614 16185 1 0.16500 119244.000000
1615 11851 1 0.16500 119244.000000
1615 16270 1 0.16500 119244.000000
1616 11852 1 0.16500 119244.000000
1616 12769 1 0.16500 119244.000000
1617 11852 1 0.16500 119244.000000
1617 12973 1 0.16500 119244.000000
1618 11852 1 0.16500 119244.000000
1618 13995 1 0.16500 119244.000000
1619 11866 1 0.16500 119244.000000
1619 13840 1 0.16500 119244.000000
1620 11853 1 0.16500 119244.000000
1620 13840 1 0.16500 119244.000000
1621 11853 1 0.16500 119244.000000
1621 14487 1 0.16500 119244.000000
1622 11853 1 0.16500 119244.000000
1622 14861 1 0.16500 119244.000000
1623 18094 1 0.16500 119244.000000
1623 20770 1 0.16500 119244.000000
1624 13156 1 0.16500 119244.000000
1624 18094 1 0.16500 119244.000000
1625 12006 1 0.16500 119244.000000
1625 18094 1 0.16500 119244.000000
1626 11854 1 0.16500 119244.000000
1626 14081 1 0.16500 119244.000000
1627 11854 1 0.16500 119244.000000
1627 12487 1 0.16500 119244.000000
1628 11854 1 0.16500 119244.000000
1628 13832 1 0.16500 119244.000000
1629 11854 1 0.16500 119244.000000
1629 14800 1 0.16500 119244.000000
1630 11855 1 0.16500 119244.000000
1630 15915 1 0.16500 119244.000000
1631 11855 1 0.16500 119244.000000
1631 16377 1 0.16500 119244.000000
1632 11855 1 0.16500 119244.000000
1632 16000 1 0.16500 119244.000000
1633 13440 1 0.16500 119244.000000
1633 16377 1 0.16500 119244.000000
1634 11856 1 0.16500 119244.000000
1634 20521 1 0.16500 119244.000000
1635 11856 1 0.16500 119244.000000
1635 20566 1 0.16500 119244.000000
1636 11856 1 0.16500 119244.000000
1636 13748 1 0.16500 119244.000000
1637 11857 1 0.16500 119244.000000
1637 16109 1 0.16500 119244.000000
1638 11857 1 0.16500 119244.000000
1638 15063 1 0.16500 119244.000000
1639 11857 1 0.16500 119244.000000
1639 14263 1 0.16500 119244.000000
1640 11857 1 0.16500 119244.000000
1640 15342 1 0.16500 119244.000000
1641 11858 1 0.16500 119244.000000
1641 13674 1 0.16500 119244.000000
1642 11858 1 0.16500 119244.000000
1642 12852 1 0.16500 119244.000000
1643 11858 1 0.16500 119244.000000
1643 19102 1 0.16500 119244.000000
1644 18106 1 0.16500 119244.000000
1644 20776 1 0.16500 119244.000000
1645 18106 1 0.16500 119244.000000
1645 20647 1 0.16500 119244.000000
1646 14770 1 0.16500 119244.000000
1646 18106 1 0.16500 119244.000000
1647 11710 1 0.16500 119244.000000
1647 14515 1 0.16500 119244.000000
1648 12415 1 0.16500 119244.000000
1648 13453 1 0.16500 119244.000000
1649 11710 1 0.16500 119244.000000
1649 12415 1 0.16500 119244.000000
1650 11860 1 0.16500 119244.000000
1650 13343 1 0.16500 119244.000000
1651 11860 1 0.16500 119244.000000
1651 16472 1 0.16500 119244.000000
1652 11861 1 0.16500 119244.000000
1652 18118 1 0.16500 119244.000000
1653 11861 1 0.16500 119244.000000
1653 12885 1 0.16500 119244.000000
1654 11861 1 0.16500 119244.000000
1654 12033 1 0.16500 119244.000000
1655 13329 1 0.16500 119244.000000
1655 18118 1 0.16500 119244.000000
1656 11862 1 0.16500 119244.000000
1656 16508 1 0.16500 119244.000000
1657 11862 1 0.16500 119244.000000
1657 13546 1 0.16500 119244.000000
1658 11862 1 0.16500 119244.000000
1658 14681 1 0.16500 119244.000000
1659 11862 1 0.16500 119244.000000
1659 12498 1 0.16500 119244.000000
1660 11863 1 0.16500 119244.000000
1660 12864 1 0.16500 119244.000000
1661 11863 1 0.16500 119244.000000
1661 16683 1 0.16500 119244.000000
1662 11863 1 0.16500 119244.000000
1662 15663 1 0.16500 119244.000000
1663 11863 1 0.16500 119244.000000
1663 13873 1 0.16500 119244.000000
1664 11864 1 0.16500 119244.000000
1664 13345 1 0.16500 119244.000000
1665 11864 1 0.16500 119244.000000
1665 12776 1 0.16500 119244.000000
1666 11864 1 0.16500 119244.000000
1666 12939 1 0.16500 119244.000000
1667 11864 1 0.16500 119244.000000
1667 15740 1 0.16500 119244.000000
1668 11865 1 0.16500 119244.000000
1668 15375 1 0.16500 119244.000000
1669 11865 1 0.16500 119244.000000
1669 15707 1 0.16500 119244.000000
1670 11865 1 0.16500 119244.000000
1670 16660 1 0.16500 119244.000000
1671 11865 1 0.16500 119244.000000
1671 12338 1 0.16500 119244.000000
1672 11866 1 0.16500 119244.000000
1672 13764 1 0.16500 119244.000000
1673 11866 1 0.16500 119244.000000
1673 13933 1 0.16500 119244.000000
1674 11867 1 0.16500 119244.000000
1674 15898 1 0.16500 119244.000000
1675 11867 1 0.16500 119244.000000
1675 14181 1 0.16500 119244.000000
1676 11867 1 0.16500 119244.000000
1676 15065 1 0.16500 119244.000000
1677 11867 1 0.16500 119244.000000
1677 13009 1 0.16500 119244.000000
1678 11868 1 0.16500 119244.000000
1678 15725 1 0.16500 119244.000000
1679 11868 1 0.16500 119244.000000
1679 12774 1 0.16500 119244.000000
1680 11868 1 0.16500 119244.000000
1680 14608 1 0.16500 119244.000000
1681 11869 1 0.16500 119244.000000
1681 14846 1 0.16500 119244.000000
1682 11869 1 0.16500 119244.000000
1682 14577 1 0.16500 119244.000000
1683 11869 1 0.16500 119244.000000
1683 13587 1 0.16500 119244.000000
1684 17946 1 0.16500 119244.000000
1684 20023 1 0.16500 119244.000000
1685 18130 1 0.16500 119244.000000
1685 19594 1 0.16500 119244.000000
1686 14108 1 0.16500 119244.000000
1686 20251 1 0.16500 119244.000000
1687 11870 1 0.16500 119244.000000
1687 14108 1 0.16500 119244.000000
1688 11870 1 0.16500 119244.000000
1688 13523 1 0.16500 119244.000000
1689 11871 1 0.16500 119244.000000
1689 18538 1 0.16500 119244.000000
1690 11871 1 0.16500 119244.000000
1690 14984 1 0.16500 119244.000000
1691 11871 1 0.16500 119244.000000
1691 15144 1 0.16500 119244.000000
1692 11872 1 0.16500 119244.000000
1692 13994 1 0.16500 119244.000000
1693 11872 1 0.16500 119244.000000
1693 13444 1 0.16500 119244.000000
1694 11872 1 0.16500 119244.000000
1694 15776 1 0.16500 119244.000000
1695 11872 1 0.16500 119244.000000
1695 14399 1 0.16500 119244.000000
1696 12567 1 0.16500 119244.000000
1696 16380 1 0.16500 119244.000000
1697 11873 1 0.16500 119244.000000
1697 12567 1 0.16500 119244.000000
1698 11873 1 0.16500 119244.000000
1698 12024 1 0.16500 119244.000000
1699 11873 1 0.16500 119244.000000
1699 12615 1 0.16500 119244.000000
1700 11874 1 0.16500 119244.000000
1700 16126 1 0.16500 119244.000000
1701 11874 1 0.16500 119244.000000
1701 14175 1 0.16500 119244.000000
1702 11874 1 0.16500 119244.000000
1702 13752 1 0.16500 119244.000000
1703 11874 1 0.16500 119244.000000
1703 19414 1 0.16500 119244.000000
1704 11875 1 0.16500 119244.000000
1704 15207 1 0.16500 119244.000000
1705 11875 1 0.16500 119244.000000
1705 13136 1 0.16500 119244.000000
1706 11875 1 0.16500 119244.000000
1706 16489 1 0.16500 119244.000000
1707 11875 1 0.16500 119244.000000
1707 14748 1 0.16500 119244.000000
1708 11876 1 0.16500 119244.000000
1708 12555 1 0.16500 119244.000000
1709 11876 1 0.16500 119244.000000
1709 15220 1 0.16500 119244.000000
1710 11876 1 0.16500 119244.000000
1710 15148 1 0.16500 119244.000000
1711 11877 1 0.16500 119244.000000
1711 15448 1 0.16500 119244.000000
1712 15225 1 0.16500 119244.000000
1712 15448 1 0.16500 119244.000000
1713 11877 1 0.16500 119244.000000
1713 15827 1 0.16500 119244.000000
1714 11877 1 0.16500 119244.000000
1714 14782 1 0.16500 119244.000000
1715 11878 1 0.16500 119244.000000
1715 20560 1 0.16500 119244.000000
1716 11878 1 0.16500 119244.000000
1716 13333 1 0.16500 119244.000000
1717 11878 1 0.16500 119244.000000
1717 19987 1 0.16500 119244.000000
1718 11879 1 0.16500 119244.000000
1718 13227 1 0.16500 119244.000000
1719 11880 1 0.16500 119244.000000
1719 14795 1 0.16500 119244.000000
1720 12988 1 0.16500 119244.000000
1720 16292 1 0.16500 119244.000000
1721 12988 1 0.16500 119244.000000
1721 16207 1 0.16500 119244.000000
1722 11880 1 0.16500 119244.000000
1722 12988 1 0.16500 119244.000000
1723 11881 1 0.16500 119244.000000
1723 13513 1 0.16500 119244.000000
1724 11881 1 0.16500 119244.000000
1724 15682 1 0.16500 119244.000000
1725 11881 1 0.16500 119244.000000
1725 15689 1 0.16500 119244.000000
1726 11881 1 0.16500 119244.000000
1726 16481 1 0.16500 119244.000000
1727 11882 1 0.16500 119244.000000
1727 20725 1 0.16500 119244.000000
1728 11883 1 0.16500 119244.000000
1728 16125 1 0.16500 119244.000000
1729 11883 1 0.16500 119244.000000
1729 14408 1 0.16500 119244.000000
1730 11883 1 0.16500 119244.000000
1730 12274 1 0.16500 119244.000000
1731 11884 1 0.16500 119244.000000
1731 15164 1 0.16500 119244.000000
1732 11884 1 0.16500 119244.000000
1732 16061 1 0.16500 119244.000000
1733 11884 1 0.16500 119244.000000
1733 13409 1 0.16500 119244.000000
1734 11884 1 0.16500 119244.000000
1734 13301 1 0.16500 119244.000000
1735 11885 1 0.16500 119244.000000
1735 14946 1 0.16500 119244.000000
1736 11885 1 0.16500 119244.000000
1736 15639 1 0.16500 119244.000000
1737 11885 1 0.16500 119244.000000
1737 14141 1 0.16500 119244.000000
1738 11886 1 0.16500 119244.000000
1738 15920 1 0.16500 119244.000000
1739 11886 1 0.16500 119244.000000
1739 16662 1 0.16500 119244.000000
1740 14401 1 0.16500 119244.000000
1740 15920 1 0.16500 119244.000000
1741 12522 1 0.16500 119244.000000
1741 16662 1 0.16500 119244.000000
1742 11887 1 0.16500 119244.000000
1742 14059 1 0.16500 119244.000000
1743 11888 1 0.16500 119244.000000
1743 12408 1 0.16500 119244.000000
1744 11888 1 0.16500 119244.000000
1744 12441 1 0.16500 119244.000000
1745 11888 1 0.16500 119244.000000
1745 14803 1 0.16500 119244.000000
1746 11888 1 0.16500 119244.000000
1746 15668 1 0.16500 119244.000000
1747 11889 1 0.16500 119244.000000
1747 13092 1 0.16500 119244.000000
1748 11889 1 0.16500 119244.000000
1748 15528 1 0.16500 119244.000000
1749 11598 1 0.16500 119244.000000
1749 15141 1 0.16500 119244.000000
1750 16363 1 0.16500 119244.000000
1750 16700 1 0.16500 119244.000000
1751 11890 1 0.16500 119244.000000
1751 20794 1 0.16500 119244.000000
1752 11890 1 0.16500 119244.000000
1752 14116 1 0.16500 119244.000000
1753 11890 1 0.16500 119244.000000
1753 14379 1 0.16500 119244.000000
1754 11891 1 0.16500 119244.000000
1754 15854 1 0.16500 119244.000000
1755 11891 1 0.16500 119244.000000
1755 20557 1 0.16500 119244.000000
1756 11891 1 0.16500 119244.000000
1756 14892 1 0.16500 119244.000000
1757 11891 1 0.16500 119244.000000
1757 13264 1 0.16500 119244.000000
1758 11892 1 0.16500 119244.000000
1758 16310 1 0.16500 119244.000000
1759 11892 1 0.16500 119244.000000
1759 14379 1 0.16500 119244.000000
1760 11892 1 0.16500 119244.000000
1760 15867 1 0.16500 119244.000000
1761 11893 1 0.16500 119244.000000
1761 13128 1 0.16500 119244.000000
1762 11893 1 0.16500 119244.000000
1762 15667 1 0.16500 119244.000000
1763 11893 1 0.16500 119244.000000
1763 12208 1 0.16500 119244.000000
1764 11894 1 0.16500 119244.000000
1764 12338 1 0.16500 119244.000000
1765 11894 1 0.16500 119244.000000
1765 13895 1 0.16500 119244.000000
1766 11894 1 0.16500 119244.000000
1766 12437 1 0.16500 119244.000000
1767 11894 1 0.16500 119244.000000
1767 12503 1 0.16500 119244.000000
1768 11895 1 0.16500 119244.000000
1768 14349 1 0.16500 119244.000000
1769 11895 1 0.16500 119244.000000
1769 12952 1 0.16500 119244.000000
1770 11895 1 0.16500 119244.000000
1770 12889 1 0.16500 119244.000000
1771 11895 1 0.16500 119244.000000
1771 14233 1 0.16500 119244.000000
1772 11896 1 0.16500 119244.000000
1772 20248 1 0.16500 119244.000000
1773 11896 1 0.16500 119244.000000
1773 12546 1 0.16500 119244.000000
1774 11896 1 0.16500 119244.000000
1774 14352 1 0.16500 119244.000000
1775 11896 1 0.16500 119244.000000
1775 14505 1 0.16500 119244.000000
1776 11897 1 0.16500 119244.000000
1776 16681 1 0.16500 119244.000000
1777 11897 1 0.16500 119244.000000
1777 12834 1 0.16500 119244.000000
1778 11898 1 0.16500 119244.000000
1778 14668 1 0.16500 119244.000000
1779 11898 1 0.16500 119244.000000
1779 13002 1 0.16500 119244.000000
1780 11898 1 0.16500 119244.000000
1780 16413 1 0.16500 119244.000000
1781 11899 1 0.16500 119244.000000
1781 20743 1 0.16500 119244.000000
1782 11899 1 0.16500 119244.000000
1782 12914 1 0.16500 119244.000000
1783 11899 1 0.16500 119244.000000
1783 13986 1 0.16500 119244.000000
1784 11899 1 0.16500 119244.000000
1784 16124 1 0.16500 119244.000000
1785 11900 1 0.16500 119244.000000
1785 14147 1 0.16500 119244.000000
1786 11900 1 0.16500 119244.000000
1786 15179 1 0.16500 119244.000000
1787 11900 1 0.16500 119244.000000
1787 15015 1 0.16500 119244.000000
1788 11901 1 0.16500 119244.000000
1788 15078 1 0.16500 119244.000000
1789 11901 1 0.16500 119244.000000
1789 14635 1 0.16500 119244.000000
1790 11901 1 0.16500 119244.000000
1790 14852 1 0.16500 119244.000000
1791 11901 1 0.16500 119244.000000
1791 13001 1 0.16500 119244.000000
1792 11902 1 0.16500 119244.000000
1792 12947 1 0.16500 119244.000000
1793 11902 1 0.16500 119244.000000
1793 13044 1 0.16500 119244.000000
1794 11902 1 0.16500 119244.000000
1794 14120 1 0.16500 119244.000000
1795 11903 1 0.16500 119244.000000
1795 13713 1 0.16500 119244.000000
1796 11903 1 0.16500 119244.000000
1796 15018 1 0.16500 119244.000000
1797 11903 1 0.16500 119244.000000
1797 16331 1 0.16500 119244.000000
1798 11903 1 0.16500 119244.000000
1798 14264 1 0.16500 119244.000000
1799 11904 1 0.16500 119244.000000
1799 14183 1 0.16500 119244.000000
1800 11904 1 0.16500 119244.000000
1800 13392 1 0.16500 119244.000000
1801 11904 1 0.16500 119244.000000
1801 12738 1 0.16500 119244.000000
1802 11904 1 0.16500 119244.000000
1802 12447 1 0.16500 119244.000000
1803 11905 1 0.16500 119244.000000
1803 12201 1 0.16500 119244.000000
1804 11905 1 0.16500 119244.000000
1804 14665 1 0.16500 119244.000000
1805 11905 1 0.16500 119244.000000
1805 16686 1 0.16500 119244.000000
1806 11905 1 0.16500 119244.000000
1806 14759 1 0.16500 119244.000000
1807 11906 1 0.16500 119244.000000
1807 15150 1 0.16500 119244.000000
1808 11906 1 0.16500 119244.000000
1808 13383 1 0.16500 119244.000000
1809 11907 1 0.16500 119244.000000
1809 12584 1 0.16500 119244.000000
1810 11907 1 0.16500 119244.000000
1810 12224 1 0.16500 119244.000000
1811 11907 1 0.16500 119244.000000
1811 13585 1 0.16500 119244.000000
1812 11908 1 0.16500 119244.000000
1812 13802 1 0.16500 119244.000000
1813 11908 1 0.16500 119244.000000
1813 11980 1 0.16500 119244.000000
1814 11908 1 0.16500 119244.000000
1814 14279 1 0.16500 119244.000000
1815 11909 1 0.16500 119244.000000
1815 12769 1 0.16500 119244.000000
1816 11909 1 0.16500 119244.000000
1816 13055 1 0.16500 119244.000000
1817 11909 1 0.16500 119244.000000
1817 14375 1 0.16500 119244.000000
1818 11909 1 0.16500 119244.000000
1818 16466 1 0.16500 119244.000000
1819 11910 1 0.16500 119244.000000
1819 12181 1 0.16500 119244.000000
1820 11910 1 0.16500 119244.000000
1820 13153 1 0.16500 119244.000000
1821 11910 1 0.16500 119244.000000
1821 15622 1 0.16500 119244.000000
1822 11911 1 0.16500 119244.000000
1822 13531 1 0.16500 119244.000000
1823 11911 1 0.16500 119244.000000
1823 14891 1 0.16500 119244.000000
1824 11911 1 0.16500 119244.000000
1824 16690 1 0.16500 119244.000000
1825 11912 1 0.16500 119244.000000
1825 15477 1 0.16500 119244.000000
1826 11912 1 0.16500 119244.000000
1826 16024 1 0.16500 119244.000000
1827 11912 1 0.16500 119244.000000
1827 14113 1 0.16500 119244.000000
1828 11912 1 0.16500 119244.000000
1828 15972 1 0.16500 119244.000000
1829 13511 1 0.16500 119244.000000
1829 18142 1 0.16500 119244.000000
1830 18142 1 0.16500 119244.000000
1830 20107 1 0.16500 119244.000000
1831 14077 1 0.16500 119244.000000
1831 18142 1 0.16500 119244.000000
1832 11913 1 0.16500 119244.000000
1832 14256 1 0.16500 119244.000000
1833 11913 1 0.16500 119244.000000
1833 12676 1 0.16500 119244.000000
1834 11913 1 0.16500 119244.000000
1834 15416 1 0.16500 119244.000000
1835 11913 1 0.16500 119244.000000
1835 15637 1 0.16500 119244.000000
1836 11914 1 0.16500 119244.000000
1836 13824 1 0.16500 119244.000000
1837 11914 1 0.16500 119244.000000
1837 13052 1 0.16500 119244.000000
1838 11914 1 0.16500 119244.000000
1838 15804 1 0.16500 119244.000000
1839 11915 1 0.16500 119244.000000
1839 14572 1 0.16500 119244.000000
1840 11915 1 0.16500 119244.000000
1840 13411 1 0.16500 119244.000000
1841 11915 1 0.16500 119244.000000
1841 12543 1 0.16500 119244.000000
1842 11915 1 0.16500 119244.000000
1842 14586 1 0.16500 119244.000000
1843 11916 1 0.16500 119244.000000
1843 16357 1 0.16500 119244.000000
1844 11916 1 0.16500 119244.000000
1844 15967 1 0.16500 119244.000000
1845 11916 1 0.16500 119244.000000
1845 12451 1 0.16500 119244.000000
1846 11916 1 0.16500 119244.000000
1846 15478 1 0.16500 119244.000000
1847 11917 1 0.16500 119244.000000
1847 12735 1 0.16500 119244.000000
1848 11917 1 0.16500 119244.000000
1848 12621 1 0.16500 119244.000000
1849 11917 1 0.16500 119244.000000
1849 12849 1 0.16500 119244.000000
1850 11917 1 0.16500 119244.000000
1850 14307 1 0.16500 119244.000000
1851 11918 1 0.16500 119244.000000
1851 14581 1 0.16500 119244.000000
1852 11918 1 0.16500 119244.000000
1852 13106 1 0.16500 119244.000000
1853 11918 1 0.16500 119244.000000
1853 16193 1 0.16500 119244.000000
1854 11918 1 0.16500 119244.000000
1854 11991 1 0.16500 119244.000000
1855 11919 1 0.16500 119244.000000
1855 14989 1 0.16500 119244.000000
1856 11919 1 0.16500 119244.000000
1856 15422 1 0.16500 119244.000000
1857 11919 1 0.16500 119244.000000
1857 15724 1 0.16500 119244.000000
1858 11460 1 0.16500 119244.000000
1858 20029 1 0.16500 119244.000000
1859 11920 1 0.16500 119244.000000
1859 15341 1 0.16500 119244.000000
1860 11920 1 0.16500 119244.000000
1860 15506 1 0.16500 119244.000000
1861 11920 1 0.16500 119244.000000
1861 12672 1 0.16500 119244.000000
1862 11920 1 0.16500 119244.000000
1862 13140 1 0.16500 119244.000000
1863 11921 1 0.16500 119244.000000
1863 13018 1 0.16500 119244.000000
1864 11921 1 0.16500 119244.000000
1864 19066 1 0.16500 119244.000000
1865 11921 1 0.16500 119244.000000
1865 15052 1 0.16500 119244.000000
1866 11922 1 0.16500 119244.000000
1866 16635 1 0.16500 119244.000000
1867 11922 1 0.16500 119244.000000
1867 15646 1 0.16500 119244.000000
1868 11923 1 0.16500 119244.000000
1868 14364 1 0.16500 119244.000000
1869 11923 1 0.16500 119244.000000
1869 16631 1 0.16500 119244.000000
1870 11923 1 0.16500 119244.000000
1870 15965 1 0.16500 119244.000000
1871 11923 1 0.16500 119244.000000
1871 16181 1 0.16500 119244.000000
1872 11924 1 0.16500 119244.000000
1872 13338 1 0.16500 119244.000000
1873 11924 1 0.16500 119244.000000
1873 11961 1 0.16500 119244.000000
1874 11924 1 0.16500 119244.000000
1874 13882 1 0.16500 119244.000000
1875 11924 1 0.16500 119244.000000
1875 16418 1 0.16500 119244.000000
1876 11925 1 0.16500 119244.000000
1876 15944 1 0.16500 119244.000000
1877 11925 1 0.16500 119244.000000
1877 15709 1 0.16500 119244.000000
1878 11925 1 0.16500 119244.000000
1878 16661 1 0.16500 119244.000000
1879 11926 1 0.16500 119244.000000
1879 14308 1 0.16500 119244.000000
1880 11926 1 0.16500 119244.000000
1880 16148 1 0.16500 119244.000000
1881 11926 1 0.16500 119244.000000
1881 13154 1 0.16500 119244.000000
1882 11926 1 0.16500 119244.000000
1882 12592 1 0.16500 119244.000000
1883 11927 1 0.16500 119244.000000
1883 14199 1 0.16500 119244.000000
1884 11927 1 0.16500 119244.000000
1884 13130 1 0.16500 119244.000000
1885 11927 1 0.16500 119244.000000
1885 14230 1 0.16500 119244.000000
1886 11928 1 0.16500 119244.000000
1886 12410 1 0.16500 119244.000000
1887 11928 1 0.16500 119244.000000
1887 14744 1 0.16500 119244.000000
1888 11928 1 0.16500 119244.000000
1888 13474 1 0.16500 119244.000000
1889 11929 1 0.16500 119244.000000
1889 14562 1 0.16500 119244.000000
1890 11929 1 0.16500 119244.000000
1890 16540 1 0.16500 119244.000000
1891 11929 1 0.16500 119244.000000
1891 13242 1 0.16500 119244.000000
1892 11930 1 0.16500 119244.000000
1892 14124 1 0.16500 119244.000000
1893 11930 1 0.16500 119244.000000
1893 15037 1 0.16500 119244.000000
1894 14124 1 0.16500 119244.000000
1894 15782 1 0.16500 119244.000000
1895 11930 1 0.16500 119244.000000
1895 15799 1 0.16500 119244.000000
1896 11931 1 0.16500 119244.000000
1896 19954 1 0.16500 119244.000000
1897 11931 1 0.16500 119244.000000
1897 16562 1 0.16500 119244.000000
1898 11932 1 0.16500 119244.000000
1898 12127 1 0.16500 119244.000000
1899 11932 1 0.16500 119244.000000
1899 14700 1 0.16500 119244.000000
1900 11932 1 0.16500 119244.000000
1900 14604 1 0.16500 119244.000000
1901 11932 1 0.16500 119244.000000
1901 16345 1 0.16500 119244.000000
1902 14537 1 0.16500 119244.000000
1902 16679 1 0.16500 119244.000000
1903 11933 1 0.16500 119244.000000
1903 13062 1 0.16500 119244.000000
1904 15615 1 0.16500 119244.000000
1904 15986 1 0.16500 119244.000000
1905 11933 1 0.16500 119244.000000
1905 14537 1 0.16500 119244.000000
1906 11934 1 0.16500 119244.000000
1906 15468 1 0.16500 119244.000000
1907 11934 1 0.16500 119244.000000
1907 14647 1 0.16500 119244.000000
1908 11934 1 0.16500 119244.000000
1908 16210 1 0.16500 119244.000000
1909 11934 1 0.16500 119244.000000
1909 12296 1 0.16500 119244.000000
1910 11935 1 0.16500 119244.000000
1910 13110 1 0.16500 119244.000000
1911 11935 1 0.16500 119244.000000
1911 14219 1 0.16500 119244.000000
1912 14219 1 0.16500 119244.000000
1912 15019 1 0.16500 119244.000000
1913 11935 1 0.16500 119244.000000
1913 13870 1 0.16500 119244.000000
1914 11936 1 0.16500 119244.000000
1914 16412 1 0.16500 119244.000000
1915 11936 1 0.16500 119244.000000
1915 16235 1 0.16500 119244.000000
1916 11936 1 0.16500 119244.000000
1916 13259 1 0.16500 119244.000000
1917 11936 1 0.16500 119244.000000
1917 12278 1 0.16500 119244.000000
1918 11937 1 0.16500 119244.000000
1918 15128 1 0.16500 119244.000000
1919 11937 1 0.16500 119244.000000
1919 13615 1 0.16500 119244.000000
1920 11938 1 0.16500 119244.000000
1920 16438 1 0.16500 119244.000000
1921 11938 1 0.16500 119244.000000
1921 15405 1 0.16500 119244.000000
1922 11938 1 0.16500 119244.000000
1922 20833 1 0.16500 119244.000000
1923 11938 1 0.16500 119244.000000
1923 13546 1 0.16500 119244.000000
1924 15440 1 0.16500 119244.000000
1924 16244 1 0.16500 119244.000000
1925 11939 1 0.16500 119244.000000
1925 15440 1 0.16500 119244.000000
1926 11939 1 0.16500 119244.000000
1926 20419 1 0.16500 119244.000000
1927 14867 1 0.16500 119244.000000
1927 20419 1 0.16500 119244.000000
1928 13065 1 0.16500 119244.000000
1928 16424 1 0.16500 119244.000000
1929 11940 1 0.16500 119244.000000
1929 18514 1 0.16500 119244.000000
1930 12066 1 0.16500 119244.000000
1930 16177 1 0.16500 119244.000000
1931 11940 1 0.16500 119244.000000
1931 13065 1 0.16500 119244.000000
1932 11941 1 0.16500 119244.000000
1932 16189 1 0.16500 119244.000000
1933 11941 1 0.16500 119244.000000
1933 16226 1 0.16500 119244.000000
1934 11941 1 0.16500 119244.000000
1934 14973 1 0.16500 119244.000000
1935 11941 1 0.16500 119244.000000
1935 15084 1 0.16500 119244.000000
1936 11942 1 0.16500 119244.000000
1936 14112 1 0.16500 119244.000000
1937 11942 1 0.16500 119244.000000
1937 12220 1 0.16500 119244.000000
1938 11942 1 0.16500 119244.000000
1938 13666 1 0.16500 119244.000000
1939 12430 1 0.16500 119244.000000
1939 14387 1 0.16500 119244.000000
1940 11943 1 0.16500 119244.000000
1940 12000 1 0.16500 119244.000000
1941 11943 1 0.16500 119244.000000
1941 13624 1 0.16500 119244.000000
1942 11943 1 0.16500 119244.000000
1942 15840 1 0.16500 119244.000000
1943 11944 1 0.16500 119244.000000
1943 12834 1 0.16500 119244.000000
1944 11944 1 0.16500 119244.000000
1944 20176 1 0.16500 119244.000000
1945 11944 1 0.16500 119244.000000
1945 19948 1 0.16500 119244.000000
1946 11510 1 0.16500 119244.000000
1946 12727 1 0.16500 119244.000000
1947 11945 1 0.16500 119244.000000
1947 15269 1 0.16500 119244.000000
1948 11510 1 0.16500 119244.000000
1948 14191 1 0.16500 119244.000000
1949 11946 1 0.16500 119244.000000
1949 15234 1 0.16500 119244.000000
1950 11946 1 0.16500 119244.000000
1950 13278 1 0.16500 119244.000000
1951 11946 1 0.16500 119244.000000
1951 20656 1 0.16500 119244.000000
1952 11947 1 0.16500 119244.000000
1952 13836 1 0.16500 119244.000000
1953 11947 1 0.16500 119244.000000
1953 14231 1 0.16500 119244.000000
1954 11947 1 0.16500 119244.000000
1954 14321 1 0.16500 119244.000000
1955 11947 1 0.16500 119244.000000
1955 13153 1 0.16500 119244.000000
1956 11948 1 0.16500 119244.000000
1956 12283 1 0.16500 119244.000000
1957 11948 1 0.16500 119244.000000
1957 12525 1 0.16500 119244.000000
1958 11948 1 0.16500 119244.000000
1958 13452 1 0.16500 119244.000000
1959 11948 1 0.16500 119244.000000
1959 13137 1 0.16500 119244.000000
1960 11949 1 0.16500 119244.000000
1960 17078 1 0.16500 119244.000000
1961 11949 1 0.16500 119244.000000
1961 13991 1 0.16500 119244.000000
1962 11949 1 0.16500 119244.000000
1962 19993 1 0.16500 119244.000000
1963 11949 1 0.16500 119244.000000
1963 12942 1 0.16500 119244.000000
1964 11950 1 0.16500 119244.000000
1964 12122 1 0.16500 119244.000000
1965 11950 1 0.16500 119244.000000
1965 14591 1 0.16500 119244.000000
1966 11950 1 0.16500 119244.000000
1966 16502 1 0.16500 119244.000000
1967 11950 1 0.16500 119244.000000
1967 16147 1 0.16500 119244.000000
1968 11951 1 0.16500 119244.000000
1968 16624 1 0.16500 119244.000000
1969 11951 1 0.16500 119244.000000
1969 17708 1 0.16500 119244.000000
1970 11951 1 0.16500 119244.000000
1970 20578 1 0.16500 119244.000000
1971 11952 1 0.16500 119244.000000
1971 20590 1 0.16500 119244.000000
1972 11952 1 0.16500 119244.000000
1972 18970 1 0.16500 119244.000000
1973 11952 1 0.16500 119244.000000
1973 15841 1 0.16500 119244.000000
1974 13653 1 0.16500 119244.000000
1974 15841 1 0.16500 119244.000000
1975 14803 1 0.16500 119244.000000
1975 15988 1 0.16500 119244.000000
1976 11953 1 0.16500 119244.000000
1976 15016 1 0.16500 119244.000000
1977 11953 1 0.16500 119244.000000
1977 15988 1 0.16500 119244.000000
1978 11953 1 0.16500 119244.000000
1978 12896 1 0.16500 119244.000000
1979 11954 1 0.16500 119244.000000
1979 11985 1 0.16500 119244.000000
1980 11954 1 0.16500 119244.000000
1980 12351 1 0.16500 119244.000000
1981 11954 1 0.16500 119244.000000
1981 13465 1 0.16500 119244.000000
1982 11954 1 0.16500 119244.000000
1982 15442 1 0.16500 119244.000000
1983 11955 1 0.16500 119244.000000
1983 13088 1 0.16500 119244.000000
1984 11955 1 0.16500 119244.000000
1984 20815 1 0.16500 119244.000000
1985 11955 1 0.16500 119244.000000
1985 14107 1 0.16500 119244.000000
1986 11955 1 0.16500 119244.000000
1986 11979 1 0.16500 119244.000000
1987 11956 1 0.16500 119244.000000
1987 19066 1 0.16500 119244.000000
1988 11956 1 0.16500 119244.000000
1988 12023 1 0.16500 119244.000000
1989 16024 1 0.16500 119244.000000
1989 16051 1 0.16500 119244.000000
1990 11956 1 0.16500 119244.000000
1990 16051 1 0.16500 119244.000000
1991 11957 1 0.16500 119244.000000
1991 14049 1 0.16500 119244.000000
1992 11957 1 0.16500 119244.000000
1992 16312 1 0.16500 119244.000000
1993 11957 1 0.16500 119244.000000
1993 20983 1 0.16500 119244.000000
1994 11957 1 0.16500 119244.000000
1994 12202 1 0.16500 119244.000000
1995 11958 1 0.16500 119244.000000
1995 13874 1 0.16500 119244.000000
1996 11958 1 0.16500 119244.000000
1996 13268 1 0.16500 119244.000000
1997 11958 1 0.16500 119244.000000
1997 14570 1 0.16500 119244.000000
1998 11958 1 0.16500 119244.000000
1998 15619 1 0.16500 119244.000000
1999 11959 1 0.16500 119244.000000
1999 14859 1 0.16500 119244.000000
2000 11959 1 0.16500 119244.000000
2000 13187 1 0.16500 119244.000000
2001 11959 1 0.16500 119244.000000
2001 14516 1 0.16500 119244.000000
2002 11959 1 0.16500 119244.000000
2002 15165 1 0.16500 119244.000000
2003 11960 1 0.16500 119244.000000
2003 12235 1 0.16500 119244.000000
2004 11960 1 0.16500 119244.000000
2004 14033 1 0.16500 119244.000000
2005 11960 1 0.16500 119244.000000
2005 15717 1 0.16500 119244.000000
2006 11961 1 0.16500 119244.000000
2006 16152 1 0.16500 119244.000000
2007 11961 1 0.16500 119244.000000
2007 14941 1 0.16500 119244.000000
2008 11961 1 0.16500 119244.000000
2008 14755 1 0.16500 119244.000000
2009 14297 1 0.16500 119244.000000
2009 17960 1 0.16500 119244.000000
2010 11962 1 0.16500 119244.000000
2010 14946 1 0.16500 119244.000000
2011 11962 1 0.16500 119244.000000
2011 13073 1 0.16500 119244.000000
2012 11962 1 0.16500 119244.000000
2012 13158 1 0.16500 119244.000000
2013 11962 1 0.16500 119244.000000
2013 13366 1 0.16500 119244.000000
2014 11963 1 0.16500 119244.000000
2014 18982 1 0.16500 119244.000000
2015 11963 1 0.16500 119244.000000
2015 13492 1 0.16500 119244.000000
2016 11963 1 0.16500 119244.000000
2016 15796 1 0.16500 119244.000000
2017 11963 1 0.16500 119244.000000
2017 13278 1 0.16500 119244.000000
2018 11964 1 0.16500 119244.000000
2018 13762 1 0.16500 119244.000000
2019 11964 1 0.16500 119244.000000
2019 20464 1 0.16500 119244.000000
2020 11965 1 0.16500 119244.000000
2020 15208 1 0.16500 119244.000000
2021 11965 1 0.16500 119244.000000
2021 12782 1 0.16500 119244.000000
2022 11965 1 0.16500 119244.000000
2022 12315 1 0.16500 119244.000000
2023 11966 1 0.16500 119244.000000
2023 12912 1 0.16500 119244.000000
2024 11966 1 0.16500 119244.000000
2024 15157 1 0.16500 119244.000000
2025 11966 1 0.16500 119244.000000
2025 12955 1 0.16500 119244.000000
2026 11966 1 0.16500 119244.000000
2026 18044 1 0.16500 119244.000000
2027 11967 1 0.16500 119244.000000
2027 12267 1 0.16500 119244.000000
2028 11967 1 0.16500 119244.000000
2028 15973 1 0.16500 119244.000000
2029 11968 1 0.16500 119244.000000
2029 13491 1 0.16500 119244.000000
2030 11968 1 0.16500 119244.000000
2030 15235 1 0.16500 119244.000000
2031 11968 1 0.16500 119244.000000
2031 20512 1 0.16500 119244.000000
2032 11968 1 0.16500 119244.000000
2032 12559 1 0.16500 119244.000000
2033 11969 1 0.16500 119244.000000
2033 14028 1 0.16500 119244.000000
2034 11969 1 0.16500 119244.000000
2034 16489 1 0.16500 119244.000000
2035 11969 1 0.16500 119244.000000
2035 15503 1 0.16500 119244.000000
2036 11969 1 0.16500 119244.000000
2036 20827 1 0.16500 119244.000000
2037 11970 1 0.16500 119244.000000
2037 14983 1 0.16500 119244.000000
2038 11970 1 0.16500 119244.000000
2038 15126 1 0.16500 119244.000000
2039 11970 1 0.16500 119244.000000
2039 15037 1 0.16500 119244.000000
2040 11970 1 0.16500 119244.000000
2040 12217 1 0.16500 119244.000000
2041 11971 1 0.16500 119244.000000
2041 16530 1 0.16500 119244.000000
2042 11971 1 0.16500 119244.000000
2042 20665 1 0.16500 119244.000000
2043 11972 1 0.16500 119244.000000
2043 13526 1 0.16500 119244.000000
2044 11972 1 0.16500 119244.000000
2044 15310 1 0.16500 119244.000000
2045 11972 1 0.16500 119244.000000
2045 19750 1 0.16500 119244.000000
2046 11973 1 0.16500 119244.000000
2046 19984 1 0.16500 119244.000000
2047 11973 1 0.16500 119244.000000
2047 14903 1 0.16500 119244.000000
2048 11973 1 0.16500 119244.000000
2048 15351 1 0.16500 119244.000000
2049 11974 1 0.16500 119244.000000
2049 13209 1 0.16500 119244.000000
2050 11974 1 0.16500 119244.000000
2050 15471 1 0.16500 119244.000000
2051 11974 1 0.16500 119244.000000
2051 13589 1 0.16500 119244.000000
2052 11974 1 0.16500 119244.000000
2052 13280 1 0.16500 119244.000000
2053 11975 1 0.16500 119244.000000
2053 11981 1 0.16500 119244.000000
2054 11975 1 0.16500 119244.000000
2054 13236 1 0.16500 119244.000000
2055 11976 1 0.16500 119244.000000
2055 12280 1 0.16500 119244.000000
2056 11976 1 0.16500 119244.000000
2056 16088 1 0.16500 119244.000000
2057 11976 1 0.16500 119244.000000
2057 16230 1 0.16500 119244.000000
2058 11976 1 0.16500 119244.000000
2058 12194 1 0.16500 119244.000000
2059 11977 1 0.16500 119244.000000
2059 13400 1 0.16500 119244.000000
2060 11977 1 0.16500 119244.000000
2060 12282 1 0.16500 119244.000000
2061 11977 1 0.16500 119244.000000
2061 14292 1 0.16500 119244.000000
2062 11978 1 0.16500 119244.000000
2062 16018 1 0.16500 119244.000000
2063 11978 1 0.16500 119244.000000
2063 15188 1 0.16500 119244.000000
2064 11978 1 0.16500 119244.000000
2064 12461 1 0.16500 119244.000000
2065 11978 1 0.16500 119244.000000
2065 15737 1 0.16500 119244.000000
2066 11979 1 0.16500 119244.000000
2066 19690 1 0.16500 119244.000000
2067 11980 1 0.16500 119244.000000
2067 13652 1 0.16500 119244.000000
2068 11980 1 0.16500 119244.000000
2068 15423 1 0.16500 119244.000000
2069 11980 1 0.16500 119244.000000
2069 13081 1 0.16500 119244.000000
2070 11981 1 0.16500 119244.000000
2070 12042 1 0.16500 119244.000000
2071 11981 1 0.16500 119244.000000
2071 14531 1 0.16500 119244.000000
2072 11982 1 0.16500 119244.000000
2072 13992 1 0.16500 119244.000000
2073 11982 1 0.16500 119244.000000
2073 15074 1 0.16500 119244.000000
2074 11630 1 0.16500 119244.000000
2074 15914 1 0.16500 119244.000000
2075 11983 1 0.16500 119244.000000
2075 12541 1 0.16500 119244.000000
2076 11983 1 0.16500 119244.000000
2076 14492 1 0.16500 119244.000000
2077 11983 1 0.16500 119244.000000
2077 15275 1 0.16500 119244.000000
2078 11983 1 0.16500 119244.000000
2078 16594 1 0.16500 119244.000000
2079 11984 1 0.16500 119244.000000
2079 14236 1 0.16500 119244.000000
2080 11984 1 0.16500 119244.000000
2080 14946 1 0.16500 119244.000000
2081 11984 1 0.16500 119244.000000
2081 13016 1 0.16500 119244.000000
2082 11985 1 0.16500 119244.000000
2082 12449 1 0.16500 119244.000000
2083 11985 1 0.16500 119244.000000
2083 16276 1 0.16500 119244.000000
2084 11986 1 0.16500 119244.000000
2084 14542 1 0.16500 119244.000000
2085 11986 1 0.16500 119244.000000
2085 14890 1 0.16500 119244.000000
2086 11986 1 0.16500 119244.000000
2086 16180 1 0.16500 119244.000000
2087 11986 1 0.16500 119244.000000
2087 12958 1 0.16500 119244.000000
2088 11987 1 0.16500 119244.000000
2088 12450 1 0.16500 119244.000000
2089 11987 1 0.16500 119244.000000
2089 13768 1 0.16500 119244.000000
2090 11987 1 0.16500 119244.000000
2090 13193 1 0.16500 119244.000000
2091 11987 1 0.16500 119244.000000
2091 13983 1 0.16500 119244.000000
2092 11988 1 0.16500 119244.000000
2092 15911 1 0.16500 119244.000000
2093 11988 1 0.16500 119244.000000
2093 13783 1 0.16500 119244.000000
2094 11988 1 0.16500 119244.000000
2094 14915 1 0.16500 119244.000000
2095 11988 1 0.16500 119244.000000
2095 18466 1 0.16500 119244.000000
2096 11989 1 0.16500 119244.000000
2096 14559 1 0.16500 119244.000000
2097 11989 1 0.16500 119244.000000
2097 18490 1 0.16500 119244.000000
2098 11990 1 0.16500 119244.000000
2098 16503 1 0.16500 119244.000000
2099 16503 1 0.16500 119244.000000
2099 20494 1 0.16500 119244.000000
2100 11990 1 0.16500 119244.000000
2100 17694 1 0.16500 119244.000000
2101 11991 1 0.16500 119244.000000
2101 12016 1 0.16500 119244.000000
2102 11991 1 0.16500 119244.000000
2102 15937 1 0.16500 119244.000000
2103 11991 1 0.16500 119244.000000
2103 15936 1 0.16500 119244.000000
2104 11992 1 0.16500 119244.000000
2104 16389 1 0.16500 119244.000000
2105 11992 1 0.16500 119244.000000
2105 13546 1 0.16500 119244.000000
2106 11992 1 0.16500 119244.000000
2106 16187 1 0.16500 119244.000000
2107 11993 1 0.16500 119244.000000
2107 19942 1 0.16500 119244.000000
2108 11993 1 0.16500 119244.000000
2108 16520 1 0.16500 119244.000000
2109 11994 1 0.16500 119244.000000
2109 12886 1 0.16500 119244.000000
2110 11994 1 0.16500 119244.000000
2110 15928 1 0.16500 119244.000000
2111 11994 1 0.16500 119244.000000
2111 14692 1 0.16500 119244.000000
2112 11994 1 0.16500 119244.000000
2112 20470 1 0.16500 119244.000000
2113 11995 1 0.16500 119244.000000
2113 16101 1 0.16500 119244.000000
2114 11995 1 0.16500 119244.000000
2114 13082 1 0.16500 119244.000000
2115 11995 1 0.16500 119244.000000
2115 13588 1 0.16500 119244.000000
2116 11995 1 0.16500 119244.000000
2116 15337 1 0.16500 119244.000000
2117 12261 1 0.16500 119244.000000
2117 13925 1 0.16500 119244.000000
2118 11996 1 0.16500 119244.000000
2118 13925 1 0.16500 119244.000000
2119 11996 1 0.16500 119244.000000
2119 16087 1 0.16500 119244.000000
2120 11996 1 0.16500 119244.000000
2120 14142 1 0.16500 119244.000000
2121 11997 1 0.16500 119244.000000
2121 14076 1 0.16500 119244.000000
2122 11997 1 0.16500 119244.000000
2122 13544 1 0.16500 119244.000000
2123 11997 1 0.16500 119244.000000
2123 12853 1 0.16500 119244.000000
2124 11997 1 0.16500 119244.000000
2124 16554 1 0.16500 119244.000000
2125 11998 1 0.16500 119244.000000
2125 16597 1 0.16500 119244.000000
2126 11998 1 0.16500 119244.000000
2126 13272 1 0.16500 119244.000000
2127 11999 1 0.16500 119244.000000
2127 12417 1 0.16500 119244.000000
2128 11999 1 0.16500 119244.000000
2128 12715 1 0.16500 119244.000000
2129 11999 1 0.16500 119244.000000
2129 16216 1 0.16500 119244.000000
2130 11999 1 0.16500 119244.000000
2130 15595 1 0.16500 119244.000000
2131 12000 1 0.16500 119244.000000
2131 14959 1 0.16500 119244.000000
2132 12000 1 0.16500 119244.000000
2132 14430 1 0.16500 119244.000000
2133 12001 1 0.16500 119244.000000
2133 12065 1 0.16500 119244.000000
2134 12001 1 0.16500 119244.000000
2134 13434 1 0.16500 119244.000000
2135 12001 1 0.16500 119244.000000
2135 15344 1 0.16500 119244.000000
2136 12001 1 0.16500 119244.000000
2136 13774 1 0.16500 119244.000000
2137 12002 1 0.16500 119244.000000
2137 14247 1 0.16500 119244.000000
2138 12002 1 0.16500 119244.000000
2138 15700 1 0.16500 119244.000000
2139 12002 1 0.16500 119244.000000
2139 12251 1 0.16500 119244.000000
2140 12003 1 0.16500 119244.000000
2140 13954 1 0.16500 119244.000000
2141 12003 1 0.16500 119244.000000
2141 13183 1 0.16500 119244.000000
2142 12003 1 0.16500 119244.000000
2142 12870 1 0.16500 119244.000000
2143 12003 1 0.16500 119244.000000
2143 15240 1 0.16500 119244.000000
2144 12004 1 0.16500 119244.000000
2144 16380 1 0.16500 119244.000000
2145 12004 1 0.16500 119244.000000
2145 13178 1 0.16500 119244.000000
2146 12004 1 0.16500 119244.000000
2146 13635 1 0.16500 119244.000000
2147 12004 1 0.16500 119244.000000
2147 13206 1 0.16500 119244.000000
2148 12005 1 0.16500 119244.000000
2148 17246 1 0.16500 119244.000000
2149 12006 1 0.16500 119244.000000
2149 13561 1 0.16500 119244.000000
2150 12006 1 0.16500 119244.000000
2150 16475 1 0.16500 119244.000000
2151 12006 1 0.16500 119244.000000
2151 15087 1 0.16500 119244.000000
2152 12007 1 0.16500 119244.000000
2152 15901 1 0.16500 119244.000000
2153 12007 1 0.16500 119244.000000
2153 16166 1 0.16500 119244.000000
2154 12007 1 0.16500 119244.000000
2154 15241 1 0.16500 119244.000000
2155 12007 1 0.16500 119244.000000
2155 16400 1 0.16500 119244.000000
2156 12008 1 0.16500 119244.000000
2156 15971 1 0.16500 119244.000000
2157 12008 1 0.16500 119244.000000
2157 16390 1 0.16500 119244.000000
2158 12008 1 0.16500 119244.000000
2158 13913 1 0.16500 119244.000000
2159 12009 1 0.16500 119244.000000
2159 14521 1 0.16500 119244.000000
2160 12009 1 0.16500 119244.000000
2160 12694 1 0.16500 119244.000000
2161 12010 1 0.16500 119244.000000
2161 12871 1 0.16500 119244.000000
2162 12010 1 0.16500 119244.000000
2162 16572 1 0.16500 119244.000000
2163 14504 1 0.16500 119244.000000
2163 19630 1 0.16500 119244.000000
2164 12010 1 0.16500 119244.000000
2164 19630 1 0.16500 119244.000000
2165 12011 1 0.16500 119244.000000
2165 14387 1 0.16500 119244.000000
2166 12011 1 0.16500 119244.000000
2166 14037 1 0.16500 119244.000000
2167 12012 1 0.16500 119244.000000
2167 15449 1 0.16500 119244.000000
2168 12012 1 0.16500 119244.000000
2168 14549 1 0.16500 119244.000000
2169 12012 1 0.16500 119244.000000
2169 15500 1 0.16500 119244.000000
2170 12012 1 0.16500 119244.000000
2170 14685 1 0.16500 119244.000000
2171 12013 1 0.16500 119244.000000
2171 13460 1 0.16500 119244.000000
2172 12013 1 0.16500 119244.000000
2172 14774 1 0.16500 119244.000000
2173 12013 1 0.16500 119244.000000
2173 16532 1 0.16500 119244.000000
2174 12013 1 0.16500 119244.000000
2174 15534 1 0.16500 119244.000000
2175 12014 1 0.16500 119244.000000
2175 12881 1 0.16500 119244.000000
2176 16515 1 0.16500 119244.000000
2176 16994 1 0.16500 119244.000000
2177 12014 1 0.16500 119244.000000
2177 14014 1 0.16500 119244.000000
2178 12014 1 0.16500 119244.000000
2178 16515 1 0.16500 119244.000000
2179 12015 1 0.16500 119244.000000
2179 15418 1 0.16500 119244.000000
2180 12015 1 0.16500 119244.000000
2180 14508 1 0.16500 119244.000000
2181 12016 1 0.16500 119244.000000
2181 15868 1 0.16500 119244.000000
2182 12016 1 0.16500 119244.000000
2182 14146 1 0.16500 119244.000000
2183 12016 1 0.16500 119244.000000
2183 13977 1 0.16500 119244.000000
2184 12017 1 0.16500 119244.000000
2184 12679 1 0.16500 119244.000000
2185 12017 1 0.16500 119244.000000
2185 14755 1 0.16500 119244.000000
2186 12017 1 0.16500 119244.000000
2186 16637 1 0.16500 119244.000000
2187 12017 1 0.16500 119244.000000
2187 14306 1 0.16500 119244.000000
2188 12018 1 0.16500 119244.000000
2188 12904 1 0.16500 119244.000000
2189 12018 1 0.16500 119244.000000
2189 16239 1 0.16500 119244.000000
2190 12018 1 0.16500 119244.000000
2190 12474 1 0.16500 119244.000000
2191 12018 1 0.16500 119244.000000
2191 13962 1 0.16500 119244.000000
2192 12019 1 0.16500 119244.000000
2192 16629 1 0.16500 119244.000000
2193 12019 1 0.16500 119244.000000
2193 16423 1 0.16500 119244.000000
2194 15488 1 0.16500 119244.000000
2194 16444 1 0.16500 119244.000000
2195 12019 1 0.16500 119244.000000
2195 16444 1 0.16500 119244.000000
2196 12020 1 0.16500 119244.000000
2196 15894 1 0.16500 119244.000000
2197 12020 1 0.16500 119244.000000
2197 15687 1 0.16500 119244.000000
2198 12020 1 0.16500 119244.000000
2198 16130 1 0.16500 119244.000000
2199 12020 1 0.16500 119244.000000
2199 15245 1 0.16500 119244.000000
2200 12021 1 0.16500 119244.000000
2200 15373 1 0.16500 119244.000000
2201 12021 1 0.16500 119244.000000
2201 15041 1 0.16500 119244.000000
2202 12022 1 0.16500 119244.000000
2202 12849 1 0.16500 119244.000000
2203 12022 1 0.16500 119244.000000
2203 12826 1 0.16500 119244.000000
2204 12022 1 0.16500 119244.000000
2204 16166 1 0.16500 119244.000000
2205 12022 1 0.16500 119244.000000
2205 13927 1 0.16500 119244.000000
2206 12023 1 0.16500 119244.000000
2206 16030 1 0.16500 119244.000000
2207 12023 1 0.16500 119244.000000
2207 13165 1 0.16500 119244.000000
2208 12023 1 0.16500 119244.000000
2208 12030 1 0.16500 119244.000000
2209 12024 1 0.16500 119244.000000
2209 15239 1 0.16500 119244.000000
2210 12024 1 0.16500 119244.000000
2210 13050 1 0.16500 119244.000000
2211 12024 1 0.16500 119244.000000
2211 12995 1 0.16500 119244.000000
2212 12025 1 0.16500 119244.000000
2212 13197 1 0.16500 119244.000000
2213 12025 1 0.16500 119244.000000
2213 15410 1 0.16500 119244.000000
2214 12025 1 0.16500 119244.000000
2214 12699 1 0.16500 119244.000000
2215 12025 1 0.16500 119244.000000
2215 16622 1 0.16500 119244.000000
2216 12026 1 0.16500 119244.000000
2216 12446 1 0.16500 119244.000000
2217 12026 1 0.16500 119244.000000
2217 12674 1 0.16500 119244.000000
2218 12027 1 0.16500 119244.000000
2218 15406 1 0.16500 119244.000000
2219 12027 1 0.16500 119244.000000
2219 12720 1 0.16500 119244.000000
2220 12027 1 0.16500 119244.000000
2220 15635 1 0.16500 119244.000000
2221 12027 1 0.16500 119244.000000
2221 15869 1 0.16500 119244.000000
2222 12028 1 0.16500 119244.000000
2222 13291 1 0.16500 119244.000000
2223 12028 1 0.16500 119244.000000
2223 15315 1 0.16500 119244.000000
2224 12028 1 0.16500 119244.000000
2224 13876 1 0.16500 119244.000000
2225 12028 1 0.16500 119244.000000
2225 14642 1 0.16500 119244.000000
2226 12029 1 0.16500 119244.000000
2226 13506 1 0.16500 119244.000000
2227 12029 1 0.16500 119244.000000
2227 15778 1 0.16500 119244.000000
2228 12029 1 0.16500 119244.000000
2228 15563 1 0.16500 119244.000000
2229 12029 1 0.16500 119244.000000
2229 13497 1 0.16500 119244.000000
2230 12030 1 0.16500 119244.000000
2230 15157 1 0.16500 119244.000000
2231 12030 1 0.16500 119244.000000
2231 15972 1 0.16500 119244.000000
2232 12030 1 0.16500 119244.000000
2232 13018 1 0.16500 119244.000000
2233 12031 1 0.16500 119244.000000
2233 12568 1 0.16500 119244.000000
2234 12031 1 0.16500 119244.000000
2234 12975 1 0.16500 119244.000000
2235 12032 1 0.16500 119244.000000
2235 13987 1 0.16500 119244.000000
2236 12032 1 0.16500 119244.000000
2236 13003 1 0.16500 119244.000000
2237 12032 1 0.16500 119244.000000
2237 14914 1 0.16500 119244.000000
2238 12032 1 0.16500 119244.000000
2238 13495 1 0.16500 119244.000000
2239 12033 1 0.16500 119244.000000
2239 15101 1 0.16500 119244.000000
2240 12033 1 0.16500 119244.000000
2240 19996 1 0.16500 119244.000000
2241 12033 1 0.16500 119244.000000
2241 12597 1 0.16500 119244.000000
2242 12034 1 0.16500 119244.000000
2242 16149 1 0.16500 119244.000000
2243 12034 1 0.16500 119244.000000
2243 13850 1 0.16500 119244.000000
2244 12034 1 0.16500 119244.000000
2244 13015 1 0.16500 119244.000000
2245 12034 1 0.16500 119244.000000
2245 15948 1 0.16500 119244.000000
2246 12035 1 0.16500 119244.000000
2246 20278 1 0.16500 119244.000000
2247 12035 1 0.16500 119244.000000
2247 16609 1 0.16500 119244.000000
2248 12035 1 0.16500 119244.000000
2248 13209 1 0.16500 119244.000000
2249 12035 1 0.16500 119244.000000
2249 15073 1 0.16500 119244.000000
2250 12036 1 0.16500 119244.000000
2250 14666 1 0.16500 119244.000000
2251 12036 1 0.16500 119244.000000
2251 13083 1 0.16500 119244.000000
2252 12036 1 0.16500 119244.000000
2252 15653 1 0.16500 119244.000000
2253 12037 1 0.16500 119244.000000
2253 20449 1 0.16500 119244.000000
2254 12037 1 0.16500 119244.000000
2254 13662 1 0.16500 119244.000000
2255 12037 1 0.16500 119244.000000
2255 13735 1 0.16500 119244.000000
2256 12037 1 0.16500 119244.000000
2256 14068 1 0.16500 119244.000000
2257 12038 1 0.16500 119244.000000
2257 13024 1 0.16500 119244.000000
2258 12038 1 0.16500 119244.000000
2258 14706 1 0.16500 119244.000000
2259 12038 1 0.16500 119244.000000
2259 16129 1 0.16500 119244.000000
2260 12038 1 0.16500 119244.000000
2260 13554 1 0.16500 119244.000000
2261 12039 1 0.16500 119244.000000
2261 14856 1 0.16500 119244.000000
2262 12039 1 0.16500 119244.000000
2262 16209 1 0.16500 119244.000000
2263 12039 1 0.16500 119244.000000
2263 13143 1 0.16500 119244.000000
2264 12039 1 0.16500 119244.000000
2264 15105 1 0.16500 119244.000000
2265 12040 1 0.16500 119244.000000
2265 14742 1 0.16500 119244.000000
2266 12040 1 0.16500 119244.000000
2266 13339 1 0.16500 119244.000000
2267 12040 1 0.16500 119244.000000
2267 13847 1 0.16500 119244.000000
2268 12040 1 0.16500 119244.000000
2268 12480 1 0.16500 119244.000000
2269 12242 1 0.16500 119244.000000
2269 16565 1 0.16500 119244.000000
2270 12041 1 0.16500 119244.000000
2270 16565 1 0.16500 119244.000000
2271 12041 1 0.16500 119244.000000
2271 16428 1 0.16500 119244.000000
2272 12041 1 0.16500 119244.000000
2272 12288 1 0.16500 119244.000000
2273 12042 1 0.16500 119244.000000
2273 12753 1 0.16500 119244.000000
2274 12042 1 0.16500 119244.000000
2274 15013 1 0.16500 119244.000000
2275 12042 1 0.16500 119244.000000
2275 15270 1 0.16500 119244.000000
2276 12043 1 0.16500 119244.000000
2276 14457 1 0.16500 119244.000000
2277 12043 1 0.16500 119244.000000
2277 13035 1 0.16500 119244.000000
2278 12043 1 0.16500 119244.000000
2278 13498 1 0.16500 119244.000000
2279 12043 1 0.16500 119244.000000
2279 16358 1 0.16500 119244.000000
2280 12044 1 0.16500 119244.000000
2280 15402 1 0.16500 119244.000000
2281 12044 1 0.16500 119244.000000
2281 13912 1 0.16500 119244.000000
2282 12044 1 0.16500 119244.000000
2282 15549 1 0.16500 119244.000000
2283 12044 1 0.16500 119244.000000
2283 15701 1 0.16500 119244.000000
2284 12045 1 0.16500 119244.000000
2284 13622 1 0.16500 119244.000000
2285 12045 1 0.16500 119244.000000
2285 13637 1 0.16500 119244.000000
2286 12045 1 0.16500 119244.000000
2286 12368 1 0.16500 119244.000000
2287 12045 1 0.16500 119244.000000
2287 15012 1 0.16500 119244.000000
2288 12046 1 0.16500 119244.000000
2288 14448 1 0.16500 119244.000000
2289 12046 1 0.16500 119244.000000
2289 12709 1 0.16500 119244.000000
2290 12046 1 0.16500 119244.000000
2290 14948 1 0.16500 119244.000000
2291 12047 1 0.16500 119244.000000
2291 16556 1 0.16500 119244.000000
2292 12047 1 0.16500 119244.000000
2292 14646 1 0.16500 119244.000000
2293 12047 1 0.16500 119244.000000
2293 14753 1 0.16500 119244.000000
2294 12047 1 0.16500 119244.000000
2294 12300 1 0.16500 119244.000000
2295 12048 1 0.16500 119244.000000
2295 15474 1 0.16500 119244.000000
2296 12049 1 0.16500 119244.000000
2296 12836 1 0.16500 119244.000000
2297 12049 1 0.16500 119244.000000
2297 18898 1 0.16500 119244.000000
2298 12049 1 0.16500 119244.000000
2298 16882 1 0.16500 119244.000000
2299 12050 1 0.16500 119244.000000
2299 13905 1 0.16500 119244.000000
2300 12051 1 0.16500 119244.000000
2300 16364 1 0.16500 119244.000000
2301 12051 1 0.16500 119244.000000
2301 15069 1 0.16500 119244.000000
2302 12051 1 0.16500 119244.000000
2302 12281 1 0.16500 119244.000000
2303 12051 1 0.16500 119244.000000
2303 13989 1 0.16500 119244.000000
2304 12052 1 0.16500 119244.000000
2304 13880 1 0.16500 119244.000000
2305 12053 1 0.16500 119244.000000
2305 16268 1 0.16500 119244.000000
2306 12053 1 0.16500 119244.000000
2306 14206 1 0.16500 119244.000000
2307 12053 1 0.16500 119244.000000
2307 13243 1 0.16500 119244.000000
2308 12053 1 0.16500 119244.000000
2308 15894 1 0.16500 119244.000000
2309 12054 1 0.16500 119244.000000
2309 12593 1 0.16500 119244.000000
2310 12054 1 0.16500 119244.000000
2310 15636 1 0.16500 119244.000000
2311 12054 1 0.16500 119244.000000
2311 15270 1 0.16500 119244.000000
2312 12054 1 0.16500 119244.000000
2312 15727 1 0.16500 119244.000000
2313 12055 1 0.16500 119244.000000
2313 16411 1 0.16500 119244.000000
2314 12055 1 0.16500 119244.000000
2314 13507 1 0.16500 119244.000000
2315 12055 1 0.16500 119244.000000
2315 13858 1 0.16500 119244.000000
2316 12055 1 0.16500 119244.000000
2316 15320 1 0.16500 119244.000000
2317 12056 1 0.16500 119244.000000
2317 16289 1 0.16500 119244.000000
2318 12056 1 0.16500 119244.000000
2318 16315 1 0.16500 119244.000000
2319 12056 1 0.16500 119244.000000
2319 13533 1 0.16500 119244.000000
2320 12056 1 0.16500 119244.000000
2320 12806 1 0.16500 119244.000000
2321 12057 1 0.16500 119244.000000
2321 14296 1 0.16500 119244.000000
2322 12057 1 0.16500 119244.000000
2322 14885 1 0.16500 119244.000000
2323 12057 1 0.16500 119244.000000
2323 15417 1 0.16500 119244.000000
2324 12058 1 0.16500 119244.000000
2324 18838 1 0.16500 119244.000000
2325 12058 1 0.16500 119244.000000
2325 15023 1 0.16500 119244.000000
2326 12059 1 0.16500 119244.000000
2326 13584 1 0.16500 119244.000000
2327 12059 1 0.16500 119244.000000
2327 13250 1 0.16500 119244.000000
2328 12059 1 0.16500 119244.000000
2328 12116 1 0.16500 119244.000000
2329 12059 1 0.16500 119244.000000
2329 14047 1 0.16500 119244.000000
2330 12060 1 0.16500 119244.000000
2330 14705 1 0.16500 119244.000000
2331 12060 1 0.16500 119244.000000
2331 16550 1 0.16500 119244.000000
2332 13903 1 0.16500 119244.000000
2332 14705 1 0.16500 119244.000000
2333 12061 1 0.16500 119244.000000
2333 12502 1 0.16500 119244.000000
2334 12061 1 0.16500 119244.000000
2334 12335 1 0.16500 119244.000000
2335 12061 1 0.16500 119244.000000
2335 14458 1 0.16500 119244.000000
2336 12061 1 0.16500 119244.000000
2336 14877 1 0.16500 119244.000000
2337 15059 1 0.16500 119244.000000
2337 15484 1 0.16500 119244.000000
2338 11853 1 0.16500 119244.000000
2338 12062 1 0.16500 119244.000000
2339 15484 1 0.16500 119244.000000
2339 16276 1 0.16500 119244.000000
2340 12062 1 0.16500 119244.000000
2340 15484 1 0.16500 119244.000000
2341 12063 1 0.16500 119244.000000
2341 15243 1 0.16500 119244.000000
2342 12568 1 0.16500 119244.000000
2342 14707 1 0.16500 119244.000000
2343 12063 1 0.16500 119244.000000
2343 14707 1 0.16500 119244.000000
2344 12064 1 0.16500 119244.000000
2344 12698 1 0.16500 119244.000000
2345 12064 1 0.16500 119244.000000
2345 13368 1 0.16500 119244.000000
2346 12064 1 0.16500 119244.000000
2346 16225 1 0.16500 119244.000000
2347 12064 1 0.16500 119244.000000
2347 15244 1 0.16500 119244.000000
2348 12065 1 0.16500 119244.000000
2348 13565 1 0.16500 119244.000000
2349 12065 1 0.16500 119244.000000
2349 16064 1 0.16500 119244.000000
2350 12066 1 0.16500 119244.000000
2350 13065 1 0.16500 119244.000000
2351 12066 1 0.16500 119244.000000
2351 14445 1 0.16500 119244.000000
2352 13065 1 0.16500 119244.000000
2352 15569 1 0.16500 119244.000000
2353 12066 1 0.16500 119244.000000
2353 15466 1 0.16500 119244.000000
2354 12067 1 0.16500 119244.000000
2354 16138 1 0.16500 119244.000000
2355 12067 1 0.16500 119244.000000
2355 16305 1 0.16500 119244.000000
2356 12067 1 0.16500 119244.000000
2356 12997 1 0.16500 119244.000000
2357 12067 1 0.16500 119244.000000
2357 13796 1 0.16500 119244.000000
2358 12068 1 0.16500 119244.000000
2358 13203 1 0.16500 119244.000000
2359 12068 1 0.16500 119244.000000
2359 14215 1 0.16500 119244.000000
2360 12068 1 0.16500 119244.000000
2360 14377 1 0.16500 119244.000000
2361 12068 1 0.16500 119244.000000
2361 14821 1 0.16500 119244.000000
2362 12069 1 0.16500 119244.000000
2362 13507 1 0.16500 119244.000000
2363 12069 1 0.16500 119244.000000
2363 14863 1 0.16500 119244.000000
2364 12069 1 0.16500 119244.000000
2364 14919 1 0.16500 119244.000000
2365 12069 1 0.16500 119244.000000
2365 12388 1 0.16500 119244.000000
2366 12070 1 0.16500 119244.000000
2366 13669 1 0.16500 119244.000000
2367 12070 1 0.16500 119244.000000
2367 15387 1 0.16500 119244.000000
2368 12070 1 0.16500 119244.000000
2368 13769 1 0.16500 119244.000000
2369 12070 1 0.16500 119244.000000
2369 13507 1 0.16500 119244.000000
2370 12071 1 0.16500 119244.000000
2370 14983 1 0.16500 119244.000000
2371 12071 1 0.16500 119244.000000
2371 14591 1 0.16500 119244.000000
2372 12071 1 0.16500 119244.000000
2372 13380 1 0.16500 119244.000000
2373 12071 1 0.16500 119244.000000
2373 15940 1 0.16500 119244.000000
2374 12072 1 0.16500 119244.000000
2374 14949 1 0.16500 119244.000000
2375 12072 1 0.16500 119244.000000
2375 12671 1 0.16500 119244.000000
2376 12072 1 0.16500 119244.000000
2376 14952 1 0.16500 119244.000000
2377 12072 1 0.16500 119244.000000
2377 13876 1 0.16500 119244.000000
2378 12073 1 0.16500 119244.000000
2378 12077 1 0.16500 119244.000000
2379 12073 1 0.16500 119244.000000
2379 14401 1 0.16500 119244.000000
2380 12073 1 0.16500 119244.000000
2380 13364 1 0.16500 119244.000000
2381 12073 1 0.16500 119244.000000
2381 13416 1 0.16500 119244.000000
2382 12074 1 0.16500 119244.000000
2382 14833 1 0.16500 119244.000000
2383 12074 1 0.16500 119244.000000
2383 14452 1 0.16500 119244.000000
2384 12074 1 0.16500 119244.000000
2384 16388 1 0.16500 119244.000000
2385 12074 1 0.16500 119244.000000
2385 13148 1 0.16500 119244.000000
2386 12075 1 0.16500 119244.000000
2386 15039 1 0.16500 119244.000000
2387 12075 1 0.16500 119244.000000
2387 14245 1 0.16500 119244.000000
2388 12075 1 0.16500 119244.000000
2388 12979 1 0.16500 119244.000000
2389 12075 1 0.16500 119244.000000
2389 16671 1 0.16500 119244.000000
2390 12076 1 0.16500 119244.000000
2390 15782 1 0.16500 119244.000000
2391 12076 1 0.16500 119244.000000
2391 14291 1 0.16500 119244.000000
2392 12076 1 0.16500 119244.000000
2392 15258 1 0.16500 119244.000000
2393 12076 1 0.16500 119244.000000
2393 14983 1 0.16500 119244.000000
2394 12077 1 0.16500 119244.000000
2394 13177 1 0.16500 119244.000000
2395 12077 1 0.16500 119244.000000
2395 16536 1 0.16500 119244.000000
2396 12077 1 0.16500 119244.000000
2396 12302 1 0.16500 119244.000000
2397 15983 1 0.16500 119244.000000
2397 16536 1 0.16500 119244.000000
2398 12078 1 0.16500 119244.000000
2398 16053 1 0.16500 119244.000000
2399 12078 1 0.16500 119244.000000
2399 15319 1 0.16500 119244.000000
2400 12078 1 0.16500 119244.000000
2400 12125 1 0.16500 119244.000000
2401 14171 1 0.16500 119244.000000
2401 16053 1 0.16500 119244.000000
2402 12079 1 0.16500 119244.000000
2402 16143 1 0.16500 119244.000000
2403 12079 1 0.16500 119244.000000
2403 14941 1 0.16500 119244.000000
2404 12079 1 0.16500 119244.000000
2404 12304 1 0.16500 119244.000000
2405 12079 1 0.16500 119244.000000
2405 12843 1 0.16500 119244.000000
2406 12080 1 0.16500 119244.000000
2406 16518 1 0.16500 119244.000000
2407 12080 1 0.16500 119244.000000
2407 15899 1 0.16500 119244.000000
2408 12080 1 0.16500 119244.000000
2408 13417 1 0.16500 119244.000000
2409 12080 1 0.16500 119244.000000
2409 16119 1 0.16500 119244.000000
2410 12081 1 0.16500 119244.000000
2410 13573 1 0.16500 119244.000000
2411 12081 1 0.16500 119244.000000
2411 15936 1 0.16500 119244.000000
2412 12081 1 0.16500 119244.000000
2412 14029 1 0.16500 119244.000000
2413 12082 1 0.16500 119244.000000
2413 16618 1 0.16500 119244.000000
2414 12082 1 0.16500 119244.000000
2414 15388 1 0.16500 119244.000000
2415 12082 1 0.16500 119244.000000
2415 15246 1 0.16500 119244.000000
2416 12082 1 0.16500 119244.000000
2416 14974 1 0.16500 119244.000000
2417 12083 1 0.16500 119244.000000
2417 13076 1 0.16500 119244.000000
2418 12083 1 0.16500 119244.000000
2418 15559 1 0.16500 119244.000000
2419 12083 1 0.16500 119244.000000
2419 20122 1 0.16500 119244.000000
2420 12083 1 0.16500 119244.000000
2420 19546 1 0.16500 119244.000000
2421 12084 1 0.16500 119244.000000
2421 17260 1 0.16500 119244.000000
2422 12084 1 0.16500 119244.000000
2422 14080 1 0.16500 119244.000000
2423 12084 1 0.16500 119244.000000
2423 14237 1 0.16500 119244.000000
2424 12084 1 0.16500 119244.000000
2424 15665 1 0.16500 119244.000000
2425 12085 1 0.16500 119244.000000
2425 14699 1 0.16500 119244.000000
2426 12085 1 0.16500 119244.000000
2426 12815 1 0.16500 119244.000000
2427 12085 1 0.16500 119244.000000
2427 15734 1 0.16500 119244.000000
2428 12085 1 0.16500 119244.000000
2428 12166 1 0.16500 119244.000000
2429 11772 1 0.16500 119244.000000
2429 12086 1 0.16500 119244.000000
2430 12086 1 0.16500 119244.000000
2430 16168 1 0.16500 119244.000000
2431 12087 1 0.16500 119244.000000
2431 19378 1 0.16500 119244.000000
2432 11509 1 0.16500 119244.000000
2432 13683 1 0.16500 119244.000000
2433 12087 1 0.16500 119244.000000
2433 13683 1 0.16500 119244.000000
2434 12088 1 0.16500 119244.000000
2434 14662 1 0.16500 119244.000000
2435 12088 1 0.16500 119244.000000
2435 16390 1 0.16500 119244.000000
2436 12088 1 0.16500 119244.000000
2436 12438 1 0.16500 119244.000000
2437 12088 1 0.16500 119244.000000
2437 16323 1 0.16500 119244.000000
2438 12089 1 0.16500 119244.000000
2438 14434 1 0.16500 119244.000000
2439 12089 1 0.16500 119244.000000
2439 15333 1 0.16500 119244.000000
2440 12089 1 0.16500 119244.000000
2440 15009 1 0.16500 119244.000000
2441 12089 1 0.16500 119244.000000
2441 14015 1 0.16500 119244.000000
2442 11464 1 0.16500 119244.000000
2442 12090 1 0.16500 119244.000000
2443 12090 1 0.16500 119244.000000
2443 19078 1 0.16500 119244.000000
2444 12090 1 0.16500 119244.000000
2444 13358 1 0.16500 119244.000000
2445 12090 1 0.16500 119244.000000
2445 14173 1 0.16500 119244.000000
2446 12091 1 0.16500 119244.000000
2446 12421 1 0.16500 119244.000000
2447 12091 1 0.16500 119244.000000
2447 12803 1 0.16500 119244.000000
2448 12091 1 0.16500 119244.000000
2448 14627 1 0.16500 119244.000000
2449 12091 1 0.16500 119244.000000
2449 13965 1 0.16500 119244.000000
2450 12092 1 0.16500 119244.000000
2450 14784 1 0.16500 119244.000000
2451 12092 1 0.16500 119244.000000
2451 19510 1 0.16500 119244.000000
2452 12092 1 0.16500 119244.000000
2452 20809 1 0.16500 119244.000000
2453 12093 1 0.16500 119244.000000
2453 12589 1 0.16500 119244.000000
2454 12093 1 0.16500 119244.000000
2454 12721 1 0.16500 119244.000000
2455 12093 1 0.16500 119244.000000
2455 20389 1 0.16500 119244.000000
2456 12094 1 0.16500 119244.000000
2456 16258 1 0.16500 119244.000000
2457 12094 1 0.16500 119244.000000
2457 16322 1 0.16500 119244.000000
2458 12095 1 0.16500 119244.000000
2458 14819 1 0.16500 119244.000000
2459 12095 1 0.16500 119244.000000
2459 15377 1 0.16500 119244.000000
2460 12095 1 0.16500 119244.000000
2460 12386 1 0.16500 119244.000000
2461 12095 1 0.16500 119244.000000
2461 16379 1 0.16500 119244.000000
2462 12096 1 0.16500 119244.000000
2462 16378 1 0.16500 119244.000000
2463 12096 1 0.16500 119244.000000
2463 12600 1 0.16500 119244.000000
2464 12097 1 0.16500 119244.000000
2464 13653 1 0.16500 119244.000000
2465 12097 1 0.16500 119244.000000
2465 13975 1 0.16500 119244.000000
2466 12097 1 0.16500 119244.000000
2466 16534 1 0.16500 119244.000000
2467 12097 1 0.16500 119244.000000
2467 13749 1 0.16500 119244.000000
2468 12098 1 0.16500 119244.000000
2468 12115 1 0.16500 119244.000000
2469 12098 1 0.16500 119244.000000
2469 20410 1 0.16500 119244.000000
2470 12098 1 0.16500 119244.000000
2470 13518 1 0.16500 119244.000000
2471 12098 1 0.16500 119244.000000
2471 15073 1 0.16500 119244.000000
2472 12099 1 0.16500 119244.000000
2472 15353 1 0.16500 119244.000000
2473 12099 1 0.16500 119244.000000
2473 14571 1 0.16500 119244.000000
2474 12099 1 0.16500 119244.000000
2474 15275 1 0.16500 119244.000000
2475 12099 1 0.16500 119244.000000
2475 13023 1 0.16500 119244.000000
2476 12100 1 0.16500 119244.000000
2476 15741 1 0.16500 119244.000000
2477 12100 1 0.16500 119244.000000
2477 16544 1 0.16500 119244.000000
2478 12100 1 0.16500 119244.000000
2478 15526 1 0.16500 119244.000000
2479 12489 1 0.16500 119244.000000
2479 16544 1 0.16500 119244.000000
2480 12101 1 0.16500 119244.000000
2480 13101 1 0.16500 119244.000000
2481 12101 1 0.16500 119244.000000
2481 16339 1 0.16500 119244.000000
2482 12101 1 0.16500 119244.000000
2482 12774 1 0.16500 119244.000000
2483 12102 1 0.16500 119244.000000
2483 12680 1 0.16500 119244.000000
2484 12102 1 0.16500 119244.000000
2484 14004 1 0.16500 119244.000000
2485 12102 1 0.16500 119244.000000
2485 14732 1 0.16500 119244.000000
2486 12103 1 0.16500 119244.000000
2486 15648 1 0.16500 119244.000000
2487 12103 1 0.16500 119244.000000
2487 12683 1 0.16500 119244.000000
2488 12103 1 0.16500 119244.000000
2488 12254 1 0.16500 119244.000000
2489 12103 1 0.16500 119244.000000
2489 14495 1 0.16500 119244.000000
2490 19939 1 0.16500 119244.000000
2490 20680 1 0.16500 119244.000000
2491 15155 1 0.16500 119244.000000
2491 15869 1 0.16500 119244.000000
2492 15155 1 0.16500 119244.000000
2492 19939 1 0.16500 119244.000000
2493 15812 1 0.16500 119244.000000
2493 18166 1 0.16500 119244.000000
2494 18166 1 0.16500 119244.000000
2494 20206 1 0.16500 119244.000000
2495 13384 1 0.16500 119244.000000
2495 18166 1 0.16500 119244.000000
2496 12104 1 0.16500 119244.000000
2496 12144 1 0.16500 119244.000000
2497 12104 1 0.16500 119244.000000
2497 12757 1 0.16500 119244.000000
2498 12104 1 0.16500 119244.000000
2498 17050 1 0.16500 119244.000000
2499 12104 1 0.16500 119244.000000
2499 20440 1 0.16500 119244.000000
2500 12105 1 0.16500 119244.000000
2500 16301 1 0.16500 119244.000000
2501 12105 1 0.16500 119244.000000
2501 13741 1 0.16500 119244.000000
2502 12106 1 0.16500 119244.000000
2502 15014 1 0.16500 119244.000000
2503 12106 1 0.16500 119244.000000
2503 14553 1 0.16500 119244.000000
2504 12106 1 0.16500 119244.000000
2504 12259 1 0.16500 119244.000000
2505 12107 1 0.16500 119244.000000
2505 14500 1 0.16500 119244.000000
2506 12107 1 0.16500 119244.000000
2506 12231 1 0.16500 119244.000000
2507 14500 1 0.16500 119244.000000
2507 15880 1 0.16500 119244.000000
2508 12108 1 0.16500 119244.000000
2508 14655 1 0.16500 119244.000000
2509 12108 1 0.16500 119244.000000
2509 15733 1 0.16500 119244.000000
2510 12108 1 0.16500 119244.000000
2510 13512 1 0.16500 119244.000000
2511 12108 1 0.16500 119244.000000
2511 16461 1 0.16500 119244.000000
2512 12109 1 0.16500 119244.000000
2512 14196 1 0.16500 119244.000000
2513 12109 1 0.16500 119244.000000
2513 12378 1 0.16500 119244.000000
2514 12109 1 0.16500 119244.000000
2514 12962 1 0.16500 119244.000000
2515 12109 1 0.16500 119244.000000
2515 13356 1 0.16500 119244.000000
2516 12110 1 0.16500 119244.000000
2516 15819 1 0.16500 119244.000000
2517 12110 1 0.16500 119244.000000
2517 18874 1 0.16500 119244.000000
2518 12110 1 0.16500 119244.000000
2518 16139 1 0.16500 119244.000000
2519 12110 1 0.16500 119244.000000
2519 16042 1 0.16500 119244.000000
2520 12111 1 0.16500 119244.000000
2520 16463 1 0.16500 119244.000000
2521 12111 1 0.16500 119244.000000
2521 14109 1 0.16500 119244.000000
2522 12111 1 0.16500 119244.000000
2522 16295 1 0.16500 119244.000000
2523 12111 1 0.16500 119244.000000
2523 15956 1 0.16500 119244.000000
2524 12112 1 0.16500 119244.000000
2524 12471 1 0.16500 119244.000000
2525 12112 1 0.16500 119244.000000
2525 14487 1 0.16500 119244.000000
2526 12112 1 0.16500 119244.000000
2526 12529 1 0.16500 119244.000000
2527 12112 1 0.16500 119244.000000
2527 12986 1 0.16500 119244.000000
2528 12113 1 0.16500 119244.000000
2528 15281 1 0.16500 119244.000000
2529 12113 1 0.16500 119244.000000
2529 12661 1 0.16500 119244.000000
2530 12113 1 0.16500 119244.000000
2530 14203 1 0.16500 119244.000000
2531 12113 1 0.16500 119244.000000
2531 12548 1 0.16500 119244.000000
2532 12114 1 0.16500 119244.000000
2532 15240 1 0.16500 119244.000000
2533 12114 1 0.16500 119244.000000
2533 14620 1 0.16500 119244.000000
2534 12114 1 0.16500 119244.000000
2534 14370 1 0.16500 119244.000000
2535 12114 1 0.16500 119244.000000
2535 15228 1 0.16500 119244.000000
2536 12115 1 0.16500 119244.000000
2536 16124 1 0.16500 119244.000000
2537 12115 1 0.16500 119244.000000
2537 15779 1 0.16500 119244.000000
2538 12115 1 0.16500 119244.000000
2538 16501 1 0.16500 119244.000000
2539 12116 1 0.16500 119244.000000
2539 16212 1 0.16500 119244.000000
2540 12116 1 0.16500 119244.000000
2540 19981 1 0.16500 119244.000000
2541 12116 1 0.16500 119244.000000
2541 13727 1 0.16500 119244.000000
2542 12117 1 0.16500 119244.000000
2542 12731 1 0.16500 119244.000000
2543 12117 1 0.16500 119244.000000
2543 15413 1 0.16500 119244.000000
2544 12117 1 0.16500 119244.000000
2544 15489 1 0.16500 119244.000000
2545 12118 1 0.16500 119244.000000
2545 14516 1 0.16500 119244.000000
2546 12118 1 0.16500 119244.000000
2546 15965 1 0.16500 119244.000000
2547 12118 1 0.16500 119244.000000
2547 13714 1 0.16500 119244.000000
2548 12118 1 0.16500 119244.000000
2548 15838 1 0.16500 119244.000000
2549 12119 1 0.16500 119244.000000
2549 14921 1 0.16500 119244.000000
2550 12119 1 0.16500 119244.000000
2550 12213 1 0.16500 119244.000000
2551 12119 1 0.16500 119244.000000
2551 13553 1 0.16500 119244.000000
2552 12119 1 0.16500 119244.000000
2552 15161 1 0.16500 119244.000000
2553 12120 1 0.16500 119244.000000
2553 13432 1 0.16500 119244.000000
2554 12120 1 0.16500 119244.000000
2554 13482 1 0.16500 119244.000000
2555 12120 1 0.16500 119244.000000
2555 15094 1 0.16500 119244.000000
2556 12120 1 0.16500 119244.000000
2556 16605 1 0.16500 119244.000000
2557 16449 1 0.16500 119244.000000
2557 19834 1 0.16500 119244.000000
2558 12121 1 0.16500 119244.000000
2558 15751 1 0.16500 119244.000000
2559 12121 1 0.16500 119244.000000
2559 12219 1 0.16500 119244.000000
2560 12121 1 0.16500 119244.000000
2560 19834 1 0.16500 119244.000000
2561 12122 1 0.16500 119244.000000
2561 12742 1 0.16500 119244.000000
2562 12122 1 0.16500 119244.000000
2562 13717 1 0.16500 119244.000000
2563 12122 1 0.16500 119244.000000
2563 13380 1 0.16500 119244.000000
2564 12123 1 0.16500 119244.000000
2564 16275 1 0.16500 119244.000000
2565 12123 1 0.16500 119244.000000
2565 12767 1 0.16500 119244.000000
2566 12123 1 0.16500 119244.000000
2566 15019 1 0.16500 119244.000000
2567 12124 1 0.16500 119244.000000
2567 13650 1 0.16500 119244.000000
2568 12124 1 0.16500 119244.000000
2568 15516 1 0.16500 119244.000000
2569 12124 1 0.16500 119244.000000
2569 15753 1 0.16500 119244.000000
2570 12124 1 0.16500 119244.000000
2570 14690 1 0.16500 119244.000000
2571 12125 1 0.16500 119244.000000
2571 15735 1 0.16500 119244.000000
2572 12125 1 0.16500 119244.000000
2572 12470 1 0.16500 119244.000000
2573 12470 1 0.16500 119244.000000
2573 15181 1 0.16500 119244.000000
2574 11621 1 0.16500 119244.000000
2574 12126 1 0.16500 119244.000000
2575 12126 1 0.16500 119244.000000
2575 13469 1 0.16500 119244.000000
2576 12126 1 0.16500 119244.000000
2576 13889 1 0.16500 119244.000000
2577 12126 1 0.16500 119244.000000
2577 13027 1 0.16500 119244.000000
2578 12127 1 0.16500 119244.000000
2578 15298 1 0.16500 119244.000000
2579 12127 1 0.16500 119244.000000
2579 14395 1 0.16500 119244.000000
2580 12127 1 0.16500 119244.000000
2580 13744 1 0.16500 119244.000000
2581 12128 1 0.16500 119244.000000
2581 13971 1 0.16500 119244.000000
2582 12128 1 0.16500 119244.000000
2582 15171 1 0.16500 119244.000000
2583 12164 1 0.16500 119244.000000
2583 15371 1 0.16500 119244.000000
2584 12129 1 0.16500 119244.000000
2584 12436 1 0.16500 119244.000000
2585 12129 1 0.16500 119244.000000
2585 15371 1 0.16500 119244.000000
2586 12129 1 0.16500 119244.000000
2586 13154 1 0.16500 119244.000000
2587 12130 1 0.16500 119244.000000
2587 14061 1 0.16500 119244.000000
2588 12130 1 0.16500 119244.000000
2588 15576 1 0.16500 119244.000000
2589 12131 1 0.16500 119244.000000
2589 13711 1 0.16500 119244.000000
2590 12131 1 0.16500 119244.000000
2590 12599 1 0.16500 119244.000000
2591 12131 1 0.16500 119244.000000
2591 17260 1 0.16500 119244.000000
2592 12132 1 0.16500 119244.000000
2592 12906 1 0.16500 119244.000000
2593 12132 1 0.16500 119244.000000
2593 14579 1 0.16500 119244.000000
2594 12132 1 0.16500 119244.000000
2594 12759 1 0.16500 119244.000000
2595 12133 1 0.16500 119244.000000
2595 16572 1 0.16500 119244.000000
2596 12133 1 0.16500 119244.000000
2596 14871 1 0.16500 119244.000000
2597 12133 1 0.16500 119244.000000
2597 12265 1 0.16500 119244.000000
2598 12134 1 0.16500 119244.000000
2598 16586 1 0.16500 119244.000000
2599 12134 1 0.16500 119244.000000
2599 16145 1 0.16500 119244.000000
2600 12134 1 0.16500 119244.000000
2600 13469 1 0.16500 119244.000000
2601 12134 1 0.16500 119244.000000
2601 12862 1 0.16500 119244.000000
2602 12135 1 0.16500 119244.000000
2602 16064 1 0.16500 119244.000000
2603 12135 1 0.16500 119244.000000
2603 14890 1 0.16500 119244.000000
2604 12136 1 0.16500 119244.000000
2604 18178 1 0.16500 119244.000000
2605 14334 1 0.16500 119244.000000
2605 18178 1 0.16500 119244.000000
2606 12137 1 0.16500 119244.000000
2606 16635 1 0.16500 119244.000000
2607 14899 1 0.16500 119244.000000
2607 16635 1 0.16500 119244.000000
2608 12137 1 0.16500 119244.000000
2608 16552 1 0.16500 119244.000000
2609 12137 1 0.16500 119244.000000
2609 15803 1 0.16500 119244.000000
2610 12138 1 0.16500 119244.000000
2610 16350 1 0.16500 119244.000000
2611 12138 1 0.16500 119244.000000
2611 13116 1 0.16500 119244.000000
2612 12138 1 0.16500 119244.000000
2612 13962 1 0.16500 119244.000000
2613 12139 1 0.16500 119244.000000
2613 12749 1 0.16500 119244.000000
2614 12139 1 0.16500 119244.000000
2614 12711 1 0.16500 119244.000000
2615 12139 1 0.16500 119244.000000
2615 13299 1 0.16500 119244.000000
2616 12140 1 0.16500 119244.000000
2616 13256 1 0.16500 119244.000000
2617 12140 1 0.16500 119244.000000
2617 13523 1 0.16500 119244.000000
2618 12140 1 0.16500 119244.000000
2618 14609 1 0.16500 119244.000000
2619 12141 1 0.16500 119244.000000
2619 16509 1 0.16500 119244.000000
2620 12141 1 0.16500 119244.000000
2620 19726 1 0.16500 119244.000000
2621 12141 1 0.16500 119244.000000
2621 16191 1 0.16500 119244.000000
2622 12141 1 0.16500 119244.000000
2622 14275 1 0.16500 119244.000000
2623 12142 1 0.16500 119244.000000
2623 12232 1 0.16500 119244.000000
2624 12142 1 0.16500 119244.000000
2624 17316 1 0.16500 119244.000000
2625 13003 1 0.16500 119244.000000
2625 13436 1 0.16500 119244.000000
2626 12143 1 0.16500 119244.000000
2626 15319 1 0.16500 119244.000000
2627 12143 1 0.16500 119244.000000
2627 13436 1 0.16500 119244.000000
2628 12143 1 0.16500 119244.000000
2628 13398 1 0.16500 119244.000000
2629 12144 1 0.16500 119244.000000
2629 16012 1 0.16500 119244.000000
2630 12144 1 0.16500 119244.000000
2630 15293 1 0.16500 119244.000000
2631 12144 1 0.16500 119244.000000
2631 13187 1 0.16500 119244.000000
2632 12145 1 0.16500 119244.000000
2632 16055 1 0.16500 119244.000000
2633 12145 1 0.16500 119244.000000
2633 18898 1 0.16500 119244.000000
2634 12145 1 0.16500 119244.000000
2634 16546 1 0.16500 119244.000000
2635 12145 1 0.16500 119244.000000
2635 15808 1 0.16500 119244.000000
2636 12146 1 0.16500 119244.000000
2636 15879 1 0.16500 119244.000000
2637 12146 1 0.16500 119244.000000
2637 13509 1 0.16500 119244.000000
2638 12146 1 0.16500 119244.000000
2638 15413 1 0.16500 119244.000000
2639 12146 1 0.16500 119244.000000
2639 16073 1 0.16500 119244.000000
2640 12147 1 0.16500 119244.000000
2640 13459 1 0.16500 119244.000000
2641 12147 1 0.16500 119244.000000
2641 15870 1 0.16500 119244.000000
2642 12147 1 0.16500 119244.000000
2642 13900 1 0.16500 119244.000000
2643 12147 1 0.16500 119244.000000
2643 13418 1 0.16500 119244.000000
2644 12148 1 0.16500 119244.000000
2644 16682 1 0.16500 119244.000000
2645 12148 1 0.16500 119244.000000
2645 13501 1 0.16500 119244.000000
2646 12148 1 0.16500 119244.000000
2646 12776 1 0.16500 119244.000000
2647 12149 1 0.16500 119244.000000
2647 13542 1 0.16500 119244.000000
2648 12149 1 0.16500 119244.000000
2648 16491 1 0.16500 119244.000000
2649 15833 1 0.16500 119244.000000
2649 16491 1 0.16500 119244.000000
2650 12149 1 0.16500 119244.000000
2650 14404 1 0.16500 119244.000000
2651 12150 1 0.16500 119244.000000
2651 20035 1 0.16500 119244.000000
2652 12150 1 0.16500 119244.000000
2652 20866 1 0.16500 119244.000000
2653 12150 1 0.16500 119244.000000
2653 16629 1 0.16500 119244.000000
2654 12151 1 0.16500 119244.000000
2654 13667 1 0.16500 119244.000000
2655 12151 1 0.16500 119244.000000
2655 14281 1 0.16500 119244.000000
2656 12151 1 0.16500 119244.000000
2656 14941 1 0.16500 119244.000000
2657 12151 1 0.16500 119244.000000
2657 16582 1 0.16500 119244.000000
2658 12152 1 0.16500 119244.000000
2658 14999 1 0.16500 119244.000000
2659 12152 1 0.16500 119244.000000
2659 12292 1 0.16500 119244.000000
2660 12153 1 0.16500 119244.000000
2660 13528 1 0.16500 119244.000000
2661 12153 1 0.16500 119244.000000
2661 13497 1 0.16500 119244.000000
2662 12153 1 0.16500 119244.000000
2662 13801 1 0.16500 119244.000000
2663 12153 1 0.16500 119244.000000
2663 16678 1 0.16500 119244.000000
2664 12154 1 0.16500 119244.000000
2664 14589 1 0.16500 119244.000000
2665 12154 1 0.16500 119244.000000
2665 13988 1 0.16500 119244.000000
2666 12155 1 0.16500 119244.000000
2666 14415 1 0.16500 119244.000000
2667 12155 1 0.16500 119244.000000
2667 20506 1 0.16500 119244.000000
2668 12156 1 0.16500 119244.000000
2668 14655 1 0.16500 119244.000000
2669 12156 1 0.16500 119244.000000
2669 14570 1 0.16500 119244.000000
2670 12156 1 0.16500 119244.000000
2670 12994 1 0.16500 119244.000000
2671 12156 1 0.16500 119244.000000
2671 12381 1 0.16500 119244.000000
2672 12157 1 0.16500 119244.000000
2672 13348 1 0.16500 119244.000000
2673 12157 1 0.16500 119244.000000
2673 13525 1 0.16500 119244.000000
2674 12157 1 0.16500 119244.000000
2674 14289 1 0.16500 119244.000000
2675 12157 1 0.16500 119244.000000
2675 12279 1 0.16500 119244.000000
2676 12158 1 0.16500 119244.000000
2676 12816 1 0.16500 119244.000000
2677 12158 1 0.16500 119244.000000
2677 15191 1 0.16500 119244.000000
2678 12158 1 0.16500 119244.000000
2678 16367 1 0.16500 119244.000000
2679 12158 1 0.16500 119244.000000
2679 14067 1 0.16500 119244.000000
2680 12159 1 0.16500 119244.000000
2680 13544 1 0.16500 119244.000000
2681 12159 1 0.16500 119244.000000
2681 13630 1 0.16500 119244.000000
2682 12159 1 0.16500 119244.000000
2682 15866 1 0.16500 119244.000000
2683 14797 1 0.16500 119244.000000
2683 15866 1 0.16500 119244.000000
2684 12160 1 0.16500 119244.000000
2684 18586 1 0.16500 119244.000000
2685 12160 1 0.16500 119244.000000
2685 12751 1 0.16500 119244.000000
2686 12160 1 0.16500 119244.000000
2686 13340 1 0.16500 119244.000000
2687 12160 1 0.16500 119244.000000
2687 16252 1 0.16500 119244.000000
2688 12161 1 0.16500 119244.000000
2688 15831 1 0.16500 119244.000000
2689 12161 1 0.16500 119244.000000
2689 15865 1 0.16500 119244.000000
2690 12161 1 0.16500 119244.000000
2690 20035 1 0.16500 119244.000000
2691 12161 1 0.16500 119244.000000
2691 14016 1 0.16500 119244.000000
2692 12162 1 0.16500 119244.000000
2692 15444 1 0.16500 119244.000000
2693 12162 1 0.16500 119244.000000
2693 14373 1 0.16500 119244.000000
2694 12162 1 0.16500 119244.000000
2694 16410 1 0.16500 119244.000000
2695 12162 1 0.16500 119244.000000
2695 12974 1 0.16500 119244.000000
2696 12163 1 0.16500 119244.000000
2696 13372 1 0.16500 119244.000000
2697 12163 1 0.16500 119244.000000
2697 12461 1 0.16500 119244.000000
2698 12163 1 0.16500 119244.000000
2698 15044 1 0.16500 119244.000000
2699 12164 1 0.16500 119244.000000
2699 15556 1 0.16500 119244.000000
2700 12164 1 0.16500 119244.000000
2700 20485 1 0.16500 119244.000000
2701 12164 1 0.16500 119244.000000
2701 13691 1 0.16500 119244.000000
2702 12165 1 0.16500 119244.000000
2702 15830 1 0.16500 119244.000000
2703 12165 1 0.16500 119244.000000
2703 14443 1 0.16500 119244.000000
2704 12165 1 0.16500 119244.000000
2704 13669 1 0.16500 119244.000000
2705 12165 1 0.16500 119244.000000
2705 14396 1 0.16500 119244.000000
2706 12166 1 0.16500 119244.000000
2706 13375 1 0.16500 119244.000000
2707 12166 1 0.16500 119244.000000
2707 12331 1 0.16500 119244.000000
2708 12166 1 0.16500 119244.000000
2708 16322 1 0.16500 119244.000000
2709 12167 1 0.16500 119244.000000
2709 13350 1 0.16500 119244.000000
2710 12167 1 0.16500 119244.000000
2710 16439 1 0.16500 119244.000000
2711 12167 1 0.16500 119244.000000
2711 16469 1 0.16500 119244.000000
2712 12167 1 0.16500 119244.000000
2712 13229 1 0.16500 119244.000000
2713 12168 1 0.16500 119244.000000
2713 13931 1 0.16500 119244.000000
2714 12168 1 0.16500 119244.000000
2714 13693 1 0.16500 119244.000000
2715 12168 1 0.16500 119244.000000
2715 12565 1 0.16500 119244.000000
2716 12168 1 0.16500 119244.000000
2716 19354 1 0.16500 119244.000000
2717 12169 1 0.16500 119244.000000
2717 16580 1 0.16500 119244.000000
2718 12169 1 0.16500 119244.000000
2718 14774 1 0.16500 119244.000000
2719 12169 1 0.16500 119244.000000
2719 13280 1 0.16500 119244.000000
2720 12169 1 0.16500 119244.000000
2720 15049 1 0.16500 119244.000000
2721 12170 1 0.16500 119244.000000
2721 16688 1 0.16500 119244.000000
2722 12170 1 0.16500 119244.000000
2722 14641 1 0.16500 119244.000000
2723 12170 1 0.16500 119244.000000
2723 12493 1 0.16500 119244.000000
2724 12170 1 0.16500 119244.000000
2724 16203 1 0.16500 119244.000000
2725 12171 1 0.16500 119244.000000
2725 16615 1 0.16500 119244.000000
2726 12171 1 0.16500 119244.000000
2726 13784 1 0.16500 119244.000000
2727 12171 1 0.16500 119244.000000
2727 15410 1 0.16500 119244.000000
2728 12171 1 0.16500 119244.000000
2728 13517 1 0.16500 119244.000000
2729 12172 1 0.16500 119244.000000
2729 15708 1 0.16500 119244.000000
2730 12172 1 0.16500 119244.000000
2730 19870 1 0.16500 119244.000000
2731 12172 1 0.16500 119244.000000
2731 13321 1 0.16500 119244.000000
2732 12173 1 0.16500 119244.000000
2732 12786 1 0.16500 119244.000000
2733 12173 1 0.16500 119244.000000
2733 20227 1 0.16500 119244.000000
2734 12173 1 0.16500 119244.000000
2734 14752 1 0.16500 119244.000000
2735 12174 1 0.16500 119244.000000
2735 13273 1 0.16500 119244.000000
2736 12174 1 0.16500 119244.000000
2736 13665 1 0.16500 119244.000000
2737 12174 1 0.16500 119244.000000
2737 16093 1 0.16500 119244.000000
2738 12175 1 0.16500 119244.000000
2738 12390 1 0.16500 119244.000000
2739 12175 1 0.16500 119244.000000
2739 13779 1 0.16500 119244.000000
2740 12175 1 0.16500 119244.000000
2740 14959 1 0.16500 119244.000000
2741 12175 1 0.16500 119244.000000
2741 14925 1 0.16500 119244.000000
2742 12176 1 0.16500 119244.000000
2742 16170 1 0.16500 119244.000000
2743 12176 1 0.16500 119244.000000
2743 16646 1 0.16500 119244.000000
2744 12176 1 0.16500 119244.000000
2744 15819 1 0.16500 119244.000000
2745 12176 1 0.16500 119244.000000
2745 12742 1 0.16500 119244.000000
2746 12177 1 0.16500 119244.000000
2746 20056 1 0.16500 119244.000000
2747 12177 1 0.16500 119244.000000
2747 20497 1 0.16500 119244.000000
2748 12177 1 0.16500 119244.000000
2748 16632 1 0.16500 119244.000000
2749 12178 1 0.16500 119244.000000
2749 13138 1 0.16500 119244.000000
2750 12178 1 0.16500 119244.000000
2750 14539 1 0.16500 119244.000000
2751 12178 1 0.16500 119244.000000
2751 15878 1 0.16500 119244.000000
2752 12178 1 0.16500 119244.000000
2752 12808 1 0.16500 119244.000000
2753 12179 1 0.16500 119244.000000
2753 14228 1 0.16500 119244.000000
2754 14737 1 0.16500 119244.000000
2754 15800 1 0.16500 119244.000000
2755 12179 1 0.16500 119244.000000
2755 14783 1 0.16500 119244.000000
2756 12179 1 0.16500 119244.000000
2756 14737 1 0.16500 119244.000000
2757 12180 1 0.16500 119244.000000
2757 12583 1 0.16500 119244.000000
2758 12180 1 0.16500 119244.000000
2758 13236 1 0.16500 119244.000000
2759 12180 1 0.16500 119244.000000
2759 13757 1 0.16500 119244.000000
2760 12180 1 0.16500 119244.000000
2760 13521 1 0.16500 119244.000000
2761 12181 1 0.16500 119244.000000
2761 15345 1 0.16500 119244.000000
2762 12181 1 0.16500 119244.000000
2762 14716 1 0.16500 119244.000000
2763 12181 1 0.16500 119244.000000
2763 14314 1 0.16500 119244.000000
2764 12182 1 0.16500 119244.000000
2764 12946 1 0.16500 119244.000000
2765 12182 1 0.16500 119244.000000
2765 15581 1 0.16500 119244.000000
2766 12182 1 0.16500 119244.000000
2766 14153 1 0.16500 119244.000000
2767 12182 1 0.16500 119244.000000
2767 14622 1 0.16500 119244.000000
2768 12183 1 0.16500 119244.000000
2768 16018 1 0.16500 119244.000000
2769 12183 1 0.16500 119244.000000
2769 15941 1 0.16500 119244.000000
2770 12183 1 0.16500 119244.000000
2770 12228 1 0.16500 119244.000000
2771 12184 1 0.16500 119244.000000
2771 16624 1 0.16500 119244.000000
2772 13821 1 0.16500 119244.000000
2772 14294 1 0.16500 119244.000000
2773 12184 1 0.16500 119244.000000
2773 13821 1 0.16500 119244.000000
2774 12184 1 0.16500 119244.000000
2774 15119 1 0.16500 119244.000000
2775 12185 1 0.16500 119244.000000
2775 15108 1 0.16500 119244.000000
2776 12185 1 0.16500 119244.000000
2776 15634 1 0.16500 119244.000000
2777 12186 1 0.16500 119244.000000
2777 15630 1 0.16500 119244.000000
2778 12186 1 0.16500 119244.000000
2778 12664 1 0.16500 119244.000000
2779 12186 1 0.16500 119244.000000
2779 15828 1 0.16500 119244.000000
2780 12187 1 0.16500 119244.000000
2780 20943 1 0.16500 119244.000000
2781 12187 1 0.16500 119244.000000
2781 13477 1 0.16500 119244.000000
2782 12187 1 0.16500 119244.000000
2782 14534 1 0.16500 119244.000000
2783 12187 1 0.16500 119244.000000
2783 14629 1 0.16500 119244.000000
2784 12188 1 0.16500 119244.000000
2784 15766 1 0.16500 119244.000000
2785 12188 1 0.16500 119244.000000
2785 14399 1 0.16500 119244.000000
2786 12188 1 0.16500 119244.000000
2786 14309 1 0.16500 119244.000000
2787 12188 1 0.16500 119244.000000
2787 13395 1 0.16500 119244.000000
2788 12189 1 0.16500 119244.000000
2788 14092 1 0.16500 119244.000000
2789 12189 1 0.16500 119244.000000
2789 12935 1 0.16500 119244.000000
2790 12189 1 0.16500 119244.000000
2790 15933 1 0.16500 119244.000000
2791 12190 1 0.16500 119244.000000
2791 12788 1 0.16500 119244.000000
2792 12190 1 0.16500 119244.000000
2792 14140 1 0.16500 119244.000000
2793 12788 1 0.16500 119244.000000
2793 13108 1 0.16500 119244.000000
2794 12191 1 0.16500 119244.000000
2794 16690 1 0.16500 119244.000000
2795 12191 1 0.16500 119244.000000
2795 15607 1 0.16500 119244.000000
2796 12191 1 0.16500 119244.000000
2796 15065 1 0.16500 119244.000000
2797 14110 1 0.16500 119244.000000
2797 15607 1 0.16500 119244.000000
2798 12192 1 0.16500 119244.000000
2798 16308 1 0.16500 119244.000000
2799 12192 1 0.16500 119244.000000
2799 15933 1 0.16500 119244.000000
2800 12193 1 0.16500 119244.000000
2800 14412 1 0.16500 119244.000000
2801 12193 1 0.16500 119244.000000
2801 15114 1 0.16500 119244.000000
2802 13091 1 0.16500 119244.000000
2802 14412 1 0.16500 119244.000000
2803 12194 1 0.16500 119244.000000
2803 14640 1 0.16500 119244.000000
2804 12194 1 0.16500 119244.000000
2804 14942 1 0.16500 119244.000000
2805 12194 1 0.16500 119244.000000
2805 14609 1 0.16500 119244.000000
2806 12195 1 0.16500 119244.000000
2806 12884 1 0.16500 119244.000000
2807 12195 1 0.16500 119244.000000
2807 14368 1 0.16500 119244.000000
2808 12195 1 0.16500 119244.000000
2808 15851 1 0.16500 119244.000000
2809 12195 1 0.16500 119244.000000
2809 13199 1 0.16500 119244.000000
2810 12196 1 0.16500 119244.000000
2810 14242 1 0.16500 119244.000000
2811 12196 1 0.16500 119244.000000
2811 14450 1 0.16500 119244.000000
2812 12196 1 0.16500 119244.000000
2812 15585 1 0.16500 119244.000000
2813 12196 1 0.16500 119244.000000
2813 15160 1 0.16500 119244.000000
2814 12197 1 0.16500 119244.000000
2814 14981 1 0.16500 119244.000000
2815 13921 1 0.16500 119244.000000
2815 13980 1 0.16500 119244.000000
2816 12197 1 0.16500 119244.000000
2816 16028 1 0.16500 119244.000000
2817 11526 1 0.16500 119244.000000
2817 13921 1 0.16500 119244.000000
2818 12198 1 0.16500 119244.000000
2818 12474 1 0.16500 119244.000000
2819 12198 1 0.16500 119244.000000
2819 14065 1 0.16500 119244.000000
2820 12198 1 0.16500 119244.000000
2820 16166 1 0.16500 119244.000000
2821 12198 1 0.16500 119244.000000
2821 13719 1 0.16500 119244.000000
2822 12199 1 0.16500 119244.000000
2822 16017 1 0.16500 119244.000000
2823 12199 1 0.16500 119244.000000
2823 16676 1 0.16500 119244.000000
2824 12199 1 0.16500 119244.000000
2824 16238 1 0.16500 119244.000000
2825 12200 1 0.16500 119244.000000
2825 15729 1 0.16500 119244.000000
2826 12200 1 0.16500 119244.000000
2826 16584 1 0.16500 119244.000000
2827 12200 1 0.16500 119244.000000
2827 14491 1 0.16500 119244.000000
2828 12200 1 0.16500 119244.000000
2828 16547 1 0.16500 119244.000000
2829 12201 1 0.16500 119244.000000
2829 16365 1 0.16500 119244.000000
2830 12201 1 0.16500 119244.000000
2830 16194 1 0.16500 119244.000000
2831 12201 1 0.16500 119244.000000
2831 14094 1 0.16500 119244.000000
2832 12202 1 0.16500 119244.000000
2832 12378 1 0.16500 119244.000000
2833 12202 1 0.16500 119244.000000
2833 12754 1 0.16500 119244.000000
2834 12203 1 0.16500 119244.000000
2834 12230 1 0.16500 119244.000000
2835 12203 1 0.16500 119244.000000
2835 14743 1 0.16500 119244.000000
2836 12203 1 0.16500 119244.000000
2836 12637 1 0.16500 119244.000000
2837 12204 1 0.16500 119244.000000
2837 15551 1 0.16500 119244.000000
2838 12204 1 0.16500 119244.000000
2838 15702 1 0.16500 119244.000000
2839 12204 1 0.16500 119244.000000
2839 17610 1 0.16500 119244.000000
2840 12205 1 0.16500 119244.000000
2840 13110 1 0.16500 119244.000000
2841 12205 1 0.16500 119244.000000
2841 14815 1 0.16500 119244.000000
2842 12205 1 0.16500 119244.000000
2842 13100 1 0.16500 119244.000000
2843 12205 1 0.16500 119244.000000
2843 12721 1 0.16500 119244.000000
2844 12206 1 0.16500 119244.000000
2844 14281 1 0.16500 119244.000000
2845 12206 1 0.16500 119244.000000
2845 12439 1 0.16500 119244.000000
2846 12206 1 0.16500 119244.000000
2846 14755 1 0.16500 119244.000000
2847 12206 1 0.16500 119244.000000
2847 13642 1 0.16500 119244.000000
2848 12207 1 0.16500 119244.000000
2848 14013 1 0.16500 119244.000000
2849 12207 1 0.16500 119244.000000
2849 15329 1 0.16500 119244.000000
2850 12207 1 0.16500 119244.000000
2850 12410 1 0.16500 119244.000000
2851 12208 1 0.16500 119244.000000
2851 12964 1 0.16500 119244.000000
2852 12208 1 0.16500 119244.000000
2852 12901 1 0.16500 119244.000000
2853 12208 1 0.16500 119244.000000
2853 14247 1 0.16500 119244.000000
2854 12209 1 0.16500 119244.000000
2854 16039 1 0.16500 119244.000000
2855 12209 1 0.16500 119244.000000
2855 13963 1 0.16500 119244.000000
2856 12209 1 0.16500 119244.000000
2856 14250 1 0.16500 119244.000000
2857 12210 1 0.16500 119244.000000
2857 12449 1 0.16500 119244.000000
2858 12211 1 0.16500 119244.000000
2858 13812 1 0.16500 119244.000000
2859 12211 1 0.16500 119244.000000
2859 13580 1 0.16500 119244.000000
2860 12211 1 0.16500 119244.000000
2860 15454 1 0.16500 119244.000000
2861 13812 1 0.16500 119244.000000
2861 15338 1 0.16500 119244.000000
2862 12212 1 0.16500 119244.000000
2862 13778 1 0.16500 119244.000000
2863 12212 1 0.16500 119244.000000
2863 16466 1 0.16500 119244.000000
2864 12213 1 0.16500 119244.000000
2864 12723 1 0.16500 119244.000000
2865 12213 1 0.16500 119244.000000
2865 12804 1 0.16500 119244.000000
2866 12804 1 0.16500 119244.000000
2866 15642 1 0.16500 119244.000000
2867 12214 1 0.16500 119244.000000
2867 15353 1 0.16500 119244.000000
2868 12214 1 0.16500 119244.000000
2868 16391 1 0.16500 119244.000000
2869 12214 1 0.16500 119244.000000
2869 14505 1 0.16500 119244.000000
2870 12214 1 0.16500 119244.000000
2870 13564 1 0.16500 119244.000000
2871 12215 1 0.16500 119244.000000
2871 15889 1 0.16500 119244.000000
2872 12215 1 0.16500 119244.000000
2872 13015 1 0.16500 119244.000000
2873 12215 1 0.16500 119244.000000
2873 14354 1 0.16500 119244.000000
2874 12216 1 0.16500 119244.000000
2874 14271 1 0.16500 119244.000000
2875 12216 1 0.16500 119244.000000
2875 13781 1 0.16500 119244.000000
2876 12216 1 0.16500 119244.000000
2876 14402 1 0.16500 119244.000000
2877 12217 1 0.16500 119244.000000
2877 13942 1 0.16500 119244.000000
2878 12217 1 0.16500 119244.000000
2878 12288 1 0.16500 119244.000000
2879 12217 1 0.16500 119244.000000
2879 12696 1 0.16500 119244.000000
2880 12218 1 0.16500 119244.000000
2880 12317 1 0.16500 119244.000000
2881 12218 1 0.16500 119244.000000
2881 14494 1 0.16500 119244.000000
2882 12218 1 0.16500 119244.000000
2882 13060 1 0.16500 119244.000000
2883 12218 1 0.16500 119244.000000
2883 12855 1 0.16500 119244.000000
2884 12219 1 0.16500 119244.000000
2884 15769 1 0.16500 119244.000000
2885 12219 1 0.16500 119244.000000
2885 13610 1 0.16500 119244.000000
2886 12220 1 0.16500 119244.000000
2886 15701 1 0.16500 119244.000000
2887 12220 1 0.16500 119244.000000
2887 16652 1 0.16500 119244.000000
2888 12220 1 0.16500 119244.000000
2888 14050 1 0.16500 119244.000000
2889 12221 1 0.16500 119244.000000
2889 14657 1 0.16500 119244.000000
2890 12221 1 0.16500 119244.000000
2890 15129 1 0.16500 119244.000000
2891 12221 1 0.16500 119244.000000
2891 14860 1 0.16500 119244.000000
2892 12222 1 0.16500 119244.000000
2892 13324 1 0.16500 119244.000000
2893 12222 1 0.16500 119244.000000
2893 20903 1 0.16500 119244.000000
2894 12518 1 0.16500 119244.000000
2894 14713 1 0.16500 119244.000000
2895 12222 1 0.16500 119244.000000
2895 14713 1 0.16500 119244.000000
2896 12223 1 0.16500 119244.000000
2896 13209 1 0.16500 119244.000000
2897 12223 1 0.16500 119244.000000
2897 13244 1 0.16500 119244.000000
2898 12223 1 0.16500 119244.000000
2898 15089 1 0.16500 119244.000000
2899 12223 1 0.16500 119244.000000
2899 20125 1 0.16500 119244.000000
2900 12224 1 0.16500 119244.000000
2900 15149 1 0.16500 119244.000000
2901 12224 1 0.16500 119244.000000
2901 13630 1 0.16500 119244.000000
2902 12224 1 0.16500 119244.000000
2902 14977 1 0.16500 119244.000000
2903 12225 1 0.16500 119244.000000
2903 13167 1 0.16500 119244.000000
2904 12225 1 0.16500 119244.000000
2904 16190 1 0.16500 119244.000000
2905 12225 1 0.16500 119244.000000
2905 15766 1 0.16500 119244.000000
2906 12226 1 0.16500 119244.000000
2906 13903 1 0.16500 119244.000000
2907 13520 1 0.16500 119244.000000
2907 16248 1 0.16500 119244.000000
2908 12226 1 0.16500 119244.000000
2908 16248 1 0.16500 119244.000000
2909 12227 1 0.16500 119244.000000
2909 15229 1 0.16500 119244.000000
2910 12227 1 0.16500 119244.000000
2910 14517 1 0.16500 119244.000000
2911 12227 1 0.16500 119244.000000
2911 14527 1 0.16500 119244.000000
2912 12228 1 0.16500 119244.000000
2912 15188 1 0.16500 119244.000000
2913 12228 1 0.16500 119244.000000
2913 15044 1 0.16500 119244.000000
2914 12228 1 0.16500 119244.000000
2914 20968 1 0.16500 119244.000000
2915 12229 1 0.16500 119244.000000
2915 16240 1 0.16500 119244.000000
2916 12229 1 0.16500 119244.000000
2916 15778 1 0.16500 119244.000000
2917 12229 1 0.16500 119244.000000
2917 12715 1 0.16500 119244.000000
2918 12230 1 0.16500 119244.000000
2918 15169 1 0.16500 119244.000000
2919 12230 1 0.16500 119244.000000
2919 12356 1 0.16500 119244.000000
2920 12230 1 0.16500 119244.000000
2920 16653 1 0.16500 119244.000000
2921 12231 1 0.16500 119244.000000
2921 16301 1 0.16500 119244.000000
2922 12231 1 0.16500 119244.000000
2922 14776 1 0.16500 119244.000000
2923 12233 1 0.16500 119244.000000
2923 16680 1 0.16500 119244.000000
2924 12233 1 0.16500 119244.000000
2924 15736 1 0.16500 119244.000000
2925 12233 1 0.16500 119244.000000
2925 16477 1 0.16500 119244.000000
2926 12233 1 0.16500 119244.000000
2926 16161 1 0.16500 119244.000000
2927 12234 1 0.16500 119244.000000
2927 15913 1 0.16500 119244.000000
2928 12234 1 0.16500 119244.000000
2928 16449 1 0.16500 119244.000000
2929 12234 1 0.16500 119244.000000
2929 16263 1 0.16500 119244.000000
2930 12234 1 0.16500 119244.000000
2930 15685 1 0.16500 119244.000000
2931 12235 1 0.16500 119244.000000
2931 14243 1 0.16500 119244.000000
2932 12235 1 0.16500 119244.000000
2932 13090 1 0.16500 119244.000000
2933 12235 1 0.16500 119244.000000
2933 13779 1 0.16500 119244.000000
2934 12236 1 0.16500 119244.000000
2934 16507 1 0.16500 119244.000000
2935 12236 1 0.16500 119244.000000
2935 12292 1 0.16500 119244.000000
2936 12236 1 0.16500 119244.000000
2936 14276 1 0.16500 119244.000000
2937 12237 1 0.16500 119244.000000
2937 12893 1 0.16500 119244.000000
2938 12237 1 0.16500 119244.000000
2938 15133 1 0.16500 119244.000000
2939 12237 1 0.16500 119244.000000
2939 15109 1 0.16500 119244.000000
2940 12238 1 0.16500 119244.000000
2940 16514 1 0.16500 119244.000000
2941 12238 1 0.16500 119244.000000
2941 12563 1 0.16500 119244.000000
2942 11690 1 0.16500 119244.000000
2942 12238 1 0.16500 119244.000000
2943 12563 1 0.16500 119244.000000
2943 14251 1 0.16500 119244.000000
2944 12239 1 0.16500 119244.000000
2944 14042 1 0.16500 119244.000000
2945 12239 1 0.16500 119244.000000
2945 14905 1 0.16500 119244.000000
2946 12239 1 0.16500 119244.000000
2946 16168 1 0.16500 119244.000000
2947 12240 1 0.16500 119244.000000
2947 15658 1 0.16500 119244.000000
2948 12240 1 0.16500 119244.000000
2948 13438 1 0.16500 119244.000000
2949 12240 1 0.16500 119244.000000
2949 15820 1 0.16500 119244.000000
2950 12240 1 0.16500 119244.000000
2950 16409 1 0.16500 119244.000000
2951 16478 1 0.16500 119244.000000
2951 16566 1 0.16500 119244.000000
2952 16478 1 0.16500 119244.000000
2952 19990 1 0.16500 119244.000000
2953 12241 1 0.16500 119244.000000
2953 16478 1 0.16500 119244.000000
2954 14397 1 0.16500 119244.000000
2954 16478 1 0.16500 119244.000000
2955 12242 1 0.16500 119244.000000
2955 15100 1 0.16500 119244.000000
2956 12242 1 0.16500 119244.000000
2956 16377 1 0.16500 119244.000000
2957 12242 1 0.16500 119244.000000
2957 14010 1 0.16500 119244.000000
2958 12243 1 0.16500 119244.000000
2958 15334 1 0.16500 119244.000000
2959 12243 1 0.16500 119244.000000
2959 15714 1 0.16500 119244.000000
2960 12243 1 0.16500 119244.000000
2960 14740 1 0.16500 119244.000000
2961 12243 1 0.16500 119244.000000
2961 16009 1 0.16500 119244.000000
2962 12244 1 0.16500 119244.000000
2962 13366 1 0.16500 119244.000000
2963 12244 1 0.16500 119244.000000
2963 16320 1 0.16500 119244.000000
2964 12244 1 0.16500 119244.000000
2964 13250 1 0.16500 119244.000000
2965 12244 1 0.16500 119244.000000
2965 15639 1 0.16500 119244.000000
2966 12245 1 0.16500 119244.000000
2966 13815 1 0.16500 119244.000000
2967 12245 1 0.16500 119244.000000
2967 13287 1 0.16500 119244.000000
2968 12245 1 0.16500 119244.000000
2968 14674 1 0.16500 119244.000000
2969 12245 1 0.16500 119244.000000
2969 15931 1 0.16500 119244.000000
2970 12246 1 0.16500 119244.000000
2970 15845 1 0.16500 119244.000000
2971 12246 1 0.16500 119244.000000
2971 12784 1 0.16500 119244.000000
2972 12478 1 0.16500 119244.000000
2972 12784 1 0.16500 119244.000000
2973 12246 1 0.16500 119244.000000
2973 14159 1 0.16500 119244.000000
2974 12247 1 0.16500 119244.000000
2974 12491 1 0.16500 119244.000000
2975 12247 1 0.16500 119244.000000
2975 13411 1 0.16500 119244.000000
2976 12247 1 0.16500 119244.000000
2976 13796 1 0.16500 119244.000000
2977 12247 1 0.16500 119244.000000
2977 14525 1 0.16500 119244.000000
2978 12248 1 0.16500 119244.000000
2978 14580 1 0.16500 119244.000000
2979 12248 1 0.16500 119244.000000
2979 13182 1 0.16500 119244.000000
2980 12248 1 0.16500 119244.000000
2980 16543 1 0.16500 119244.000000
2981 12248 1 0.16500 119244.000000
2981 16481 1 0.16500 119244.000000
2982 12249 1 0.16500 119244.000000
2982 13955 1 0.16500 119244.000000
2983 12249 1 0.16500 119244.000000
2983 13214 1 0.16500 119244.000000
2984 12249 1 0.16500 119244.000000
2984 13460 1 0.16500 119244.000000
2985 12249 1 0.16500 119244.000000
2985 12896 1 0.16500 119244.000000
2986 12250 1 0.16500 119244.000000
2986 17022 1 0.16500 119244.000000
2987 12250 1 0.16500 119244.000000
2987 15127 1 0.16500 119244.000000
2988 12250 1 0.16500 119244.000000
2988 14883 1 0.16500 119244.000000
2989 12136 1 0.16500 119244.000000
2989 16570 1 0.16500 119244.000000
2990 12136 1 0.16500 119244.000000
2990 17484 1 0.16500 119244.000000
2991 14678 1 0.16500 119244.000000
2991 18178 1 0.16500 119244.000000
2992 15278 1 0.16500 119244.000000
2992 15822 1 0.16500 119244.000000
2993 12520 1 0.16500 119244.000000
2993 15822 1 0.16500 119244.000000
2994 12898 1 0.16500 119244.000000
2994 15822 1 0.16500 119244.000000
2995 12251 1 0.16500 119244.000000
2995 15822 1 0.16500 119244.000000
2996 12252 1 0.16500 119244.000000
2996 20575 1 0.16500 119244.000000
2997 12252 1 0.16500 119244.000000
2997 12878 1 0.16500 119244.000000
2998 12253 1 0.16500 119244.000000
2998 15047 1 0.16500 119244.000000
2999 12253 1 0.16500 119244.000000
2999 16577 1 0.16500 119244.000000
3000 12253 1 0.16500 119244.000000
3000 15275 1 0.16500 119244.000000
3001 12253 1 0.16500 119244.000000
3001 12779 1 0.16500 119244.000000
3002 12254 1 0.16500 119244.000000
3002 12416 1 0.16500 119244.000000
3003 12254 1 0.16500 119244.000000
3003 14911 1 0.16500 119244.000000
3004 12255 1 0.16500 119244.000000
3004 13956 1 0.16500 119244.000000
3005 12255 1 0.16500 119244.000000
3005 13123 1 0.16500 119244.000000
3006 12255 1 0.16500 119244.000000
3006 14311 1 0.16500 119244.000000
3007 12256 1 0.16500 119244.000000
3007 16309 1 0.16500 119244.000000
3008 13822 1 0.16500 119244.000000
3008 13998 1 0.16500 119244.000000
3009 12256 1 0.16500 119244.000000
3009 14567 1 0.16500 119244.000000
3010 12256 1 0.16500 119244.000000
3010 13998 1 0.16500 119244.000000
3011 12258 1 0.16500 119244.000000
3011 16681 1 0.16500 119244.000000
3012 12258 1 0.16500 119244.000000
3012 13483 1 0.16500 119244.000000
3013 12258 1 0.16500 119244.000000
3013 21023 1 0.16500 119244.000000
3014 12258 1 0.16500 119244.000000
3014 16014 1 0.16500 119244.000000
3015 12259 1 0.16500 119244.000000
3015 12808 1 0.16500 119244.000000
3016 12259 1 0.16500 119244.000000
3016 16604 1 0.16500 119244.000000
3017 12259 1 0.16500 119244.000000
3017 14442 1 0.16500 119244.000000
3018 12260 1 0.16500 119244.000000
3018 14520 1 0.16500 119244.000000
3019 12260 1 0.16500 119244.000000
3019 15054 1 0.16500 119244.000000
3020 12260 1 0.16500 119244.000000
3020 14340 1 0.16500 119244.000000
3021 12260 1 0.16500 119244.000000
3021 16157 1 0.16500 119244.000000
3022 12261 1 0.16500 119244.000000
3022 14235 1 0.16500 119244.000000
3023 12261 1 0.16500 119244.000000
3023 12375 1 0.16500 119244.000000
3024 12261 1 0.16500 119244.000000
3024 15416 1 0.16500 119244.000000
3025 12262 1 0.16500 119244.000000
3025 14020 1 0.16500 119244.000000
3026 12262 1 0.16500 119244.000000
3026 12556 1 0.16500 119244.000000
3027 12262 1 0.16500 119244.000000
3027 16484 1 0.16500 119244.000000
3028 12262 1 0.16500 119244.000000
3028 14011 1 0.16500 119244.000000
3029 12263 1 0.16500 119244.000000
3029 15927 1 0.16500 119244.000000
3030 12263 1 0.16500 119244.000000
3030 15668 1 0.16500 119244.000000
3031 12263 1 0.16500 119244.000000
3031 12714 1 0.16500 119244.000000
3032 12263 1 0.16500 119244.000000
3032 12442 1 0.16500 119244.000000
3033 12264 1 0.16500 119244.000000
3033 16091 1 0.16500 119244.000000
3034 12264 1 0.16500 119244.000000
3034 19186 1 0.16500 119244.000000
3035 12264 1 0.16500 119244.000000
3035 20083 1 0.16500 119244.000000
3036 12265 1 0.16500 119244.000000
3036 15699 1 0.16500 119244.000000
3037 12265 1 0.16500 119244.000000
3037 12982 1 0.16500 119244.000000
3038 12265 1 0.16500 119244.000000
3038 12358 1 0.16500 119244.000000
3039 12266 1 0.16500 119244.000000
3039 17708 1 0.16500 119244.000000
3040 12266 1 0.16500 119244.000000
3040 15003 1 0.16500 119244.000000
3041 12266 1 0.16500 119244.000000
3041 17918 1 0.16500 119244.000000
3042 12267 1 0.16500 119244.000000
3042 14671 1 0.16500 119244.000000
3043 12268 1 0.16500 119244.000000
3043 15975 1 0.16500 119244.000000
3044 12268 1 0.16500 119244.000000
3044 15209 1 0.16500 119244.000000
3045 12268 1 0.16500 119244.000000
3045 13074 1 0.16500 119244.000000
3046 15360 1 0.16500 119244.000000
3046 15975 1 0.16500 119244.000000
3047 12269 1 0.16500 119244.000000
3047 16598 1 0.16500 119244.000000
3048 12269 1 0.16500 119244.000000
3048 16636 1 0.16500 119244.000000
3049 12270 1 0.16500 119244.000000
3049 14368 1 0.16500 119244.000000
3050 12270 1 0.16500 119244.000000
3050 15850 1 0.16500 119244.000000
3051 12270 1 0.16500 119244.000000
3051 13132 1 0.16500 119244.000000
3052 12270 1 0.16500 119244.000000
3052 16366 1 0.16500 119244.000000
3053 12271 1 0.16500 119244.000000
3053 15710 1 0.16500 119244.000000
3054 11449 1 0.16500 119244.000000
3054 12271 1 0.16500 119244.000000
3055 12271 1 0.16500 119244.000000
3055 15218 1 0.16500 119244.000000
3056 11859 1 0.16500 119244.000000
3056 13025 1 0.16500 119244.000000
3057 11710 1 0.16500 119244.000000
3057 15289 1 0.16500 119244.000000
3058 12273 1 0.16500 119244.000000
3058 14410 1 0.16500 119244.000000
3059 12273 1 0.16500 119244.000000
3059 16211 1 0.16500 119244.000000
3060 12273 1 0.16500 119244.000000
3060 15943 1 0.16500 119244.000000
3061 12274 1 0.16500 119244.000000
3061 13374 1 0.16500 119244.000000
3062 12274 1 0.16500 119244.000000
3062 16504 1 0.16500 119244.000000
3063 12275 1 0.16500 119244.000000
3063 12495 1 0.16500 119244.000000
3064 12275 1 0.16500 119244.000000
3064 13984 1 0.16500 119244.000000
3065 12275 1 0.16500 119244.000000
3065 13824 1 0.16500 119244.000000
3066 12275 1 0.16500 119244.000000
3066 16404 1 0.16500 119244.000000
3067 12276 1 0.16500 119244.000000
3067 14312 1 0.16500 119244.000000
3068 12276 1 0.16500 119244.000000
3068 14749 1 0.16500 119244.000000
3069 12276 1 0.16500 119244.000000
3069 16653 1 0.16500 119244.000000
3070 12277 1 0.16500 119244.000000
3070 14596 1 0.16500 119244.000000
3071 12277 1 0.16500 119244.000000
3071 20605 1 0.16500 119244.000000
3072 12277 1 0.16500 119244.000000
3072 15134 1 0.16500 119244.000000
3073 12277 1 0.16500 119244.000000
3073 16466 1 0.16500 119244.000000
3074 12278 1 0.16500 119244.000000
3074 13106 1 0.16500 119244.000000
3075 12278 1 0.16500 119244.000000
3075 16026 1 0.16500 119244.000000
3076 12278 1 0.16500 119244.000000
3076 14174 1 0.16500 119244.000000
3077 12279 1 0.16500 119244.000000
3077 13611 1 0.16500 119244.000000
3078 12279 1 0.16500 119244.000000
3078 16259 1 0.16500 119244.000000
3079 12279 1 0.16500 119244.000000
3079 15640 1 0.16500 119244.000000
3080 12280 1 0.16500 119244.000000
3080 16105 1 0.16500 119244.000000
3081 12280 1 0.16500 119244.000000
3081 16544 1 0.16500 119244.000000
3082 12281 1 0.16500 119244.000000
3082 16271 1 0.16500 119244.000000
3083 12281 1 0.16500 119244.000000
3083 16368 1 0.16500 119244.000000
3084 13623 1 0.16500 119244.000000
3084 14911 1 0.16500 119244.000000
3085 12282 1 0.16500 119244.000000
3085 16100 1 0.16500 119244.000000
3086 12282 1 0.16500 119244.000000
3086 13623 1 0.16500 119244.000000
3087 12283 1 0.16500 119244.000000
3087 13754 1 0.16500 119244.000000
3088 12283 1 0.16500 119244.000000
3088 12656 1 0.16500 119244.000000
3089 12283 1 0.16500 119244.000000
3089 14777 1 0.16500 119244.000000
3090 12284 1 0.16500 119244.000000
3090 13283 1 0.16500 119244.000000
3091 12284 1 0.16500 119244.000000
3091 13056 1 0.16500 119244.000000
3092 12284 1 0.16500 119244.000000
3092 14236 1 0.16500 119244.000000
3093 12284 1 0.16500 119244.000000
3093 12325 1 0.16500 119244.000000
3094 12285 1 0.16500 119244.000000
3094 14828 1 0.16500 119244.000000
3095 12285 1 0.16500 119244.000000
3095 12900 1 0.16500 119244.000000
3096 12285 1 0.16500 119244.000000
3096 14927 1 0.16500 119244.000000
3097 12286 1 0.16500 119244.000000
3097 13818 1 0.16500 119244.000000
3098 12286 1 0.16500 119244.000000
3098 13908 1 0.16500 119244.000000
3099 12286 1 0.16500 119244.000000
3099 15886 1 0.16500 119244.000000
3100 12287 1 0.16500 119244.000000
3100 16139 1 0.16500 119244.000000
3101 12287 1 0.16500 119244.000000
3101 20350 1 0.16500 119244.000000
3102 12288 1 0.16500 119244.000000
3102 14591 1 0.16500 119244.000000
3103 12288 1 0.16500 119244.000000
3103 13059 1 0.16500 119244.000000
3104 14831 1 0.16500 119244.000000
3104 18202 1 0.16500 119244.000000
3105 18202 1 0.16500 119244.000000
3105 20572 1 0.16500 119244.000000
3106 18202 1 0.16500 119244.000000
3106 20059 1 0.16500 119244.000000
3107 15472 1 0.16500 119244.000000
3107 16314 1 0.16500 119244.000000
3108 12624 1 0.16500 119244.000000
3108 15472 1 0.16500 119244.000000
3109 12289 1 0.16500 119244.000000
3109 18238 1 0.16500 119244.000000
3110 12290 1 0.16500 119244.000000
3110 16452 1 0.16500 119244.000000
3111 12290 1 0.16500 119244.000000
3111 13580 1 0.16500 119244.000000
3112 12290 1 0.16500 119244.000000
3112 14357 1 0.16500 119244.000000
3113 12291 1 0.16500 119244.000000
3113 14269 1 0.16500 119244.000000
3114 12291 1 0.16500 119244.000000
3114 16573 1 0.16500 119244.000000
3115 12291 1 0.16500 119244.000000
3115 12997 1 0.16500 119244.000000
3116 12291 1 0.16500 119244.000000
3116 16496 1 0.16500 119244.000000
3117 12292 1 0.16500 119244.000000
3117 13282 1 0.16500 119244.000000
3118 12292 1 0.16500 119244.000000
3118 14272 1 0.16500 119244.000000
3119 12293 1 0.16500 119244.000000
3119 20407 1 0.16500 119244.000000
3120 12293 1 0.16500 119244.000000
3120 14923 1 0.16500 119244.000000
3121 12293 1 0.16500 119244.000000
3121 15474 1 0.16500 119244.000000
3122 12294 1 0.16500 119244.000000
3122 14897 1 0.16500 119244.000000
3123 12294 1 0.16500 119244.000000
3123 15031 1 0.16500 119244.000000
3124 12294 1 0.16500 119244.000000
3124 15390 1 0.16500 119244.000000
3125 12294 1 0.16500 119244.000000
3125 15491 1 0.16500 119244.000000
3126 12295 1 0.16500 119244.000000
3126 14682 1 0.16500 119244.000000
3127 12295 1 0.16500 119244.000000
3127 15743 1 0.16500 119244.000000
3128 12295 1 0.16500 119244.000000
3128 16509 1 0.16500 119244.000000
3129 12295 1 0.16500 119244.000000
3129 16590 1 0.16500 119244.000000
3130 12296 1 0.16500 119244.000000
3130 14599 1 0.16500 119244.000000
3131 12296 1 0.16500 119244.000000
3131 13677 1 0.16500 119244.000000
3132 12296 1 0.16500 119244.000000
3132 12375 1 0.16500 119244.000000
3133 14167 1 0.16500 119244.000000
3133 15747 1 0.16500 119244.000000
3134 12297 1 0.16500 119244.000000
3134 14167 1 0.16500 119244.000000
3135 14167 1 0.16500 119244.000000
3135 15230 1 0.16500 119244.000000
3136 12297 1 0.16500 119244.000000
3136 15654 1 0.16500 119244.000000
3137 12298 1 0.16500 119244.000000
3137 16038 1 0.16500 119244.000000
3138 12298 1 0.16500 119244.000000
3138 15266 1 0.16500 119244.000000
3139 12298 1 0.16500 119244.000000
3139 13599 1 0.16500 119244.000000
3140 12299 1 0.16500 119244.000000
3140 16241 1 0.16500 119244.000000
3141 12299 1 0.16500 119244.000000
3141 15449 1 0.16500 119244.000000
3142 12299 1 0.16500 119244.000000
3142 13203 1 0.16500 119244.000000
3143 12299 1 0.16500 119244.000000
3143 14026 1 0.16500 119244.000000
3144 12300 1 0.16500 119244.000000
3144 14176 1 0.16500 119244.000000
3145 12300 1 0.16500 119244.000000
3145 14922 1 0.16500 119244.000000
3146 12300 1 0.16500 119244.000000
3146 13456 1 0.16500 119244.000000
3147 15738 1 0.16500 119244.000000
3147 18214 1 0.16500 119244.000000
3148 18226 1 0.16500 119244.000000
3148 20041 1 0.16500 119244.000000
3149 15942 1 0.16500 119244.000000
3149 18226 1 0.16500 119244.000000
3150 12301 1 0.16500 119244.000000
3150 14010 1 0.16500 119244.000000
3151 12301 1 0.16500 119244.000000
3151 13446 1 0.16500 119244.000000
3152 12301 1 0.16500 119244.000000
3152 12347 1 0.16500 119244.000000
3153 12301 1 0.16500 119244.000000
3153 13127 1 0.16500 119244.000000
3154 12302 1 0.16500 119244.000000
3154 15715 1 0.16500 119244.000000
3155 12302 1 0.16500 119244.000000
3155 16200 1 0.16500 119244.000000
3156 12302 1 0.16500 119244.000000
3156 13364 1 0.16500 119244.000000
3157 12303 1 0.16500 119244.000000
3157 13974 1 0.16500 119244.000000
3158 12303 1 0.16500 119244.000000
3158 15890 1 0.16500 119244.000000
3159 12303 1 0.16500 119244.000000
3159 16215 1 0.16500 119244.000000
3160 12303 1 0.16500 119244.000000
3160 15151 1 0.16500 119244.000000
3161 16651 1 0.16500 119244.000000
3161 18238 1 0.16500 119244.000000
3162 12304 1 0.16500 119244.000000
3162 16453 1 0.16500 119244.000000
3163 12304 1 0.16500 119244.000000
3163 15104 1 0.16500 119244.000000
3164 12304 1 0.16500 119244.000000
3164 12634 1 0.16500 119244.000000
3165 12305 1 0.16500 119244.000000
3165 13932 1 0.16500 119244.000000
3166 12305 1 0.16500 119244.000000
3166 13901 1 0.16500 119244.000000
3167 12305 1 0.16500 119244.000000
3167 12341 1 0.16500 119244.000000
3168 12305 1 0.16500 119244.000000
3168 12585 1 0.16500 119244.000000
3169 12306 1 0.16500 119244.000000
3169 14858 1 0.16500 119244.000000
3170 12306 1 0.16500 119244.000000
3170 15062 1 0.16500 119244.000000
3171 12306 1 0.16500 119244.000000
3171 13086 1 0.16500 119244.000000
3172 12306 1 0.16500 119244.000000
3172 13095 1 0.16500 119244.000000
3173 12307 1 0.16500 119244.000000
3173 13778 1 0.16500 119244.000000
3174 12307 1 0.16500 119244.000000
3174 14408 1 0.16500 119244.000000
3175 12307 1 0.16500 119244.000000
3175 13075 1 0.16500 119244.000000
3176 12307 1 0.16500 119244.000000
3176 13011 1 0.16500 119244.000000
3177 12308 1 0.16500 119244.000000
3177 13602 1 0.16500 119244.000000
3178 12308 1 0.16500 119244.000000
3178 15010 1 0.16500 119244.000000
3179 12308 1 0.16500 119244.000000
3179 13968 1 0.16500 119244.000000
3180 12308 1 0.16500 119244.000000
3180 12890 1 0.16500 119244.000000
3181 12309 1 0.16500 119244.000000
3181 13487 1 0.16500 119244.000000
3182 12309 1 0.16500 119244.000000
3182 13680 1 0.16500 119244.000000
3183 12309 1 0.16500 119244.000000
3183 15527 1 0.16500 119244.000000
3184 11410 1 0.16500 119244.000000
3184 17064 1 0.16500 119244.000000
3185 12310 1 0.16500 119244.000000
3185 16360 1 0.16500 119244.000000
3186 12310 1 0.16500 119244.000000
3186 13030 1 0.16500 119244.000000
3187 12310 1 0.16500 119244.000000
3187 14530 1 0.16500 119244.000000
3188 14777 1 0.16500 119244.000000
3188 18250 1 0.16500 119244.000000
3189 18250 1 0.16500 119244.000000
3189 20080 1 0.16500 119244.000000
3190 12311 1 0.16500 119244.000000
3190 14416 1 0.16500 119244.000000
3191 12311 1 0.16500 119244.000000
3191 13885 1 0.16500 119244.000000
3192 12311 1 0.16500 119244.000000
3192 15996 1 0.16500 119244.000000
3193 12311 1 0.16500 119244.000000
3193 12562 1 0.16500 119244.000000
3194 12312 1 0.16500 119244.000000
3194 16261 1 0.16500 119244.000000
3195 12312 1 0.16500 119244.000000
3195 20815 1 0.16500 119244.000000
3196 12484 1 0.16500 119244.000000
3196 16261 1 0.16500 119244.000000
3197 12312 1 0.16500 119244.000000
3197 14092 1 0.16500 119244.000000
3198 12313 1 0.16500 119244.000000
3198 16490 1 0.16500 119244.000000
3199 12313 1 0.16500 119244.000000
3199 13475 1 0.16500 119244.000000
3200 12313 1 0.16500 119244.000000
3200 13660 1 0.16500 119244.000000
3201 12313 1 0.16500 119244.000000
3201 16690 1 0.16500 119244.000000
3202 12314 1 0.16500 119244.000000
3202 13935 1 0.16500 119244.000000
3203 12314 1 0.16500 119244.000000
3203 13599 1 0.16500 119244.000000
3204 12314 1 0.16500 119244.000000
3204 15045 1 0.16500 119244.000000
3205 12314 1 0.16500 119244.000000
3205 14483 1 0.16500 119244.000000
3206 12315 1 0.16500 119244.000000
3206 16028 1 0.16500 119244.000000
3207 12315 1 0.16500 119244.000000
3207 20878 1 0.16500 119244.000000
3208 12315 1 0.16500 119244.000000
3208 14228 1 0.16500 119244.000000
3209 12316 1 0.16500 119244.000000
3209 15238 1 0.16500 119244.000000
3210 12316 1 0.16500 119244.000000
3210 14333 1 0.16500 119244.000000
3211 12316 1 0.16500 119244.000000
3211 15885 1 0.16500 119244.000000
3212 12316 1 0.16500 119244.000000
3212 15254 1 0.16500 119244.000000
3213 12317 1 0.16500 119244.000000
3213 12368 1 0.16500 119244.000000
3214 12398 1 0.16500 119244.000000
3214 15037 1 0.16500 119244.000000
3215 12317 1 0.16500 119244.000000
3215 12398 1 0.16500 119244.000000
3216 12318 1 0.16500 119244.000000
3216 13134 1 0.16500 119244.000000
3217 12318 1 0.16500 119244.000000
3217 12331 1 0.16500 119244.000000
3218 12318 1 0.16500 119244.000000
3218 14699 1 0.16500 119244.000000
3219 12319 1 0.16500 119244.000000
3219 12726 1 0.16500 119244.000000
3220 12319 1 0.16500 119244.000000
3220 20353 1 0.16500 119244.000000
3221 12319 1 0.16500 119244.000000
3221 20898 1 0.16500 119244.000000
3222 12319 1 0.16500 119244.000000
3222 12331 1 0.16500 119244.000000
3223 18262 1 0.16500 119244.000000
3223 20326 1 0.16500 119244.000000
3224 16058 1 0.16500 119244.000000
3224 18262 1 0.16500 119244.000000
3225 12320 1 0.16500 119244.000000
3225 16358 1 0.16500 119244.000000
3226 12320 1 0.16500 119244.000000
3226 14240 1 0.16500 119244.000000
3227 12320 1 0.16500 119244.000000
3227 13305 1 0.16500 119244.000000
3228 12320 1 0.16500 119244.000000
3228 13654 1 0.16500 119244.000000
3229 12321 1 0.16500 119244.000000
3229 15561 1 0.16500 119244.000000
3230 12321 1 0.16500 119244.000000
3230 13691 1 0.16500 119244.000000
3231 12321 1 0.16500 119244.000000
3231 12706 1 0.16500 119244.000000
3232 12321 1 0.16500 119244.000000
3232 12592 1 0.16500 119244.000000
3233 12322 1 0.16500 119244.000000
3233 13135 1 0.16500 119244.000000
3234 11780 1 0.16500 119244.000000
3234 12602 1 0.16500 119244.000000
3235 11780 1 0.16500 119244.000000
3235 14003 1 0.16500 119244.000000
3236 12323 1 0.16500 119244.000000
3236 13230 1 0.16500 119244.000000
3237 12323 1 0.16500 119244.000000
3237 15259 1 0.16500 119244.000000
3238 12323 1 0.16500 119244.000000
3238 16694 1 0.16500 119244.000000
3239 12323 1 0.16500 119244.000000
3239 13310 1 0.16500 119244.000000
3240 12324 1 0.16500 119244.000000
3240 13994 1 0.16500 119244.000000
3241 12324 1 0.16500 119244.000000
3241 15138 1 0.16500 119244.000000
3242 12324 1 0.16500 119244.000000
3242 16076 1 0.16500 119244.000000
3243 12325 1 0.16500 119244.000000
3243 15661 1 0.16500 119244.000000
3244 12325 1 0.16500 119244.000000
3244 13569 1 0.16500 119244.000000
3245 12325 1 0.16500 119244.000000
3245 12981 1 0.16500 119244.000000
3246 12326 1 0.16500 119244.000000
3246 13095 1 0.16500 119244.000000
3247 12326 1 0.16500 119244.000000
3247 13754 1 0.16500 119244.000000
3248 12326 1 0.16500 119244.000000
3248 18250 1 0.16500 119244.000000
3249 12326 1 0.16500 119244.000000
3249 12525 1 0.16500 119244.000000
3250 12327 1 0.16500 119244.000000
3250 12509 1 0.16500 119244.000000
3251 12327 1 0.16500 119244.000000
3251 14366 1 0.16500 119244.000000
3252 12327 1 0.16500 119244.000000
3252 13944 1 0.16500 119244.000000
3253 12328 1 0.16500 119244.000000
3253 13070 1 0.16500 119244.000000
3254 12328 1 0.16500 119244.000000
3254 15843 1 0.16500 119244.000000
3255 12328 1 0.16500 119244.000000
3255 13143 1 0.16500 119244.000000
3256 12329 1 0.16500 119244.000000
3256 16323 1 0.16500 119244.000000
3257 12329 1 0.16500 119244.000000
3257 14341 1 0.16500 119244.000000
3258 12329 1 0.16500 119244.000000
3258 15590 1 0.16500 119244.000000
3259 12329 1 0.16500 119244.000000
3259 12438 1 0.16500 119244.000000
3260 12330 1 0.16500 119244.000000
3260 13906 1 0.16500 119244.000000
3261 12330 1 0.16500 119244.000000
3261 13816 1 0.16500 119244.000000
3262 12330 1 0.16500 119244.000000
3262 13691 1 0.16500 119244.000000
3263 12330 1 0.16500 119244.000000
3263 14017 1 0.16500 119244.000000
3264 12331 1 0.16500 119244.000000
3264 14288 1 0.16500 119244.000000
3265 12332 1 0.16500 119244.000000
3265 13203 1 0.16500 119244.000000
3266 12332 1 0.16500 119244.000000
3266 12695 1 0.16500 119244.000000
3267 12332 1 0.16500 119244.000000
3267 13085 1 0.16500 119244.000000
3268 12332 1 0.16500 119244.000000
3268 13527 1 0.16500 119244.000000
3269 12333 1 0.16500 119244.000000
3269 15689 1 0.16500 119244.000000
3270 12333 1 0.16500 119244.000000
3270 13736 1 0.16500 119244.000000
3271 12333 1 0.16500 119244.000000
3271 12685 1 0.16500 119244.000000
3272 12333 1 0.16500 119244.000000
3272 14584 1 0.16500 119244.000000
3273 12334 1 0.16500 119244.000000
3273 13475 1 0.16500 119244.000000
3274 12334 1 0.16500 119244.000000
3274 12447 1 0.16500 119244.000000
3275 12334 1 0.16500 119244.000000
3275 16665 1 0.16500 119244.000000
3276 12334 1 0.16500 119244.000000
3276 15809 1 0.16500 119244.000000
3277 12335 1 0.16500 119244.000000
3277 15557 1 0.16500 119244.000000
3278 12335 1 0.16500 119244.000000
3278 15045 1 0.16500 119244.000000
3279 12336 1 0.16500 119244.000000
3279 12524 1 0.16500 119244.000000
3280 12336 1 0.16500 119244.000000
3280 15479 1 0.16500 119244.000000
3281 12336 1 0.16500 119244.000000
3281 13654 1 0.16500 119244.000000
3282 12337 1 0.16500 119244.000000
3282 16587 1 0.16500 119244.000000
3283 12337 1 0.16500 119244.000000
3283 16676 1 0.16500 119244.000000
3284 12599 1 0.16500 119244.000000
3284 18274 1 0.16500 119244.000000
3285 18274 1 0.16500 119244.000000
3285 20446 1 0.16500 119244.000000
3286 12338 1 0.16500 119244.000000
3286 13262 1 0.16500 119244.000000
3287 12338 1 0.16500 119244.000000
3287 15853 1 0.16500 119244.000000
3288 12339 1 0.16500 119244.000000
3288 13696 1 0.16500 119244.000000
3289 12339 1 0.16500 119244.000000
3289 13468 1 0.16500 119244.000000
3290 12339 1 0.16500 119244.000000
3290 13317 1 0.16500 119244.000000
3291 13020 1 0.16500 119244.000000
3291 13597 1 0.16500 119244.000000
3292 12340 1 0.16500 119244.000000
3292 13576 1 0.16500 119244.000000
3293 12340 1 0.16500 119244.000000
3293 13020 1 0.16500 119244.000000
3294 12340 1 0.16500 119244.000000
3294 13442 1 0.16500 119244.000000
3295 12341 1 0.16500 119244.000000
3295 13621 1 0.16500 119244.000000
3296 12341 1 0.16500 119244.000000
3296 15032 1 0.16500 119244.000000
3297 12341 1 0.16500 119244.000000
3297 14087 1 0.16500 119244.000000
3298 13330 1 0.16500 119244.000000
3298 13915 1 0.16500 119244.000000
3299 12342 1 0.16500 119244.000000
3299 12836 1 0.16500 119244.000000
3300 12342 1 0.16500 119244.000000
3300 13330 1 0.16500 119244.000000
3301 12342 1 0.16500 119244.000000
3301 19222 1 0.16500 119244.000000
3302 13306 1 0.16500 119244.000000
3302 18286 1 0.16500 119244.000000
3303 18286 1 0.16500 119244.000000
3303 18658 1 0.16500 119244.000000
3304 15503 1 0.16500 119244.000000
3304 18286 1 0.16500 119244.000000
3305 12343 1 0.16500 119244.000000
3305 15464 1 0.16500 119244.000000
3306 12343 1 0.16500 119244.000000
3306 14359 1 0.16500 119244.000000
3307 12343 1 0.16500 119244.000000
3307 15200 1 0.16500 119244.000000
3308 12343 1 0.16500 119244.000000
3308 12550 1 0.16500 119244.000000
3309 12159 1 0.16500 119244.000000
3309 12344 1 0.16500 119244.000000
3310 12344 1 0.16500 119244.000000
3310 12853 1 0.16500 119244.000000
3311 12344 1 0.16500 119244.000000
3311 13799 1 0.16500 119244.000000
3312 12344 1 0.16500 119244.000000
3312 16275 1 0.16500 119244.000000
3313 12345 1 0.16500 119244.000000
3313 15973 1 0.16500 119244.000000
3314 12345 1 0.16500 119244.000000
3314 16096 1 0.16500 119244.000000
3315 12345 1 0.16500 119244.000000
3315 12471 1 0.16500 119244.000000
3316 12345 1 0.16500 119244.000000
3316 16276 1 0.16500 119244.000000
3317 12346 1 0.16500 119244.000000
3317 14445 1 0.16500 119244.000000
3318 12346 1 0.16500 119244.000000
3318 16004 1 0.16500 119244.000000
3319 12346 1 0.16500 119244.000000
3319 14535 1 0.16500 119244.000000
3320 12347 1 0.16500 119244.000000
3320 15681 1 0.16500 119244.000000
3321 12347 1 0.16500 119244.000000
3321 16264 1 0.16500 119244.000000
3322 12347 1 0.16500 119244.000000
3322 13762 1 0.16500 119244.000000
3323 12348 1 0.16500 119244.000000
3323 14836 1 0.16500 119244.000000
3324 12348 1 0.16500 119244.000000
3324 13221 1 0.16500 119244.000000
3325 12349 1 0.16500 119244.000000
3325 13495 1 0.16500 119244.000000
3326 12349 1 0.16500 119244.000000
3326 14488 1 0.16500 119244.000000
3327 12349 1 0.16500 119244.000000
3327 13656 1 0.16500 119244.000000
3328 13206 1 0.16500 119244.000000
3328 14488 1 0.16500 119244.000000
3329 12350 1 0.16500 119244.000000
3329 13781 1 0.16500 119244.000000
3330 12350 1 0.16500 119244.000000
3330 13489 1 0.16500 119244.000000
3331 12350 1 0.16500 119244.000000
3331 12949 1 0.16500 119244.000000
3332 12350 1 0.16500 119244.000000
3332 16868 1 0.16500 119244.000000
3333 18298 1 0.16500 119244.000000
3333 20305 1 0.16500 119244.000000
3334 14162 1 0.16500 119244.000000
3334 18298 1 0.16500 119244.000000
3335 14125 1 0.16500 119244.000000
3335 18298 1 0.16500 119244.000000
3336 12351 1 0.16500 119244.000000
3336 15508 1 0.16500 119244.000000
3337 12351 1 0.16500 119244.000000
3337 12786 1 0.16500 119244.000000
3338 12352 1 0.16500 119244.000000
3338 15709 1 0.16500 119244.000000
3339 12352 1 0.16500 119244.000000
3339 16080 1 0.16500 119244.000000
3340 12353 1 0.16500 119244.000000
3340 13725 1 0.16500 119244.000000
3341 12353 1 0.16500 119244.000000
3341 13328 1 0.16500 119244.000000
3342 12353 1 0.16500 119244.000000
3342 13431 1 0.16500 119244.000000
3343 12353 1 0.16500 119244.000000
3343 15913 1 0.16500 119244.000000
3344 12354 1 0.16500 119244.000000
3344 13887 1 0.16500 119244.000000
3345 12354 1 0.16500 119244.000000
3345 20479 1 0.16500 119244.000000
3346 12354 1 0.16500 119244.000000
3346 12720 1 0.16500 119244.000000
3347 12354 1 0.16500 119244.000000
3347 17974 1 0.16500 119244.000000
3348 12355 1 0.16500 119244.000000
3348 14848 1 0.16500 119244.000000
3349 12355 1 0.16500 119244.000000
3349 14599 1 0.16500 119244.000000
3350 12355 1 0.16500 119244.000000
3350 12684 1 0.16500 119244.000000
3351 13924 1 0.16500 119244.000000
3351 18310 1 0.16500 119244.000000
3352 15300 1 0.16500 119244.000000
3352 18310 1 0.16500 119244.000000
3353 16416 1 0.16500 119244.000000
3353 18310 1 0.16500 119244.000000
3354 12356 1 0.16500 119244.000000
3354 14711 1 0.16500 119244.000000
3355 12356 1 0.16500 119244.000000
3355 16272 1 0.16500 119244.000000
3356 12356 1 0.16500 119244.000000
3356 14749 1 0.16500 119244.000000
3357 14159 1 0.16500 119244.000000
3357 16686 1 0.16500 119244.000000
3358 12357 1 0.16500 119244.000000
3358 19558 1 0.16500 119244.000000
3359 12357 1 0.16500 119244.000000
3359 14159 1 0.16500 119244.000000
3360 12357 1 0.16500 119244.000000
3360 12570 1 0.16500 119244.000000
3361 12358 1 0.16500 119244.000000
3361 14653 1 0.16500 119244.000000
3362 12358 1 0.16500 119244.000000
3362 16398 1 0.16500 119244.000000
3363 12358 1 0.16500 119244.000000
3363 13137 1 0.16500 119244.000000
3364 12359 1 0.16500 119244.000000
3364 12602 1 0.16500 119244.000000
3365 12359 1 0.16500 119244.000000
3365 18658 1 0.16500 119244.000000
3366 13628 1 0.16500 119244.000000
3366 16489 1 0.16500 119244.000000
3367 12359 1 0.16500 119244.000000
3367 13628 1 0.16500 119244.000000
3368 12360 1 0.16500 119244.000000
3368 13266 1 0.16500 119244.000000
3369 12360 1 0.16500 119244.000000
3369 13276 1 0.16500 119244.000000
3370 12360 1 0.16500 119244.000000
3370 15854 1 0.16500 119244.000000
3371 13481 1 0.16500 119244.000000
3371 18322 1 0.16500 119244.000000
3372 12361 1 0.16500 119244.000000
3372 13629 1 0.16500 119244.000000
3373 12361 1 0.16500 119244.000000
3373 13256 1 0.16500 119244.000000
3374 12361 1 0.16500 119244.000000
3374 12378 1 0.16500 119244.000000
3375 12361 1 0.16500 119244.000000
3375 15485 1 0.16500 119244.000000
3376 14702 1 0.16500 119244.000000
3376 18334 1 0.16500 119244.000000
3377 15452 1 0.16500 119244.000000
3377 18334 1 0.16500 119244.000000
3378 15408 1 0.16500 119244.000000
3378 18334 1 0.16500 119244.000000
3379 13466 1 0.16500 119244.000000
3379 18346 1 0.16500 119244.000000
3380 18346 1 0.16500 119244.000000
3380 20599 1 0.16500 119244.000000
3381 12362 1 0.16500 119244.000000
3381 14875 1 0.16500 119244.000000
3382 12362 1 0.16500 119244.000000
3382 14761 1 0.16500 119244.000000
3383 12362 1 0.16500 119244.000000
3383 12848 1 0.16500 119244.000000
3384 12362 1 0.16500 119244.000000
3384 14131 1 0.16500 119244.000000
3385 15057 1 0.16500 119244.000000
3385 18358 1 0.16500 119244.000000
3386 12898 1 0.16500 119244.000000
3386 18358 1 0.16500 119244.000000
3387 13560 1 0.16500 119244.000000
3387 18358 1 0.16500 119244.000000
3388 12363 1 0.16500 119244.000000
3388 15999 1 0.16500 119244.000000
3389 12363 1 0.16500 119244.000000
3389 13193 1 0.16500 119244.000000
3390 12363 1 0.16500 119244.000000
3390 14520 1 0.16500 119244.000000
3391 12363 1 0.16500 119244.000000
3391 13768 1 0.16500 119244.000000
3392 12364 1 0.16500 119244.000000
3392 14360 1 0.16500 119244.000000
3393 12364 1 0.16500 119244.000000
3393 12992 1 0.16500 119244.000000
3394 12364 1 0.16500 119244.000000
3394 16615 1 0.16500 119244.000000
3395 12364 1 0.16500 119244.000000
3395 13740 1 0.16500 119244.000000
3396 12365 1 0.16500 119244.000000
3396 12629 1 0.16500 119244.000000
3397 12365 1 0.16500 119244.000000
3397 14287 1 0.16500 119244.000000
3398 12365 1 0.16500 119244.000000
3398 16569 1 0.16500 119244.000000
3399 12366 1 0.16500 119244.000000
3399 16126 1 0.16500 119244.000000
3400 12366 1 0.16500 119244.000000
3400 13556 1 0.16500 119244.000000
3401 12366 1 0.16500 119244.000000
3401 13967 1 0.16500 119244.000000
3402 12367 1 0.16500 119244.000000
3402 14879 1 0.16500 119244.000000
3403 12367 1 0.16500 119244.000000
3403 13835 1 0.16500 119244.000000
3404 12367 1 0.16500 119244.000000
3404 15364 1 0.16500 119244.000000
3405 12367 1 0.16500 119244.000000
3405 14290 1 0.16500 119244.000000
3406 12368 1 0.16500 119244.000000
3406 16286 1 0.16500 119244.000000
3407 12669 1 0.16500 119244.000000
3407 14985 1 0.16500 119244.000000
3408 12369 1 0.16500 119244.000000
3408 12669 1 0.16500 119244.000000
3409 12369 1 0.16500 119244.000000
3409 15324 1 0.16500 119244.000000
3410 12370 1 0.16500 119244.000000
3410 16341 1 0.16500 119244.000000
3411 12370 1 0.16500 119244.000000
3411 16513 1 0.16500 119244.000000
3412 12370 1 0.16500 119244.000000
3412 14551 1 0.16500 119244.000000
3413 12370 1 0.16500 119244.000000
3413 16420 1 0.16500 119244.000000
3414 12371 1 0.16500 119244.000000
3414 13140 1 0.16500 119244.000000
3415 13140 1 0.16500 119244.000000
3415 14168 1 0.16500 119244.000000
3416 12371 1 0.16500 119244.000000
3416 12961 1 0.16500 119244.000000
3417 14764 1 0.16500 119244.000000
3417 18370 1 0.16500 119244.000000
3418 18370 1 0.16500 119244.000000
3418 20938 1 0.16500 119244.000000
3419 13485 1 0.16500 119244.000000
3419 18370 1 0.16500 119244.000000
3420 12372 1 0.16500 119244.000000
3420 14729 1 0.16500 119244.000000
3421 12372 1 0.16500 119244.000000
3421 15164 1 0.16500 119244.000000
3422 12372 1 0.16500 119244.000000
3422 15713 1 0.16500 119244.000000
3423 12372 1 0.16500 119244.000000
3423 15750 1 0.16500 119244.000000
3424 12373 1 0.16500 119244.000000
3424 15697 1 0.16500 119244.000000
3425 12373 1 0.16500 119244.000000
3425 20119 1 0.16500 119244.000000
3426 12374 1 0.16500 119244.000000
3426 15563 1 0.16500 119244.000000
3427 12374 1 0.16500 119244.000000
3427 14097 1 0.16500 119244.000000
3428 12374 1 0.16500 119244.000000
3428 16068 1 0.16500 119244.000000
3429 12374 1 0.16500 119244.000000
3429 14758 1 0.16500 119244.000000
3430 15384 1 0.16500 119244.000000
3430 18382 1 0.16500 119244.000000
3431 14502 1 0.16500 119244.000000
3431 18382 1 0.16500 119244.000000
3432 12229 1 0.16500 119244.000000
3432 12375 1 0.16500 119244.000000
3433 12375 1 0.16500 119244.000000
3433 14161 1 0.16500 119244.000000
3434 12388 1 0.16500 119244.000000
3434 18190 1 0.16500 119244.000000
3435 12376 1 0.16500 119244.000000
3435 14788 1 0.16500 119244.000000
3436 12376 1 0.16500 119244.000000
3436 12417 1 0.16500 119244.000000
3437 12376 1 0.16500 119244.000000
3437 14973 1 0.16500 119244.000000
3438 12376 1 0.16500 119244.000000
3438 14725 1 0.16500 119244.000000
3439 12377 1 0.16500 119244.000000
3439 12992 1 0.16500 119244.000000
3440 12377 1 0.16500 119244.000000
3440 13043 1 0.16500 119244.000000
3441 12377 1 0.16500 119244.000000
3441 16487 1 0.16500 119244.000000
3442 12377 1 0.16500 119244.000000
3442 15542 1 0.16500 119244.000000
3443 12378 1 0.16500 119244.000000
3443 20317 1 0.16500 119244.000000
3444 12379 1 0.16500 119244.000000
3444 13118 1 0.16500 119244.000000
3445 12379 1 0.16500 119244.000000
3445 13524 1 0.16500 119244.000000
3446 12379 1 0.16500 119244.000000
3446 13786 1 0.16500 119244.000000
3447 12379 1 0.16500 119244.000000
3447 13585 1 0.16500 119244.000000
3448 12380 1 0.16500 119244.000000
3448 13005 1 0.16500 119244.000000
3449 12380 1 0.16500 119244.000000
3449 14628 1 0.16500 119244.000000
3450 12317 1 0.16500 119244.000000
3450 12380 1 0.16500 119244.000000
3451 12380 1 0.16500 119244.000000
3451 15739 1 0.16500 119244.000000
3452 12381 1 0.16500 119244.000000
3452 14652 1 0.16500 119244.000000
3453 12381 1 0.16500 119244.000000
3453 13329 1 0.16500 119244.000000
3454 12382 1 0.16500 119244.000000
3454 14769 1 0.16500 119244.000000
3455 12382 1 0.16500 119244.000000
3455 12414 1 0.16500 119244.000000
3456 12382 1 0.16500 119244.000000
3456 15808 1 0.16500 119244.000000
3457 12383 1 0.16500 119244.000000
3457 16270 1 0.16500 119244.000000
3458 14791 1 0.16500 119244.000000
3458 16623 1 0.16500 119244.000000
3459 12383 1 0.16500 119244.000000
3459 12962 1 0.16500 119244.000000
3460 12384 1 0.16500 119244.000000
3460 15704 1 0.16500 119244.000000
3461 12384 1 0.16500 119244.000000
3461 14337 1 0.16500 119244.000000
3462 12384 1 0.16500 119244.000000
3462 15910 1 0.16500 119244.000000
3463 12384 1 0.16500 119244.000000
3463 20845 1 0.16500 119244.000000
3464 11605 1 0.16500 119244.000000
3464 12385 1 0.16500 119244.000000
3465 12385 1 0.16500 119244.000000
3465 14838 1 0.16500 119244.000000
3466 12385 1 0.16500 119244.000000
3466 15205 1 0.16500 119244.000000
3467 12385 1 0.16500 119244.000000
3467 16059 1 0.16500 119244.000000
3468 12386 1 0.16500 119244.000000
3468 15985 1 0.16500 119244.000000
3469 12386 1 0.16500 119244.000000
3469 14153 1 0.16500 119244.000000
3470 12386 1 0.16500 119244.000000
3470 20767 1 0.16500 119244.000000
3471 12387 1 0.16500 119244.000000
3471 13640 1 0.16500 119244.000000
3472 12387 1 0.16500 119244.000000
3472 15018 1 0.16500 119244.000000
3473 12387 1 0.16500 119244.000000
3473 15014 1 0.16500 119244.000000
3474 12387 1 0.16500 119244.000000
3474 13449 1 0.16500 119244.000000
3475 12388 1 0.16500 119244.000000
3475 15676 1 0.16500 119244.000000
3476 12388 1 0.16500 119244.000000
3476 14394 1 0.16500 119244.000000
3477 12467 1 0.16500 119244.000000
3477 18394 1 0.16500 119244.000000
3478 14246 1 0.16500 119244.000000
3478 18394 1 0.16500 119244.000000
3479 18394 1 0.16500 119244.000000
3479 20053 1 0.16500 119244.000000
3480 12389 1 0.16500 119244.000000
3480 13453 1 0.16500 119244.000000
3481 12389 1 0.16500 119244.000000
3481 15994 1 0.16500 119244.000000
3482 12389 1 0.16500 119244.000000
3482 14265 1 0.16500 119244.000000
3483 12389 1 0.16500 119244.000000
3483 13977 1 0.16500 119244.000000
3484 12390 1 0.16500 119244.000000
3484 14978 1 0.16500 119244.000000
3485 12390 1 0.16500 119244.000000
3485 16685 1 0.16500 119244.000000
3486 12391 1 0.16500 119244.000000
3486 15525 1 0.16500 119244.000000
3487 12391 1 0.16500 119244.000000
3487 13447 1 0.16500 119244.000000
3488 12391 1 0.16500 119244.000000
3488 14889 1 0.16500 119244.000000
3489 12392 1 0.16500 119244.000000
3489 16519 1 0.16500 119244.000000
3490 12257 1 0.16500 119244.000000
3490 12392 1 0.16500 119244.000000
3491 12392 1 0.16500 119244.000000
3491 13234 1 0.16500 119244.000000
3492 19999 1 0.16500 119244.000000
3492 20533 1 0.16500 119244.000000
3493 19999 1 0.16500 119244.000000
3493 20578 1 0.16500 119244.000000
3494 16237 1 0.16500 119244.000000
3494 20281 1 0.16500 119244.000000
3495 12393 1 0.16500 119244.000000
3495 13751 1 0.16500 119244.000000
3496 12393 1 0.16500 119244.000000
3496 15178 1 0.16500 119244.000000
3497 12393 1 0.16500 119244.000000
3497 15893 1 0.16500 119244.000000
3498 12393 1 0.16500 119244.000000
3498 14969 1 0.16500 119244.000000
3499 12394 1 0.16500 119244.000000
3499 16356 1 0.16500 119244.000000
3500 12394 1 0.16500 119244.000000
3500 18574 1 0.16500 119244.000000
3501 12394 1 0.16500 119244.000000
3501 13950 1 0.16500 119244.000000
3502 12394 1 0.16500 119244.000000
3502 14935 1 0.16500 119244.000000
3503 12395 1 0.16500 119244.000000
3503 13574 1 0.16500 119244.000000
3504 12395 1 0.16500 119244.000000
3504 20038 1 0.16500 119244.000000
3505 12395 1 0.16500 119244.000000
3505 16191 1 0.16500 119244.000000
3506 12396 1 0.16500 119244.000000
3506 14369 1 0.16500 119244.000000
3507 12396 1 0.16500 119244.000000
3507 15113 1 0.16500 119244.000000
3508 12396 1 0.16500 119244.000000
3508 14965 1 0.16500 119244.000000
3509 12396 1 0.16500 119244.000000
3509 15957 1 0.16500 119244.000000
3510 12397 1 0.16500 119244.000000
3510 13906 1 0.16500 119244.000000
3511 12397 1 0.16500 119244.000000
3511 13919 1 0.16500 119244.000000
3512 12397 1 0.16500 119244.000000
3512 15118 1 0.16500 119244.000000
3513 12397 1 0.16500 119244.000000
3513 16421 1 0.16500 119244.000000
3514 12398 1 0.16500 119244.000000
3514 15012 1 0.16500 119244.000000
3515 12398 1 0.16500 119244.000000
3515 15982 1 0.16500 119244.000000
3516 12399 1 0.16500 119244.000000
3516 15464 1 0.16500 119244.000000
3517 12399 1 0.16500 119244.000000
3517 12717 1 0.16500 119244.000000
3518 12400 1 0.16500 119244.000000
3518 14278 1 0.16500 119244.000000
3519 12400 1 0.16500 119244.000000
3519 13671 1 0.16500 119244.000000
3520 12400 1 0.16500 119244.000000
3520 13103 1 0.16500 119244.000000
3521 12401 1 0.16500 119244.000000
3521 15923 1 0.16500 119244.000000
3522 12401 1 0.16500 119244.000000
3522 13448 1 0.16500 119244.000000
3523 12401 1 0.16500 119244.000000
3523 16038 1 0.16500 119244.000000
3524 12401 1 0.16500 119244.000000
3524 16032 1 0.16500 119244.000000
3525 12402 1 0.16500 119244.000000
3525 14362 1 0.16500 119244.000000
3526 12402 1 0.16500 119244.000000
3526 15513 1 0.16500 119244.000000
3527 12402 1 0.16500 119244.000000
3527 20515 1 0.16500 119244.000000
3528 12403 1 0.16500 119244.000000
3528 16554 1 0.16500 119244.000000
3529 12403 1 0.16500 119244.000000
3529 16284 1 0.16500 119244.000000
3530 12403 1 0.16500 119244.000000
3530 15745 1 0.16500 119244.000000
3531 12404 1 0.16500 119244.000000
3531 13991 1 0.16500 119244.000000
3532 12404 1 0.16500 119244.000000
3532 13336 1 0.16500 119244.000000
3533 12404 1 0.16500 119244.000000
3533 13799 1 0.16500 119244.000000
3534 12404 1 0.16500 119244.000000
3534 15866 1 0.16500 119244.000000
3535 12405 1 0.16500 119244.000000
3535 12867 1 0.16500 119244.000000
3536 12405 1 0.16500 119244.000000
3536 16685 1 0.16500 119244.000000
3537 12405 1 0.16500 119244.000000
3537 18030 1 0.16500 119244.000000
3538 12406 1 0.16500 119244.000000
3538 16611 1 0.16500 119244.000000
3539 12406 1 0.16500 119244.000000
3539 19318 1 0.16500 119244.000000
3540 12406 1 0.16500 119244.000000
3540 16784 1 0.16500 119244.000000
3541 12406 1 0.16500 119244.000000
3541 14232 1 0.16500 119244.000000
3542 12407 1 0.16500 119244.000000
3542 12589 1 0.16500 119244.000000
3543 12407 1 0.16500 119244.000000
3543 20933 1 0.16500 119244.000000
3544 12407 1 0.16500 119244.000000
3544 14439 1 0.16500 119244.000000
3545 12407 1 0.16500 119244.000000
3545 14645 1 0.16500 119244.000000
3546 12408 1 0.16500 119244.000000
3546 16070 1 0.16500 119244.000000
3547 12408 1 0.16500 119244.000000
3547 12766 1 0.16500 119244.000000
3548 12408 1 0.16500 119244.000000
3548 14869 1 0.16500 119244.000000
3549 12409 1 0.16500 119244.000000
3549 20110 1 0.16500 119244.000000
3550 12409 1 0.16500 119244.000000
3550 14796 1 0.16500 119244.000000
3551 12409 1 0.16500 119244.000000
3551 14920 1 0.16500 119244.000000
3552 12409 1 0.16500 119244.000000
3552 15572 1 0.16500 119244.000000
3553 12410 1 0.16500 119244.000000
3553 14384 1 0.16500 119244.000000
3554 12410 1 0.16500 119244.000000
3554 13866 1 0.16500 119244.000000
3555 12411 1 0.16500 119244.000000
3555 16413 1 0.16500 119244.000000
3556 12411 1 0.16500 119244.000000
3556 12645 1 0.16500 119244.000000
3557 12411 1 0.16500 119244.000000
3557 16459 1 0.16500 119244.000000
3558 12411 1 0.16500 119244.000000
3558 15145 1 0.16500 119244.000000
3559 18406 1 0.16500 119244.000000
3559 20536 1 0.16500 119244.000000
3560 17540 1 0.16500 119244.000000
3560 18406 1 0.16500 119244.000000
3561 13887 1 0.16500 119244.000000
3561 18406 1 0.16500 119244.000000
3562 15987 1 0.16500 119244.000000
3562 16612 1 0.16500 119244.000000
3563 12412 1 0.16500 119244.000000
3563 12503 1 0.16500 119244.000000
3564 12412 1 0.16500 119244.000000
3564 15987 1 0.16500 119244.000000
3565 13027 1 0.16500 119244.000000
3565 15987 1 0.16500 119244.000000
3566 13732 1 0.16500 119244.000000
3566 18418 1 0.16500 119244.000000
3567 18418 1 0.16500 119244.000000
3567 20659 1 0.16500 119244.000000
3568 18418 1 0.16500 119244.000000
3568 20512 1 0.16500 119244.000000
3569 18430 1 0.16500 119244.000000
3569 20998 1 0.16500 119244.000000
3570 15961 1 0.16500 119244.000000
3570 18430 1 0.16500 119244.000000
3571 12413 1 0.16500 119244.000000
3571 14726 1 0.16500 119244.000000
3572 12413 1 0.16500 119244.000000
3572 13445 1 0.16500 119244.000000
3573 12413 1 0.16500 119244.000000
3573 14568 1 0.16500 119244.000000
3574 12413 1 0.16500 119244.000000
3574 12656 1 0.16500 119244.000000
3575 12414 1 0.16500 119244.000000
3575 13007 1 0.16500 119244.000000
3576 12414 1 0.16500 119244.000000
3576 16399 1 0.16500 119244.000000
3577 11859 1 0.16500 119244.000000
3577 13453 1 0.16500 119244.000000
3578 12415 1 0.16500 119244.000000
3578 13573 1 0.16500 119244.000000
3579 12415 1 0.16500 119244.000000
3579 14265 1 0.16500 119244.000000
3580 12416 1 0.16500 119244.000000
3580 16354 1 0.16500 119244.000000
3581 12416 1 0.16500 119244.000000
3581 15788 1 0.16500 119244.000000
3582 12416 1 0.16500 119244.000000
3582 15546 1 0.16500 119244.000000
3583 12417 1 0.16500 119244.000000
3583 14499 1 0.16500 119244.000000
3584 12418 1 0.16500 119244.000000
3584 15314 1 0.16500 119244.000000
3585 12418 1 0.16500 119244.000000
3585 15731 1 0.16500 119244.000000
3586 12418 1 0.16500 119244.000000
3586 13116 1 0.16500 119244.000000
3587 13246 1 0.16500 119244.000000
3587 16426 1 0.16500 119244.000000
3588 12419 1 0.16500 119244.000000
3588 13246 1 0.16500 119244.000000
3589 12419 1 0.16500 119244.000000
3589 16520 1 0.16500 119244.000000
3590 12419 1 0.16500 119244.000000
3590 13360 1 0.16500 119244.000000
3591 12420 1 0.16500 119244.000000
3591 15665 1 0.16500 119244.000000
3592 12420 1 0.16500 119244.000000
3592 12752 1 0.16500 119244.000000
3593 12420 1 0.16500 119244.000000
3593 13104 1 0.16500 119244.000000
3594 12420 1 0.16500 119244.000000
3594 15321 1 0.16500 119244.000000
3595 12421 1 0.16500 119244.000000
3595 13936 1 0.16500 119244.000000
3596 12421 1 0.16500 119244.000000
3596 16080 1 0.16500 119244.000000
3597 12421 1 0.16500 119244.000000
3597 14533 1 0.16500 119244.000000
3598 12422 1 0.16500 119244.000000
3598 15072 1 0.16500 119244.000000
3599 12422 1 0.16500 119244.000000
3599 12603 1 0.16500 119244.000000
3600 12422 1 0.16500 119244.000000
3600 12514 1 0.16500 119244.000000
3601 18442 1 0.16500 119244.000000
3601 20416 1 0.16500 119244.000000
3602 12423 1 0.16500 119244.000000
3602 14751 1 0.16500 119244.000000
3603 12423 1 0.16500 119244.000000
3603 19582 1 0.16500 119244.000000
3604 12423 1 0.16500 119244.000000
3604 19570 1 0.16500 119244.000000
3605 12424 1 0.16500 119244.000000
3605 14472 1 0.16500 119244.000000
3606 12424 1 0.16500 119244.000000
3606 14104 1 0.16500 119244.000000
3607 12424 1 0.16500 119244.000000
3607 14508 1 0.16500 119244.000000
3608 12424 1 0.16500 119244.000000
3608 14390 1 0.16500 119244.000000
3609 12425 1 0.16500 119244.000000
3609 15271 1 0.16500 119244.000000
3610 12425 1 0.16500 119244.000000
3610 14317 1 0.16500 119244.000000
3611 12425 1 0.16500 119244.000000
3611 16189 1 0.16500 119244.000000
3612 12425 1 0.16500 119244.000000
3612 15453 1 0.16500 119244.000000
3613 12426 1 0.16500 119244.000000
3613 14982 1 0.16500 119244.000000
3614 12426 1 0.16500 119244.000000
3614 12843 1 0.16500 119244.000000
3615 12426 1 0.16500 119244.000000
3615 15098 1 0.16500 119244.000000
3616 12426 1 0.16500 119244.000000
3616 13405 1 0.16500 119244.000000
3617 11820 1 0.16500 119244.000000
3617 15199 1 0.16500 119244.000000
3618 12427 1 0.16500 119244.000000
3618 13816 1 0.16500 119244.000000
3619 12427 1 0.16500 119244.000000
3619 13083 1 0.16500 119244.000000
3620 12428 1 0.16500 119244.000000
3620 15354 1 0.16500 119244.000000
3621 12428 1 0.16500 119244.000000
3621 14611 1 0.16500 119244.000000
3622 12428 1 0.16500 119244.000000
3622 15783 1 0.16500 119244.000000
3623 12429 1 0.16500 119244.000000
3623 12739 1 0.16500 119244.000000
3624 12429 1 0.16500 119244.000000
3624 15826 1 0.16500 119244.000000
3625 12924 1 0.16500 119244.000000
3625 15826 1 0.16500 119244.000000
3626 12429 1 0.16500 119244.000000
3626 16475 1 0.16500 119244.000000
3627 12430 1 0.16500 119244.000000
3627 18946 1 0.16500 119244.000000
3628 13119 1 0.16500 119244.000000
3628 20359 1 0.16500 119244.000000
3629 12431 1 0.16500 119244.000000
3629 13865 1 0.16500 119244.000000
3630 13865 1 0.16500 119244.000000
3630 15690 1 0.16500 119244.000000
3631 12431 1 0.16500 119244.000000
3631 15327 1 0.16500 119244.000000
3632 12432 1 0.16500 119244.000000
3632 12925 1 0.16500 119244.000000
3633 12432 1 0.16500 119244.000000
3633 21013 1 0.16500 119244.000000
3634 12432 1 0.16500 119244.000000
3634 13811 1 0.16500 119244.000000
3635 17302 1 0.16500 119244.000000
3635 21013 1 0.16500 119244.000000
3636 12433 1 0.16500 119244.000000
3636 16088 1 0.16500 119244.000000
3637 12433 1 0.16500 119244.000000
3637 14147 1 0.16500 119244.000000
3638 12434 1 0.16500 119244.000000
3638 15776 1 0.16500 119244.000000
3639 12434 1 0.16500 119244.000000
3639 15797 1 0.16500 119244.000000
3640 12434 1 0.16500 119244.000000
3640 16330 1 0.16500 119244.000000
3641 12434 1 0.16500 119244.000000
3641 14277 1 0.16500 119244.000000
3642 12435 1 0.16500 119244.000000
3642 15647 1 0.16500 119244.000000
3643 12435 1 0.16500 119244.000000
3643 15135 1 0.16500 119244.000000
3644 12436 1 0.16500 119244.000000
3644 17288 1 0.16500 119244.000000
3645 12436 1 0.16500 119244.000000
3645 19618 1 0.16500 119244.000000
3646 12437 1 0.16500 119244.000000
3646 14367 1 0.16500 119244.000000
3647 12437 1 0.16500 119244.000000
3647 13545 1 0.16500 119244.000000
3648 12437 1 0.16500 119244.000000
3648 13027 1 0.16500 119244.000000
3649 12438 1 0.16500 119244.000000
3649 13326 1 0.16500 119244.000000
3650 12438 1 0.16500 119244.000000
3650 15334 1 0.16500 119244.000000
3651 12439 1 0.16500 119244.000000
3651 15937 1 0.16500 119244.000000
3652 12439 1 0.16500 119244.000000
3652 12563 1 0.16500 119244.000000
3653 12439 1 0.16500 119244.000000
3653 16368 1 0.16500 119244.000000
3654 12440 1 0.16500 119244.000000
3654 13258 1 0.16500 119244.000000
3655 11996 1 0.16500 119244.000000
3655 13943 1 0.16500 119244.000000
3656 12440 1 0.16500 119244.000000
3656 14118 1 0.16500 119244.000000
3657 12440 1 0.16500 119244.000000
3657 13943 1 0.16500 119244.000000
3658 12441 1 0.16500 119244.000000
3658 16376 1 0.16500 119244.000000
3659 12441 1 0.16500 119244.000000
3659 15122 1 0.16500 119244.000000
3660 12441 1 0.16500 119244.000000
3660 15206 1 0.16500 119244.000000
3661 12442 1 0.16500 119244.000000
3661 14918 1 0.16500 119244.000000
3662 12442 1 0.16500 119244.000000
3662 15783 1 0.16500 119244.000000
3663 12442 1 0.16500 119244.000000
3663 15122 1 0.16500 119244.000000
3664 12443 1 0.16500 119244.000000
3664 12658 1 0.16500 119244.000000
3665 12443 1 0.16500 119244.000000
3665 13405 1 0.16500 119244.000000
3666 12443 1 0.16500 119244.000000
3666 13935 1 0.16500 119244.000000
3667 12443 1 0.16500 119244.000000
3667 14145 1 0.16500 119244.000000
3668 12444 1 0.16500 119244.000000
3668 14882 1 0.16500 119244.000000
3669 12444 1 0.16500 119244.000000
3669 14752 1 0.16500 119244.000000
3670 12444 1 0.16500 119244.000000
3670 12529 1 0.16500 119244.000000
3671 12444 1 0.16500 119244.000000
3671 16199 1 0.16500 119244.000000
3672 12445 1 0.16500 119244.000000
3672 13233 1 0.16500 119244.000000
3673 12445 1 0.16500 119244.000000
3673 14560 1 0.16500 119244.000000
3674 12445 1 0.16500 119244.000000
3674 14298 1 0.16500 119244.000000
3675 12445 1 0.16500 119244.000000
3675 14610 1 0.16500 119244.000000
3676 16456 1 0.16500 119244.000000
3676 18454 1 0.16500 119244.000000
3677 18454 1 0.16500 119244.000000
3677 20431 1 0.16500 119244.000000
3678 12446 1 0.16500 119244.000000
3678 15579 1 0.16500 119244.000000
3679 12446 1 0.16500 119244.000000
3679 12837 1 0.16500 119244.000000
3680 12446 1 0.16500 119244.000000
3680 15713 1 0.16500 119244.000000
3681 12447 1 0.16500 119244.000000
3681 15654 1 0.16500 119244.000000
3682 12447 1 0.16500 119244.000000
3682 13938 1 0.16500 119244.000000
3683 12448 1 0.16500 119244.000000
3683 16041 1 0.16500 119244.000000
3684 12448 1 0.16500 119244.000000
3684 16275 1 0.16500 119244.000000
3685 12448 1 0.16500 119244.000000
3685 15612 1 0.16500 119244.000000
3686 12449 1 0.16500 119244.000000
3686 12894 1 0.16500 119244.000000
3687 12449 1 0.16500 119244.000000
3687 12626 1 0.16500 119244.000000
3688 12450 1 0.16500 119244.000000
3688 12898 1 0.16500 119244.000000
3689 12450 1 0.16500 119244.000000
3689 15791 1 0.16500 119244.000000
3690 12450 1 0.16500 119244.000000
3690 16069 1 0.16500 119244.000000
3691 12451 1 0.16500 119244.000000
3691 14489 1 0.16500 119244.000000
3692 12451 1 0.16500 119244.000000
3692 15443 1 0.16500 119244.000000
3693 12451 1 0.16500 119244.000000
3693 13214 1 0.16500 119244.000000
3694 12452 1 0.16500 119244.000000
3694 16474 1 0.16500 119244.000000
3695 11591 1 0.16500 119244.000000
3695 12452 1 0.16500 119244.000000
3696 12452 1 0.16500 119244.000000
3696 14886 1 0.16500 119244.000000
3697 12452 1 0.16500 119244.000000
3697 16493 1 0.16500 119244.000000
3698 12453 1 0.16500 119244.000000
3698 13837 1 0.16500 119244.000000
3699 12453 1 0.16500 119244.000000
3699 13784 1 0.16500 119244.000000
3700 12453 1 0.16500 119244.000000
3700 15242 1 0.16500 119244.000000
3701 12453 1 0.16500 119244.000000
3701 12699 1 0.16500 119244.000000
3702 12454 1 0.16500 119244.000000
3702 13434 1 0.16500 119244.000000
3703 12454 1 0.16500 119244.000000
3703 13977 1 0.16500 119244.000000
3704 12455 1 0.16500 119244.000000
3704 14979 1 0.16500 119244.000000
3705 12455 1 0.16500 119244.000000
3705 15990 1 0.16500 119244.000000
3706 12455 1 0.16500 119244.000000
3706 12519 1 0.16500 119244.000000
3707 12455 1 0.16500 119244.000000
3707 13722 1 0.16500 119244.000000
3708 13197 1 0.16500 119244.000000
3708 14169 1 0.16500 119244.000000
3709 12456 1 0.16500 119244.000000
3709 13197 1 0.16500 119244.000000
3710 12456 1 0.16500 119244.000000
3710 16634 1 0.16500 119244.000000
3711 12456 1 0.16500 119244.000000
3711 16130 1 0.16500 119244.000000
3712 12457 1 0.16500 119244.000000
3712 13439 1 0.16500 119244.000000
3713 12457 1 0.16500 119244.000000
3713 12855 1 0.16500 119244.000000
3714 13439 1 0.16500 119244.000000
3714 14148 1 0.16500 119244.000000
3715 12457 1 0.16500 119244.000000
3715 15224 1 0.16500 119244.000000
3716 12458 1 0.16500 119244.000000
3716 16016 1 0.16500 119244.000000
3717 12458 1 0.16500 119244.000000
3717 12918 1 0.16500 119244.000000
3718 12458 1 0.16500 119244.000000
3718 16264 1 0.16500 119244.000000
3719 12458 1 0.16500 119244.000000
3719 13483 1 0.16500 119244.000000
3720 12459 1 0.16500 119244.000000
3720 13688 1 0.16500 119244.000000
3721 12459 1 0.16500 119244.000000
3721 12676 1 0.16500 119244.000000
3722 12459 1 0.16500 119244.000000
3722 14115 1 0.16500 119244.000000
3723 12460 1 0.16500 119244.000000
3723 14372 1 0.16500 119244.000000
3724 12460 1 0.16500 119244.000000
3724 14062 1 0.16500 119244.000000
3725 12460 1 0.16500 119244.000000
3725 12791 1 0.16500 119244.000000
3726 12461 1 0.16500 119244.000000
3726 15575 1 0.16500 119244.000000
3727 12461 1 0.16500 119244.000000
3727 20596 1 0.16500 119244.000000
3728 12462 1 0.16500 119244.000000
3728 13512 1 0.16500 119244.000000
3729 13342 1 0.16500 119244.000000
3729 13512 1 0.16500 119244.000000
3730 12462 1 0.16500 119244.000000
3730 15401 1 0.16500 119244.000000
3731 12462 1 0.16500 119244.000000
3731 16315 1 0.16500 119244.000000
3732 12463 1 0.16500 119244.000000
3732 16553 1 0.16500 119244.000000
3733 12463 1 0.16500 119244.000000
3733 13044 1 0.16500 119244.000000
3734 12463 1 0.16500 119244.000000
3734 14466 1 0.16500 119244.000000
3735 12463 1 0.16500 119244.000000
3735 16593 1 0.16500 119244.000000
3736 18466 1 0.16500 119244.000000
3736 20863 1 0.16500 119244.000000
3737 16013 1 0.16500 119244.000000
3737 18466 1 0.16500 119244.000000
3738 12464 1 0.16500 119244.000000
3738 16649 1 0.16500 119244.000000
3739 12357 1 0.16500 119244.000000
3739 12464 1 0.16500 119244.000000
3740 12464 1 0.16500 119244.000000
3740 20581 1 0.16500 119244.000000
3741 12465 1 0.16500 119244.000000
3741 14433 1 0.16500 119244.000000
3742 12465 1 0.16500 119244.000000
3742 16184 1 0.16500 119244.000000
3743 12465 1 0.16500 119244.000000
3743 12999 1 0.16500 119244.000000
3744 12465 1 0.16500 119244.000000
3744 15633 1 0.16500 119244.000000
3745 12466 1 0.16500 119244.000000
3745 14998 1 0.16500 119244.000000
3746 12466 1 0.16500 119244.000000
3746 16639 1 0.16500 119244.000000
3747 12466 1 0.16500 119244.000000
3747 13160 1 0.16500 119244.000000
3748 12466 1 0.16500 119244.000000
3748 16579 1 0.16500 119244.000000
3749 12467 1 0.16500 119244.000000
3749 13023 1 0.16500 119244.000000
3750 12467 1 0.16500 119244.000000
3750 16594 1 0.16500 119244.000000
3751 12468 1 0.16500 119244.000000
3751 12903 1 0.16500 119244.000000
3752 12468 1 0.16500 119244.000000
3752 16530 1 0.16500 119244.000000
3753 12468 1 0.16500 119244.000000
3753 12858 1 0.16500 119244.000000
3754 12468 1 0.16500 119244.000000
3754 12515 1 0.16500 119244.000000
3755 12469 1 0.16500 119244.000000
3755 13742 1 0.16500 119244.000000
3756 12469 1 0.16500 119244.000000
3756 14348 1 0.16500 119244.000000
3757 12469 1 0.16500 119244.000000
3757 16274 1 0.16500 119244.000000
3758 12469 1 0.16500 119244.000000
3758 12744 1 0.16500 119244.000000
3759 12125 1 0.16500 119244.000000
3759 12707 1 0.16500 119244.000000
3760 12470 1 0.16500 119244.000000
3760 14991 1 0.16500 119244.000000
3761 12470 1 0.16500 119244.000000
3761 16396 1 0.16500 119244.000000
3762 12471 1 0.16500 119244.000000
3762 13465 1 0.16500 119244.000000
3763 12471 1 0.16500 119244.000000
3763 16199 1 0.16500 119244.000000
3764 12472 1 0.16500 119244.000000
3764 14285 1 0.16500 119244.000000
3765 12472 1 0.16500 119244.000000
3765 16108 1 0.16500 119244.000000
3766 12473 1 0.16500 119244.000000
3766 13805 1 0.16500 119244.000000
3767 12473 1 0.16500 119244.000000
3767 14035 1 0.16500 119244.000000
3768 12473 1 0.16500 119244.000000
3768 15237 1 0.16500 119244.000000
3769 12473 1 0.16500 119244.000000
3769 14799 1 0.16500 119244.000000
3770 11669 1 0.16500 119244.000000
3770 15723 1 0.16500 119244.000000
3771 18478 1 0.16500 119244.000000
3771 20044 1 0.16500 119244.000000
3772 14418 1 0.16500 119244.000000
3772 18478 1 0.16500 119244.000000
3773 12475 1 0.16500 119244.000000
3773 20221 1 0.16500 119244.000000
3774 12475 1 0.16500 119244.000000
3774 13749 1 0.16500 119244.000000
3775 12475 1 0.16500 119244.000000
3775 20824 1 0.16500 119244.000000
3776 12476 1 0.16500 119244.000000
3776 16647 1 0.16500 119244.000000
3777 12476 1 0.16500 119244.000000
3777 12897 1 0.16500 119244.000000
3778 12476 1 0.16500 119244.000000
3778 12914 1 0.16500 119244.000000
3779 12476 1 0.16500 119244.000000
3779 19978 1 0.16500 119244.000000
3780 12477 1 0.16500 119244.000000
3780 15601 1 0.16500 119244.000000
3781 12477 1 0.16500 119244.000000
3781 14360 1 0.16500 119244.000000
3782 12477 1 0.16500 119244.000000
3782 15687 1 0.16500 119244.000000
3783 12477 1 0.16500 119244.000000
3783 12735 1 0.16500 119244.000000
3784 12478 1 0.16500 119244.000000
3784 16381 1 0.16500 119244.000000
3785 12478 1 0.16500 119244.000000
3785 16084 1 0.16500 119244.000000
3786 12478 1 0.16500 119244.000000
3786 13618 1 0.16500 119244.000000
3787 12479 1 0.16500 119244.000000
3787 13376 1 0.16500 119244.000000
3788 12479 1 0.16500 119244.000000
3788 12484 1 0.16500 119244.000000
3789 12479 1 0.16500 119244.000000
3789 13088 1 0.16500 119244.000000
3790 12480 1 0.16500 119244.000000
3790 13182 1 0.16500 119244.000000
3791 12480 1 0.16500 119244.000000
3791 15224 1 0.16500 119244.000000
3792 12480 1 0.16500 119244.000000
3792 14658 1 0.16500 119244.000000
3793 12481 1 0.16500 119244.000000
3793 14738 1 0.16500 119244.000000
3794 12481 1 0.16500 119244.000000
3794 12954 1 0.16500 119244.000000
3795 12481 1 0.16500 119244.000000
3795 16128 1 0.16500 119244.000000
3796 11792 1 0.16500 119244.000000
3796 12481 1 0.16500 119244.000000
3797 12482 1 0.16500 119244.000000
3797 13479 1 0.16500 119244.000000
3798 12482 1 0.16500 119244.000000
3798 12670 1 0.16500 119244.000000
3799 12482 1 0.16500 119244.000000
3799 13326 1 0.16500 119244.000000
3800 12482 1 0.16500 119244.000000
3800 16390 1 0.16500 119244.000000
3801 12483 1 0.16500 119244.000000
3801 16001 1 0.16500 119244.000000
3802 12483 1 0.16500 119244.000000
3802 13108 1 0.16500 119244.000000
3803 12483 1 0.16500 119244.000000
3803 13761 1 0.16500 119244.000000
3804 12483 1 0.16500 119244.000000
3804 13781 1 0.16500 119244.000000
3805 12479 1 0.16500 119244.000000
3805 12504 1 0.16500 119244.000000
3806 12484 1 0.16500 119244.000000
3806 12968 1 0.16500 119244.000000
3807 12484 1 0.16500 119244.000000
3807 15195 1 0.16500 119244.000000
3808 12485 1 0.16500 119244.000000
3808 15182 1 0.16500 119244.000000
3809 12485 1 0.16500 119244.000000
3809 14880 1 0.16500 119244.000000
3810 12485 1 0.16500 119244.000000
3810 12809 1 0.16500 119244.000000
3811 12485 1 0.16500 119244.000000
3811 14172 1 0.16500 119244.000000
3812 14631 1 0.16500 119244.000000
3812 16646 1 0.16500 119244.000000
3813 12486 1 0.16500 119244.000000
3813 13304 1 0.16500 119244.000000
3814 12486 1 0.16500 119244.000000
3814 16502 1 0.16500 119244.000000
3815 12486 1 0.16500 119244.000000
3815 14631 1 0.16500 119244.000000
3816 12487 1 0.16500 119244.000000
3816 14542 1 0.16500 119244.000000
3817 12487 1 0.16500 119244.000000
3817 13875 1 0.16500 119244.000000
3818 12487 1 0.16500 119244.000000
3818 13416 1 0.16500 119244.000000
3819 12488 1 0.16500 119244.000000
3819 14076 1 0.16500 119244.000000
3820 12488 1 0.16500 119244.000000
3820 14729 1 0.16500 119244.000000
3821 12488 1 0.16500 119244.000000
3821 14043 1 0.16500 119244.000000
3822 12488 1 0.16500 119244.000000
3822 15115 1 0.16500 119244.000000
3823 12489 1 0.16500 119244.000000
3823 15215 1 0.16500 119244.000000
3824 12489 1 0.16500 119244.000000
3824 14618 1 0.16500 119244.000000
3825 12489 1 0.16500 119244.000000
3825 14812 1 0.16500 119244.000000
3826 12490 1 0.16500 119244.000000
3826 15982 1 0.16500 119244.000000
3827 12490 1 0.16500 119244.000000
3827 14079 1 0.16500 119244.000000
3828 12490 1 0.16500 119244.000000
3828 13060 1 0.16500 119244.000000
3829 12491 1 0.16500 119244.000000
3829 16421 1 0.16500 119244.000000
3830 12491 1 0.16500 119244.000000
3830 15200 1 0.16500 119244.000000
3831 12491 1 0.16500 119244.000000
3831 14824 1 0.16500 119244.000000
3832 11931 1 0.16500 119244.000000
3832 12492 1 0.16500 119244.000000
3833 14259 1 0.16500 119244.000000
3833 16562 1 0.16500 119244.000000
3834 12492 1 0.16500 119244.000000
3834 15132 1 0.16500 119244.000000
3835 12493 1 0.16500 119244.000000
3835 15713 1 0.16500 119244.000000
3836 12493 1 0.16500 119244.000000
3836 14090 1 0.16500 119244.000000
3837 12493 1 0.16500 119244.000000
3837 16517 1 0.16500 119244.000000
3838 12494 1 0.16500 119244.000000
3838 14325 1 0.16500 119244.000000
3839 12494 1 0.16500 119244.000000
3839 13763 1 0.16500 119244.000000
3840 12494 1 0.16500 119244.000000
3840 14055 1 0.16500 119244.000000
3841 12494 1 0.16500 119244.000000
3841 16311 1 0.16500 119244.000000
3842 12495 1 0.16500 119244.000000
3842 13052 1 0.16500 119244.000000
3843 12495 1 0.16500 119244.000000
3843 14911 1 0.16500 119244.000000
3844 12495 1 0.16500 119244.000000
3844 16007 1 0.16500 119244.000000
3845 12496 1 0.16500 119244.000000
3845 20308 1 0.16500 119244.000000
3846 12496 1 0.16500 119244.000000
3846 15440 1 0.16500 119244.000000
3847 12496 1 0.16500 119244.000000
3847 19366 1 0.16500 119244.000000
3848 12496 1 0.16500 119244.000000
3848 16292 1 0.16500 119244.000000
3849 12497 1 0.16500 119244.000000
3849 13753 1 0.16500 119244.000000
3850 12497 1 0.16500 119244.000000
3850 12829 1 0.16500 119244.000000
3851 12497 1 0.16500 119244.000000
3851 13122 1 0.16500 119244.000000
3852 12498 1 0.16500 119244.000000
3852 13503 1 0.16500 119244.000000
3853 12498 1 0.16500 119244.000000
3853 15074 1 0.16500 119244.000000
3854 12498 1 0.16500 119244.000000
3854 16351 1 0.16500 119244.000000
3855 12499 1 0.16500 119244.000000
3855 16029 1 0.16500 119244.000000
3856 12499 1 0.16500 119244.000000
3856 14586 1 0.16500 119244.000000
3857 12499 1 0.16500 119244.000000
3857 16148 1 0.16500 119244.000000
3858 12499 1 0.16500 119244.000000
3858 13793 1 0.16500 119244.000000
3859 12500 1 0.16500 119244.000000
3859 13460 1 0.16500 119244.000000
3860 12500 1 0.16500 119244.000000
3860 16393 1 0.16500 119244.000000
3861 12500 1 0.16500 119244.000000
3861 16222 1 0.16500 119244.000000
3862 12500 1 0.16500 119244.000000
3862 14060 1 0.16500 119244.000000
3863 12501 1 0.16500 119244.000000
3863 14229 1 0.16500 119244.000000
3864 12501 1 0.16500 119244.000000
3864 15661 1 0.16500 119244.000000
3865 12501 1 0.16500 119244.000000
3865 16558 1 0.16500 119244.000000
3866 12501 1 0.16500 119244.000000
3866 15682 1 0.16500 119244.000000
3867 12502 1 0.16500 119244.000000
3867 13479 1 0.16500 119244.000000
3868 12502 1 0.16500 119244.000000
3868 15518 1 0.16500 119244.000000
3869 12503 1 0.16500 119244.000000
3869 15758 1 0.16500 119244.000000
3870 12504 1 0.16500 119244.000000
3870 16216 1 0.16500 119244.000000
3871 12504 1 0.16500 119244.000000
3871 13464 1 0.16500 119244.000000
3872 12504 1 0.16500 119244.000000
3872 13161 1 0.16500 119244.000000
3873 12505 1 0.16500 119244.000000
3873 13449 1 0.16500 119244.000000
3874 12505 1 0.16500 119244.000000
3874 14720 1 0.16500 119244.000000
3875 12505 1 0.16500 119244.000000
3875 15223 1 0.16500 119244.000000
3876 12505 1 0.16500 119244.000000
3876 13007 1 0.16500 119244.000000
3877 13103 1 0.16500 119244.000000
3877 18490 1 0.16500 119244.000000
3878 18490 1 0.16500 119244.000000
3878 20617 1 0.16500 119244.000000
3879 15424 1 0.16500 119244.000000
3879 18502 1 0.16500 119244.000000
3880 18502 1 0.16500 119244.000000
3880 20329 1 0.16500 119244.000000
3881 15523 1 0.16500 119244.000000
3881 18502 1 0.16500 119244.000000
3882 12506 1 0.16500 119244.000000
3882 14964 1 0.16500 119244.000000
3883 12506 1 0.16500 119244.000000
3883 14134 1 0.16500 119244.000000
3884 12506 1 0.16500 119244.000000
3884 13445 1 0.16500 119244.000000
3885 12506 1 0.16500 119244.000000
3885 20383 1 0.16500 119244.000000
3886 12507 1 0.16500 119244.000000
3886 14918 1 0.16500 119244.000000
3887 12507 1 0.16500 119244.000000
3887 15668 1 0.16500 119244.000000
3888 12507 1 0.16500 119244.000000
3888 16070 1 0.16500 119244.000000
3889 12508 1 0.16500 119244.000000
3889 15960 1 0.16500 119244.000000
3890 12508 1 0.16500 119244.000000
3890 13478 1 0.16500 119244.000000
3891 12508 1 0.16500 119244.000000
3891 14434 1 0.16500 119244.000000
3892 12509 1 0.16500 119244.000000
3892 13579 1 0.16500 119244.000000
3893 12509 1 0.16500 119244.000000
3893 12624 1 0.16500 119244.000000
3894 12509 1 0.16500 119244.000000
3894 15617 1 0.16500 119244.000000
3895 12510 1 0.16500 119244.000000
3895 15847 1 0.16500 119244.000000
3896 12510 1 0.16500 119244.000000
3896 14694 1 0.16500 119244.000000
3897 12510 1 0.16500 119244.000000
3897 14711 1 0.16500 119244.000000
3898 12510 1 0.16500 119244.000000
3898 15544 1 0.16500 119244.000000
3899 12511 1 0.16500 119244.000000
3899 15639 1 0.16500 119244.000000
3900 12511 1 0.16500 119244.000000
3900 13414 1 0.16500 119244.000000
3901 12511 1 0.16500 119244.000000
3901 16626 1 0.16500 119244.000000
3902 12512 1 0.16500 119244.000000
3902 14435 1 0.16500 119244.000000
3903 12512 1 0.16500 119244.000000
3903 13954 1 0.16500 119244.000000
3904 12512 1 0.16500 119244.000000
3904 18838 1 0.16500 119244.000000
3905 12512 1 0.16500 119244.000000
3905 12537 1 0.16500 119244.000000
3906 12513 1 0.16500 119244.000000
3906 14966 1 0.16500 119244.000000
3907 12513 1 0.16500 119244.000000
3907 13581 1 0.16500 119244.000000
3908 12513 1 0.16500 119244.000000
3908 15304 1 0.16500 119244.000000
3909 12513 1 0.16500 119244.000000
3909 12803 1 0.16500 119244.000000
3910 12514 1 0.16500 119244.000000
3910 15431 1 0.16500 119244.000000
3911 12514 1 0.16500 119244.000000
3911 14507 1 0.16500 119244.000000
3912 12514 1 0.16500 119244.000000
3912 12799 1 0.16500 119244.000000
3913 12515 1 0.16500 119244.000000
3913 14790 1 0.16500 119244.000000
3914 12515 1 0.16500 119244.000000
3914 20218 1 0.16500 119244.000000
3915 12516 1 0.16500 119244.000000
3915 14604 1 0.16500 119244.000000
3916 12516 1 0.16500 119244.000000
3916 15473 1 0.16500 119244.000000
3917 12516 1 0.16500 119244.000000
3917 13043 1 0.16500 119244.000000
3918 12516 1 0.16500 119244.000000
3918 16675 1 0.16500 119244.000000
3919 14038 1 0.16500 119244.000000
3919 14563 1 0.16500 119244.000000
3920 12517 1 0.16500 119244.000000
3920 14038 1 0.16500 119244.000000
3921 12517 1 0.16500 119244.000000
3921 16610 1 0.16500 119244.000000
3922 20122 1 0.16500 119244.000000
3922 20287 1 0.16500 119244.000000
3923 12518 1 0.16500 119244.000000
3923 20287 1 0.16500 119244.000000
3924 12519 1 0.16500 119244.000000
3924 15497 1 0.16500 119244.000000
3925 12519 1 0.16500 119244.000000
3925 15332 1 0.16500 119244.000000
3926 12519 1 0.16500 119244.000000
3926 14215 1 0.16500 119244.000000
3927 12520 1 0.16500 119244.000000
3927 20530 1 0.16500 119244.000000
3928 12520 1 0.16500 119244.000000
3928 14747 1 0.16500 119244.000000
3929 13419 1 0.16500 119244.000000
3929 18514 1 0.16500 119244.000000
3930 18514 1 0.16500 119244.000000
3930 20305 1 0.16500 119244.000000
3931 12521 1 0.16500 119244.000000
3931 14666 1 0.16500 119244.000000
3932 12521 1 0.16500 119244.000000
3932 15651 1 0.16500 119244.000000
3933 12521 1 0.16500 119244.000000
3933 14717 1 0.16500 119244.000000
3934 12521 1 0.16500 119244.000000
3934 14026 1 0.16500 119244.000000
3935 13408 1 0.16500 119244.000000
3935 20533 1 0.16500 119244.000000
3936 13408 1 0.16500 119244.000000
3936 18526 1 0.16500 119244.000000
3937 12522 1 0.16500 119244.000000
3937 13468 1 0.16500 119244.000000
3938 12522 1 0.16500 119244.000000
3938 13893 1 0.16500 119244.000000
3939 12523 1 0.16500 119244.000000
3939 15056 1 0.16500 119244.000000
3940 12523 1 0.16500 119244.000000
3940 13158 1 0.16500 119244.000000
3941 12523 1 0.16500 119244.000000
3941 14138 1 0.16500 119244.000000
3942 12523 1 0.16500 119244.000000
3942 15739 1 0.16500 119244.000000
3943 12524 1 0.16500 119244.000000
3943 13871 1 0.16500 119244.000000
3944 12524 1 0.16500 119244.000000
3944 13298 1 0.16500 119244.000000
3945 12524 1 0.16500 119244.000000
3945 15378 1 0.16500 119244.000000
3946 12525 1 0.16500 119244.000000
3946 20593 1 0.16500 119244.000000
3947 12526 1 0.16500 119244.000000
3947 14000 1 0.16500 119244.000000
3948 12526 1 0.16500 119244.000000
3948 13604 1 0.16500 119244.000000
3949 12526 1 0.16500 119244.000000
3949 14922 1 0.16500 119244.000000
3950 12527 1 0.16500 119244.000000
3950 12904 1 0.16500 119244.000000
3951 12527 1 0.16500 119244.000000
3951 14825 1 0.16500 119244.000000
3952 12527 1 0.16500 119244.000000
3952 13243 1 0.16500 119244.000000
3953 12527 1 0.16500 119244.000000
3953 13846 1 0.16500 119244.000000
3954 12528 1 0.16500 119244.000000
3954 13689 1 0.16500 119244.000000
3955 12528 1 0.16500 119244.000000
3955 14148 1 0.16500 119244.000000
3956 13689 1 0.16500 119244.000000
3956 17176 1 0.16500 119244.000000
3957 12528 1 0.16500 119244.000000
3957 13439 1 0.16500 119244.000000
3958 12529 1 0.16500 119244.000000
3958 14650 1 0.16500 119244.000000
3959 12529 1 0.16500 119244.000000
3959 14812 1 0.16500 119244.000000
3960 12530 1 0.16500 119244.000000
3960 14494 1 0.16500 119244.000000
3961 12530 1 0.16500 119244.000000
3961 12696 1 0.16500 119244.000000
3962 12531 1 0.16500 119244.000000
3962 13881 1 0.16500 119244.000000
3963 12531 1 0.16500 119244.000000
3963 14876 1 0.16500 119244.000000
3964 12531 1 0.16500 119244.000000
3964 13260 1 0.16500 119244.000000
3965 12531 1 0.16500 119244.000000
3965 15195 1 0.16500 119244.000000
3966 12532 1 0.16500 119244.000000
3966 14369 1 0.16500 119244.000000
3967 12532 1 0.16500 119244.000000
3967 15439 1 0.16500 119244.000000
3968 12532 1 0.16500 119244.000000
3968 14459 1 0.16500 119244.000000
3969 12532 1 0.16500 119244.000000
3969 13843 1 0.16500 119244.000000
3970 12533 1 0.16500 119244.000000
3970 15535 1 0.16500 119244.000000
3971 12533 1 0.16500 119244.000000
3971 12546 1 0.16500 119244.000000
3972 11838 1 0.16500 119244.000000
3972 13670 1 0.16500 119244.000000
3973 12534 1 0.16500 119244.000000
3973 13212 1 0.16500 119244.000000
3974 12534 1 0.16500 119244.000000
3974 16375 1 0.16500 119244.000000
3975 12534 1 0.16500 119244.000000
3975 15048 1 0.16500 119244.000000
3976 12534 1 0.16500 119244.000000
3976 17596 1 0.16500 119244.000000
3977 12535 1 0.16500 119244.000000
3977 14694 1 0.16500 119244.000000
3978 12535 1 0.16500 119244.000000
3978 15628 1 0.16500 119244.000000
3979 12536 1 0.16500 119244.000000
3979 14104 1 0.16500 119244.000000
3980 12536 1 0.16500 119244.000000
3980 13350 1 0.16500 119244.000000
3981 12536 1 0.16500 119244.000000
3981 14750 1 0.16500 119244.000000
3982 12537 1 0.16500 119244.000000
3982 16552 1 0.16500 119244.000000
3983 12537 1 0.16500 119244.000000
3983 14428 1 0.16500 119244.000000
3984 12537 1 0.16500 119244.000000
3984 13882 1 0.16500 119244.000000
3985 12538 1 0.16500 119244.000000
3985 14587 1 0.16500 119244.000000
3986 12538 1 0.16500 119244.000000
3986 16682 1 0.16500 119244.000000
3987 12538 1 0.16500 119244.000000
3987 16034 1 0.16500 119244.000000
3988 12538 1 0.16500 119244.000000
3988 14898 1 0.16500 119244.000000
3989 12539 1 0.16500 119244.000000
3989 15620 1 0.16500 119244.000000
3990 12539 1 0.16500 119244.000000
3990 13409 1 0.16500 119244.000000
3991 12539 1 0.16500 119244.000000
3991 14364 1 0.16500 119244.000000
3992 12539 1 0.16500 119244.000000
3992 14714 1 0.16500 119244.000000
3993 12540 1 0.16500 119244.000000
3993 17848 1 0.16500 119244.000000
3994 12540 1 0.16500 119244.000000
3994 13286 1 0.16500 119244.000000
3995 12540 1 0.16500 119244.000000
3995 15217 1 0.16500 119244.000000
3996 12540 1 0.16500 119244.000000
3996 13210 1 0.16500 119244.000000
3997 12541 1 0.16500 119244.000000
3997 16577 1 0.16500 119244.000000
3998 12541 1 0.16500 119244.000000
3998 14381 1 0.16500 119244.000000
3999 12541 1 0.16500 119244.000000
3999 14266 1 0.16500 119244.000000
4000 12542 1 0.16500 119244.000000
4000 14709 1 0.16500 119244.000000
4001 12542 1 0.16500 119244.000000
4001 14715 1 0.16500 119244.000000
4002 12542 1 0.16500 119244.000000
4002 15660 1 0.16500 119244.000000
4003 12543 1 0.16500 119244.000000
4003 15948 1 0.16500 119244.000000
4004 12543 1 0.16500 119244.000000
4004 16305 1 0.16500 119244.000000
4005 12544 1 0.16500 119244.000000
4005 13780 1 0.16500 119244.000000
4006 12544 1 0.16500 119244.000000
4006 15933 1 0.16500 119244.000000
4007 12544 1 0.16500 119244.000000
4007 14651 1 0.16500 119244.000000
4008 12544 1 0.16500 119244.000000
4008 14679 1 0.16500 119244.000000
4009 12545 1 0.16500 119244.000000
4009 15621 1 0.16500 119244.000000
4010 12246 1 0.16500 119244.000000
4010 12545 1 0.16500 119244.000000
4011 12545 1 0.16500 119244.000000
4011 14186 1 0.16500 119244.000000
4012 12546 1 0.16500 119244.000000
4012 13802 1 0.16500 119244.000000
4013 12546 1 0.16500 119244.000000
4013 13077 1 0.16500 119244.000000
4014 12547 1 0.16500 119244.000000
4014 17176 1 0.16500 119244.000000
4015 12547 1 0.16500 119244.000000
4015 13327 1 0.16500 119244.000000
4016 12547 1 0.16500 119244.000000
4016 13593 1 0.16500 119244.000000
4017 14909 1 0.16500 119244.000000
4017 18538 1 0.16500 119244.000000
4018 18538 1 0.16500 119244.000000
4018 20614 1 0.16500 119244.000000
4019 12548 1 0.16500 119244.000000
4019 14791 1 0.16500 119244.000000
4020 12548 1 0.16500 119244.000000
4020 15064 1 0.16500 119244.000000
4021 12548 1 0.16500 119244.000000
4021 16434 1 0.16500 119244.000000
4022 12905 1 0.16500 119244.000000
4022 16219 1 0.16500 119244.000000
4023 12549 1 0.16500 119244.000000
4023 20149 1 0.16500 119244.000000
4024 12549 1 0.16500 119244.000000
4024 12960 1 0.16500 119244.000000
4025 12549 1 0.16500 119244.000000
4025 16219 1 0.16500 119244.000000
4026 12550 1 0.16500 119244.000000
4026 13322 1 0.16500 119244.000000
4027 13322 1 0.16500 119244.000000
4027 16435 1 0.16500 119244.000000
4028 13418 1 0.16500 119244.000000
4028 18550 1 0.16500 119244.000000
4029 16359 1 0.16500 119244.000000
4029 18550 1 0.16500 119244.000000
4030 11653 1 0.16500 119244.000000
4030 14989 1 0.16500 119244.000000
4031 12551 1 0.16500 119244.000000
4031 20719 1 0.16500 119244.000000
4032 12551 1 0.16500 119244.000000
4032 18826 1 0.16500 119244.000000
4033 15516 1 0.16500 119244.000000
4033 18562 1 0.16500 119244.000000
4034 14047 1 0.16500 119244.000000
4034 18562 1 0.16500 119244.000000
4035 12552 1 0.16500 119244.000000
4035 14610 1 0.16500 119244.000000
4036 13522 1 0.16500 119244.000000
4036 15671 1 0.16500 119244.000000
4037 12552 1 0.16500 119244.000000
4037 16643 1 0.16500 119244.000000
4038 12552 1 0.16500 119244.000000
4038 15671 1 0.16500 119244.000000
4039 12553 1 0.16500 119244.000000
4039 15340 1 0.16500 119244.000000
4040 12553 1 0.16500 119244.000000
4040 14335 1 0.16500 119244.000000
4041 12554 1 0.16500 119244.000000
4041 20713 1 0.16500 119244.000000
4042 12554 1 0.16500 119244.000000
4042 15696 1 0.16500 119244.000000
4043 12555 1 0.16500 119244.000000
4043 15541 1 0.16500 119244.000000
4044 12555 1 0.16500 119244.000000
4044 12575 1 0.16500 119244.000000
4045 12555 1 0.16500 119244.000000
4045 16326 1 0.16500 119244.000000
4046 12556 1 0.16500 119244.000000
4046 12740 1 0.16500 119244.000000
4047 12556 1 0.16500 119244.000000
4047 13269 1 0.16500 119244.000000
4048 12556 1 0.16500 119244.000000
4048 13856 1 0.16500 119244.000000
4049 12557 1 0.16500 119244.000000
4049 15188 1 0.16500 119244.000000
4050 12557 1 0.16500 119244.000000
4050 17624 1 0.16500 119244.000000
4051 12557 1 0.16500 119244.000000
4051 17414 1 0.16500 119244.000000
4052 12557 1 0.16500 119244.000000
4052 14851 1 0.16500 119244.000000
4053 12558 1 0.16500 119244.000000
4053 15057 1 0.16500 119244.000000
4054 12558 1 0.16500 119244.000000
4054 13620 1 0.16500 119244.000000
4055 12558 1 0.16500 119244.000000
4055 14881 1 0.16500 119244.000000
4056 12559 1 0.16500 119244.000000
4056 13972 1 0.16500 119244.000000
4057 12559 1 0.16500 119244.000000
4057 20545 1 0.16500 119244.000000
4058 12559 1 0.16500 119244.000000
4058 15625 1 0.16500 119244.000000
4059 12560 1 0.16500 119244.000000
4059 13805 1 0.16500 119244.000000
4060 12560 1 0.16500 119244.000000
4060 17022 1 0.16500 119244.000000
4061 12560 1 0.16500 119244.000000
4061 12886 1 0.16500 119244.000000
4062 12561 1 0.16500 119244.000000
4062 15644 1 0.16500 119244.000000
4063 12561 1 0.16500 119244.000000
4063 15763 1 0.16500 119244.000000
4064 12561 1 0.16500 119244.000000
4064 13967 1 0.16500 119244.000000
4065 12561 1 0.16500 119244.000000
4065 12604 1 0.16500 119244.000000
4066 12562 1 0.16500 119244.000000
4066 15859 1 0.16500 119244.000000
4067 12078 1 0.16500 119244.000000
4067 15859 1 0.16500 119244.000000
4068 12562 1 0.16500 119244.000000
4068 14778 1 0.16500 119244.000000
4069 12563 1 0.16500 119244.000000
4069 14306 1 0.16500 119244.000000
4070 12564 1 0.16500 119244.000000
4070 15397 1 0.16500 119244.000000
4071 12564 1 0.16500 119244.000000
4071 15483 1 0.16500 119244.000000
4072 12564 1 0.16500 119244.000000
4072 12779 1 0.16500 119244.000000
4073 12564 1 0.16500 119244.000000
4073 14891 1 0.16500 119244.000000
4074 12565 1 0.16500 119244.000000
4074 16303 1 0.16500 119244.000000
4075 12565 1 0.16500 119244.000000
4075 12633 1 0.16500 119244.000000
4076 12565 1 0.16500 119244.000000
4076 20401 1 0.16500 119244.000000
4077 12566 1 0.16500 119244.000000
4077 15346 1 0.16500 119244.000000
4078 12566 1 0.16500 119244.000000
4078 15718 1 0.16500 119244.000000
4079 12566 1 0.16500 119244.000000
4079 13032 1 0.16500 119244.000000
4080 12566 1 0.16500 119244.000000
4080 16058 1 0.16500 119244.000000
4081 11873 1 0.16500 119244.000000
4081 14831 1 0.16500 119244.000000
4082 12567 1 0.16500 119244.000000
4082 20614 1 0.16500 119244.000000
4083 12567 1 0.16500 119244.000000
4083 12759 1 0.16500 119244.000000
4084 12568 1 0.16500 119244.000000
4084 13931 1 0.16500 119244.000000
4085 12568 1 0.16500 119244.000000
4085 13000 1 0.16500 119244.000000
4086 12569 1 0.16500 119244.000000
4086 15343 1 0.16500 119244.000000
4087 12569 1 0.16500 119244.000000
4087 20888 1 0.16500 119244.000000
4088 12569 1 0.16500 119244.000000
4088 14770 1 0.16500 119244.000000
4089 12570 1 0.16500 119244.000000
4089 12659 1 0.16500 119244.000000
4090 12570 1 0.16500 119244.000000
4090 13973 1 0.16500 119244.000000
4091 12570 1 0.16500 119244.000000
4091 13716 1 0.16500 119244.000000
4092 12571 1 0.16500 119244.000000
4092 14036 1 0.16500 119244.000000
4093 12571 1 0.16500 119244.000000
4093 13541 1 0.16500 119244.000000
4094 12571 1 0.16500 119244.000000
4094 13199 1 0.16500 119244.000000
4095 12571 1 0.16500 119244.000000
4095 15103 1 0.16500 119244.000000
4096 12572 1 0.16500 119244.000000
4096 13564 1 0.16500 119244.000000
4097 12572 1 0.16500 119244.000000
4097 15357 1 0.16500 119244.000000
4098 12572 1 0.16500 119244.000000
4098 13664 1 0.16500 119244.000000
4099 12572 1 0.16500 119244.000000
4099 15475 1 0.16500 119244.000000
4100 12573 1 0.16500 119244.000000
4100 13506 1 0.16500 119244.000000
4101 13506 1 0.16500 119244.000000
4101 16210 1 0.16500 119244.000000
4102 12574 1 0.16500 119244.000000
4102 16910 1 0.16500 119244.000000
4103 12574 1 0.16500 119244.000000
4103 13341 1 0.16500 119244.000000
4104 12575 1 0.16500 119244.000000
4104 13450 1 0.16500 119244.000000
4105 12575 1 0.16500 119244.000000
4105 16526 1 0.16500 119244.000000
4106 12575 1 0.16500 119244.000000
4106 16296 1 0.16500 119244.000000
4107 13113 1 0.16500 119244.000000
4107 16535 1 0.16500 119244.000000
4108 12576 1 0.16500 119244.000000
4108 13113 1 0.16500 119244.000000
4109 12576 1 0.16500 119244.000000
4109 16639 1 0.16500 119244.000000
4110 12576 1 0.16500 119244.000000
4110 15512 1 0.16500 119244.000000
4111 13223 1 0.16500 119244.000000
4111 19486 1 0.16500 119244.000000
4112 12577 1 0.16500 119244.000000
4112 12768 1 0.16500 119244.000000
4113 12577 1 0.16500 119244.000000
4113 14243 1 0.16500 119244.000000
4114 12578 1 0.16500 119244.000000
4114 14708 1 0.16500 119244.000000
4115 12578 1 0.16500 119244.000000
4115 14942 1 0.16500 119244.000000
4116 12578 1 0.16500 119244.000000
4116 16497 1 0.16500 119244.000000
4117 12578 1 0.16500 119244.000000
4117 16230 1 0.16500 119244.000000
4118 12579 1 0.16500 119244.000000
4118 20512 1 0.16500 119244.000000
4119 12579 1 0.16500 119244.000000
4119 20857 1 0.16500 119244.000000
4120 12580 1 0.16500 119244.000000
4120 16547 1 0.16500 119244.000000
4121 12580 1 0.16500 119244.000000
4121 14840 1 0.16500 119244.000000
4122 12580 1 0.16500 119244.000000
4122 15543 1 0.16500 119244.000000
4123 12580 1 0.16500 119244.000000
4123 14385 1 0.16500 119244.000000
4124 12581 1 0.16500 119244.000000
4124 15635 1 0.16500 119244.000000
4125 12581 1 0.16500 119244.000000
4125 16433 1 0.16500 119244.000000
4126 12581 1 0.16500 119244.000000
4126 13960 1 0.16500 119244.000000
4127 12581 1 0.16500 119244.000000
4127 16066 1 0.16500 119244.000000
4128 12582 1 0.16500 119244.000000
4128 13428 1 0.16500 119244.000000
4129 12582 1 0.16500 119244.000000
4129 15777 1 0.16500 119244.000000
4130 12583 1 0.16500 119244.000000
4130 15623 1 0.16500 119244.000000
4131 12583 1 0.16500 119244.000000
4131 13265 1 0.16500 119244.000000
4132 12584 1 0.16500 119244.000000
4132 14912 1 0.16500 119244.000000
4133 12584 1 0.16500 119244.000000
4133 12774 1 0.16500 119244.000000
4134 12584 1 0.16500 119244.000000
4134 14843 1 0.16500 119244.000000
4135 12585 1 0.16500 119244.000000
4135 13931 1 0.16500 119244.000000
4136 12585 1 0.16500 119244.000000
4136 13959 1 0.16500 119244.000000
4137 12585 1 0.16500 119244.000000
4137 12638 1 0.16500 119244.000000
4138 12586 1 0.16500 119244.000000
4138 14606 1 0.16500 119244.000000
4139 12586 1 0.16500 119244.000000
4139 16023 1 0.16500 119244.000000
4140 12586 1 0.16500 119244.000000
4140 14815 1 0.16500 119244.000000
4141 12587 1 0.16500 119244.000000
4141 15180 1 0.16500 119244.000000
4142 12587 1 0.16500 119244.000000
4142 15526 1 0.16500 119244.000000
4143 12587 1 0.16500 119244.000000
4143 12655 1 0.16500 119244.000000
4144 12587 1 0.16500 119244.000000
4144 12767 1 0.16500 119244.000000
4145 12588 1 0.16500 119244.000000
4145 16435 1 0.16500 119244.000000
4146 12588 1 0.16500 119244.000000
4146 13613 1 0.16500 119244.000000
4147 12588 1 0.16500 119244.000000
4147 15464 1 0.16500 119244.000000
4148 12588 1 0.16500 119244.000000
4148 14997 1 0.16500 119244.000000
4149 12589 1 0.16500 119244.000000
4149 15678 1 0.16500 119244.000000
4150 12589 1 0.16500 119244.000000
4150 17834 1 0.16500 119244.000000
4151 12590 1 0.16500 119244.000000
4151 15130 1 0.16500 119244.000000
4152 12590 1 0.16500 119244.000000
4152 13446 1 0.16500 119244.000000
4153 12590 1 0.16500 119244.000000
4153 13762 1 0.16500 119244.000000
4154 12591 1 0.16500 119244.000000
4154 14291 1 0.16500 119244.000000
4155 12591 1 0.16500 119244.000000
4155 15940 1 0.16500 119244.000000
4156 12591 1 0.16500 119244.000000
4156 13611 1 0.16500 119244.000000
4157 12591 1 0.16500 119244.000000
4157 14304 1 0.16500 119244.000000
4158 12592 1 0.16500 119244.000000
4158 15891 1 0.16500 119244.000000
4159 12592 1 0.16500 119244.000000
4159 15858 1 0.16500 119244.000000
4160 12593 1 0.16500 119244.000000
4160 16346 1 0.16500 119244.000000
4161 12593 1 0.16500 119244.000000
4161 15341 1 0.16500 119244.000000
4162 12593 1 0.16500 119244.000000
4162 15185 1 0.16500 119244.000000
4163 12594 1 0.16500 119244.000000
4163 14992 1 0.16500 119244.000000
4164 12594 1 0.16500 119244.000000
4164 14292 1 0.16500 119244.000000
4165 12594 1 0.16500 119244.000000
4165 16169 1 0.16500 119244.000000
4166 12594 1 0.16500 119244.000000
4166 13828 1 0.16500 119244.000000
4167 11539 1 0.16500 119244.000000
4167 18574 1 0.16500 119244.000000
4168 11539 1 0.16500 119244.000000
4168 20988 1 0.16500 119244.000000
4169 12595 1 0.16500 119244.000000
4169 14664 1 0.16500 119244.000000
4170 12595 1 0.16500 119244.000000
4170 15515 1 0.16500 119244.000000
4171 12595 1 0.16500 119244.000000
4171 13927 1 0.16500 119244.000000
4172 18586 1 0.16500 119244.000000
4172 20302 1 0.16500 119244.000000
4173 12596 1 0.16500 119244.000000
4173 14613 1 0.16500 119244.000000
4174 12596 1 0.16500 119244.000000
4174 15045 1 0.16500 119244.000000
4175 12596 1 0.16500 119244.000000
4175 12601 1 0.16500 119244.000000
4176 12597 1 0.16500 119244.000000
4176 16188 1 0.16500 119244.000000
4177 12597 1 0.16500 119244.000000
4177 14844 1 0.16500 119244.000000
4178 12597 1 0.16500 119244.000000
4178 13732 1 0.16500 119244.000000
4179 12598 1 0.16500 119244.000000
4179 12732 1 0.16500 119244.000000
4180 12598 1 0.16500 119244.000000
4180 15624 1 0.16500 119244.000000
4181 12598 1 0.16500 119244.000000
4181 13692 1 0.16500 119244.000000
4182 12599 1 0.16500 119244.000000
4182 12863 1 0.16500 119244.000000
4183 12599 1 0.16500 119244.000000
4183 15665 1 0.16500 119244.000000
4184 12600 1 0.16500 119244.000000
4184 19402 1 0.16500 119244.000000
4185 12600 1 0.16500 119244.000000
4185 15348 1 0.16500 119244.000000
4186 12601 1 0.16500 119244.000000
4186 15266 1 0.16500 119244.000000
4187 12601 1 0.16500 119244.000000
4187 15114 1 0.16500 119244.000000
4188 12601 1 0.16500 119244.000000
4188 15557 1 0.16500 119244.000000
4189 12602 1 0.16500 119244.000000
4189 13447 1 0.16500 119244.000000
4190 12602 1 0.16500 119244.000000
4190 16113 1 0.16500 119244.000000
4191 12603 1 0.16500 119244.000000
4191 12856 1 0.16500 119244.000000
4192 12603 1 0.16500 119244.000000
4192 14348 1 0.16500 119244.000000
4193 12603 1 0.16500 119244.000000
4193 12895 1 0.16500 119244.000000
4194 12604 1 0.16500 119244.000000
4194 12826 1 0.16500 119244.000000
4195 12604 1 0.16500 119244.000000
4195 16447 1 0.16500 119244.000000
4196 12604 1 0.16500 119244.000000
4196 13815 1 0.16500 119244.000000
4197 12605 1 0.16500 119244.000000
4197 13834 1 0.16500 119244.000000
4198 12605 1 0.16500 119244.000000
4198 15816 1 0.16500 119244.000000
4199 12605 1 0.16500 119244.000000
4199 13760 1 0.16500 119244.000000
4200 12605 1 0.16500 119244.000000
4200 15921 1 0.16500 119244.000000
4201 12606 1 0.16500 119244.000000
4201 14410 1 0.16500 119244.000000
4202 12606 1 0.16500 119244.000000
4202 15731 1 0.16500 119244.000000
4203 12606 1 0.16500 119244.000000
4203 15265 1 0.16500 119244.000000
4204 12606 1 0.16500 119244.000000
4204 16350 1 0.16500 119244.000000
4205 12607 1 0.16500 119244.000000
4205 16505 1 0.16500 119244.000000
4206 12607 1 0.16500 119244.000000
4206 13391 1 0.16500 119244.000000
4207 12607 1 0.16500 119244.000000
4207 20128 1 0.16500 119244.000000
4208 16352 1 0.16500 119244.000000
4208 18598 1 0.16500 119244.000000
4209 18598 1 0.16500 119244.000000
4209 20701 1 0.16500 119244.000000
4210 12608 1 0.16500 119244.000000
4210 12942 1 0.16500 119244.000000
4211 12608 1 0.16500 119244.000000
4211 13239 1 0.16500 119244.000000
4212 12608 1 0.16500 119244.000000
4212 14188 1 0.16500 119244.000000
4213 12609 1 0.16500 119244.000000
4213 13891 1 0.16500 119244.000000
4214 12609 1 0.16500 119244.000000
4214 14452 1 0.16500 119244.000000
4215 12609 1 0.16500 119244.000000
4215 16346 1 0.16500 119244.000000
4216 12609 1 0.16500 119244.000000
4216 13970 1 0.16500 119244.000000
4217 12610 1 0.16500 119244.000000
4217 16114 1 0.16500 119244.000000
4218 12610 1 0.16500 119244.000000
4218 16628 1 0.16500 119244.000000
4219 12610 1 0.16500 119244.000000
4219 14479 1 0.16500 119244.000000
4220 12610 1 0.16500 119244.000000
4220 14058 1 0.16500 119244.000000
4221 12611 1 0.16500 119244.000000
4221 20755 1 0.16500 119244.000000
4222 12611 1 0.16500 119244.000000
4222 12873 1 0.16500 119244.000000
4223 12611 1 0.16500 119244.000000
4223 13277 1 0.16500 119244.000000
4224 12611 1 0.16500 119244.000000
4224 19474 1 0.16500 119244.000000
4225 12612 1 0.16500 119244.000000
4225 13764 1 0.16500 119244.000000
4226 12612 1 0.16500 119244.000000
4226 14172 1 0.16500 119244.000000
4227 12612 1 0.16500 119244.000000
4227 13633 1 0.16500 119244.000000
4228 12612 1 0.16500 119244.000000
4228 13470 1 0.16500 119244.000000
4229 12613 1 0.16500 119244.000000
4229 13717 1 0.16500 119244.000000
4230 12613 1 0.16500 119244.000000
4230 14984 1 0.16500 119244.000000
4231 12613 1 0.16500 119244.000000
4231 13798 1 0.16500 119244.000000
4232 12614 1 0.16500 119244.000000
4232 12847 1 0.16500 119244.000000
4233 12614 1 0.16500 119244.000000
4233 14663 1 0.16500 119244.000000
4234 12614 1 0.16500 119244.000000
4234 15191 1 0.16500 119244.000000
4235 12614 1 0.16500 119244.000000
4235 15710 1 0.16500 119244.000000
4236 12615 1 0.16500 119244.000000
4236 20158 1 0.16500 119244.000000
4237 12616 1 0.16500 119244.000000
4237 13379 1 0.16500 119244.000000
4238 12616 1 0.16500 119244.000000
4238 20806 1 0.16500 119244.000000
4239 12616 1 0.16500 119244.000000
4239 13391 1 0.16500 119244.000000
4240 12616 1 0.16500 119244.000000
4240 15979 1 0.16500 119244.000000
4241 15077 1 0.16500 119244.000000
4241 18610 1 0.16500 119244.000000
4242 14123 1 0.16500 119244.000000
4242 18610 1 0.16500 119244.000000
4243 16049 1 0.16500 119244.000000
4243 18610 1 0.16500 119244.000000
4244 12617 1 0.16500 119244.000000
4244 12839 1 0.16500 119244.000000
4245 12617 1 0.16500 119244.000000
4245 12665 1 0.16500 119244.000000
4246 12617 1 0.16500 119244.000000
4246 15573 1 0.16500 119244.000000
4247 12617 1 0.16500 119244.000000
4247 14934 1 0.16500 119244.000000
4248 12618 1 0.16500 119244.000000
4248 15476 1 0.16500 119244.000000
4249 12618 1 0.16500 119244.000000
4249 14267 1 0.16500 119244.000000
4250 12618 1 0.16500 119244.000000
4250 13986 1 0.16500 119244.000000
4251 12618 1 0.16500 119244.000000
4251 16447 1 0.16500 119244.000000
4252 12619 1 0.16500 119244.000000
4252 15376 1 0.16500 119244.000000
4253 12619 1 0.16500 119244.000000
4253 13199 1 0.16500 119244.000000
4254 12619 1 0.16500 119244.000000
4254 13522 1 0.16500 119244.000000
4255 12620 1 0.16500 119244.000000
4255 15223 1 0.16500 119244.000000
4256 12620 1 0.16500 119244.000000
4256 14380 1 0.16500 119244.000000
4257 12620 1 0.16500 119244.000000
4257 16399 1 0.16500 119244.000000
4258 12620 1 0.16500 119244.000000
4258 16115 1 0.16500 119244.000000
4259 12621 1 0.16500 119244.000000
4259 13701 1 0.16500 119244.000000
4260 12621 1 0.16500 119244.000000
4260 13846 1 0.16500 119244.000000
4261 12621 1 0.16500 119244.000000
4261 14837 1 0.16500 119244.000000
4262 12622 1 0.16500 119244.000000
4262 12755 1 0.16500 119244.000000
4263 12622 1 0.16500 119244.000000
4263 15061 1 0.16500 119244.000000
4264 12622 1 0.16500 119244.000000
4264 16654 1 0.16500 119244.000000
4265 12622 1 0.16500 119244.000000
4265 16033 1 0.16500 119244.000000
4266 12623 1 0.16500 119244.000000
4266 14420 1 0.16500 119244.000000
4267 12623 1 0.16500 119244.000000
4267 13397 1 0.16500 119244.000000
4268 12623 1 0.16500 119244.000000
4268 15427 1 0.16500 119244.000000
4269 12623 1 0.16500 119244.000000
4269 15112 1 0.16500 119244.000000
4270 12624 1 0.16500 119244.000000
4270 14059 1 0.16500 119244.000000
4271 12624 1 0.16500 119244.000000
4271 13946 1 0.16500 119244.000000
4272 12625 1 0.16500 119244.000000
4272 12630 1 0.16500 119244.000000
4273 12625 1 0.16500 119244.000000
4273 15545 1 0.16500 119244.000000
4274 12625 1 0.16500 119244.000000
4274 15326 1 0.16500 119244.000000
4275 12625 1 0.16500 119244.000000
4275 15401 1 0.16500 119244.000000
4276 12626 1 0.16500 119244.000000
4276 15059 1 0.16500 119244.000000
4277 12626 1 0.16500 119244.000000
4277 16567 1 0.16500 119244.000000
4278 12627 1 0.16500 119244.000000
4278 19786 1 0.16500 119244.000000
4279 12627 1 0.16500 119244.000000
4279 15963 1 0.16500 119244.000000
4280 12627 1 0.16500 119244.000000
4280 13910 1 0.16500 119244.000000
4281 12627 1 0.16500 119244.000000
4281 20236 1 0.16500 119244.000000
4282 12628 1 0.16500 119244.000000
4282 15550 1 0.16500 119244.000000
4283 12628 1 0.16500 119244.000000
4283 16536 1 0.16500 119244.000000
4284 12629 1 0.16500 119244.000000
4284 15050 1 0.16500 119244.000000
4285 12682 1 0.16500 119244.000000
4285 15050 1 0.16500 119244.000000
4286 12629 1 0.16500 119244.000000
4286 13212 1 0.16500 119244.000000
4287 12630 1 0.16500 119244.000000
4287 15027 1 0.16500 119244.000000
4288 12630 1 0.16500 119244.000000
4288 12772 1 0.16500 119244.000000
4289 12630 1 0.16500 119244.000000
4289 14659 1 0.16500 119244.000000
4290 12631 1 0.16500 119244.000000
4290 16685 1 0.16500 119244.000000
4291 12631 1 0.16500 119244.000000
4291 13107 1 0.16500 119244.000000
4292 12631 1 0.16500 119244.000000
4292 20782 1 0.16500 119244.000000
4293 12631 1 0.16500 119244.000000
4293 13219 1 0.16500 119244.000000
4294 12632 1 0.16500 119244.000000
4294 14076 1 0.16500 119244.000000
4295 11589 1 0.16500 119244.000000
4295 13933 1 0.16500 119244.000000
4296 12632 1 0.16500 119244.000000
4296 14643 1 0.16500 119244.000000
4297 12633 1 0.16500 119244.000000
4297 13462 1 0.16500 119244.000000
4298 12633 1 0.16500 119244.000000
4298 16168 1 0.16500 119244.000000
4299 12634 1 0.16500 119244.000000
4299 14517 1 0.16500 119244.000000
4300 12634 1 0.16500 119244.000000
4300 16557 1 0.16500 119244.000000
4301 12634 1 0.16500 119244.000000
4301 15053 1 0.16500 119244.000000
4302 12635 1 0.16500 119244.000000
4302 12712 1 0.16500 119244.000000
4303 12712 1 0.16500 119244.000000
4303 15001 1 0.16500 119244.000000
4304 12635 1 0.16500 119244.000000
4304 14334 1 0.16500 119244.000000
4305 12636 1 0.16500 119244.000000
4305 15273 1 0.16500 119244.000000
4306 12636 1 0.16500 119244.000000
4306 13654 1 0.16500 119244.000000
4307 12636 1 0.16500 119244.000000
4307 13706 1 0.16500 119244.000000
4308 12636 1 0.16500 119244.000000
4308 15796 1 0.16500 119244.000000
4309 12637 1 0.16500 119244.000000
4309 12671 1 0.16500 119244.000000
4310 12637 1 0.16500 119244.000000
4310 14642 1 0.16500 119244.000000
4311 12637 1 0.16500 119244.000000
4311 15662 1 0.16500 119244.000000
4312 12638 1 0.16500 119244.000000
4312 13145 1 0.16500 119244.000000
4313 12638 1 0.16500 119244.000000
4313 16303 1 0.16500 119244.000000
4314 12639 1 0.16500 119244.000000
4314 15427 1 0.16500 119244.000000
4315 12639 1 0.16500 119244.000000
4315 14127 1 0.16500 119244.000000
4316 12639 1 0.16500 119244.000000
4316 16218 1 0.16500 119244.000000
4317 12640 1 0.16500 119244.000000
4317 16221 1 0.16500 119244.000000
4318 12640 1 0.16500 119244.000000
4318 16980 1 0.16500 119244.000000
4319 12640 1 0.16500 119244.000000
4319 13838 1 0.16500 119244.000000
4320 13838 1 0.16500 119244.000000
4320 16514 1 0.16500 119244.000000
4321 12641 1 0.16500 119244.000000
4321 13676 1 0.16500 119244.000000
4322 12641 1 0.16500 119244.000000
4322 12780 1 0.16500 119244.000000
4323 12641 1 0.16500 119244.000000
4323 14864 1 0.16500 119244.000000
4324 12641 1 0.16500 119244.000000
4324 13860 1 0.16500 119244.000000
4325 12642 1 0.16500 119244.000000
4325 20218 1 0.16500 119244.000000
4326 12642 1 0.16500 119244.000000
4326 16530 1 0.16500 119244.000000
4327 12643 1 0.16500 119244.000000
4327 12949 1 0.16500 119244.000000
4328 12643 1 0.16500 119244.000000
4328 15105 1 0.16500 119244.000000
4329 12643 1 0.16500 119244.000000
4329 14856 1 0.16500 119244.000000
4330 12643 1 0.16500 119244.000000
4330 20254 1 0.16500 119244.000000
4331 12644 1 0.16500 119244.000000
4331 15093 1 0.16500 119244.000000
4332 12440 1 0.16500 119244.000000
4332 12644 1 0.16500 119244.000000
4333 12644 1 0.16500 119244.000000
4333 15897 1 0.16500 119244.000000
4334 12644 1 0.16500 119244.000000
4334 15235 1 0.16500 119244.000000
4335 12645 1 0.16500 119244.000000
4335 14538 1 0.16500 119244.000000
4336 12645 1 0.16500 119244.000000
4336 13723 1 0.16500 119244.000000
4337 12645 1 0.16500 119244.000000
4337 16319 1 0.16500 119244.000000
4338 12646 1 0.16500 119244.000000
4338 13078 1 0.16500 119244.000000
4339 12646 1 0.16500 119244.000000
4339 16110 1 0.16500 119244.000000
4340 12646 1 0.16500 119244.000000
4340 20308 1 0.16500 119244.000000
4341 12647 1 0.16500 119244.000000
4341 15322 1 0.16500 119244.000000
4342 12647 1 0.16500 119244.000000
4342 16610 1 0.16500 119244.000000
4343 12647 1 0.16500 119244.000000
4343 14932 1 0.16500 119244.000000
4344 12647 1 0.16500 119244.000000
4344 14683 1 0.16500 119244.000000
4345 12648 1 0.16500 119244.000000
4345 15009 1 0.16500 119244.000000
4346 12648 1 0.16500 119244.000000
4346 14110 1 0.16500 119244.000000
4347 12648 1 0.16500 119244.000000
4347 14353 1 0.16500 119244.000000
4348 12648 1 0.16500 119244.000000
4348 15520 1 0.16500 119244.000000
4349 12649 1 0.16500 119244.000000
4349 13198 1 0.16500 119244.000000
4350 12649 1 0.16500 119244.000000
4350 14577 1 0.16500 119244.000000
4351 12649 1 0.16500 119244.000000
4351 15533 1 0.16500 119244.000000
4352 12649 1 0.16500 119244.000000
4352 15208 1 0.16500 119244.000000
4353 12650 1 0.16500 119244.000000
4353 13610 1 0.16500 119244.000000
4354 12650 1 0.16500 119244.000000
4354 13030 1 0.16500 119244.000000
4355 12650 1 0.16500 119244.000000
4355 14889 1 0.16500 119244.000000
4356 12650 1 0.16500 119244.000000
4356 14431 1 0.16500 119244.000000
4357 12651 1 0.16500 119244.000000
4357 16153 1 0.16500 119244.000000
4358 12651 1 0.16500 119244.000000
4358 15494 1 0.16500 119244.000000
4359 12651 1 0.16500 119244.000000
4359 13487 1 0.16500 119244.000000
4360 12651 1 0.16500 119244.000000
4360 16121 1 0.16500 119244.000000
4361 12652 1 0.16500 119244.000000
4361 16023 1 0.16500 119244.000000
4362 12652 1 0.16500 119244.000000
4362 13826 1 0.16500 119244.000000
4363 12652 1 0.16500 119244.000000
4363 17386 1 0.16500 119244.000000
4364 12652 1 0.16500 119244.000000
4364 12721 1 0.16500 119244.000000
4365 12653 1 0.16500 119244.000000
4365 16426 1 0.16500 119244.000000
4366 12653 1 0.16500 119244.000000
4366 13557 1 0.16500 119244.000000
4367 12653 1 0.16500 119244.000000
4367 20623 1 0.16500 119244.000000
4368 12653 1 0.16500 119244.000000
4368 13112 1 0.16500 119244.000000
4369 12654 1 0.16500 119244.000000
4369 15318 1 0.16500 119244.000000
4370 12654 1 0.16500 119244.000000
4370 15394 1 0.16500 119244.000000
4371 12654 1 0.16500 119244.000000
4371 12702 1 0.16500 119244.000000
4372 12655 1 0.16500 119244.000000
4372 15804 1 0.16500 119244.000000
4373 12655 1 0.16500 119244.000000
4373 16278 1 0.16500 119244.000000
4374 13397 1 0.16500 119244.000000
4374 19939 1 0.16500 119244.000000
4375 12656 1 0.16500 119244.000000
4375 14485 1 0.16500 119244.000000
4376 12656 1 0.16500 119244.000000
4376 13834 1 0.16500 119244.000000
4377 12657 1 0.16500 119244.000000
4377 15003 1 0.16500 119244.000000
4378 12657 1 0.16500 119244.000000
4378 16812 1 0.16500 119244.000000
4379 12657 1 0.16500 119244.000000
4379 15860 1 0.16500 119244.000000
4380 12658 1 0.16500 119244.000000
4380 16111 1 0.16500 119244.000000
4381 12658 1 0.16500 119244.000000
4381 12843 1 0.16500 119244.000000
4382 12659 1 0.16500 119244.000000
4382 13741 1 0.16500 119244.000000
4383 12659 1 0.16500 119244.000000
4383 13704 1 0.16500 119244.000000
4384 12659 1 0.16500 119244.000000
4384 16649 1 0.16500 119244.000000
4385 12660 1 0.16500 119244.000000
4385 16335 1 0.16500 119244.000000
4386 12660 1 0.16500 119244.000000
4386 16147 1 0.16500 119244.000000
4387 12660 1 0.16500 119244.000000
4387 15100 1 0.16500 119244.000000
4388 12660 1 0.16500 119244.000000
4388 15383 1 0.16500 119244.000000
4389 12661 1 0.16500 119244.000000
4389 15964 1 0.16500 119244.000000
4390 12661 1 0.16500 119244.000000
4390 14791 1 0.16500 119244.000000
4391 12662 1 0.16500 119244.000000
4391 20338 1 0.16500 119244.000000
4392 12802 1 0.16500 119244.000000
4392 20338 1 0.16500 119244.000000
4393 12662 1 0.16500 119244.000000
4393 13387 1 0.16500 119244.000000
4394 12663 1 0.16500 119244.000000
4394 15648 1 0.16500 119244.000000
4395 12663 1 0.16500 119244.000000
4395 14203 1 0.16500 119244.000000
4396 12663 1 0.16500 119244.000000
4396 14897 1 0.16500 119244.000000
4397 12663 1 0.16500 119244.000000
4397 14302 1 0.16500 119244.000000
4398 16119 1 0.16500 119244.000000
4398 18622 1 0.16500 119244.000000
4399 14232 1 0.16500 119244.000000
4399 18622 1 0.16500 119244.000000
4400 14793 1 0.16500 119244.000000
4400 18622 1 0.16500 119244.000000
4401 12664 1 0.16500 119244.000000
4401 15039 1 0.16500 119244.000000
4402 12664 1 0.16500 119244.000000
4402 14160 1 0.16500 119244.000000
4403 12664 1 0.16500 119244.000000
4403 15913 1 0.16500 119244.000000
4404 12665 1 0.16500 119244.000000
4404 16382 1 0.16500 119244.000000
4405 12665 1 0.16500 119244.000000
4405 14960 1 0.16500 119244.000000
4406 12665 1 0.16500 119244.000000
4406 14041 1 0.16500 119244.000000
4407 12666 1 0.16500 119244.000000
4407 13757 1 0.16500 119244.000000
4408 12666 1 0.16500 119244.000000
4408 14767 1 0.16500 119244.000000
4409 12666 1 0.16500 119244.000000
4409 15064 1 0.16500 119244.000000
4410 12667 1 0.16500 119244.000000
4410 16124 1 0.16500 119244.000000
4411 12667 1 0.16500 119244.000000
4411 13323 1 0.16500 119244.000000
4412 12667 1 0.16500 119244.000000
4412 13533 1 0.16500 119244.000000
4413 12668 1 0.16500 119244.000000
4413 16579 1 0.16500 119244.000000
4414 12668 1 0.16500 119244.000000
4414 16511 1 0.16500 119244.000000
4415 12668 1 0.16500 119244.000000
4415 14944 1 0.16500 119244.000000
4416 12668 1 0.16500 119244.000000
4416 16140 1 0.16500 119244.000000
4417 12669 1 0.16500 119244.000000
4417 13700 1 0.16500 119244.000000
4418 12669 1 0.16500 119244.000000
4418 18718 1 0.16500 119244.000000
4419 12369 1 0.16500 119244.000000
4419 20263 1 0.16500 119244.000000
4420 12670 1 0.16500 119244.000000
4420 12733 1 0.16500 119244.000000
4421 12670 1 0.16500 119244.000000
4421 14554 1 0.16500 119244.000000
4422 12670 1 0.16500 119244.000000
4422 12746 1 0.16500 119244.000000
4423 12671 1 0.16500 119244.000000
4423 16257 1 0.16500 119244.000000
4424 12671 1 0.16500 119244.000000
4424 15322 1 0.16500 119244.000000
4425 12672 1 0.16500 119244.000000
4425 20365 1 0.16500 119244.000000
4426 12672 1 0.16500 119244.000000
4426 15262 1 0.16500 119244.000000
4427 12672 1 0.16500 119244.000000
4427 19258 1 0.16500 119244.000000
4428 12673 1 0.16500 119244.000000
4428 14475 1 0.16500 119244.000000
4429 12673 1 0.16500 119244.000000
4429 13090 1 0.16500 119244.000000
4430 12673 1 0.16500 119244.000000
4430 13308 1 0.16500 119244.000000
4431 12673 1 0.16500 119244.000000
4431 16694 1 0.16500 119244.000000
4432 16375 1 0.16500 119244.000000
4432 18634 1 0.16500 119244.000000
4433 13508 1 0.16500 119244.000000
4433 18634 1 0.16500 119244.000000
4434 14514 1 0.16500 119244.000000
4434 18634 1 0.16500 119244.000000
4435 12674 1 0.16500 119244.000000
4435 13302 1 0.16500 119244.000000
4436 12675 1 0.16500 119244.000000
4436 14239 1 0.16500 119244.000000
4437 12675 1 0.16500 119244.000000
4437 20731 1 0.16500 119244.000000
4438 12675 1 0.16500 119244.000000
4438 15483 1 0.16500 119244.000000
4439 12675 1 0.16500 119244.000000
4439 20608 1 0.16500 119244.000000
4440 12676 1 0.16500 119244.000000
4440 14647 1 0.16500 119244.000000
4441 12676 1 0.16500 119244.000000
4441 13249 1 0.16500 119244.000000
4442 12677 1 0.16500 119244.000000
4442 14182 1 0.16500 119244.000000
4443 12677 1 0.16500 119244.000000
4443 13210 1 0.16500 119244.000000
4444 11516 1 0.16500 119244.000000
4444 12677 1 0.16500 119244.000000
4445 12677 1 0.16500 119244.000000
4445 16557 1 0.16500 119244.000000
4446 12678 1 0.16500 119244.000000
4446 20539 1 0.16500 119244.000000
4447 12678 1 0.16500 119244.000000
4447 15380 1 0.16500 119244.000000
4448 12678 1 0.16500 119244.000000
4448 16683 1 0.16500 119244.000000
4449 12678 1 0.16500 119244.000000
4449 13097 1 0.16500 119244.000000
4450 12679 1 0.16500 119244.000000
4450 15818 1 0.16500 119244.000000
4451 12679 1 0.16500 119244.000000
4451 15412 1 0.16500 119244.000000
4452 12679 1 0.16500 119244.000000
4452 16488 1 0.16500 119244.000000
4453 12680 1 0.16500 119244.000000
4453 14194 1 0.16500 119244.000000
4454 12680 1 0.16500 119244.000000
4454 18922 1 0.16500 119244.000000
4455 12680 1 0.16500 119244.000000
4455 13608 1 0.16500 119244.000000
4456 12681 1 0.16500 119244.000000
4456 15260 1 0.16500 119244.000000
4457 12681 1 0.16500 119244.000000
4457 13141 1 0.16500 119244.000000
4458 12681 1 0.16500 119244.000000
4458 12824 1 0.16500 119244.000000
4459 12682 1 0.16500 119244.000000
4459 13004 1 0.16500 119244.000000
4460 12682 1 0.16500 119244.000000
4460 13705 1 0.16500 119244.000000
4461 12683 1 0.16500 119244.000000
4461 14302 1 0.16500 119244.000000
4462 12683 1 0.16500 119244.000000
4462 12713 1 0.16500 119244.000000
4463 11655 1 0.16500 119244.000000
4463 12683 1 0.16500 119244.000000
4464 12684 1 0.16500 119244.000000
4464 13161 1 0.16500 119244.000000
4465 12684 1 0.16500 119244.000000
4465 16216 1 0.16500 119244.000000
4466 12685 1 0.16500 119244.000000
4466 13182 1 0.16500 119244.000000
4467 12685 1 0.16500 119244.000000
4467 14513 1 0.16500 119244.000000
4468 12685 1 0.16500 119244.000000
4468 13361 1 0.16500 119244.000000
4469 12686 1 0.16500 119244.000000
4469 16212 1 0.16500 119244.000000
4470 12686 1 0.16500 119244.000000
4470 14435 1 0.16500 119244.000000
4471 12686 1 0.16500 119244.000000
4471 15480 1 0.16500 119244.000000
4472 12686 1 0.16500 119244.000000
4472 14620 1 0.16500 119244.000000
4473 12687 1 0.16500 119244.000000
4473 14653 1 0.16500 119244.000000
4474 12687 1 0.16500 119244.000000
4474 14964 1 0.16500 119244.000000
4475 12687 1 0.16500 119244.000000
4475 14568 1 0.16500 119244.000000
4476 12688 1 0.16500 119244.000000
4476 15523 1 0.16500 119244.000000
4477 12688 1 0.16500 119244.000000
4477 16657 1 0.16500 119244.000000
4478 12688 1 0.16500 119244.000000
4478 16211 1 0.16500 119244.000000
4479 18646 1 0.16500 119244.000000
4479 20593 1 0.16500 119244.000000
4480 14504 1 0.16500 119244.000000
4480 16253 1 0.16500 119244.000000
4481 16253 1 0.16500 119244.000000
4481 18646 1 0.16500 119244.000000
4482 12689 1 0.16500 119244.000000
4482 13743 1 0.16500 119244.000000
4483 12689 1 0.16500 119244.000000
4483 13888 1 0.16500 119244.000000
4484 12689 1 0.16500 119244.000000
4484 14460 1 0.16500 119244.000000
4485 12689 1 0.16500 119244.000000
4485 16468 1 0.16500 119244.000000
4486 12690 1 0.16500 119244.000000
4486 15573 1 0.16500 119244.000000
4487 12690 1 0.16500 119244.000000
4487 15252 1 0.16500 119244.000000
4488 12690 1 0.16500 119244.000000
4488 13747 1 0.16500 119244.000000
4489 12690 1 0.16500 119244.000000
4489 16607 1 0.16500 119244.000000
4490 12691 1 0.16500 119244.000000
4490 14244 1 0.16500 119244.000000
4491 12691 1 0.16500 119244.000000
4491 16243 1 0.16500 119244.000000
4492 12691 1 0.16500 119244.000000
4492 13145 1 0.16500 119244.000000
4493 12691 1 0.16500 119244.000000
4493 14707 1 0.16500 119244.000000
4494 12692 1 0.16500 119244.000000
4494 15153 1 0.16500 119244.000000
4495 14710 1 0.16500 119244.000000
4495 16058 1 0.16500 119244.000000
4496 12692 1 0.16500 119244.000000
4496 14710 1 0.16500 119244.000000
4497 12692 1 0.16500 119244.000000
4497 20683 1 0.16500 119244.000000
4498 12693 1 0.16500 119244.000000
4498 13548 1 0.16500 119244.000000
4499 12693 1 0.16500 119244.000000
4499 13228 1 0.16500 119244.000000
4500 12693 1 0.16500 119244.000000
4500 15643 1 0.16500 119244.000000
4501 12694 1 0.16500 119244.000000
4501 15834 1 0.16500 119244.000000
4502 12694 1 0.16500 119244.000000
4502 16597 1 0.16500 119244.000000
4503 12694 1 0.16500 119244.000000
4503 16537 1 0.16500 119244.000000
4504 12695 1 0.16500 119244.000000
4504 16074 1 0.16500 119244.000000
4505 12695 1 0.16500 119244.000000
4505 16220 1 0.16500 119244.000000
4506 12695 1 0.16500 119244.000000
4506 15096 1 0.16500 119244.000000
4507 12696 1 0.16500 119244.000000
4507 16291 1 0.16500 119244.000000
4508 12696 1 0.16500 119244.000000
4508 16510 1 0.16500 119244.000000
4509 14820 1 0.16500 119244.000000
4509 18670 1 0.16500 119244.000000
4510 18670 1 0.16500 119244.000000
4510 20641 1 0.16500 119244.000000
4511 13306 1 0.16500 119244.000000
4511 18682 1 0.16500 119244.000000
4512 14129 1 0.16500 119244.000000
4512 18682 1 0.16500 119244.000000
4513 18682 1 0.16500 119244.000000
4513 19858 1 0.16500 119244.000000
4514 13591 1 0.16500 119244.000000
4514 20011 1 0.16500 119244.000000
4515 14566 1 0.16500 119244.000000
4515 18694 1 0.16500 119244.000000
4516 18694 1 0.16500 119244.000000
4516 20173 1 0.16500 119244.000000
4517 18694 1 0.16500 119244.000000
4517 20785 1 0.16500 119244.000000
4518 12697 1 0.16500 119244.000000
4518 15756 1 0.16500 119244.000000
4519 12697 1 0.16500 119244.000000
4519 16375 1 0.16500 119244.000000
4520 12697 1 0.16500 119244.000000
4520 16560 1 0.16500 119244.000000
4521 12697 1 0.16500 119244.000000
4521 12925 1 0.16500 119244.000000
4522 12698 1 0.16500 119244.000000
4522 15076 1 0.16500 119244.000000
4523 12698 1 0.16500 119244.000000
4523 15329 1 0.16500 119244.000000
4524 12699 1 0.16500 119244.000000
4524 15532 1 0.16500 119244.000000
4525 12699 1 0.16500 119244.000000
4525 14349 1 0.16500 119244.000000
4526 12700 1 0.16500 119244.000000
4526 13480 1 0.16500 119244.000000
4527 12700 1 0.16500 119244.000000
4527 15836 1 0.16500 119244.000000
4528 11712 1 0.16500 119244.000000
4528 12700 1 0.16500 119244.000000
4529 12700 1 0.16500 119244.000000
4529 15947 1 0.16500 119244.000000
4530 12701 1 0.16500 119244.000000
4530 16411 1 0.16500 119244.000000
4531 12702 1 0.16500 119244.000000
4531 16460 1 0.16500 119244.000000
4532 12702 1 0.16500 119244.000000
4532 16528 1 0.16500 119244.000000
4533 12063 1 0.16500 119244.000000
4533 12702 1 0.16500 119244.000000
4534 12703 1 0.16500 119244.000000
4534 20563 1 0.16500 119244.000000
4535 12703 1 0.16500 119244.000000
4535 14441 1 0.16500 119244.000000
4536 12704 1 0.16500 119244.000000
4536 15268 1 0.16500 119244.000000
4537 12704 1 0.16500 119244.000000
4537 15150 1 0.16500 119244.000000
4538 12704 1 0.16500 119244.000000
4538 16246 1 0.16500 119244.000000
4539 12705 1 0.16500 119244.000000
4539 20440 1 0.16500 119244.000000
4540 12706 1 0.16500 119244.000000
4540 14719 1 0.16500 119244.000000
4541 12706 1 0.16500 119244.000000
4541 15946 1 0.16500 119244.000000
4542 12706 1 0.16500 119244.000000
4542 15199 1 0.16500 119244.000000
4543 12707 1 0.16500 119244.000000
4543 14079 1 0.16500 119244.000000
4544 12707 1 0.16500 119244.000000
4544 14138 1 0.16500 119244.000000
4545 12707 1 0.16500 119244.000000
4545 12868 1 0.16500 119244.000000
4546 12708 1 0.16500 119244.000000
4546 14401 1 0.16500 119244.000000
4547 12708 1 0.16500 119244.000000
4547 13364 1 0.16500 119244.000000
4548 12708 1 0.16500 119244.000000
4548 14346 1 0.16500 119244.000000
4549 12708 1 0.16500 119244.000000
4549 16473 1 0.16500 119244.000000
4550 12709 1 0.16500 119244.000000
4550 20650 1 0.16500 119244.000000
4551 12709 1 0.16500 119244.000000
4551 14565 1 0.16500 119244.000000
4552 12709 1 0.16500 119244.000000
4552 15344 1 0.16500 119244.000000
4553 14175 1 0.16500 119244.000000
4553 20392 1 0.16500 119244.000000
4554 12710 1 0.16500 119244.000000
4554 13254 1 0.16500 119244.000000
4555 12710 1 0.16500 119244.000000
4555 16487 1 0.16500 119244.000000
4556 12710 1 0.16500 119244.000000
4556 20392 1 0.16500 119244.000000
4557 12711 1 0.16500 119244.000000
4557 12763 1 0.16500 119244.000000
4558 12711 1 0.16500 119244.000000
4558 16247 1 0.16500 119244.000000
4559 12711 1 0.16500 119244.000000
4559 13996 1 0.16500 119244.000000
4560 12635 1 0.16500 119244.000000
4560 16570 1 0.16500 119244.000000
4561 12712 1 0.16500 119244.000000
4561 16587 1 0.16500 119244.000000
4562 12712 1 0.16500 119244.000000
4562 14901 1 0.16500 119244.000000
4563 12713 1 0.16500 119244.000000
4563 14295 1 0.16500 119244.000000
4564 12713 1 0.16500 119244.000000
4564 13398 1 0.16500 119244.000000
4565 12714 1 0.16500 119244.000000
4565 20647 1 0.16500 119244.000000
4566 12714 1 0.16500 119244.000000
4566 15564 1 0.16500 119244.000000
4567 12715 1 0.16500 119244.000000
4567 15624 1 0.16500 119244.000000
4568 12716 1 0.16500 119244.000000
4568 14386 1 0.16500 119244.000000
4569 12716 1 0.16500 119244.000000
4569 13437 1 0.16500 119244.000000
4570 12716 1 0.16500 119244.000000
4570 16641 1 0.16500 119244.000000
4571 12716 1 0.16500 119244.000000
4571 12860 1 0.16500 119244.000000
4572 12717 1 0.16500 119244.000000
4572 15118 1 0.16500 119244.000000
4573 12717 1 0.16500 119244.000000
4573 15821 1 0.16500 119244.000000
4574 12717 1 0.16500 119244.000000
4574 15200 1 0.16500 119244.000000
4575 12718 1 0.16500 119244.000000
4575 15324 1 0.16500 119244.000000
4576 12718 1 0.16500 119244.000000
4576 20011 1 0.16500 119244.000000
4577 12718 1 0.16500 119244.000000
4577 20263 1 0.16500 119244.000000
4578 12718 1 0.16500 119244.000000
4578 13242 1 0.16500 119244.000000
4579 12719 1 0.16500 119244.000000
4579 13682 1 0.16500 119244.000000
4580 12719 1 0.16500 119244.000000
4580 15435 1 0.16500 119244.000000
4581 12719 1 0.16500 119244.000000
4581 14772 1 0.16500 119244.000000
4582 12719 1 0.16500 119244.000000
4582 15567 1 0.16500 119244.000000
4583 12720 1 0.16500 119244.000000
4583 13406 1 0.16500 119244.000000
4584 13406 1 0.16500 119244.000000
4584 20575 1 0.16500 119244.000000
4585 12721 1 0.16500 119244.000000
4585 16167 1 0.16500 119244.000000
4586 14807 1 0.16500 119244.000000
4586 18706 1 0.16500 119244.000000
4587 18706 1 0.16500 119244.000000
4587 20943 1 0.16500 119244.000000
4588 14545 1 0.16500 119244.000000
4588 18706 1 0.16500 119244.000000
4589 15470 1 0.16500 119244.000000
4589 19282 1 0.16500 119244.000000
4590 13172 1 0.16500 119244.000000
4590 15470 1 0.16500 119244.000000
4591 12722 1 0.16500 119244.000000
4591 15470 1 0.16500 119244.000000
4592 13844 1 0.16500 119244.000000
4592 15470 1 0.16500 119244.000000
4593 14794 1 0.16500 119244.000000
4593 15233 1 0.16500 119244.000000
4594 12723 1 0.16500 119244.000000
4594 15074 1 0.16500 119244.000000
4595 12723 1 0.16500 119244.000000
4595 15233 1 0.16500 119244.000000
4596 12724 1 0.16500 119244.000000
4596 13045 1 0.16500 119244.000000
4597 12724 1 0.16500 119244.000000
4597 15683 1 0.16500 119244.000000
4598 12724 1 0.16500 119244.000000
4598 15607 1 0.16500 119244.000000
4599 12725 1 0.16500 119244.000000
4599 13990 1 0.16500 119244.000000
4600 12725 1 0.16500 119244.000000
4600 12841 1 0.16500 119244.000000
4601 12725 1 0.16500 119244.000000
4601 15324 1 0.16500 119244.000000
4602 12725 1 0.16500 119244.000000
4602 15301 1 0.16500 119244.000000
4603 12726 1 0.16500 119244.000000
4603 16322 1 0.16500 119244.000000
4604 12726 1 0.16500 119244.000000
4604 20794 1 0.16500 119244.000000
4605 12727 1 0.16500 119244.000000
4605 16065 1 0.16500 119244.000000
4606 12727 1 0.16500 119244.000000
4606 12775 1 0.16500 119244.000000
4607 16371 1 0.16500 119244.000000
4607 20143 1 0.16500 119244.000000
4608 15605 1 0.16500 119244.000000
4608 20143 1 0.16500 119244.000000
4609 12728 1 0.16500 119244.000000
4609 13496 1 0.16500 119244.000000
4610 12728 1 0.16500 119244.000000
4610 15513 1 0.16500 119244.000000
4611 12728 1 0.16500 119244.000000
4611 15794 1 0.16500 119244.000000
4612 12728 1 0.16500 119244.000000
4612 15835 1 0.16500 119244.000000
4613 12729 1 0.16500 119244.000000
4613 16060 1 0.16500 119244.000000
4614 12729 1 0.16500 119244.000000
4614 14341 1 0.16500 119244.000000
4615 12729 1 0.16500 119244.000000
4615 15025 1 0.16500 119244.000000
4616 12729 1 0.16500 119244.000000
4616 15518 1 0.16500 119244.000000
4617 12730 1 0.16500 119244.000000
4617 12825 1 0.16500 119244.000000
4618 12730 1 0.16500 119244.000000
4618 15004 1 0.16500 119244.000000
4619 12730 1 0.16500 119244.000000
4619 15567 1 0.16500 119244.000000
4620 12731 1 0.16500 119244.000000
4620 15879 1 0.16500 119244.000000
4621 12731 1 0.16500 119244.000000
4621 13585 1 0.16500 119244.000000
4622 12731 1 0.16500 119244.000000
4622 14548 1 0.16500 119244.000000
4623 18718 1 0.16500 119244.000000
4623 20524 1 0.16500 119244.000000
4624 11550 1 0.16500 119244.000000
4624 18718 1 0.16500 119244.000000
4625 12598 1 0.16500 119244.000000
4625 14498 1 0.16500 119244.000000
4626 12732 1 0.16500 119244.000000
4626 14894 1 0.16500 119244.000000
4627 12732 1 0.16500 119244.000000
4627 13184 1 0.16500 119244.000000
4628 12733 1 0.16500 119244.000000
4628 15368 1 0.16500 119244.000000
4629 12733 1 0.16500 119244.000000
4629 13913 1 0.16500 119244.000000
4630 12734 1 0.16500 119244.000000
4630 13529 1 0.16500 119244.000000
4631 12734 1 0.16500 119244.000000
4631 15349 1 0.16500 119244.000000
4632 12734 1 0.16500 119244.000000
4632 13232 1 0.16500 119244.000000
4633 12734 1 0.16500 119244.000000
4633 14716 1 0.16500 119244.000000
4634 12735 1 0.16500 119244.000000
4634 13918 1 0.16500 119244.000000
4635 12735 1 0.16500 119244.000000
4635 15894 1 0.16500 119244.000000
4636 16614 1 0.16500 119244.000000
4636 18730 1 0.16500 119244.000000
4637 13603 1 0.16500 119244.000000
4637 18730 1 0.16500 119244.000000
4638 13091 1 0.16500 119244.000000
4638 18730 1 0.16500 119244.000000
4639 11556 1 0.16500 119244.000000
4639 16454 1 0.16500 119244.000000
4640 11556 1 0.16500 119244.000000
4640 13998 1 0.16500 119244.000000
4641 12737 1 0.16500 119244.000000
4641 16225 1 0.16500 119244.000000
4642 12737 1 0.16500 119244.000000
4642 15458 1 0.16500 119244.000000
4643 12737 1 0.16500 119244.000000
4643 15076 1 0.16500 119244.000000
4644 12737 1 0.16500 119244.000000
4644 13645 1 0.16500 119244.000000
4645 12738 1 0.16500 119244.000000
4645 14315 1 0.16500 119244.000000
4646 12738 1 0.16500 119244.000000
4646 16069 1 0.16500 119244.000000
4647 12738 1 0.16500 119244.000000
4647 16665 1 0.16500 119244.000000
4648 12739 1 0.16500 119244.000000
4648 18754 1 0.16500 119244.000000
4649 12739 1 0.16500 119244.000000
4649 12752 1 0.16500 119244.000000
4650 12739 1 0.16500 119244.000000
4650 19534 1 0.16500 119244.000000
4651 12740 1 0.16500 119244.000000
4651 16249 1 0.16500 119244.000000
4652 12740 1 0.16500 119244.000000
4652 16514 1 0.16500 119244.000000
4653 12740 1 0.16500 119244.000000
4653 13163 1 0.16500 119244.000000
4654 12741 1 0.16500 119244.000000
4654 12947 1 0.16500 119244.000000
4655 12741 1 0.16500 119244.000000
4655 14156 1 0.16500 119244.000000
4656 12741 1 0.16500 119244.000000
4656 13388 1 0.16500 119244.000000
4657 12741 1 0.16500 119244.000000
4657 15849 1 0.16500 119244.000000
4658 12742 1 0.16500 119244.000000
4658 13798 1 0.16500 119244.000000
4659 12742 1 0.16500 119244.000000
4659 15256 1 0.16500 119244.000000
4660 12743 1 0.16500 119244.000000
4660 16642 1 0.16500 119244.000000
4661 12743 1 0.16500 119244.000000
4661 16684 1 0.16500 119244.000000
4662 12743 1 0.16500 119244.000000
4662 15981 1 0.16500 119244.000000
4663 12743 1 0.16500 119244.000000
4663 13173 1 0.16500 119244.000000
4664 12744 1 0.16500 119244.000000
4664 13963 1 0.16500 119244.000000
4665 12744 1 0.16500 119244.000000
4665 15737 1 0.16500 119244.000000
4666 12744 1 0.16500 119244.000000
4666 15501 1 0.16500 119244.000000
4667 12745 1 0.16500 119244.000000
4667 16601 1 0.16500 119244.000000
4668 12745 1 0.16500 119244.000000
4668 16361 1 0.16500 119244.000000
4669 12745 1 0.16500 119244.000000
4669 15533 1 0.16500 119244.000000
4670 12745 1 0.16500 119244.000000
4670 13105 1 0.16500 119244.000000
4671 12746 1 0.16500 119244.000000
4671 14969 1 0.16500 119244.000000
4672 12746 1 0.16500 119244.000000
4672 14462 1 0.16500 119244.000000
4673 12746 1 0.16500 119244.000000
4673 15813 1 0.16500 119244.000000
4674 12747 1 0.16500 119244.000000
4674 14363 1 0.16500 119244.000000
4675 12747 1 0.16500 119244.000000
4675 13708 1 0.16500 119244.000000
4676 14037 1 0.16500 119244.000000
4676 15421 1 0.16500 119244.000000
4677 12747 1 0.16500 119244.000000
4677 15421 1 0.16500 119244.000000
4678 12748 1 0.16500 119244.000000
4678 12972 1 0.16500 119244.000000
4679 12748 1 0.16500 119244.000000
4679 13693 1 0.16500 119244.000000
4680 12748 1 0.16500 119244.000000
4680 16303 1 0.16500 119244.000000
4681 12748 1 0.16500 119244.000000
4681 16295 1 0.16500 119244.000000
4682 12749 1 0.16500 119244.000000
4682 16401 1 0.16500 119244.000000
4683 12749 1 0.16500 119244.000000
4683 16474 1 0.16500 119244.000000
4684 12750 1 0.16500 119244.000000
4684 14329 1 0.16500 119244.000000
4685 12750 1 0.16500 119244.000000
4685 13220 1 0.16500 119244.000000
4686 12750 1 0.16500 119244.000000
4686 14488 1 0.16500 119244.000000
4687 12750 1 0.16500 119244.000000
4687 13178 1 0.16500 119244.000000
4688 12751 1 0.16500 119244.000000
4688 20455 1 0.16500 119244.000000
4689 12751 1 0.16500 119244.000000
4689 14866 1 0.16500 119244.000000
4690 12751 1 0.16500 119244.000000
4690 12864 1 0.16500 119244.000000
4691 18742 1 0.16500 119244.000000
4691 20344 1 0.16500 119244.000000
4692 13718 1 0.16500 119244.000000
4692 18742 1 0.16500 119244.000000
4693 15094 1 0.16500 119244.000000
4693 18742 1 0.16500 119244.000000
4694 12752 1 0.16500 119244.000000
4694 15905 1 0.16500 119244.000000
4695 12752 1 0.16500 119244.000000
4695 16223 1 0.16500 119244.000000
4696 12753 1 0.16500 119244.000000
4696 13374 1 0.16500 119244.000000
4697 12753 1 0.16500 119244.000000
4697 15935 1 0.16500 119244.000000
4698 12754 1 0.16500 119244.000000
4698 15284 1 0.16500 119244.000000
4699 12754 1 0.16500 119244.000000
4699 15572 1 0.16500 119244.000000
4700 14080 1 0.16500 119244.000000
4700 18754 1 0.16500 119244.000000
4701 14350 1 0.16500 119244.000000
4701 18754 1 0.16500 119244.000000
4702 12755 1 0.16500 119244.000000
4702 15642 1 0.16500 119244.000000
4703 12755 1 0.16500 119244.000000
4703 13393 1 0.16500 119244.000000
4704 12755 1 0.16500 119244.000000
4704 14290 1 0.16500 119244.000000
4705 12756 1 0.16500 119244.000000
4705 13912 1 0.16500 119244.000000
4706 12756 1 0.16500 119244.000000
4706 15285 1 0.16500 119244.000000
4707 12756 1 0.16500 119244.000000
4707 20182 1 0.16500 119244.000000
4708 12757 1 0.16500 119244.000000
4708 13920 1 0.16500 119244.000000
4709 12757 1 0.16500 119244.000000
4709 19018 1 0.16500 119244.000000
4710 12757 1 0.16500 119244.000000
4710 15165 1 0.16500 119244.000000
4711 12758 1 0.16500 119244.000000
4711 14732 1 0.16500 119244.000000
4712 12758 1 0.16500 119244.000000
4712 14194 1 0.16500 119244.000000
4713 12758 1 0.16500 119244.000000
4713 12773 1 0.16500 119244.000000
4714 12758 1 0.16500 119244.000000
4714 15139 1 0.16500 119244.000000
4715 12759 1 0.16500 119244.000000
4715 13178 1 0.16500 119244.000000
4716 12759 1 0.16500 119244.000000
4716 14558 1 0.16500 119244.000000
4717 12760 1 0.16500 119244.000000
4717 13282 1 0.16500 119244.000000
4718 12760 1 0.16500 119244.000000
4718 16402 1 0.16500 119244.000000
4719 12760 1 0.16500 119244.000000
4719 15699 1 0.16500 119244.000000
4720 12760 1 0.16500 119244.000000
4720 13947 1 0.16500 119244.000000
4721 12761 1 0.16500 119244.000000
4721 13590 1 0.16500 119244.000000
4722 12761 1 0.16500 119244.000000
4722 12813 1 0.16500 119244.000000
4723 12761 1 0.16500 119244.000000
4723 12770 1 0.16500 119244.000000
4724 12761 1 0.16500 119244.000000
4724 13744 1 0.16500 119244.000000
4725 12762 1 0.16500 119244.000000
4725 16232 1 0.16500 119244.000000
4726 12762 1 0.16500 119244.000000
4726 16561 1 0.16500 119244.000000
4727 12762 1 0.16500 119244.000000
4727 16022 1 0.16500 119244.000000
4728 12762 1 0.16500 119244.000000
4728 14945 1 0.16500 119244.000000
4729 12763 1 0.16500 119244.000000
4729 13380 1 0.16500 119244.000000
4730 12763 1 0.16500 119244.000000
4730 13304 1 0.16500 119244.000000
4731 12763 1 0.16500 119244.000000
4731 14291 1 0.16500 119244.000000
4732 12764 1 0.16500 119244.000000
4732 14411 1 0.16500 119244.000000
4733 12764 1 0.16500 119244.000000
4733 20869 1 0.16500 119244.000000
4734 12764 1 0.16500 119244.000000
4734 12881 1 0.16500 119244.000000
4735 12764 1 0.16500 119244.000000
4735 20773 1 0.16500 119244.000000
4736 14209 1 0.16500 119244.000000
4736 18766 1 0.16500 119244.000000
4737 14014 1 0.16500 119244.000000
4737 18766 1 0.16500 119244.000000
4738 12765 1 0.16500 119244.000000
4738 14868 1 0.16500 119244.000000
4739 12765 1 0.16500 119244.000000
4739 15759 1 0.16500 119244.000000
4740 12765 1 0.16500 119244.000000
4740 16252 1 0.16500 119244.000000
4741 12765 1 0.16500 119244.000000
4741 13340 1 0.16500 119244.000000
4742 12766 1 0.16500 119244.000000
4742 14269 1 0.16500 119244.000000
4743 12766 1 0.16500 119244.000000
4743 14025 1 0.16500 119244.000000
4744 12766 1 0.16500 119244.000000
4744 12830 1 0.16500 119244.000000
4745 12767 1 0.16500 119244.000000
4745 16267 1 0.16500 119244.000000
4746 12767 1 0.16500 119244.000000
4746 13215 1 0.16500 119244.000000
4747 12768 1 0.16500 119244.000000
4747 14576 1 0.16500 119244.000000
4748 12768 1 0.16500 119244.000000
4748 16298 1 0.16500 119244.000000
4749 12768 1 0.16500 119244.000000
4749 15571 1 0.16500 119244.000000
4750 12769 1 0.16500 119244.000000
4750 13004 1 0.16500 119244.000000
4751 12769 1 0.16500 119244.000000
4751 13778 1 0.16500 119244.000000
4752 12770 1 0.16500 119244.000000
4752 13772 1 0.16500 119244.000000
4753 12770 1 0.16500 119244.000000
4753 15245 1 0.16500 119244.000000
4754 12770 1 0.16500 119244.000000
4754 16182 1 0.16500 119244.000000
4755 14065 1 0.16500 119244.000000
4755 16182 1 0.16500 119244.000000
4756 12771 1 0.16500 119244.000000
4756 12994 1 0.16500 119244.000000
4757 12771 1 0.16500 119244.000000
4757 16124 1 0.16500 119244.000000
4758 12771 1 0.16500 119244.000000
4758 14735 1 0.16500 119244.000000
4759 12772 1 0.16500 119244.000000
4759 16091 1 0.16500 119244.000000
4760 13993 1 0.16500 119244.000000
4760 14461 1 0.16500 119244.000000
4761 12772 1 0.16500 119244.000000
4761 14461 1 0.16500 119244.000000
4762 12773 1 0.16500 119244.000000
4762 13794 1 0.16500 119244.000000
4763 12773 1 0.16500 119244.000000
4763 16224 1 0.16500 119244.000000
4764 12773 1 0.16500 119244.000000
4764 13048 1 0.16500 119244.000000
4765 12774 1 0.16500 119244.000000
4765 15149 1 0.16500 119244.000000
4766 12775 1 0.16500 119244.000000
4766 15250 1 0.16500 119244.000000
4767 12775 1 0.16500 119244.000000
4767 15474 1 0.16500 119244.000000
4768 12775 1 0.16500 119244.000000
4768 15499 1 0.16500 119244.000000
4769 12776 1 0.16500 119244.000000
4769 14224 1 0.16500 119244.000000
4770 12776 1 0.16500 119244.000000
4770 14443 1 0.16500 119244.000000
4771 18778 1 0.16500 119244.000000
4771 20116 1 0.16500 119244.000000
4772 14106 1 0.16500 119244.000000
4772 18778 1 0.16500 119244.000000
4773 12777 1 0.16500 119244.000000
4773 14892 1 0.16500 119244.000000
4774 12777 1 0.16500 119244.000000
4774 13014 1 0.16500 119244.000000
4775 12777 1 0.16500 119244.000000
4775 13246 1 0.16500 119244.000000
4776 12777 1 0.16500 119244.000000
4776 20425 1 0.16500 119244.000000
4777 12778 1 0.16500 119244.000000
4777 19930 1 0.16500 119244.000000
4778 12778 1 0.16500 119244.000000
4778 13427 1 0.16500 119244.000000
4779 12778 1 0.16500 119244.000000
4779 20812 1 0.16500 119244.000000
4780 12778 1 0.16500 119244.000000
4780 12835 1 0.16500 119244.000000
4781 12779 1 0.16500 119244.000000
4781 15810 1 0.16500 119244.000000
4782 12779 1 0.16500 119244.000000
4782 15353 1 0.16500 119244.000000
4783 13868 1 0.16500 119244.000000
4783 15810 1 0.16500 119244.000000
4784 12780 1 0.16500 119244.000000
4784 16228 1 0.16500 119244.000000
4785 12780 1 0.16500 119244.000000
4785 20056 1 0.16500 119244.000000
4786 12781 1 0.16500 119244.000000
4786 16459 1 0.16500 119244.000000
4787 12781 1 0.16500 119244.000000
4787 13054 1 0.16500 119244.000000
4788 12781 1 0.16500 119244.000000
4788 14538 1 0.16500 119244.000000
4789 12492 1 0.16500 119244.000000
4789 12782 1 0.16500 119244.000000
4790 12783 1 0.16500 119244.000000
4790 16158 1 0.16500 119244.000000
4791 12783 1 0.16500 119244.000000
4791 13727 1 0.16500 119244.000000
4792 12783 1 0.16500 119244.000000
4792 18838 1 0.16500 119244.000000
4793 12784 1 0.16500 119244.000000
4793 13973 1 0.16500 119244.000000
4794 12784 1 0.16500 119244.000000
4794 13334 1 0.16500 119244.000000
4795 13201 1 0.16500 119244.000000
4795 18790 1 0.16500 119244.000000
4796 12785 1 0.16500 119244.000000
4796 15137 1 0.16500 119244.000000
4797 12785 1 0.16500 119244.000000
4797 13853 1 0.16500 119244.000000
4798 12785 1 0.16500 119244.000000
4798 15461 1 0.16500 119244.000000
4799 12785 1 0.16500 119244.000000
4799 14994 1 0.16500 119244.000000
4800 12786 1 0.16500 119244.000000
4800 16199 1 0.16500 119244.000000
4801 12787 1 0.16500 119244.000000
4801 13215 1 0.16500 119244.000000
4802 13215 1 0.16500 119244.000000
4802 16347 1 0.16500 119244.000000
4803 12787 1 0.16500 119244.000000
4803 15137 1 0.16500 119244.000000
4804 12788 1 0.16500 119244.000000
4804 16001 1 0.16500 119244.000000
4805 12788 1 0.16500 119244.000000
4805 14929 1 0.16500 119244.000000
4806 12190 1 0.16500 119244.000000
4806 13129 1 0.16500 119244.000000
4807 13707 1 0.16500 119244.000000
4807 18802 1 0.16500 119244.000000
4808 14801 1 0.16500 119244.000000
4808 18802 1 0.16500 119244.000000
4809 18802 1 0.16500 119244.000000
4809 20530 1 0.16500 119244.000000
4810 12789 1 0.16500 119244.000000
4810 14039 1 0.16500 119244.000000
4811 14039 1 0.16500 119244.000000
4811 16952 1 0.16500 119244.000000
4812 12789 1 0.16500 119244.000000
4812 15512 1 0.16500 119244.000000
4813 14862 1 0.16500 119244.000000
4813 18814 1 0.16500 119244.000000
4814 13526 1 0.16500 119244.000000
4814 18814 1 0.16500 119244.000000
4815 12790 1 0.16500 119244.000000
4815 15374 1 0.16500 119244.000000
4816 12790 1 0.16500 119244.000000
4816 14890 1 0.16500 119244.000000
4817 14111 1 0.16500 119244.000000
4817 18826 1 0.16500 119244.000000
4818 12791 1 0.16500 119244.000000
4818 16040 1 0.16500 119244.000000
4819 12791 1 0.16500 119244.000000
4819 13607 1 0.16500 119244.000000
4820 12791 1 0.16500 119244.000000
4820 15487 1 0.16500 119244.000000
4821 12792 1 0.16500 119244.000000
4821 12907 1 0.16500 119244.000000
4822 12792 1 0.16500 119244.000000
4822 14069 1 0.16500 119244.000000
4823 12792 1 0.16500 119244.000000
4823 14164 1 0.16500 119244.000000
4824 12792 1 0.16500 119244.000000
4824 15119 1 0.16500 119244.000000
4825 12793 1 0.16500 119244.000000
4825 15952 1 0.16500 119244.000000
4826 12793 1 0.16500 119244.000000
4826 15916 1 0.16500 119244.000000
4827 12793 1 0.16500 119244.000000
4827 14523 1 0.16500 119244.000000
4828 12794 1 0.16500 119244.000000
4828 14139 1 0.16500 119244.000000
4829 12794 1 0.16500 119244.000000
4829 13095 1 0.16500 119244.000000
4830 12794 1 0.16500 119244.000000
4830 15625 1 0.16500 119244.000000
4831 12795 1 0.16500 119244.000000
4831 16423 1 0.16500 119244.000000
4832 12795 1 0.16500 119244.000000
4832 14944 1 0.16500 119244.000000
4833 12795 1 0.16500 119244.000000
4833 15831 1 0.16500 119244.000000
4834 12795 1 0.16500 119244.000000
4834 13120 1 0.16500 119244.000000
4835 12796 1 0.16500 119244.000000
4835 15069 1 0.16500 119244.000000
4836 12796 1 0.16500 119244.000000
4836 16656 1 0.16500 119244.000000
4837 12796 1 0.16500 119244.000000
4837 13405 1 0.16500 119244.000000
4838 12797 1 0.16500 119244.000000
4838 14034 1 0.16500 119244.000000
4839 12797 1 0.16500 119244.000000
4839 13399 1 0.16500 119244.000000
4840 12797 1 0.16500 119244.000000
4840 14997 1 0.16500 119244.000000
4841 12798 1 0.16500 119244.000000
4841 13990 1 0.16500 119244.000000
4842 12798 1 0.16500 119244.000000
4842 14990 1 0.16500 119244.000000
4843 12798 1 0.16500 119244.000000
4843 14647 1 0.16500 119244.000000
4844 12798 1 0.16500 119244.000000
4844 13300 1 0.16500 119244.000000
4845 12799 1 0.16500 119244.000000
4845 13196 1 0.16500 119244.000000
4846 12799 1 0.16500 119244.000000
4846 13840 1 0.16500 119244.000000
4847 12799 1 0.16500 119244.000000
4847 14910 1 0.16500 119244.000000
4848 16017 1 0.16500 119244.000000
4848 20677 1 0.16500 119244.000000
4849 12800 1 0.16500 119244.000000
4849 16017 1 0.16500 119244.000000
4850 12801 1 0.16500 119244.000000
4850 14717 1 0.16500 119244.000000
4851 12801 1 0.16500 119244.000000
4851 14119 1 0.16500 119244.000000
4852 12801 1 0.16500 119244.000000
4852 16131 1 0.16500 119244.000000
4853 12802 1 0.16500 119244.000000
4853 20731 1 0.16500 119244.000000
4854 12802 1 0.16500 119244.000000
4854 14571 1 0.16500 119244.000000
4855 12802 1 0.16500 119244.000000
4855 15047 1 0.16500 119244.000000
4856 12803 1 0.16500 119244.000000
4856 16063 1 0.16500 119244.000000
4857 12803 1 0.16500 119244.000000
4857 15971 1 0.16500 119244.000000
4858 12804 1 0.16500 119244.000000
4858 16282 1 0.16500 119244.000000
4859 12804 1 0.16500 119244.000000
4859 13472 1 0.16500 119244.000000
4860 12213 1 0.16500 119244.000000
4860 14929 1 0.16500 119244.000000
4861 13390 1 0.16500 119244.000000
4861 18850 1 0.16500 119244.000000
4862 13302 1 0.16500 119244.000000
4862 18850 1 0.16500 119244.000000
4863 12805 1 0.16500 119244.000000
4863 16083 1 0.16500 119244.000000
4864 12805 1 0.16500 119244.000000
4864 16367 1 0.16500 119244.000000
4865 12805 1 0.16500 119244.000000
4865 14747 1 0.16500 119244.000000
4866 12805 1 0.16500 119244.000000
4866 16693 1 0.16500 119244.000000
4867 12806 1 0.16500 119244.000000
4867 15049 1 0.16500 119244.000000
4868 12806 1 0.16500 119244.000000
4868 15330 1 0.16500 119244.000000
4869 12806 1 0.16500 119244.000000
4869 15314 1 0.16500 119244.000000
4870 12807 1 0.16500 119244.000000
4870 20017 1 0.16500 119244.000000
4871 12807 1 0.16500 119244.000000
4871 15007 1 0.16500 119244.000000
4872 12808 1 0.16500 119244.000000
4872 15148 1 0.16500 119244.000000
4873 12809 1 0.16500 119244.000000
4873 13863 1 0.16500 119244.000000
4874 12809 1 0.16500 119244.000000
4874 15152 1 0.16500 119244.000000
4875 12809 1 0.16500 119244.000000
4875 14440 1 0.16500 119244.000000
4876 12810 1 0.16500 119244.000000
4876 12862 1 0.16500 119244.000000
4877 12810 1 0.16500 119244.000000
4877 15691 1 0.16500 119244.000000
4878 12810 1 0.16500 119244.000000
4878 13563 1 0.16500 119244.000000
4879 12811 1 0.16500 119244.000000
4879 15880 1 0.16500 119244.000000
4880 12812 1 0.16500 119244.000000
4880 13703 1 0.16500 119244.000000
4881 12812 1 0.16500 119244.000000
4881 16391 1 0.16500 119244.000000
4882 12812 1 0.16500 119244.000000
4882 13670 1 0.16500 119244.000000
4883 12813 1 0.16500 119244.000000
4883 13859 1 0.16500 119244.000000
4884 12813 1 0.16500 119244.000000
4884 13951 1 0.16500 119244.000000
4885 12813 1 0.16500 119244.000000
4885 14763 1 0.16500 119244.000000
4886 15085 1 0.16500 119244.000000
4886 18862 1 0.16500 119244.000000
4887 12814 1 0.16500 119244.000000
4887 16661 1 0.16500 119244.000000
4888 12814 1 0.16500 119244.000000
4888 13152 1 0.16500 119244.000000
4889 12814 1 0.16500 119244.000000
4889 16063 1 0.16500 119244.000000
4890 12814 1 0.16500 119244.000000
4890 15008 1 0.16500 119244.000000
4891 12815 1 0.16500 119244.000000
4891 12993 1 0.16500 119244.000000
4892 12815 1 0.16500 119244.000000
4892 14558 1 0.16500 119244.000000
4893 12815 1 0.16500 119244.000000
4893 14488 1 0.16500 119244.000000
4894 18874 1 0.16500 119244.000000
4894 20269 1 0.16500 119244.000000
4895 13490 1 0.16500 119244.000000
4895 18886 1 0.16500 119244.000000
4896 18886 1 0.16500 119244.000000
4896 20212 1 0.16500 119244.000000
4897 12816 1 0.16500 119244.000000
4897 15580 1 0.16500 119244.000000
4898 12816 1 0.16500 119244.000000
4898 13978 1 0.16500 119244.000000
4899 14326 1 0.16500 119244.000000
4899 16142 1 0.16500 119244.000000
4900 12817 1 0.16500 119244.000000
4900 14326 1 0.16500 119244.000000
4901 12817 1 0.16500 119244.000000
4901 12956 1 0.16500 119244.000000
4902 12818 1 0.16500 119244.000000
4902 13308 1 0.16500 119244.000000
4903 12818 1 0.16500 119244.000000
4903 15125 1 0.16500 119244.000000
4904 12818 1 0.16500 119244.000000
4904 14464 1 0.16500 119244.000000
4905 12818 1 0.16500 119244.000000
4905 13381 1 0.16500 119244.000000
4906 12819 1 0.16500 119244.000000
4906 14202 1 0.16500 119244.000000
4907 12819 1 0.16500 119244.000000
4907 13902 1 0.16500 119244.000000
4908 12819 1 0.16500 119244.000000
4908 13299 1 0.16500 119244.000000
4909 12819 1 0.16500 119244.000000
4909 15505 1 0.16500 119244.000000
4910 12820 1 0.16500 119244.000000
4910 16454 1 0.16500 119244.000000
4911 12820 1 0.16500 119244.000000
4911 16415 1 0.16500 119244.000000
4912 12820 1 0.16500 119244.000000
4912 13510 1 0.16500 119244.000000
4913 12820 1 0.16500 119244.000000
4913 14944 1 0.16500 119244.000000
4914 12821 1 0.16500 119244.000000
4914 15200 1 0.16500 119244.000000
4915 12821 1 0.16500 119244.000000
4915 13758 1 0.16500 119244.000000
4916 12821 1 0.16500 119244.000000
4916 16451 1 0.16500 119244.000000
4917 12821 1 0.16500 119244.000000
4917 15577 1 0.16500 119244.000000
4918 12822 1 0.16500 119244.000000
4918 14369 1 0.16500 119244.000000
4919 12822 1 0.16500 119244.000000
4919 15423 1 0.16500 119244.000000
4920 12822 1 0.16500 119244.000000
4920 13657 1 0.16500 119244.000000
4921 12822 1 0.16500 119244.000000
4921 15643 1 0.16500 119244.000000
4922 13511 1 0.16500 119244.000000
4922 16700 1 0.16500 119244.000000
4923 12823 1 0.16500 119244.000000
4923 15257 1 0.16500 119244.000000
4924 12823 1 0.16500 119244.000000
4924 12964 1 0.16500 119244.000000
4925 12823 1 0.16500 119244.000000
4925 14646 1 0.16500 119244.000000
4926 12824 1 0.16500 119244.000000
4926 13855 1 0.16500 119244.000000
4927 12824 1 0.16500 119244.000000
4927 13029 1 0.16500 119244.000000
4928 12824 1 0.16500 119244.000000
4928 13070 1 0.16500 119244.000000
4929 12825 1 0.16500 119244.000000
4929 15848 1 0.16500 119244.000000
4930 12825 1 0.16500 119244.000000
4930 19786 1 0.16500 119244.000000
4931 12826 1 0.16500 119244.000000
4931 16555 1 0.16500 119244.000000
4932 14318 1 0.16500 119244.000000
4932 18898 1 0.16500 119244.000000
4933 12827 1 0.16500 119244.000000
4933 13841 1 0.16500 119244.000000
4934 12827 1 0.16500 119244.000000
4934 14926 1 0.16500 119244.000000
4935 12827 1 0.16500 119244.000000
4935 14637 1 0.16500 119244.000000
4936 12827 1 0.16500 119244.000000
4936 16053 1 0.16500 119244.000000
4937 13344 1 0.16500 119244.000000
4937 15102 1 0.16500 119244.000000
4938 18910 1 0.16500 119244.000000
4938 20008 1 0.16500 119244.000000
4939 15102 1 0.16500 119244.000000
4939 18910 1 0.16500 119244.000000
4940 16030 1 0.16500 119244.000000
4940 16325 1 0.16500 119244.000000
4941 12828 1 0.16500 119244.000000
4941 13194 1 0.16500 119244.000000
4942 12828 1 0.16500 119244.000000
4942 16325 1 0.16500 119244.000000
4943 12828 1 0.16500 119244.000000
4943 14852 1 0.16500 119244.000000
4944 12829 1 0.16500 119244.000000
4944 15777 1 0.16500 119244.000000
4945 12829 1 0.16500 119244.000000
4945 14245 1 0.16500 119244.000000
4946 12829 1 0.16500 119244.000000
4946 15050 1 0.16500 119244.000000
4947 12830 1 0.16500 119244.000000
4947 13160 1 0.16500 119244.000000
4948 12830 1 0.16500 119244.000000
4948 16415 1 0.16500 119244.000000
4949 12830 1 0.16500 119244.000000
4949 13455 1 0.16500 119244.000000
4950 12831 1 0.16500 119244.000000
4950 15674 1 0.16500 119244.000000
4951 12831 1 0.16500 119244.000000
4951 15635 1 0.16500 119244.000000
4952 12831 1 0.16500 119244.000000
4952 20479 1 0.16500 119244.000000
4953 12831 1 0.16500 119244.000000
4953 15452 1 0.16500 119244.000000
4954 12832 1 0.16500 119244.000000
4954 15264 1 0.16500 119244.000000
4955 12832 1 0.16500 119244.000000
4955 20740 1 0.16500 119244.000000
4956 12832 1 0.16500 119244.000000
4956 19186 1 0.16500 119244.000000
4957 12833 1 0.16500 119244.000000
4957 15665 1 0.16500 119244.000000
4958 12833 1 0.16500 119244.000000
4958 15226 1 0.16500 119244.000000
4959 12833 1 0.16500 119244.000000
4959 13724 1 0.16500 119244.000000
4960 12833 1 0.16500 119244.000000
4960 14376 1 0.16500 119244.000000
4961 16251 1 0.16500 119244.000000
4961 18922 1 0.16500 119244.000000
4962 12834 1 0.16500 119244.000000
4962 14607 1 0.16500 119244.000000
4963 12834 1 0.16500 119244.000000
4963 20377 1 0.16500 119244.000000
4964 12835 1 0.16500 119244.000000
4964 14325 1 0.16500 119244.000000
4965 12835 1 0.16500 119244.000000
4965 16049 1 0.16500 119244.000000
4966 12835 1 0.16500 119244.000000
4966 15136 1 0.16500 119244.000000
4967 12836 1 0.16500 119244.000000
4967 16055 1 0.16500 119244.000000
4968 12836 1 0.16500 119244.000000
4968 15854 1 0.16500 119244.000000
4969 12837 1 0.16500 119244.000000
4969 16336 1 0.16500 119244.000000
4970 12837 1 0.16500 119244.000000
4970 16203 1 0.16500 119244.000000
4971 12837 1 0.16500 119244.000000
4971 19246 1 0.16500 119244.000000
4972 12838 1 0.16500 119244.000000
4972 15418 1 0.16500 119244.000000
4973 12838 1 0.16500 119244.000000
4973 13265 1 0.16500 119244.000000
4974 12838 1 0.16500 119244.000000
4974 14390 1 0.16500 119244.000000
4975 12838 1 0.16500 119244.000000
4975 15287 1 0.16500 119244.000000
4976 12839 1 0.16500 119244.000000
4976 16469 1 0.16500 119244.000000
4977 12839 1 0.16500 119244.000000
4977 16583 1 0.16500 119244.000000
4978 12839 1 0.16500 119244.000000
4978 16439 1 0.16500 119244.000000
4979 12840 1 0.16500 119244.000000
4979 15866 1 0.16500 119244.000000
4980 12840 1 0.16500 119244.000000
4980 14342 1 0.16500 119244.000000
4981 18934 1 0.16500 119244.000000
4981 20002 1 0.16500 119244.000000
4982 13598 1 0.16500 119244.000000
4982 18934 1 0.16500 119244.000000
4983 12841 1 0.16500 119244.000000
4983 14980 1 0.16500 119244.000000
4984 12841 1 0.16500 119244.000000
4984 14235 1 0.16500 119244.000000
4985 12841 1 0.16500 119244.000000
4985 13677 1 0.16500 119244.000000
4986 12842 1 0.16500 119244.000000
4986 13606 1 0.16500 119244.000000
4987 12842 1 0.16500 119244.000000
4987 13654 1 0.16500 119244.000000
4988 12842 1 0.16500 119244.000000
4988 16282 1 0.16500 119244.000000
4989 12843 1 0.16500 119244.000000
4989 14460 1 0.16500 119244.000000
4990 16128 1 0.16500 119244.000000
4990 18946 1 0.16500 119244.000000
4991 18946 1 0.16500 119244.000000
4991 19972 1 0.16500 119244.000000
4992 12844 1 0.16500 119244.000000
4992 16414 1 0.16500 119244.000000
4993 12844 1 0.16500 119244.000000
4993 14143 1 0.16500 119244.000000
4994 18958 1 0.16500 119244.000000
4994 20485 1 0.16500 119244.000000
4995 13466 1 0.16500 119244.000000
4995 18958 1 0.16500 119244.000000
4996 12845 1 0.16500 119244.000000
4996 14688 1 0.16500 119244.000000
4997 12845 1 0.16500 119244.000000
4997 12878 1 0.16500 119244.000000
4998 12846 1 0.16500 119244.000000
4998 14078 1 0.16500 119244.000000
4999 12846 1 0.16500 119244.000000
4999 14518 1 0.16500 119244.000000
5000 12846 1 0.16500 119244.000000
5000 19810 1 0.16500 119244.000000
5001 12846 1 0.16500 119244.000000
5001 17694 1 0.16500 119244.000000
5002 12847 1 0.16500 119244.000000
5002 13866 1 0.16500 119244.000000
5003 12847 1 0.16500 119244.000000
5003 15378 1 0.16500 119244.000000
5004 12847 1 0.16500 119244.000000
5004 13606 1 0.16500 119244.000000
5005 12848 1 0.16500 119244.000000
5005 14312 1 0.16500 119244.000000
5006 12848 1 0.16500 119244.000000
5006 14033 1 0.16500 119244.000000
5007 12848 1 0.16500 119244.000000
5007 13310 1 0.16500 119244.000000
5008 12849 1 0.16500 119244.000000
5008 12904 1 0.16500 119244.000000
5009 12849 1 0.16500 119244.000000
5009 14698 1 0.16500 119244.000000
5010 12850 1 0.16500 119244.000000
5010 13839 1 0.16500 119244.000000
5011 13839 1 0.16500 119244.000000
5011 15382 1 0.16500 119244.000000
5012 16407 1 0.16500 119244.000000
5012 16500 1 0.16500 119244.000000
5013 12850 1 0.16500 119244.000000
5013 16407 1 0.16500 119244.000000
5014 12851 1 0.16500 119244.000000
5014 14380 1 0.16500 119244.000000
5015 12851 1 0.16500 119244.000000
5015 16512 1 0.16500 119244.000000
5016 12851 1 0.16500 119244.000000
5016 15357 1 0.16500 119244.000000
5017 12851 1 0.16500 119244.000000
5017 15086 1 0.16500 119244.000000
5018 12852 1 0.16500 119244.000000
5018 13155 1 0.16500 119244.000000
5019 12852 1 0.16500 119244.000000
5019 19162 1 0.16500 119244.000000
5020 12852 1 0.16500 119244.000000
5020 20488 1 0.16500 119244.000000
5021 12853 1 0.16500 119244.000000
5021 15141 1 0.16500 119244.000000
5022 12854 1 0.16500 119244.000000
5022 15471 1 0.16500 119244.000000
5023 12854 1 0.16500 119244.000000
5023 13934 1 0.16500 119244.000000
5024 12854 1 0.16500 119244.000000
5024 16609 1 0.16500 119244.000000
5025 12854 1 0.16500 119244.000000
5025 13312 1 0.16500 119244.000000
5026 12855 1 0.16500 119244.000000
5026 14628 1 0.16500 119244.000000
5027 12855 1 0.16500 119244.000000
5027 13303 1 0.16500 119244.000000
5028 13806 1 0.16500 119244.000000
5028 14253 1 0.16500 119244.000000
5029 12856 1 0.16500 119244.000000
5029 13806 1 0.16500 119244.000000
5030 18970 1 0.16500 119244.000000
5030 19654 1 0.16500 119244.000000
5031 13749 1 0.16500 119244.000000
5031 18970 1 0.16500 119244.000000
5032 12857 1 0.16500 119244.000000
5032 15013 1 0.16500 119244.000000
5033 12857 1 0.16500 119244.000000
5033 13731 1 0.16500 119244.000000
5034 12857 1 0.16500 119244.000000
5034 14053 1 0.16500 119244.000000
5035 12857 1 0.16500 119244.000000
5035 14531 1 0.16500 119244.000000
5036 12858 1 0.16500 119244.000000
5036 15742 1 0.16500 119244.000000
5037 12858 1 0.16500 119244.000000
5037 14450 1 0.16500 119244.000000
5038 15234 1 0.16500 119244.000000
5038 18982 1 0.16500 119244.000000
5039 12859 1 0.16500 119244.000000
5039 20014 1 0.16500 119244.000000
5040 12859 1 0.16500 119244.000000
5040 14163 1 0.16500 119244.000000
5041 12859 1 0.16500 119244.000000
5041 20095 1 0.16500 119244.000000
5042 12859 1 0.16500 119244.000000
5042 14482 1 0.16500 119244.000000
5043 16320 1 0.16500 119244.000000
5043 18994 1 0.16500 119244.000000
5044 15083 1 0.16500 119244.000000
5044 18994 1 0.16500 119244.000000
5045 12860 1 0.16500 119244.000000
5045 16382 1 0.16500 119244.000000
5046 12860 1 0.16500 119244.000000
5046 14097 1 0.16500 119244.000000
5047 12860 1 0.16500 119244.000000
5047 13801 1 0.16500 119244.000000
5048 12861 1 0.16500 119244.000000
5048 15629 1 0.16500 119244.000000
5049 15949 1 0.16500 119244.000000
5049 16644 1 0.16500 119244.000000
5050 12861 1 0.16500 119244.000000
5050 16644 1 0.16500 119244.000000
5051 12861 1 0.16500 119244.000000
5051 13441 1 0.16500 119244.000000
5052 12862 1 0.16500 119244.000000
5052 13889 1 0.16500 119244.000000
5053 12862 1 0.16500 119244.000000
5053 14367 1 0.16500 119244.000000
5054 19006 1 0.16500 119244.000000
5054 20290 1 0.16500 119244.000000
5055 13712 1 0.16500 119244.000000
5055 19006 1 0.16500 119244.000000
5056 12863 1 0.16500 119244.000000
5056 13641 1 0.16500 119244.000000
5057 12863 1 0.16500 119244.000000
5057 16429 1 0.16500 119244.000000
5058 12863 1 0.16500 119244.000000
5058 16136 1 0.16500 119244.000000
5059 15444 1 0.16500 119244.000000
5059 16430 1 0.16500 119244.000000
5060 12864 1 0.16500 119244.000000
5060 15596 1 0.16500 119244.000000
5061 12864 1 0.16500 119244.000000
5061 15444 1 0.16500 119244.000000
5062 12865 1 0.16500 119244.000000
5062 13118 1 0.16500 119244.000000
5063 12865 1 0.16500 119244.000000
5063 13039 1 0.16500 119244.000000
5064 12865 1 0.16500 119244.000000
5064 16329 1 0.16500 119244.000000
5065 12866 1 0.16500 119244.000000
5065 14756 1 0.16500 119244.000000
5066 12866 1 0.16500 119244.000000
5066 14151 1 0.16500 119244.000000
5067 12866 1 0.16500 119244.000000
5067 13309 1 0.16500 119244.000000
5068 12867 1 0.16500 119244.000000
5068 14167 1 0.16500 119244.000000
5069 12867 1 0.16500 119244.000000
5069 16854 1 0.16500 119244.000000
5070 12867 1 0.16500 119244.000000
5070 14340 1 0.16500 119244.000000
5071 12868 1 0.16500 119244.000000
5071 16696 1 0.16500 119244.000000
5072 12868 1 0.16500 119244.000000
5072 15982 1 0.16500 119244.000000
5073 12868 1 0.16500 119244.000000
5073 13571 1 0.16500 119244.000000
5074 12869 1 0.16500 119244.000000
5074 14066 1 0.16500 119244.000000
5075 12869 1 0.16500 119244.000000
5075 15623 1 0.16500 119244.000000
5076 12869 1 0.16500 119244.000000
5076 14531 1 0.16500 119244.000000
5077 12869 1 0.16500 119244.000000
5077 15616 1 0.16500 119244.000000
5078 12870 1 0.16500 119244.000000
5078 14445 1 0.16500 119244.000000
5079 12870 1 0.16500 119244.000000
5079 14690 1 0.16500 119244.000000
5080 12870 1 0.16500 119244.000000
5080 16141 1 0.16500 119244.000000
5081 12871 1 0.16500 119244.000000
5081 16680 1 0.16500 119244.000000
5082 12871 1 0.16500 119244.000000
5082 15837 1 0.16500 119244.000000
5083 12872 1 0.16500 119244.000000
5083 14360 1 0.16500 119244.000000
5084 12872 1 0.16500 119244.000000
5084 14349 1 0.16500 119244.000000
5085 12873 1 0.16500 119244.000000
5085 15597 1 0.16500 119244.000000
5086 12873 1 0.16500 119244.000000
5086 13769 1 0.16500 119244.000000
5087 12873 1 0.16500 119244.000000
5087 15095 1 0.16500 119244.000000
5088 12874 1 0.16500 119244.000000
5088 13525 1 0.16500 119244.000000
5089 12874 1 0.16500 119244.000000
5089 16039 1 0.16500 119244.000000
5090 12874 1 0.16500 119244.000000
5090 15647 1 0.16500 119244.000000
5091 12874 1 0.16500 119244.000000
5091 20968 1 0.16500 119244.000000
5092 12875 1 0.16500 119244.000000
5092 20701 1 0.16500 119244.000000
5093 12875 1 0.16500 119244.000000
5093 20005 1 0.16500 119244.000000
5094 12875 1 0.16500 119244.000000
5094 13917 1 0.16500 119244.000000
5095 12875 1 0.16500 119244.000000
5095 20059 1 0.16500 119244.000000
5096 12876 1 0.16500 119244.000000
5096 16146 1 0.16500 119244.000000
5097 12876 1 0.16500 119244.000000
5097 14491 1 0.16500 119244.000000
5098 12876 1 0.16500 119244.000000
5098 14550 1 0.16500 119244.000000
5099 12876 1 0.16500 119244.000000
5099 14828 1 0.16500 119244.000000
5100 12877 1 0.16500 119244.000000
5100 16145 1 0.16500 119244.000000
5101 12877 1 0.16500 119244.000000
5101 14199 1 0.16500 119244.000000
5102 12877 1 0.16500 119244.000000
5102 14817 1 0.16500 119244.000000
5103 12877 1 0.16500 119244.000000
5103 16480 1 0.16500 119244.000000
5104 13313 1 0.16500 119244.000000
5104 19018 1 0.16500 119244.000000
5105 19018 1 0.16500 119244.000000
5105 19450 1 0.16500 119244.000000
5106 12878 1 0.16500 119244.000000
5106 16684 1 0.16500 119244.000000
5107 11944 1 0.16500 119244.000000
5107 12878 1 0.16500 119244.000000
5108 12879 1 0.16500 119244.000000
5108 15524 1 0.16500 119244.000000
5109 12879 1 0.16500 119244.000000
5109 15138 1 0.16500 119244.000000
5110 12879 1 0.16500 119244.000000
5110 14284 1 0.16500 119244.000000
5111 12879 1 0.16500 119244.000000
5111 15631 1 0.16500 119244.000000
5112 12880 1 0.16500 119244.000000
5112 13170 1 0.16500 119244.000000
5113 12880 1 0.16500 119244.000000
5113 13281 1 0.16500 119244.000000
5114 12880 1 0.16500 119244.000000
5114 13747 1 0.16500 119244.000000
5115 13281 1 0.16500 119244.000000
5115 13801 1 0.16500 119244.000000
5116 12881 1 0.16500 119244.000000
5116 16324 1 0.16500 119244.000000
5117 12881 1 0.16500 119244.000000
5117 16673 1 0.16500 119244.000000
5118 12882 1 0.16500 119244.000000
5118 15343 1 0.16500 119244.000000
5119 12882 1 0.16500 119244.000000
5119 15251 1 0.16500 119244.000000
5120 12882 1 0.16500 119244.000000
5120 13931 1 0.16500 119244.000000
5121 12882 1 0.16500 119244.000000
5121 13861 1 0.16500 119244.000000
5122 12883 1 0.16500 119244.000000
5122 14670 1 0.16500 119244.000000
5123 12883 1 0.16500 119244.000000
5123 12884 1 0.16500 119244.000000
5124 12883 1 0.16500 119244.000000
5124 12974 1 0.16500 119244.000000
5125 12884 1 0.16500 119244.000000
5125 14544 1 0.16500 119244.000000
5126 12884 1 0.16500 119244.000000
5126 16397 1 0.16500 119244.000000
5127 12885 1 0.16500 119244.000000
5127 14652 1 0.16500 119244.000000
5128 12885 1 0.16500 119244.000000
5128 15582 1 0.16500 119244.000000
5129 12885 1 0.16500 119244.000000
5129 16129 1 0.16500 119244.000000
5130 19030 1 0.16500 119244.000000
5130 20383 1 0.16500 119244.000000
5131 14134 1 0.16500 119244.000000
5131 19030 1 0.16500 119244.000000
5132 13385 1 0.16500 119244.000000
5132 19030 1 0.16500 119244.000000
5133 12886 1 0.16500 119244.000000
5133 16756 1 0.16500 119244.000000
5134 12886 1 0.16500 119244.000000
5134 19102 1 0.16500 119244.000000
5135 14777 1 0.16500 119244.000000
5135 19042 1 0.16500 119244.000000
5136 13562 1 0.16500 119244.000000
5136 19042 1 0.16500 119244.000000
5137 12887 1 0.16500 119244.000000
5137 15292 1 0.16500 119244.000000
5138 12014 1 0.16500 119244.000000
5138 12887 1 0.16500 119244.000000
5139 12887 1 0.16500 119244.000000
5139 15655 1 0.16500 119244.000000
5140 12887 1 0.16500 119244.000000
5140 13926 1 0.16500 119244.000000
5141 16896 1 0.16500 119244.000000
5141 19054 1 0.16500 119244.000000
5142 16614 1 0.16500 119244.000000
5142 19054 1 0.16500 119244.000000
5143 15391 1 0.16500 119244.000000
5143 19054 1 0.16500 119244.000000
5144 12888 1 0.16500 119244.000000
5144 13872 1 0.16500 119244.000000
5145 12888 1 0.16500 119244.000000
5145 15746 1 0.16500 119244.000000
5146 12888 1 0.16500 119244.000000
5146 13608 1 0.16500 119244.000000
5147 12888 1 0.16500 119244.000000
5147 15139 1 0.16500 119244.000000
5148 12889 1 0.16500 119244.000000
5148 15331 1 0.16500 119244.000000
5149 12889 1 0.16500 119244.000000
5149 13979 1 0.16500 119244.000000
5150 12889 1 0.16500 119244.000000
5150 14405 1 0.16500 119244.000000
5151 12890 1 0.16500 119244.000000
5151 14039 1 0.16500 119244.000000
5152 12890 1 0.16500 119244.000000
5152 14804 1 0.16500 119244.000000
5153 12890 1 0.16500 119244.000000
5153 15815 1 0.16500 119244.000000
5154 12891 1 0.16500 119244.000000
5154 14371 1 0.16500 119244.000000
5155 12891 1 0.16500 119244.000000
5155 12956 1 0.16500 119244.000000
5156 12891 1 0.16500 119244.000000
5156 13010 1 0.16500 119244.000000
5157 11432 1 0.16500 119244.000000
5157 12892 1 0.16500 119244.000000
5158 12892 1 0.16500 119244.000000
5158 12947 1 0.16500 119244.000000
5159 12892 1 0.16500 119244.000000
5159 13228 1 0.16500 119244.000000
5160 12892 1 0.16500 119244.000000
5160 14357 1 0.16500 119244.000000
5161 11733 1 0.16500 119244.000000
5161 16504 1 0.16500 119244.000000
5162 12893 1 0.16500 119244.000000
5162 16504 1 0.16500 119244.000000
5163 12894 1 0.16500 119244.000000
5163 13511 1 0.16500 119244.000000
5164 12894 1 0.16500 119244.000000
5164 15079 1 0.16500 119244.000000
5165 12895 1 0.16500 119244.000000
5165 15651 1 0.16500 119244.000000
5166 12895 1 0.16500 119244.000000
5166 13271 1 0.16500 119244.000000
5167 12896 1 0.16500 119244.000000
5167 16376 1 0.16500 119244.000000
5168 12896 1 0.16500 119244.000000
5168 16580 1 0.16500 119244.000000
5169 12897 1 0.16500 119244.000000
5169 14684 1 0.16500 119244.000000
5170 12897 1 0.16500 119244.000000
5170 15779 1 0.16500 119244.000000
5171 12898 1 0.16500 119244.000000
5171 12934 1 0.16500 119244.000000
5172 19078 1 0.16500 119244.000000
5172 19330 1 0.16500 119244.000000
5173 17106 1 0.16500 119244.000000
5173 19090 1 0.16500 119244.000000
5174 15498 1 0.16500 119244.000000
5174 19090 1 0.16500 119244.000000
5175 12899 1 0.16500 119244.000000
5175 16714 1 0.16500 119244.000000
5176 12899 1 0.16500 119244.000000
5176 15797 1 0.16500 119244.000000
5177 12899 1 0.16500 119244.000000
5177 16044 1 0.16500 119244.000000
5178 11689 1 0.16500 119244.000000
5178 12899 1 0.16500 119244.000000
5179 12900 1 0.16500 119244.000000
5179 15067 1 0.16500 119244.000000
5180 12900 1 0.16500 119244.000000
5180 15366 1 0.16500 119244.000000
5181 12900 1 0.16500 119244.000000
5181 12967 1 0.16500 119244.000000
5182 12901 1 0.16500 119244.000000
5182 14330 1 0.16500 119244.000000
5183 12901 1 0.16500 119244.000000
5183 14061 1 0.16500 119244.000000
5184 12901 1 0.16500 119244.000000
5184 15384 1 0.16500 119244.000000
5185 12902 1 0.16500 119244.000000
5185 15583 1 0.16500 119244.000000
5186 12902 1 0.16500 119244.000000
5186 16331 1 0.16500 119244.000000
5187 12902 1 0.16500 119244.000000
5187 13657 1 0.16500 119244.000000
5188 12903 1 0.16500 119244.000000
5188 20791 1 0.16500 119244.000000
5189 12903 1 0.16500 119244.000000
5189 15362 1 0.16500 119244.000000
5190 12904 1 0.16500 119244.000000
5190 15901 1 0.16500 119244.000000
5191 12905 1 0.16500 119244.000000
5191 14068 1 0.16500 119244.000000
5192 12905 1 0.16500 119244.000000
5192 14206 1 0.16500 119244.000000
5193 12905 1 0.16500 119244.000000
5193 13846 1 0.16500 119244.000000
5194 12906 1 0.16500 119244.000000
5194 14984 1 0.16500 119244.000000
5195 12906 1 0.16500 119244.000000
5195 16279 1 0.16500 119244.000000
5196 12906 1 0.16500 119244.000000
5196 14052 1 0.16500 119244.000000
5197 11778 1 0.16500 119244.000000
5197 12907 1 0.16500 119244.000000
5198 12907 1 0.16500 119244.000000
5198 16508 1 0.16500 119244.000000
5199 12907 1 0.16500 119244.000000
5199 13817 1 0.16500 119244.000000
5200 12908 1 0.16500 119244.000000
5200 16650 1 0.16500 119244.000000
5201 12908 1 0.16500 119244.000000
5201 13503 1 0.16500 119244.000000
5202 12908 1 0.16500 119244.000000
5202 13472 1 0.16500 119244.000000
5203 12909 1 0.16500 119244.000000
5203 14255 1 0.16500 119244.000000
5204 11794 1 0.16500 119244.000000
5204 12909 1 0.16500 119244.000000
5205 12909 1 0.16500 119244.000000
5205 13063 1 0.16500 119244.000000
5206 12910 1 0.16500 119244.000000
5206 14324 1 0.16500 119244.000000
5207 13618 1 0.16500 119244.000000
5207 14324 1 0.16500 119244.000000
5208 12910 1 0.16500 119244.000000
5208 14347 1 0.16500 119244.000000
5209 12910 1 0.16500 119244.000000
5209 15845 1 0.16500 119244.000000
5210 12911 1 0.16500 119244.000000
5210 13894 1 0.16500 119244.000000
5211 12911 1 0.16500 119244.000000
5211 14879 1 0.16500 119244.000000
5212 12911 1 0.16500 119244.000000
5212 14313 1 0.16500 119244.000000
5213 12911 1 0.16500 119244.000000
5213 16335 1 0.16500 119244.000000
5214 12912 1 0.16500 119244.000000
5214 13068 1 0.16500 119244.000000
5215 12912 1 0.16500 119244.000000
5215 16526 1 0.16500 119244.000000
5216 12912 1 0.16500 119244.000000
5216 20332 1 0.16500 119244.000000
5217 12913 1 0.16500 119244.000000
5217 13128 1 0.16500 119244.000000
5218 12913 1 0.16500 119244.000000
5218 13267 1 0.16500 119244.000000
5219 12913 1 0.16500 119244.000000
5219 13298 1 0.16500 119244.000000
5220 12913 1 0.16500 119244.000000
5220 16052 1 0.16500 119244.000000
5221 15928 1 0.16500 119244.000000
5221 19102 1 0.16500 119244.000000
5222 12914 1 0.16500 119244.000000
5222 16447 1 0.16500 119244.000000
5223 14131 1 0.16500 119244.000000
5223 14952 1 0.16500 119244.000000
5224 12915 1 0.16500 119244.000000
5224 14131 1 0.16500 119244.000000
5225 12915 1 0.16500 119244.000000
5225 16272 1 0.16500 119244.000000
5226 12915 1 0.16500 119244.000000
5226 16257 1 0.16500 119244.000000
5227 12916 1 0.16500 119244.000000
5227 16263 1 0.16500 119244.000000
5228 12916 1 0.16500 119244.000000
5228 15039 1 0.16500 119244.000000
5229 12916 1 0.16500 119244.000000
5229 13454 1 0.16500 119244.000000
5230 12916 1 0.16500 119244.000000
5230 14903 1 0.16500 119244.000000
5231 15554 1 0.16500 119244.000000
5231 15650 1 0.16500 119244.000000
5232 12917 1 0.16500 119244.000000
5232 13440 1 0.16500 119244.000000
5233 12917 1 0.16500 119244.000000
5233 15554 1 0.16500 119244.000000
5234 13225 1 0.16500 119244.000000
5234 19114 1 0.16500 119244.000000
5235 14669 1 0.16500 119244.000000
5235 19114 1 0.16500 119244.000000
5236 12918 1 0.16500 119244.000000
5236 13762 1 0.16500 119244.000000
5237 12918 1 0.16500 119244.000000
5237 15962 1 0.16500 119244.000000
5238 12919 1 0.16500 119244.000000
5238 16093 1 0.16500 119244.000000
5239 14877 1 0.16500 119244.000000
5239 16093 1 0.16500 119244.000000
5240 12919 1 0.16500 119244.000000
5240 15045 1 0.16500 119244.000000
5241 12919 1 0.16500 119244.000000
5241 14636 1 0.16500 119244.000000
5242 12920 1 0.16500 119244.000000
5242 13795 1 0.16500 119244.000000
5243 12920 1 0.16500 119244.000000
5243 15115 1 0.16500 119244.000000
5244 12920 1 0.16500 119244.000000
5244 16120 1 0.16500 119244.000000
5245 12920 1 0.16500 119244.000000
5245 13409 1 0.16500 119244.000000
5246 12921 1 0.16500 119244.000000
5246 13598 1 0.16500 119244.000000
5247 12921 1 0.16500 119244.000000
5247 13802 1 0.16500 119244.000000
5248 12921 1 0.16500 119244.000000
5248 13652 1 0.16500 119244.000000
5249 12922 1 0.16500 119244.000000
5249 14226 1 0.16500 119244.000000
5250 12922 1 0.16500 119244.000000
5250 14158 1 0.16500 119244.000000
5251 12922 1 0.16500 119244.000000
5251 19930 1 0.16500 119244.000000
5252 15814 1 0.16500 119244.000000
5252 15954 1 0.16500 119244.000000
5253 12923 1 0.16500 119244.000000
5253 15954 1 0.16500 119244.000000
5254 12923 1 0.16500 119244.000000
5254 15270 1 0.16500 119244.000000
5255 12923 1 0.16500 119244.000000
5255 15998 1 0.16500 119244.000000
5256 12924 1 0.16500 119244.000000
5256 20281 1 0.16500 119244.000000
5257 12924 1 0.16500 119244.000000
5257 16966 1 0.16500 119244.000000
5258 12925 1 0.16500 119244.000000
5258 20224 1 0.16500 119244.000000
5259 12925 1 0.16500 119244.000000
5259 15231 1 0.16500 119244.000000
5260 16023 1 0.16500 119244.000000
5260 19126 1 0.16500 119244.000000
5261 13800 1 0.16500 119244.000000
5261 19126 1 0.16500 119244.000000
5262 12926 1 0.16500 119244.000000
5262 16570 1 0.16500 119244.000000
5263 12926 1 0.16500 119244.000000
5263 16118 1 0.16500 119244.000000
5264 12926 1 0.16500 119244.000000
5264 15425 1 0.16500 119244.000000
5265 12927 1 0.16500 119244.000000
5265 14600 1 0.16500 119244.000000
5266 12927 1 0.16500 119244.000000
5266 16570 1 0.16500 119244.000000
5267 12928 1 0.16500 119244.000000
5267 13975 1 0.16500 119244.000000
5268 12928 1 0.16500 119244.000000
5268 19654 1 0.16500 119244.000000
5269 12928 1 0.16500 119244.000000
5269 20824 1 0.16500 119244.000000
5270 12928 1 0.16500 119244.000000
5270 20755 1 0.16500 119244.000000
5271 12929 1 0.16500 119244.000000
5271 14526 1 0.16500 119244.000000
5272 12929 1 0.16500 119244.000000
5272 15355 1 0.16500 119244.000000
5273 12929 1 0.16500 119244.000000
5273 13674 1 0.16500 119244.000000
5274 12930 1 0.16500 119244.000000
5274 15092 1 0.16500 119244.000000
5275 12930 1 0.16500 119244.000000
5275 14329 1 0.16500 119244.000000
5276 12930 1 0.16500 119244.000000
5276 12971 1 0.16500 119244.000000
5277 12931 1 0.16500 119244.000000
5277 13716 1 0.16500 119244.000000
5278 12931 1 0.16500 119244.000000
5278 16365 1 0.16500 119244.000000
5279 12931 1 0.16500 119244.000000
5279 15670 1 0.16500 119244.000000
5280 12931 1 0.16500 119244.000000
5280 14759 1 0.16500 119244.000000
5281 12932 1 0.16500 119244.000000
5281 14274 1 0.16500 119244.000000
5282 12932 1 0.16500 119244.000000
5282 16328 1 0.16500 119244.000000
5283 12932 1 0.16500 119244.000000
5283 13122 1 0.16500 119244.000000
5284 12932 1 0.16500 119244.000000
5284 14305 1 0.16500 119244.000000
5285 12933 1 0.16500 119244.000000
5285 16660 1 0.16500 119244.000000
5286 12933 1 0.16500 119244.000000
5286 15707 1 0.16500 119244.000000
5287 12934 1 0.16500 119244.000000
5287 20530 1 0.16500 119244.000000
5288 12934 1 0.16500 119244.000000
5288 20050 1 0.16500 119244.000000
5289 12935 1 0.16500 119244.000000
5289 16116 1 0.16500 119244.000000
5290 12935 1 0.16500 119244.000000
5290 13376 1 0.16500 119244.000000
5291 12935 1 0.16500 119244.000000
5291 13776 1 0.16500 119244.000000
5292 12936 1 0.16500 119244.000000
5292 14020 1 0.16500 119244.000000
5293 12936 1 0.16500 119244.000000
5293 13259 1 0.16500 119244.000000
5294 12936 1 0.16500 119244.000000
5294 15088 1 0.16500 119244.000000
5295 12937 1 0.16500 119244.000000
5295 14734 1 0.16500 119244.000000
5296 12937 1 0.16500 119244.000000
5296 13700 1 0.16500 119244.000000
5297 12937 1 0.16500 119244.000000
5297 20524 1 0.16500 119244.000000
5298 13578 1 0.16500 119244.000000
5298 19138 1 0.16500 119244.000000
5299 19138 1 0.16500 119244.000000
5299 20194 1 0.16500 119244.000000
5300 11500 1 0.16500 119244.000000
5300 12938 1 0.16500 119244.000000
5301 12938 1 0.16500 119244.000000
5301 15426 1 0.16500 119244.000000
5302 12938 1 0.16500 119244.000000
5302 14979 1 0.16500 119244.000000
5303 12939 1 0.16500 119244.000000
5303 13811 1 0.16500 119244.000000
5304 12939 1 0.16500 119244.000000
5304 14260 1 0.16500 119244.000000
5305 12940 1 0.16500 119244.000000
5305 14311 1 0.16500 119244.000000
5306 12940 1 0.16500 119244.000000
5306 15446 1 0.16500 119244.000000
5307 12940 1 0.16500 119244.000000
5307 14362 1 0.16500 119244.000000
5308 12941 1 0.16500 119244.000000
5308 12951 1 0.16500 119244.000000
5309 12941 1 0.16500 119244.000000
5309 14139 1 0.16500 119244.000000
5310 12941 1 0.16500 119244.000000
5310 14118 1 0.16500 119244.000000
5311 12941 1 0.16500 119244.000000
5311 13925 1 0.16500 119244.000000
5312 12942 1 0.16500 119244.000000
5312 13336 1 0.16500 119244.000000
5313 12943 1 0.16500 119244.000000
5313 13956 1 0.16500 119244.000000
5314 12943 1 0.16500 119244.000000
5314 14237 1 0.16500 119244.000000
5315 12943 1 0.16500 119244.000000
5315 14332 1 0.16500 119244.000000
5316 12943 1 0.16500 119244.000000
5316 16218 1 0.16500 119244.000000
5317 12944 1 0.16500 119244.000000
5317 13067 1 0.16500 119244.000000
5318 12944 1 0.16500 119244.000000
5318 12987 1 0.16500 119244.000000
5319 12944 1 0.16500 119244.000000
5319 13407 1 0.16500 119244.000000
5320 12944 1 0.16500 119244.000000
5320 15826 1 0.16500 119244.000000
5321 12945 1 0.16500 119244.000000
5321 14925 1 0.16500 119244.000000
5322 12945 1 0.16500 119244.000000
5322 20005 1 0.16500 119244.000000
5323 12945 1 0.16500 119244.000000
5323 14340 1 0.16500 119244.000000
5324 16464 1 0.16500 119244.000000
5324 19150 1 0.16500 119244.000000
5325 19150 1 0.16500 119244.000000
5325 20422 1 0.16500 119244.000000
5326 12946 1 0.16500 119244.000000
5326 14404 1 0.16500 119244.000000
5327 12946 1 0.16500 119244.000000
5327 15377 1 0.16500 119244.000000
5328 12946 1 0.16500 119244.000000
5328 13832 1 0.16500 119244.000000
5329 12947 1 0.16500 119244.000000
5329 14466 1 0.16500 119244.000000
5330 12948 1 0.16500 119244.000000
5330 13989 1 0.16500 119244.000000
5331 12948 1 0.16500 119244.000000
5331 14713 1 0.16500 119244.000000
5332 12948 1 0.16500 119244.000000
5332 16467 1 0.16500 119244.000000
5333 12949 1 0.16500 119244.000000
5333 17470 1 0.16500 119244.000000
5334 12949 1 0.16500 119244.000000
5334 15296 1 0.16500 119244.000000
5335 13897 1 0.16500 119244.000000
5335 15611 1 0.16500 119244.000000
5336 12950 1 0.16500 119244.000000
5336 14146 1 0.16500 119244.000000
5337 14146 1 0.16500 119244.000000
5337 15611 1 0.16500 119244.000000
5338 14327 1 0.16500 119244.000000
5338 15611 1 0.16500 119244.000000
5339 12951 1 0.16500 119244.000000
5339 16188 1 0.16500 119244.000000
5340 12951 1 0.16500 119244.000000
5340 13288 1 0.16500 119244.000000
5341 12951 1 0.16500 119244.000000
5341 15624 1 0.16500 119244.000000
5342 12952 1 0.16500 119244.000000
5342 15749 1 0.16500 119244.000000
5343 12952 1 0.16500 119244.000000
5343 15774 1 0.16500 119244.000000
5344 19162 1 0.16500 119244.000000
5344 20314 1 0.16500 119244.000000
5345 12953 1 0.16500 119244.000000
5345 13695 1 0.16500 119244.000000
5346 12953 1 0.16500 119244.000000
5346 13116 1 0.16500 119244.000000
5347 12953 1 0.16500 119244.000000
5347 15049 1 0.16500 119244.000000
5348 12954 1 0.16500 119244.000000
5348 20359 1 0.16500 119244.000000
5349 12954 1 0.16500 119244.000000
5349 15923 1 0.16500 119244.000000
5350 12954 1 0.16500 119244.000000
5350 13767 1 0.16500 119244.000000
5351 12955 1 0.16500 119244.000000
5351 13445 1 0.16500 119244.000000
5352 19174 1 0.16500 119244.000000
5352 20170 1 0.16500 119244.000000
5353 16046 1 0.16500 119244.000000
5353 19186 1 0.16500 119244.000000
5354 12956 1 0.16500 119244.000000
5354 15391 1 0.16500 119244.000000
5355 12956 1 0.16500 119244.000000
5355 13603 1 0.16500 119244.000000
5356 19198 1 0.16500 119244.000000
5356 20722 1 0.16500 119244.000000
5357 12957 1 0.16500 119244.000000
5357 13006 1 0.16500 119244.000000
5358 12957 1 0.16500 119244.000000
5358 16600 1 0.16500 119244.000000
5359 11933 1 0.16500 119244.000000
5359 12957 1 0.16500 119244.000000
5360 12957 1 0.16500 119244.000000
5360 13950 1 0.16500 119244.000000
5361 12958 1 0.16500 119244.000000
5361 19894 1 0.16500 119244.000000
5362 12958 1 0.16500 119244.000000
5362 16104 1 0.16500 119244.000000
5363 12958 1 0.16500 119244.000000
5363 14404 1 0.16500 119244.000000
5364 12959 1 0.16500 119244.000000
5364 15468 1 0.16500 119244.000000
5365 12959 1 0.16500 119244.000000
5365 15816 1 0.16500 119244.000000
5366 12960 1 0.16500 119244.000000
5366 16150 1 0.16500 119244.000000
5367 12960 1 0.16500 119244.000000
5367 13780 1 0.16500 119244.000000
5368 12960 1 0.16500 119244.000000
5368 15820 1 0.16500 119244.000000
5369 12961 1 0.16500 119244.000000
5369 13930 1 0.16500 119244.000000
5370 12961 1 0.16500 119244.000000
5370 12977 1 0.16500 119244.000000
5371 12961 1 0.16500 119244.000000
5371 15656 1 0.16500 119244.000000
5372 12962 1 0.16500 119244.000000
5372 14791 1 0.16500 119244.000000
5373 16032 1 0.16500 119244.000000
5373 19210 1 0.16500 119244.000000
5374 19210 1 0.16500 119244.000000
5374 20182 1 0.16500 119244.000000
5375 13577 1 0.16500 119244.000000
5375 14524 1 0.16500 119244.000000
5376 13577 1 0.16500 119244.000000
5376 16328 1 0.16500 119244.000000
5377 12963 1 0.16500 119244.000000
5377 15656 1 0.16500 119244.000000
5378 12963 1 0.16500 119244.000000
5378 15359 1 0.16500 119244.000000
5379 12964 1 0.16500 119244.000000
5379 15786 1 0.16500 119244.000000
5380 12268 1 0.16500 119244.000000
5380 12964 1 0.16500 119244.000000
5381 12965 1 0.16500 119244.000000
5381 15980 1 0.16500 119244.000000
5382 12966 1 0.16500 119244.000000
5382 14404 1 0.16500 119244.000000
5383 12966 1 0.16500 119244.000000
5383 13875 1 0.16500 119244.000000
5384 12966 1 0.16500 119244.000000
5384 13082 1 0.16500 119244.000000
5385 12967 1 0.16500 119244.000000
5385 16059 1 0.16500 119244.000000
5386 12967 1 0.16500 119244.000000
5386 13529 1 0.16500 119244.000000
5387 12967 1 0.16500 119244.000000
5387 13900 1 0.16500 119244.000000
5388 12968 1 0.16500 119244.000000
5388 14107 1 0.16500 119244.000000
5389 12968 1 0.16500 119244.000000
5389 13648 1 0.16500 119244.000000
5390 12968 1 0.16500 119244.000000
5390 13426 1 0.16500 119244.000000
5391 15408 1 0.16500 119244.000000
5391 19222 1 0.16500 119244.000000
5392 19222 1 0.16500 119244.000000
5392 20515 1 0.16500 119244.000000
5393 12419 1 0.16500 119244.000000
5393 19234 1 0.16500 119244.000000
5394 16057 1 0.16500 119244.000000
5394 19234 1 0.16500 119244.000000
5395 12969 1 0.16500 119244.000000
5395 13143 1 0.16500 119244.000000
5396 12969 1 0.16500 119244.000000
5396 13064 1 0.16500 119244.000000
5397 12969 1 0.16500 119244.000000
5397 13394 1 0.16500 119244.000000
5398 12969 1 0.16500 119244.000000
5398 14709 1 0.16500 119244.000000
5399 12970 1 0.16500 119244.000000
5399 16566 1 0.16500 119244.000000
5400 12970 1 0.16500 119244.000000
5400 16491 1 0.16500 119244.000000
5401 12970 1 0.16500 119244.000000
5401 13379 1 0.16500 119244.000000
5402 12970 1 0.16500 119244.000000
5402 13964 1 0.16500 119244.000000
5403 12971 1 0.16500 119244.000000
5403 13717 1 0.16500 119244.000000
5404 12971 1 0.16500 119244.000000
5404 12993 1 0.16500 119244.000000
5405 12971 1 0.16500 119244.000000
5405 15283 1 0.16500 119244.000000
5406 12972 1 0.16500 119244.000000
5406 14042 1 0.16500 119244.000000
5407 12972 1 0.16500 119244.000000
5407 13462 1 0.16500 119244.000000
5408 12972 1 0.16500 119244.000000
5408 13473 1 0.16500 119244.000000
5409 12973 1 0.16500 119244.000000
5409 15884 1 0.16500 119244.000000
5410 12060 1 0.16500 119244.000000
5410 12973 1 0.16500 119244.000000
5411 12974 1 0.16500 119244.000000
5411 15905 1 0.16500 119244.000000
5412 12974 1 0.16500 119244.000000
5412 15321 1 0.16500 119244.000000
5413 12975 1 0.16500 119244.000000
5413 16243 1 0.16500 119244.000000
5414 12975 1 0.16500 119244.000000
5414 20401 1 0.16500 119244.000000
5415 12976 1 0.16500 119244.000000
5415 20860 1 0.16500 119244.000000
5416 12976 1 0.16500 119244.000000
5416 13884 1 0.16500 119244.000000
5417 12977 1 0.16500 119244.000000
5417 16373 1 0.16500 119244.000000
5418 12977 1 0.16500 119244.000000
5418 16575 1 0.16500 119244.000000
5419 12963 1 0.16500 119244.000000
5419 12977 1 0.16500 119244.000000
5420 12978 1 0.16500 119244.000000
5420 15236 1 0.16500 119244.000000
5421 12978 1 0.16500 119244.000000
5421 14245 1 0.16500 119244.000000
5422 12978 1 0.16500 119244.000000
5422 13516 1 0.16500 119244.000000
5423 12978 1 0.16500 119244.000000
5423 16459 1 0.16500 119244.000000
5424 12979 1 0.16500 119244.000000
5424 13384 1 0.16500 119244.000000
5425 12979 1 0.16500 119244.000000
5425 15048 1 0.16500 119244.000000
5426 12979 1 0.16500 119244.000000
5426 15608 1 0.16500 119244.000000
5427 19258 1 0.16500 119244.000000
5427 20404 1 0.16500 119244.000000
5428 19258 1 0.16500 119244.000000
5428 20590 1 0.16500 119244.000000
5429 12980 1 0.16500 119244.000000
5429 13809 1 0.16500 119244.000000
5430 12980 1 0.16500 119244.000000
5430 14969 1 0.16500 119244.000000
5431 12981 1 0.16500 119244.000000
5431 13487 1 0.16500 119244.000000
5432 12981 1 0.16500 119244.000000
5432 14616 1 0.16500 119244.000000
5433 12981 1 0.16500 119244.000000
5433 13502 1 0.16500 119244.000000
5434 12982 1 0.16500 119244.000000
5434 14504 1 0.16500 119244.000000
5435 12982 1 0.16500 119244.000000
5435 16538 1 0.16500 119244.000000
5436 12982 1 0.16500 119244.000000
5436 16680 1 0.16500 119244.000000
5437 12983 1 0.16500 119244.000000
5437 17204 1 0.16500 119244.000000
5438 12983 1 0.16500 119244.000000
5438 14500 1 0.16500 119244.000000
5439 12983 1 0.16500 119244.000000
5439 13012 1 0.16500 119244.000000
5440 12107 1 0.16500 119244.000000
5440 20230 1 0.16500 119244.000000
5441 12984 1 0.16500 119244.000000
5441 15409 1 0.16500 119244.000000
5442 12984 1 0.16500 119244.000000
5442 15703 1 0.16500 119244.000000
5443 12984 1 0.16500 119244.000000
5443 13552 1 0.16500 119244.000000
5444 12985 1 0.16500 119244.000000
5444 14571 1 0.16500 119244.000000
5445 14211 1 0.16500 119244.000000
5445 16493 1 0.16500 119244.000000
5446 12986 1 0.16500 119244.000000
5446 14211 1 0.16500 119244.000000
5447 12986 1 0.16500 119244.000000
5447 15861 1 0.16500 119244.000000
5448 12987 1 0.16500 119244.000000
5448 16966 1 0.16500 119244.000000
5449 12987 1 0.16500 119244.000000
5449 16237 1 0.16500 119244.000000
5450 11656 1 0.16500 119244.000000
5450 12988 1 0.16500 119244.000000
5451 11880 1 0.16500 119244.000000
5451 15020 1 0.16500 119244.000000
5452 11880 1 0.16500 119244.000000
5452 15031 1 0.16500 119244.000000
5453 12989 1 0.16500 119244.000000
5453 14986 1 0.16500 119244.000000
5454 12989 1 0.16500 119244.000000
5454 16054 1 0.16500 119244.000000
5455 12989 1 0.16500 119244.000000
5455 15726 1 0.16500 119244.000000
5456 12990 1 0.16500 119244.000000
5456 16642 1 0.16500 119244.000000
5457 12990 1 0.16500 119244.000000
5457 15729 1 0.16500 119244.000000
5458 12990 1 0.16500 119244.000000
5458 15395 1 0.16500 119244.000000
5459 12990 1 0.16500 119244.000000
5459 14063 1 0.16500 119244.000000
5460 12991 1 0.16500 119244.000000
5460 20044 1 0.16500 119244.000000
5461 12991 1 0.16500 119244.000000
5461 15529 1 0.16500 119244.000000
5462 12991 1 0.16500 119244.000000
5462 17036 1 0.16500 119244.000000
5463 12991 1 0.16500 119244.000000
5463 14089 1 0.16500 119244.000000
5464 13217 1 0.16500 119244.000000
5464 13380 1 0.16500 119244.000000
5465 12993 1 0.16500 119244.000000
5465 13690 1 0.16500 119244.000000
5466 12993 1 0.16500 119244.000000
5466 13217 1 0.16500 119244.000000
5467 19270 1 0.16500 119244.000000
5467 20584 1 0.16500 119244.000000
5468 19270 1 0.16500 119244.000000
5468 20842 1 0.16500 119244.000000
5469 13141 1 0.16500 119244.000000
5469 19270 1 0.16500 119244.000000
5470 12994 1 0.16500 119244.000000
5470 14639 1 0.16500 119244.000000
5471 12994 1 0.16500 119244.000000
5471 15733 1 0.16500 119244.000000
5472 19282 1 0.16500 119244.000000
5472 19642 1 0.16500 119244.000000
5473 15930 1 0.16500 119244.000000
5473 19282 1 0.16500 119244.000000
5474 12995 1 0.16500 119244.000000
5474 15365 1 0.16500 119244.000000
5475 12995 1 0.16500 119244.000000
5475 13635 1 0.16500 119244.000000
5476 11655 1 0.16500 119244.000000
5476 16100 1 0.16500 119244.000000
5477 12997 1 0.16500 119244.000000
5477 16357 1 0.16500 119244.000000
5478 12997 1 0.16500 119244.000000
5478 14869 1 0.16500 119244.000000
5479 12998 1 0.16500 119244.000000
5479 16004 1 0.16500 119244.000000
5480 12998 1 0.16500 119244.000000
5480 15641 1 0.16500 119244.000000
5481 12998 1 0.16500 119244.000000
5481 16453 1 0.16500 119244.000000
5482 12998 1 0.16500 119244.000000
5482 14517 1 0.16500 119244.000000
5483 12999 1 0.16500 119244.000000
5483 16254 1 0.16500 119244.000000
5484 12999 1 0.16500 119244.000000
5484 13951 1 0.16500 119244.000000
5485 12999 1 0.16500 119244.000000
5485 13519 1 0.16500 119244.000000
5486 13000 1 0.16500 119244.000000
5486 13861 1 0.16500 119244.000000
5487 13000 1 0.16500 119244.000000
5487 16675 1 0.16500 119244.000000
5488 13001 1 0.16500 119244.000000
5488 14704 1 0.16500 119244.000000
5489 13001 1 0.16500 119244.000000
5489 15086 1 0.16500 119244.000000
5490 13001 1 0.16500 119244.000000
5490 13924 1 0.16500 119244.000000
5491 13002 1 0.16500 119244.000000
5491 14358 1 0.16500 119244.000000
5492 13002 1 0.16500 119244.000000
5492 14305 1 0.16500 119244.000000
5493 13002 1 0.16500 119244.000000
5493 15597 1 0.16500 119244.000000
5494 13003 1 0.16500 119244.000000
5494 14640 1 0.16500 119244.000000
5495 13003 1 0.16500 119244.000000
5495 14295 1 0.16500 119244.000000
5496 16498 1 0.16500 119244.000000
5496 19294 1 0.16500 119244.000000
5497 15584 1 0.16500 119244.000000
5497 19294 1 0.16500 119244.000000
5498 19294 1 0.16500 119244.000000
5498 19762 1 0.16500 119244.000000
5499 13004 1 0.16500 119244.000000
5499 15211 1 0.16500 119244.000000
5500 13004 1 0.16500 119244.000000
5500 16482 1 0.16500 119244.000000
5501 19306 1 0.16500 119244.000000
5501 20059 1 0.16500 119244.000000
5502 14873 1 0.16500 119244.000000
5502 19306 1 0.16500 119244.000000
5503 16279 1 0.16500 119244.000000
5503 19306 1 0.16500 119244.000000
5504 13005 1 0.16500 119244.000000
5504 16938 1 0.16500 119244.000000
5505 13005 1 0.16500 119244.000000
5505 15997 1 0.16500 119244.000000
5506 13005 1 0.16500 119244.000000
5506 19390 1 0.16500 119244.000000
5507 13006 1 0.16500 119244.000000
5507 16027 1 0.16500 119244.000000
5508 13006 1 0.16500 119244.000000
5508 15177 1 0.16500 119244.000000
5509 13006 1 0.16500 119244.000000
5509 15725 1 0.16500 119244.000000
5510 13007 1 0.16500 119244.000000
5510 13291 1 0.16500 119244.000000
5511 13007 1 0.16500 119244.000000
5511 14590 1 0.16500 119244.000000
5512 13008 1 0.16500 119244.000000
5512 16309 1 0.16500 119244.000000
5513 13008 1 0.16500 119244.000000
5513 16673 1 0.16500 119244.000000
5514 13008 1 0.16500 119244.000000
5514 14393 1 0.16500 119244.000000
5515 13008 1 0.16500 119244.000000
5515 15487 1 0.16500 119244.000000
5516 15873 1 0.16500 119244.000000
5516 19318 1 0.16500 119244.000000
5517 13009 1 0.16500 119244.000000
5517 16642 1 0.16500 119244.000000
5518 13009 1 0.16500 119244.000000
5518 13852 1 0.16500 119244.000000
5519 13009 1 0.16500 119244.000000
5519 13320 1 0.16500 119244.000000
5520 13010 1 0.16500 119244.000000
5520 15460 1 0.16500 119244.000000
5521 13010 1 0.16500 119244.000000
5521 13063 1 0.16500 119244.000000
5522 13010 1 0.16500 119244.000000
5522 15398 1 0.16500 119244.000000
5523 13011 1 0.16500 119244.000000
5523 14596 1 0.16500 119244.000000
5524 13011 1 0.16500 119244.000000
5524 14556 1 0.16500 119244.000000
5525 13012 1 0.16500 119244.000000
5525 16406 1 0.16500 119244.000000
5526 14222 1 0.16500 119244.000000
5526 19330 1 0.16500 119244.000000
5527 13164 1 0.16500 119244.000000
5527 19330 1 0.16500 119244.000000
5528 13013 1 0.16500 119244.000000
5528 13908 1 0.16500 119244.000000
5529 13013 1 0.16500 119244.000000
5529 15099 1 0.16500 119244.000000
5530 13013 1 0.16500 119244.000000
5530 13545 1 0.16500 119244.000000
5531 13013 1 0.16500 119244.000000
5531 14522 1 0.16500 119244.000000
5532 13014 1 0.16500 119244.000000
5532 13208 1 0.16500 119244.000000
5533 13014 1 0.16500 119244.000000
5533 13275 1 0.16500 119244.000000
5534 13014 1 0.16500 119244.000000
5534 13276 1 0.16500 119244.000000
5535 13015 1 0.16500 119244.000000
5535 13859 1 0.16500 119244.000000
5536 13015 1 0.16500 119244.000000
5536 16316 1 0.16500 119244.000000
5537 13016 1 0.16500 119244.000000
5537 16558 1 0.16500 119244.000000
5538 13016 1 0.16500 119244.000000
5538 13414 1 0.16500 119244.000000
5539 13016 1 0.16500 119244.000000
5539 15578 1 0.16500 119244.000000
5540 13017 1 0.16500 119244.000000
5540 20872 1 0.16500 119244.000000
5541 13017 1 0.16500 119244.000000
5541 14201 1 0.16500 119244.000000
5542 13018 1 0.16500 119244.000000
5542 18044 1 0.16500 119244.000000
5543 13018 1 0.16500 119244.000000
5543 15411 1 0.16500 119244.000000
5544 13019 1 0.16500 119244.000000
5544 16293 1 0.16500 119244.000000
5545 14259 1 0.16500 119244.000000
5545 16025 1 0.16500 119244.000000
5546 13019 1 0.16500 119244.000000
5546 14470 1 0.16500 119244.000000
5547 13019 1 0.16500 119244.000000
5547 16025 1 0.16500 119244.000000
5548 13020 1 0.16500 119244.000000
5548 16111 1 0.16500 119244.000000
5549 13020 1 0.16500 119244.000000
5549 14145 1 0.16500 119244.000000
5550 12340 1 0.16500 119244.000000
5550 15968 1 0.16500 119244.000000
5551 16404 1 0.16500 119244.000000
5551 19342 1 0.16500 119244.000000
5552 14116 1 0.16500 119244.000000
5552 19342 1 0.16500 119244.000000
5553 13021 1 0.16500 119244.000000
5553 16100 1 0.16500 119244.000000
5554 13021 1 0.16500 119244.000000
5554 15456 1 0.16500 119244.000000
5555 13021 1 0.16500 119244.000000
5555 14427 1 0.16500 119244.000000
5556 13021 1 0.16500 119244.000000
5556 13235 1 0.16500 119244.000000
5557 13022 1 0.16500 119244.000000
5557 15441 1 0.16500 119244.000000
5558 13022 1 0.16500 119244.000000
5558 14676 1 0.16500 119244.000000
5559 13022 1 0.16500 119244.000000
5559 14436 1 0.16500 119244.000000
5560 13023 1 0.16500 119244.000000
5560 16391 1 0.16500 119244.000000
5561 13023 1 0.16500 119244.000000
5561 20164 1 0.16500 119244.000000
5562 13024 1 0.16500 119244.000000
5562 14498 1 0.16500 119244.000000
5563 13024 1 0.16500 119244.000000
5563 14894 1 0.16500 119244.000000
5564 13024 1 0.16500 119244.000000
5564 14473 1 0.16500 119244.000000
5565 13025 1 0.16500 119244.000000
5565 15775 1 0.16500 119244.000000
5566 13025 1 0.16500 119244.000000
5566 17946 1 0.16500 119244.000000
5567 13025 1 0.16500 119244.000000
5567 16010 1 0.16500 119244.000000
5568 13026 1 0.16500 119244.000000
5568 14208 1 0.16500 119244.000000
5569 13026 1 0.16500 119244.000000
5569 14642 1 0.16500 119244.000000
5570 13026 1 0.16500 119244.000000
5570 13040 1 0.16500 119244.000000
5571 13027 1 0.16500 119244.000000
5571 13724 1 0.16500 119244.000000
5572 14297 1 0.16500 119244.000000
5572 19366 1 0.16500 119244.000000
5573 16207 1 0.16500 119244.000000
5573 19366 1 0.16500 119244.000000
5574 13028 1 0.16500 119244.000000
5574 16041 1 0.16500 119244.000000
5575 13028 1 0.16500 119244.000000
5575 13819 1 0.16500 119244.000000
5576 13028 1 0.16500 119244.000000
5576 16278 1 0.16500 119244.000000
5577 12179 1 0.16500 119244.000000
5577 15666 1 0.16500 119244.000000
5578 15666 1 0.16500 119244.000000
5578 19378 1 0.16500 119244.000000
5579 13637 1 0.16500 119244.000000
5579 19390 1 0.16500 119244.000000
5580 16286 1 0.16500 119244.000000
5580 17190 1 0.16500 119244.000000
5581 17190 1 0.16500 119244.000000
5581 19390 1 0.16500 119244.000000
5582 13029 1 0.16500 119244.000000
5582 19975 1 0.16500 119244.000000
5583 13029 1 0.16500 119244.000000
5583 15676 1 0.16500 119244.000000
5584 13029 1 0.16500 119244.000000
5584 14519 1 0.16500 119244.000000
5585 13030 1 0.16500 119244.000000
5585 15992 1 0.16500 119244.000000
5586 13030 1 0.16500 119244.000000
5586 13678 1 0.16500 119244.000000
5587 13031 1 0.16500 119244.000000
5587 14216 1 0.16500 119244.000000
5588 13031 1 0.16500 119244.000000
5588 15193 1 0.16500 119244.000000
5589 13031 1 0.16500 119244.000000
5589 13558 1 0.16500 119244.000000
5590 13031 1 0.16500 119244.000000
5590 16643 1 0.16500 119244.000000
5591 13032 1 0.16500 119244.000000
5591 16689 1 0.16500 119244.000000
5592 13032 1 0.16500 119244.000000
5592 20569 1 0.16500 119244.000000
5593 13032 1 0.16500 119244.000000
5593 13924 1 0.16500 119244.000000
5594 13033 1 0.16500 119244.000000
5594 14603 1 0.16500 119244.000000
5595 13033 1 0.16500 119244.000000
5595 13189 1 0.16500 119244.000000
5596 13033 1 0.16500 119244.000000
5596 15660 1 0.16500 119244.000000
5597 13033 1 0.16500 119244.000000
5597 16187 1 0.16500 119244.000000
5598 13034 1 0.16500 119244.000000
5598 15717 1 0.16500 119244.000000
5599 13034 1 0.16500 119244.000000
5599 13107 1 0.16500 119244.000000
5600 13035 1 0.16500 119244.000000
5600 15805 1 0.16500 119244.000000
5601 13035 1 0.16500 119244.000000
5601 13797 1 0.16500 119244.000000
5602 13036 1 0.16500 119244.000000
5602 14453 1 0.16500 119244.000000
5603 13036 1 0.16500 119244.000000
5603 14596 1 0.16500 119244.000000
5604 13036 1 0.16500 119244.000000
5604 13890 1 0.16500 119244.000000
5605 13037 1 0.16500 119244.000000
5605 14496 1 0.16500 119244.000000
5606 13037 1 0.16500 119244.000000
5606 14816 1 0.16500 119244.000000
5607 13037 1 0.16500 119244.000000
5607 14310 1 0.16500 119244.000000
5608 13037 1 0.16500 119244.000000
5608 13624 1 0.16500 119244.000000
5609 13038 1 0.16500 119244.000000
5609 14366 1 0.16500 119244.000000
5610 13038 1 0.16500 119244.000000
5610 15170 1 0.16500 119244.000000
5611 13038 1 0.16500 119244.000000
5611 16651 1 0.16500 119244.000000
5612 13039 1 0.16500 119244.000000
5612 15604 1 0.16500 119244.000000
5613 13039 1 0.16500 119244.000000
5613 15459 1 0.16500 119244.000000
5614 13039 1 0.16500 119244.000000
5614 16326 1 0.16500 119244.000000
5615 13040 1 0.16500 119244.000000
5615 14322 1 0.16500 119244.000000
5616 13040 1 0.16500 119244.000000
5616 15718 1 0.16500 119244.000000
5617 13040 1 0.16500 119244.000000
5617 15169 1 0.16500 119244.000000
5618 13041 1 0.16500 119244.000000
5618 15800 1 0.16500 119244.000000
5619 13041 1 0.16500 119244.000000
5619 14484 1 0.16500 119244.000000
5620 13041 1 0.16500 119244.000000
5620 14228 1 0.16500 119244.000000
5621 13041 1 0.16500 119244.000000
5621 13773 1 0.16500 119244.000000
5622 13042 1 0.16500 119244.000000
5622 15263 1 0.16500 119244.000000
5623 13042 1 0.16500 119244.000000
5623 16559 1 0.16500 119244.000000
5624 13042 1 0.16500 119244.000000
5624 14414 1 0.16500 119244.000000
5625 13042 1 0.16500 119244.000000
5625 14484 1 0.16500 119244.000000
5626 13043 1 0.16500 119244.000000
5626 16345 1 0.16500 119244.000000
5627 13044 1 0.16500 119244.000000
5627 16081 1 0.16500 119244.000000
5628 13044 1 0.16500 119244.000000
5628 14689 1 0.16500 119244.000000
5629 13045 1 0.16500 119244.000000
5629 14353 1 0.16500 119244.000000
5630 13887 1 0.16500 119244.000000
5630 19402 1 0.16500 119244.000000
5631 13046 1 0.16500 119244.000000
5631 14316 1 0.16500 119244.000000
5632 15339 1 0.16500 119244.000000
5632 16151 1 0.16500 119244.000000
5633 13046 1 0.16500 119244.000000
5633 16151 1 0.16500 119244.000000
5634 13046 1 0.16500 119244.000000
5634 13592 1 0.16500 119244.000000
5635 13047 1 0.16500 119244.000000
5635 16214 1 0.16500 119244.000000
5636 13047 1 0.16500 119244.000000
5636 16118 1 0.16500 119244.000000
5637 13047 1 0.16500 119244.000000
5637 13114 1 0.16500 119244.000000
5638 13047 1 0.16500 119244.000000
5638 13738 1 0.16500 119244.000000
5639 13048 1 0.16500 119244.000000
5639 15392 1 0.16500 119244.000000
5640 13048 1 0.16500 119244.000000
5640 13389 1 0.16500 119244.000000
5641 13048 1 0.16500 119244.000000
5641 15610 1 0.16500 119244.000000
5642 13049 1 0.16500 119244.000000
5642 14884 1 0.16500 119244.000000
5643 13049 1 0.16500 119244.000000
5643 16409 1 0.16500 119244.000000
5644 13049 1 0.16500 119244.000000
5644 13789 1 0.16500 119244.000000
5645 13049 1 0.16500 119244.000000
5645 14756 1 0.16500 119244.000000
5646 13050 1 0.16500 119244.000000
5646 13766 1 0.16500 119244.000000
5647 13050 1 0.16500 119244.000000
5647 15514 1 0.16500 119244.000000
5648 13050 1 0.16500 119244.000000
5648 14816 1 0.16500 119244.000000
5649 13051 1 0.16500 119244.000000
5649 16589 1 0.16500 119244.000000
5650 13051 1 0.16500 119244.000000
5650 14293 1 0.16500 119244.000000
5651 13051 1 0.16500 119244.000000
5651 15276 1 0.16500 119244.000000
5652 13051 1 0.16500 119244.000000
5652 16612 1 0.16500 119244.000000
5653 14093 1 0.16500 119244.000000
5653 14994 1 0.16500 119244.000000
5654 13052 1 0.16500 119244.000000
5654 14093 1 0.16500 119244.000000
5655 13052 1 0.16500 119244.000000
5655 14495 1 0.16500 119244.000000
5656 13053 1 0.16500 119244.000000
5656 13791 1 0.16500 119244.000000
5657 13053 1 0.16500 119244.000000
5657 13999 1 0.16500 119244.000000
5658 13053 1 0.16500 119244.000000
5658 15462 1 0.16500 119244.000000
5659 13053 1 0.16500 119244.000000
5659 15999 1 0.16500 119244.000000
5660 15843 1 0.16500 119244.000000
5660 18190 1 0.16500 119244.000000
5661 13054 1 0.16500 119244.000000
5661 13295 1 0.16500 119244.000000
5662 13054 1 0.16500 119244.000000
5662 15630 1 0.16500 119244.000000
5663 13054 1 0.16500 119244.000000
5663 14160 1 0.16500 119244.000000
5664 13055 1 0.16500 119244.000000
5664 13995 1 0.16500 119244.000000
5665 13055 1 0.16500 119244.000000
5665 13212 1 0.16500 119244.000000
5666 13055 1 0.16500 119244.000000
5666 13508 1 0.16500 119244.000000
5667 13056 1 0.16500 119244.000000
5667 15005 1 0.16500 119244.000000
5668 13056 1 0.16500 119244.000000
5668 16558 1 0.16500 119244.000000
5669 13056 1 0.16500 119244.000000
5669 14546 1 0.16500 119244.000000
5670 13057 1 0.16500 119244.000000
5670 14322 1 0.16500 119244.000000
5671 13057 1 0.16500 119244.000000
5671 16077 1 0.16500 119244.000000
5672 13057 1 0.16500 119244.000000
5672 13219 1 0.16500 119244.000000
5673 13057 1 0.16500 119244.000000
5673 20683 1 0.16500 119244.000000
5674 13058 1 0.16500 119244.000000
5674 14316 1 0.16500 119244.000000
5675 13058 1 0.16500 119244.000000
5675 13271 1 0.16500 119244.000000
5676 13058 1 0.16500 119244.000000
5676 13604 1 0.16500 119244.000000
5677 13058 1 0.16500 119244.000000
5677 13093 1 0.16500 119244.000000
5678 13059 1 0.16500 119244.000000
5678 15436 1 0.16500 119244.000000
5679 13059 1 0.16500 119244.000000
5679 13791 1 0.16500 119244.000000
5680 13059 1 0.16500 119244.000000
5680 16281 1 0.16500 119244.000000
5681 13060 1 0.16500 119244.000000
5681 16510 1 0.16500 119244.000000
5682 13060 1 0.16500 119244.000000
5682 14658 1 0.16500 119244.000000
5683 13061 1 0.16500 119244.000000
5683 14896 1 0.16500 119244.000000
5684 13061 1 0.16500 119244.000000
5684 14530 1 0.16500 119244.000000
5685 13061 1 0.16500 119244.000000
5685 15626 1 0.16500 119244.000000
5686 13062 1 0.16500 119244.000000
5686 15879 1 0.16500 119244.000000
5687 13062 1 0.16500 119244.000000
5687 14548 1 0.16500 119244.000000
5688 13062 1 0.16500 119244.000000
5688 14114 1 0.16500 119244.000000
5689 13063 1 0.16500 119244.000000
5689 14614 1 0.16500 119244.000000
5690 13063 1 0.16500 119244.000000
5690 14931 1 0.16500 119244.000000
5691 13064 1 0.16500 119244.000000
5691 16327 1 0.16500 119244.000000
5692 13064 1 0.16500 119244.000000
5692 13961 1 0.16500 119244.000000
5693 13064 1 0.16500 119244.000000
5693 14986 1 0.16500 119244.000000
5694 11940 1 0.16500 119244.000000
5694 13419 1 0.16500 119244.000000
5695 13419 1 0.16500 119244.000000
5695 16163 1 0.16500 119244.000000
5696 13066 1 0.16500 119244.000000
5696 15360 1 0.16500 119244.000000
5697 13066 1 0.16500 119244.000000
5697 15356 1 0.16500 119244.000000
5698 13066 1 0.16500 119244.000000
5698 15915 1 0.16500 119244.000000
5699 13066 1 0.16500 119244.000000
5699 16160 1 0.16500 119244.000000
5700 13067 1 0.16500 119244.000000
5700 13289 1 0.16500 119244.000000
5701 13067 1 0.16500 119244.000000
5701 16321 1 0.16500 119244.000000
5702 13067 1 0.16500 119244.000000
5702 16195 1 0.16500 119244.000000
5703 13068 1 0.16500 119244.000000
5703 15313 1 0.16500 119244.000000
5704 13068 1 0.16500 119244.000000
5704 13333 1 0.16500 119244.000000
5705 13068 1 0.16500 119244.000000
5705 15972 1 0.16500 119244.000000
5706 13112 1 0.16500 119244.000000
5706 14038 1 0.16500 119244.000000
5707 13069 1 0.16500 119244.000000
5707 14855 1 0.16500 119244.000000
5708 13069 1 0.16500 119244.000000
5708 13112 1 0.16500 119244.000000
5709 13070 1 0.16500 119244.000000
5709 17358 1 0.16500 119244.000000
5710 13070 1 0.16500 119244.000000
5710 13530 1 0.16500 119244.000000
5711 13071 1 0.16500 119244.000000
5711 13805 1 0.16500 119244.000000
5712 13071 1 0.16500 119244.000000
5712 13823 1 0.16500 119244.000000
5713 14518 1 0.16500 119244.000000
5713 19414 1 0.16500 119244.000000
5714 19414 1 0.16500 119244.000000
5714 19978 1 0.16500 119244.000000
5715 14633 1 0.16500 119244.000000
5715 19426 1 0.16500 119244.000000
5716 13499 1 0.16500 119244.000000
5716 19426 1 0.16500 119244.000000
5717 14044 1 0.16500 119244.000000
5717 19426 1 0.16500 119244.000000
5718 13072 1 0.16500 119244.000000
5718 15025 1 0.16500 119244.000000
5719 13072 1 0.16500 119244.000000
5719 14031 1 0.16500 119244.000000
5720 13072 1 0.16500 119244.000000
5720 16369 1 0.16500 119244.000000
5721 13072 1 0.16500 119244.000000
5721 16390 1 0.16500 119244.000000
5722 13073 1 0.16500 119244.000000
5722 14913 1 0.16500 119244.000000
5723 13073 1 0.16500 119244.000000
5723 14742 1 0.16500 119244.000000
5724 13073 1 0.16500 119244.000000
5724 15578 1 0.16500 119244.000000
5725 16150 1 0.16500 119244.000000
5725 19438 1 0.16500 119244.000000
5726 14068 1 0.16500 119244.000000
5726 19438 1 0.16500 119244.000000
5727 19438 1 0.16500 119244.000000
5727 20149 1 0.16500 119244.000000
5728 13074 1 0.16500 119244.000000
5728 14827 1 0.16500 119244.000000
5729 13074 1 0.16500 119244.000000
5729 14157 1 0.16500 119244.000000
5730 13074 1 0.16500 119244.000000
5730 15183 1 0.16500 119244.000000
5731 13075 1 0.16500 119244.000000
5731 15211 1 0.16500 119244.000000
5732 13075 1 0.16500 119244.000000
5732 14375 1 0.16500 119244.000000
5733 13076 1 0.16500 119244.000000
5733 13370 1 0.16500 119244.000000
5734 13076 1 0.16500 119244.000000
5734 13421 1 0.16500 119244.000000
5735 13077 1 0.16500 119244.000000
5735 20677 1 0.16500 119244.000000
5736 13077 1 0.16500 119244.000000
5736 13643 1 0.16500 119244.000000
5737 13078 1 0.16500 119244.000000
5737 16310 1 0.16500 119244.000000
5738 13079 1 0.16500 119244.000000
5738 15908 1 0.16500 119244.000000
5739 13079 1 0.16500 119244.000000
5739 13489 1 0.16500 119244.000000
5740 13079 1 0.16500 119244.000000
5740 15693 1 0.16500 119244.000000
5741 13079 1 0.16500 119244.000000
5741 15034 1 0.16500 119244.000000
5742 13080 1 0.16500 119244.000000
5742 16224 1 0.16500 119244.000000
5743 13080 1 0.16500 119244.000000
5743 13147 1 0.16500 119244.000000
5744 15111 1 0.16500 119244.000000
5744 16224 1 0.16500 119244.000000
5745 12902 1 0.16500 119244.000000
5745 13081 1 0.16500 119244.000000
5746 13081 1 0.16500 119244.000000
5746 14380 1 0.16500 119244.000000
5747 13082 1 0.16500 119244.000000
5747 15374 1 0.16500 119244.000000
5748 13082 1 0.16500 119244.000000
5748 14542 1 0.16500 119244.000000
5749 13083 1 0.16500 119244.000000
5749 14717 1 0.16500 119244.000000
5750 13083 1 0.16500 119244.000000
5750 14109 1 0.16500 119244.000000
5751 14122 1 0.16500 119244.000000
5751 19450 1 0.16500 119244.000000
5752 14200 1 0.16500 119244.000000
5752 19450 1 0.16500 119244.000000
5753 13084 1 0.16500 119244.000000
5753 13721 1 0.16500 119244.000000
5754 13084 1 0.16500 119244.000000
5754 13350 1 0.16500 119244.000000
5755 13084 1 0.16500 119244.000000
5755 16171 1 0.16500 119244.000000
5756 13085 1 0.16500 119244.000000
5756 14666 1 0.16500 119244.000000
5757 13085 1 0.16500 119244.000000
5757 14557 1 0.16500 119244.000000
5758 13085 1 0.16500 119244.000000
5758 14195 1 0.16500 119244.000000
5759 13086 1 0.16500 119244.000000
5759 14844 1 0.16500 119244.000000
5760 14844 1 0.16500 119244.000000
5760 16531 1 0.16500 119244.000000
5761 13087 1 0.16500 119244.000000
5761 15078 1 0.16500 119244.000000
5762 13087 1 0.16500 119244.000000
5762 13292 1 0.16500 119244.000000
5763 13087 1 0.16500 119244.000000
5763 15680 1 0.16500 119244.000000
5764 14771 1 0.16500 119244.000000
5764 15078 1 0.16500 119244.000000
5765 13088 1 0.16500 119244.000000
5765 13426 1 0.16500 119244.000000
5766 13088 1 0.16500 119244.000000
5766 16109 1 0.16500 119244.000000
5767 13089 1 0.16500 119244.000000
5767 15821 1 0.16500 119244.000000
5768 13089 1 0.16500 119244.000000
5768 14582 1 0.16500 119244.000000
5769 13089 1 0.16500 119244.000000
5769 15577 1 0.16500 119244.000000
5770 13089 1 0.16500 119244.000000
5770 14109 1 0.16500 119244.000000
5771 13090 1 0.16500 119244.000000
5771 14959 1 0.16500 119244.000000
5772 13091 1 0.16500 119244.000000
5772 16032 1 0.16500 119244.000000
5773 13091 1 0.16500 119244.000000
5773 15285 1 0.16500 119244.000000
5774 13861 1 0.16500 119244.000000
5774 19462 1 0.16500 119244.000000
5775 13752 1 0.16500 119244.000000
5775 19462 1 0.16500 119244.000000
5776 16503 1 0.16500 119244.000000
5776 19462 1 0.16500 119244.000000
5777 13092 1 0.16500 119244.000000
5777 13110 1 0.16500 119244.000000
5778 13092 1 0.16500 119244.000000
5778 13630 1 0.16500 119244.000000
5779 13092 1 0.16500 119244.000000
5779 15019 1 0.16500 119244.000000
5780 13093 1 0.16500 119244.000000
5780 13869 1 0.16500 119244.000000
5781 13093 1 0.16500 119244.000000
5781 14253 1 0.16500 119244.000000
5782 13093 1 0.16500 119244.000000
5782 13742 1 0.16500 119244.000000
5783 13094 1 0.16500 119244.000000
5783 15104 1 0.16500 119244.000000
5784 13094 1 0.16500 119244.000000
5784 13338 1 0.16500 119244.000000
5785 13094 1 0.16500 119244.000000
5785 15240 1 0.16500 119244.000000
5786 13095 1 0.16500 119244.000000
5786 15955 1 0.16500 119244.000000
5787 13096 1 0.16500 119244.000000
5787 13765 1 0.16500 119244.000000
5788 13096 1 0.16500 119244.000000
5788 15672 1 0.16500 119244.000000
5789 13096 1 0.16500 119244.000000
5789 14127 1 0.16500 119244.000000
5790 13096 1 0.16500 119244.000000
5790 16246 1 0.16500 119244.000000
5791 15414 1 0.16500 119244.000000
5791 15663 1 0.16500 119244.000000
5792 13097 1 0.16500 119244.000000
5792 15414 1 0.16500 119244.000000
5793 13097 1 0.16500 119244.000000
5793 15178 1 0.16500 119244.000000
5794 13422 1 0.16500 119244.000000
5794 14082 1 0.16500 119244.000000
5795 13098 1 0.16500 119244.000000
5795 14465 1 0.16500 119244.000000
5796 13098 1 0.16500 119244.000000
5796 14234 1 0.16500 119244.000000
5797 13098 1 0.16500 119244.000000
5797 14082 1 0.16500 119244.000000
5798 13099 1 0.16500 119244.000000
5798 13811 1 0.16500 119244.000000
5799 11500 1 0.16500 119244.000000
5799 13099 1 0.16500 119244.000000
5800 13099 1 0.16500 119244.000000
5800 14415 1 0.16500 119244.000000
5801 13099 1 0.16500 119244.000000
5801 14021 1 0.16500 119244.000000
5802 13100 1 0.16500 119244.000000
5802 13515 1 0.16500 119244.000000
5803 13101 1 0.16500 119244.000000
5803 15521 1 0.16500 119244.000000
5804 13101 1 0.16500 119244.000000
5804 15425 1 0.16500 119244.000000
5805 13101 1 0.16500 119244.000000
5805 16214 1 0.16500 119244.000000
5806 13102 1 0.16500 119244.000000
5806 15672 1 0.16500 119244.000000
5807 13102 1 0.16500 119244.000000
5807 15403 1 0.16500 119244.000000
5808 13102 1 0.16500 119244.000000
5808 15038 1 0.16500 119244.000000
5809 13102 1 0.16500 119244.000000
5809 15610 1 0.16500 119244.000000
5810 13103 1 0.16500 119244.000000
5810 15788 1 0.16500 119244.000000
5811 13103 1 0.16500 119244.000000
5811 15068 1 0.16500 119244.000000
5812 13104 1 0.16500 119244.000000
5812 13257 1 0.16500 119244.000000
5813 13104 1 0.16500 119244.000000
5813 14332 1 0.16500 119244.000000
5814 13104 1 0.16500 119244.000000
5814 13159 1 0.16500 119244.000000
5815 13105 1 0.16500 119244.000000
5815 16531 1 0.16500 119244.000000
5816 13105 1 0.16500 119244.000000
5816 16075 1 0.16500 119244.000000
5817 13105 1 0.16500 119244.000000
5817 13692 1 0.16500 119244.000000
5818 13106 1 0.16500 119244.000000
5818 16217 1 0.16500 119244.000000
5819 13106 1 0.16500 119244.000000
5819 16465 1 0.16500 119244.000000
5820 13034 1 0.16500 119244.000000
5820 13922 1 0.16500 119244.000000
5821 13107 1 0.16500 119244.000000
5821 14322 1 0.16500 119244.000000
5822 13108 1 0.16500 119244.000000
5822 14681 1 0.16500 119244.000000
5823 13108 1 0.16500 119244.000000
5823 16389 1 0.16500 119244.000000
5824 13457 1 0.16500 119244.000000
5824 15457 1 0.16500 119244.000000
5825 13109 1 0.16500 119244.000000
5825 15457 1 0.16500 119244.000000
5826 13109 1 0.16500 119244.000000
5826 15425 1 0.16500 119244.000000
5827 13109 1 0.16500 119244.000000
5827 14098 1 0.16500 119244.000000
5828 14394 1 0.16500 119244.000000
5828 14441 1 0.16500 119244.000000
5829 14441 1 0.16500 119244.000000
5829 19474 1 0.16500 119244.000000
5830 13349 1 0.16500 119244.000000
5830 19486 1 0.16500 119244.000000
5831 13110 1 0.16500 119244.000000
5831 15288 1 0.16500 119244.000000
5832 15412 1 0.16500 119244.000000
5832 19498 1 0.16500 119244.000000
5833 14428 1 0.16500 119244.000000
5833 19498 1 0.16500 119244.000000
5834 19498 1 0.16500 119244.000000
5834 20062 1 0.16500 119244.000000
5835 13111 1 0.16500 119244.000000
5835 14230 1 0.16500 119244.000000
5836 13111 1 0.16500 119244.000000
5836 14813 1 0.16500 119244.000000
5837 14565 1 0.16500 119244.000000
5837 14813 1 0.16500 119244.000000
5838 14448 1 0.16500 119244.000000
5838 14813 1 0.16500 119244.000000
5839 16485 1 0.16500 119244.000000
5839 19510 1 0.16500 119244.000000
5840 14888 1 0.16500 119244.000000
5840 16485 1 0.16500 119244.000000
5841 16485 1 0.16500 119244.000000
5841 20833 1 0.16500 119244.000000
5842 16351 1 0.16500 119244.000000
5842 16485 1 0.16500 119244.000000
5843 13112 1 0.16500 119244.000000
5843 15166 1 0.16500 119244.000000
5844 13069 1 0.16500 119244.000000
5844 16520 1 0.16500 119244.000000
5845 13113 1 0.16500 119244.000000
5845 20068 1 0.16500 119244.000000
5846 13113 1 0.16500 119244.000000
5846 19918 1 0.16500 119244.000000
5847 13114 1 0.16500 119244.000000
5847 13991 1 0.16500 119244.000000
5848 13114 1 0.16500 119244.000000
5848 14187 1 0.16500 119244.000000
5849 13114 1 0.16500 119244.000000
5849 15060 1 0.16500 119244.000000
5850 13115 1 0.16500 119244.000000
5850 16097 1 0.16500 119244.000000
5851 13115 1 0.16500 119244.000000
5851 14406 1 0.16500 119244.000000
5852 13115 1 0.16500 119244.000000
5852 15081 1 0.16500 119244.000000
5853 13116 1 0.16500 119244.000000
5853 16289 1 0.16500 119244.000000
5854 13117 1 0.16500 119244.000000
5854 14054 1 0.16500 119244.000000
5855 13117 1 0.16500 119244.000000
5855 14057 1 0.16500 119244.000000
5856 13117 1 0.16500 119244.000000
5856 20599 1 0.16500 119244.000000
5857 13117 1 0.16500 119244.000000
5857 15858 1 0.16500 119244.000000
5858 12850 1 0.16500 119244.000000
5858 13118 1 0.16500 119244.000000
5859 13118 1 0.16500 119244.000000
5859 13570 1 0.16500 119244.000000
5860 13119 1 0.16500 119244.000000
5860 15704 1 0.16500 119244.000000
5861 15297 1 0.16500 119244.000000
5861 15704 1 0.16500 119244.000000
5862 13120 1 0.16500 119244.000000
5862 16012 1 0.16500 119244.000000
5863 14419 1 0.16500 119244.000000
5863 15238 1 0.16500 119244.000000
5864 13120 1 0.16500 119244.000000
5864 15238 1 0.16500 119244.000000
5865 13121 1 0.16500 119244.000000
5865 15503 1 0.16500 119244.000000
5866 13121 1 0.16500 119244.000000
5866 20008 1 0.16500 119244.000000
5867 13121 1 0.16500 119244.000000
5867 16183 1 0.16500 119244.000000
5868 13122 1 0.16500 119244.000000
5868 14668 1 0.16500 119244.000000
5869 13122 1 0.16500 119244.000000
5869 16459 1 0.16500 119244.000000
5870 13123 1 0.16500 119244.000000
5870 15352 1 0.16500 119244.000000
5871 13123 1 0.16500 119244.000000
5871 13887 1 0.16500 119244.000000
5872 13123 1 0.16500 119244.000000
5872 15869 1 0.16500 119244.000000
5873 13124 1 0.16500 119244.000000
5873 13261 1 0.16500 119244.000000
5874 13124 1 0.16500 119244.000000
5874 15326 1 0.16500 119244.000000
5875 13124 1 0.16500 119244.000000
5875 13739 1 0.16500 119244.000000
5876 13125 1 0.16500 119244.000000
5876 13568 1 0.16500 119244.000000
5877 13125 1 0.16500 119244.000000
5877 14009 1 0.16500 119244.000000
5878 13125 1 0.16500 119244.000000
5878 13502 1 0.16500 119244.000000
5879 11675 1 0.16500 119244.000000
5879 13125 1 0.16500 119244.000000
5880 13126 1 0.16500 119244.000000
5880 13972 1 0.16500 119244.000000
5881 13126 1 0.16500 119244.000000
5881 13857 1 0.16500 119244.000000
5882 13126 1 0.16500 119244.000000
5882 13943 1 0.16500 119244.000000
5883 13126 1 0.16500 119244.000000
5883 15625 1 0.16500 119244.000000
5884 13127 1 0.16500 119244.000000
5884 15130 1 0.16500 119244.000000
5885 13127 1 0.16500 119244.000000
5885 13601 1 0.16500 119244.000000
5886 13127 1 0.16500 119244.000000
5886 16095 1 0.16500 119244.000000
5887 13128 1 0.16500 119244.000000
5887 16693 1 0.16500 119244.000000
5888 13128 1 0.16500 119244.000000
5888 15576 1 0.16500 119244.000000
5889 13129 1 0.16500 119244.000000
5889 13606 1 0.16500 119244.000000
5890 13129 1 0.16500 119244.000000
5890 14384 1 0.16500 119244.000000
5891 13129 1 0.16500 119244.000000
5891 15218 1 0.16500 119244.000000
5892 13571 1 0.16500 119244.000000
5892 19522 1 0.16500 119244.000000
5893 12562 1 0.16500 119244.000000
5893 19522 1 0.16500 119244.000000
5894 15056 1 0.16500 119244.000000
5894 19522 1 0.16500 119244.000000
5895 13130 1 0.16500 119244.000000
5895 14656 1 0.16500 119244.000000
5896 13130 1 0.16500 119244.000000
5896 15724 1 0.16500 119244.000000
5897 13130 1 0.16500 119244.000000
5897 14800 1 0.16500 119244.000000
5898 13131 1 0.16500 119244.000000
5898 16228 1 0.16500 119244.000000
5899 13131 1 0.16500 119244.000000
5899 15731 1 0.16500 119244.000000
5900 13131 1 0.16500 119244.000000
5900 15027 1 0.16500 119244.000000
5901 13132 1 0.16500 119244.000000
5901 14462 1 0.16500 119244.000000
5902 13132 1 0.16500 119244.000000
5902 13355 1 0.16500 119244.000000
5903 13132 1 0.16500 119244.000000
5903 13893 1 0.16500 119244.000000
5904 13133 1 0.16500 119244.000000
5904 13625 1 0.16500 119244.000000
5905 13133 1 0.16500 119244.000000
5905 14839 1 0.16500 119244.000000
5906 13133 1 0.16500 119244.000000
5906 16303 1 0.16500 119244.000000
5907 13133 1 0.16500 119244.000000
5907 13750 1 0.16500 119244.000000
5908 13134 1 0.16500 119244.000000
5908 15734 1 0.16500 119244.000000
5909 12282 1 0.16500 119244.000000
5909 13134 1 0.16500 119244.000000
5910 13134 1 0.16500 119244.000000
5910 13400 1 0.16500 119244.000000
5911 13135 1 0.16500 119244.000000
5911 14530 1 0.16500 119244.000000
5912 13135 1 0.16500 119244.000000
5912 13678 1 0.16500 119244.000000
5913 13135 1 0.16500 119244.000000
5913 15255 1 0.16500 119244.000000
5914 13136 1 0.16500 119244.000000
5914 15247 1 0.16500 119244.000000
5915 13136 1 0.16500 119244.000000
5915 15350 1 0.16500 119244.000000
5916 13136 1 0.16500 119244.000000
5916 13429 1 0.16500 119244.000000
5917 13137 1 0.16500 119244.000000
5917 13443 1 0.16500 119244.000000
5918 13137 1 0.16500 119244.000000
5918 13834 1 0.16500 119244.000000
5919 16443 1 0.16500 119244.000000
5919 19534 1 0.16500 119244.000000
5920 11631 1 0.16500 119244.000000
5920 13138 1 0.16500 119244.000000
5921 13138 1 0.16500 119244.000000
5921 15457 1 0.16500 119244.000000
5922 13138 1 0.16500 119244.000000
5922 13486 1 0.16500 119244.000000
5923 13139 1 0.16500 119244.000000
5923 16085 1 0.16500 119244.000000
5924 13139 1 0.16500 119244.000000
5924 15850 1 0.16500 119244.000000
5925 13139 1 0.16500 119244.000000
5925 13355 1 0.16500 119244.000000
5926 13140 1 0.16500 119244.000000
5926 14426 1 0.16500 119244.000000
5927 12371 1 0.16500 119244.000000
5927 13649 1 0.16500 119244.000000
5928 13141 1 0.16500 119244.000000
5928 16233 1 0.16500 119244.000000
5929 13141 1 0.16500 119244.000000
5929 15172 1 0.16500 119244.000000
5930 13142 1 0.16500 119244.000000
5930 13963 1 0.16500 119244.000000
5931 13142 1 0.16500 119244.000000
5931 16493 1 0.16500 119244.000000
5932 13142 1 0.16500 119244.000000
5932 14253 1 0.16500 119244.000000
5933 13142 1 0.16500 119244.000000
5933 14348 1 0.16500 119244.000000
5934 13143 1 0.16500 119244.000000
5934 13855 1 0.16500 119244.000000
5935 13144 1 0.16500 119244.000000
5935 14836 1 0.16500 119244.000000
5936 13144 1 0.16500 119244.000000
5936 14414 1 0.16500 119244.000000
5937 13145 1 0.16500 119244.000000
5937 14150 1 0.16500 119244.000000
5938 13145 1 0.16500 119244.000000
5938 13625 1 0.16500 119244.000000
5939 13146 1 0.16500 119244.000000
5939 14637 1 0.16500 119244.000000
5940 13146 1 0.16500 119244.000000
5940 13668 1 0.16500 119244.000000
5941 13146 1 0.16500 119244.000000
5941 14946 1 0.16500 119244.000000
5942 13146 1 0.16500 119244.000000
5942 14478 1 0.16500 119244.000000
5943 15957 1 0.16500 119244.000000
5943 16349 1 0.16500 119244.000000
5944 14154 1 0.16500 119244.000000
5944 15957 1 0.16500 119244.000000
5945 13147 1 0.16500 119244.000000
5945 15957 1 0.16500 119244.000000
5946 13148 1 0.16500 119244.000000
5946 15282 1 0.16500 119244.000000
5947 13148 1 0.16500 119244.000000
5947 15281 1 0.16500 119244.000000
5948 13148 1 0.16500 119244.000000
5948 13356 1 0.16500 119244.000000
5949 13149 1 0.16500 119244.000000
5949 16525 1 0.16500 119244.000000
5950 13149 1 0.16500 119244.000000
5950 14005 1 0.16500 119244.000000
5951 13149 1 0.16500 119244.000000
5951 13283 1 0.16500 119244.000000
5952 13149 1 0.16500 119244.000000
5952 13649 1 0.16500 119244.000000
5953 13150 1 0.16500 119244.000000
5953 14086 1 0.16500 119244.000000
5954 13150 1 0.16500 119244.000000
5954 15621 1 0.16500 119244.000000
5955 12910 1 0.16500 119244.000000
5955 13150 1 0.16500 119244.000000
5956 13150 1 0.16500 119244.000000
5956 16257 1 0.16500 119244.000000
5957 13151 1 0.16500 119244.000000
5957 14342 1 0.16500 119244.000000
5958 13151 1 0.16500 119244.000000
5958 13870 1 0.16500 119244.000000
5959 13151 1 0.16500 119244.000000
5959 13630 1 0.16500 119244.000000
5960 13151 1 0.16500 119244.000000
5960 15459 1 0.16500 119244.000000
5961 13152 1 0.16500 119244.000000
5961 13596 1 0.16500 119244.000000
5962 13152 1 0.16500 119244.000000
5962 13804 1 0.16500 119244.000000
5963 15232 1 0.16500 119244.000000
5963 20344 1 0.16500 119244.000000
5964 13482 1 0.16500 119244.000000
5964 19546 1 0.16500 119244.000000
5965 19546 1 0.16500 119244.000000
5965 20344 1 0.16500 119244.000000
5966 13153 1 0.16500 119244.000000
5966 15600 1 0.16500 119244.000000
5967 13153 1 0.16500 119244.000000
5967 15393 1 0.16500 119244.000000
5968 13154 1 0.16500 119244.000000
5968 14103 1 0.16500 119244.000000
5969 13154 1 0.16500 119244.000000
5969 18958 1 0.16500 119244.000000
5970 13155 1 0.16500 119244.000000
5970 14397 1 0.16500 119244.000000
5971 13155 1 0.16500 119244.000000
5971 14383 1 0.16500 119244.000000
5972 13155 1 0.16500 119244.000000
5972 13674 1 0.16500 119244.000000
5973 13541 1 0.16500 119244.000000
5973 14397 1 0.16500 119244.000000
5974 16649 1 0.16500 119244.000000
5974 19558 1 0.16500 119244.000000
5975 13534 1 0.16500 119244.000000
5975 19558 1 0.16500 119244.000000
5976 13156 1 0.16500 119244.000000
5976 13804 1 0.16500 119244.000000
5977 13156 1 0.16500 119244.000000
5977 15414 1 0.16500 119244.000000
5978 13641 1 0.16500 119244.000000
5978 14373 1 0.16500 119244.000000
5979 13157 1 0.16500 119244.000000
5979 20455 1 0.16500 119244.000000
5980 13157 1 0.16500 119244.000000
5980 13641 1 0.16500 119244.000000
5981 13641 1 0.16500 119244.000000
5981 20446 1 0.16500 119244.000000
5982 13158 1 0.16500 119244.000000
5982 14141 1 0.16500 119244.000000
5983 13158 1 0.16500 119244.000000
5983 13339 1 0.16500 119244.000000
5984 13159 1 0.16500 119244.000000
5984 15673 1 0.16500 119244.000000
5985 13159 1 0.16500 119244.000000
5985 14273 1 0.16500 119244.000000
5986 13159 1 0.16500 119244.000000
5986 13430 1 0.16500 119244.000000
5987 13160 1 0.16500 119244.000000
5987 16511 1 0.16500 119244.000000
5988 13160 1 0.16500 119244.000000
5988 15668 1 0.16500 119244.000000
5989 13161 1 0.16500 119244.000000
5989 16109 1 0.16500 119244.000000
5990 13161 1 0.16500 119244.000000
5990 14788 1 0.16500 119244.000000
5991 15519 1 0.16500 119244.000000
5991 19570 1 0.16500 119244.000000
5992 13316 1 0.16500 119244.000000
5992 19570 1 0.16500 119244.000000
5993 13162 1 0.16500 119244.000000
5993 15369 1 0.16500 119244.000000
5994 13162 1 0.16500 119244.000000
5994 13684 1 0.16500 119244.000000
5995 13162 1 0.16500 119244.000000
5995 16445 1 0.16500 119244.000000
5996 13162 1 0.16500 119244.000000
5996 15039 1 0.16500 119244.000000
5997 19582 1 0.16500 119244.000000
5997 21018 1 0.16500 119244.000000
5998 19582 1 0.16500 119244.000000
5998 20197 1 0.16500 119244.000000
5999 13163 1 0.16500 119244.000000
5999 15937 1 0.16500 119244.000000
6000 13164 1 0.16500 119244.000000
6000 20521 1 0.16500 119244.000000
6001 13164 1 0.16500 119244.000000
6001 16598 1 0.16500 119244.000000
6002 13165 1 0.16500 119244.000000
6002 15477 1 0.16500 119244.000000
6003 13165 1 0.16500 119244.000000
6003 13896 1 0.16500 119244.000000
6004 13165 1 0.16500 119244.000000
6004 13194 1 0.16500 119244.000000
6005 16506 1 0.16500 119244.000000
6005 19594 1 0.16500 119244.000000
6006 15496 1 0.16500 119244.000000
6006 19594 1 0.16500 119244.000000
6007 13166 1 0.16500 119244.000000
6007 15627 1 0.16500 119244.000000
6008 13166 1 0.16500 119244.000000
6008 13262 1 0.16500 119244.000000
6009 13166 1 0.16500 119244.000000
6009 15610 1 0.16500 119244.000000
6010 13166 1 0.16500 119244.000000
6010 13865 1 0.16500 119244.000000
6011 13167 1 0.16500 119244.000000
6011 15649 1 0.16500 119244.000000
6012 13167 1 0.16500 119244.000000
6012 16074 1 0.16500 119244.000000
6013 13168 1 0.16500 119244.000000
6013 13239 1 0.16500 119244.000000
6014 13168 1 0.16500 119244.000000
6014 20416 1 0.16500 119244.000000
6015 13168 1 0.16500 119244.000000
6015 15253 1 0.16500 119244.000000
6016 13169 1 0.16500 119244.000000
6016 16599 1 0.16500 119244.000000
6017 13169 1 0.16500 119244.000000
6017 14792 1 0.16500 119244.000000
6018 13169 1 0.16500 119244.000000
6018 15099 1 0.16500 119244.000000
6019 13169 1 0.16500 119244.000000
6019 16429 1 0.16500 119244.000000
6020 11725 1 0.16500 119244.000000
6020 13476 1 0.16500 119244.000000
6021 11725 1 0.16500 119244.000000
6021 16382 1 0.16500 119244.000000
6022 13171 1 0.16500 119244.000000
6022 15543 1 0.16500 119244.000000
6023 13171 1 0.16500 119244.000000
6023 13835 1 0.16500 119244.000000
6024 13171 1 0.16500 119244.000000
6024 13852 1 0.16500 119244.000000
6025 13171 1 0.16500 119244.000000
6025 14950 1 0.16500 119244.000000
6026 19606 1 0.16500 119244.000000
6026 19894 1 0.16500 119244.000000
6027 15374 1 0.16500 119244.000000
6027 19606 1 0.16500 119244.000000
6028 13172 1 0.16500 119244.000000
6028 13827 1 0.16500 119244.000000
6029 13172 1 0.16500 119244.000000
6029 15345 1 0.16500 119244.000000
6030 13172 1 0.16500 119244.000000
6030 16229 1 0.16500 119244.000000
6031 16208 1 0.16500 119244.000000
6031 20032 1 0.16500 119244.000000
6032 16208 1 0.16500 119244.000000
6032 19618 1 0.16500 119244.000000
6033 13173 1 0.16500 119244.000000
6033 13775 1 0.16500 119244.000000
6034 13173 1 0.16500 119244.000000
6034 14601 1 0.16500 119244.000000
6035 13174 1 0.16500 119244.000000
6035 13696 1 0.16500 119244.000000
6036 13174 1 0.16500 119244.000000
6036 16662 1 0.16500 119244.000000
6037 13174 1 0.16500 119244.000000
6037 13964 1 0.16500 119244.000000
6038 19630 1 0.16500 119244.000000
6038 19738 1 0.16500 119244.000000
6039 13175 1 0.16500 119244.000000
6039 14106 1 0.16500 119244.000000
6040 13175 1 0.16500 119244.000000
6040 16296 1 0.16500 119244.000000
6041 13175 1 0.16500 119244.000000
6041 13747 1 0.16500 119244.000000
6042 13175 1 0.16500 119244.000000
6042 15785 1 0.16500 119244.000000
6043 13176 1 0.16500 119244.000000
6043 16399 1 0.16500 119244.000000
6044 13176 1 0.16500 119244.000000
6044 14555 1 0.16500 119244.000000
6045 13176 1 0.16500 119244.000000
6045 15874 1 0.16500 119244.000000
6046 13176 1 0.16500 119244.000000
6046 16337 1 0.16500 119244.000000
6047 13177 1 0.16500 119244.000000
6047 15977 1 0.16500 119244.000000
6048 13177 1 0.16500 119244.000000
6048 14303 1 0.16500 119244.000000
6049 13177 1 0.16500 119244.000000
6049 15596 1 0.16500 119244.000000
6050 13178 1 0.16500 119244.000000
6050 16606 1 0.16500 119244.000000
6051 13827 1 0.16500 119244.000000
6051 19642 1 0.16500 119244.000000
6052 13179 1 0.16500 119244.000000
6052 15027 1 0.16500 119244.000000
6053 13179 1 0.16500 119244.000000
6053 15702 1 0.16500 119244.000000
6054 13179 1 0.16500 119244.000000
6054 14887 1 0.16500 119244.000000
6055 13180 1 0.16500 119244.000000
6055 15062 1 0.16500 119244.000000
6056 13180 1 0.16500 119244.000000
6056 14007 1 0.16500 119244.000000
6057 13180 1 0.16500 119244.000000
6057 20080 1 0.16500 119244.000000
6058 13181 1 0.16500 119244.000000
6058 14924 1 0.16500 119244.000000
6059 13181 1 0.16500 119244.000000
6059 16283 1 0.16500 119244.000000
6060 13181 1 0.16500 119244.000000
6060 16114 1 0.16500 119244.000000
6061 13182 1 0.16500 119244.000000
6061 16545 1 0.16500 119244.000000
6062 13183 1 0.16500 119244.000000
6062 13338 1 0.16500 119244.000000
6063 13183 1 0.16500 119244.000000
6063 14916 1 0.16500 119244.000000
6064 13183 1 0.16500 119244.000000
6064 16004 1 0.16500 119244.000000
6065 13184 1 0.16500 119244.000000
6065 13554 1 0.16500 119244.000000
6066 13184 1 0.16500 119244.000000
6066 16601 1 0.16500 119244.000000
6067 13184 1 0.16500 119244.000000
6067 15632 1 0.16500 119244.000000
6068 13185 1 0.16500 119244.000000
6068 15995 1 0.16500 119244.000000
6069 13185 1 0.16500 119244.000000
6069 13695 1 0.16500 119244.000000
6070 13186 1 0.16500 119244.000000
6070 15775 1 0.16500 119244.000000
6071 13186 1 0.16500 119244.000000
6071 15217 1 0.16500 119244.000000
6072 13186 1 0.16500 119244.000000
6072 16477 1 0.16500 119244.000000
6073 13186 1 0.16500 119244.000000
6073 20335 1 0.16500 119244.000000
6074 13187 1 0.16500 119244.000000
6074 14425 1 0.16500 119244.000000
6075 13187 1 0.16500 119244.000000
6075 14419 1 0.16500 119244.000000
6076 13188 1 0.16500 119244.000000
6076 16669 1 0.16500 119244.000000
6077 13188 1 0.16500 119244.000000
6077 14953 1 0.16500 119244.000000
6078 13188 1 0.16500 119244.000000
6078 16138 1 0.16500 119244.000000
6079 14101 1 0.16500 119244.000000
6079 19666 1 0.16500 119244.000000
6080 15559 1 0.16500 119244.000000
6080 19666 1 0.16500 119244.000000
6081 13189 1 0.16500 119244.000000
6081 14898 1 0.16500 119244.000000
6082 13189 1 0.16500 119244.000000
6082 15320 1 0.16500 119244.000000
6083 13189 1 0.16500 119244.000000
6083 14587 1 0.16500 119244.000000
6084 13190 1 0.16500 119244.000000
6084 13869 1 0.16500 119244.000000
6085 13190 1 0.16500 119244.000000
6085 14594 1 0.16500 119244.000000
6086 13190 1 0.16500 119244.000000
6086 13592 1 0.16500 119244.000000
6087 13190 1 0.16500 119244.000000
6087 14922 1 0.16500 119244.000000
6088 16664 1 0.16500 119244.000000
6088 19678 1 0.16500 119244.000000
6089 19678 1 0.16500 119244.000000
6089 20581 1 0.16500 119244.000000
6090 13191 1 0.16500 119244.000000
6090 15449 1 0.16500 119244.000000
6091 13191 1 0.16500 119244.000000
6091 16137 1 0.16500 119244.000000
6092 13191 1 0.16500 119244.000000
6092 14316 1 0.16500 119244.000000
6093 13191 1 0.16500 119244.000000
6093 14045 1 0.16500 119244.000000
6094 13192 1 0.16500 119244.000000
6094 15249 1 0.16500 119244.000000
6095 13192 1 0.16500 119244.000000
6095 16370 1 0.16500 119244.000000
6096 13192 1 0.16500 119244.000000
6096 13514 1 0.16500 119244.000000
6097 13193 1 0.16500 119244.000000
6097 13560 1 0.16500 119244.000000
6098 13193 1 0.16500 119244.000000
6098 13620 1 0.16500 119244.000000
6099 14585 1 0.16500 119244.000000
6099 19702 1 0.16500 119244.000000
6100 19702 1 0.16500 119244.000000
6100 20812 1 0.16500 119244.000000
6101 14226 1 0.16500 119244.000000
6101 19702 1 0.16500 119244.000000
6102 13194 1 0.16500 119244.000000
6102 15014 1 0.16500 119244.000000
6103 13194 1 0.16500 119244.000000
6103 16604 1 0.16500 119244.000000
6104 13195 1 0.16500 119244.000000
6104 16085 1 0.16500 119244.000000
6105 13195 1 0.16500 119244.000000
6105 13678 1 0.16500 119244.000000
6106 13195 1 0.16500 119244.000000
6106 14431 1 0.16500 119244.000000
6107 13195 1 0.16500 119244.000000
6107 14740 1 0.16500 119244.000000
6108 15984 1 0.16500 119244.000000
6108 19714 1 0.16500 119244.000000
6109 15963 1 0.16500 119244.000000
6109 19714 1 0.16500 119244.000000
6110 15435 1 0.16500 119244.000000
6110 19714 1 0.16500 119244.000000
6111 13196 1 0.16500 119244.000000
6111 14643 1 0.16500 119244.000000
6112 15059 1 0.16500 119244.000000
6112 15335 1 0.16500 119244.000000
6113 13196 1 0.16500 119244.000000
6113 15059 1 0.16500 119244.000000
6114 16076 1 0.16500 119244.000000
6114 16130 1 0.16500 119244.000000
6115 13197 1 0.16500 119244.000000
6115 15687 1 0.16500 119244.000000
6116 12782 1 0.16500 119244.000000
6116 13198 1 0.16500 119244.000000
6117 13198 1 0.16500 119244.000000
6117 16361 1 0.16500 119244.000000
6118 13199 1 0.16500 119244.000000
6118 16192 1 0.16500 119244.000000
6119 13200 1 0.16500 119244.000000
6119 15899 1 0.16500 119244.000000
6120 13200 1 0.16500 119244.000000
6120 13232 1 0.16500 119244.000000
6121 13200 1 0.16500 119244.000000
6121 13892 1 0.16500 119244.000000
6122 13201 1 0.16500 119244.000000
6122 15962 1 0.16500 119244.000000
6123 13201 1 0.16500 119244.000000
6123 13937 1 0.16500 119244.000000
6124 13202 1 0.16500 119244.000000
6124 14713 1 0.16500 119244.000000
6125 13202 1 0.16500 119244.000000
6125 15989 1 0.16500 119244.000000
6126 13202 1 0.16500 119244.000000
6126 17064 1 0.16500 119244.000000
6127 13202 1 0.16500 119244.000000
6127 13382 1 0.16500 119244.000000
6128 13203 1 0.16500 119244.000000
6128 13604 1 0.16500 119244.000000
6129 12238 1 0.16500 119244.000000
6129 13204 1 0.16500 119244.000000
6130 13204 1 0.16500 119244.000000
6130 17456 1 0.16500 119244.000000
6131 13204 1 0.16500 119244.000000
6131 14344 1 0.16500 119244.000000
6132 13205 1 0.16500 119244.000000
6132 13206 1 0.16500 119244.000000
6133 13205 1 0.16500 119244.000000
6133 13398 1 0.16500 119244.000000
6134 13205 1 0.16500 119244.000000
6134 15537 1 0.16500 119244.000000
6135 13635 1 0.16500 119244.000000
6135 15456 1 0.16500 119244.000000
6136 13206 1 0.16500 119244.000000
6136 13235 1 0.16500 119244.000000
6137 13207 1 0.16500 119244.000000
6137 14990 1 0.16500 119244.000000
6138 13207 1 0.16500 119244.000000
6138 13704 1 0.16500 119244.000000
6139 13207 1 0.16500 119244.000000
6139 13973 1 0.16500 119244.000000
6140 13207 1 0.16500 119244.000000
6140 16084 1 0.16500 119244.000000
6141 13208 1 0.16500 119244.000000
6141 13360 1 0.16500 119244.000000
6142 13208 1 0.16500 119244.000000
6142 16003 1 0.16500 119244.000000
6143 13208 1 0.16500 119244.000000
6143 14264 1 0.16500 119244.000000
6144 13209 1 0.16500 119244.000000
6144 20761 1 0.16500 119244.000000
6145 14191 1 0.16500 119244.000000
6145 14745 1 0.16500 119244.000000
6146 13210 1 0.16500 119244.000000
6146 14191 1 0.16500 119244.000000
6147 14191 1 0.16500 119244.000000
6147 15837 1 0.16500 119244.000000
6148 19726 1 0.16500 119244.000000
6148 20038 1 0.16500 119244.000000
6149 19726 1 0.16500 119244.000000
6149 20611 1 0.16500 119244.000000
6150 13211 1 0.16500 119244.000000
6150 20803 1 0.16500 119244.000000
6151 13211 1 0.16500 119244.000000
6151 20875 1 0.16500 119244.000000
6152 13211 1 0.16500 119244.000000
6152 20635 1 0.16500 119244.000000
6153 13211 1 0.16500 119244.000000
6153 15565 1 0.16500 119244.000000
6154 13212 1 0.16500 119244.000000
6154 14227 1 0.16500 119244.000000
6155 13213 1 0.16500 119244.000000
6155 14220 1 0.16500 119244.000000
6156 13213 1 0.16500 119244.000000
6156 14386 1 0.16500 119244.000000
6157 13213 1 0.16500 119244.000000
6157 14051 1 0.16500 119244.000000
6158 13214 1 0.16500 119244.000000
6158 15929 1 0.16500 119244.000000
6159 13214 1 0.16500 119244.000000
6159 14025 1 0.16500 119244.000000
6160 13215 1 0.16500 119244.000000
6160 14422 1 0.16500 119244.000000
6161 12787 1 0.16500 119244.000000
6161 13709 1 0.16500 119244.000000
6162 13709 1 0.16500 119244.000000
6162 15804 1 0.16500 119244.000000
6163 13216 1 0.16500 119244.000000
6163 13661 1 0.16500 119244.000000
6164 13216 1 0.16500 119244.000000
6164 13777 1 0.16500 119244.000000
6165 13217 1 0.16500 119244.000000
6165 14467 1 0.16500 119244.000000
6166 13217 1 0.16500 119244.000000
6166 13996 1 0.16500 119244.000000
6167 14347 1 0.16500 119244.000000
6167 16424 1 0.16500 119244.000000
6168 13218 1 0.16500 119244.000000
6168 15952 1 0.16500 119244.000000
6169 13218 1 0.16500 119244.000000
6169 15569 1 0.16500 119244.000000
6170 13218 1 0.16500 119244.000000
6170 14347 1 0.16500 119244.000000
6171 13219 1 0.16500 119244.000000
6171 15499 1 0.16500 119244.000000
6172 13219 1 0.16500 119244.000000
6172 20407 1 0.16500 119244.000000
6173 19738 1 0.16500 119244.000000
6173 20335 1 0.16500 119244.000000
6174 14477 1 0.16500 119244.000000
6174 19738 1 0.16500 119244.000000
6175 15982 1 0.16500 119244.000000
6175 16696 1 0.16500 119244.000000
6176 13220 1 0.16500 119244.000000
6176 13656 1 0.16500 119244.000000
6177 13220 1 0.16500 119244.000000
6177 16348 1 0.16500 119244.000000
6178 11930 1 0.16500 119244.000000
6178 16696 1 0.16500 119244.000000
6179 13221 1 0.16500 119244.000000
6179 15021 1 0.16500 119244.000000
6180 13221 1 0.16500 119244.000000
6180 13251 1 0.16500 119244.000000
6181 13222 1 0.16500 119244.000000
6181 15771 1 0.16500 119244.000000
6182 13222 1 0.16500 119244.000000
6182 16386 1 0.16500 119244.000000
6183 13222 1 0.16500 119244.000000
6183 14266 1 0.16500 119244.000000
6184 13222 1 0.16500 119244.000000
6184 14434 1 0.16500 119244.000000
6185 13223 1 0.16500 119244.000000
6185 14532 1 0.16500 119244.000000
6186 13223 1 0.16500 119244.000000
6186 16714 1 0.16500 119244.000000
6187 13223 1 0.16500 119244.000000
6187 17918 1 0.16500 119244.000000
6188 13224 1 0.16500 119244.000000
6188 13469 1 0.16500 119244.000000
6189 13224 1 0.16500 119244.000000
6189 16429 1 0.16500 119244.000000
6190 13224 1 0.16500 119244.000000
6190 14373 1 0.16500 119244.000000
6191 13224 1 0.16500 119244.000000
6191 13724 1 0.16500 119244.000000
6192 13225 1 0.16500 119244.000000
6192 14559 1 0.16500 119244.000000
6193 13226 1 0.16500 119244.000000
6193 14611 1 0.16500 119244.000000
6194 13226 1 0.16500 119244.000000
6194 13792 1 0.16500 119244.000000
6195 13226 1 0.16500 119244.000000
6195 14968 1 0.16500 119244.000000
6196 13226 1 0.16500 119244.000000
6196 14320 1 0.16500 119244.000000
6197 15984 1 0.16500 119244.000000
6197 19750 1 0.16500 119244.000000
6198 15171 1 0.16500 119244.000000
6198 19750 1 0.16500 119244.000000
6199 14514 1 0.16500 119244.000000
6199 20224 1 0.16500 119244.000000
6200 13227 1 0.16500 119244.000000
6200 15951 1 0.16500 119244.000000
6201 13227 1 0.16500 119244.000000
6201 14705 1 0.16500 119244.000000
6202 13227 1 0.16500 119244.000000
6202 13494 1 0.16500 119244.000000
6203 13228 1 0.16500 119244.000000
6203 13631 1 0.16500 119244.000000
6204 13228 1 0.16500 119244.000000
6204 13580 1 0.16500 119244.000000
6205 13229 1 0.16500 119244.000000
6205 14388 1 0.16500 119244.000000
6206 13229 1 0.16500 119244.000000
6206 16171 1 0.16500 119244.000000
6207 13229 1 0.16500 119244.000000
6207 14960 1 0.16500 119244.000000
6208 13230 1 0.16500 119244.000000
6208 14535 1 0.16500 119244.000000
6209 13230 1 0.16500 119244.000000
6209 14527 1 0.16500 119244.000000
6210 13231 1 0.16500 119244.000000
6210 14998 1 0.16500 119244.000000
6211 13231 1 0.16500 119244.000000
6211 16040 1 0.16500 119244.000000
6212 13231 1 0.16500 119244.000000
6212 14617 1 0.16500 119244.000000
6213 13231 1 0.16500 119244.000000
6213 16415 1 0.16500 119244.000000
6214 13232 1 0.16500 119244.000000
6214 13458 1 0.16500 119244.000000
6215 13233 1 0.16500 119244.000000
6215 13813 1 0.16500 119244.000000
6216 13233 1 0.16500 119244.000000
6216 13407 1 0.16500 119244.000000
6217 13233 1 0.16500 119244.000000
6217 14085 1 0.16500 119244.000000
6218 13234 1 0.16500 119244.000000
6218 15247 1 0.16500 119244.000000
6219 13234 1 0.16500 119244.000000
6219 17428 1 0.16500 119244.000000
6220 13235 1 0.16500 119244.000000
6220 15734 1 0.16500 119244.000000
6221 13236 1 0.16500 119244.000000
6221 16574 1 0.16500 119244.000000
6222 12923 1 0.16500 119244.000000
6222 13236 1 0.16500 119244.000000
6223 13237 1 0.16500 119244.000000
6223 15798 1 0.16500 119244.000000
6224 13237 1 0.16500 119244.000000
6224 14238 1 0.16500 119244.000000
6225 13237 1 0.16500 119244.000000
6225 16008 1 0.16500 119244.000000
6226 13238 1 0.16500 119244.000000
6226 14830 1 0.16500 119244.000000
6227 13238 1 0.16500 119244.000000
6227 16225 1 0.16500 119244.000000
6228 13238 1 0.16500 119244.000000
6228 14221 1 0.16500 119244.000000
6229 15430 1 0.16500 119244.000000
6229 19762 1 0.16500 119244.000000
6230 16657 1 0.16500 119244.000000
6230 19774 1 0.16500 119244.000000
6231 14206 1 0.16500 119244.000000
6231 19774 1 0.16500 119244.000000
6232 19774 1 0.16500 119244.000000
6232 20362 1 0.16500 119244.000000
6233 18214 1 0.16500 119244.000000
6233 19786 1 0.16500 119244.000000
6234 12608 1 0.16500 119244.000000
6234 14117 1 0.16500 119244.000000
6235 13239 1 0.16500 119244.000000
6235 17554 1 0.16500 119244.000000
6236 13240 1 0.16500 119244.000000
6236 14440 1 0.16500 119244.000000
6237 13240 1 0.16500 119244.000000
6237 13644 1 0.16500 119244.000000
6238 13240 1 0.16500 119244.000000
6238 20503 1 0.16500 119244.000000
6239 13241 1 0.16500 119244.000000
6239 16075 1 0.16500 119244.000000
6240 13241 1 0.16500 119244.000000
6240 14041 1 0.16500 119244.000000
6241 13241 1 0.16500 119244.000000
6241 16549 1 0.16500 119244.000000
6242 13241 1 0.16500 119244.000000
6242 16607 1 0.16500 119244.000000
6243 13242 1 0.16500 119244.000000
6243 13946 1 0.16500 119244.000000
6244 13242 1 0.16500 119244.000000
6244 15301 1 0.16500 119244.000000
6245 13243 1 0.16500 119244.000000
6245 16350 1 0.16500 119244.000000
6246 13244 1 0.16500 119244.000000
6246 15219 1 0.16500 119244.000000
6247 13244 1 0.16500 119244.000000
6247 15988 1 0.16500 119244.000000
6248 13245 1 0.16500 119244.000000
6248 15771 1 0.16500 119244.000000
6249 13245 1 0.16500 119244.000000
6249 14593 1 0.16500 119244.000000
6250 13245 1 0.16500 119244.000000
6250 13378 1 0.16500 119244.000000
6251 13246 1 0.16500 119244.000000
6251 20893 1 0.16500 119244.000000
6252 13247 1 0.16500 119244.000000
6252 16084 1 0.16500 119244.000000
6253 13247 1 0.16500 119244.000000
6253 14509 1 0.16500 119244.000000
6254 13247 1 0.16500 119244.000000
6254 14366 1 0.16500 119244.000000
6255 13248 1 0.16500 119244.000000
6255 14534 1 0.16500 119244.000000
6256 14423 1 0.16500 119244.000000
6256 15096 1 0.16500 119244.000000
6257 13248 1 0.16500 119244.000000
6257 13527 1 0.16500 119244.000000
6258 13248 1 0.16500 119244.000000
6258 14423 1 0.16500 119244.000000
6259 13249 1 0.16500 119244.000000
6259 14338 1 0.16500 119244.000000
6260 13249 1 0.16500 119244.000000
6260 16402 1 0.16500 119244.000000
6261 13249 1 0.16500 119244.000000
6261 15816 1 0.16500 119244.000000
6262 19798 1 0.16500 119244.000000
6262 20833 1 0.16500 119244.000000
6263 19798 1 0.16500 119244.000000
6263 20578 1 0.16500 119244.000000
6264 14294 1 0.16500 119244.000000
6264 19798 1 0.16500 119244.000000
6265 13250 1 0.16500 119244.000000
6265 13593 1 0.16500 119244.000000
6266 11509 1 0.16500 119244.000000
6266 15884 1 0.16500 119244.000000
6267 19810 1 0.16500 119244.000000
6267 20602 1 0.16500 119244.000000
6268 13252 1 0.16500 119244.000000
6268 16495 1 0.16500 119244.000000
6269 13252 1 0.16500 119244.000000
6269 15744 1 0.16500 119244.000000
6270 13252 1 0.16500 119244.000000
6270 14849 1 0.16500 119244.000000
6271 13252 1 0.16500 119244.000000
6271 16120 1 0.16500 119244.000000
6272 13253 1 0.16500 119244.000000
6272 15807 1 0.16500 119244.000000
6273 13253 1 0.16500 119244.000000
6273 15628 1 0.16500 119244.000000
6274 13253 1 0.16500 119244.000000
6274 14771 1 0.16500 119244.000000
6275 14100 1 0.16500 119244.000000
6275 14771 1 0.16500 119244.000000
6276 13254 1 0.16500 119244.000000
6276 13967 1 0.16500 119244.000000
6277 13254 1 0.16500 119244.000000
6277 13890 1 0.16500 119244.000000
6278 13255 1 0.16500 119244.000000
6278 16542 1 0.16500 119244.000000
6279 13255 1 0.16500 119244.000000
6279 15036 1 0.16500 119244.000000
6280 13255 1 0.16500 119244.000000
6280 16335 1 0.16500 119244.000000
6281 13255 1 0.16500 119244.000000
6281 15209 1 0.16500 119244.000000
6282 13256 1 0.16500 119244.000000
6282 16603 1 0.16500 119244.000000
6283 12412 1 0.16500 119244.000000
6283 13257 1 0.16500 119244.000000
6284 13257 1 0.16500 119244.000000
6284 16218 1 0.16500 119244.000000
6285 13257 1 0.16500 119244.000000
6285 15226 1 0.16500 119244.000000
6286 13258 1 0.16500 119244.000000
6286 15897 1 0.16500 119244.000000
6287 13258 1 0.16500 119244.000000
6287 16079 1 0.16500 119244.000000
6288 13259 1 0.16500 119244.000000
6288 16484 1 0.16500 119244.000000
6289 13259 1 0.16500 119244.000000
6289 16193 1 0.16500 119244.000000
6290 13260 1 0.16500 119244.000000
6290 16494 1 0.16500 119244.000000
6291 13260 1 0.16500 119244.000000
6291 16235 1 0.16500 119244.000000
6292 13261 1 0.16500 119244.000000
6292 14659 1 0.16500 119244.000000
6293 13261 1 0.16500 119244.000000
6293 15176 1 0.16500 119244.000000
6294 13261 1 0.16500 119244.000000
6294 14095 1 0.16500 119244.000000
6295 13262 1 0.16500 119244.000000
6295 15960 1 0.16500 119244.000000
6296 13262 1 0.16500 119244.000000
6296 15909 1 0.16500 119244.000000
6297 13263 1 0.16500 119244.000000
6297 15948 1 0.16500 119244.000000
6298 13263 1 0.16500 119244.000000
6298 16029 1 0.16500 119244.000000
6299 13263 1 0.16500 119244.000000
6299 15539 1 0.16500 119244.000000
6300 13263 1 0.16500 119244.000000
6300 15633 1 0.16500 119244.000000
6301 13264 1 0.16500 119244.000000
6301 14592 1 0.16500 119244.000000
6302 13264 1 0.16500 119244.000000
6302 16307 1 0.16500 119244.000000
6303 13264 1 0.16500 119244.000000
6303 17890 1 0.16500 119244.000000
6304 13265 1 0.16500 119244.000000
6304 16234 1 0.16500 119244.000000
6305 13265 1 0.16500 119244.000000
6305 16185 1 0.16500 119244.000000
6306 13266 1 0.16500 119244.000000
6306 14318 1 0.16500 119244.000000
6307 13266 1 0.16500 119244.000000
6307 14892 1 0.16500 119244.000000
6308 13266 1 0.16500 119244.000000
6308 16426 1 0.16500 119244.000000
6309 13267 1 0.16500 119244.000000
6309 15071 1 0.16500 119244.000000
6310 13267 1 0.16500 119244.000000
6310 20293 1 0.16500 119244.000000
6311 13268 1 0.16500 119244.000000
6311 13881 1 0.16500 119244.000000
6312 13268 1 0.16500 119244.000000
6312 14473 1 0.16500 119244.000000
6313 13268 1 0.16500 119244.000000
6313 13288 1 0.16500 119244.000000
6314 19822 1 0.16500 119244.000000
6314 20428 1 0.16500 119244.000000
6315 15551 1 0.16500 119244.000000
6315 19822 1 0.16500 119244.000000
6316 13269 1 0.16500 119244.000000
6316 16193 1 0.16500 119244.000000
6317 13269 1 0.16500 119244.000000
6317 15991 1 0.16500 119244.000000
6318 13269 1 0.16500 119244.000000
6318 14020 1 0.16500 119244.000000
6319 13270 1 0.16500 119244.000000
6319 15053 1 0.16500 119244.000000
6320 13270 1 0.16500 119244.000000
6320 14687 1 0.16500 119244.000000
6321 13210 1 0.16500 119244.000000
6321 13270 1 0.16500 119244.000000
6322 13270 1 0.16500 119244.000000
6322 16477 1 0.16500 119244.000000
6323 13271 1 0.16500 119244.000000
6323 13806 1 0.16500 119244.000000
6324 13271 1 0.16500 119244.000000
6324 15449 1 0.16500 119244.000000
6325 13272 1 0.16500 119244.000000
6325 16537 1 0.16500 119244.000000
6326 13272 1 0.16500 119244.000000
6326 14151 1 0.16500 119244.000000
6327 13272 1 0.16500 119244.000000
6327 13721 1 0.16500 119244.000000
6328 13273 1 0.16500 119244.000000
6328 16541 1 0.16500 119244.000000
6329 13273 1 0.16500 119244.000000
6329 16605 1 0.16500 119244.000000
6330 13273 1 0.16500 119244.000000
6330 15934 1 0.16500 119244.000000
6331 13274 1 0.16500 119244.000000
6331 14750 1 0.16500 119244.000000
6332 13274 1 0.16500 119244.000000
6332 16439 1 0.16500 119244.000000
6333 13274 1 0.16500 119244.000000
6333 15461 1 0.16500 119244.000000
6334 13274 1 0.16500 119244.000000
6334 14051 1 0.16500 119244.000000
6335 14615 1 0.16500 119244.000000
6335 19834 1 0.16500 119244.000000
6336 13275 1 0.16500 119244.000000
6336 14466 1 0.16500 119244.000000
6337 14466 1 0.16500 119244.000000
6337 16003 1 0.16500 119244.000000
6338 13276 1 0.16500 119244.000000
6338 13790 1 0.16500 119244.000000
6339 13276 1 0.16500 119244.000000
6339 16331 1 0.16500 119244.000000
6340 13277 1 0.16500 119244.000000
6340 16687 1 0.16500 119244.000000
6341 13277 1 0.16500 119244.000000
6341 20854 1 0.16500 119244.000000
6342 13277 1 0.16500 119244.000000
6342 15387 1 0.16500 119244.000000
6343 13278 1 0.16500 119244.000000
6343 15716 1 0.16500 119244.000000
6344 15716 1 0.16500 119244.000000
6344 15805 1 0.16500 119244.000000
6345 13278 1 0.16500 119244.000000
6345 16358 1 0.16500 119244.000000
6346 13279 1 0.16500 119244.000000
6346 13601 1 0.16500 119244.000000
6347 13279 1 0.16500 119244.000000
6347 15436 1 0.16500 119244.000000
6348 13279 1 0.16500 119244.000000
6348 16611 1 0.16500 119244.000000
6349 13279 1 0.16500 119244.000000
6349 13446 1 0.16500 119244.000000
6350 19846 1 0.16500 119244.000000
6350 20347 1 0.16500 119244.000000
6351 16549 1 0.16500 119244.000000
6351 19846 1 0.16500 119244.000000
6352 13280 1 0.16500 119244.000000
6352 16501 1 0.16500 119244.000000
6353 13280 1 0.16500 119244.000000
6353 16313 1 0.16500 119244.000000
6354 13281 1 0.16500 119244.000000
6354 13450 1 0.16500 119244.000000
6355 13281 1 0.16500 119244.000000
6355 16678 1 0.16500 119244.000000
6356 12880 1 0.16500 119244.000000
6356 15785 1 0.16500 119244.000000
6357 13282 1 0.16500 119244.000000
6357 14338 1 0.16500 119244.000000
6358 13283 1 0.16500 119244.000000
6358 14009 1 0.16500 119244.000000
6359 13283 1 0.16500 119244.000000
6359 15290 1 0.16500 119244.000000
6360 13284 1 0.16500 119244.000000
6360 15805 1 0.16500 119244.000000
6361 14070 1 0.16500 119244.000000
6361 15605 1 0.16500 119244.000000
6362 13284 1 0.16500 119244.000000
6362 15076 1 0.16500 119244.000000
6363 13284 1 0.16500 119244.000000
6363 14070 1 0.16500 119244.000000
6364 13285 1 0.16500 119244.000000
6364 20104 1 0.16500 119244.000000
6365 13285 1 0.16500 119244.000000
6365 14449 1 0.16500 119244.000000
6366 13285 1 0.16500 119244.000000
6366 20644 1 0.16500 119244.000000
6367 13285 1 0.16500 119244.000000
6367 14804 1 0.16500 119244.000000
6368 13286 1 0.16500 119244.000000
6368 13490 1 0.16500 119244.000000
6369 12747 1 0.16500 119244.000000
6369 13286 1 0.16500 119244.000000
6370 13286 1 0.16500 119244.000000
6370 14193 1 0.16500 119244.000000
6371 13287 1 0.16500 119244.000000
6371 15271 1 0.16500 119244.000000
6372 13287 1 0.16500 119244.000000
6372 14706 1 0.16500 119244.000000
6373 13287 1 0.16500 119244.000000
6373 15476 1 0.16500 119244.000000
6374 13288 1 0.16500 119244.000000
6374 16494 1 0.16500 119244.000000
6375 13288 1 0.16500 119244.000000
6375 15595 1 0.16500 119244.000000
6376 13289 1 0.16500 119244.000000
6376 15087 1 0.16500 119244.000000
6377 13289 1 0.16500 119244.000000
6377 15304 1 0.16500 119244.000000
6378 13290 1 0.16500 119244.000000
6378 16075 1 0.16500 119244.000000
6379 13290 1 0.16500 119244.000000
6379 20092 1 0.16500 119244.000000
6380 13290 1 0.16500 119244.000000
6380 20347 1 0.16500 119244.000000
6381 13291 1 0.16500 119244.000000
6381 16337 1 0.16500 119244.000000
6382 13292 1 0.16500 119244.000000
6382 15411 1 0.16500 119244.000000
6383 19858 1 0.16500 119244.000000
6383 19969 1 0.16500 119244.000000
6384 14615 1 0.16500 119244.000000
6384 19858 1 0.16500 119244.000000
6385 14200 1 0.16500 119244.000000
6385 19870 1 0.16500 119244.000000
6386 19870 1 0.16500 119244.000000
6386 20776 1 0.16500 119244.000000
6387 13293 1 0.16500 119244.000000
6387 13960 1 0.16500 119244.000000
6388 13293 1 0.16500 119244.000000
6388 14446 1 0.16500 119244.000000
6389 13293 1 0.16500 119244.000000
6389 14845 1 0.16500 119244.000000
6390 13293 1 0.16500 119244.000000
6390 16036 1 0.16500 119244.000000
6391 13294 1 0.16500 119244.000000
6391 15864 1 0.16500 119244.000000
6392 13294 1 0.16500 119244.000000
6392 13299 1 0.16500 119244.000000
6393 13294 1 0.16500 119244.000000
6393 16401 1 0.16500 119244.000000
6394 13294 1 0.16500 119244.000000
6394 16524 1 0.16500 119244.000000
6395 13557 1 0.16500 119244.000000
6395 19882 1 0.16500 119244.000000
6396 19882 1 0.16500 119244.000000
6396 20623 1 0.16500 119244.000000
6397 14563 1 0.16500 119244.000000
6397 19882 1 0.16500 119244.000000
6398 13295 1 0.16500 119244.000000
6398 13433 1 0.16500 119244.000000
6399 13295 1 0.16500 119244.000000
6399 15828 1 0.16500 119244.000000
6400 13433 1 0.16500 119244.000000
6400 14956 1 0.16500 119244.000000
6401 15035 1 0.16500 119244.000000
6401 16293 1 0.16500 119244.000000
6402 13296 1 0.16500 119244.000000
6402 13923 1 0.16500 119244.000000
6403 13296 1 0.16500 119244.000000
6403 15006 1 0.16500 119244.000000
6404 13297 1 0.16500 119244.000000
6404 16549 1 0.16500 119244.000000
6405 13297 1 0.16500 119244.000000
6405 15252 1 0.16500 119244.000000
6406 13297 1 0.16500 119244.000000
6406 13311 1 0.16500 119244.000000
6407 13298 1 0.16500 119244.000000
6407 13706 1 0.16500 119244.000000
6408 13298 1 0.16500 119244.000000
6408 16098 1 0.16500 119244.000000
6409 13299 1 0.16500 119244.000000
6409 15015 1 0.16500 119244.000000
6410 13300 1 0.16500 119244.000000
6410 13716 1 0.16500 119244.000000
6411 13300 1 0.16500 119244.000000
6411 15892 1 0.16500 119244.000000
6412 14714 1 0.16500 119244.000000
6412 15888 1 0.16500 119244.000000
6413 14691 1 0.16500 119244.000000
6413 15888 1 0.16500 119244.000000
6414 13301 1 0.16500 119244.000000
6414 15888 1 0.16500 119244.000000
6415 13302 1 0.16500 119244.000000
6415 15046 1 0.16500 119244.000000
6416 13303 1 0.16500 119244.000000
6416 16286 1 0.16500 119244.000000
6417 15873 1 0.16500 119244.000000
6417 17722 1 0.16500 119244.000000
6418 13303 1 0.16500 119244.000000
6418 15873 1 0.16500 119244.000000
6419 13304 1 0.16500 119244.000000
6419 13611 1 0.16500 119244.000000
6420 13304 1 0.16500 119244.000000
6420 16215 1 0.16500 119244.000000
6421 13305 1 0.16500 119244.000000
6421 14457 1 0.16500 119244.000000
6422 13305 1 0.16500 119244.000000
6422 15664 1 0.16500 119244.000000
6423 13306 1 0.16500 119244.000000
6423 13447 1 0.16500 119244.000000
6424 13307 1 0.16500 119244.000000
6424 14197 1 0.16500 119244.000000
6425 13307 1 0.16500 119244.000000
6425 16135 1 0.16500 119244.000000
6426 13307 1 0.16500 119244.000000
6426 14357 1 0.16500 119244.000000
6427 13307 1 0.16500 119244.000000
6427 20029 1 0.16500 119244.000000
6428 13308 1 0.16500 119244.000000
6428 15840 1 0.16500 119244.000000
6429 13308 1 0.16500 119244.000000
6429 14580 1 0.16500 119244.000000
6430 13309 1 0.16500 119244.000000
6430 15560 1 0.16500 119244.000000
6431 13309 1 0.16500 119244.000000
6431 13721 1 0.16500 119244.000000
6432 13310 1 0.16500 119244.000000
6432 16122 1 0.16500 119244.000000
6433 13310 1 0.16500 119244.000000
6433 13736 1 0.16500 119244.000000
6434 13311 1 0.16500 119244.000000
6434 14934 1 0.16500 119244.000000
6435 13311 1 0.16500 119244.000000
6435 15370 1 0.16500 119244.000000
6436 13311 1 0.16500 119244.000000
6436 15222 1 0.16500 119244.000000
6437 15370 1 0.16500 119244.000000
6437 16431 1 0.16500 119244.000000
6438 13312 1 0.16500 119244.000000
6438 14060 1 0.16500 119244.000000
6439 13312 1 0.16500 119244.000000
6439 14335 1 0.16500 119244.000000
6440 13313 1 0.16500 119244.000000
6440 17512 1 0.16500 119244.000000
6441 13313 1 0.16500 119244.000000
6441 15958 1 0.16500 119244.000000
6442 13313 1 0.16500 119244.000000
6442 15614 1 0.16500 119244.000000
6443 13314 1 0.16500 119244.000000
6443 13820 1 0.16500 119244.000000
6444 13314 1 0.16500 119244.000000
6444 13600 1 0.16500 119244.000000
6445 13314 1 0.16500 119244.000000
6445 13677 1 0.16500 119244.000000
6446 13314 1 0.16500 119244.000000
6446 13990 1 0.16500 119244.000000
6447 13315 1 0.16500 119244.000000
6447 13728 1 0.16500 119244.000000
6448 13315 1 0.16500 119244.000000
6448 20173 1 0.16500 119244.000000
6449 13315 1 0.16500 119244.000000
6449 14075 1 0.16500 119244.000000
6450 13316 1 0.16500 119244.000000
6450 13733 1 0.16500 119244.000000
6451 13316 1 0.16500 119244.000000
6451 14953 1 0.16500 119244.000000
6452 13316 1 0.16500 119244.000000
6452 20632 1 0.16500 119244.000000
6453 13317 1 0.16500 119244.000000
6453 14624 1 0.16500 119244.000000
6454 13317 1 0.16500 119244.000000
6454 15606 1 0.16500 119244.000000
6455 13317 1 0.16500 119244.000000
6455 15829 1 0.16500 119244.000000
6456 13318 1 0.16500 119244.000000
6456 13969 1 0.16500 119244.000000
6457 13318 1 0.16500 119244.000000
6457 13393 1 0.16500 119244.000000
6458 13318 1 0.16500 119244.000000
6458 14301 1 0.16500 119244.000000
6459 13318 1 0.16500 119244.000000
6459 16016 1 0.16500 119244.000000
6460 13319 1 0.16500 119244.000000
6460 14573 1 0.16500 119244.000000
6461 13319 1 0.16500 119244.000000
6461 13922 1 0.16500 119244.000000
6462 13319 1 0.16500 119244.000000
6462 14208 1 0.16500 119244.000000
6463 13319 1 0.16500 119244.000000
6463 15346 1 0.16500 119244.000000
6464 13320 1 0.16500 119244.000000
6464 14601 1 0.16500 119244.000000
6465 13320 1 0.16500 119244.000000
6465 15406 1 0.16500 119244.000000
6466 13320 1 0.16500 119244.000000
6466 15898 1 0.16500 119244.000000
6467 13321 1 0.16500 119244.000000
6467 15451 1 0.16500 119244.000000
6468 12550 1 0.16500 119244.000000
6468 14074 1 0.16500 119244.000000
6469 13322 1 0.16500 119244.000000
6469 13958 1 0.16500 119244.000000
6470 12550 1 0.16500 119244.000000
6470 14824 1 0.16500 119244.000000
6471 13323 1 0.16500 119244.000000
6471 14121 1 0.16500 119244.000000
6472 13323 1 0.16500 119244.000000
6472 14639 1 0.16500 119244.000000
6473 13324 1 0.16500 119244.000000
6473 15754 1 0.16500 119244.000000
6474 13324 1 0.16500 119244.000000
6474 15412 1 0.16500 119244.000000
6475 13324 1 0.16500 119244.000000
6475 15842 1 0.16500 119244.000000
6476 13325 1 0.16500 119244.000000
6476 13493 1 0.16500 119244.000000
6477 13325 1 0.16500 119244.000000
6477 14975 1 0.16500 119244.000000
6478 13325 1 0.16500 119244.000000
6478 15610 1 0.16500 119244.000000
6479 12909 1 0.16500 119244.000000
6479 13326 1 0.16500 119244.000000
6480 13327 1 0.16500 119244.000000
6480 15932 1 0.16500 119244.000000
6481 13327 1 0.16500 119244.000000
6481 14047 1 0.16500 119244.000000
6482 13327 1 0.16500 119244.000000
6482 15156 1 0.16500 119244.000000
6483 13328 1 0.16500 119244.000000
6483 15000 1 0.16500 119244.000000
6484 13328 1 0.16500 119244.000000
6484 15630 1 0.16500 119244.000000
6485 13328 1 0.16500 119244.000000
6485 14444 1 0.16500 119244.000000
6486 19906 1 0.16500 119244.000000
6486 20071 1 0.16500 119244.000000
6487 14478 1 0.16500 119244.000000
6487 19906 1 0.16500 119244.000000
6488 14418 1 0.16500 119244.000000
6488 14478 1 0.16500 119244.000000
6489 13329 1 0.16500 119244.000000
6489 14814 1 0.16500 119244.000000
6490 13330 1 0.16500 119244.000000
6490 14099 1 0.16500 119244.000000
6491 13330 1 0.16500 119244.000000
6491 15513 1 0.16500 119244.000000
6492 12342 1 0.16500 119244.000000
6492 17400 1 0.16500 119244.000000
6493 13331 1 0.16500 119244.000000
6493 14572 1 0.16500 119244.000000
6494 13331 1 0.16500 119244.000000
6494 16208 1 0.16500 119244.000000
6495 13331 1 0.16500 119244.000000
6495 15684 1 0.16500 119244.000000
6496 12129 1 0.16500 119244.000000
6496 13331 1 0.16500 119244.000000
6497 13332 1 0.16500 119244.000000
6497 14037 1 0.16500 119244.000000
6498 13332 1 0.16500 119244.000000
6498 14923 1 0.16500 119244.000000
6499 13332 1 0.16500 119244.000000
6499 14471 1 0.16500 119244.000000
6500 13332 1 0.16500 119244.000000
6500 20845 1 0.16500 119244.000000
6501 13333 1 0.16500 119244.000000
6501 14957 1 0.16500 119244.000000
6502 13333 1 0.16500 119244.000000
6502 13457 1 0.16500 119244.000000
6503 13334 1 0.16500 119244.000000
6503 14324 1 0.16500 119244.000000
6504 13334 1 0.16500 119244.000000
6504 16084 1 0.16500 119244.000000
6505 13335 1 0.16500 119244.000000
6505 16376 1 0.16500 119244.000000
6506 13335 1 0.16500 119244.000000
6506 13655 1 0.16500 119244.000000
6507 13336 1 0.16500 119244.000000
6507 15795 1 0.16500 119244.000000
6508 13337 1 0.16500 119244.000000
6508 15183 1 0.16500 119244.000000
6509 13337 1 0.16500 119244.000000
6509 15151 1 0.16500 119244.000000
6510 13337 1 0.16500 119244.000000
6510 13592 1 0.16500 119244.000000
6511 13337 1 0.16500 119244.000000
6511 14753 1 0.16500 119244.000000
6512 13338 1 0.16500 119244.000000
6512 16453 1 0.16500 119244.000000
6513 13339 1 0.16500 119244.000000
6513 15739 1 0.16500 119244.000000
6514 13339 1 0.16500 119244.000000
6514 15083 1 0.16500 119244.000000
6515 13340 1 0.16500 119244.000000
6515 20131 1 0.16500 119244.000000
6516 13340 1 0.16500 119244.000000
6516 15711 1 0.16500 119244.000000
6517 13341 1 0.16500 119244.000000
6517 15787 1 0.16500 119244.000000
6518 13341 1 0.16500 119244.000000
6518 13620 1 0.16500 119244.000000
6519 15787 1 0.16500 119244.000000
6519 20443 1 0.16500 119244.000000
6520 13342 1 0.16500 119244.000000
6520 16308 1 0.16500 119244.000000
6521 13342 1 0.16500 119244.000000
6521 14317 1 0.16500 119244.000000
6522 13343 1 0.16500 119244.000000
6522 13422 1 0.16500 119244.000000
6523 13343 1 0.16500 119244.000000
6523 15432 1 0.16500 119244.000000
6524 13343 1 0.16500 119244.000000
6524 14120 1 0.16500 119244.000000
6525 13344 1 0.16500 119244.000000
6525 16371 1 0.16500 119244.000000
6526 14123 1 0.16500 119244.000000
6526 19930 1 0.16500 119244.000000
6527 13345 1 0.16500 119244.000000
6527 13516 1 0.16500 119244.000000
6528 13345 1 0.16500 119244.000000
6528 14260 1 0.16500 119244.000000
6529 13345 1 0.16500 119244.000000
6529 16571 1 0.16500 119244.000000
6530 13346 1 0.16500 119244.000000
6530 16501 1 0.16500 119244.000000
6531 13346 1 0.16500 119244.000000
6531 16072 1 0.16500 119244.000000
6532 13347 1 0.16500 119244.000000
6532 14102 1 0.16500 119244.000000
6533 13347 1 0.16500 119244.000000
6533 14809 1 0.16500 119244.000000
6534 13347 1 0.16500 119244.000000
6534 13617 1 0.16500 119244.000000
6535 13347 1 0.16500 119244.000000
6535 13390 1 0.16500 119244.000000
6536 13348 1 0.16500 119244.000000
6536 14250 1 0.16500 119244.000000
6537 13348 1 0.16500 119244.000000
6537 13879 1 0.16500 119244.000000
6538 13349 1 0.16500 119244.000000
6538 20851 1 0.16500 119244.000000
6539 13349 1 0.16500 119244.000000
6539 14621 1 0.16500 119244.000000
6540 13351 1 0.16500 119244.000000
6540 15520 1 0.16500 119244.000000
6541 13351 1 0.16500 119244.000000
6541 15675 1 0.16500 119244.000000
6542 13351 1 0.16500 119244.000000
6542 14593 1 0.16500 119244.000000
6543 13351 1 0.16500 119244.000000
6543 16471 1 0.16500 119244.000000
6544 13352 1 0.16500 119244.000000
6544 13477 1 0.16500 119244.000000
6545 13352 1 0.16500 119244.000000
6545 14069 1 0.16500 119244.000000
6546 14069 1 0.16500 119244.000000
6546 14595 1 0.16500 119244.000000
6547 11698 1 0.16500 119244.000000
6547 13884 1 0.16500 119244.000000
6548 11698 1 0.16500 119244.000000
6548 15775 1 0.16500 119244.000000
6549 11698 1 0.16500 119244.000000
6549 15736 1 0.16500 119244.000000
6550 13354 1 0.16500 119244.000000
6550 14303 1 0.16500 119244.000000
6551 13354 1 0.16500 119244.000000
6551 13856 1 0.16500 119244.000000
6552 13856 1 0.16500 119244.000000
6552 15977 1 0.16500 119244.000000
6553 13355 1 0.16500 119244.000000
6553 13696 1 0.16500 119244.000000
6554 13355 1 0.16500 119244.000000
6554 15363 1 0.16500 119244.000000
6555 11590 1 0.16500 119244.000000
6555 13356 1 0.16500 119244.000000
6556 16049 1 0.16500 119244.000000
6556 19942 1 0.16500 119244.000000
6557 19942 1 0.16500 119244.000000
6557 19963 1 0.16500 119244.000000
6558 19945 1 0.16500 119244.000000
6558 20380 1 0.16500 119244.000000
6559 13357 1 0.16500 119244.000000
6559 16406 1 0.16500 119244.000000
6560 13357 1 0.16500 119244.000000
6560 19957 1 0.16500 119244.000000
6561 13357 1 0.16500 119244.000000
6561 14521 1 0.16500 119244.000000
6562 13357 1 0.16500 119244.000000
6562 16597 1 0.16500 119244.000000
6563 13358 1 0.16500 119244.000000
6563 15161 1 0.16500 119244.000000
6564 13358 1 0.16500 119244.000000
6564 16086 1 0.16500 119244.000000
6565 13358 1 0.16500 119244.000000
6565 15061 1 0.16500 119244.000000
6566 13359 1 0.16500 119244.000000
6566 16107 1 0.16500 119244.000000
6567 13359 1 0.16500 119244.000000
6567 20821 1 0.16500 119244.000000
6568 13359 1 0.16500 119244.000000
6568 20293 1 0.16500 119244.000000
6569 19948 1 0.16500 119244.000000
6569 20464 1 0.16500 119244.000000
6570 16197 1 0.16500 119244.000000
6570 19948 1 0.16500 119244.000000
6571 13360 1 0.16500 119244.000000
6571 16280 1 0.16500 119244.000000
6572 19951 1 0.16500 119244.000000
6572 20473 1 0.16500 119244.000000
6573 15402 1 0.16500 119244.000000
6573 19951 1 0.16500 119244.000000
6574 20089 1 0.16500 119244.000000
6574 20473 1 0.16500 119244.000000
6575 13361 1 0.16500 119244.000000
6575 16446 1 0.16500 119244.000000
6576 13361 1 0.16500 119244.000000
6576 15224 1 0.16500 119244.000000
6577 13361 1 0.16500 119244.000000
6577 15417 1 0.16500 119244.000000
6578 13362 1 0.16500 119244.000000
6578 16460 1 0.16500 119244.000000
6579 13362 1 0.16500 119244.000000
6579 15274 1 0.16500 119244.000000
6580 13362 1 0.16500 119244.000000
6580 13811 1 0.16500 119244.000000
6581 15917 1 0.16500 119244.000000
6581 19954 1 0.16500 119244.000000
6582 13363 1 0.16500 119244.000000
6582 15253 1 0.16500 119244.000000
6583 13363 1 0.16500 119244.000000
6583 13853 1 0.16500 119244.000000
6584 13363 1 0.16500 119244.000000
6584 16007 1 0.16500 119244.000000
6585 13363 1 0.16500 119244.000000
6585 15035 1 0.16500 119244.000000
6586 13364 1 0.16500 119244.000000
6586 15248 1 0.16500 119244.000000
6587 15248 1 0.16500 119244.000000
6587 15977 1 0.16500 119244.000000
6588 14095 1 0.16500 119244.000000
6588 14940 1 0.16500 119244.000000
6589 13365 1 0.16500 119244.000000
6589 14940 1 0.16500 119244.000000
6590 13365 1 0.16500 119244.000000
6590 14853 1 0.16500 119244.000000
6591 13365 1 0.16500 119244.000000
6591 13993 1 0.16500 119244.000000
6592 13366 1 0.16500 119244.000000
6592 13847 1 0.16500 119244.000000
6593 13366 1 0.16500 119244.000000
6593 13414 1 0.16500 119244.000000
6594 13367 1 0.16500 119244.000000
6594 15696 1 0.16500 119244.000000
6595 13367 1 0.16500 119244.000000
6595 15757 1 0.16500 119244.000000
6596 13367 1 0.16500 119244.000000
6596 15538 1 0.16500 119244.000000
6597 13368 1 0.16500 119244.000000
6597 16005 1 0.16500 119244.000000
6598 13368 1 0.16500 119244.000000
6598 14727 1 0.16500 119244.000000
6599 13368 1 0.16500 119244.000000
6599 14006 1 0.16500 119244.000000
6600 14262 1 0.16500 119244.000000
6600 19957 1 0.16500 119244.000000
6601 19957 1 0.16500 119244.000000
6601 20431 1 0.16500 119244.000000
6602 13369 1 0.16500 119244.000000
6602 15030 1 0.16500 119244.000000
6603 13369 1 0.16500 119244.000000
6603 15600 1 0.16500 119244.000000
6604 13369 1 0.16500 119244.000000
6604 14917 1 0.16500 119244.000000
6605 13369 1 0.16500 119244.000000
6605 15811 1 0.16500 119244.000000
6606 13370 1 0.16500 119244.000000
6606 14554 1 0.16500 119244.000000
6607 13370 1 0.16500 119244.000000
6607 14877 1 0.16500 119244.000000
6608 13371 1 0.16500 119244.000000
6608 14675 1 0.16500 119244.000000
6609 13371 1 0.16500 119244.000000
6609 14392 1 0.16500 119244.000000
6610 13371 1 0.16500 119244.000000
6610 15372 1 0.16500 119244.000000
6611 13371 1 0.16500 119244.000000
6611 13922 1 0.16500 119244.000000
6612 13372 1 0.16500 119244.000000
6612 15465 1 0.16500 119244.000000
6613 13372 1 0.16500 119244.000000
6613 14865 1 0.16500 119244.000000
6614 13372 1 0.16500 119244.000000
6614 15784 1 0.16500 119244.000000
6615 13373 1 0.16500 119244.000000
6615 20428 1 0.16500 119244.000000
6616 13365 1 0.16500 119244.000000
6616 13373 1 0.16500 119244.000000
6617 13373 1 0.16500 119244.000000
6617 16206 1 0.16500 119244.000000
6618 13374 1 0.16500 119244.000000
6618 14951 1 0.16500 119244.000000
6619 13374 1 0.16500 119244.000000
6619 15954 1 0.16500 119244.000000
6620 13375 1 0.16500 119244.000000
6620 14467 1 0.16500 119244.000000
6621 13375 1 0.16500 119244.000000
6621 16258 1 0.16500 119244.000000
6622 13803 1 0.16500 119244.000000
6622 14467 1 0.16500 119244.000000
6623 13376 1 0.16500 119244.000000
6623 15419 1 0.16500 119244.000000
6624 13376 1 0.16500 119244.000000
6624 15084 1 0.16500 119244.000000
6625 13377 1 0.16500 119244.000000
6625 15652 1 0.16500 119244.000000
6626 13377 1 0.16500 119244.000000
6626 15032 1 0.16500 119244.000000
6627 13377 1 0.16500 119244.000000
6627 15783 1 0.16500 119244.000000
6628 13377 1 0.16500 119244.000000
6628 15486 1 0.16500 119244.000000
6629 13378 1 0.16500 119244.000000
6629 15427 1 0.16500 119244.000000
6630 13378 1 0.16500 119244.000000
6630 15009 1 0.16500 119244.000000
6631 13379 1 0.16500 119244.000000
6631 14624 1 0.16500 119244.000000
6632 13379 1 0.16500 119244.000000
6632 15887 1 0.16500 119244.000000
6633 13381 1 0.16500 119244.000000
6633 14430 1 0.16500 119244.000000
6634 13381 1 0.16500 119244.000000
6634 15297 1 0.16500 119244.000000
6635 13381 1 0.16500 119244.000000
6635 14612 1 0.16500 119244.000000
6636 13382 1 0.16500 119244.000000
6636 14344 1 0.16500 119244.000000
6637 13382 1 0.16500 119244.000000
6637 14536 1 0.16500 119244.000000
6638 13382 1 0.16500 119244.000000
6638 20725 1 0.16500 119244.000000
6639 13698 1 0.16500 119244.000000
6639 19960 1 0.16500 119244.000000
6640 13383 1 0.16500 119244.000000
6640 16246 1 0.16500 119244.000000
6641 13383 1 0.16500 119244.000000
6641 14311 1 0.16500 119244.000000
6642 13383 1 0.16500 119244.000000
6642 17442 1 0.16500 119244.000000
6643 13384 1 0.16500 119244.000000
6643 14903 1 0.16500 119244.000000
6644 13385 1 0.16500 119244.000000
6644 16094 1 0.16500 119244.000000
6645 13253 1 0.16500 119244.000000
6645 13385 1 0.16500 119244.000000
6646 13385 1 0.16500 119244.000000
6646 20140 1 0.16500 119244.000000
6647 15136 1 0.16500 119244.000000
6647 19963 1 0.16500 119244.000000
6648 16521 1 0.16500 119244.000000
6648 19966 1 0.16500 119244.000000
6649 14746 1 0.16500 119244.000000
6649 19966 1 0.16500 119244.000000
6650 11503 1 0.16500 119244.000000
6650 19966 1 0.16500 119244.000000
6651 13386 1 0.16500 119244.000000
6651 13775 1 0.16500 119244.000000
6652 13386 1 0.16500 119244.000000
6652 13852 1 0.16500 119244.000000
6653 13386 1 0.16500 119244.000000
6653 15227 1 0.16500 119244.000000
6654 13386 1 0.16500 119244.000000
6654 16033 1 0.16500 119244.000000
6655 13387 1 0.16500 119244.000000
6655 13500 1 0.16500 119244.000000
6656 13387 1 0.16500 119244.000000
6656 13707 1 0.16500 119244.000000
6657 13387 1 0.16500 119244.000000
6657 14040 1 0.16500 119244.000000
6658 14731 1 0.16500 119244.000000
6658 19969 1 0.16500 119244.000000
6659 13388 1 0.16500 119244.000000
6659 16181 1 0.16500 119244.000000
6660 13388 1 0.16500 119244.000000
6660 13631 1 0.16500 119244.000000
6661 13388 1 0.16500 119244.000000
6661 14506 1 0.16500 119244.000000
6662 13389 1 0.16500 119244.000000
6662 13865 1 0.16500 119244.000000
6663 13389 1 0.16500 119244.000000
6663 14857 1 0.16500 119244.000000
6664 13390 1 0.16500 119244.000000
6664 17512 1 0.16500 119244.000000
6665 13390 1 0.16500 119244.000000
6665 14691 1 0.16500 119244.000000
6666 13391 1 0.16500 119244.000000
6666 20194 1 0.16500 119244.000000
6667 13391 1 0.16500 119244.000000
6667 15606 1 0.16500 119244.000000
6668 13392 1 0.16500 119244.000000
6668 13768 1 0.16500 119244.000000
6669 13392 1 0.16500 119244.000000
6669 14718 1 0.16500 119244.000000
6670 13392 1 0.16500 119244.000000
6670 15791 1 0.16500 119244.000000
6671 13393 1 0.16500 119244.000000
6671 14794 1 0.16500 119244.000000
6672 13393 1 0.16500 119244.000000
6672 15061 1 0.16500 119244.000000
6673 13394 1 0.16500 119244.000000
6673 16568 1 0.16500 119244.000000
6674 13394 1 0.16500 119244.000000
6674 15843 1 0.16500 119244.000000
6675 13394 1 0.16500 119244.000000
6675 14715 1 0.16500 119244.000000
6676 13395 1 0.16500 119244.000000
6676 13519 1 0.16500 119244.000000
6677 13395 1 0.16500 119244.000000
6677 16677 1 0.16500 119244.000000
6678 13395 1 0.16500 119244.000000
6678 13547 1 0.16500 119244.000000
6679 13396 1 0.16500 119244.000000
6679 16013 1 0.16500 119244.000000
6680 13396 1 0.16500 119244.000000
6680 16127 1 0.16500 119244.000000
6681 13396 1 0.16500 119244.000000
6681 15686 1 0.16500 119244.000000
6682 13396 1 0.16500 119244.000000
6682 15120 1 0.16500 119244.000000
6683 13397 1 0.16500 119244.000000
6683 13956 1 0.16500 119244.000000
6684 13398 1 0.16500 119244.000000
6684 15872 1 0.16500 119244.000000
6685 13399 1 0.16500 119244.000000
6685 15652 1 0.16500 119244.000000
6686 13399 1 0.16500 119244.000000
6686 14359 1 0.16500 119244.000000
6687 13400 1 0.16500 119244.000000
6687 13715 1 0.16500 119244.000000
6688 13401 1 0.16500 119244.000000
6688 16582 1 0.16500 119244.000000
6689 13401 1 0.16500 119244.000000
6689 14515 1 0.16500 119244.000000
6690 13401 1 0.16500 119244.000000
6690 15053 1 0.16500 119244.000000
6691 13402 1 0.16500 119244.000000
6691 13523 1 0.16500 119244.000000
6692 13402 1 0.16500 119244.000000
6692 15572 1 0.16500 119244.000000
6693 13402 1 0.16500 119244.000000
6693 16448 1 0.16500 119244.000000
6694 13402 1 0.16500 119244.000000
6694 14920 1 0.16500 119244.000000
6695 13403 1 0.16500 119244.000000
6695 20254 1 0.16500 119244.000000
6696 13403 1 0.16500 119244.000000
6696 13813 1 0.16500 119244.000000
6697 13403 1 0.16500 119244.000000
6697 13489 1 0.16500 119244.000000
6698 13403 1 0.16500 119244.000000
6698 20836 1 0.16500 119244.000000
6699 13404 1 0.16500 119244.000000
6699 15126 1 0.16500 119244.000000
6700 13404 1 0.16500 119244.000000
6700 15782 1 0.16500 119244.000000
6701 13404 1 0.16500 119244.000000
6701 14304 1 0.16500 119244.000000
6702 13404 1 0.16500 119244.000000
6702 13982 1 0.16500 119244.000000
6703 13405 1 0.16500 119244.000000
6703 14636 1 0.16500 119244.000000
6704 14636 1 0.16500 119244.000000
6704 16595 1 0.16500 119244.000000
6705 13406 1 0.16500 119244.000000
6705 15674 1 0.16500 119244.000000
6706 13406 1 0.16500 119244.000000
6706 13710 1 0.16500 119244.000000
6707 13407 1 0.16500 119244.000000
6707 14198 1 0.16500 119244.000000
6708 13407 1 0.16500 119244.000000
6708 14476 1 0.16500 119244.000000
6709 13408 1 0.16500 119244.000000
6709 14294 1 0.16500 119244.000000
6710 13408 1 0.16500 119244.000000
6710 15575 1 0.16500 119244.000000
6711 13409 1 0.16500 119244.000000
6711 16031 1 0.16500 119244.000000
6712 13410 1 0.16500 119244.000000
6712 15500 1 0.16500 119244.000000
6713 13410 1 0.16500 119244.000000
6713 14685 1 0.16500 119244.000000
6714 13410 1 0.16500 119244.000000
6714 16688 1 0.16500 119244.000000
6715 12856 1 0.16500 119244.000000
6715 13410 1 0.16500 119244.000000
6716 13411 1 0.16500 119244.000000
6716 13758 1 0.16500 119244.000000
6717 13412 1 0.16500 119244.000000
6717 14829 1 0.16500 119244.000000
6718 13412 1 0.16500 119244.000000
6718 16123 1 0.16500 119244.000000
6719 13412 1 0.16500 119244.000000
6719 14325 1 0.16500 119244.000000
6720 13412 1 0.16500 119244.000000
6720 14032 1 0.16500 119244.000000
6721 13413 1 0.16500 119244.000000
6721 20218 1 0.16500 119244.000000
6722 13413 1 0.16500 119244.000000
6722 16104 1 0.16500 119244.000000
6723 13413 1 0.16500 119244.000000
6723 14153 1 0.16500 119244.000000
6724 13414 1 0.16500 119244.000000
6724 16035 1 0.16500 119244.000000
6725 13415 1 0.16500 119244.000000
6725 14577 1 0.16500 119244.000000
6726 14673 1 0.16500 119244.000000
6726 19972 1 0.16500 119244.000000
6727 13416 1 0.16500 119244.000000
6727 15204 1 0.16500 119244.000000
6728 13416 1 0.16500 119244.000000
6728 15407 1 0.16500 119244.000000
6729 13417 1 0.16500 119244.000000
6729 15729 1 0.16500 119244.000000
6730 13417 1 0.16500 119244.000000
6730 15142 1 0.16500 119244.000000
6731 13417 1 0.16500 119244.000000
6731 16518 1 0.16500 119244.000000
6732 13418 1 0.16500 119244.000000
6732 13529 1 0.16500 119244.000000
6733 13418 1 0.16500 119244.000000
6733 15752 1 0.16500 119244.000000
6734 20410 1 0.16500 119244.000000
6734 20743 1 0.16500 119244.000000
6735 16647 1 0.16500 119244.000000
6735 20743 1 0.16500 119244.000000
6736 13419 1 0.16500 119244.000000
6736 14690 1 0.16500 119244.000000
6737 11940 1 0.16500 119244.000000
6737 16924 1 0.16500 119244.000000
6738 13420 1 0.16500 119244.000000
6738 15528 1 0.16500 119244.000000
6739 13420 1 0.16500 119244.000000
6739 14261 1 0.16500 119244.000000
6740 13420 1 0.16500 119244.000000
6740 15141 1 0.16500 119244.000000
6741 17358 1 0.16500 119244.000000
6741 19975 1 0.16500 119244.000000
6742 14075 1 0.16500 119244.000000
6742 19975 1 0.16500 119244.000000
6743 13421 1 0.16500 119244.000000
6743 14899 1 0.16500 119244.000000
6744 13421 1 0.16500 119244.000000
6744 15842 1 0.16500 119244.000000
6745 13421 1 0.16500 119244.000000
6745 15801 1 0.16500 119244.000000
6746 13422 1 0.16500 119244.000000
6746 15042 1 0.16500 119244.000000
6747 13422 1 0.16500 119244.000000
6747 13615 1 0.16500 119244.000000
6748 13423 1 0.16500 119244.000000
6748 16395 1 0.16500 119244.000000
6749 13423 1 0.16500 119244.000000
6749 13583 1 0.16500 119244.000000
6750 13423 1 0.16500 119244.000000
6750 13898 1 0.16500 119244.000000
6751 13423 1 0.16500 119244.000000
6751 16575 1 0.16500 119244.000000
6752 13424 1 0.16500 119244.000000
6752 16682 1 0.16500 119244.000000
6753 13424 1 0.16500 119244.000000
6753 13858 1 0.16500 119244.000000
6754 13424 1 0.16500 119244.000000
6754 13669 1 0.16500 119244.000000
6755 13424 1 0.16500 119244.000000
6755 13784 1 0.16500 119244.000000
6756 13425 1 0.16500 119244.000000
6756 14782 1 0.16500 119244.000000
6757 13425 1 0.16500 119244.000000
6757 14621 1 0.16500 119244.000000
6758 13426 1 0.16500 119244.000000
6758 15455 1 0.16500 119244.000000
6759 13427 1 0.16500 119244.000000
6759 14226 1 0.16500 119244.000000
6760 13427 1 0.16500 119244.000000
6760 15926 1 0.16500 119244.000000
6761 13427 1 0.16500 119244.000000
6761 13763 1 0.16500 119244.000000
6762 13666 1 0.16500 119244.000000
6762 15549 1 0.16500 119244.000000
6763 15531 1 0.16500 119244.000000
6763 15549 1 0.16500 119244.000000
6764 13428 1 0.16500 119244.000000
6764 16644 1 0.16500 119244.000000
6765 13706 1 0.16500 119244.000000
6765 15378 1 0.16500 119244.000000
6766 13429 1 0.16500 119244.000000
6766 16333 1 0.16500 119244.000000
6767 13429 1 0.16500 119244.000000
6767 15378 1 0.16500 119244.000000
6768 12429 1 0.16500 119244.000000
6768 13430 1 0.16500 119244.000000
6769 13430 1 0.16500 119244.000000
6769 14198 1 0.16500 119244.000000
6770 13430 1 0.16500 119244.000000
6770 14544 1 0.16500 119244.000000
6771 13431 1 0.16500 119244.000000
6771 15463 1 0.16500 119244.000000
6772 13431 1 0.16500 119244.000000
6772 15852 1 0.16500 119244.000000
6773 13431 1 0.16500 119244.000000
6773 15531 1 0.16500 119244.000000
6774 13432 1 0.16500 119244.000000
6774 14458 1 0.16500 119244.000000
6775 13432 1 0.16500 119244.000000
6775 16395 1 0.16500 119244.000000
6776 13432 1 0.16500 119244.000000
6776 16458 1 0.16500 119244.000000
6777 13433 1 0.16500 119244.000000
6777 14538 1 0.16500 119244.000000
6778 13295 1 0.16500 119244.000000
6778 16522 1 0.16500 119244.000000
6779 13433 1 0.16500 119244.000000
6779 14632 1 0.16500 119244.000000
6780 14327 1 0.16500 119244.000000
6780 15868 1 0.16500 119244.000000
6781 13434 1 0.16500 119244.000000
6781 14327 1 0.16500 119244.000000
6782 13434 1 0.16500 119244.000000
6782 16372 1 0.16500 119244.000000
6783 13435 1 0.16500 119244.000000
6783 15941 1 0.16500 119244.000000
6784 13435 1 0.16500 119244.000000
6784 15962 1 0.16500 119244.000000
6785 12143 1 0.16500 119244.000000
6785 15735 1 0.16500 119244.000000
6786 13436 1 0.16500 119244.000000
6786 14914 1 0.16500 119244.000000
6787 15735 1 0.16500 119244.000000
6787 16696 1 0.16500 119244.000000
6788 13437 1 0.16500 119244.000000
6788 13904 1 0.16500 119244.000000
6789 13437 1 0.16500 119244.000000
6789 13839 1 0.16500 119244.000000
6790 13437 1 0.16500 119244.000000
6790 14758 1 0.16500 119244.000000
6791 13438 1 0.16500 119244.000000
6791 13681 1 0.16500 119244.000000
6792 13438 1 0.16500 119244.000000
6792 15263 1 0.16500 119244.000000
6793 13438 1 0.16500 119244.000000
6793 14454 1 0.16500 119244.000000
6794 12457 1 0.16500 119244.000000
6794 14885 1 0.16500 119244.000000
6795 13439 1 0.16500 119244.000000
6795 15873 1 0.16500 119244.000000
6796 13440 1 0.16500 119244.000000
6796 16565 1 0.16500 119244.000000
6797 13440 1 0.16500 119244.000000
6797 14540 1 0.16500 119244.000000
6798 13441 1 0.16500 119244.000000
6798 14937 1 0.16500 119244.000000
6799 13441 1 0.16500 119244.000000
6799 16112 1 0.16500 119244.000000
6800 13441 1 0.16500 119244.000000
6800 13930 1 0.16500 119244.000000
6801 13442 1 0.16500 119244.000000
6801 16383 1 0.16500 119244.000000
6802 13442 1 0.16500 119244.000000
6802 13461 1 0.16500 119244.000000
6803 13442 1 0.16500 119244.000000
6803 15994 1 0.16500 119244.000000
6804 13443 1 0.16500 119244.000000
6804 16538 1 0.16500 119244.000000
6805 13443 1 0.16500 119244.000000
6805 16402 1 0.16500 119244.000000
6806 13443 1 0.16500 119244.000000
6806 15637 1 0.16500 119244.000000
6807 13444 1 0.16500 119244.000000
6807 15766 1 0.16500 119244.000000
6808 13444 1 0.16500 119244.000000
6808 14002 1 0.16500 119244.000000
6809 13444 1 0.16500 119244.000000
6809 16645 1 0.16500 119244.000000
6810 12955 1 0.16500 119244.000000
6810 13562 1 0.16500 119244.000000
6811 13446 1 0.16500 119244.000000
6811 16428 1 0.16500 119244.000000
6812 13447 1 0.16500 119244.000000
6812 15992 1 0.16500 119244.000000
6813 13448 1 0.16500 119244.000000
6813 14633 1 0.16500 119244.000000
6814 13448 1 0.16500 119244.000000
6814 15285 1 0.16500 119244.000000
6815 12828 1 0.16500 119244.000000
6815 13449 1 0.16500 119244.000000
6816 13449 1 0.16500 119244.000000
6816 15662 1 0.16500 119244.000000
6817 13450 1 0.16500 119244.000000
6817 15220 1 0.16500 119244.000000
6818 13450 1 0.16500 119244.000000
6818 15604 1 0.16500 119244.000000
6819 13451 1 0.16500 119244.000000
6819 15026 1 0.16500 119244.000000
6820 13111 1 0.16500 119244.000000
6820 13451 1 0.16500 119244.000000
6821 13451 1 0.16500 119244.000000
6821 16362 1 0.16500 119244.000000
6822 13354 1 0.16500 119244.000000
6822 13451 1 0.16500 119244.000000
6823 13452 1 0.16500 119244.000000
6823 16398 1 0.16500 119244.000000
6824 13452 1 0.16500 119244.000000
6824 16253 1 0.16500 119244.000000
6825 13454 1 0.16500 119244.000000
6825 14731 1 0.16500 119244.000000
6826 13454 1 0.16500 119244.000000
6826 15790 1 0.16500 119244.000000
6827 13454 1 0.16500 119244.000000
6827 20206 1 0.16500 119244.000000
6828 13455 1 0.16500 119244.000000
6828 16070 1 0.16500 119244.000000
6829 13455 1 0.16500 119244.000000
6829 16573 1 0.16500 119244.000000
6830 13455 1 0.16500 119244.000000
6830 15574 1 0.16500 119244.000000
6831 13456 1 0.16500 119244.000000
6831 13498 1 0.16500 119244.000000
6832 13456 1 0.16500 119244.000000
6832 14240 1 0.16500 119244.000000
6833 13457 1 0.16500 119244.000000
6833 15878 1 0.16500 119244.000000
6834 13457 1 0.16500 119244.000000
6834 14113 1 0.16500 119244.000000
6835 13458 1 0.16500 119244.000000
6835 17778 1 0.16500 119244.000000
6836 14702 1 0.16500 119244.000000
6836 20275 1 0.16500 119244.000000
6837 13458 1 0.16500 119244.000000
6837 14702 1 0.16500 119244.000000
6838 13459 1 0.16500 119244.000000
6838 16648 1 0.16500 119244.000000
6839 13459 1 0.16500 119244.000000
6839 14838 1 0.16500 119244.000000
6840 13460 1 0.16500 119244.000000
6840 15016 1 0.16500 119244.000000
6841 13461 1 0.16500 119244.000000
6841 14967 1 0.16500 119244.000000
6842 13461 1 0.16500 119244.000000
6842 14954 1 0.16500 119244.000000
6843 13462 1 0.16500 119244.000000
6843 20626 1 0.16500 119244.000000
6844 13462 1 0.16500 119244.000000
6844 13750 1 0.16500 119244.000000
6845 13463 1 0.16500 119244.000000
6845 14966 1 0.16500 119244.000000
6846 13463 1 0.16500 119244.000000
6846 14627 1 0.16500 119244.000000
6847 13463 1 0.16500 119244.000000
6847 15726 1 0.16500 119244.000000
6848 13463 1 0.16500 119244.000000
6848 16155 1 0.16500 119244.000000
6849 13464 1 0.16500 119244.000000
6849 15595 1 0.16500 119244.000000
6850 13464 1 0.16500 119244.000000
6850 15084 1 0.16500 119244.000000
6851 13464 1 0.16500 119244.000000
6851 13881 1 0.16500 119244.000000
6852 11635 1 0.16500 119244.000000
6852 13465 1 0.16500 119244.000000
6853 12062 1 0.16500 119244.000000
6853 13465 1 0.16500 119244.000000
6854 13466 1 0.16500 119244.000000
6854 15547 1 0.16500 119244.000000
6855 13466 1 0.16500 119244.000000
6855 15858 1 0.16500 119244.000000
6856 13467 1 0.16500 119244.000000
6856 15874 1 0.16500 119244.000000
6857 13467 1 0.16500 119244.000000
6857 14561 1 0.16500 119244.000000
6858 13467 1 0.16500 119244.000000
6858 15493 1 0.16500 119244.000000
6859 13467 1 0.16500 119244.000000
6859 15755 1 0.16500 119244.000000
6860 13468 1 0.16500 119244.000000
6860 15813 1 0.16500 119244.000000
6861 12522 1 0.16500 119244.000000
6861 16473 1 0.16500 119244.000000
6862 13468 1 0.16500 119244.000000
6862 14736 1 0.16500 119244.000000
6863 13469 1 0.16500 119244.000000
6863 16288 1 0.16500 119244.000000
6864 13470 1 0.16500 119244.000000
6864 16041 1 0.16500 119244.000000
6865 13470 1 0.16500 119244.000000
6865 15182 1 0.16500 119244.000000
6866 13470 1 0.16500 119244.000000
6866 16401 1 0.16500 119244.000000
6867 14280 1 0.16500 119244.000000
6867 16597 1 0.16500 119244.000000
6868 13471 1 0.16500 119244.000000
6868 20431 1 0.16500 119244.000000
6869 13471 1 0.16500 119244.000000
6869 14280 1 0.16500 119244.000000
6870 13472 1 0.16500 119244.000000
6870 15074 1 0.16500 119244.000000
6871 13472 1 0.16500 119244.000000
6871 14870 1 0.16500 119244.000000
6872 13473 1 0.16500 119244.000000
6872 15956 1 0.16500 119244.000000
6873 13473 1 0.16500 119244.000000
6873 14839 1 0.16500 119244.000000
6874 13473 1 0.16500 119244.000000
6874 16241 1 0.16500 119244.000000
6875 13474 1 0.16500 119244.000000
6875 14456 1 0.16500 119244.000000
6876 13474 1 0.16500 119244.000000
6876 14216 1 0.16500 119244.000000
6877 13474 1 0.16500 119244.000000
6877 16054 1 0.16500 119244.000000
6878 13475 1 0.16500 119244.000000
6878 15030 1 0.16500 119244.000000
6879 13475 1 0.16500 119244.000000
6879 15770 1 0.16500 119244.000000
6880 13476 1 0.16500 119244.000000
6880 16607 1 0.16500 119244.000000
6881 13476 1 0.16500 119244.000000
6881 15062 1 0.16500 119244.000000
6882 13476 1 0.16500 119244.000000
6882 14041 1 0.16500 119244.000000
6883 12184 1 0.16500 119244.000000
6883 13477 1 0.16500 119244.000000
6884 13477 1 0.16500 119244.000000
6884 14423 1 0.16500 119244.000000
6885 13478 1 0.16500 119244.000000
6885 15853 1 0.16500 119244.000000
6886 13478 1 0.16500 119244.000000
6886 16386 1 0.16500 119244.000000
6887 13479 1 0.16500 119244.000000
6887 14031 1 0.16500 119244.000000
6888 13480 1 0.16500 119244.000000
6888 13828 1 0.16500 119244.000000
6889 13481 1 0.16500 119244.000000
6889 20398 1 0.16500 119244.000000
6890 13481 1 0.16500 119244.000000
6890 13995 1 0.16500 119244.000000
6891 13482 1 0.16500 119244.000000
6891 15934 1 0.16500 119244.000000
6892 13482 1 0.16500 119244.000000
6892 17344 1 0.16500 119244.000000
6893 13483 1 0.16500 119244.000000
6893 14301 1 0.16500 119244.000000
6894 13483 1 0.16500 119244.000000
6894 14865 1 0.16500 119244.000000
6895 13484 1 0.16500 119244.000000
6895 14743 1 0.16500 119244.000000
6896 13484 1 0.16500 119244.000000
6896 15428 1 0.16500 119244.000000
6897 15428 1 0.16500 119244.000000
6897 15621 1 0.16500 119244.000000
6898 13484 1 0.16500 119244.000000
6898 15662 1 0.16500 119244.000000
6899 13485 1 0.16500 119244.000000
6899 20242 1 0.16500 119244.000000
6900 13485 1 0.16500 119244.000000
6900 15765 1 0.16500 119244.000000
6901 19981 1 0.16500 119244.000000
6901 20638 1 0.16500 119244.000000
6902 13486 1 0.16500 119244.000000
6902 14872 1 0.16500 119244.000000
6903 13486 1 0.16500 119244.000000
6903 14179 1 0.16500 119244.000000
6904 13486 1 0.16500 119244.000000
6904 15196 1 0.16500 119244.000000
6905 13487 1 0.16500 119244.000000
6905 13940 1 0.16500 119244.000000
6906 13488 1 0.16500 119244.000000
6906 13658 1 0.16500 119244.000000
6907 13488 1 0.16500 119244.000000
6907 15896 1 0.16500 119244.000000
6908 13488 1 0.16500 119244.000000
6908 15809 1 0.16500 119244.000000
6909 13488 1 0.16500 119244.000000
6909 20608 1 0.16500 119244.000000
6910 13489 1 0.16500 119244.000000
6910 14271 1 0.16500 119244.000000
6911 13490 1 0.16500 119244.000000
6911 15190 1 0.16500 119244.000000
6912 13490 1 0.16500 119244.000000
6912 13708 1 0.16500 119244.000000
6913 13491 1 0.16500 119244.000000
6913 20698 1 0.16500 119244.000000
6914 13491 1 0.16500 119244.000000
6914 14928 1 0.16500 119244.000000
6915 13491 1 0.16500 119244.000000
6915 20857 1 0.16500 119244.000000
6916 13492 1 0.16500 119244.000000
6916 13706 1 0.16500 119244.000000
6917 13492 1 0.16500 119244.000000
6917 14748 1 0.16500 119244.000000
6918 13493 1 0.16500 119244.000000
6918 14459 1 0.16500 119244.000000
6919 13493 1 0.16500 119244.000000
6919 15146 1 0.16500 119244.000000
6920 13493 1 0.16500 119244.000000
6920 15254 1 0.16500 119244.000000
6921 16449 1 0.16500 119244.000000
6921 19984 1 0.16500 119244.000000
6922 13494 1 0.16500 119244.000000
6922 14008 1 0.16500 119244.000000
6923 13494 1 0.16500 119244.000000
6923 14543 1 0.16500 119244.000000
6924 14297 1 0.16500 119244.000000
6924 14543 1 0.16500 119244.000000
6925 13495 1 0.16500 119244.000000
6925 13715 1 0.16500 119244.000000
6926 15052 1 0.16500 119244.000000
6926 19987 1 0.16500 119244.000000
6927 13496 1 0.16500 119244.000000
6927 15221 1 0.16500 119244.000000
6928 13496 1 0.16500 119244.000000
6928 20515 1 0.16500 119244.000000
6929 13496 1 0.16500 119244.000000
6929 15452 1 0.16500 119244.000000
6930 13497 1 0.16500 119244.000000
6930 14097 1 0.16500 119244.000000
6931 19990 1 0.16500 119244.000000
6931 20788 1 0.16500 119244.000000
6932 19990 1 0.16500 119244.000000
6932 20245 1 0.16500 119244.000000
6933 13498 1 0.16500 119244.000000
6933 14215 1 0.16500 119244.000000
6934 13498 1 0.16500 119244.000000
6934 15567 1 0.16500 119244.000000
6935 13499 1 0.16500 119244.000000
6935 14254 1 0.16500 119244.000000
6936 13499 1 0.16500 119244.000000
6936 15192 1 0.16500 119244.000000
6937 13499 1 0.16500 119244.000000
6937 15527 1 0.16500 119244.000000
6938 13500 1 0.16500 119244.000000
6938 15530 1 0.16500 119244.000000
6939 13500 1 0.16500 119244.000000
6939 17932 1 0.16500 119244.000000
6940 13500 1 0.16500 119244.000000
6940 14155 1 0.16500 119244.000000
6941 13501 1 0.16500 119244.000000
6941 15830 1 0.16500 119244.000000
6942 13501 1 0.16500 119244.000000
6942 15774 1 0.16500 119244.000000
6943 13501 1 0.16500 119244.000000
6943 13784 1 0.16500 119244.000000
6944 13502 1 0.16500 119244.000000
6944 16121 1 0.16500 119244.000000
6945 13502 1 0.16500 119244.000000
6945 14906 1 0.16500 119244.000000
6946 13503 1 0.16500 119244.000000
6946 14294 1 0.16500 119244.000000
6947 13503 1 0.16500 119244.000000
6947 16050 1 0.16500 119244.000000
6948 14578 1 0.16500 119244.000000
6948 15043 1 0.16500 119244.000000
6949 15043 1 0.16500 119244.000000
6949 15222 1 0.16500 119244.000000
6950 15043 1 0.16500 119244.000000
6950 19993 1 0.16500 119244.000000
6951 13504 1 0.16500 119244.000000
6951 15728 1 0.16500 119244.000000
6952 13504 1 0.16500 119244.000000
6952 13749 1 0.16500 119244.000000
6953 13504 1 0.16500 119244.000000
6953 15814 1 0.16500 119244.000000
6954 13504 1 0.16500 119244.000000
6954 15727 1 0.16500 119244.000000
6955 13505 1 0.16500 119244.000000
6955 16534 1 0.16500 119244.000000
6956 13505 1 0.16500 119244.000000
6956 14951 1 0.16500 119244.000000
6957 13505 1 0.16500 119244.000000
6957 13845 1 0.16500 119244.000000
6958 13506 1 0.16500 119244.000000
6958 16097 1 0.16500 119244.000000
6959 12573 1 0.16500 119244.000000
6959 16678 1 0.16500 119244.000000
6960 13507 1 0.16500 119244.000000
6960 14441 1 0.16500 119244.000000
6961 13481 1 0.16500 119244.000000
6961 13508 1 0.16500 119244.000000
6962 13509 1 0.16500 119244.000000
6962 14872 1 0.16500 119244.000000
6963 13509 1 0.16500 119244.000000
6963 13830 1 0.16500 119244.000000
6964 13830 1 0.16500 119244.000000
6964 14626 1 0.16500 119244.000000
6965 13746 1 0.16500 119244.000000
6965 15327 1 0.16500 119244.000000
6966 13510 1 0.16500 119244.000000
6966 15131 1 0.16500 119244.000000
6967 13510 1 0.16500 119244.000000
6967 15327 1 0.16500 119244.000000
6968 13511 1 0.16500 119244.000000
6968 14987 1 0.16500 119244.000000
6969 14987 1 0.16500 119244.000000
6969 15442 1 0.16500 119244.000000
6970 13512 1 0.16500 119244.000000
6970 14939 1 0.16500 119244.000000
6971 12462 1 0.16500 119244.000000
6971 13739 1 0.16500 119244.000000
6972 13513 1 0.16500 119244.000000
6972 14620 1 0.16500 119244.000000
6973 13513 1 0.16500 119244.000000
6973 14424 1 0.16500 119244.000000
6974 13513 1 0.16500 119244.000000
6974 16035 1 0.16500 119244.000000
6975 13514 1 0.16500 119244.000000
6975 15421 1 0.16500 119244.000000
6976 13514 1 0.16500 119244.000000
6976 14738 1 0.16500 119244.000000
6977 13514 1 0.16500 119244.000000
6977 13743 1 0.16500 119244.000000
6978 14844 1 0.16500 119244.000000
6978 19996 1 0.16500 119244.000000
6979 13515 1 0.16500 119244.000000
6979 16096 1 0.16500 119244.000000
6980 13515 1 0.16500 119244.000000
6980 14619 1 0.16500 119244.000000
6981 13515 1 0.16500 119244.000000
6981 15528 1 0.16500 119244.000000
6982 13516 1 0.16500 119244.000000
6982 15145 1 0.16500 119244.000000
6983 13516 1 0.16500 119244.000000
6983 15369 1 0.16500 119244.000000
6984 13517 1 0.16500 119244.000000
6984 14667 1 0.16500 119244.000000
6985 13517 1 0.16500 119244.000000
6985 15394 1 0.16500 119244.000000
6986 13517 1 0.16500 119244.000000
6986 13854 1 0.16500 119244.000000
6987 13518 1 0.16500 119244.000000
6987 20761 1 0.16500 119244.000000
6988 13518 1 0.16500 119244.000000
6988 20602 1 0.16500 119244.000000
6989 13519 1 0.16500 119244.000000
6989 13744 1 0.16500 119244.000000
6990 13519 1 0.16500 119244.000000
6990 15138 1 0.16500 119244.000000
6991 13520 1 0.16500 119244.000000
6991 15701 1 0.16500 119244.000000
6992 13520 1 0.16500 119244.000000
6992 16340 1 0.16500 119244.000000
6993 13521 1 0.16500 119244.000000
6993 16185 1 0.16500 119244.000000
6994 13521 1 0.16500 119244.000000
6994 16434 1 0.16500 119244.000000
6995 13522 1 0.16500 119244.000000
6995 14036 1 0.16500 119244.000000
6996 13522 1 0.16500 119244.000000
6996 14623 1 0.16500 119244.000000
6997 13523 1 0.16500 119244.000000
6997 20674 1 0.16500 119244.000000
6998 13524 1 0.16500 119244.000000
6998 14158 1 0.16500 119244.000000
6999 13524 1 0.16500 119244.000000
6999 13763 1 0.16500 119244.000000
7000 13525 1 0.16500 119244.000000
7000 15863 1 0.16500 119244.000000
7001 13526 1 0.16500 119244.000000
7001 13971 1 0.16500 119244.000000
7002 11604 1 0.16500 119244.000000
7002 13527 1 0.16500 119244.000000
7003 13528 1 0.16500 119244.000000
7003 15817 1 0.16500 119244.000000
7004 13528 1 0.16500 119244.000000
7004 16311 1 0.16500 119244.000000
7005 13528 1 0.16500 119244.000000
7005 15563 1 0.16500 119244.000000
7006 13529 1 0.16500 119244.000000
7006 15599 1 0.16500 119244.000000
7007 13530 1 0.16500 119244.000000
7007 15260 1 0.16500 119244.000000
7008 13530 1 0.16500 119244.000000
7008 20839 1 0.16500 119244.000000
7009 13530 1 0.16500 119244.000000
7009 14856 1 0.16500 119244.000000
7010 13531 1 0.16500 119244.000000
7010 14490 1 0.16500 119244.000000
7011 13531 1 0.16500 119244.000000
7011 15770 1 0.16500 119244.000000
7012 13531 1 0.16500 119244.000000
7012 15047 1 0.16500 119244.000000
7013 13532 1 0.16500 119244.000000
7013 15177 1 0.16500 119244.000000
7014 13532 1 0.16500 119244.000000
7014 14506 1 0.16500 119244.000000
7015 13532 1 0.16500 119244.000000
7015 16181 1 0.16500 119244.000000
7016 13532 1 0.16500 119244.000000
7016 15744 1 0.16500 119244.000000
7017 13533 1 0.16500 119244.000000
7017 15723 1 0.16500 119244.000000
7018 13533 1 0.16500 119244.000000
7018 16501 1 0.16500 119244.000000
7019 13534 1 0.16500 119244.000000
7019 14776 1 0.16500 119244.000000
7020 13534 1 0.16500 119244.000000
7020 17218 1 0.16500 119244.000000
7021 13535 1 0.16500 119244.000000
7021 16062 1 0.16500 119244.000000
7022 13535 1 0.16500 119244.000000
7022 13681 1 0.16500 119244.000000
7023 13535 1 0.16500 119244.000000
7023 16509 1 0.16500 119244.000000
7024 13536 1 0.16500 119244.000000
7024 15846 1 0.16500 119244.000000
7025 13536 1 0.16500 119244.000000
7025 14271 1 0.16500 119244.000000
7026 13536 1 0.16500 119244.000000
7026 15693 1 0.16500 119244.000000
7027 13536 1 0.16500 119244.000000
7027 16001 1 0.16500 119244.000000
7028 13537 1 0.16500 119244.000000
7028 14031 1 0.16500 119244.000000
7029 13537 1 0.16500 119244.000000
7029 15172 1 0.16500 119244.000000
7030 13537 1 0.16500 119244.000000
7030 16458 1 0.16500 119244.000000
7031 13537 1 0.16500 119244.000000
7031 13583 1 0.16500 119244.000000
7032 13538 1 0.16500 119244.000000
7032 15900 1 0.16500 119244.000000
7033 13538 1 0.16500 119244.000000
7033 16043 1 0.16500 119244.000000
7034 13538 1 0.16500 119244.000000
7034 14610 1 0.16500 119244.000000
7035 13539 1 0.16500 119244.000000
7035 14242 1 0.16500 119244.000000
7036 13539 1 0.16500 119244.000000
7036 15362 1 0.16500 119244.000000
7037 13539 1 0.16500 119244.000000
7037 20866 1 0.16500 119244.000000
7038 13540 1 0.16500 119244.000000
7038 16293 1 0.16500 119244.000000
7039 13540 1 0.16500 119244.000000
7039 15287 1 0.16500 119244.000000
7040 13540 1 0.16500 119244.000000
7040 14552 1 0.16500 119244.000000
7041 13540 1 0.16500 119244.000000
7041 16354 1 0.16500 119244.000000
7042 13541 1 0.16500 119244.000000
7042 15469 1 0.16500 119244.000000
7043 13541 1 0.16500 119244.000000
7043 15355 1 0.16500 119244.000000
7044 13542 1 0.16500 119244.000000
7044 14564 1 0.16500 119244.000000
7045 13542 1 0.16500 119244.000000
7045 14438 1 0.16500 119244.000000
7046 13542 1 0.16500 119244.000000
7046 15377 1 0.16500 119244.000000
7047 13543 1 0.16500 119244.000000
7047 16117 1 0.16500 119244.000000
7048 13543 1 0.16500 119244.000000
7048 13939 1 0.16500 119244.000000
7049 13543 1 0.16500 119244.000000
7049 14419 1 0.16500 119244.000000
7050 13543 1 0.16500 119244.000000
7050 14944 1 0.16500 119244.000000
7051 13544 1 0.16500 119244.000000
7051 15149 1 0.16500 119244.000000
7052 16157 1 0.16500 119244.000000
7052 20005 1 0.16500 119244.000000
7053 13545 1 0.16500 119244.000000
7053 14376 1 0.16500 119244.000000
7054 13545 1 0.16500 119244.000000
7054 13818 1 0.16500 119244.000000
7055 13546 1 0.16500 119244.000000
7055 16624 1 0.16500 119244.000000
7056 13547 1 0.16500 119244.000000
7056 16645 1 0.16500 119244.000000
7057 13547 1 0.16500 119244.000000
7057 14395 1 0.16500 119244.000000
7058 13548 1 0.16500 119244.000000
7058 14154 1 0.16500 119244.000000
7059 13548 1 0.16500 119244.000000
7059 14369 1 0.16500 119244.000000
7060 13548 1 0.16500 119244.000000
7060 16173 1 0.16500 119244.000000
7061 13549 1 0.16500 119244.000000
7061 14455 1 0.16500 119244.000000
7062 13549 1 0.16500 119244.000000
7062 15347 1 0.16500 119244.000000
7063 14455 1 0.16500 119244.000000
7063 15826 1 0.16500 119244.000000
7064 13549 1 0.16500 119244.000000
7064 14350 1 0.16500 119244.000000
7065 13550 1 0.16500 119244.000000
7065 15579 1 0.16500 119244.000000
7066 13550 1 0.16500 119244.000000
7066 20047 1 0.16500 119244.000000
7067 13551 1 0.16500 119244.000000
7067 14638 1 0.16500 119244.000000
7068 13551 1 0.16500 119244.000000
7068 15865 1 0.16500 119244.000000
7069 13551 1 0.16500 119244.000000
7069 15131 1 0.16500 119244.000000
7070 13551 1 0.16500 119244.000000
7070 14450 1 0.16500 119244.000000
7071 13552 1 0.16500 119244.000000
7071 15942 1 0.16500 119244.000000
7072 13552 1 0.16500 119244.000000
7072 16460 1 0.16500 119244.000000
7073 13552 1 0.16500 119244.000000
7073 17302 1 0.16500 119244.000000
7074 13553 1 0.16500 119244.000000
7074 15116 1 0.16500 119244.000000
7075 13553 1 0.16500 119244.000000
7075 14192 1 0.16500 119244.000000
7076 13553 1 0.16500 119244.000000
7076 15846 1 0.16500 119244.000000
7077 13554 1 0.16500 119244.000000
7077 14970 1 0.16500 119244.000000
7078 13554 1 0.16500 119244.000000
7078 15533 1 0.16500 119244.000000
7079 13555 1 0.16500 119244.000000
7079 16034 1 0.16500 119244.000000
7080 13555 1 0.16500 119244.000000
7080 14727 1 0.16500 119244.000000
7081 13555 1 0.16500 119244.000000
7081 15426 1 0.16500 119244.000000
7082 14727 1 0.16500 119244.000000
7082 16225 1 0.16500 119244.000000
7083 13556 1 0.16500 119244.000000
7083 14684 1 0.16500 119244.000000
7084 13556 1 0.16500 119244.000000
7084 13719 1 0.16500 119244.000000
7085 12517 1 0.16500 119244.000000
7085 13557 1 0.16500 119244.000000
7086 13557 1 0.16500 119244.000000
7086 14995 1 0.16500 119244.000000
7087 13558 1 0.16500 119244.000000
7087 14723 1 0.16500 119244.000000
7088 13558 1 0.16500 119244.000000
7088 14285 1 0.16500 119244.000000
7089 13558 1 0.16500 119244.000000
7089 14560 1 0.16500 119244.000000
7090 13559 1 0.16500 119244.000000
7090 16113 1 0.16500 119244.000000
7091 13678 1 0.16500 119244.000000
7091 16159 1 0.16500 119244.000000
7092 13559 1 0.16500 119244.000000
7092 16159 1 0.16500 119244.000000
7093 13559 1 0.16500 119244.000000
7093 13699 1 0.16500 119244.000000
7094 13560 1 0.16500 119244.000000
7094 15787 1 0.16500 119244.000000
7095 13561 1 0.16500 119244.000000
7095 16265 1 0.16500 119244.000000
7096 13561 1 0.16500 119244.000000
7096 15905 1 0.16500 119244.000000
7097 13561 1 0.16500 119244.000000
7097 16410 1 0.16500 119244.000000
7098 14731 1 0.16500 119244.000000
7098 20008 1 0.16500 119244.000000
7099 13562 1 0.16500 119244.000000
7099 20116 1 0.16500 119244.000000
7100 13562 1 0.16500 119244.000000
7100 14726 1 0.16500 119244.000000
7101 13563 1 0.16500 119244.000000
7101 15010 1 0.16500 119244.000000
7102 13563 1 0.16500 119244.000000
7102 14790 1 0.16500 119244.000000
7103 13564 1 0.16500 119244.000000
7103 13868 1 0.16500 119244.000000
7104 13564 1 0.16500 119244.000000
7104 14279 1 0.16500 119244.000000
7105 13565 1 0.16500 119244.000000
7105 16372 1 0.16500 119244.000000
7106 13565 1 0.16500 119244.000000
7106 14542 1 0.16500 119244.000000
7107 13565 1 0.16500 119244.000000
7107 15337 1 0.16500 119244.000000
7108 13566 1 0.16500 119244.000000
7108 16165 1 0.16500 119244.000000
7109 13566 1 0.16500 119244.000000
7109 15041 1 0.16500 119244.000000
7110 13566 1 0.16500 119244.000000
7110 15212 1 0.16500 119244.000000
7111 13566 1 0.16500 119244.000000
7111 16284 1 0.16500 119244.000000
7112 13567 1 0.16500 119244.000000
7112 16669 1 0.16500 119244.000000
7113 13567 1 0.16500 119244.000000
7113 17904 1 0.16500 119244.000000
7114 13567 1 0.16500 119244.000000
7114 15042 1 0.16500 119244.000000
7115 13568 1 0.16500 119244.000000
7115 15295 1 0.16500 119244.000000
7116 13568 1 0.16500 119244.000000
7116 15978 1 0.16500 119244.000000
7117 13568 1 0.16500 119244.000000
7117 15557 1 0.16500 119244.000000
7118 13569 1 0.16500 119244.000000
7118 14806 1 0.16500 119244.000000
7119 13569 1 0.16500 119244.000000
7119 15272 1 0.16500 119244.000000
7120 13569 1 0.16500 119244.000000
7120 15075 1 0.16500 119244.000000
7121 13570 1 0.16500 119244.000000
7121 15817 1 0.16500 119244.000000
7122 13570 1 0.16500 119244.000000
7122 14055 1 0.16500 119244.000000
7123 13570 1 0.16500 119244.000000
7123 13605 1 0.16500 119244.000000
7124 13571 1 0.16500 119244.000000
7124 14778 1 0.16500 119244.000000
7125 13571 1 0.16500 119244.000000
7125 15997 1 0.16500 119244.000000
7126 14778 1 0.16500 119244.000000
7126 20395 1 0.16500 119244.000000
7127 13572 1 0.16500 119244.000000
7127 20704 1 0.16500 119244.000000
7128 13572 1 0.16500 119244.000000
7128 13759 1 0.16500 119244.000000
7129 13572 1 0.16500 119244.000000
7129 13649 1 0.16500 119244.000000
7130 13572 1 0.16500 119244.000000
7130 16213 1 0.16500 119244.000000
7131 13573 1 0.16500 119244.000000
7131 16010 1 0.16500 119244.000000
7132 14893 1 0.16500 119244.000000
7132 16010 1 0.16500 119244.000000
7133 13574 1 0.16500 119244.000000
7133 14832 1 0.16500 119244.000000
7134 13574 1 0.16500 119244.000000
7134 16537 1 0.16500 119244.000000
7135 13575 1 0.16500 119244.000000
7135 13767 1 0.16500 119244.000000
7136 13575 1 0.16500 119244.000000
7136 13905 1 0.16500 119244.000000
7137 13575 1 0.16500 119244.000000
7137 15494 1 0.16500 119244.000000
7138 13576 1 0.16500 119244.000000
7138 14967 1 0.16500 119244.000000
7139 13576 1 0.16500 119244.000000
7139 14811 1 0.16500 119244.000000
7140 13576 1 0.16500 119244.000000
7140 16127 1 0.16500 119244.000000
7141 20014 1 0.16500 119244.000000
7141 20560 1 0.16500 119244.000000
7142 20014 1 0.16500 119244.000000
7142 20332 1 0.16500 119244.000000
7143 13577 1 0.16500 119244.000000
7143 13728 1 0.16500 119244.000000
7144 12963 1 0.16500 119244.000000
7144 14524 1 0.16500 119244.000000
7145 13577 1 0.16500 119244.000000
7145 15184 1 0.16500 119244.000000
7146 13578 1 0.16500 119244.000000
7146 14811 1 0.16500 119244.000000
7147 13578 1 0.16500 119244.000000
7147 15979 1 0.16500 119244.000000
7148 13578 1 0.16500 119244.000000
7148 16101 1 0.16500 119244.000000
7149 13579 1 0.16500 119244.000000
7149 15070 1 0.16500 119244.000000
7150 13579 1 0.16500 119244.000000
7150 16540 1 0.16500 119244.000000
7151 13579 1 0.16500 119244.000000
7151 13647 1 0.16500 119244.000000
7152 13580 1 0.16500 119244.000000
7152 15210 1 0.16500 119244.000000
7153 14123 1 0.16500 119244.000000
7153 20017 1 0.16500 119244.000000
7154 16464 1 0.16500 119244.000000
7154 20017 1 0.16500 119244.000000
7155 13581 1 0.16500 119244.000000
7155 16155 1 0.16500 119244.000000
7156 13581 1 0.16500 119244.000000
7156 15363 1 0.16500 119244.000000
7157 13581 1 0.16500 119244.000000
7157 15850 1 0.16500 119244.000000
7158 13582 1 0.16500 119244.000000
7158 14600 1 0.16500 119244.000000
7159 13582 1 0.16500 119244.000000
7159 14336 1 0.16500 119244.000000
7160 13582 1 0.16500 119244.000000
7160 16118 1 0.16500 119244.000000
7161 13582 1 0.16500 119244.000000
7161 15404 1 0.16500 119244.000000
7162 13583 1 0.16500 119244.000000
7162 13883 1 0.16500 119244.000000
7163 13583 1 0.16500 119244.000000
7163 16112 1 0.16500 119244.000000
7164 13584 1 0.16500 119244.000000
7164 16035 1 0.16500 119244.000000
7165 13584 1 0.16500 119244.000000
7165 14584 1 0.16500 119244.000000
7166 13584 1 0.16500 119244.000000
7166 14513 1 0.16500 119244.000000
7167 13585 1 0.16500 119244.000000
7167 15033 1 0.16500 119244.000000
7168 13586 1 0.16500 119244.000000
7168 14739 1 0.16500 119244.000000
7169 13586 1 0.16500 119244.000000
7169 13850 1 0.16500 119244.000000
7170 13586 1 0.16500 119244.000000
7170 15424 1 0.16500 119244.000000
7171 13587 1 0.16500 119244.000000
7171 15582 1 0.16500 119244.000000
7172 13588 1 0.16500 119244.000000
7172 15548 1 0.16500 119244.000000
7173 13588 1 0.16500 119244.000000
7173 13875 1 0.16500 119244.000000
7174 13588 1 0.16500 119244.000000
7174 15920 1 0.16500 119244.000000
7175 13589 1 0.16500 119244.000000
7175 16580 1 0.16500 119244.000000
7176 13589 1 0.16500 119244.000000
7176 14968 1 0.16500 119244.000000
7177 11953 1 0.16500 119244.000000
7177 13589 1 0.16500 119244.000000
7178 13590 1 0.16500 119244.000000
7178 13859 1 0.16500 119244.000000
7179 13590 1 0.16500 119244.000000
7179 15633 1 0.16500 119244.000000
7180 20020 1 0.16500 119244.000000
7180 20338 1 0.16500 119244.000000
7181 13591 1 0.16500 119244.000000
7181 13704 1 0.16500 119244.000000
7182 13591 1 0.16500 119244.000000
7182 13946 1 0.16500 119244.000000
7183 13592 1 0.16500 119244.000000
7183 15890 1 0.16500 119244.000000
7184 13593 1 0.16500 119244.000000
7184 15083 1 0.16500 119244.000000
7185 13593 1 0.16500 119244.000000
7185 14148 1 0.16500 119244.000000
7186 13594 1 0.16500 119244.000000
7186 13857 1 0.16500 119244.000000
7187 13594 1 0.16500 119244.000000
7187 15736 1 0.16500 119244.000000
7188 13594 1 0.16500 119244.000000
7188 13972 1 0.16500 119244.000000
7189 13594 1 0.16500 119244.000000
7189 13770 1 0.16500 119244.000000
7190 13595 1 0.16500 119244.000000
7190 16295 1 0.16500 119244.000000
7191 13595 1 0.16500 119244.000000
7191 14034 1 0.16500 119244.000000
7192 13595 1 0.16500 119244.000000
7192 16408 1 0.16500 119244.000000
7193 13595 1 0.16500 119244.000000
7193 13621 1 0.16500 119244.000000
7194 13097 1 0.16500 119244.000000
7194 13596 1 0.16500 119244.000000
7195 13596 1 0.16500 119244.000000
7195 15893 1 0.16500 119244.000000
7196 13597 1 0.16500 119244.000000
7196 14736 1 0.16500 119244.000000
7197 13597 1 0.16500 119244.000000
7197 16364 1 0.16500 119244.000000
7198 18130 1 0.16500 119244.000000
7198 20023 1 0.16500 119244.000000
7199 13598 1 0.16500 119244.000000
7199 16051 1 0.16500 119244.000000
7200 13598 1 0.16500 119244.000000
7200 20368 1 0.16500 119244.000000
7201 13599 1 0.16500 119244.000000
7201 13888 1 0.16500 119244.000000
7202 13599 1 0.16500 119244.000000
7202 14474 1 0.16500 119244.000000
7203 13600 1 0.16500 119244.000000
7203 15670 1 0.16500 119244.000000
7204 13600 1 0.16500 119244.000000
7204 14776 1 0.16500 119244.000000
7205 13601 1 0.16500 119244.000000
7205 15142 1 0.16500 119244.000000
7206 13601 1 0.16500 119244.000000
7206 14491 1 0.16500 119244.000000
7207 13602 1 0.16500 119244.000000
7207 15712 1 0.16500 119244.000000
7208 13602 1 0.16500 119244.000000
7208 13934 1 0.16500 119244.000000
7209 13603 1 0.16500 119244.000000
7209 20077 1 0.16500 119244.000000
7210 13605 1 0.16500 119244.000000
7210 15604 1 0.16500 119244.000000
7211 13605 1 0.16500 119244.000000
7211 16204 1 0.16500 119244.000000
7212 13605 1 0.16500 119244.000000
7212 13801 1 0.16500 119244.000000
7213 13606 1 0.16500 119244.000000
7213 14013 1 0.16500 119244.000000
7214 13607 1 0.16500 119244.000000
7214 14372 1 0.16500 119244.000000
7215 13607 1 0.16500 119244.000000
7215 14269 1 0.16500 119244.000000
7216 14372 1 0.16500 119244.000000
7216 16415 1 0.16500 119244.000000
7217 13608 1 0.16500 119244.000000
7217 20197 1 0.16500 119244.000000
7218 13609 1 0.16500 119244.000000
7218 20257 1 0.16500 119244.000000
7219 13609 1 0.16500 119244.000000
7219 14111 1 0.16500 119244.000000
7220 13609 1 0.16500 119244.000000
7220 20650 1 0.16500 119244.000000
7221 13609 1 0.16500 119244.000000
7221 15793 1 0.16500 119244.000000
7222 15997 1 0.16500 119244.000000
7222 20026 1 0.16500 119244.000000
7223 13637 1 0.16500 119244.000000
7223 20026 1 0.16500 119244.000000
7224 14326 1 0.16500 119244.000000
7224 14409 1 0.16500 119244.000000
7225 13610 1 0.16500 119244.000000
7225 14409 1 0.16500 119244.000000
7226 13610 1 0.16500 119244.000000
7226 16505 1 0.16500 119244.000000
7227 13611 1 0.16500 119244.000000
7227 14540 1 0.16500 119244.000000
7228 13612 1 0.16500 119244.000000
7228 16015 1 0.16500 119244.000000
7229 13612 1 0.16500 119244.000000
7229 16387 1 0.16500 119244.000000
7230 13612 1 0.16500 119244.000000
7230 14926 1 0.16500 119244.000000
7231 13612 1 0.16500 119244.000000
7231 13649 1 0.16500 119244.000000
7232 13613 1 0.16500 119244.000000
7232 15046 1 0.16500 119244.000000
7233 13301 1 0.16500 119244.000000
7233 13613 1 0.16500 119244.000000
7234 13613 1 0.16500 119244.000000
7234 14691 1 0.16500 119244.000000
7235 13614 1 0.16500 119244.000000
7235 14550 1 0.16500 119244.000000
7236 13614 1 0.16500 119244.000000
7236 14927 1 0.16500 119244.000000
7237 15067 1 0.16500 119244.000000
7237 16082 1 0.16500 119244.000000
7238 13615 1 0.16500 119244.000000
7238 14849 1 0.16500 119244.000000
7239 13615 1 0.16500 119244.000000
7239 13919 1 0.16500 119244.000000
7240 16215 1 0.16500 119244.000000
7240 16627 1 0.16500 119244.000000
7241 13616 1 0.16500 119244.000000
7241 16215 1 0.16500 119244.000000
7242 13616 1 0.16500 119244.000000
7242 16659 1 0.16500 119244.000000
7243 13617 1 0.16500 119244.000000
7243 14714 1 0.16500 119244.000000
7244 13617 1 0.16500 119244.000000
7244 16342 1 0.16500 119244.000000
7245 13618 1 0.16500 119244.000000
7245 16424 1 0.16500 119244.000000
7246 13618 1 0.16500 119244.000000
7246 14509 1 0.16500 119244.000000
7247 13619 1 0.16500 119244.000000
7247 13674 1 0.16500 119244.000000
7248 13619 1 0.16500 119244.000000
7248 15316 1 0.16500 119244.000000
7249 13619 1 0.16500 119244.000000
7249 13699 1 0.16500 119244.000000
7250 13619 1 0.16500 119244.000000
7250 20488 1 0.16500 119244.000000
7251 13620 1 0.16500 119244.000000
7251 14218 1 0.16500 119244.000000
7252 13999 1 0.16500 119244.000000
7252 14218 1 0.16500 119244.000000
7253 13621 1 0.16500 119244.000000
7253 13693 1 0.16500 119244.000000
7254 13622 1 0.16500 119244.000000
7254 13982 1 0.16500 119244.000000
7255 13623 1 0.16500 119244.000000
7255 14116 1 0.16500 119244.000000
7256 13623 1 0.16500 119244.000000
7256 13824 1 0.16500 119244.000000
7257 16081 1 0.16500 119244.000000
7257 20029 1 0.16500 119244.000000
7258 13624 1 0.16500 119244.000000
7258 16585 1 0.16500 119244.000000
7259 13624 1 0.16500 119244.000000
7259 15945 1 0.16500 119244.000000
7260 13625 1 0.16500 119244.000000
7260 14787 1 0.16500 119244.000000
7261 13625 1 0.16500 119244.000000
7261 15497 1 0.16500 119244.000000
7262 13626 1 0.16500 119244.000000
7262 14890 1 0.16500 119244.000000
7263 13626 1 0.16500 119244.000000
7263 16104 1 0.16500 119244.000000
7264 13626 1 0.16500 119244.000000
7264 20719 1 0.16500 119244.000000
7265 12138 1 0.16500 119244.000000
7265 13627 1 0.16500 119244.000000
7266 13627 1 0.16500 119244.000000
7266 14410 1 0.16500 119244.000000
7267 13628 1 0.16500 119244.000000
7267 15247 1 0.16500 119244.000000
7268 13629 1 0.16500 119244.000000
7268 13636 1 0.16500 119244.000000
7269 14465 1 0.16500 119244.000000
7269 15338 1 0.16500 119244.000000
7270 13631 1 0.16500 119244.000000
7270 15338 1 0.16500 119244.000000
7271 13632 1 0.16500 119244.000000
7271 13719 1 0.16500 119244.000000
7272 13632 1 0.16500 119244.000000
7272 15473 1 0.16500 119244.000000
7273 13632 1 0.16500 119244.000000
7273 14700 1 0.16500 119244.000000
7274 13632 1 0.16500 119244.000000
7274 15542 1 0.16500 119244.000000
7275 13633 1 0.16500 119244.000000
7275 14487 1 0.16500 119244.000000
7276 13633 1 0.16500 119244.000000
7276 15864 1 0.16500 119244.000000
7277 14619 1 0.16500 119244.000000
7277 16167 1 0.16500 119244.000000
7278 13634 1 0.16500 119244.000000
7278 20380 1 0.16500 119244.000000
7279 13634 1 0.16500 119244.000000
7279 16167 1 0.16500 119244.000000
7280 13634 1 0.16500 119244.000000
7280 16419 1 0.16500 119244.000000
7281 13635 1 0.16500 119244.000000
7281 15537 1 0.16500 119244.000000
7282 15181 1 0.16500 119244.000000
7282 15537 1 0.16500 119244.000000
7283 13205 1 0.16500 119244.000000
7283 13656 1 0.16500 119244.000000
7284 13636 1 0.16500 119244.000000
7284 13663 1 0.16500 119244.000000
7285 13636 1 0.16500 119244.000000
7285 15511 1 0.16500 119244.000000
7286 13636 1 0.16500 119244.000000
7286 20260 1 0.16500 119244.000000
7287 13637 1 0.16500 119244.000000
7287 20671 1 0.16500 119244.000000
7288 20296 1 0.16500 119244.000000
7288 20671 1 0.16500 119244.000000
7289 13638 1 0.16500 119244.000000
7289 15832 1 0.16500 119244.000000
7290 13638 1 0.16500 119244.000000
7290 15250 1 0.16500 119244.000000
7291 15832 1 0.16500 119244.000000
7291 16077 1 0.16500 119244.000000
7292 13639 1 0.16500 119244.000000
7292 14557 1 0.16500 119244.000000
7293 13639 1 0.16500 119244.000000
7293 15653 1 0.16500 119244.000000
7294 13639 1 0.16500 119244.000000
7294 16190 1 0.16500 119244.000000
7295 13640 1 0.16500 119244.000000
7295 14648 1 0.16500 119244.000000
7296 13640 1 0.16500 119244.000000
7296 14855 1 0.16500 119244.000000
7297 13640 1 0.16500 119244.000000
7297 14258 1 0.16500 119244.000000
7298 13642 1 0.16500 119244.000000
7298 14166 1 0.16500 119244.000000
7299 13642 1 0.16500 119244.000000
7299 14941 1 0.16500 119244.000000
7300 13642 1 0.16500 119244.000000
7300 16271 1 0.16500 119244.000000
7301 13643 1 0.16500 119244.000000
7301 20368 1 0.16500 119244.000000
7302 13643 1 0.16500 119244.000000
7302 20248 1 0.16500 119244.000000
7303 13644 1 0.16500 119244.000000
7303 15339 1 0.16500 119244.000000
7304 13644 1 0.16500 119244.000000
7304 16627 1 0.16500 119244.000000
7305 13644 1 0.16500 119244.000000
7305 15152 1 0.16500 119244.000000
7306 13645 1 0.16500 119244.000000
7306 15426 1 0.16500 119244.000000
7307 13645 1 0.16500 119244.000000
7307 14021 1 0.16500 119244.000000
7308 13284 1 0.16500 119244.000000
7308 13645 1 0.16500 119244.000000
7309 13646 1 0.16500 119244.000000
7309 20677 1 0.16500 119244.000000
7310 13646 1 0.16500 119244.000000
7310 13703 1 0.16500 119244.000000
7311 13646 1 0.16500 119244.000000
7311 20908 1 0.16500 119244.000000
7312 13646 1 0.16500 119244.000000
7312 15535 1 0.16500 119244.000000
7313 13647 1 0.16500 119244.000000
7313 15301 1 0.16500 119244.000000
7314 13647 1 0.16500 119244.000000
7314 15311 1 0.16500 119244.000000
7315 13648 1 0.16500 119244.000000
7315 14985 1 0.16500 119244.000000
7316 13648 1 0.16500 119244.000000
7316 15455 1 0.16500 119244.000000
7317 13650 1 0.16500 119244.000000
7317 14047 1 0.16500 119244.000000
7318 13650 1 0.16500 119244.000000
7318 16141 1 0.16500 119244.000000
7319 11778 1 0.16500 119244.000000
7319 16187 1 0.16500 119244.000000
7320 11778 1 0.16500 119244.000000
7320 14595 1 0.16500 119244.000000
7321 13652 1 0.16500 119244.000000
7321 14018 1 0.16500 119244.000000
7322 13652 1 0.16500 119244.000000
7322 16512 1 0.16500 119244.000000
7323 13653 1 0.16500 119244.000000
7323 15645 1 0.16500 119244.000000
7324 13653 1 0.16500 119244.000000
7324 15636 1 0.16500 119244.000000
7325 14358 1 0.16500 119244.000000
7325 15645 1 0.16500 119244.000000
7326 13848 1 0.16500 119244.000000
7326 15486 1 0.16500 119244.000000
7327 13655 1 0.16500 119244.000000
7327 14611 1 0.16500 119244.000000
7328 13655 1 0.16500 119244.000000
7328 13848 1 0.16500 119244.000000
7329 13656 1 0.16500 119244.000000
7329 15735 1 0.16500 119244.000000
7330 13657 1 0.16500 119244.000000
7330 15113 1 0.16500 119244.000000
7331 13658 1 0.16500 119244.000000
7331 16689 1 0.16500 119244.000000
7332 13658 1 0.16500 119244.000000
7332 14675 1 0.16500 119244.000000
7333 13658 1 0.16500 119244.000000
7333 14573 1 0.16500 119244.000000
7334 13659 1 0.16500 119244.000000
7334 14498 1 0.16500 119244.000000
7335 13659 1 0.16500 119244.000000
7335 16129 1 0.16500 119244.000000
7336 13659 1 0.16500 119244.000000
7336 16531 1 0.16500 119244.000000
7337 13659 1 0.16500 119244.000000
7337 15533 1 0.16500 119244.000000
7338 13660 1 0.16500 119244.000000
7338 16405 1 0.16500 119244.000000
7339 13660 1 0.16500 119244.000000
7339 14598 1 0.16500 119244.000000
7340 13660 1 0.16500 119244.000000
7340 15174 1 0.16500 119244.000000
7341 16630 1 0.16500 119244.000000
7341 20053 1 0.16500 119244.000000
7342 13661 1 0.16500 119244.000000
7342 20053 1 0.16500 119244.000000
7343 13661 1 0.16500 119244.000000
7343 20665 1 0.16500 119244.000000
7344 13661 1 0.16500 119244.000000
7344 15585 1 0.16500 119244.000000
7345 13662 1 0.16500 119244.000000
7345 16062 1 0.16500 119244.000000
7346 13662 1 0.16500 119244.000000
7346 14837 1 0.16500 119244.000000
7347 13662 1 0.16500 119244.000000
7347 16590 1 0.16500 119244.000000
7348 13663 1 0.16500 119244.000000
7348 16655 1 0.16500 119244.000000
7349 13663 1 0.16500 119244.000000
7349 16603 1 0.16500 119244.000000
7350 13663 1 0.16500 119244.000000
7350 16156 1 0.16500 119244.000000
7351 13664 1 0.16500 119244.000000
7351 13771 1 0.16500 119244.000000
7352 13664 1 0.16500 119244.000000
7352 14555 1 0.16500 119244.000000
7353 13664 1 0.16500 119244.000000
7353 16633 1 0.16500 119244.000000
7354 13665 1 0.16500 119244.000000
7354 15277 1 0.16500 119244.000000
7355 13665 1 0.16500 119244.000000
7355 15803 1 0.16500 119244.000000
7356 13665 1 0.16500 119244.000000
7356 14424 1 0.16500 119244.000000
7357 13666 1 0.16500 119244.000000
7357 16273 1 0.16500 119244.000000
7358 13428 1 0.16500 119244.000000
7358 14924 1 0.16500 119244.000000
7359 13428 1 0.16500 119244.000000
7359 13666 1 0.16500 119244.000000
7360 13667 1 0.16500 119244.000000
7360 16453 1 0.16500 119244.000000
7361 13667 1 0.16500 119244.000000
7361 14936 1 0.16500 119244.000000
7362 13667 1 0.16500 119244.000000
7362 16152 1 0.16500 119244.000000
7363 13668 1 0.16500 119244.000000
7363 20071 1 0.16500 119244.000000
7364 13668 1 0.16500 119244.000000
7364 14012 1 0.16500 119244.000000
7365 13668 1 0.16500 119244.000000
7365 20518 1 0.16500 119244.000000
7366 13669 1 0.16500 119244.000000
7366 15695 1 0.16500 119244.000000
7367 13670 1 0.16500 119244.000000
7367 13843 1 0.16500 119244.000000
7368 11452 1 0.16500 119244.000000
7368 16444 1 0.16500 119244.000000
7369 13671 1 0.16500 119244.000000
7369 14379 1 0.16500 119244.000000
7370 13672 1 0.16500 119244.000000
7370 14067 1 0.16500 119244.000000
7371 11722 1 0.16500 119244.000000
7371 14663 1 0.16500 119244.000000
7372 13672 1 0.16500 119244.000000
7372 16033 1 0.16500 119244.000000
7373 11736 1 0.16500 119244.000000
7373 13436 1 0.16500 119244.000000
7374 13673 1 0.16500 119244.000000
7374 14778 1 0.16500 119244.000000
7375 14453 1 0.16500 119244.000000
7375 20041 1 0.16500 119244.000000
7376 20041 1 0.16500 119244.000000
7376 20605 1 0.16500 119244.000000
7377 13675 1 0.16500 119244.000000
7377 15602 1 0.16500 119244.000000
7378 13675 1 0.16500 119244.000000
7378 16561 1 0.16500 119244.000000
7379 13675 1 0.16500 119244.000000
7379 14030 1 0.16500 119244.000000
7380 13675 1 0.16500 119244.000000
7380 15390 1 0.16500 119244.000000
7381 13676 1 0.16500 119244.000000
7381 14468 1 0.16500 119244.000000
7382 13676 1 0.16500 119244.000000
7382 16532 1 0.16500 119244.000000
7383 13677 1 0.16500 119244.000000
7383 15721 1 0.16500 119244.000000
7384 13679 1 0.16500 119244.000000
7384 14663 1 0.16500 119244.000000
7385 13679 1 0.16500 119244.000000
7385 15381 1 0.16500 119244.000000
7386 13679 1 0.16500 119244.000000
7386 13871 1 0.16500 119244.000000
7387 13679 1 0.16500 119244.000000
7387 15792 1 0.16500 119244.000000
7388 13680 1 0.16500 119244.000000
7388 16232 1 0.16500 119244.000000
7389 13680 1 0.16500 119244.000000
7389 14001 1 0.16500 119244.000000
7390 13681 1 0.16500 119244.000000
7390 16067 1 0.16500 119244.000000
7391 13681 1 0.16500 119244.000000
7391 15133 1 0.16500 119244.000000
7392 13682 1 0.16500 119244.000000
7392 14574 1 0.16500 119244.000000
7393 13682 1 0.16500 119244.000000
7393 14646 1 0.16500 119244.000000
7394 13684 1 0.16500 119244.000000
7394 14260 1 0.16500 119244.000000
7395 13684 1 0.16500 119244.000000
7395 15011 1 0.16500 119244.000000
7396 13684 1 0.16500 119244.000000
7396 15790 1 0.16500 119244.000000
7397 13685 1 0.16500 119244.000000
7397 14154 1 0.16500 119244.000000
7398 13685 1 0.16500 119244.000000
7398 13790 1 0.16500 119244.000000
7399 13686 1 0.16500 119244.000000
7399 14766 1 0.16500 119244.000000
7400 13686 1 0.16500 119244.000000
7400 16658 1 0.16500 119244.000000
7401 13687 1 0.16500 119244.000000
7401 14918 1 0.16500 119244.000000
7402 13687 1 0.16500 119244.000000
7402 14359 1 0.16500 119244.000000
7403 13687 1 0.16500 119244.000000
7403 13758 1 0.16500 119244.000000
7404 13687 1 0.16500 119244.000000
7404 15652 1 0.16500 119244.000000
7405 13688 1 0.16500 119244.000000
7405 16255 1 0.16500 119244.000000
7406 13688 1 0.16500 119244.000000
7406 14256 1 0.16500 119244.000000
7407 13688 1 0.16500 119244.000000
7407 15953 1 0.16500 119244.000000
7408 13689 1 0.16500 119244.000000
7408 15870 1 0.16500 119244.000000
7409 12528 1 0.16500 119244.000000
7409 13697 1 0.16500 119244.000000
7410 14625 1 0.16500 119244.000000
7410 15870 1 0.16500 119244.000000
7411 13690 1 0.16500 119244.000000
7411 16176 1 0.16500 119244.000000
7412 13690 1 0.16500 119244.000000
7412 14329 1 0.16500 119244.000000
7413 13690 1 0.16500 119244.000000
7413 14983 1 0.16500 119244.000000
7414 13691 1 0.16500 119244.000000
7414 14308 1 0.16500 119244.000000
7415 13692 1 0.16500 119244.000000
7415 14589 1 0.16500 119244.000000
7416 13692 1 0.16500 119244.000000
7416 14858 1 0.16500 119244.000000
7417 13693 1 0.16500 119244.000000
7417 16168 1 0.16500 119244.000000
7418 12980 1 0.16500 119244.000000
7418 13694 1 0.16500 119244.000000
7419 13694 1 0.16500 119244.000000
7419 13989 1 0.16500 119244.000000
7420 13694 1 0.16500 119244.000000
7420 14497 1 0.16500 119244.000000
7421 13695 1 0.16500 119244.000000
7421 15723 1 0.16500 119244.000000
7422 13695 1 0.16500 119244.000000
7422 13962 1 0.16500 119244.000000
7423 13696 1 0.16500 119244.000000
7423 16009 1 0.16500 119244.000000
7424 13697 1 0.16500 119244.000000
7424 15156 1 0.16500 119244.000000
7425 13697 1 0.16500 119244.000000
7425 16648 1 0.16500 119244.000000
7426 13697 1 0.16500 119244.000000
7426 13909 1 0.16500 119244.000000
7427 13698 1 0.16500 119244.000000
7427 17806 1 0.16500 119244.000000
7428 13698 1 0.16500 119244.000000
7428 14130 1 0.16500 119244.000000
7429 13698 1 0.16500 119244.000000
7429 15608 1 0.16500 119244.000000
7430 13699 1 0.16500 119244.000000
7430 15525 1 0.16500 119244.000000
7431 12241 1 0.16500 119244.000000
7431 15469 1 0.16500 119244.000000
7432 13699 1 0.16500 119244.000000
7432 15469 1 0.16500 119244.000000
7433 13700 1 0.16500 119244.000000
7433 14562 1 0.16500 119244.000000
7434 13701 1 0.16500 119244.000000
7434 15601 1 0.16500 119244.000000
7435 13701 1 0.16500 119244.000000
7435 15976 1 0.16500 119244.000000
7436 13701 1 0.16500 119244.000000
7436 13735 1 0.16500 119244.000000
7437 13702 1 0.16500 119244.000000
7437 15691 1 0.16500 119244.000000
7438 13702 1 0.16500 119244.000000
7438 15309 1 0.16500 119244.000000
7439 13702 1 0.16500 119244.000000
7439 16586 1 0.16500 119244.000000
7440 13703 1 0.16500 119244.000000
7440 14246 1 0.16500 119244.000000
7441 13703 1 0.16500 119244.000000
7441 14352 1 0.16500 119244.000000
7442 13704 1 0.16500 119244.000000
7442 16381 1 0.16500 119244.000000
7443 13705 1 0.16500 119244.000000
7443 15236 1 0.16500 119244.000000
7444 13705 1 0.16500 119244.000000
7444 14701 1 0.16500 119244.000000
7445 13705 1 0.16500 119244.000000
7445 14668 1 0.16500 119244.000000
7446 13429 1 0.16500 119244.000000
7446 15071 1 0.16500 119244.000000
7447 13707 1 0.16500 119244.000000
7447 16596 1 0.16500 119244.000000
7448 13707 1 0.16500 119244.000000
7448 14598 1 0.16500 119244.000000
7449 13708 1 0.16500 119244.000000
7449 14387 1 0.16500 119244.000000
7450 13708 1 0.16500 119244.000000
7450 14331 1 0.16500 119244.000000
7451 12787 1 0.16500 119244.000000
7451 14093 1 0.16500 119244.000000
7452 13709 1 0.16500 119244.000000
7452 13984 1 0.16500 119244.000000
7453 13709 1 0.16500 119244.000000
7453 13853 1 0.16500 119244.000000
7454 13710 1 0.16500 119244.000000
7454 16684 1 0.16500 119244.000000
7455 13710 1 0.16500 119244.000000
7455 15395 1 0.16500 119244.000000
7456 13710 1 0.16500 119244.000000
7456 14688 1 0.16500 119244.000000
7457 13711 1 0.16500 119244.000000
7457 20641 1 0.16500 119244.000000
7458 13711 1 0.16500 119244.000000
7458 15886 1 0.16500 119244.000000
7459 13712 1 0.16500 119244.000000
7459 15765 1 0.16500 119244.000000
7460 13712 1 0.16500 119244.000000
7460 14764 1 0.16500 119244.000000
7461 13712 1 0.16500 119244.000000
7461 15877 1 0.16500 119244.000000
7462 13713 1 0.16500 119244.000000
7462 14855 1 0.16500 119244.000000
7463 13713 1 0.16500 119244.000000
7463 16426 1 0.16500 119244.000000
7464 13714 1 0.16500 119244.000000
7464 16342 1 0.16500 119244.000000
7465 13714 1 0.16500 119244.000000
7465 14102 1 0.16500 119244.000000
7466 13714 1 0.16500 119244.000000
7466 15293 1 0.16500 119244.000000
7467 13715 1 0.16500 119244.000000
7467 14202 1 0.16500 119244.000000
7468 13715 1 0.16500 119244.000000
7468 14699 1 0.16500 119244.000000
7469 13600 1 0.16500 119244.000000
7469 13716 1 0.16500 119244.000000
7470 14336 1 0.16500 119244.000000
7470 20047 1 0.16500 119244.000000
7471 13717 1 0.16500 119244.000000
7471 16318 1 0.16500 119244.000000
7472 13718 1 0.16500 119244.000000
7472 16178 1 0.16500 119244.000000
7473 13719 1 0.16500 119244.000000
7473 16172 1 0.16500 119244.000000
7474 13720 1 0.16500 119244.000000
7474 14909 1 0.16500 119244.000000
7475 13720 1 0.16500 119244.000000
7475 15283 1 0.16500 119244.000000
7476 13720 1 0.16500 119244.000000
7476 15144 1 0.16500 119244.000000
7477 13375 1 0.16500 119244.000000
7477 13720 1 0.16500 119244.000000
7478 13721 1 0.16500 119244.000000
7478 15325 1 0.16500 119244.000000
7479 13722 1 0.16500 119244.000000
7479 13817 1 0.16500 119244.000000
7480 13722 1 0.16500 119244.000000
7480 14164 1 0.16500 119244.000000
7481 13723 1 0.16500 119244.000000
7481 14519 1 0.16500 119244.000000
7482 13723 1 0.16500 119244.000000
7482 15676 1 0.16500 119244.000000
7483 13723 1 0.16500 119244.000000
7483 13755 1 0.16500 119244.000000
7484 13724 1 0.16500 119244.000000
7484 15321 1 0.16500 119244.000000
7485 14801 1 0.16500 119244.000000
7485 20050 1 0.16500 119244.000000
7486 16069 1 0.16500 119244.000000
7486 20050 1 0.16500 119244.000000
7487 13725 1 0.16500 119244.000000
7487 14371 1 0.16500 119244.000000
7488 13725 1 0.16500 119244.000000
7488 15391 1 0.16500 119244.000000
7489 13725 1 0.16500 119244.000000
7489 14938 1 0.16500 119244.000000
7490 13726 1 0.16500 119244.000000
7490 14766 1 0.16500 119244.000000
7491 13726 1 0.16500 119244.000000
7491 13819 1 0.16500 119244.000000
7492 13726 1 0.16500 119244.000000
7492 13851 1 0.16500 119244.000000
7493 13727 1 0.16500 119244.000000
7493 15516 1 0.16500 119244.000000
7494 13727 1 0.16500 119244.000000
7494 15480 1 0.16500 119244.000000
7495 13728 1 0.16500 119244.000000
7495 14510 1 0.16500 119244.000000
7496 13728 1 0.16500 119244.000000
7496 14300 1 0.16500 119244.000000
7497 13745 1 0.16500 119244.000000
7497 20056 1 0.16500 119244.000000
7498 13729 1 0.16500 119244.000000
7498 14475 1 0.16500 119244.000000
7499 13729 1 0.16500 119244.000000
7499 15720 1 0.16500 119244.000000
7500 13729 1 0.16500 119244.000000
7500 14033 1 0.16500 119244.000000
7501 13729 1 0.16500 119244.000000
7501 14243 1 0.16500 119244.000000
7502 13730 1 0.16500 119244.000000
7502 15439 1 0.16500 119244.000000
7503 13730 1 0.16500 119244.000000
7503 14425 1 0.16500 119244.000000
7504 13730 1 0.16500 119244.000000
7504 14419 1 0.16500 119244.000000
7505 13731 1 0.16500 119244.000000
7505 15951 1 0.16500 119244.000000
7506 13494 1 0.16500 119244.000000
7506 13731 1 0.16500 119244.000000
7507 14661 1 0.16500 119244.000000
7507 15235 1 0.16500 119244.000000
7508 13732 1 0.16500 119244.000000
7508 14661 1 0.16500 119244.000000
7509 13732 1 0.16500 119244.000000
7509 15101 1 0.16500 119244.000000
7510 14389 1 0.16500 119244.000000
7510 20062 1 0.16500 119244.000000
7511 13733 1 0.16500 119244.000000
7511 14283 1 0.16500 119244.000000
7512 12211 1 0.16500 119244.000000
7512 13733 1 0.16500 119244.000000
7513 14284 1 0.16500 119244.000000
7513 16076 1 0.16500 119244.000000
7514 13951 1 0.16500 119244.000000
7514 14284 1 0.16500 119244.000000
7515 13734 1 0.16500 119244.000000
7515 15085 1 0.16500 119244.000000
7516 13735 1 0.16500 119244.000000
7516 13918 1 0.16500 119244.000000
7517 13735 1 0.16500 119244.000000
7517 16071 1 0.16500 119244.000000
7518 13736 1 0.16500 119244.000000
7518 14475 1 0.16500 119244.000000
7519 13736 1 0.16500 119244.000000
7519 15507 1 0.16500 119244.000000
7520 13737 1 0.16500 119244.000000
7520 15591 1 0.16500 119244.000000
7521 13737 1 0.16500 119244.000000
7521 15548 1 0.16500 119244.000000
7522 15548 1 0.16500 119244.000000
7522 16383 1 0.16500 119244.000000
7523 13738 1 0.16500 119244.000000
7523 16527 1 0.16500 119244.000000
7524 13738 1 0.16500 119244.000000
7524 14957 1 0.16500 119244.000000
7525 13738 1 0.16500 119244.000000
7525 14163 1 0.16500 119244.000000
7526 13739 1 0.16500 119244.000000
7526 16269 1 0.16500 119244.000000
7527 13739 1 0.16500 119244.000000
7527 15176 1 0.16500 119244.000000
7528 13086 1 0.16500 119244.000000
7528 20065 1 0.16500 119244.000000
7529 14007 1 0.16500 119244.000000
7529 20065 1 0.16500 119244.000000
7530 13740 1 0.16500 119244.000000
7530 14976 1 0.16500 119244.000000
7531 13740 1 0.16500 119244.000000
7531 16400 1 0.16500 119244.000000
7532 13740 1 0.16500 119244.000000
7532 15524 1 0.16500 119244.000000
7533 13741 1 0.16500 119244.000000
7533 13990 1 0.16500 119244.000000
7534 13741 1 0.16500 119244.000000
7534 14776 1 0.16500 119244.000000
7535 13742 1 0.16500 119244.000000
7535 16608 1 0.16500 119244.000000
7536 13743 1 0.16500 119244.000000
7536 16306 1 0.16500 119244.000000
7537 13743 1 0.16500 119244.000000
7537 16539 1 0.16500 119244.000000
7538 13744 1 0.16500 119244.000000
7538 15631 1 0.16500 119244.000000
7539 13745 1 0.16500 119244.000000
7539 16498 1 0.16500 119244.000000
7540 13745 1 0.16500 119244.000000
7540 15386 1 0.16500 119244.000000
7541 13746 1 0.16500 119244.000000
7541 16117 1 0.16500 119244.000000
7542 13746 1 0.16500 119244.000000
7542 15690 1 0.16500 119244.000000
7543 13746 1 0.16500 119244.000000
7543 14333 1 0.16500 119244.000000
7544 13747 1 0.16500 119244.000000
7544 15922 1 0.16500 119244.000000
7545 13748 1 0.16500 119244.000000
7545 16086 1 0.16500 119244.000000
7546 13748 1 0.16500 119244.000000
7546 15058 1 0.16500 119244.000000
7547 13750 1 0.16500 119244.000000
7547 13910 1 0.16500 119244.000000
7548 13751 1 0.16500 119244.000000
7548 14328 1 0.16500 119244.000000
7549 13751 1 0.16500 119244.000000
7549 13989 1 0.16500 119244.000000
7550 13751 1 0.16500 119244.000000
7550 15380 1 0.16500 119244.000000
7551 13752 1 0.16500 119244.000000
7551 20958 1 0.16500 119244.000000
7552 13752 1 0.16500 119244.000000
7552 16675 1 0.16500 119244.000000
7553 13753 1 0.16500 119244.000000
7553 15000 1 0.16500 119244.000000
7554 13753 1 0.16500 119244.000000
7554 16644 1 0.16500 119244.000000
7555 13754 1 0.16500 119244.000000
7555 14319 1 0.16500 119244.000000
7556 13755 1 0.16500 119244.000000
7556 15095 1 0.16500 119244.000000
7557 13755 1 0.16500 119244.000000
7557 14919 1 0.16500 119244.000000
7558 13755 1 0.16500 119244.000000
7558 14396 1 0.16500 119244.000000
7559 14016 1 0.16500 119244.000000
7559 20068 1 0.16500 119244.000000
7560 13756 1 0.16500 119244.000000
7560 15660 1 0.16500 119244.000000
7561 13756 1 0.16500 119244.000000
7561 16568 1 0.16500 119244.000000
7562 13756 1 0.16500 119244.000000
7562 14854 1 0.16500 119244.000000
7563 13756 1 0.16500 119244.000000
7563 13961 1 0.16500 119244.000000
7564 13757 1 0.16500 119244.000000
7564 15270 1 0.16500 119244.000000
7565 13757 1 0.16500 119244.000000
7565 13867 1 0.16500 119244.000000
7566 13758 1 0.16500 119244.000000
7566 16029 1 0.16500 119244.000000
7567 13759 1 0.16500 119244.000000
7567 14703 1 0.16500 119244.000000
7568 14703 1 0.16500 119244.000000
7568 16373 1 0.16500 119244.000000
7569 13759 1 0.16500 119244.000000
7569 14135 1 0.16500 119244.000000
7570 14282 1 0.16500 119244.000000
7570 14765 1 0.16500 119244.000000
7571 13760 1 0.16500 119244.000000
7571 14282 1 0.16500 119244.000000
7572 13760 1 0.16500 119244.000000
7572 14568 1 0.16500 119244.000000
7573 13761 1 0.16500 119244.000000
7573 14709 1 0.16500 119244.000000
7574 13761 1 0.16500 119244.000000
7574 15420 1 0.16500 119244.000000
7575 13761 1 0.16500 119244.000000
7575 16106 1 0.16500 119244.000000
7576 13764 1 0.16500 119244.000000
7576 14382 1 0.16500 119244.000000
7577 13764 1 0.16500 119244.000000
7577 15612 1 0.16500 119244.000000
7578 13765 1 0.16500 119244.000000
7578 15038 1 0.16500 119244.000000
7579 13766 1 0.16500 119244.000000
7579 14831 1 0.16500 119244.000000
7580 13766 1 0.16500 119244.000000
7580 20134 1 0.16500 119244.000000
7581 13766 1 0.16500 119244.000000
7581 15361 1 0.16500 119244.000000
7582 13767 1 0.16500 119244.000000
7582 15297 1 0.16500 119244.000000
7583 13768 1 0.16500 119244.000000
7583 16457 1 0.16500 119244.000000
7584 13769 1 0.16500 119244.000000
7584 14396 1 0.16500 119244.000000
7585 13769 1 0.16500 119244.000000
7585 15242 1 0.16500 119244.000000
7586 13770 1 0.16500 119244.000000
7586 16174 1 0.16500 119244.000000
7587 13770 1 0.16500 119244.000000
7587 16538 1 0.16500 119244.000000
7588 13771 1 0.16500 119244.000000
7588 15874 1 0.16500 119244.000000
7589 13771 1 0.16500 119244.000000
7589 14231 1 0.16500 119244.000000
7590 13771 1 0.16500 119244.000000
7590 13868 1 0.16500 119244.000000
7591 13772 1 0.16500 119244.000000
7591 14700 1 0.16500 119244.000000
7592 13772 1 0.16500 119244.000000
7592 16400 1 0.16500 119244.000000
7593 13772 1 0.16500 119244.000000
7593 15631 1 0.16500 119244.000000
7594 13773 1 0.16500 119244.000000
7594 15208 1 0.16500 119244.000000
7595 13773 1 0.16500 119244.000000
7595 14706 1 0.16500 119244.000000
7596 13773 1 0.16500 119244.000000
7596 14846 1 0.16500 119244.000000
7597 13774 1 0.16500 119244.000000
7597 13985 1 0.16500 119244.000000
7598 13774 1 0.16500 119244.000000
7598 20993 1 0.16500 119244.000000
7599 13775 1 0.16500 119244.000000
7599 16086 1 0.16500 119244.000000
7600 13775 1 0.16500 119244.000000
7600 14136 1 0.16500 119244.000000
7601 13776 1 0.16500 119244.000000
7601 13780 1 0.16500 119244.000000
7602 13776 1 0.16500 119244.000000
7602 15658 1 0.16500 119244.000000
7603 14266 1 0.16500 119244.000000
7603 15305 1 0.16500 119244.000000
7604 13777 1 0.16500 119244.000000
7604 15237 1 0.16500 119244.000000
7605 13777 1 0.16500 119244.000000
7605 15305 1 0.16500 119244.000000
7606 13777 1 0.16500 119244.000000
7606 15127 1 0.16500 119244.000000
7607 13778 1 0.16500 119244.000000
7607 15903 1 0.16500 119244.000000
7608 13779 1 0.16500 119244.000000
7608 14576 1 0.16500 119244.000000
7609 13779 1 0.16500 119244.000000
7609 15302 1 0.16500 119244.000000
7610 13780 1 0.16500 119244.000000
7610 15565 1 0.16500 119244.000000
7611 13781 1 0.16500 119244.000000
7611 14133 1 0.16500 119244.000000
7612 14249 1 0.16500 119244.000000
7612 20680 1 0.16500 119244.000000
7613 13782 1 0.16500 119244.000000
7613 20680 1 0.16500 119244.000000
7614 13782 1 0.16500 119244.000000
7614 19402 1 0.16500 119244.000000
7615 13783 1 0.16500 119244.000000
7615 15968 1 0.16500 119244.000000
7616 13783 1 0.16500 119244.000000
7616 16670 1 0.16500 119244.000000
7617 13783 1 0.16500 119244.000000
7617 15120 1 0.16500 119244.000000
7618 13785 1 0.16500 119244.000000
7618 14155 1 0.16500 119244.000000
7619 13785 1 0.16500 119244.000000
7619 14040 1 0.16500 119244.000000
7620 13785 1 0.16500 119244.000000
7620 14692 1 0.16500 119244.000000
7621 13786 1 0.16500 119244.000000
7621 16407 1 0.16500 119244.000000
7622 13786 1 0.16500 119244.000000
7622 14645 1 0.16500 119244.000000
7623 13786 1 0.16500 119244.000000
7623 15288 1 0.16500 119244.000000
7624 20074 1 0.16500 119244.000000
7624 20443 1 0.16500 119244.000000
7625 16854 1 0.16500 119244.000000
7625 20074 1 0.16500 119244.000000
7626 14963 1 0.16500 119244.000000
7626 20074 1 0.16500 119244.000000
7627 20077 1 0.16500 119244.000000
7627 20863 1 0.16500 119244.000000
7628 14823 1 0.16500 119244.000000
7628 20077 1 0.16500 119244.000000
7629 13787 1 0.16500 119244.000000
7629 15146 1 0.16500 119244.000000
7630 13787 1 0.16500 119244.000000
7630 15589 1 0.16500 119244.000000
7631 13787 1 0.16500 119244.000000
7631 16391 1 0.16500 119244.000000
7632 13788 1 0.16500 119244.000000
7632 14810 1 0.16500 119244.000000
7633 13788 1 0.16500 119244.000000
7633 15247 1 0.16500 119244.000000
7634 13788 1 0.16500 119244.000000
7634 16113 1 0.16500 119244.000000
7635 13788 1 0.16500 119244.000000
7635 15316 1 0.16500 119244.000000
7636 15587 1 0.16500 119244.000000
7636 20083 1 0.16500 119244.000000
7637 13789 1 0.16500 119244.000000
7637 14165 1 0.16500 119244.000000
7638 13789 1 0.16500 119244.000000
7638 20803 1 0.16500 119244.000000
7639 13789 1 0.16500 119244.000000
7639 16201 1 0.16500 119244.000000
7640 13790 1 0.16500 119244.000000
7640 14649 1 0.16500 119244.000000
7641 13790 1 0.16500 119244.000000
7641 14592 1 0.16500 119244.000000
7642 13791 1 0.16500 119244.000000
7642 16146 1 0.16500 119244.000000
7643 13791 1 0.16500 119244.000000
7643 16291 1 0.16500 119244.000000
7644 14518 1 0.16500 119244.000000
7644 15881 1 0.16500 119244.000000
7645 13792 1 0.16500 119244.000000
7645 15881 1 0.16500 119244.000000
7646 11990 1 0.16500 119244.000000
7646 13792 1 0.16500 119244.000000
7647 13793 1 0.16500 119244.000000
7647 15577 1 0.16500 119244.000000
7648 13793 1 0.16500 119244.000000
7648 14027 1 0.16500 119244.000000
7649 13794 1 0.16500 119244.000000
7649 16173 1 0.16500 119244.000000
7650 13794 1 0.16500 119244.000000
7650 13872 1 0.16500 119244.000000
7651 13795 1 0.16500 119244.000000
7651 14643 1 0.16500 119244.000000
7652 13795 1 0.16500 119244.000000
7652 15429 1 0.16500 119244.000000
7653 13795 1 0.16500 119244.000000
7653 14378 1 0.16500 119244.000000
7654 13796 1 0.16500 119244.000000
7654 16563 1 0.16500 119244.000000
7655 13035 1 0.16500 119244.000000
7655 15990 1 0.16500 119244.000000
7656 13797 1 0.16500 119244.000000
7656 15332 1 0.16500 119244.000000
7657 13798 1 0.16500 119244.000000
7657 20350 1 0.16500 119244.000000
7658 12613 1 0.16500 119244.000000
7658 15144 1 0.16500 119244.000000
7659 13799 1 0.16500 119244.000000
7659 14826 1 0.16500 119244.000000
7660 13799 1 0.16500 119244.000000
7660 15745 1 0.16500 119244.000000
7661 20086 1 0.16500 119244.000000
7661 20500 1 0.16500 119244.000000
7662 13903 1 0.16500 119244.000000
7662 20086 1 0.16500 119244.000000
7663 11939 1 0.16500 119244.000000
7663 20500 1 0.16500 119244.000000
7664 13800 1 0.16500 119244.000000
7664 14671 1 0.16500 119244.000000
7665 14633 1 0.16500 119244.000000
7665 20089 1 0.16500 119244.000000
7666 20089 1 0.16500 119244.000000
7666 20182 1 0.16500 119244.000000
7667 13802 1 0.16500 119244.000000
7667 15357 1 0.16500 119244.000000
7668 13803 1 0.16500 119244.000000
7668 15765 1 0.16500 119244.000000
7669 11543 1 0.16500 119244.000000
7669 14288 1 0.16500 119244.000000
7670 13156 1 0.16500 119244.000000
7670 16265 1 0.16500 119244.000000
7671 13804 1 0.16500 119244.000000
7671 16366 1 0.16500 119244.000000
7672 15087 1 0.16500 119244.000000
7672 16366 1 0.16500 119244.000000
7673 13805 1 0.16500 119244.000000
7673 15127 1 0.16500 119244.000000
7674 13046 1 0.16500 119244.000000
7674 13806 1 0.16500 119244.000000
7675 13807 1 0.16500 119244.000000
7675 15394 1 0.16500 119244.000000
7676 13807 1 0.16500 119244.000000
7676 15774 1 0.16500 119244.000000
7677 13807 1 0.16500 119244.000000
7677 15274 1 0.16500 119244.000000
7678 13808 1 0.16500 119244.000000
7678 14931 1 0.16500 119244.000000
7679 13808 1 0.16500 119244.000000
7679 16013 1 0.16500 119244.000000
7680 13808 1 0.16500 119244.000000
7680 14915 1 0.16500 119244.000000
7681 13809 1 0.16500 119244.000000
7681 15368 1 0.16500 119244.000000
7682 13809 1 0.16500 119244.000000
7682 14554 1 0.16500 119244.000000
7683 13810 1 0.16500 119244.000000
7683 14658 1 0.16500 119244.000000
7684 13810 1 0.16500 119244.000000
7684 16545 1 0.16500 119244.000000
7685 13810 1 0.16500 119244.000000
7685 15945 1 0.16500 119244.000000
7686 14850 1 0.16500 119244.000000
7686 20092 1 0.16500 119244.000000
7687 14106 1 0.16500 119244.000000
7687 20095 1 0.16500 119244.000000
7688 15482 1 0.16500 119244.000000
7688 20095 1 0.16500 119244.000000
7689 13812 1 0.16500 119244.000000
7689 15540 1 0.16500 119244.000000
7690 13812 1 0.16500 119244.000000
7690 16392 1 0.16500 119244.000000
7691 13813 1 0.16500 119244.000000
7691 15908 1 0.16500 119244.000000
7692 13813 1 0.16500 119244.000000
7692 16321 1 0.16500 119244.000000
7693 14858 1 0.16500 119244.000000
7693 15624 1 0.16500 119244.000000
7694 13814 1 0.16500 119244.000000
7694 14139 1 0.16500 119244.000000
7695 13814 1 0.16500 119244.000000
7695 14858 1 0.16500 119244.000000
7696 13814 1 0.16500 119244.000000
7696 16240 1 0.16500 119244.000000
7697 13815 1 0.16500 119244.000000
7697 16625 1 0.16500 119244.000000
7698 13815 1 0.16500 119244.000000
7698 14674 1 0.16500 119244.000000
7699 14484 1 0.16500 119244.000000
7699 16625 1 0.16500 119244.000000
7700 13816 1 0.16500 119244.000000
7700 16451 1 0.16500 119244.000000
7701 13816 1 0.16500 119244.000000
7701 15821 1 0.16500 119244.000000
7702 13817 1 0.16500 119244.000000
7702 16005 1 0.16500 119244.000000
7703 13817 1 0.16500 119244.000000
7703 14603 1 0.16500 119244.000000
7704 13818 1 0.16500 119244.000000
7704 15375 1 0.16500 119244.000000
7705 13818 1 0.16500 119244.000000
7705 15909 1 0.16500 119244.000000
7706 13819 1 0.16500 119244.000000
7706 14268 1 0.16500 119244.000000
7707 13819 1 0.16500 119244.000000
7707 14834 1 0.16500 119244.000000
7708 13820 1 0.16500 119244.000000
7708 16301 1 0.16500 119244.000000
7709 13820 1 0.16500 119244.000000
7709 15721 1 0.16500 119244.000000
7710 13820 1 0.16500 119244.000000
7710 15324 1 0.16500 119244.000000
7711 20098 1 0.16500 119244.000000
7711 20698 1 0.16500 119244.000000
7712 14477 1 0.16500 119244.000000
7712 20098 1 0.16500 119244.000000
7713 13821 1 0.16500 119244.000000
7713 15593 1 0.16500 119244.000000
7714 13821 1 0.16500 119244.000000
7714 19999 1 0.16500 119244.000000
7715 13822 1 0.16500 119244.000000
7715 16496 1 0.16500 119244.000000
7716 13822 1 0.16500 119244.000000
7716 16245 1 0.16500 119244.000000
7717 13822 1 0.16500 119244.000000
7717 14760 1 0.16500 119244.000000
7718 13823 1 0.16500 119244.000000
7718 16589 1 0.16500 119244.000000
7719 13823 1 0.16500 119244.000000
7719 15447 1 0.16500 119244.000000
7720 13823 1 0.16500 119244.000000
7720 15771 1 0.16500 119244.000000
7721 13824 1 0.16500 119244.000000
7721 14834 1 0.16500 119244.000000
7722 13825 1 0.16500 119244.000000
7722 14071 1 0.16500 119244.000000
7723 13825 1 0.16500 119244.000000
7723 16181 1 0.16500 119244.000000
7724 13825 1 0.16500 119244.000000
7724 14481 1 0.16500 119244.000000
7725 13825 1 0.16500 119244.000000
7725 15246 1 0.16500 119244.000000
7726 13826 1 0.16500 119244.000000
7726 14671 1 0.16500 119244.000000
7727 13826 1 0.16500 119244.000000
7727 15973 1 0.16500 119244.000000
7728 13826 1 0.16500 119244.000000
7728 14650 1 0.16500 119244.000000
7729 13827 1 0.16500 119244.000000
7729 16546 1 0.16500 119244.000000
7730 13827 1 0.16500 119244.000000
7730 15140 1 0.16500 119244.000000
7731 13828 1 0.16500 119244.000000
7731 14640 1 0.16500 119244.000000
7732 17148 1 0.16500 119244.000000
7732 20101 1 0.16500 119244.000000
7733 20101 1 0.16500 119244.000000
7733 20749 1 0.16500 119244.000000
7734 15728 1 0.16500 119244.000000
7734 20101 1 0.16500 119244.000000
7735 13829 1 0.16500 119244.000000
7735 16003 1 0.16500 119244.000000
7736 13829 1 0.16500 119244.000000
7736 14872 1 0.16500 119244.000000
7737 13829 1 0.16500 119244.000000
7737 14156 1 0.16500 119244.000000
7738 13830 1 0.16500 119244.000000
7738 15033 1 0.16500 119244.000000
7739 13509 1 0.16500 119244.000000
7739 14843 1 0.16500 119244.000000
7740 11631 1 0.16500 119244.000000
7740 13830 1 0.16500 119244.000000
7741 13831 1 0.16500 119244.000000
7741 20731 1 0.16500 119244.000000
7742 13831 1 0.16500 119244.000000
7742 20413 1 0.16500 119244.000000
7743 13831 1 0.16500 119244.000000
7743 14598 1 0.16500 119244.000000
7744 13831 1 0.16500 119244.000000
7744 15770 1 0.16500 119244.000000
7745 13832 1 0.16500 119244.000000
7745 16078 1 0.16500 119244.000000
7746 13833 1 0.16500 119244.000000
7746 15434 1 0.16500 119244.000000
7747 13833 1 0.16500 119244.000000
7747 14716 1 0.16500 119244.000000
7748 13833 1 0.16500 119244.000000
7748 14501 1 0.16500 119244.000000
7749 13833 1 0.16500 119244.000000
7749 15600 1 0.16500 119244.000000
7750 13835 1 0.16500 119244.000000
7750 16033 1 0.16500 119244.000000
7751 13835 1 0.16500 119244.000000
7751 15381 1 0.16500 119244.000000
7752 13836 1 0.16500 119244.000000
7752 16092 1 0.16500 119244.000000
7753 13836 1 0.16500 119244.000000
7753 15755 1 0.16500 119244.000000
7754 13836 1 0.16500 119244.000000
7754 16036 1 0.16500 119244.000000
7755 13837 1 0.16500 119244.000000
7755 16622 1 0.16500 119244.000000
7756 13837 1 0.16500 119244.000000
7756 15387 1 0.16500 119244.000000
7757 13837 1 0.16500 119244.000000
7757 16592 1 0.16500 119244.000000
7758 13838 1 0.16500 119244.000000
7758 16047 1 0.16500 119244.000000
7759 12640 1 0.16500 119244.000000
7759 16540 1 0.16500 119244.000000
7760 13839 1 0.16500 119244.000000
7760 15817 1 0.16500 119244.000000
7761 12850 1 0.16500 119244.000000
7761 16260 1 0.16500 119244.000000
7762 13841 1 0.16500 119244.000000
7762 14012 1 0.16500 119244.000000
7763 13849 1 0.16500 119244.000000
7763 14012 1 0.16500 119244.000000
7764 13841 1 0.16500 119244.000000
7764 15996 1 0.16500 119244.000000
7765 11850 1 0.16500 119244.000000
7765 16658 1 0.16500 119244.000000
7766 13842 1 0.16500 119244.000000
7766 15308 1 0.16500 119244.000000
7767 13842 1 0.16500 119244.000000
7767 14834 1 0.16500 119244.000000
7768 13843 1 0.16500 119244.000000
7768 14965 1 0.16500 119244.000000
7769 15089 1 0.16500 119244.000000
7769 20104 1 0.16500 119244.000000
7770 20104 1 0.16500 119244.000000
7770 20278 1 0.16500 119244.000000
7771 13844 1 0.16500 119244.000000
7771 16359 1 0.16500 119244.000000
7772 13844 1 0.16500 119244.000000
7772 17120 1 0.16500 119244.000000
7773 11605 1 0.16500 119244.000000
7773 13844 1 0.16500 119244.000000
7774 14682 1 0.16500 119244.000000
7774 15814 1 0.16500 119244.000000
7775 13845 1 0.16500 119244.000000
7775 14951 1 0.16500 119244.000000
7776 13845 1 0.16500 119244.000000
7776 15814 1 0.16500 119244.000000
7777 13846 1 0.16500 119244.000000
7777 13918 1 0.16500 119244.000000
7778 13847 1 0.16500 119244.000000
7778 16481 1 0.16500 119244.000000
7779 13847 1 0.16500 119244.000000
7779 14513 1 0.16500 119244.000000
7780 13848 1 0.16500 119244.000000
7780 15298 1 0.16500 119244.000000
7781 13655 1 0.16500 119244.000000
7781 15090 1 0.16500 119244.000000
7782 13848 1 0.16500 119244.000000
7782 16486 1 0.16500 119244.000000
7783 13849 1 0.16500 119244.000000
7783 19906 1 0.16500 119244.000000
7784 14644 1 0.16500 119244.000000
7784 16387 1 0.16500 119244.000000
7785 13849 1 0.16500 119244.000000
7785 14644 1 0.16500 119244.000000
7786 13850 1 0.16500 119244.000000
7786 14480 1 0.16500 119244.000000
7787 13850 1 0.16500 119244.000000
7787 15684 1 0.16500 119244.000000
7788 13851 1 0.16500 119244.000000
7788 14902 1 0.16500 119244.000000
7789 13851 1 0.16500 119244.000000
7789 16165 1 0.16500 119244.000000
7790 13851 1 0.16500 119244.000000
7790 16658 1 0.16500 119244.000000
7791 13852 1 0.16500 119244.000000
7791 15323 1 0.16500 119244.000000
7792 13853 1 0.16500 119244.000000
7792 15669 1 0.16500 119244.000000
7793 13854 1 0.16500 119244.000000
7793 15318 1 0.16500 119244.000000
7794 13854 1 0.16500 119244.000000
7794 16645 1 0.16500 119244.000000
7795 13854 1 0.16500 119244.000000
7795 14976 1 0.16500 119244.000000
7796 13855 1 0.16500 119244.000000
7796 16327 1 0.16500 119244.000000
7797 13855 1 0.16500 119244.000000
7797 14286 1 0.16500 119244.000000
7798 13857 1 0.16500 119244.000000
7798 16277 1 0.16500 119244.000000
7799 13857 1 0.16500 119244.000000
7799 14256 1 0.16500 119244.000000
7800 14054 1 0.16500 119244.000000
7800 20107 1 0.16500 119244.000000
7801 13858 1 0.16500 119244.000000
7801 15517 1 0.16500 119244.000000
7802 13858 1 0.16500 119244.000000
7802 16297 1 0.16500 119244.000000
7803 13859 1 0.16500 119244.000000
7803 14433 1 0.16500 119244.000000
7804 13860 1 0.16500 119244.000000
7804 15443 1 0.16500 119244.000000
7805 20110 1 0.16500 119244.000000
7805 20203 1 0.16500 119244.000000
7806 20110 1 0.16500 119244.000000
7806 20764 1 0.16500 119244.000000
7807 13861 1 0.16500 119244.000000
7807 20461 1 0.16500 119244.000000
7808 13862 1 0.16500 119244.000000
7808 15124 1 0.16500 119244.000000
7809 13862 1 0.16500 119244.000000
7809 14084 1 0.16500 119244.000000
7810 13862 1 0.16500 119244.000000
7810 15054 1 0.16500 119244.000000
7811 13862 1 0.16500 119244.000000
7811 15762 1 0.16500 119244.000000
7812 14133 1 0.16500 119244.000000
7812 20113 1 0.16500 119244.000000
7813 20113 1 0.16500 119244.000000
7813 20923 1 0.16500 119244.000000
7814 13863 1 0.16500 119244.000000
7814 15877 1 0.16500 119244.000000
7815 13863 1 0.16500 119244.000000
7815 13949 1 0.16500 119244.000000
7816 13864 1 0.16500 119244.000000
7816 15923 1 0.16500 119244.000000
7817 13864 1 0.16500 119244.000000
7817 15494 1 0.16500 119244.000000
7818 20191 1 0.16500 119244.000000
7818 20725 1 0.16500 119244.000000
7819 15989 1 0.16500 119244.000000
7819 20191 1 0.16500 119244.000000
7820 12431 1 0.16500 119244.000000
7820 15375 1 0.16500 119244.000000
7821 13866 1 0.16500 119244.000000
7821 15710 1 0.16500 119244.000000
7822 13866 1 0.16500 119244.000000
7822 15350 1 0.16500 119244.000000
7823 13867 1 0.16500 119244.000000
7823 14214 1 0.16500 119244.000000
7824 13867 1 0.16500 119244.000000
7824 16628 1 0.16500 119244.000000
7825 13867 1 0.16500 119244.000000
7825 16011 1 0.16500 119244.000000
7826 13869 1 0.16500 119244.000000
7826 16256 1 0.16500 119244.000000
7827 13869 1 0.16500 119244.000000
7827 16617 1 0.16500 119244.000000
7828 13870 1 0.16500 119244.000000
7828 16407 1 0.16500 119244.000000
7829 13870 1 0.16500 119244.000000
7829 16260 1 0.16500 119244.000000
7830 13871 1 0.16500 119244.000000
7830 16693 1 0.16500 119244.000000
7831 13871 1 0.16500 119244.000000
7831 15191 1 0.16500 119244.000000
7832 16452 1 0.16500 119244.000000
7832 16672 1 0.16500 119244.000000
7833 13872 1 0.16500 119244.000000
7833 16672 1 0.16500 119244.000000
7834 13873 1 0.16500 119244.000000
7834 20452 1 0.16500 119244.000000
7835 13873 1 0.16500 119244.000000
7835 15187 1 0.16500 119244.000000
7836 13873 1 0.16500 119244.000000
7836 14866 1 0.16500 119244.000000
7837 13874 1 0.16500 119244.000000
7837 14655 1 0.16500 119244.000000
7838 13874 1 0.16500 119244.000000
7838 14876 1 0.16500 119244.000000
7839 13875 1 0.16500 119244.000000
7839 14205 1 0.16500 119244.000000
7840 13876 1 0.16500 119244.000000
7840 14676 1 0.16500 119244.000000
7841 13876 1 0.16500 119244.000000
7841 13976 1 0.16500 119244.000000
7842 20116 1 0.16500 119244.000000
7842 20332 1 0.16500 119244.000000
7843 13877 1 0.16500 119244.000000
7843 20695 1 0.16500 119244.000000
7844 13877 1 0.16500 119244.000000
7844 13903 1 0.16500 119244.000000
7845 13877 1 0.16500 119244.000000
7845 16340 1 0.16500 119244.000000
7846 13878 1 0.16500 119244.000000
7846 14882 1 0.16500 119244.000000
7847 13878 1 0.16500 119244.000000
7847 13879 1 0.16500 119244.000000
7848 13879 1 0.16500 119244.000000
7848 14752 1 0.16500 119244.000000
7849 13879 1 0.16500 119244.000000
7849 15647 1 0.16500 119244.000000
7850 13880 1 0.16500 119244.000000
7850 14787 1 0.16500 119244.000000
7851 15738 1 0.16500 119244.000000
7851 20506 1 0.16500 119244.000000
7852 13880 1 0.16500 119244.000000
7852 15738 1 0.16500 119244.000000
7853 13881 1 0.16500 119244.000000
7853 16116 1 0.16500 119244.000000
7854 13882 1 0.16500 119244.000000
7854 15412 1 0.16500 119244.000000
7855 13882 1 0.16500 119244.000000
7855 13907 1 0.16500 119244.000000
7856 13883 1 0.16500 119244.000000
7856 15761 1 0.16500 119244.000000
7857 13883 1 0.16500 119244.000000
7857 14510 1 0.16500 119244.000000
7858 13883 1 0.16500 119244.000000
7858 16233 1 0.16500 119244.000000
7859 14004 1 0.16500 119244.000000
7859 20119 1 0.16500 119244.000000
7860 13884 1 0.16500 119244.000000
7860 20167 1 0.16500 119244.000000
7861 13884 1 0.16500 119244.000000
7861 20698 1 0.16500 119244.000000
7862 13885 1 0.16500 119244.000000
7862 20395 1 0.16500 119244.000000
7863 13885 1 0.16500 119244.000000
7863 20948 1 0.16500 119244.000000
7864 13885 1 0.16500 119244.000000
7864 16655 1 0.16500 119244.000000
7865 13303 1 0.16500 119244.000000
7865 13886 1 0.16500 119244.000000
7866 13886 1 0.16500 119244.000000
7866 14660 1 0.16500 119244.000000
7867 13886 1 0.16500 119244.000000
7867 14494 1 0.16500 119244.000000
7868 13886 1 0.16500 119244.000000
7868 16611 1 0.16500 119244.000000
7869 13888 1 0.16500 119244.000000
7869 16262 1 0.16500 119244.000000
7870 13888 1 0.16500 119244.000000
7870 13935 1 0.16500 119244.000000
7871 13889 1 0.16500 119244.000000
7871 15492 1 0.16500 119244.000000
7872 13889 1 0.16500 119244.000000
7872 14622 1 0.16500 119244.000000
7873 13890 1 0.16500 119244.000000
7873 15644 1 0.16500 119244.000000
7874 13890 1 0.16500 119244.000000
7874 16186 1 0.16500 119244.000000
7875 13891 1 0.16500 119244.000000
7875 14767 1 0.16500 119244.000000
7876 13891 1 0.16500 119244.000000
7876 14196 1 0.16500 119244.000000
7877 13891 1 0.16500 119244.000000
7877 20749 1 0.16500 119244.000000
7878 13458 1 0.16500 119244.000000
7878 13892 1 0.16500 119244.000000
7879 13892 1 0.16500 119244.000000
7879 15674 1 0.16500 119244.000000
7880 13892 1 0.16500 119244.000000
7880 16332 1 0.16500 119244.000000
7881 13893 1 0.16500 119244.000000
7881 16056 1 0.16500 119244.000000
7882 13893 1 0.16500 119244.000000
7882 16353 1 0.16500 119244.000000
7883 13894 1 0.16500 119244.000000
7883 15278 1 0.16500 119244.000000
7884 13894 1 0.16500 119244.000000
7884 15700 1 0.16500 119244.000000
7885 13894 1 0.16500 119244.000000
7885 13983 1 0.16500 119244.000000
7886 13895 1 0.16500 119244.000000
7886 15909 1 0.16500 119244.000000
7887 13895 1 0.16500 119244.000000
7887 15960 1 0.16500 119244.000000
7888 13895 1 0.16500 119244.000000
7888 15226 1 0.16500 119244.000000
7889 13896 1 0.16500 119244.000000
7889 16512 1 0.16500 119244.000000
7890 13896 1 0.16500 119244.000000
7890 16115 1 0.16500 119244.000000
7891 13896 1 0.16500 119244.000000
7891 14852 1 0.16500 119244.000000
7892 13897 1 0.16500 119244.000000
7892 14345 1 0.16500 119244.000000
7893 13897 1 0.16500 119244.000000
7893 15306 1 0.16500 119244.000000
7894 13897 1 0.16500 119244.000000
7894 13916 1 0.16500 119244.000000
7895 13898 1 0.16500 119244.000000
7895 16178 1 0.16500 119244.000000
7896 13898 1 0.16500 119244.000000
7896 16233 1 0.16500 119244.000000
7897 12005 1 0.16500 119244.000000
7897 13898 1 0.16500 119244.000000
7898 13899 1 0.16500 119244.000000
7898 14493 1 0.16500 119244.000000
7899 13899 1 0.16500 119244.000000
7899 14832 1 0.16500 119244.000000
7900 13899 1 0.16500 119244.000000
7900 15694 1 0.16500 119244.000000
7901 13900 1 0.16500 119244.000000
7901 14625 1 0.16500 119244.000000
7902 13901 1 0.16500 119244.000000
7902 16417 1 0.16500 119244.000000
7903 13901 1 0.16500 119244.000000
7903 14395 1 0.16500 119244.000000
7904 13902 1 0.16500 119244.000000
7904 16278 1 0.16500 119244.000000
7905 13902 1 0.16500 119244.000000
7905 14268 1 0.16500 119244.000000
7906 13904 1 0.16500 119244.000000
7906 14750 1 0.16500 119244.000000
7907 13904 1 0.16500 119244.000000
7907 14220 1 0.16500 119244.000000
7908 20122 1 0.16500 119244.000000
7908 20848 1 0.16500 119244.000000
7909 13905 1 0.16500 119244.000000
7909 20963 1 0.16500 119244.000000
7910 13905 1 0.16500 119244.000000
7910 14044 1 0.16500 119244.000000
7911 13906 1 0.16500 119244.000000
7911 16441 1 0.16500 119244.000000
7912 13906 1 0.16500 119244.000000
7912 15128 1 0.16500 119244.000000
7913 13907 1 0.16500 119244.000000
7913 14125 1 0.16500 119244.000000
7914 13907 1 0.16500 119244.000000
7914 14916 1 0.16500 119244.000000
7915 13907 1 0.16500 119244.000000
7915 16152 1 0.16500 119244.000000
7916 13908 1 0.16500 119244.000000
7916 16309 1 0.16500 119244.000000
7917 13908 1 0.16500 119244.000000
7917 16102 1 0.16500 119244.000000
7918 13909 1 0.16500 119244.000000
7918 15417 1 0.16500 119244.000000
7919 13909 1 0.16500 119244.000000
7919 14625 1 0.16500 119244.000000
7920 13909 1 0.16500 119244.000000
7920 15720 1 0.16500 119244.000000
7921 13910 1 0.16500 119244.000000
7921 15004 1 0.16500 119244.000000
7922 13910 1 0.16500 119244.000000
7922 14377 1 0.16500 119244.000000
7923 13911 1 0.16500 119244.000000
7923 15196 1 0.16500 119244.000000
7924 13911 1 0.16500 119244.000000
7924 16175 1 0.16500 119244.000000
7925 13911 1 0.16500 119244.000000
7925 13966 1 0.16500 119244.000000
7926 13912 1 0.16500 119244.000000
7926 15592 1 0.16500 119244.000000
7927 13913 1 0.16500 119244.000000
7927 16661 1 0.16500 119244.000000
7928 13913 1 0.16500 119244.000000
7928 14447 1 0.16500 119244.000000
7929 13914 1 0.16500 119244.000000
7929 16482 1 0.16500 119244.000000
7930 13914 1 0.16500 119244.000000
7930 15389 1 0.16500 119244.000000
7931 13914 1 0.16500 119244.000000
7931 13979 1 0.16500 119244.000000
7932 16103 1 0.16500 119244.000000
7932 20125 1 0.16500 119244.000000
7933 17638 1 0.16500 119244.000000
7933 20125 1 0.16500 119244.000000
7934 13915 1 0.16500 119244.000000
7934 16349 1 0.16500 119244.000000
7935 13915 1 0.16500 119244.000000
7935 15835 1 0.16500 119244.000000
7936 13915 1 0.16500 119244.000000
7936 14437 1 0.16500 119244.000000
7937 13916 1 0.16500 119244.000000
7937 15897 1 0.16500 119244.000000
7938 13916 1 0.16500 119244.000000
7938 14299 1 0.16500 119244.000000
7939 13916 1 0.16500 119244.000000
7939 14962 1 0.16500 119244.000000
7940 13917 1 0.16500 119244.000000
7940 16585 1 0.16500 119244.000000
7941 13917 1 0.16500 119244.000000
7941 14873 1 0.16500 119244.000000
7942 13918 1 0.16500 119244.000000
7942 15399 1 0.16500 119244.000000
7943 13919 1 0.16500 119244.000000
7943 14234 1 0.16500 119244.000000
7944 13919 1 0.16500 119244.000000
7944 16006 1 0.16500 119244.000000
7945 14823 1 0.16500 119244.000000
7945 20128 1 0.16500 119244.000000
7946 13920 1 0.16500 119244.000000
7946 14516 1 0.16500 119244.000000
7947 13920 1 0.16500 119244.000000
7947 15614 1 0.16500 119244.000000
7948 13920 1 0.16500 119244.000000
7948 14102 1 0.16500 119244.000000
7949 13921 1 0.16500 119244.000000
7949 16025 1 0.16500 119244.000000
7950 13922 1 0.16500 119244.000000
7950 15230 1 0.16500 119244.000000
7951 13923 1 0.16500 119244.000000
7951 16422 1 0.16500 119244.000000
7952 13923 1 0.16500 119244.000000
7952 15291 1 0.16500 119244.000000
7953 13019 1 0.16500 119244.000000
7953 13923 1 0.16500 119244.000000
7954 13924 1 0.16500 119244.000000
7954 16521 1 0.16500 119244.000000
7955 13925 1 0.16500 119244.000000
7955 16494 1 0.16500 119244.000000
7956 20131 1 0.16500 119244.000000
7956 20686 1 0.16500 119244.000000
7957 13926 1 0.16500 119244.000000
7957 16420 1 0.16500 119244.000000
7958 13926 1 0.16500 119244.000000
7958 14393 1 0.16500 119244.000000
7959 13926 1 0.16500 119244.000000
7959 15566 1 0.16500 119244.000000
7960 13927 1 0.16500 119244.000000
7960 15241 1 0.16500 119244.000000
7961 13927 1 0.16500 119244.000000
7961 16533 1 0.16500 119244.000000
7962 13928 1 0.16500 119244.000000
7962 16612 1 0.16500 119244.000000
7963 13929 1 0.16500 119244.000000
7963 15977 1 0.16500 119244.000000
7964 13929 1 0.16500 119244.000000
7964 15711 1 0.16500 119244.000000
7965 13929 1 0.16500 119244.000000
7965 16200 1 0.16500 119244.000000
7966 13929 1 0.16500 119244.000000
7966 15596 1 0.16500 119244.000000
7967 13930 1 0.16500 119244.000000
7967 15629 1 0.16500 119244.000000
7968 13930 1 0.16500 119244.000000
7968 14135 1 0.16500 119244.000000
7969 13932 1 0.16500 119244.000000
7969 15251 1 0.16500 119244.000000
7970 13932 1 0.16500 119244.000000
7970 15298 1 0.16500 119244.000000
7971 13932 1 0.16500 119244.000000
7971 15032 1 0.16500 119244.000000
7972 16517 1 0.16500 119244.000000
7972 16554 1 0.16500 119244.000000
7973 14729 1 0.16500 119244.000000
7973 16517 1 0.16500 119244.000000
7974 13933 1 0.16500 119244.000000
7974 16517 1 0.16500 119244.000000
7975 13934 1 0.16500 119244.000000
7975 15959 1 0.16500 119244.000000
7976 13934 1 0.16500 119244.000000
7976 14804 1 0.16500 119244.000000
7977 13935 1 0.16500 119244.000000
7977 14613 1 0.16500 119244.000000
7978 13936 1 0.16500 119244.000000
7978 20839 1 0.16500 119244.000000
7979 13936 1 0.16500 119244.000000
7979 15709 1 0.16500 119244.000000
7980 13936 1 0.16500 119244.000000
7980 20215 1 0.16500 119244.000000
7981 13937 1 0.16500 119244.000000
7981 17232 1 0.16500 119244.000000
7982 13938 1 0.16500 119244.000000
7982 16294 1 0.16500 119244.000000
7983 13938 1 0.16500 119244.000000
7983 15811 1 0.16500 119244.000000
7984 13939 1 0.16500 119244.000000
7984 16618 1 0.16500 119244.000000
7985 13939 1 0.16500 119244.000000
7985 14859 1 0.16500 119244.000000
7986 13940 1 0.16500 119244.000000
7986 15075 1 0.16500 119244.000000
7987 13940 1 0.16500 119244.000000
7987 15661 1 0.16500 119244.000000
7988 13940 1 0.16500 119244.000000
7988 16576 1 0.16500 119244.000000
7989 13941 1 0.16500 119244.000000
7989 14403 1 0.16500 119244.000000
7990 13941 1 0.16500 119244.000000
7990 20854 1 0.16500 119244.000000
7991 13941 1 0.16500 119244.000000
7991 20824 1 0.16500 119244.000000
7992 13942 1 0.16500 119244.000000
7992 15436 1 0.16500 119244.000000
7993 13942 1 0.16500 119244.000000
7993 14494 1 0.16500 119244.000000
7994 13943 1 0.16500 119244.000000
7994 16026 1 0.16500 119244.000000
7995 13944 1 0.16500 119244.000000
7995 14999 1 0.16500 119244.000000
7996 13944 1 0.16500 119244.000000
7996 14936 1 0.16500 119244.000000
7997 13944 1 0.16500 119244.000000
7997 15856 1 0.16500 119244.000000
7998 13945 1 0.16500 119244.000000
7998 16086 1 0.16500 119244.000000
7999 13945 1 0.16500 119244.000000
7999 14192 1 0.16500 119244.000000
8000 13945 1 0.16500 119244.000000
8000 14878 1 0.16500 119244.000000
8001 13947 1 0.16500 119244.000000
8001 14653 1 0.16500 119244.000000
8002 13947 1 0.16500 119244.000000
8002 14694 1 0.16500 119244.000000
8003 13947 1 0.16500 119244.000000
8003 15921 1 0.16500 119244.000000
8004 13948 1 0.16500 119244.000000
8004 15053 1 0.16500 119244.000000
8005 13948 1 0.16500 119244.000000
8005 15289 1 0.16500 119244.000000
8006 13948 1 0.16500 119244.000000
8006 16143 1 0.16500 119244.000000
8007 13948 1 0.16500 119244.000000
8007 14193 1 0.16500 119244.000000
8008 13949 1 0.16500 119244.000000
8008 15765 1 0.16500 119244.000000
8009 13949 1 0.16500 119244.000000
8009 14733 1 0.16500 119244.000000
8010 13950 1 0.16500 119244.000000
8010 14114 1 0.16500 119244.000000
8011 13950 1 0.16500 119244.000000
8011 20371 1 0.16500 119244.000000
8012 15919 1 0.16500 119244.000000
8012 20137 1 0.16500 119244.000000
8013 16404 1 0.16500 119244.000000
8013 20137 1 0.16500 119244.000000
8014 13734 1 0.16500 119244.000000
8014 13951 1 0.16500 119244.000000
8015 13952 1 0.16500 119244.000000
8015 16342 1 0.16500 119244.000000
8016 13952 1 0.16500 119244.000000
8016 14417 1 0.16500 119244.000000
8017 13952 1 0.16500 119244.000000
8017 16631 1 0.16500 119244.000000
8018 13952 1 0.16500 119244.000000
8018 14901 1 0.16500 119244.000000
8019 13953 1 0.16500 119244.000000
8019 15593 1 0.16500 119244.000000
8020 13953 1 0.16500 119244.000000
8020 16608 1 0.16500 119244.000000
8021 13953 1 0.16500 119244.000000
8021 14545 1 0.16500 119244.000000
8022 13248 1 0.16500 119244.000000
8022 13953 1 0.16500 119244.000000
8023 13954 1 0.16500 119244.000000
8023 15480 1 0.16500 119244.000000
8024 13954 1 0.16500 119244.000000
8024 15023 1 0.16500 119244.000000
8025 13955 1 0.16500 119244.000000
8025 16532 1 0.16500 119244.000000
8026 13955 1 0.16500 119244.000000
8026 15995 1 0.16500 119244.000000
8027 13955 1 0.16500 119244.000000
8027 15443 1 0.16500 119244.000000
8028 13956 1 0.16500 119244.000000
8028 16378 1 0.16500 119244.000000
8029 13957 1 0.16500 119244.000000
8029 14085 1 0.16500 119244.000000
8030 13957 1 0.16500 119244.000000
8030 16636 1 0.16500 119244.000000
8031 13957 1 0.16500 119244.000000
8031 14298 1 0.16500 119244.000000
8032 13957 1 0.16500 119244.000000
8032 15902 1 0.16500 119244.000000
8033 13958 1 0.16500 119244.000000
8033 14481 1 0.16500 119244.000000
8034 13958 1 0.16500 119244.000000
8034 14516 1 0.16500 119244.000000
8035 13958 1 0.16500 119244.000000
8035 14974 1 0.16500 119244.000000
8036 13959 1 0.16500 119244.000000
8036 14604 1 0.16500 119244.000000
8037 13959 1 0.16500 119244.000000
8037 15243 1 0.16500 119244.000000
8038 13960 1 0.16500 119244.000000
8038 15794 1 0.16500 119244.000000
8039 13960 1 0.16500 119244.000000
8039 15683 1 0.16500 119244.000000
8040 13961 1 0.16500 119244.000000
8040 15420 1 0.16500 119244.000000
8041 13961 1 0.16500 119244.000000
8041 14221 1 0.16500 119244.000000
8042 13962 1 0.16500 119244.000000
8042 14065 1 0.16500 119244.000000
8043 15153 1 0.16500 119244.000000
8043 20140 1 0.16500 119244.000000
8044 15153 1 0.16500 119244.000000
8044 15680 1 0.16500 119244.000000
8045 20143 1 0.16500 119244.000000
8045 20266 1 0.16500 119244.000000
8046 13963 1 0.16500 119244.000000
8046 16492 1 0.16500 119244.000000
8047 13964 1 0.16500 119244.000000
8047 15829 1 0.16500 119244.000000
8048 13964 1 0.16500 119244.000000
8048 15833 1 0.16500 119244.000000
8049 13965 1 0.16500 119244.000000
8049 15260 1 0.16500 119244.000000
8050 13965 1 0.16500 119244.000000
8050 15944 1 0.16500 119244.000000
8051 13966 1 0.16500 119244.000000
8051 14539 1 0.16500 119244.000000
8052 13966 1 0.16500 119244.000000
8052 14018 1 0.16500 119244.000000
8053 13968 1 0.16500 119244.000000
8053 15422 1 0.16500 119244.000000
8054 13968 1 0.16500 119244.000000
8054 20644 1 0.16500 119244.000000
8055 13969 1 0.16500 119244.000000
8055 15117 1 0.16500 119244.000000
8056 13969 1 0.16500 119244.000000
8056 14547 1 0.16500 119244.000000
8057 11855 1 0.16500 119244.000000
8057 13969 1 0.16500 119244.000000
8058 13970 1 0.16500 119244.000000
8058 20404 1 0.16500 119244.000000
8059 13970 1 0.16500 119244.000000
8059 15506 1 0.16500 119244.000000
8060 13971 1 0.16500 119244.000000
8060 15500 1 0.16500 119244.000000
8061 13971 1 0.16500 119244.000000
8061 14762 1 0.16500 119244.000000
8062 13972 1 0.16500 119244.000000
8062 14928 1 0.16500 119244.000000
8063 13973 1 0.16500 119244.000000
8063 15892 1 0.16500 119244.000000
8064 13974 1 0.16500 119244.000000
8064 16160 1 0.16500 119244.000000
8065 13974 1 0.16500 119244.000000
8065 16259 1 0.16500 119244.000000
8066 13974 1 0.16500 119244.000000
8066 14540 1 0.16500 119244.000000
8067 20146 1 0.16500 119244.000000
8067 20740 1 0.16500 119244.000000
8068 13975 1 0.16500 119244.000000
8068 14213 1 0.16500 119244.000000
8069 13975 1 0.16500 119244.000000
8069 15597 1 0.16500 119244.000000
8070 13976 1 0.16500 119244.000000
8070 15205 1 0.16500 119244.000000
8071 13976 1 0.16500 119244.000000
8071 14436 1 0.16500 119244.000000
8072 13977 1 0.16500 119244.000000
8072 15591 1 0.16500 119244.000000
8073 13978 1 0.16500 119244.000000
8073 16471 1 0.16500 119244.000000
8074 13979 1 0.16500 119244.000000
8074 15211 1 0.16500 119244.000000
8075 13980 1 0.16500 119244.000000
8075 14374 1 0.16500 119244.000000
8076 13980 1 0.16500 119244.000000
8076 15097 1 0.16500 119244.000000
8077 13980 1 0.16500 119244.000000
8077 15772 1 0.16500 119244.000000
8078 13981 1 0.16500 119244.000000
8078 14174 1 0.16500 119244.000000
8079 13981 1 0.16500 119244.000000
8079 15301 1 0.16500 119244.000000
8080 13981 1 0.16500 119244.000000
8080 14985 1 0.16500 119244.000000
8081 20149 1 0.16500 119244.000000
8081 20875 1 0.16500 119244.000000
8082 13982 1 0.16500 119244.000000
8082 15553 1 0.16500 119244.000000
8083 13982 1 0.16500 119244.000000
8083 15147 1 0.16500 119244.000000
8084 13622 1 0.16500 119244.000000
8084 20296 1 0.16500 119244.000000
8085 13983 1 0.16500 119244.000000
8085 15383 1 0.16500 119244.000000
8086 13983 1 0.16500 119244.000000
8086 14840 1 0.16500 119244.000000
8087 13984 1 0.16500 119244.000000
8087 15308 1 0.16500 119244.000000
8088 13984 1 0.16500 119244.000000
8088 15253 1 0.16500 119244.000000
8089 14601 1 0.16500 119244.000000
8089 20152 1 0.16500 119244.000000
8090 12720 1 0.16500 119244.000000
8090 20152 1 0.16500 119244.000000
8091 20155 1 0.16500 119244.000000
8091 20389 1 0.16500 119244.000000
8092 14920 1 0.16500 119244.000000
8092 20155 1 0.16500 119244.000000
8093 20155 1 0.16500 119244.000000
8093 20251 1 0.16500 119244.000000
8094 13985 1 0.16500 119244.000000
8094 14345 1 0.16500 119244.000000
8095 13985 1 0.16500 119244.000000
8095 17274 1 0.16500 119244.000000
8096 13986 1 0.16500 119244.000000
8096 15855 1 0.16500 119244.000000
8097 13986 1 0.16500 119244.000000
8097 20998 1 0.16500 119244.000000
8098 13987 1 0.16500 119244.000000
8098 16169 1 0.16500 119244.000000
8099 15741 1 0.16500 119244.000000
8099 16088 1 0.16500 119244.000000
8100 13987 1 0.16500 119244.000000
8100 14202 1 0.16500 119244.000000
8101 13987 1 0.16500 119244.000000
8101 16088 1 0.16500 119244.000000
8102 13988 1 0.16500 119244.000000
8102 14960 1 0.16500 119244.000000
8103 13988 1 0.16500 119244.000000
8103 16068 1 0.16500 119244.000000
8104 13988 1 0.16500 119244.000000
8104 14097 1 0.16500 119244.000000
8105 14511 1 0.16500 119244.000000
8105 15867 1 0.16500 119244.000000
8106 14511 1 0.16500 119244.000000
8106 20158 1 0.16500 119244.000000
8107 13991 1 0.16500 119244.000000
8107 15781 1 0.16500 119244.000000
8108 13992 1 0.16500 119244.000000
8108 14900 1 0.16500 119244.000000
8109 13992 1 0.16500 119244.000000
8109 16050 1 0.16500 119244.000000
8110 13992 1 0.16500 119244.000000
8110 16508 1 0.16500 119244.000000
8111 13993 1 0.16500 119244.000000
8111 20428 1 0.16500 119244.000000
8112 13993 1 0.16500 119244.000000
8112 16046 1 0.16500 119244.000000
8113 13994 1 0.16500 119244.000000
8113 15517 1 0.16500 119244.000000
8114 13994 1 0.16500 119244.000000
8114 14002 1 0.16500 119244.000000
8115 12324 1 0.16500 119244.000000
8115 15410 1 0.16500 119244.000000
8116 13995 1 0.16500 119244.000000
8116 16550 1 0.16500 119244.000000
8117 13996 1 0.16500 119244.000000
8117 15258 1 0.16500 119244.000000
8118 13996 1 0.16500 119244.000000
8118 15505 1 0.16500 119244.000000
8119 13997 1 0.16500 119244.000000
8119 16254 1 0.16500 119244.000000
8120 13997 1 0.16500 119244.000000
8120 15924 1 0.16500 119244.000000
8121 13997 1 0.16500 119244.000000
8121 16184 1 0.16500 119244.000000
8122 13607 1 0.16500 119244.000000
8122 13998 1 0.16500 119244.000000
8123 13999 1 0.16500 119244.000000
8123 16147 1 0.16500 119244.000000
8124 13999 1 0.16500 119244.000000
8124 16318 1 0.16500 119244.000000
8125 14000 1 0.16500 119244.000000
8125 14215 1 0.16500 119244.000000
8126 14000 1 0.16500 119244.000000
8126 16220 1 0.16500 119244.000000
8127 14001 1 0.16500 119244.000000
8127 16576 1 0.16500 119244.000000
8128 14001 1 0.16500 119244.000000
8128 15514 1 0.16500 119244.000000
8129 14001 1 0.16500 119244.000000
8129 14407 1 0.16500 119244.000000
8130 14002 1 0.16500 119244.000000
8130 16297 1 0.16500 119244.000000
8131 14002 1 0.16500 119244.000000
8131 14667 1 0.16500 119244.000000
8132 14003 1 0.16500 119244.000000
8132 14744 1 0.16500 119244.000000
8133 14003 1 0.16500 119244.000000
8133 16489 1 0.16500 119244.000000
8134 14004 1 0.16500 119244.000000
8134 15150 1 0.16500 119244.000000
8135 14004 1 0.16500 119244.000000
8135 15139 1 0.16500 119244.000000
8136 14005 1 0.16500 119244.000000
8136 14030 1 0.16500 119244.000000
8137 14005 1 0.16500 119244.000000
8137 14806 1 0.16500 119244.000000
8138 14005 1 0.16500 119244.000000
8138 15789 1 0.16500 119244.000000
8139 14006 1 0.16500 119244.000000
8139 16389 1 0.16500 119244.000000
8140 14006 1 0.16500 119244.000000
8140 15660 1 0.16500 119244.000000
8141 14006 1 0.16500 119244.000000
8141 15490 1 0.16500 119244.000000
8142 14007 1 0.16500 119244.000000
8142 16075 1 0.16500 119244.000000
8143 14008 1 0.16500 119244.000000
8143 15040 1 0.16500 119244.000000
8144 14008 1 0.16500 119244.000000
8144 15068 1 0.16500 119244.000000
8145 14009 1 0.16500 119244.000000
8145 16273 1 0.16500 119244.000000
8146 14010 1 0.16500 119244.000000
8146 15029 1 0.16500 119244.000000
8147 14010 1 0.16500 119244.000000
8147 16281 1 0.16500 119244.000000
8148 14461 1 0.16500 119244.000000
8148 16099 1 0.16500 119244.000000
8149 14011 1 0.16500 119244.000000
8149 16099 1 0.16500 119244.000000
8150 13841 1 0.16500 119244.000000
8150 15859 1 0.16500 119244.000000
8151 14013 1 0.16500 119244.000000
8151 14140 1 0.16500 119244.000000
8152 14013 1 0.16500 119244.000000
8152 15664 1 0.16500 119244.000000
8153 14014 1 0.16500 119244.000000
8153 15002 1 0.16500 119244.000000
8154 14015 1 0.16500 119244.000000
8154 15201 1 0.16500 119244.000000
8155 14015 1 0.16500 119244.000000
8155 15333 1 0.16500 119244.000000
8156 15201 1 0.16500 119244.000000
8156 15657 1 0.16500 119244.000000
8157 14015 1 0.16500 119244.000000
8157 14492 1 0.16500 119244.000000
8158 14016 1 0.16500 119244.000000
8158 14933 1 0.16500 119244.000000
8159 14016 1 0.16500 119244.000000
8159 16535 1 0.16500 119244.000000
8160 14017 1 0.16500 119244.000000
8160 16692 1 0.16500 119244.000000
8161 11810 1 0.16500 119244.000000
8161 14719 1 0.16500 119244.000000
8162 11810 1 0.16500 119244.000000
8162 14017 1 0.16500 119244.000000
8163 14018 1 0.16500 119244.000000
8163 14177 1 0.16500 119244.000000
8164 14018 1 0.16500 119244.000000
8164 16024 1 0.16500 119244.000000
8165 14019 1 0.16500 119244.000000
8165 15520 1 0.16500 119244.000000
8166 11803 1 0.16500 119244.000000
8166 16343 1 0.16500 119244.000000
8167 14020 1 0.16500 119244.000000
8167 16362 1 0.16500 119244.000000
8168 14021 1 0.16500 119244.000000
8168 14588 1 0.16500 119244.000000
8169 14022 1 0.16500 119244.000000
8169 15026 1 0.16500 119244.000000
8170 14022 1 0.16500 119244.000000
8170 16341 1 0.16500 119244.000000
8171 14022 1 0.16500 119244.000000
8171 14199 1 0.16500 119244.000000
8172 15374 1 0.16500 119244.000000
8172 20161 1 0.16500 119244.000000
8173 16770 1 0.16500 119244.000000
8173 20161 1 0.16500 119244.000000
8174 15780 1 0.16500 119244.000000
8174 20161 1 0.16500 119244.000000
8175 14023 1 0.16500 119244.000000
8175 14300 1 0.16500 119244.000000
8176 14023 1 0.16500 119244.000000
8176 15184 1 0.16500 119244.000000
8177 14023 1 0.16500 119244.000000
8177 15095 1 0.16500 119244.000000
8178 14023 1 0.16500 119244.000000
8178 15017 1 0.16500 119244.000000
8179 14024 1 0.16500 119244.000000
8179 15809 1 0.16500 119244.000000
8180 14024 1 0.16500 119244.000000
8180 15030 1 0.16500 119244.000000
8181 14024 1 0.16500 119244.000000
8181 14785 1 0.16500 119244.000000
8182 14024 1 0.16500 119244.000000
8182 15397 1 0.16500 119244.000000
8183 14025 1 0.16500 119244.000000
8183 16040 1 0.16500 119244.000000
8184 14025 1 0.16500 119244.000000
8184 14803 1 0.16500 119244.000000
8185 14026 1 0.16500 119244.000000
8185 15956 1 0.16500 119244.000000
8186 14027 1 0.16500 119244.000000
8186 14087 1 0.16500 119244.000000
8187 14027 1 0.16500 119244.000000
8187 16417 1 0.16500 119244.000000
8188 14027 1 0.16500 119244.000000
8188 15653 1 0.16500 119244.000000
8189 14028 1 0.16500 119244.000000
8189 15207 1 0.16500 119244.000000
8190 14028 1 0.16500 119244.000000
8190 15024 1 0.16500 119244.000000
8191 14028 1 0.16500 119244.000000
8191 15159 1 0.16500 119244.000000
8192 14029 1 0.16500 119244.000000
8192 14581 1 0.16500 119244.000000
8193 14029 1 0.16500 119244.000000
8193 14146 1 0.16500 119244.000000
8194 14029 1 0.16500 119244.000000
8194 15093 1 0.16500 119244.000000
8195 14030 1 0.16500 119244.000000
8195 15051 1 0.16500 119244.000000
8196 14030 1 0.16500 119244.000000
8196 14426 1 0.16500 119244.000000
8197 14031 1 0.16500 119244.000000
8197 15518 1 0.16500 119244.000000
8198 14352 1 0.16500 119244.000000
8198 20164 1 0.16500 119244.000000
8199 14032 1 0.16500 119244.000000
8199 14055 1 0.16500 119244.000000
8200 14032 1 0.16500 119244.000000
8200 15220 1 0.16500 119244.000000
8201 14032 1 0.16500 119244.000000
8201 16329 1 0.16500 119244.000000
8202 14033 1 0.16500 119244.000000
8202 15441 1 0.16500 119244.000000
8203 14034 1 0.16500 119244.000000
8203 14634 1 0.16500 119244.000000
8204 14034 1 0.16500 119244.000000
8204 14582 1 0.16500 119244.000000
8205 14035 1 0.16500 119244.000000
8205 16379 1 0.16500 119244.000000
8206 14035 1 0.16500 119244.000000
8206 16589 1 0.16500 119244.000000
8207 14035 1 0.16500 119244.000000
8207 15758 1 0.16500 119244.000000
8208 14036 1 0.16500 119244.000000
8208 16159 1 0.16500 119244.000000
8209 14036 1 0.16500 119244.000000
8209 16085 1 0.16500 119244.000000
8210 14037 1 0.16500 119244.000000
8210 16578 1 0.16500 119244.000000
8211 12517 1 0.16500 119244.000000
8211 14258 1 0.16500 119244.000000
8212 11508 1 0.16500 119244.000000
8212 12789 1 0.16500 119244.000000
8213 14039 1 0.16500 119244.000000
8213 20644 1 0.16500 119244.000000
8214 14040 1 0.16500 119244.000000
8214 15675 1 0.16500 119244.000000
8215 14040 1 0.16500 119244.000000
8215 14780 1 0.16500 119244.000000
8216 14589 1 0.16500 119244.000000
8216 16601 1 0.16500 119244.000000
8217 14041 1 0.16500 119244.000000
8217 14589 1 0.16500 119244.000000
8218 14042 1 0.16500 119244.000000
8218 16463 1 0.16500 119244.000000
8219 14042 1 0.16500 119244.000000
8219 14862 1 0.16500 119244.000000
8220 14043 1 0.16500 119244.000000
8220 15750 1 0.16500 119244.000000
8221 14044 1 0.16500 119244.000000
8221 15923 1 0.16500 119244.000000
8222 15775 1 0.16500 119244.000000
8222 20167 1 0.16500 119244.000000
8223 14045 1 0.16500 119244.000000
8223 15767 1 0.16500 119244.000000
8224 14045 1 0.16500 119244.000000
8224 15310 1 0.16500 119244.000000
8225 14045 1 0.16500 119244.000000
8225 16674 1 0.16500 119244.000000
8226 14046 1 0.16500 119244.000000
8226 16272 1 0.16500 119244.000000
8227 14046 1 0.16500 119244.000000
8227 14276 1 0.16500 119244.000000
8228 14046 1 0.16500 119244.000000
8228 16304 1 0.16500 119244.000000
8229 14048 1 0.16500 119244.000000
8229 15475 1 0.16500 119244.000000
8230 14048 1 0.16500 119244.000000
8230 16633 1 0.16500 119244.000000
8231 14048 1 0.16500 119244.000000
8231 14239 1 0.16500 119244.000000
8232 14048 1 0.16500 119244.000000
8232 14746 1 0.16500 119244.000000
8233 14049 1 0.16500 119244.000000
8233 16048 1 0.16500 119244.000000
8234 14049 1 0.16500 119244.000000
8234 17792 1 0.16500 119244.000000
8235 14050 1 0.16500 119244.000000
8235 14867 1 0.16500 119244.000000
8236 14050 1 0.16500 119244.000000
8236 16244 1 0.16500 119244.000000
8237 20170 1 0.16500 119244.000000
8237 20275 1 0.16500 119244.000000
8238 14051 1 0.16500 119244.000000
8238 16583 1 0.16500 119244.000000
8239 14051 1 0.16500 119244.000000
8239 15669 1 0.16500 119244.000000
8240 14818 1 0.16500 119244.000000
8240 16476 1 0.16500 119244.000000
8241 14052 1 0.16500 119244.000000
8241 15092 1 0.16500 119244.000000
8242 14052 1 0.16500 119244.000000
8242 16476 1 0.16500 119244.000000
8243 14053 1 0.16500 119244.000000
8243 15020 1 0.16500 119244.000000
8244 14053 1 0.16500 119244.000000
8244 14214 1 0.16500 119244.000000
8245 14053 1 0.16500 119244.000000
8245 15623 1 0.16500 119244.000000
8246 15017 1 0.16500 119244.000000
8246 20173 1 0.16500 119244.000000
8247 14054 1 0.16500 119244.000000
8247 15561 1 0.16500 119244.000000
8248 14055 1 0.16500 119244.000000
8248 14406 1 0.16500 119244.000000
8249 14056 1 0.16500 119244.000000
8249 15510 1 0.16500 119244.000000
8250 14056 1 0.16500 119244.000000
8250 16202 1 0.16500 119244.000000
8251 14056 1 0.16500 119244.000000
8251 15088 1 0.16500 119244.000000
8252 14056 1 0.16500 119244.000000
8252 14432 1 0.16500 119244.000000
8253 14057 1 0.16500 119244.000000
8253 15946 1 0.16500 119244.000000
8254 14057 1 0.16500 119244.000000
8254 14534 1 0.16500 119244.000000
8255 14057 1 0.16500 119244.000000
8255 16666 1 0.16500 119244.000000
8256 14058 1 0.16500 119244.000000
8256 15636 1 0.16500 119244.000000
8257 14058 1 0.16500 119244.000000
8257 14168 1 0.16500 119244.000000
8258 14058 1 0.16500 119244.000000
8258 14503 1 0.16500 119244.000000
8259 11887 1 0.16500 119244.000000
8259 15730 1 0.16500 119244.000000
8260 14060 1 0.16500 119244.000000
8260 15534 1 0.16500 119244.000000
8261 14060 1 0.16500 119244.000000
8261 15309 1 0.16500 119244.000000
8262 14061 1 0.16500 119244.000000
8262 16052 1 0.16500 119244.000000
8263 14062 1 0.16500 119244.000000
8263 14522 1 0.16500 119244.000000
8264 14062 1 0.16500 119244.000000
8264 15691 1 0.16500 119244.000000
8265 15435 1 0.16500 119244.000000
8265 20179 1 0.16500 119244.000000
8266 14063 1 0.16500 119244.000000
8266 16095 1 0.16500 119244.000000
8267 14063 1 0.16500 119244.000000
8267 16197 1 0.16500 119244.000000
8268 14063 1 0.16500 119244.000000
8268 16684 1 0.16500 119244.000000
8269 14064 1 0.16500 119244.000000
8269 15119 1 0.16500 119244.000000
8270 14064 1 0.16500 119244.000000
8270 16220 1 0.16500 119244.000000
8271 14064 1 0.16500 119244.000000
8271 14423 1 0.16500 119244.000000
8272 14065 1 0.16500 119244.000000
8272 15901 1 0.16500 119244.000000
8273 14066 1 0.16500 119244.000000
8273 16695 1 0.16500 119244.000000
8274 14067 1 0.16500 119244.000000
8274 16162 1 0.16500 119244.000000
8275 14068 1 0.16500 119244.000000
8275 20710 1 0.16500 119244.000000
8276 16094 1 0.16500 119244.000000
8276 20185 1 0.16500 119244.000000
8277 13352 1 0.16500 119244.000000
8277 14629 1 0.16500 119244.000000
8278 14069 1 0.16500 119244.000000
8278 15396 1 0.16500 119244.000000
8279 13352 1 0.16500 119244.000000
8279 15096 1 0.16500 119244.000000
8280 14070 1 0.16500 119244.000000
8280 16371 1 0.16500 119244.000000
8281 14071 1 0.16500 119244.000000
8281 16266 1 0.16500 119244.000000
8282 14071 1 0.16500 119244.000000
8282 14425 1 0.16500 119244.000000
8283 14425 1 0.16500 119244.000000
8283 14859 1 0.16500 119244.000000
8284 14072 1 0.16500 119244.000000
8284 15874 1 0.16500 119244.000000
8285 14072 1 0.16500 119244.000000
8285 14380 1 0.16500 119244.000000
8286 14072 1 0.16500 119244.000000
8286 15113 1 0.16500 119244.000000
8287 14072 1 0.16500 119244.000000
8287 14279 1 0.16500 119244.000000
8288 15192 1 0.16500 119244.000000
8288 20188 1 0.16500 119244.000000
8289 16742 1 0.16500 119244.000000
8289 20188 1 0.16500 119244.000000
8290 14073 1 0.16500 119244.000000
8290 20908 1 0.16500 119244.000000
8291 14073 1 0.16500 119244.000000
8291 16629 1 0.16500 119244.000000
8292 14074 1 0.16500 119244.000000
8292 15574 1 0.16500 119244.000000
8293 14074 1 0.16500 119244.000000
8293 14525 1 0.16500 119244.000000
8294 19678 1 0.16500 119244.000000
8294 20527 1 0.16500 119244.000000
8295 14075 1 0.16500 119244.000000
8295 16233 1 0.16500 119244.000000
8296 14075 1 0.16500 119244.000000
8296 17246 1 0.16500 119244.000000
8297 14076 1 0.16500 119244.000000
8297 14696 1 0.16500 119244.000000
8298 15966 1 0.16500 119244.000000
8298 20194 1 0.16500 119244.000000
8299 14077 1 0.16500 119244.000000
8299 15079 1 0.16500 119244.000000
8300 14077 1 0.16500 119244.000000
8300 14719 1 0.16500 119244.000000
8301 14077 1 0.16500 119244.000000
8301 15561 1 0.16500 119244.000000
8302 14078 1 0.16500 119244.000000
8302 14968 1 0.16500 119244.000000
8303 14078 1 0.16500 119244.000000
8303 16313 1 0.16500 119244.000000
8304 14078 1 0.16500 119244.000000
8304 20761 1 0.16500 119244.000000
8305 14079 1 0.16500 119244.000000
8305 15739 1 0.16500 119244.000000
8306 14079 1 0.16500 119244.000000
8306 14742 1 0.16500 119244.000000
8307 14080 1 0.16500 119244.000000
8307 14332 1 0.16500 119244.000000
8308 14080 1 0.16500 119244.000000
8308 16378 1 0.16500 119244.000000
8309 14081 1 0.16500 119244.000000
8309 15407 1 0.16500 119244.000000
8310 14081 1 0.16500 119244.000000
8310 16536 1 0.16500 119244.000000
8311 14081 1 0.16500 119244.000000
8311 16394 1 0.16500 119244.000000
8312 14082 1 0.16500 119244.000000
8312 16669 1 0.16500 119244.000000
8313 14082 1 0.16500 119244.000000
8313 15481 1 0.16500 119244.000000
8314 13098 1 0.16500 119244.000000
8314 16392 1 0.16500 119244.000000
8315 14953 1 0.16500 119244.000000
8315 15481 1 0.16500 119244.000000
8316 14083 1 0.16500 119244.000000
8316 15872 1 0.16500 119244.000000
8317 14083 1 0.16500 119244.000000
8317 15319 1 0.16500 119244.000000
8318 14083 1 0.16500 119244.000000
8318 14203 1 0.16500 119244.000000
8319 14083 1 0.16500 119244.000000
8319 16561 1 0.16500 119244.000000
8320 14084 1 0.16500 119244.000000
8320 14576 1 0.16500 119244.000000
8321 14085 1 0.16500 119244.000000
8321 16237 1 0.16500 119244.000000
8322 14085 1 0.16500 119244.000000
8322 14476 1 0.16500 119244.000000
8323 14086 1 0.16500 119244.000000
8323 14743 1 0.16500 119244.000000
8324 14086 1 0.16500 119244.000000
8324 14711 1 0.16500 119244.000000
8325 14087 1 0.16500 119244.000000
8325 15198 1 0.16500 119244.000000
8326 14087 1 0.16500 119244.000000
8326 16408 1 0.16500 119244.000000
8327 14088 1 0.16500 119244.000000
8327 14889 1 0.16500 119244.000000
8328 14088 1 0.16500 119244.000000
8328 15887 1 0.16500 119244.000000
8329 14088 1 0.16500 119244.000000
8329 15522 1 0.16500 119244.000000
8330 12241 1 0.16500 119244.000000
8330 14088 1 0.16500 119244.000000
8331 14089 1 0.16500 119244.000000
8331 17344 1 0.16500 119244.000000
8332 14089 1 0.16500 119244.000000
8332 16541 1 0.16500 119244.000000
8333 14090 1 0.16500 119244.000000
8333 16284 1 0.16500 119244.000000
8334 14090 1 0.16500 119244.000000
8334 14382 1 0.16500 119244.000000
8335 14090 1 0.16500 119244.000000
8335 16336 1 0.16500 119244.000000
8336 14091 1 0.16500 119244.000000
8336 16666 1 0.16500 119244.000000
8337 14091 1 0.16500 119244.000000
8337 15659 1 0.16500 119244.000000
8338 14091 1 0.16500 119244.000000
8338 14195 1 0.16500 119244.000000
8339 14091 1 0.16500 119244.000000
8339 15096 1 0.16500 119244.000000
8340 14092 1 0.16500 119244.000000
8340 14679 1 0.16500 119244.000000
8341 14092 1 0.16500 119244.000000
8341 15565 1 0.16500 119244.000000
8342 14093 1 0.16500 119244.000000
8342 14992 1 0.16500 119244.000000
8343 14094 1 0.16500 119244.000000
8343 14186 1 0.16500 119244.000000
8344 14094 1 0.16500 119244.000000
8344 15892 1 0.16500 119244.000000
8345 14094 1 0.16500 119244.000000
8345 15921 1 0.16500 119244.000000
8346 14095 1 0.16500 119244.000000
8346 16341 1 0.16500 119244.000000
8347 14095 1 0.16500 119244.000000
8347 16564 1 0.16500 119244.000000
8348 14096 1 0.16500 119244.000000
8348 15514 1 0.16500 119244.000000
8349 14096 1 0.16500 119244.000000
8349 15239 1 0.16500 119244.000000
8350 14096 1 0.16500 119244.000000
8350 15527 1 0.16500 119244.000000
8351 14098 1 0.16500 119244.000000
8351 15280 1 0.16500 119244.000000
8352 14098 1 0.16500 119244.000000
8352 16339 1 0.16500 119244.000000
8353 14098 1 0.16500 119244.000000
8353 14179 1 0.16500 119244.000000
8354 15536 1 0.16500 119244.000000
8354 20197 1 0.16500 119244.000000
8355 14099 1 0.16500 119244.000000
8355 15111 1 0.16500 119244.000000
8356 14099 1 0.16500 119244.000000
8356 14649 1 0.16500 119244.000000
8357 14100 1 0.16500 119244.000000
8357 14635 1 0.16500 119244.000000
8358 14100 1 0.16500 119244.000000
8358 16325 1 0.16500 119244.000000
8359 14101 1 0.16500 119244.000000
8359 15232 1 0.16500 119244.000000
8360 14101 1 0.16500 119244.000000
8360 14447 1 0.16500 119244.000000
8361 14101 1 0.16500 119244.000000
8361 20842 1 0.16500 119244.000000
8362 14102 1 0.16500 119244.000000
8362 20440 1 0.16500 119244.000000
8363 14103 1 0.16500 119244.000000
8363 17526 1 0.16500 119244.000000
8364 14103 1 0.16500 119244.000000
8364 15684 1 0.16500 119244.000000
8365 14103 1 0.16500 119244.000000
8365 16440 1 0.16500 119244.000000
8366 14104 1 0.16500 119244.000000
8366 14493 1 0.16500 119244.000000
8367 14104 1 0.16500 119244.000000
8367 14132 1 0.16500 119244.000000
8368 14105 1 0.16500 119244.000000
8368 20356 1 0.16500 119244.000000
8369 14105 1 0.16500 119244.000000
8369 14137 1 0.16500 119244.000000
8370 14105 1 0.16500 119244.000000
8370 14521 1 0.16500 119244.000000
8371 20200 1 0.16500 119244.000000
8371 20257 1 0.16500 119244.000000
8372 14106 1 0.16500 119244.000000
8372 14958 1 0.16500 119244.000000
8373 16359 1 0.16500 119244.000000
8373 20170 1 0.16500 119244.000000
8374 14107 1 0.16500 119244.000000
8374 16261 1 0.16500 119244.000000
8375 14107 1 0.16500 119244.000000
8375 20524 1 0.16500 119244.000000
8376 11870 1 0.16500 119244.000000
8376 16105 1 0.16500 119244.000000
8377 14108 1 0.16500 119244.000000
8377 14606 1 0.16500 119244.000000
8378 14109 1 0.16500 119244.000000
8378 16131 1 0.16500 119244.000000
8379 14110 1 0.16500 119244.000000
8379 15898 1 0.16500 119244.000000
8380 14110 1 0.16500 119244.000000
8380 16437 1 0.16500 119244.000000
8381 14111 1 0.16500 119244.000000
8381 14449 1 0.16500 119244.000000
8382 14112 1 0.16500 119244.000000
8382 16652 1 0.16500 119244.000000
8383 11759 1 0.16500 119244.000000
8383 14112 1 0.16500 119244.000000
8384 14113 1 0.16500 119244.000000
8384 15001 1 0.16500 119244.000000
8385 14114 1 0.16500 119244.000000
8385 14413 1 0.16500 119244.000000
8386 14115 1 0.16500 119244.000000
8386 14235 1 0.16500 119244.000000
8387 14115 1 0.16500 119244.000000
8387 16087 1 0.16500 119244.000000
8388 14115 1 0.16500 119244.000000
8388 15311 1 0.16500 119244.000000
8389 14116 1 0.16500 119244.000000
8389 20353 1 0.16500 119244.000000
8390 14117 1 0.16500 119244.000000
8390 15222 1 0.16500 119244.000000
8391 14117 1 0.16500 119244.000000
8391 15370 1 0.16500 119244.000000
8392 14118 1 0.16500 119244.000000
8392 14661 1 0.16500 119244.000000
8393 14118 1 0.16500 119244.000000
8393 15625 1 0.16500 119244.000000
8394 14119 1 0.16500 119244.000000
8394 16640 1 0.16500 119244.000000
8395 14119 1 0.16500 119244.000000
8395 14507 1 0.16500 119244.000000
8396 14119 1 0.16500 119244.000000
8396 15072 1 0.16500 119244.000000
8397 14120 1 0.16500 119244.000000
8397 14465 1 0.16500 119244.000000
8398 14120 1 0.16500 119244.000000
8398 16472 1 0.16500 119244.000000
8399 14121 1 0.16500 119244.000000
8399 15931 1 0.16500 119244.000000
8400 14121 1 0.16500 119244.000000
8400 15271 1 0.16500 119244.000000
8401 14122 1 0.16500 119244.000000
8401 16511 1 0.16500 119244.000000
8402 14122 1 0.16500 119244.000000
8402 16140 1 0.16500 119244.000000
8403 14124 1 0.16500 119244.000000
8403 16176 1 0.16500 119244.000000
8404 14796 1 0.16500 119244.000000
8404 20203 1 0.16500 119244.000000
8405 17834 1 0.16500 119244.000000
8405 20203 1 0.16500 119244.000000
8406 14125 1 0.16500 119244.000000
8406 16651 1 0.16500 119244.000000
8407 14125 1 0.16500 119244.000000
8407 14389 1 0.16500 119244.000000
8408 14126 1 0.16500 119244.000000
8408 15453 1 0.16500 119244.000000
8409 14126 1 0.16500 119244.000000
8409 15263 1 0.16500 119244.000000
8410 14126 1 0.16500 119244.000000
8410 14674 1 0.16500 119244.000000
8411 14127 1 0.16500 119244.000000
8411 15960 1 0.16500 119244.000000
8412 11607 1 0.16500 119244.000000
8412 17988 1 0.16500 119244.000000
8413 14128 1 0.16500 119244.000000
8413 20317 1 0.16500 119244.000000
8414 14128 1 0.16500 119244.000000
8414 14196 1 0.16500 119244.000000
8415 14129 1 0.16500 119244.000000
8415 15168 1 0.16500 119244.000000
8416 14129 1 0.16500 119244.000000
8416 15751 1 0.16500 119244.000000
8417 14129 1 0.16500 119244.000000
8417 15992 1 0.16500 119244.000000
8418 14130 1 0.16500 119244.000000
8418 15402 1 0.16500 119244.000000
8419 14130 1 0.16500 119244.000000
8419 14287 1 0.16500 119244.000000
8420 14130 1 0.16500 119244.000000
8420 16340 1 0.16500 119244.000000
8421 12915 1 0.16500 119244.000000
8421 15466 1 0.16500 119244.000000
8422 14131 1 0.16500 119244.000000
8422 14761 1 0.16500 119244.000000
8423 14132 1 0.16500 119244.000000
8423 15836 1 0.16500 119244.000000
8424 14132 1 0.16500 119244.000000
8424 14472 1 0.16500 119244.000000
8425 14132 1 0.16500 119244.000000
8425 15461 1 0.16500 119244.000000
8426 14888 1 0.16500 119244.000000
8426 16438 1 0.16500 119244.000000
8427 14133 1 0.16500 119244.000000
8427 16438 1 0.16500 119244.000000
8428 14681 1 0.16500 119244.000000
8428 16438 1 0.16500 119244.000000
8429 16132 1 0.16500 119244.000000
8429 16398 1 0.16500 119244.000000
8430 14134 1 0.16500 119244.000000
8430 14871 1 0.16500 119244.000000
8431 14134 1 0.16500 119244.000000
8431 16398 1 0.16500 119244.000000
8432 14135 1 0.16500 119244.000000
8432 16395 1 0.16500 119244.000000
8433 14135 1 0.16500 119244.000000
8433 15290 1 0.16500 119244.000000
8434 14136 1 0.16500 119244.000000
8434 16343 1 0.16500 119244.000000
8435 14136 1 0.16500 119244.000000
8435 15323 1 0.16500 119244.000000
8436 15467 1 0.16500 119244.000000
8436 16343 1 0.16500 119244.000000
8437 15063 1 0.16500 119244.000000
8437 15705 1 0.16500 119244.000000
8438 14137 1 0.16500 119244.000000
8438 17204 1 0.16500 119244.000000
8439 14137 1 0.16500 119244.000000
8439 15705 1 0.16500 119244.000000
8440 14138 1 0.16500 119244.000000
8440 15859 1 0.16500 119244.000000
8441 14138 1 0.16500 119244.000000
8441 14637 1 0.16500 119244.000000
8442 14139 1 0.16500 119244.000000
8442 15416 1 0.16500 119244.000000
8443 14140 1 0.16500 119244.000000
8443 14907 1 0.16500 119244.000000
8444 14141 1 0.16500 119244.000000
8444 16320 1 0.16500 119244.000000
8445 14142 1 0.16500 119244.000000
8445 14174 1 0.16500 119244.000000
8446 14142 1 0.16500 119244.000000
8446 16235 1 0.16500 119244.000000
8447 14142 1 0.16500 119244.000000
8447 14980 1 0.16500 119244.000000
8448 14143 1 0.16500 119244.000000
8448 15284 1 0.16500 119244.000000
8449 14143 1 0.16500 119244.000000
8449 15871 1 0.16500 119244.000000
8450 15871 1 0.16500 119244.000000
8450 15993 1 0.16500 119244.000000
8451 14144 1 0.16500 119244.000000
8451 16238 1 0.16500 119244.000000
8452 14144 1 0.16500 119244.000000
8452 14605 1 0.16500 119244.000000
8453 14144 1 0.16500 119244.000000
8453 15439 1 0.16500 119244.000000
8454 16238 1 0.16500 119244.000000
8454 16290 1 0.16500 119244.000000
8455 14145 1 0.16500 119244.000000
8455 15120 1 0.16500 119244.000000
8456 11667 1 0.16500 119244.000000
8456 15611 1 0.16500 119244.000000
8457 14147 1 0.16500 119244.000000
8457 15782 1 0.16500 119244.000000
8458 14147 1 0.16500 119244.000000
8458 15286 1 0.16500 119244.000000
8459 16728 1 0.16500 119244.000000
8459 20692 1 0.16500 119244.000000
8460 14148 1 0.16500 119244.000000
8460 16446 1 0.16500 119244.000000
8461 14513 1 0.16500 119244.000000
8461 16446 1 0.16500 119244.000000
8462 14149 1 0.16500 119244.000000
8462 15372 1 0.16500 119244.000000
8463 14149 1 0.16500 119244.000000
8463 14785 1 0.16500 119244.000000
8464 14149 1 0.16500 119244.000000
8464 15315 1 0.16500 119244.000000
8465 14150 1 0.16500 119244.000000
8465 14808 1 0.16500 119244.000000
8466 14150 1 0.16500 119244.000000
8466 15649 1 0.16500 119244.000000
8467 14151 1 0.16500 119244.000000
8467 16613 1 0.16500 119244.000000
8468 14152 1 0.16500 119244.000000
8468 15290 1 0.16500 119244.000000
8469 13759 1 0.16500 119244.000000
8469 14152 1 0.16500 119244.000000
8470 14152 1 0.16500 119244.000000
8470 16213 1 0.16500 119244.000000
8471 14152 1 0.16500 119244.000000
8471 15529 1 0.16500 119244.000000
8472 14153 1 0.16500 119244.000000
8472 16133 1 0.16500 119244.000000
8473 16352 1 0.16500 119244.000000
8473 20209 1 0.16500 119244.000000
8474 15297 1 0.16500 119244.000000
8474 20209 1 0.16500 119244.000000
8475 14155 1 0.16500 119244.000000
8475 15108 1 0.16500 119244.000000
8476 14156 1 0.16500 119244.000000
8476 14248 1 0.16500 119244.000000
8477 14156 1 0.16500 119244.000000
8477 16027 1 0.16500 119244.000000
8478 14157 1 0.16500 119244.000000
8478 15151 1 0.16500 119244.000000
8479 14157 1 0.16500 119244.000000
8479 16646 1 0.16500 119244.000000
8480 14157 1 0.16500 119244.000000
8480 16627 1 0.16500 119244.000000
8481 14158 1 0.16500 119244.000000
8481 14645 1 0.16500 119244.000000
8482 14158 1 0.16500 119244.000000
8482 15498 1 0.16500 119244.000000
8483 14159 1 0.16500 119244.000000
8483 20386 1 0.16500 119244.000000
8484 14160 1 0.16500 119244.000000
8484 14245 1 0.16500 119244.000000
8485 14160 1 0.16500 119244.000000
8485 15000 1 0.16500 119244.000000
8486 14161 1 0.16500 119244.000000
8486 16216 1 0.16500 119244.000000
8487 14161 1 0.16500 119244.000000
8487 14980 1 0.16500 119244.000000
8488 14161 1 0.16500 119244.000000
8488 16494 1 0.16500 119244.000000
8489 14162 1 0.16500 119244.000000
8489 15023 1 0.16500 119244.000000
8490 14162 1 0.16500 119244.000000
8490 16163 1 0.16500 119244.000000
8491 14162 1 0.16500 119244.000000
8491 14916 1 0.16500 119244.000000
8492 16037 1 0.16500 119244.000000
8492 20212 1 0.16500 119244.000000
8493 14163 1 0.16500 119244.000000
8493 20560 1 0.16500 119244.000000
8494 14163 1 0.16500 119244.000000
8494 15060 1 0.16500 119244.000000
8495 14164 1 0.16500 119244.000000
8495 16220 1 0.16500 119244.000000
8496 14164 1 0.16500 119244.000000
8496 14900 1 0.16500 119244.000000
8497 15342 1 0.16500 119244.000000
8497 17820 1 0.16500 119244.000000
8498 14165 1 0.16500 119244.000000
8498 20635 1 0.16500 119244.000000
8499 14512 1 0.16500 119244.000000
8499 15342 1 0.16500 119244.000000
8500 14165 1 0.16500 119244.000000
8500 15342 1 0.16500 119244.000000
8501 14533 1 0.16500 119244.000000
8501 20215 1 0.16500 119244.000000
8502 14166 1 0.16500 119244.000000
8502 14822 1 0.16500 119244.000000
8503 14166 1 0.16500 119244.000000
8503 14515 1 0.16500 119244.000000
8504 14166 1 0.16500 119244.000000
8504 14265 1 0.16500 119244.000000
8505 12297 1 0.16500 119244.000000
8505 15571 1 0.16500 119244.000000
8506 12297 1 0.16500 119244.000000
8506 14183 1 0.16500 119244.000000
8507 14168 1 0.16500 119244.000000
8507 15359 1 0.16500 119244.000000
8508 14169 1 0.16500 119244.000000
8508 15601 1 0.16500 119244.000000
8509 14169 1 0.16500 119244.000000
8509 16071 1 0.16500 119244.000000
8510 14169 1 0.16500 119244.000000
8510 15532 1 0.16500 119244.000000
8511 20221 1 0.16500 119244.000000
8511 20978 1 0.16500 119244.000000
8512 15728 1 0.16500 119244.000000
8512 20221 1 0.16500 119244.000000
8513 14170 1 0.16500 119244.000000
8513 15261 1 0.16500 119244.000000
8514 14171 1 0.16500 119244.000000
8514 15789 1 0.16500 119244.000000
8515 14171 1 0.16500 119244.000000
8515 14991 1 0.16500 119244.000000
8516 14171 1 0.16500 119244.000000
8516 16561 1 0.16500 119244.000000
8517 14172 1 0.16500 119244.000000
8517 16474 1 0.16500 119244.000000
8518 14173 1 0.16500 119244.000000
8518 16681 1 0.16500 119244.000000
8519 14174 1 0.16500 119244.000000
8519 15311 1 0.16500 119244.000000
8520 14175 1 0.16500 119244.000000
8520 20958 1 0.16500 119244.000000
8521 14176 1 0.16500 119244.000000
8521 14772 1 0.16500 119244.000000
8522 14176 1 0.16500 119244.000000
8522 16137 1 0.16500 119244.000000
8523 14177 1 0.16500 119244.000000
8523 15001 1 0.16500 119244.000000
8524 14177 1 0.16500 119244.000000
8524 16676 1 0.16500 119244.000000
8525 11472 1 0.16500 119244.000000
8525 14553 1 0.16500 119244.000000
8526 11472 1 0.16500 119244.000000
8526 14829 1 0.16500 119244.000000
8527 11472 1 0.16500 119244.000000
8527 14421 1 0.16500 119244.000000
8528 14179 1 0.16500 119244.000000
8528 14248 1 0.16500 119244.000000
8529 14179 1 0.16500 119244.000000
8529 14843 1 0.16500 119244.000000
8530 14180 1 0.16500 119244.000000
8530 14453 1 0.16500 119244.000000
8531 14180 1 0.16500 119244.000000
8531 15942 1 0.16500 119244.000000
8532 14181 1 0.16500 119244.000000
8532 16405 1 0.16500 119244.000000
8533 14181 1 0.16500 119244.000000
8533 15543 1 0.16500 119244.000000
8534 14181 1 0.16500 119244.000000
8534 16490 1 0.16500 119244.000000
8535 14182 1 0.16500 119244.000000
8535 16065 1 0.16500 119244.000000
8536 14182 1 0.16500 119244.000000
8536 15421 1 0.16500 119244.000000
8537 14182 1 0.16500 119244.000000
8537 16370 1 0.16500 119244.000000
8538 14183 1 0.16500 119244.000000
8538 16298 1 0.16500 119244.000000
8539 14183 1 0.16500 119244.000000
8539 14520 1 0.16500 119244.000000
8540 14184 1 0.16500 119244.000000
8540 16248 1 0.16500 119244.000000
8541 14184 1 0.16500 119244.000000
8541 15679 1 0.16500 119244.000000
8542 14184 1 0.16500 119244.000000
8542 16569 1 0.16500 119244.000000
8543 14185 1 0.16500 119244.000000
8543 14962 1 0.16500 119244.000000
8544 14185 1 0.16500 119244.000000
8544 16079 1 0.16500 119244.000000
8545 14185 1 0.16500 119244.000000
8545 14299 1 0.16500 119244.000000
8546 14186 1 0.16500 119244.000000
8546 15428 1 0.16500 119244.000000
8547 14188 1 0.16500 119244.000000
8547 15253 1 0.16500 119244.000000
8548 14188 1 0.16500 119244.000000
8548 15669 1 0.16500 119244.000000
8549 14188 1 0.16500 119244.000000
8549 14422 1 0.16500 119244.000000
8550 14189 1 0.16500 119244.000000
8550 16019 1 0.16500 119244.000000
8551 14190 1 0.16500 119244.000000
8551 14950 1 0.16500 119244.000000
8552 14190 1 0.16500 119244.000000
8552 15278 1 0.16500 119244.000000
8553 14190 1 0.16500 119244.000000
8553 14840 1 0.16500 119244.000000
8554 14192 1 0.16500 119244.000000
8554 16598 1 0.16500 119244.000000
8555 14192 1 0.16500 119244.000000
8555 14222 1 0.16500 119244.000000
8556 14193 1 0.16500 119244.000000
8556 16468 1 0.16500 119244.000000
8557 14193 1 0.16500 119244.000000
8557 16557 1 0.16500 119244.000000
8558 14194 1 0.16500 119244.000000
8558 15111 1 0.16500 119244.000000
8559 14194 1 0.16500 119244.000000
8559 16452 1 0.16500 119244.000000
8560 14195 1 0.16500 119244.000000
8560 16074 1 0.16500 119244.000000
8561 14195 1 0.16500 119244.000000
8561 16190 1 0.16500 119244.000000
8562 15647 1 0.16500 119244.000000
8562 20227 1 0.16500 119244.000000
8563 14196 1 0.16500 119244.000000
8563 16470 1 0.16500 119244.000000
8564 14197 1 0.16500 119244.000000
8564 16472 1 0.16500 119244.000000
8565 14197 1 0.16500 119244.000000
8565 15454 1 0.16500 119244.000000
8566 14198 1 0.16500 119244.000000
8566 16195 1 0.16500 119244.000000
8567 14199 1 0.16500 119244.000000
8567 15309 1 0.16500 119244.000000
8568 14200 1 0.16500 119244.000000
8568 14754 1 0.16500 119244.000000
8569 14200 1 0.16500 119244.000000
8569 15958 1 0.16500 119244.000000
8570 14201 1 0.16500 119244.000000
8570 15368 1 0.16500 119244.000000
8571 14201 1 0.16500 119244.000000
8571 16661 1 0.16500 119244.000000
8572 14201 1 0.16500 119244.000000
8572 15893 1 0.16500 119244.000000
8573 14585 1 0.16500 119244.000000
8573 20230 1 0.16500 119244.000000
8574 16144 1 0.16500 119244.000000
8574 20230 1 0.16500 119244.000000
8575 14203 1 0.16500 119244.000000
8575 15390 1 0.16500 119244.000000
8576 14204 1 0.16500 119244.000000
8576 16465 1 0.16500 119244.000000
8577 14204 1 0.16500 119244.000000
8577 15936 1 0.16500 119244.000000
8578 14204 1 0.16500 119244.000000
8578 16499 1 0.16500 119244.000000
8579 14204 1 0.16500 119244.000000
8579 14281 1 0.16500 119244.000000
8580 14205 1 0.16500 119244.000000
8580 15833 1 0.16500 119244.000000
8581 11886 1 0.16500 119244.000000
8581 14205 1 0.16500 119244.000000
8582 14206 1 0.16500 119244.000000
8582 15399 1 0.16500 119244.000000
8583 14207 1 0.16500 119244.000000
8583 16144 1 0.16500 119244.000000
8584 14207 1 0.16500 119244.000000
8584 15670 1 0.16500 119244.000000
8585 11697 1 0.16500 119244.000000
8585 14207 1 0.16500 119244.000000
8586 14208 1 0.16500 119244.000000
8586 15175 1 0.16500 119244.000000
8587 14208 1 0.16500 119244.000000
8587 15372 1 0.16500 119244.000000
8588 14209 1 0.16500 119244.000000
8588 16206 1 0.16500 119244.000000
8589 14209 1 0.16500 119244.000000
8589 15655 1 0.16500 119244.000000
8590 14210 1 0.16500 119244.000000
8590 15742 1 0.16500 119244.000000
8591 14210 1 0.16500 119244.000000
8591 15237 1 0.16500 119244.000000
8592 14210 1 0.16500 119244.000000
8592 15585 1 0.16500 119244.000000
8593 12986 1 0.16500 119244.000000
8593 14752 1 0.16500 119244.000000
8594 14211 1 0.16500 119244.000000
8594 14250 1 0.16500 119244.000000
8595 14211 1 0.16500 119244.000000
8595 16492 1 0.16500 119244.000000
8596 14212 1 0.16500 119244.000000
8596 15798 1 0.16500 119244.000000
8597 14212 1 0.16500 119244.000000
8597 15876 1 0.16500 119244.000000
8598 14212 1 0.16500 119244.000000
8598 16203 1 0.16500 119244.000000
8599 14213 1 0.16500 119244.000000
8599 15184 1 0.16500 119244.000000
8600 14213 1 0.16500 119244.000000
8600 15645 1 0.16500 119244.000000
8601 14213 1 0.16500 119244.000000
8601 14566 1 0.16500 119244.000000
8602 14214 1 0.16500 119244.000000
8602 14897 1 0.16500 119244.000000
8603 14214 1 0.16500 119244.000000
8603 16434 1 0.16500 119244.000000
8604 14216 1 0.16500 119244.000000
8604 15255 1 0.16500 119244.000000
8605 14217 1 0.16500 119244.000000
8605 16479 1 0.16500 119244.000000
8606 14217 1 0.16500 119244.000000
8606 16274 1 0.16500 119244.000000
8607 14217 1 0.16500 119244.000000
8607 16567 1 0.16500 119244.000000
8608 14217 1 0.16500 119244.000000
8608 15970 1 0.16500 119244.000000
8609 14052 1 0.16500 119244.000000
8609 14218 1 0.16500 119244.000000
8610 14219 1 0.16500 119244.000000
8610 16267 1 0.16500 119244.000000
8611 14219 1 0.16500 119244.000000
8611 16002 1 0.16500 119244.000000
8612 11935 1 0.16500 119244.000000
8612 16300 1 0.16500 119244.000000
8613 14220 1 0.16500 119244.000000
8613 16260 1 0.16500 119244.000000
8614 14220 1 0.16500 119244.000000
8614 16002 1 0.16500 119244.000000
8615 14221 1 0.16500 119244.000000
8615 15244 1 0.16500 119244.000000
8616 14221 1 0.16500 119244.000000
8616 14693 1 0.16500 119244.000000
8617 17470 1 0.16500 119244.000000
8617 20233 1 0.16500 119244.000000
8618 14856 1 0.16500 119244.000000
8618 20233 1 0.16500 119244.000000
8619 14222 1 0.16500 119244.000000
8619 20809 1 0.16500 119244.000000
8620 14222 1 0.16500 119244.000000
8620 15161 1 0.16500 119244.000000
8621 20236 1 0.16500 119244.000000
8621 20626 1 0.16500 119244.000000
8622 11593 1 0.16500 119244.000000
8622 15010 1 0.16500 119244.000000
8623 14223 1 0.16500 119244.000000
8623 14617 1 0.16500 119244.000000
8624 14223 1 0.16500 119244.000000
8624 15712 1 0.16500 119244.000000
8625 14224 1 0.16500 119244.000000
8625 16034 1 0.16500 119244.000000
8626 14225 1 0.16500 119244.000000
8626 15196 1 0.16500 119244.000000
8627 14225 1 0.16500 119244.000000
8627 16631 1 0.16500 119244.000000
8628 14225 1 0.16500 119244.000000
8628 14248 1 0.16500 119244.000000
8629 14225 1 0.16500 119244.000000
8629 15280 1 0.16500 119244.000000
8630 14226 1 0.16500 119244.000000
8630 15980 1 0.16500 119244.000000
8631 14227 1 0.16500 119244.000000
8631 14375 1 0.16500 119244.000000
8632 14227 1 0.16500 119244.000000
8632 14701 1 0.16500 119244.000000
8633 14227 1 0.16500 119244.000000
8633 15756 1 0.16500 119244.000000
8634 17778 1 0.16500 119244.000000
8634 20239 1 0.16500 119244.000000
8635 16826 1 0.16500 119244.000000
8635 20239 1 0.16500 119244.000000
8636 15674 1 0.16500 119244.000000
8636 20239 1 0.16500 119244.000000
8637 15021 1 0.16500 119244.000000
8637 15097 1 0.16500 119244.000000
8638 14836 1 0.16500 119244.000000
8638 15097 1 0.16500 119244.000000
8639 14228 1 0.16500 119244.000000
8639 15097 1 0.16500 119244.000000
8640 14229 1 0.16500 119244.000000
8640 16121 1 0.16500 119244.000000
8641 14230 1 0.16500 119244.000000
8641 15594 1 0.16500 119244.000000
8642 14230 1 0.16500 119244.000000
8642 14335 1 0.16500 119244.000000
8643 14231 1 0.16500 119244.000000
8643 15397 1 0.16500 119244.000000
8644 14231 1 0.16500 119244.000000
8644 15622 1 0.16500 119244.000000
8645 14232 1 0.16500 119244.000000
8645 15130 1 0.16500 119244.000000
8646 14232 1 0.16500 119244.000000
8646 15142 1 0.16500 119244.000000
8647 16231 1 0.16500 119244.000000
8647 20242 1 0.16500 119244.000000
8648 16258 1 0.16500 119244.000000
8648 20242 1 0.16500 119244.000000
8649 14233 1 0.16500 119244.000000
8649 15242 1 0.16500 119244.000000
8650 14233 1 0.16500 119244.000000
8650 15830 1 0.16500 119244.000000
8651 14234 1 0.16500 119244.000000
8651 15744 1 0.16500 119244.000000
8652 14235 1 0.16500 119244.000000
8652 14647 1 0.16500 119244.000000
8653 14236 1 0.16500 119244.000000
8653 16015 1 0.16500 119244.000000
8654 14236 1 0.16500 119244.000000
8654 15272 1 0.16500 119244.000000
8655 14237 1 0.16500 119244.000000
8655 15226 1 0.16500 119244.000000
8656 14237 1 0.16500 119244.000000
8656 16246 1 0.16500 119244.000000
8657 14238 1 0.16500 119244.000000
8657 15046 1 0.16500 119244.000000
8658 14238 1 0.16500 119244.000000
8658 20374 1 0.16500 119244.000000
8659 14239 1 0.16500 119244.000000
8659 15353 1 0.16500 119244.000000
8660 14240 1 0.16500 119244.000000
8660 14646 1 0.16500 119244.000000
8661 14240 1 0.16500 119244.000000
8661 15914 1 0.16500 119244.000000
8662 14241 1 0.16500 119244.000000
8662 15168 1 0.16500 119244.000000
8663 14241 1 0.16500 119244.000000
8663 16445 1 0.16500 119244.000000
8664 13121 1 0.16500 119244.000000
8664 14241 1 0.16500 119244.000000
8665 14241 1 0.16500 119244.000000
8665 14731 1 0.16500 119244.000000
8666 14333 1 0.16500 119244.000000
8666 16423 1 0.16500 119244.000000
8667 14333 1 0.16500 119244.000000
8667 15158 1 0.16500 119244.000000
8668 14242 1 0.16500 119244.000000
8668 15488 1 0.16500 119244.000000
8669 14243 1 0.16500 119244.000000
8669 15433 1 0.16500 119244.000000
8670 14244 1 0.16500 119244.000000
8670 16528 1 0.16500 119244.000000
8671 14244 1 0.16500 119244.000000
8671 16425 1 0.16500 119244.000000
8672 14246 1 0.16500 119244.000000
8672 16630 1 0.16500 119244.000000
8673 14247 1 0.16500 119244.000000
8673 15107 1 0.16500 119244.000000
8674 14247 1 0.16500 119244.000000
8674 14313 1 0.16500 119244.000000
8675 11463 1 0.16500 119244.000000
8675 14249 1 0.16500 119244.000000
8676 14249 1 0.16500 119244.000000
8676 16403 1 0.16500 119244.000000
8677 14249 1 0.16500 119244.000000
8677 15570 1 0.16500 119244.000000
8678 14250 1 0.16500 119244.000000
8678 14886 1 0.16500 119244.000000
8679 15303 1 0.16500 119244.000000
8679 15895 1 0.16500 119244.000000
8680 14251 1 0.16500 119244.000000
8680 15895 1 0.16500 119244.000000
8681 14252 1 0.16500 119244.000000
8681 15257 1 0.16500 119244.000000
8682 14252 1 0.16500 119244.000000
8682 15356 1 0.16500 119244.000000
8683 14252 1 0.16500 119244.000000
8683 15975 1 0.16500 119244.000000
8684 14252 1 0.16500 119244.000000
8684 14753 1 0.16500 119244.000000
8685 14253 1 0.16500 119244.000000
8685 15163 1 0.16500 119244.000000
8686 14254 1 0.16500 119244.000000
8686 14867 1 0.16500 119244.000000
8687 14254 1 0.16500 119244.000000
8687 16436 1 0.16500 119244.000000
8688 14255 1 0.16500 119244.000000
8688 16656 1 0.16500 119244.000000
8689 14255 1 0.16500 119244.000000
8689 15813 1 0.16500 119244.000000
8690 14256 1 0.16500 119244.000000
8690 16087 1 0.16500 119244.000000
8691 14257 1 0.16500 119244.000000
8691 16274 1 0.16500 119244.000000
8692 14257 1 0.16500 119244.000000
8692 14773 1 0.16500 119244.000000
8693 14257 1 0.16500 119244.000000
8693 16479 1 0.16500 119244.000000
8694 14257 1 0.16500 119244.000000
8694 15651 1 0.16500 119244.000000
8695 14258 1 0.16500 119244.000000
8695 14590 1 0.16500 119244.000000
8696 14259 1 0.16500 119244.000000
8696 14981 1 0.16500 119244.000000
8697 14260 1 0.16500 119244.000000
8697 16560 1 0.16500 119244.000000
8698 14261 1 0.16500 119244.000000
8698 16096 1 0.16500 119244.000000
8699 14261 1 0.16500 119244.000000
8699 14487 1 0.16500 119244.000000
8700 14262 1 0.16500 119244.000000
8700 15980 1 0.16500 119244.000000
8701 14262 1 0.16500 119244.000000
8701 14585 1 0.16500 119244.000000
8702 14263 1 0.16500 119244.000000
8702 14884 1 0.16500 119244.000000
8703 14263 1 0.16500 119244.000000
8703 14788 1 0.16500 119244.000000
8704 14264 1 0.16500 119244.000000
8704 15618 1 0.16500 119244.000000
8705 14264 1 0.16500 119244.000000
8705 15583 1 0.16500 119244.000000
8706 14265 1 0.16500 119244.000000
8706 15936 1 0.16500 119244.000000
8707 14267 1 0.16500 119244.000000
8707 15763 1 0.16500 119244.000000
8708 14267 1 0.16500 119244.000000
8708 15800 1 0.16500 119244.000000
8709 14267 1 0.16500 119244.000000
8709 15961 1 0.16500 119244.000000
8710 14268 1 0.16500 119244.000000
8710 15698 1 0.16500 119244.000000
8711 14268 1 0.16500 119244.000000
8711 14288 1 0.16500 119244.000000
8712 14269 1 0.16500 119244.000000
8712 16245 1 0.16500 119244.000000
8713 14270 1 0.16500 119244.000000
8713 15860 1 0.16500 119244.000000
8714 14270 1 0.16500 119244.000000
8714 15320 1 0.16500 119244.000000
8715 14271 1 0.16500 119244.000000
8715 16636 1 0.16500 119244.000000
8716 14272 1 0.16500 119244.000000
8716 15953 1 0.16500 119244.000000
8717 14272 1 0.16500 119244.000000
8717 15214 1 0.16500 119244.000000
8718 14272 1 0.16500 119244.000000
8718 15699 1 0.16500 119244.000000
8719 14273 1 0.16500 119244.000000
8719 15276 1 0.16500 119244.000000
8720 14273 1 0.16500 119244.000000
8720 16397 1 0.16500 119244.000000
8721 14274 1 0.16500 119244.000000
8721 14510 1 0.16500 119244.000000
8722 14274 1 0.16500 119244.000000
8722 15336 1 0.16500 119244.000000
8723 14275 1 0.16500 119244.000000
8723 15883 1 0.16500 119244.000000
8724 14275 1 0.16500 119244.000000
8724 15121 1 0.16500 119244.000000
8725 14275 1 0.16500 119244.000000
8725 17148 1 0.16500 119244.000000
8726 14276 1 0.16500 119244.000000
8726 14711 1 0.16500 119244.000000
8727 14276 1 0.16500 119244.000000
8727 15229 1 0.16500 119244.000000
8728 14277 1 0.16500 119244.000000
8728 15766 1 0.16500 119244.000000
8729 11518 1 0.16500 119244.000000
8729 14277 1 0.16500 119244.000000
8730 14277 1 0.16500 119244.000000
8730 15659 1 0.16500 119244.000000
8731 14278 1 0.16500 119244.000000
8731 16310 1 0.16500 119244.000000
8732 14278 1 0.16500 119244.000000
8732 16207 1 0.16500 119244.000000
8733 14279 1 0.16500 119244.000000
8733 14965 1 0.16500 119244.000000
8734 14280 1 0.16500 119244.000000
8734 16414 1 0.16500 119244.000000
8735 13471 1 0.16500 119244.000000
8735 16551 1 0.16500 119244.000000
8736 14281 1 0.16500 119244.000000
8736 15856 1 0.16500 119244.000000
8737 14282 1 0.16500 119244.000000
8737 14485 1 0.16500 119244.000000
8738 14283 1 0.16500 119244.000000
8738 16496 1 0.16500 119244.000000
8739 14283 1 0.16500 119244.000000
8739 16563 1 0.16500 119244.000000
8740 14283 1 0.16500 119244.000000
8740 16045 1 0.16500 119244.000000
8741 14284 1 0.16500 119244.000000
8741 15245 1 0.16500 119244.000000
8742 14285 1 0.16500 119244.000000
8742 15710 1 0.16500 119244.000000
8743 14285 1 0.16500 119244.000000
8743 15495 1 0.16500 119244.000000
8744 14286 1 0.16500 119244.000000
8744 14730 1 0.16500 119244.000000
8745 14286 1 0.16500 119244.000000
8745 16209 1 0.16500 119244.000000
8746 14287 1 0.16500 119244.000000
8746 15777 1 0.16500 119244.000000
8747 14289 1 0.16500 119244.000000
8747 14304 1 0.16500 119244.000000
8748 14289 1 0.16500 119244.000000
8748 15179 1 0.16500 119244.000000
8749 14289 1 0.16500 119244.000000
8749 15553 1 0.16500 119244.000000
8750 14290 1 0.16500 119244.000000
8750 15792 1 0.16500 119244.000000
8751 14291 1 0.16500 119244.000000
8751 15179 1 0.16500 119244.000000
8752 14292 1 0.16500 119244.000000
8752 14295 1 0.16500 119244.000000
8753 14292 1 0.16500 119244.000000
8753 14495 1 0.16500 119244.000000
8754 14293 1 0.16500 119244.000000
8754 15376 1 0.16500 119244.000000
8755 14293 1 0.16500 119244.000000
8755 14383 1 0.16500 119244.000000
8756 14293 1 0.16500 119244.000000
8756 16192 1 0.16500 119244.000000
8757 14295 1 0.16500 119244.000000
8757 15964 1 0.16500 119244.000000
8758 14296 1 0.16500 119244.000000
8758 15433 1 0.16500 119244.000000
8759 14296 1 0.16500 119244.000000
8759 15124 1 0.16500 119244.000000
8760 20245 1 0.16500 119244.000000
8760 20806 1 0.16500 119244.000000
8761 15887 1 0.16500 119244.000000
8761 20245 1 0.16500 119244.000000
8762 14298 1 0.16500 119244.000000
8762 15693 1 0.16500 119244.000000
8763 14299 1 0.16500 119244.000000
8763 15235 1 0.16500 119244.000000
8764 14300 1 0.16500 119244.000000
8764 14305 1 0.16500 119244.000000
8765 14300 1 0.16500 119244.000000
8765 14519 1 0.16500 119244.000000
8766 14301 1 0.16500 119244.000000
8766 14722 1 0.16500 119244.000000
8767 14301 1 0.16500 119244.000000
8767 16000 1 0.16500 119244.000000
8768 14302 1 0.16500 119244.000000
8768 14795 1 0.16500 119244.000000
8769 14302 1 0.16500 119244.000000
8769 15918 1 0.16500 119244.000000
8770 14303 1 0.16500 119244.000000
8770 15407 1 0.16500 119244.000000
8771 14303 1 0.16500 119244.000000
8771 15609 1 0.16500 119244.000000
8772 14305 1 0.16500 119244.000000
8772 16413 1 0.16500 119244.000000
8773 14306 1 0.16500 119244.000000
8773 16221 1 0.16500 119244.000000
8774 14306 1 0.16500 119244.000000
8774 14697 1 0.16500 119244.000000
8775 14307 1 0.16500 119244.000000
8775 15515 1 0.16500 119244.000000
8776 14307 1 0.16500 119244.000000
8776 15241 1 0.16500 119244.000000
8777 14533 1 0.16500 119244.000000
8777 20254 1 0.16500 119244.000000
8778 14308 1 0.16500 119244.000000
8778 15371 1 0.16500 119244.000000
8779 14308 1 0.16500 119244.000000
8779 14586 1 0.16500 119244.000000
8780 14309 1 0.16500 119244.000000
8780 15924 1 0.16500 119244.000000
8781 14309 1 0.16500 119244.000000
8781 15659 1 0.16500 119244.000000
8782 14309 1 0.16500 119244.000000
8782 15066 1 0.16500 119244.000000
8783 14310 1 0.16500 119244.000000
8783 16606 1 0.16500 119244.000000
8784 14310 1 0.16500 119244.000000
8784 14724 1 0.16500 119244.000000
8785 14311 1 0.16500 119244.000000
8785 17540 1 0.16500 119244.000000
8786 14312 1 0.16500 119244.000000
8786 15259 1 0.16500 119244.000000
8787 14312 1 0.16500 119244.000000
8787 15773 1 0.16500 119244.000000
8788 14313 1 0.16500 119244.000000
8788 15036 1 0.16500 119244.000000
8789 14313 1 0.16500 119244.000000
8789 15667 1 0.16500 119244.000000
8790 14314 1 0.16500 119244.000000
8790 14930 1 0.16500 119244.000000
8791 14314 1 0.16500 119244.000000
8791 15393 1 0.16500 119244.000000
8792 14314 1 0.16500 119244.000000
8792 14769 1 0.16500 119244.000000
8793 14315 1 0.16500 119244.000000
8793 14963 1 0.16500 119244.000000
8794 14315 1 0.16500 119244.000000
8794 15747 1 0.16500 119244.000000
8795 14316 1 0.16500 119244.000000
8795 14922 1 0.16500 119244.000000
8796 14317 1 0.16500 119244.000000
8796 14570 1 0.16500 119244.000000
8797 14317 1 0.16500 119244.000000
8797 14639 1 0.16500 119244.000000
8798 14318 1 0.16500 119244.000000
8798 14995 1 0.16500 119244.000000
8799 14318 1 0.16500 119244.000000
8799 20716 1 0.16500 119244.000000
8800 14319 1 0.16500 119244.000000
8800 15732 1 0.16500 119244.000000
8801 13814 1 0.16500 119244.000000
8801 14319 1 0.16500 119244.000000
8802 14319 1 0.16500 119244.000000
8802 15062 1 0.16500 119244.000000
8803 14320 1 0.16500 119244.000000
8803 16172 1 0.16500 119244.000000
8804 14320 1 0.16500 119244.000000
8804 14323 1 0.16500 119244.000000
8805 14321 1 0.16500 119244.000000
8805 14891 1 0.16500 119244.000000
8806 14321 1 0.16500 119244.000000
8806 14446 1 0.16500 119244.000000
8807 14321 1 0.16500 119244.000000
8807 16066 1 0.16500 119244.000000
8808 14322 1 0.16500 119244.000000
8808 15346 1 0.16500 119244.000000
8809 14323 1 0.16500 119244.000000
8809 16313 1 0.16500 119244.000000
8810 14323 1 0.16500 119244.000000
8810 14684 1 0.16500 119244.000000
8811 14323 1 0.16500 119244.000000
8811 15723 1 0.16500 119244.000000
8812 14324 1 0.16500 119244.000000
8812 16304 1 0.16500 119244.000000
8813 15073 1 0.16500 119244.000000
8813 20257 1 0.16500 119244.000000
8814 14325 1 0.16500 119244.000000
8814 15081 1 0.16500 119244.000000
8815 12817 1 0.16500 119244.000000
8815 20728 1 0.16500 119244.000000
8816 14326 1 0.16500 119244.000000
8816 14938 1 0.16500 119244.000000
8817 14327 1 0.16500 119244.000000
8817 16317 1 0.16500 119244.000000
8818 14328 1 0.16500 119244.000000
8818 16056 1 0.16500 119244.000000
8819 14328 1 0.16500 119244.000000
8819 16473 1 0.16500 119244.000000
8820 14329 1 0.16500 119244.000000
8820 16348 1 0.16500 119244.000000
8821 14330 1 0.16500 119244.000000
8821 16042 1 0.16500 119244.000000
8822 20260 1 0.16500 119244.000000
8822 20674 1 0.16500 119244.000000
8823 14331 1 0.16500 119244.000000
8823 14738 1 0.16500 119244.000000
8824 14331 1 0.16500 119244.000000
8824 16128 1 0.16500 119244.000000
8825 14332 1 0.16500 119244.000000
8825 15347 1 0.16500 119244.000000
8826 15865 1 0.16500 119244.000000
8826 16423 1 0.16500 119244.000000
8827 14337 1 0.16500 119244.000000
8827 14430 1 0.16500 119244.000000
8828 14337 1 0.16500 119244.000000
8828 14972 1 0.16500 119244.000000
8829 14337 1 0.16500 119244.000000
8829 20209 1 0.16500 119244.000000
8830 14338 1 0.16500 119244.000000
8830 15892 1 0.16500 119244.000000
8831 14339 1 0.16500 119244.000000
8831 16031 1 0.16500 119244.000000
8832 14339 1 0.16500 119244.000000
8832 15744 1 0.16500 119244.000000
8833 14339 1 0.16500 119244.000000
8833 15118 1 0.16500 119244.000000
8834 14339 1 0.16500 119244.000000
8834 14824 1 0.16500 119244.000000
8835 14340 1 0.16500 119244.000000
8835 14576 1 0.16500 119244.000000
8836 14341 1 0.16500 119244.000000
8836 15603 1 0.16500 119244.000000
8837 14342 1 0.16500 119244.000000
8837 15019 1 0.16500 119244.000000
8838 14343 1 0.16500 119244.000000
8838 15137 1 0.16500 119244.000000
8839 14343 1 0.16500 119244.000000
8839 15461 1 0.16500 119244.000000
8840 14343 1 0.16500 119244.000000
8840 16002 1 0.16500 119244.000000
8841 14344 1 0.16500 119244.000000
8841 21008 1 0.16500 119244.000000
8842 14344 1 0.16500 119244.000000
8842 14697 1 0.16500 119244.000000
8843 14345 1 0.16500 119244.000000
8843 16196 1 0.16500 119244.000000
8844 14345 1 0.16500 119244.000000
8844 15344 1 0.16500 119244.000000
8845 14346 1 0.16500 119244.000000
8845 16383 1 0.16500 119244.000000
8846 14346 1 0.16500 119244.000000
8846 16364 1 0.16500 119244.000000
8847 14347 1 0.16500 119244.000000
8847 15466 1 0.16500 119244.000000
8848 13218 1 0.16500 119244.000000
8848 14932 1 0.16500 119244.000000
8849 14348 1 0.16500 119244.000000
8849 15431 1 0.16500 119244.000000
8850 14349 1 0.16500 119244.000000
8850 16615 1 0.16500 119244.000000
8851 20266 1 0.16500 119244.000000
8851 20656 1 0.16500 119244.000000
8852 14351 1 0.16500 119244.000000
8852 15028 1 0.16500 119244.000000
8853 14351 1 0.16500 119244.000000
8853 15259 1 0.16500 119244.000000
8854 14351 1 0.16500 119244.000000
8854 16370 1 0.16500 119244.000000
8855 13045 1 0.16500 119244.000000
8855 16577 1 0.16500 119244.000000
8856 14353 1 0.16500 119244.000000
8856 14780 1 0.16500 119244.000000
8857 14353 1 0.16500 119244.000000
8857 14593 1 0.16500 119244.000000
8858 14354 1 0.16500 119244.000000
8858 15929 1 0.16500 119244.000000
8859 14354 1 0.16500 119244.000000
8859 15539 1 0.16500 119244.000000
8860 14354 1 0.16500 119244.000000
8860 16376 1 0.16500 119244.000000
8861 14355 1 0.16500 119244.000000
8861 16268 1 0.16500 119244.000000
8862 14355 1 0.16500 119244.000000
8862 14763 1 0.16500 119244.000000
8863 14355 1 0.16500 119244.000000
8863 15245 1 0.16500 119244.000000
8864 16338 1 0.16500 119244.000000
8864 20269 1 0.16500 119244.000000
8865 20269 1 0.16500 119244.000000
8865 20928 1 0.16500 119244.000000
8866 14356 1 0.16500 119244.000000
8866 15001 1 0.16500 119244.000000
8867 14356 1 0.16500 119244.000000
8867 16432 1 0.16500 119244.000000
8868 14357 1 0.16500 119244.000000
8868 14592 1 0.16500 119244.000000
8869 11638 1 0.16500 119244.000000
8869 15932 1 0.16500 119244.000000
8870 14358 1 0.16500 119244.000000
8870 16328 1 0.16500 119244.000000
8871 14358 1 0.16500 119244.000000
8871 14503 1 0.16500 119244.000000
8872 14360 1 0.16500 119244.000000
8872 15241 1 0.16500 119244.000000
8873 14361 1 0.16500 119244.000000
8873 15040 1 0.16500 119244.000000
8874 14361 1 0.16500 119244.000000
8874 20617 1 0.16500 119244.000000
8875 14361 1 0.16500 119244.000000
8875 20434 1 0.16500 119244.000000
8876 15002 1 0.16500 119244.000000
8876 20272 1 0.16500 119244.000000
8877 14362 1 0.16500 119244.000000
8877 15221 1 0.16500 119244.000000
8878 14363 1 0.16500 119244.000000
8878 14745 1 0.16500 119244.000000
8879 14363 1 0.16500 119244.000000
8879 17848 1 0.16500 119244.000000
8880 14364 1 0.16500 119244.000000
8880 15280 1 0.16500 119244.000000
8881 14365 1 0.16500 119244.000000
8881 15212 1 0.16500 119244.000000
8882 14365 1 0.16500 119244.000000
8882 16275 1 0.16500 119244.000000
8883 14366 1 0.16500 119244.000000
8883 15472 1 0.16500 119244.000000
8884 14367 1 0.16500 119244.000000
8884 15844 1 0.16500 119244.000000
8885 14367 1 0.16500 119244.000000
8885 15707 1 0.16500 119244.000000
8886 14368 1 0.16500 119244.000000
8886 14670 1 0.16500 119244.000000
8887 14368 1 0.16500 119244.000000
8887 15904 1 0.16500 119244.000000
8888 14370 1 0.16500 119244.000000
8888 16141 1 0.16500 119244.000000
8889 14370 1 0.16500 119244.000000
8889 16122 1 0.16500 119244.000000
8890 14370 1 0.16500 119244.000000
8890 14584 1 0.16500 119244.000000
8891 14371 1 0.16500 119244.000000
8891 14597 1 0.16500 119244.000000
8892 14371 1 0.16500 119244.000000
8892 15603 1 0.16500 119244.000000
8893 13510 1 0.16500 119244.000000
8893 14372 1 0.16500 119244.000000
8894 12256 1 0.16500 119244.000000
8894 16102 1 0.16500 119244.000000
8895 14373 1 0.16500 119244.000000
8895 16430 1 0.16500 119244.000000
8896 14374 1 0.16500 119244.000000
8896 14970 1 0.16500 119244.000000
8897 14374 1 0.16500 119244.000000
8897 14981 1 0.16500 119244.000000
8898 14374 1 0.16500 119244.000000
8898 15208 1 0.16500 119244.000000
8899 14375 1 0.16500 119244.000000
8899 14741 1 0.16500 119244.000000
8900 14376 1 0.16500 119244.000000
8900 16429 1 0.16500 119244.000000
8901 14376 1 0.16500 119244.000000
8901 15886 1 0.16500 119244.000000
8902 14377 1 0.16500 119244.000000
8902 16137 1 0.16500 119244.000000
8903 14377 1 0.16500 119244.000000
8903 16241 1 0.16500 119244.000000
8904 14378 1 0.16500 119244.000000
8904 16495 1 0.16500 119244.000000
8905 14378 1 0.16500 119244.000000
8905 16640 1 0.16500 119244.000000
8906 14378 1 0.16500 119244.000000
8906 15216 1 0.16500 119244.000000
8907 14379 1 0.16500 119244.000000
8907 16100 1 0.16500 119244.000000
8908 15140 1 0.16500 119244.000000
8908 20275 1 0.16500 119244.000000
8909 14381 1 0.16500 119244.000000
8909 15047 1 0.16500 119244.000000
8910 14381 1 0.16500 119244.000000
8910 14780 1 0.16500 119244.000000
8911 14382 1 0.16500 119244.000000
8911 15938 1 0.16500 119244.000000
8912 14382 1 0.16500 119244.000000
8912 14880 1 0.16500 119244.000000
8913 14455 1 0.16500 119244.000000
8913 20281 1 0.16500 119244.000000
8914 14383 1 0.16500 119244.000000
8914 14775 1 0.16500 119244.000000
8915 14383 1 0.16500 119244.000000
8915 14819 1 0.16500 119244.000000
8916 13341 1 0.16500 119244.000000
8916 20284 1 0.16500 119244.000000
8917 14384 1 0.16500 119244.000000
8917 15613 1 0.16500 119244.000000
8918 14385 1 0.16500 119244.000000
8918 15029 1 0.16500 119244.000000
8919 14385 1 0.16500 119244.000000
8919 14879 1 0.16500 119244.000000
8920 14385 1 0.16500 119244.000000
8920 15383 1 0.16500 119244.000000
8921 14386 1 0.16500 119244.000000
8921 16204 1 0.16500 119244.000000
8922 14386 1 0.16500 119244.000000
8922 16242 1 0.16500 119244.000000
8923 20287 1 0.16500 119244.000000
8923 20872 1 0.16500 119244.000000
8924 14388 1 0.16500 119244.000000
8924 15291 1 0.16500 119244.000000
8925 14388 1 0.16500 119244.000000
8925 16601 1 0.16500 119244.000000
8926 14388 1 0.16500 119244.000000
8926 15202 1 0.16500 119244.000000
8927 14389 1 0.16500 119244.000000
8927 16488 1 0.16500 119244.000000
8928 20290 1 0.16500 119244.000000
8928 20482 1 0.16500 119244.000000
8929 14390 1 0.16500 119244.000000
8929 16422 1 0.16500 119244.000000
8930 14391 1 0.16500 119244.000000
8930 16621 1 0.16500 119244.000000
8931 14391 1 0.16500 119244.000000
8931 16463 1 0.16500 119244.000000
8932 14391 1 0.16500 119244.000000
8932 15876 1 0.16500 119244.000000
8933 14391 1 0.16500 119244.000000
8933 16131 1 0.16500 119244.000000
8934 14392 1 0.16500 119244.000000
8934 16294 1 0.16500 119244.000000
8935 14392 1 0.16500 119244.000000
8935 15571 1 0.16500 119244.000000
8936 14393 1 0.16500 119244.000000
8936 15099 1 0.16500 119244.000000
8937 14394 1 0.16500 119244.000000
8937 15095 1 0.16500 119244.000000
8938 14394 1 0.16500 119244.000000
8938 17666 1 0.16500 119244.000000
8939 13959 1 0.16500 119244.000000
8939 14395 1 0.16500 119244.000000
8940 14396 1 0.16500 119244.000000
8940 16413 1 0.16500 119244.000000
8941 14397 1 0.16500 119244.000000
8941 14438 1 0.16500 119244.000000
8942 17372 1 0.16500 119244.000000
8942 20293 1 0.16500 119244.000000
8943 14398 1 0.16500 119244.000000
8943 16162 1 0.16500 119244.000000
8944 14398 1 0.16500 119244.000000
8944 14950 1 0.16500 119244.000000
8945 14398 1 0.16500 119244.000000
8945 16367 1 0.16500 119244.000000
8946 14398 1 0.16500 119244.000000
8946 16596 1 0.16500 119244.000000
8947 14399 1 0.16500 119244.000000
8947 16254 1 0.16500 119244.000000
8948 14399 1 0.16500 119244.000000
8948 14621 1 0.16500 119244.000000
8949 14400 1 0.16500 119244.000000
8949 16584 1 0.16500 119244.000000
8950 14400 1 0.16500 119244.000000
8950 15364 1 0.16500 119244.000000
8951 14400 1 0.16500 119244.000000
8951 15543 1 0.16500 119244.000000
8952 14400 1 0.16500 119244.000000
8952 16642 1 0.16500 119244.000000
8953 14401 1 0.16500 119244.000000
8953 15548 1 0.16500 119244.000000
8954 14402 1 0.16500 119244.000000
8954 20809 1 0.16500 119244.000000
8955 14402 1 0.16500 119244.000000
8955 15154 1 0.16500 119244.000000
8956 14402 1 0.16500 119244.000000
8956 14888 1 0.16500 119244.000000
8957 14403 1 0.16500 119244.000000
8957 14695 1 0.16500 119244.000000
8958 14403 1 0.16500 119244.000000
8958 16687 1 0.16500 119244.000000
8959 14403 1 0.16500 119244.000000
8959 15532 1 0.16500 119244.000000
8960 14405 1 0.16500 119244.000000
8960 14408 1 0.16500 119244.000000
8961 20296 1 0.16500 119244.000000
8961 20713 1 0.16500 119244.000000
8962 15409 1 0.16500 119244.000000
8962 20299 1 0.16500 119244.000000
8963 14406 1 0.16500 119244.000000
8963 16678 1 0.16500 119244.000000
8964 14407 1 0.16500 119244.000000
8964 15537 1 0.16500 119244.000000
8965 14407 1 0.16500 119244.000000
8965 16606 1 0.16500 119244.000000
8966 14407 1 0.16500 119244.000000
8966 16396 1 0.16500 119244.000000
8967 14408 1 0.16500 119244.000000
8967 15935 1 0.16500 119244.000000
8968 14409 1 0.16500 119244.000000
8968 15751 1 0.16500 119244.000000
8969 14409 1 0.16500 119244.000000
8969 15714 1 0.16500 119244.000000
8970 12273 1 0.16500 119244.000000
8970 16268 1 0.16500 119244.000000
8971 14411 1 0.16500 119244.000000
8971 16673 1 0.16500 119244.000000
8972 14411 1 0.16500 119244.000000
8972 15478 1 0.16500 119244.000000
8973 14411 1 0.16500 119244.000000
8973 14760 1 0.16500 119244.000000
8974 14847 1 0.16500 119244.000000
8974 20302 1 0.16500 119244.000000
8975 16314 1 0.16500 119244.000000
8975 20305 1 0.16500 119244.000000
8976 12193 1 0.16500 119244.000000
8976 14613 1 0.16500 119244.000000
8977 14412 1 0.16500 119244.000000
8977 16038 1 0.16500 119244.000000
8978 14412 1 0.16500 119244.000000
8978 15082 1 0.16500 119244.000000
8979 14413 1 0.16500 119244.000000
8979 16464 1 0.16500 119244.000000
8980 14413 1 0.16500 119244.000000
8980 15007 1 0.16500 119244.000000
8981 14413 1 0.16500 119244.000000
8981 15413 1 0.16500 119244.000000
8982 14414 1 0.16500 119244.000000
8982 15772 1 0.16500 119244.000000
8983 14414 1 0.16500 119244.000000
8983 15133 1 0.16500 119244.000000
8984 14415 1 0.16500 119244.000000
8984 16425 1 0.16500 119244.000000
8985 14415 1 0.16500 119244.000000
8985 20509 1 0.16500 119244.000000
8986 11765 1 0.16500 119244.000000
8986 15319 1 0.16500 119244.000000
8987 14417 1 0.16500 119244.000000
8987 16676 1 0.16500 119244.000000
8988 14417 1 0.16500 119244.000000
8988 16175 1 0.16500 119244.000000
8989 14417 1 0.16500 119244.000000
8989 14605 1 0.16500 119244.000000
8990 14418 1 0.16500 119244.000000
8990 16213 1 0.16500 119244.000000
8991 14420 1 0.16500 119244.000000
8991 15673 1 0.16500 119244.000000
8992 14420 1 0.16500 119244.000000
8992 16218 1 0.16500 119244.000000
8993 14421 1 0.16500 119244.000000
8993 16049 1 0.16500 119244.000000
8994 14421 1 0.16500 119244.000000
8994 16520 1 0.16500 119244.000000
8995 14422 1 0.16500 119244.000000
8995 15308 1 0.16500 119244.000000
8996 14424 1 0.16500 119244.000000
8996 16558 1 0.16500 119244.000000
8997 14424 1 0.16500 119244.000000
8997 14786 1 0.16500 119244.000000
8998 14071 1 0.16500 119244.000000
8998 15838 1 0.16500 119244.000000
8999 14426 1 0.16500 119244.000000
8999 15185 1 0.16500 119244.000000
9000 14426 1 0.16500 119244.000000
9000 14757 1 0.16500 119244.000000
9001 12011 1 0.16500 119244.000000
9001 16578 1 0.16500 119244.000000
9002 14427 1 0.16500 119244.000000
9002 16380 1 0.16500 119244.000000
9003 14427 1 0.16500 119244.000000
9003 15719 1 0.16500 119244.000000
9004 14427 1 0.16500 119244.000000
9004 15867 1 0.16500 119244.000000
9005 14428 1 0.16500 119244.000000
9005 15646 1 0.16500 119244.000000
9006 14429 1 0.16500 119244.000000
9006 14758 1 0.16500 119244.000000
9007 14429 1 0.16500 119244.000000
9007 16641 1 0.16500 119244.000000
9008 14429 1 0.16500 119244.000000
9008 16462 1 0.16500 119244.000000
9009 14430 1 0.16500 119244.000000
9009 16352 1 0.16500 119244.000000
9010 11939 1 0.16500 119244.000000
9010 20308 1 0.16500 119244.000000
9011 20311 1 0.16500 119244.000000
9011 20527 1 0.16500 119244.000000
9012 14563 1 0.16500 119244.000000
9012 20311 1 0.16500 119244.000000
9013 14431 1 0.16500 119244.000000
9013 16009 1 0.16500 119244.000000
9014 14431 1 0.16500 119244.000000
9014 15522 1 0.16500 119244.000000
9015 14432 1 0.16500 119244.000000
9015 14734 1 0.16500 119244.000000
9016 14734 1 0.16500 119244.000000
9016 15317 1 0.16500 119244.000000
9017 14432 1 0.16500 119244.000000
9017 16484 1 0.16500 119244.000000
9018 14433 1 0.16500 119244.000000
9018 15827 1 0.16500 119244.000000
9019 14434 1 0.16500 119244.000000
9019 14492 1 0.16500 119244.000000
9020 12137 1 0.16500 119244.000000
9020 14435 1 0.16500 119244.000000
9021 14435 1 0.16500 119244.000000
9021 16158 1 0.16500 119244.000000
9022 14436 1 0.16500 119244.000000
9022 15366 1 0.16500 119244.000000
9023 14436 1 0.16500 119244.000000
9023 16059 1 0.16500 119244.000000
9024 15213 1 0.16500 119244.000000
9024 20314 1 0.16500 119244.000000
9025 20314 1 0.16500 119244.000000
9025 20758 1 0.16500 119244.000000
9026 14437 1 0.16500 119244.000000
9026 16055 1 0.16500 119244.000000
9027 14437 1 0.16500 119244.000000
9027 15755 1 0.16500 119244.000000
9028 14437 1 0.16500 119244.000000
9028 15588 1 0.16500 119244.000000
9029 14438 1 0.16500 119244.000000
9029 15055 1 0.16500 119244.000000
9030 14438 1 0.16500 119244.000000
9030 14819 1 0.16500 119244.000000
9031 14439 1 0.16500 119244.000000
9031 15498 1 0.16500 119244.000000
9032 14439 1 0.16500 119244.000000
9032 17106 1 0.16500 119244.000000
9033 13634 1 0.16500 119244.000000
9033 14439 1 0.16500 119244.000000
9034 14440 1 0.16500 119244.000000
9034 14764 1 0.16500 119244.000000
9035 15239 1 0.16500 119244.000000
9035 16742 1 0.16500 119244.000000
9036 14442 1 0.16500 119244.000000
9036 16194 1 0.16500 119244.000000
9037 14442 1 0.16500 119244.000000
9037 14835 1 0.16500 119244.000000
9038 14443 1 0.16500 119244.000000
9038 15695 1 0.16500 119244.000000
9039 14443 1 0.16500 119244.000000
9039 15145 1 0.16500 119244.000000
9040 14444 1 0.16500 119244.000000
9040 15463 1 0.16500 119244.000000
9041 15295 1 0.16500 119244.000000
9041 15949 1 0.16500 119244.000000
9042 14444 1 0.16500 119244.000000
9042 15949 1 0.16500 119244.000000
9043 14444 1 0.16500 119244.000000
9043 15603 1 0.16500 119244.000000
9044 14445 1 0.16500 119244.000000
9044 14875 1 0.16500 119244.000000
9045 14446 1 0.16500 119244.000000
9045 15810 1 0.16500 119244.000000
9046 14447 1 0.16500 119244.000000
9046 15172 1 0.16500 119244.000000
9047 14447 1 0.16500 119244.000000
9047 15944 1 0.16500 119244.000000
9048 17792 1 0.16500 119244.000000
9048 20317 1 0.16500 119244.000000
9049 14448 1 0.16500 119244.000000
9049 15340 1 0.16500 119244.000000
9050 14448 1 0.16500 119244.000000
9050 16269 1 0.16500 119244.000000
9051 14449 1 0.16500 119244.000000
9051 14989 1 0.16500 119244.000000
9052 14449 1 0.16500 119244.000000
9052 16609 1 0.16500 119244.000000
9053 14450 1 0.16500 119244.000000
9053 15362 1 0.16500 119244.000000
9054 14451 1 0.16500 119244.000000
9054 20356 1 0.16500 119244.000000
9055 14451 1 0.16500 119244.000000
9055 16201 1 0.16500 119244.000000
9056 12710 1 0.16500 119244.000000
9056 14453 1 0.16500 119244.000000
9057 14454 1 0.16500 119244.000000
9057 14698 1 0.16500 119244.000000
9058 14454 1 0.16500 119244.000000
9058 16385 1 0.16500 119244.000000
9059 14454 1 0.16500 119244.000000
9059 14837 1 0.16500 119244.000000
9060 14455 1 0.16500 119244.000000
9060 14476 1 0.16500 119244.000000
9061 13549 1 0.16500 119244.000000
9061 15143 1 0.16500 119244.000000
9062 12552 1 0.16500 119244.000000
9062 14456 1 0.16500 119244.000000
9063 14456 1 0.16500 119244.000000
9063 14560 1 0.16500 119244.000000
9064 14456 1 0.16500 119244.000000
9064 16299 1 0.16500 119244.000000
9065 14457 1 0.16500 119244.000000
9065 14900 1 0.16500 119244.000000
9066 14458 1 0.16500 119244.000000
9066 16021 1 0.16500 119244.000000
9067 15108 1 0.16500 119244.000000
9067 16756 1 0.16500 119244.000000
9068 14459 1 0.16500 119244.000000
9068 15392 1 0.16500 119244.000000
9069 14947 1 0.16500 119244.000000
9069 15392 1 0.16500 119244.000000
9070 14460 1 0.16500 119244.000000
9070 16595 1 0.16500 119244.000000
9071 14460 1 0.16500 119244.000000
9071 15104 1 0.16500 119244.000000
9072 14461 1 0.16500 119244.000000
9072 15510 1 0.16500 119244.000000
9073 12772 1 0.16500 119244.000000
9073 15326 1 0.16500 119244.000000
9074 14462 1 0.16500 119244.000000
9074 15971 1 0.16500 119244.000000
9075 14462 1 0.16500 119244.000000
9075 15008 1 0.16500 119244.000000
9076 14463 1 0.16500 119244.000000
9076 15465 1 0.16500 119244.000000
9077 14463 1 0.16500 119244.000000
9077 15575 1 0.16500 119244.000000
9078 14463 1 0.16500 119244.000000
9078 16650 1 0.16500 119244.000000
9079 14463 1 0.16500 119244.000000
9079 16256 1 0.16500 119244.000000
9080 14464 1 0.16500 119244.000000
9080 16694 1 0.16500 119244.000000
9081 14464 1 0.16500 119244.000000
9081 14471 1 0.16500 119244.000000
9082 14978 1 0.16500 119244.000000
9082 15910 1 0.16500 119244.000000
9083 14464 1 0.16500 119244.000000
9083 15910 1 0.16500 119244.000000
9084 14465 1 0.16500 119244.000000
9084 14506 1 0.16500 119244.000000
9085 13275 1 0.16500 119244.000000
9085 14592 1 0.16500 119244.000000
9086 14467 1 0.16500 119244.000000
9086 15256 1 0.16500 119244.000000
9087 14468 1 0.16500 119244.000000
9087 15731 1 0.16500 119244.000000
9088 16546 1 0.16500 119244.000000
9088 20320 1 0.16500 119244.000000
9089 15408 1 0.16500 119244.000000
9089 20320 1 0.16500 119244.000000
9090 16882 1 0.16500 119244.000000
9090 20320 1 0.16500 119244.000000
9091 14469 1 0.16500 119244.000000
9091 20434 1 0.16500 119244.000000
9092 14469 1 0.16500 119244.000000
9092 15132 1 0.16500 119244.000000
9093 14469 1 0.16500 119244.000000
9093 14470 1 0.16500 119244.000000
9094 14470 1 0.16500 119244.000000
9094 14669 1 0.16500 119244.000000
9095 14470 1 0.16500 119244.000000
9095 16695 1 0.16500 119244.000000
9096 14471 1 0.16500 119244.000000
9096 16370 1 0.16500 119244.000000
9097 14471 1 0.16500 119244.000000
9097 15106 1 0.16500 119244.000000
9098 12065 1 0.16500 119244.000000
9098 16770 1 0.16500 119244.000000
9099 14472 1 0.16500 119244.000000
9099 16270 1 0.16500 119244.000000
9100 14472 1 0.16500 119244.000000
9100 16442 1 0.16500 119244.000000
9101 14473 1 0.16500 119244.000000
9101 16189 1 0.16500 119244.000000
9102 14473 1 0.16500 119244.000000
9102 14677 1 0.16500 119244.000000
9103 15952 1 0.16500 119244.000000
9103 20323 1 0.16500 119244.000000
9104 15930 1 0.16500 119244.000000
9104 20323 1 0.16500 119244.000000
9105 14474 1 0.16500 119244.000000
9105 15277 1 0.16500 119244.000000
9106 14474 1 0.16500 119244.000000
9106 16306 1 0.16500 119244.000000
9107 14474 1 0.16500 119244.000000
9107 14483 1 0.16500 119244.000000
9108 14475 1 0.16500 119244.000000
9108 16179 1 0.16500 119244.000000
9109 14476 1 0.16500 119244.000000
9109 16043 1 0.16500 119244.000000
9110 14477 1 0.16500 119244.000000
9110 14504 1 0.16500 119244.000000
9111 16174 1 0.16500 119244.000000
9111 20098 1 0.16500 119244.000000
9112 14477 1 0.16500 119244.000000
9112 15736 1 0.16500 119244.000000
9113 14478 1 0.16500 119244.000000
9113 16015 1 0.16500 119244.000000
9114 14479 1 0.16500 119244.000000
9114 15185 1 0.16500 119244.000000
9115 14479 1 0.16500 119244.000000
9115 15051 1 0.16500 119244.000000
9116 14479 1 0.16500 119244.000000
9116 15491 1 0.16500 119244.000000
9117 14480 1 0.16500 119244.000000
9117 16305 1 0.16500 119244.000000
9118 14480 1 0.16500 119244.000000
9118 15430 1 0.16500 119244.000000
9119 14961 1 0.16500 119244.000000
9119 15430 1 0.16500 119244.000000
9120 14480 1 0.16500 119244.000000
9120 16149 1 0.16500 119244.000000
9121 14481 1 0.16500 119244.000000
9121 16031 1 0.16500 119244.000000
9122 14481 1 0.16500 119244.000000
9122 15965 1 0.16500 119244.000000
9123 14482 1 0.16500 119244.000000
9123 16527 1 0.16500 119244.000000
9124 14482 1 0.16500 119244.000000
9124 15482 1 0.16500 119244.000000
9125 14482 1 0.16500 119244.000000
9125 16296 1 0.16500 119244.000000
9126 15922 1 0.16500 119244.000000
9126 16296 1 0.16500 119244.000000
9127 14483 1 0.16500 119244.000000
9127 16595 1 0.16500 119244.000000
9128 12919 1 0.16500 119244.000000
9128 14483 1 0.16500 119244.000000
9129 14485 1 0.16500 119244.000000
9129 14908 1 0.16500 119244.000000
9130 13559 1 0.16500 119244.000000
9130 14486 1 0.16500 119244.000000
9131 14486 1 0.16500 119244.000000
9131 14810 1 0.16500 119244.000000
9132 14486 1 0.16500 119244.000000
9132 15355 1 0.16500 119244.000000
9133 14486 1 0.16500 119244.000000
9133 16643 1 0.16500 119244.000000
9134 12349 1 0.16500 119244.000000
9134 16176 1 0.16500 119244.000000
9135 14489 1 0.16500 119244.000000
9135 16393 1 0.16500 119244.000000
9136 14489 1 0.16500 119244.000000
9136 15487 1 0.16500 119244.000000
9137 14490 1 0.16500 119244.000000
9137 14780 1 0.16500 119244.000000
9138 14490 1 0.16500 119244.000000
9138 14598 1 0.16500 119244.000000
9139 16302 1 0.16500 119244.000000
9139 20326 1 0.16500 119244.000000
9140 14789 1 0.16500 119244.000000
9140 20326 1 0.16500 119244.000000
9141 14491 1 0.16500 119244.000000
9141 16281 1 0.16500 119244.000000
9142 14492 1 0.16500 119244.000000
9142 14975 1 0.16500 119244.000000
9143 20329 1 0.16500 119244.000000
9143 20497 1 0.16500 119244.000000
9144 14739 1 0.16500 119244.000000
9144 20329 1 0.16500 119244.000000
9145 14493 1 0.16500 119244.000000
9145 15284 1 0.16500 119244.000000
9146 15768 1 0.16500 119244.000000
9146 16442 1 0.16500 119244.000000
9147 14992 1 0.16500 119244.000000
9147 15768 1 0.16500 119244.000000
9148 14495 1 0.16500 119244.000000
9148 15768 1 0.16500 119244.000000
9149 14496 1 0.16500 119244.000000
9149 16543 1 0.16500 119244.000000
9150 14496 1 0.16500 119244.000000
9150 15840 1 0.16500 119244.000000
9151 14496 1 0.16500 119244.000000
9151 14612 1 0.16500 119244.000000
9152 14497 1 0.16500 119244.000000
9152 15069 1 0.16500 119244.000000
9153 14497 1 0.16500 119244.000000
9153 15754 1 0.16500 119244.000000
9154 14497 1 0.16500 119244.000000
9154 15801 1 0.16500 119244.000000
9155 14498 1 0.16500 119244.000000
9155 16188 1 0.16500 119244.000000
9156 14499 1 0.16500 119244.000000
9156 15778 1 0.16500 119244.000000
9157 14499 1 0.16500 119244.000000
9157 16068 1 0.16500 119244.000000
9158 14500 1 0.16500 119244.000000
9158 15823 1 0.16500 119244.000000
9159 12983 1 0.16500 119244.000000
9159 14848 1 0.16500 119244.000000
9160 14501 1 0.16500 119244.000000
9160 16082 1 0.16500 119244.000000
9161 14501 1 0.16500 119244.000000
9161 15899 1 0.16500 119244.000000
9162 14501 1 0.16500 119244.000000
9162 15599 1 0.16500 119244.000000
9163 14502 1 0.16500 119244.000000
9163 14827 1 0.16500 119244.000000
9164 14502 1 0.16500 119244.000000
9164 20928 1 0.16500 119244.000000
9165 14502 1 0.16500 119244.000000
9165 16691 1 0.16500 119244.000000
9166 14503 1 0.16500 119244.000000
9166 16588 1 0.16500 119244.000000
9167 14503 1 0.16500 119244.000000
9167 15389 1 0.16500 119244.000000
9168 15837 1 0.16500 119244.000000
9168 20335 1 0.16500 119244.000000
9169 14505 1 0.16500 119244.000000
9169 15475 1 0.16500 119244.000000
9170 14507 1 0.16500 119244.000000
9170 15335 1 0.16500 119244.000000
9171 14507 1 0.16500 119244.000000
9171 16479 1 0.16500 119244.000000
9172 12662 1 0.16500 119244.000000
9172 17932 1 0.16500 119244.000000
9173 14508 1 0.16500 119244.000000
9173 15694 1 0.16500 119244.000000
9174 12015 1 0.16500 119244.000000
9174 16574 1 0.16500 119244.000000
9175 15325 1 0.16500 119244.000000
9175 15694 1 0.16500 119244.000000
9176 14509 1 0.16500 119244.000000
9176 15170 1 0.16500 119244.000000
9177 14509 1 0.16500 119244.000000
9177 16177 1 0.16500 119244.000000
9178 14510 1 0.16500 119244.000000
9178 14937 1 0.16500 119244.000000
9179 14511 1 0.16500 119244.000000
9179 15456 1 0.16500 119244.000000
9180 15365 1 0.16500 119244.000000
9180 20158 1 0.16500 119244.000000
9181 14511 1 0.16500 119244.000000
9181 16380 1 0.16500 119244.000000
9182 14512 1 0.16500 119244.000000
9182 16109 1 0.16500 119244.000000
9183 14514 1 0.16500 119244.000000
9183 20605 1 0.16500 119244.000000
9184 14514 1 0.16500 119244.000000
9184 14741 1 0.16500 119244.000000
9185 14515 1 0.16500 119244.000000
9185 16143 1 0.16500 119244.000000
9186 14517 1 0.16500 119244.000000
9186 16507 1 0.16500 119244.000000
9187 14518 1 0.16500 119244.000000
9187 14684 1 0.16500 119244.000000
9188 14519 1 0.16500 119244.000000
9188 15336 1 0.16500 119244.000000
9189 17736 1 0.16500 119244.000000
9189 20341 1 0.16500 119244.000000
9190 15225 1 0.16500 119244.000000
9190 20341 1 0.16500 119244.000000
9191 20341 1 0.16500 119244.000000
9191 20752 1 0.16500 119244.000000
9192 14520 1 0.16500 119244.000000
9192 14963 1 0.16500 119244.000000
9193 16784 1 0.16500 119244.000000
9193 17568 1 0.16500 119244.000000
9194 12701 1 0.16500 119244.000000
9194 16798 1 0.16500 119244.000000
9195 14521 1 0.16500 119244.000000
9195 16613 1 0.16500 119244.000000
9196 14522 1 0.16500 119244.000000
9196 16102 1 0.16500 119244.000000
9197 14522 1 0.16500 119244.000000
9197 15707 1 0.16500 119244.000000
9198 14523 1 0.16500 119244.000000
9198 15558 1 0.16500 119244.000000
9199 14523 1 0.16500 119244.000000
9199 16089 1 0.16500 119244.000000
9200 14523 1 0.16500 119244.000000
9200 16090 1 0.16500 119244.000000
9201 14524 1 0.16500 119244.000000
9201 15262 1 0.16500 119244.000000
9202 14524 1 0.16500 119244.000000
9202 20785 1 0.16500 119244.000000
9203 14525 1 0.16500 119244.000000
9203 16070 1 0.16500 119244.000000
9204 14525 1 0.16500 119244.000000
9204 15388 1 0.16500 119244.000000
9205 14526 1 0.16500 119244.000000
9205 16519 1 0.16500 119244.000000
9206 14526 1 0.16500 119244.000000
9206 14810 1 0.16500 119244.000000
9207 14528 1 0.16500 119244.000000
9207 16523 1 0.16500 119244.000000
9208 14528 1 0.16500 119244.000000
9208 16192 1 0.16500 119244.000000
9209 14528 1 0.16500 119244.000000
9209 15377 1 0.16500 119244.000000
9210 14529 1 0.16500 119244.000000
9210 20629 1 0.16500 119244.000000
9211 14529 1 0.16500 119244.000000
9211 16622 1 0.16500 119244.000000
9212 14529 1 0.16500 119244.000000
9212 15598 1 0.16500 119244.000000
9213 14530 1 0.16500 119244.000000
9213 14575 1 0.16500 119244.000000
9214 14531 1 0.16500 119244.000000
9214 15197 1 0.16500 119244.000000
9215 14532 1 0.16500 119244.000000
9215 15776 1 0.16500 119244.000000
9216 14621 1 0.16500 119244.000000
9216 15950 1 0.16500 119244.000000
9217 14943 1 0.16500 119244.000000
9217 16321 1 0.16500 119244.000000
9218 14533 1 0.16500 119244.000000
9218 14943 1 0.16500 119244.000000
9219 14534 1 0.16500 119244.000000
9219 14545 1 0.16500 119244.000000
9220 14535 1 0.16500 119244.000000
9220 15240 1 0.16500 119244.000000
9221 14535 1 0.16500 119244.000000
9221 16122 1 0.16500 119244.000000
9222 14536 1 0.16500 119244.000000
9222 15380 1 0.16500 119244.000000
9223 14537 1 0.16500 119244.000000
9223 14805 1 0.16500 119244.000000
9224 14537 1 0.16500 119244.000000
9224 14895 1 0.16500 119244.000000
9225 14538 1 0.16500 119244.000000
9225 15336 1 0.16500 119244.000000
9226 14539 1 0.16500 119244.000000
9226 15477 1 0.16500 119244.000000
9227 14539 1 0.16500 119244.000000
9227 14672 1 0.16500 119244.000000
9228 12486 1 0.16500 119244.000000
9228 14540 1 0.16500 119244.000000
9229 14541 1 0.16500 119244.000000
9229 15094 1 0.16500 119244.000000
9230 14541 1 0.16500 119244.000000
9230 14703 1 0.16500 119244.000000
9231 14541 1 0.16500 119244.000000
9231 16395 1 0.16500 119244.000000
9232 14544 1 0.16500 119244.000000
9232 15905 1 0.16500 119244.000000
9233 14544 1 0.16500 119244.000000
9233 15904 1 0.16500 119244.000000
9234 14546 1 0.16500 119244.000000
9234 15529 1 0.16500 119244.000000
9235 14546 1 0.16500 119244.000000
9235 14786 1 0.16500 119244.000000
9236 14547 1 0.16500 119244.000000
9236 15915 1 0.16500 119244.000000
9237 14547 1 0.16500 119244.000000
9237 14879 1 0.16500 119244.000000
9238 14548 1 0.16500 119244.000000
9238 16419 1 0.16500 119244.000000
9239 14548 1 0.16500 119244.000000
9239 14977 1 0.16500 119244.000000
9240 14549 1 0.16500 119244.000000
9240 15310 1 0.16500 119244.000000
9241 14549 1 0.16500 119244.000000
9241 14862 1 0.16500 119244.000000
9242 14549 1 0.16500 119244.000000
9242 16241 1 0.16500 119244.000000
9243 14550 1 0.16500 119244.000000
9243 16457 1 0.16500 119244.000000
9244 14550 1 0.16500 119244.000000
9244 14602 1 0.16500 119244.000000
9245 14551 1 0.16500 119244.000000
9245 15655 1 0.16500 119244.000000
9246 14551 1 0.16500 119244.000000
9246 14853 1 0.16500 119244.000000
9247 14551 1 0.16500 119244.000000
9247 20737 1 0.16500 119244.000000
9248 14552 1 0.16500 119244.000000
9248 15788 1 0.16500 119244.000000
9249 14552 1 0.16500 119244.000000
9249 14559 1 0.16500 119244.000000
9250 14552 1 0.16500 119244.000000
9250 14669 1 0.16500 119244.000000
9251 14553 1 0.16500 119244.000000
9251 14855 1 0.16500 119244.000000
9252 14553 1 0.16500 119244.000000
9252 15618 1 0.16500 119244.000000
9253 14554 1 0.16500 119244.000000
9253 16656 1 0.16500 119244.000000
9254 16361 1 0.16500 119244.000000
9254 20347 1 0.16500 119244.000000
9255 14555 1 0.16500 119244.000000
9255 15086 1 0.16500 119244.000000
9256 14555 1 0.16500 119244.000000
9256 14704 1 0.16500 119244.000000
9257 14556 1 0.16500 119244.000000
9257 16125 1 0.16500 119244.000000
9258 14556 1 0.16500 119244.000000
9258 15824 1 0.16500 119244.000000
9259 14557 1 0.16500 119244.000000
9259 15956 1 0.16500 119244.000000
9260 14557 1 0.16500 119244.000000
9260 14839 1 0.16500 119244.000000
9261 14558 1 0.16500 119244.000000
9261 14909 1 0.16500 119244.000000
9262 14558 1 0.16500 119244.000000
9262 15283 1 0.16500 119244.000000
9263 16032 1 0.16500 119244.000000
9263 16840 1 0.16500 119244.000000
9264 15082 1 0.16500 119244.000000
9264 16840 1 0.16500 119244.000000
9265 14559 1 0.16500 119244.000000
9265 16007 1 0.16500 119244.000000
9266 14561 1 0.16500 119244.000000
9266 15839 1 0.16500 119244.000000
9267 14561 1 0.16500 119244.000000
9267 15113 1 0.16500 119244.000000
9268 14561 1 0.16500 119244.000000
9268 16349 1 0.16500 119244.000000
9269 14562 1 0.16500 119244.000000
9269 15173 1 0.16500 119244.000000
9270 14563 1 0.16500 119244.000000
9270 20386 1 0.16500 119244.000000
9271 15166 1 0.16500 119244.000000
9271 20386 1 0.16500 119244.000000
9272 14564 1 0.16500 119244.000000
9272 15833 1 0.16500 119244.000000
9273 14564 1 0.16500 119244.000000
9273 15103 1 0.16500 119244.000000
9274 14564 1 0.16500 119244.000000
9274 16523 1 0.16500 119244.000000
9275 14565 1 0.16500 119244.000000
9275 15594 1 0.16500 119244.000000
9276 14566 1 0.16500 119244.000000
9276 20689 1 0.16500 119244.000000
9277 14567 1 0.16500 119244.000000
9277 15825 1 0.16500 119244.000000
9278 14568 1 0.16500 119244.000000
9278 16663 1 0.16500 119244.000000
9279 14569 1 0.16500 119244.000000
9279 16131 1 0.16500 119244.000000
9280 14569 1 0.16500 119244.000000
9280 14582 1 0.16500 119244.000000
9281 14569 1 0.16500 119244.000000
9281 16621 1 0.16500 119244.000000
9282 14570 1 0.16500 119244.000000
9282 14677 1 0.16500 119244.000000
9283 12287 1 0.16500 119244.000000
9283 15819 1 0.16500 119244.000000
9284 20350 1 0.16500 119244.000000
9284 20476 1 0.16500 119244.000000
9285 14572 1 0.16500 119244.000000
9285 16305 1 0.16500 119244.000000
9286 15919 1 0.16500 119244.000000
9286 20353 1 0.16500 119244.000000
9287 14573 1 0.16500 119244.000000
9287 15230 1 0.16500 119244.000000
9288 14573 1 0.16500 119244.000000
9288 14789 1 0.16500 119244.000000
9289 14574 1 0.16500 119244.000000
9289 15234 1 0.16500 119244.000000
9290 14574 1 0.16500 119244.000000
9290 15796 1 0.16500 119244.000000
9291 14574 1 0.16500 119244.000000
9291 16358 1 0.16500 119244.000000
9292 14575 1 0.16500 119244.000000
9292 15328 1 0.16500 119244.000000
9293 14575 1 0.16500 119244.000000
9293 16619 1 0.16500 119244.000000
9294 14577 1 0.16500 119244.000000
9294 16129 1 0.16500 119244.000000
9295 14578 1 0.16500 119244.000000
9295 16242 1 0.16500 119244.000000
9296 14578 1 0.16500 119244.000000
9296 15922 1 0.16500 119244.000000
9297 14579 1 0.16500 119244.000000
9297 16585 1 0.16500 119244.000000
9298 14579 1 0.16500 119244.000000
9298 14831 1 0.16500 119244.000000
9299 14579 1 0.16500 119244.000000
9299 14816 1 0.16500 119244.000000
9300 14580 1 0.16500 119244.000000
9300 15969 1 0.16500 119244.000000
9301 14580 1 0.16500 119244.000000
9301 15689 1 0.16500 119244.000000
9302 14581 1 0.16500 119244.000000
9302 16026 1 0.16500 119244.000000
9303 14581 1 0.16500 119244.000000
9303 15502 1 0.16500 119244.000000
9304 12399 1 0.16500 119244.000000
9304 14582 1 0.16500 119244.000000
9305 14583 1 0.16500 119244.000000
9305 15584 1 0.16500 119244.000000
9306 14583 1 0.16500 119244.000000
9306 15806 1 0.16500 119244.000000
9307 14583 1 0.16500 119244.000000
9307 14961 1 0.16500 119244.000000
9308 14584 1 0.16500 119244.000000
9308 15507 1 0.16500 119244.000000
9309 14586 1 0.16500 119244.000000
9309 16451 1 0.16500 119244.000000
9310 14587 1 0.16500 119244.000000
9310 14854 1 0.16500 119244.000000
9311 14587 1 0.16500 119244.000000
9311 15695 1 0.16500 119244.000000
9312 14588 1 0.16500 119244.000000
9312 15458 1 0.16500 119244.000000
9313 14588 1 0.16500 119244.000000
9313 16371 1 0.16500 119244.000000
9314 14588 1 0.16500 119244.000000
9314 15102 1 0.16500 119244.000000
9315 14590 1 0.16500 119244.000000
9315 15662 1 0.16500 119244.000000
9316 14590 1 0.16500 119244.000000
9316 15322 1 0.16500 119244.000000
9317 14591 1 0.16500 119244.000000
9317 16318 1 0.16500 119244.000000
9318 14594 1 0.16500 119244.000000
9318 14753 1 0.16500 119244.000000
9319 14594 1 0.16500 119244.000000
9319 16591 1 0.16500 119244.000000
9320 14594 1 0.16500 119244.000000
9320 14993 1 0.16500 119244.000000
9321 14595 1 0.16500 119244.000000
9321 15003 1 0.16500 119244.000000
9322 14595 1 0.16500 119244.000000
9322 16624 1 0.16500 119244.000000
9323 14596 1 0.16500 119244.000000
9323 15692 1 0.16500 119244.000000
9324 14597 1 0.16500 119244.000000
9324 15677 1 0.16500 119244.000000
9325 14597 1 0.16500 119244.000000
9325 15463 1 0.16500 119244.000000
9326 14599 1 0.16500 119244.000000
9326 15778 1 0.16500 119244.000000
9327 14599 1 0.16500 119244.000000
9327 15823 1 0.16500 119244.000000
9328 14600 1 0.16500 119244.000000
9328 15750 1 0.16500 119244.000000
9329 12136 1 0.16500 119244.000000
9329 12927 1 0.16500 119244.000000
9330 14601 1 0.16500 119244.000000
9330 15467 1 0.16500 119244.000000
9331 14602 1 0.16500 119244.000000
9331 15124 1 0.16500 119244.000000
9332 14602 1 0.16500 119244.000000
9332 16298 1 0.16500 119244.000000
9333 14602 1 0.16500 119244.000000
9333 15999 1 0.16500 119244.000000
9334 14603 1 0.16500 119244.000000
9334 15504 1 0.16500 119244.000000
9335 13555 1 0.16500 119244.000000
9335 14603 1 0.16500 119244.000000
9336 14604 1 0.16500 119244.000000
9336 15251 1 0.16500 119244.000000
9337 14605 1 0.16500 119244.000000
9337 15838 1 0.16500 119244.000000
9338 14605 1 0.16500 119244.000000
9338 15293 1 0.16500 119244.000000
9339 14606 1 0.16500 119244.000000
9339 16544 1 0.16500 119244.000000
9340 14607 1 0.16500 119244.000000
9340 15681 1 0.16500 119244.000000
9341 14607 1 0.16500 119244.000000
9341 16016 1 0.16500 119244.000000
9342 14608 1 0.16500 119244.000000
9342 16339 1 0.16500 119244.000000
9343 14608 1 0.16500 119244.000000
9343 15115 1 0.16500 119244.000000
9344 14609 1 0.16500 119244.000000
9344 20653 1 0.16500 119244.000000
9345 14609 1 0.16500 119244.000000
9345 16105 1 0.16500 119244.000000
9346 14610 1 0.16500 119244.000000
9346 15400 1 0.16500 119244.000000
9347 14611 1 0.16500 119244.000000
9347 15122 1 0.16500 119244.000000
9348 17820 1 0.16500 119244.000000
9348 20356 1 0.16500 119244.000000
9349 14612 1 0.16500 119244.000000
9349 15969 1 0.16500 119244.000000
9350 14613 1 0.16500 119244.000000
9350 14931 1 0.16500 119244.000000
9351 14614 1 0.16500 119244.000000
9351 14842 1 0.16500 119244.000000
9352 12596 1 0.16500 119244.000000
9352 14614 1 0.16500 119244.000000
9353 14615 1 0.16500 119244.000000
9353 16263 1 0.16500 119244.000000
9354 14616 1 0.16500 119244.000000
9354 16436 1 0.16500 119244.000000
9355 14617 1 0.16500 119244.000000
9355 15091 1 0.16500 119244.000000
9356 14617 1 0.16500 119244.000000
9356 15815 1 0.16500 119244.000000
9357 14618 1 0.16500 119244.000000
9357 15015 1 0.16500 119244.000000
9358 14619 1 0.16500 119244.000000
9358 15986 1 0.16500 119244.000000
9359 14971 1 0.16500 119244.000000
9359 15973 1 0.16500 119244.000000
9360 14619 1 0.16500 119244.000000
9360 14971 1 0.16500 119244.000000
9361 14620 1 0.16500 119244.000000
9361 15803 1 0.16500 119244.000000
9362 14532 1 0.16500 119244.000000
9362 15950 1 0.16500 119244.000000
9363 14622 1 0.16500 119244.000000
9363 16078 1 0.16500 119244.000000
9364 14622 1 0.16500 119244.000000
9364 14686 1 0.16500 119244.000000
9365 14623 1 0.16500 119244.000000
9365 15850 1 0.16500 119244.000000
9366 14623 1 0.16500 119244.000000
9366 15186 1 0.16500 119244.000000
9367 14623 1 0.16500 119244.000000
9367 16195 1 0.16500 119244.000000
9368 14624 1 0.16500 119244.000000
9368 16505 1 0.16500 119244.000000
9369 14624 1 0.16500 119244.000000
9369 16009 1 0.16500 119244.000000
9370 14625 1 0.16500 119244.000000
9370 14885 1 0.16500 119244.000000
9371 14626 1 0.16500 119244.000000
9371 15077 1 0.16500 119244.000000
9372 14626 1 0.16500 119244.000000
9372 16123 1 0.16500 119244.000000
9373 14627 1 0.16500 119244.000000
9373 16209 1 0.16500 119244.000000
9374 14628 1 0.16500 119244.000000
9374 15083 1 0.16500 119244.000000
9375 16279 1 0.16500 119244.000000
9375 16910 1 0.16500 119244.000000
9376 14629 1 0.16500 119244.000000
9376 16330 1 0.16500 119244.000000
9377 14629 1 0.16500 119244.000000
9377 15659 1 0.16500 119244.000000
9378 14630 1 0.16500 119244.000000
9378 15642 1 0.16500 119244.000000
9379 14630 1 0.16500 119244.000000
9379 14870 1 0.16500 119244.000000
9380 14631 1 0.16500 119244.000000
9380 15360 1 0.16500 119244.000000
9381 14631 1 0.16500 119244.000000
9381 16542 1 0.16500 119244.000000
9382 14632 1 0.16500 119244.000000
9382 16327 1 0.16500 119244.000000
9383 14632 1 0.16500 119244.000000
9383 14693 1 0.16500 119244.000000
9384 14254 1 0.16500 119244.000000
9384 14633 1 0.16500 119244.000000
9385 14634 1 0.16500 119244.000000
9385 16621 1 0.16500 119244.000000
9386 14634 1 0.16500 119244.000000
9386 14905 1 0.16500 119244.000000
9387 14634 1 0.16500 119244.000000
9387 16463 1 0.16500 119244.000000
9388 16219 1 0.16500 119244.000000
9388 20362 1 0.16500 119244.000000
9389 14635 1 0.16500 119244.000000
9389 15718 1 0.16500 119244.000000
9390 14635 1 0.16500 119244.000000
9390 14720 1 0.16500 119244.000000
9391 14636 1 0.16500 119244.000000
9391 15801 1 0.16500 119244.000000
9392 14637 1 0.16500 119244.000000
9392 14913 1 0.16500 119244.000000
9393 14638 1 0.16500 119244.000000
9393 14933 1 0.16500 119244.000000
9394 11508 1 0.16500 119244.000000
9394 14638 1 0.16500 119244.000000
9395 14638 1 0.16500 119244.000000
9395 20791 1 0.16500 119244.000000
9396 14639 1 0.16500 119244.000000
9396 16315 1 0.16500 119244.000000
9397 14641 1 0.16500 119244.000000
9397 15876 1 0.16500 119244.000000
9398 14641 1 0.16500 119244.000000
9398 15072 1 0.16500 119244.000000
9399 14641 1 0.16500 119244.000000
9399 16374 1 0.16500 119244.000000
9400 14642 1 0.16500 119244.000000
9400 14720 1 0.16500 119244.000000
9401 14643 1 0.16500 119244.000000
9401 14805 1 0.16500 119244.000000
9402 14644 1 0.16500 119244.000000
9402 20953 1 0.16500 119244.000000
9403 14644 1 0.16500 119244.000000
9403 14833 1 0.16500 119244.000000
9404 14645 1 0.16500 119244.000000
9404 15382 1 0.16500 119244.000000
9405 16924 1 0.16500 119244.000000
9405 20458 1 0.16500 119244.000000
9406 14648 1 0.16500 119244.000000
9406 15428 1 0.16500 119244.000000
9407 14649 1 0.16500 119244.000000
9407 15854 1 0.16500 119244.000000
9408 14649 1 0.16500 119244.000000
9408 16349 1 0.16500 119244.000000
9409 14650 1 0.16500 119244.000000
9409 16096 1 0.16500 119244.000000
9410 14651 1 0.16500 119244.000000
9410 15764 1 0.16500 119244.000000
9411 14651 1 0.16500 119244.000000
9411 16350 1 0.16500 119244.000000
9412 14652 1 0.16500 119244.000000
9412 14677 1 0.16500 119244.000000
9413 14652 1 0.16500 119244.000000
9413 15619 1 0.16500 119244.000000
9414 14653 1 0.16500 119244.000000
9414 15628 1 0.16500 119244.000000
9415 14654 1 0.16500 119244.000000
9415 15040 1 0.16500 119244.000000
9416 14654 1 0.16500 119244.000000
9416 15788 1 0.16500 119244.000000
9417 14654 1 0.16500 119244.000000
9417 15367 1 0.16500 119244.000000
9418 14654 1 0.16500 119244.000000
9418 16695 1 0.16500 119244.000000
9419 14655 1 0.16500 119244.000000
9419 14962 1 0.16500 119244.000000
9420 14656 1 0.16500 119244.000000
9420 16372 1 0.16500 119244.000000
9421 13111 1 0.16500 119244.000000
9421 14656 1 0.16500 119244.000000
9422 14656 1 0.16500 119244.000000
9422 15407 1 0.16500 119244.000000
9423 14657 1 0.16500 119244.000000
9423 14996 1 0.16500 119244.000000
9424 14657 1 0.16500 119244.000000
9424 20482 1 0.16500 119244.000000
9425 14657 1 0.16500 119244.000000
9425 15938 1 0.16500 119244.000000
9426 14658 1 0.16500 119244.000000
9426 14724 1 0.16500 119244.000000
9427 14659 1 0.16500 119244.000000
9427 15314 1 0.16500 119244.000000
9428 14660 1 0.16500 119244.000000
9428 14885 1 0.16500 119244.000000
9429 14660 1 0.16500 119244.000000
9429 16667 1 0.16500 119244.000000
9430 15056 1 0.16500 119244.000000
9430 16938 1 0.16500 119244.000000
9431 14661 1 0.16500 119244.000000
9431 16079 1 0.16500 119244.000000
9432 14662 1 0.16500 119244.000000
9432 14740 1 0.16500 119244.000000
9433 14662 1 0.16500 119244.000000
9433 15363 1 0.16500 119244.000000
9434 14663 1 0.16500 119244.000000
9434 16654 1 0.16500 119244.000000
9435 14664 1 0.16500 119244.000000
9435 16125 1 0.16500 119244.000000
9436 14664 1 0.16500 119244.000000
9436 16625 1 0.16500 119244.000000
9437 14665 1 0.16500 119244.000000
9437 14835 1 0.16500 119244.000000
9438 14667 1 0.16500 119244.000000
9438 15189 1 0.16500 119244.000000
9439 14667 1 0.16500 119244.000000
9439 16682 1 0.16500 119244.000000
9440 14668 1 0.16500 119244.000000
9440 15389 1 0.16500 119244.000000
9441 14669 1 0.16500 119244.000000
9441 20617 1 0.16500 119244.000000
9442 14670 1 0.16500 119244.000000
9442 15550 1 0.16500 119244.000000
9443 14670 1 0.16500 119244.000000
9443 16265 1 0.16500 119244.000000
9444 14671 1 0.16500 119244.000000
9444 16199 1 0.16500 119244.000000
9445 14672 1 0.16500 119244.000000
9445 15018 1 0.16500 119244.000000
9446 14672 1 0.16500 119244.000000
9446 15618 1 0.16500 119244.000000
9447 14672 1 0.16500 119244.000000
9447 15014 1 0.16500 119244.000000
9448 14673 1 0.16500 119244.000000
9448 15911 1 0.16500 119244.000000
9449 14673 1 0.16500 119244.000000
9449 15082 1 0.16500 119244.000000
9450 14673 1 0.16500 119244.000000
9450 16262 1 0.16500 119244.000000
9451 14674 1 0.16500 119244.000000
9451 16555 1 0.16500 119244.000000
9452 14126 1 0.16500 119244.000000
9452 14698 1 0.16500 119244.000000
9453 14675 1 0.16500 119244.000000
9453 15654 1 0.16500 119244.000000
9454 14675 1 0.16500 119244.000000
9454 14785 1 0.16500 119244.000000
9455 14676 1 0.16500 119244.000000
9455 15372 1 0.16500 119244.000000
9456 16572 1 0.16500 119244.000000
9456 17498 1 0.16500 119244.000000
9457 14677 1 0.16500 119244.000000
9457 15271 1 0.16500 119244.000000
9458 14678 1 0.16500 119244.000000
9458 14809 1 0.16500 119244.000000
9459 14679 1 0.16500 119244.000000
9459 15702 1 0.16500 119244.000000
9460 14679 1 0.16500 119244.000000
9460 20491 1 0.16500 119244.000000
9461 14680 1 0.16500 119244.000000
9461 16384 1 0.16500 119244.000000
9462 14680 1 0.16500 119244.000000
9462 16173 1 0.16500 119244.000000
9463 14680 1 0.16500 119244.000000
9463 15210 1 0.16500 119244.000000
9464 15089 1 0.16500 119244.000000
9464 16952 1 0.16500 119244.000000
9465 12987 1 0.16500 119244.000000
9465 14943 1 0.16500 119244.000000
9466 14681 1 0.16500 119244.000000
9466 15154 1 0.16500 119244.000000
9467 14682 1 0.16500 119244.000000
9467 15883 1 0.16500 119244.000000
9468 14682 1 0.16500 119244.000000
9468 15022 1 0.16500 119244.000000
9469 12722 1 0.16500 119244.000000
9469 14683 1 0.16500 119244.000000
9470 14683 1 0.16500 119244.000000
9470 16229 1 0.16500 119244.000000
9471 14683 1 0.16500 119244.000000
9471 15930 1 0.16500 119244.000000
9472 14685 1 0.16500 119244.000000
9472 15876 1 0.16500 119244.000000
9473 14686 1 0.16500 119244.000000
9473 14800 1 0.16500 119244.000000
9474 14686 1 0.16500 119244.000000
9474 16394 1 0.16500 119244.000000
9475 14687 1 0.16500 119244.000000
9475 16680 1 0.16500 119244.000000
9476 14687 1 0.16500 119244.000000
9476 15269 1 0.16500 119244.000000
9477 14687 1 0.16500 119244.000000
9477 15214 1 0.16500 119244.000000
9478 14688 1 0.16500 119244.000000
9478 16197 1 0.16500 119244.000000
9479 14689 1 0.16500 119244.000000
9479 20371 1 0.16500 119244.000000
9480 14689 1 0.16500 119244.000000
9480 16073 1 0.16500 119244.000000
9481 14690 1 0.16500 119244.000000
9481 15023 1 0.16500 119244.000000
9482 14691 1 0.16500 119244.000000
9482 15614 1 0.16500 119244.000000
9483 14692 1 0.16500 119244.000000
9483 15580 1 0.16500 119244.000000
9484 14693 1 0.16500 119244.000000
9484 16619 1 0.16500 119244.000000
9485 14632 1 0.16500 119244.000000
9485 14956 1 0.16500 119244.000000
9486 12535 1 0.16500 119244.000000
9486 15415 1 0.16500 119244.000000
9487 14694 1 0.16500 119244.000000
9487 14743 1 0.16500 119244.000000
9488 14695 1 0.16500 119244.000000
9488 16534 1 0.16500 119244.000000
9489 14695 1 0.16500 119244.000000
9489 15331 1 0.16500 119244.000000
9490 14696 1 0.16500 119244.000000
9490 15149 1 0.16500 119244.000000
9491 14696 1 0.16500 119244.000000
9491 14955 1 0.16500 119244.000000
9492 15173 1 0.16500 119244.000000
9492 16980 1 0.16500 119244.000000
9493 14697 1 0.16500 119244.000000
9493 15818 1 0.16500 119244.000000
9494 14698 1 0.16500 119244.000000
9494 14825 1 0.16500 119244.000000
9495 14699 1 0.16500 119244.000000
9495 15505 1 0.16500 119244.000000
9496 14700 1 0.16500 119244.000000
9496 15090 1 0.16500 119244.000000
9497 14701 1 0.16500 119244.000000
9497 15749 1 0.16500 119244.000000
9498 14701 1 0.16500 119244.000000
9498 15211 1 0.16500 119244.000000
9499 14702 1 0.16500 119244.000000
9499 15706 1 0.16500 119244.000000
9500 16136 1 0.16500 119244.000000
9500 16994 1 0.16500 119244.000000
9501 14704 1 0.16500 119244.000000
9501 14720 1 0.16500 119244.000000
9502 14704 1 0.16500 119244.000000
9502 15175 1 0.16500 119244.000000
9503 14706 1 0.16500 119244.000000
9503 16559 1 0.16500 119244.000000
9504 14707 1 0.16500 119244.000000
9504 15703 1 0.16500 119244.000000
9505 16373 1 0.16500 119244.000000
9505 20704 1 0.16500 119244.000000
9506 20365 1 0.16500 119244.000000
9506 20704 1 0.16500 119244.000000
9507 14708 1 0.16500 119244.000000
9507 15799 1 0.16500 119244.000000
9508 13673 1 0.16500 119244.000000
9508 14708 1 0.16500 119244.000000
9509 14709 1 0.16500 119244.000000
9509 15296 1 0.16500 119244.000000
9510 12692 1 0.16500 119244.000000
9510 15832 1 0.16500 119244.000000
9511 14710 1 0.16500 119244.000000
9511 14771 1 0.16500 119244.000000
9512 14710 1 0.16500 119244.000000
9512 15718 1 0.16500 119244.000000
9513 14712 1 0.16500 119244.000000
9513 14744 1 0.16500 119244.000000
9514 14712 1 0.16500 119244.000000
9514 15244 1 0.16500 119244.000000
9515 14712 1 0.16500 119244.000000
9515 15159 1 0.16500 119244.000000
9516 14712 1 0.16500 119244.000000
9516 16619 1 0.16500 119244.000000
9517 12222 1 0.16500 119244.000000
9517 15818 1 0.16500 119244.000000
9518 14714 1 0.16500 119244.000000
9518 15965 1 0.16500 119244.000000
9519 14715 1 0.16500 119244.000000
9519 14863 1 0.16500 119244.000000
9520 15300 1 0.16500 119244.000000
9520 20368 1 0.16500 119244.000000
9521 14716 1 0.16500 119244.000000
9521 14798 1 0.16500 119244.000000
9522 14717 1 0.16500 119244.000000
9522 16692 1 0.16500 119244.000000
9523 14718 1 0.16500 119244.000000
9523 16547 1 0.16500 119244.000000
9524 14718 1 0.16500 119244.000000
9524 16490 1 0.16500 119244.000000
9525 14719 1 0.16500 119244.000000
9525 15970 1 0.16500 119244.000000
9526 15432 1 0.16500 119244.000000
9526 20371 1 0.16500 119244.000000
9527 14721 1 0.16500 119244.000000
9527 15743 1 0.16500 119244.000000
9528 14721 1 0.16500 119244.000000
9528 15976 1 0.16500 119244.000000
9529 14722 1 0.16500 119244.000000
9529 14794 1 0.16500 119244.000000
9530 14722 1 0.16500 119244.000000
9530 14870 1 0.16500 119244.000000
9531 14722 1 0.16500 119244.000000
9531 15784 1 0.16500 119244.000000
9532 15400 1 0.16500 119244.000000
9532 15900 1 0.16500 119244.000000
9533 14723 1 0.16500 119244.000000
9533 15400 1 0.16500 119244.000000
9534 14723 1 0.16500 119244.000000
9534 16643 1 0.16500 119244.000000
9535 14724 1 0.16500 119244.000000
9535 15194 1 0.16500 119244.000000
9536 14725 1 0.16500 119244.000000
9536 16171 1 0.16500 119244.000000
9537 14725 1 0.16500 119244.000000
9537 15632 1 0.16500 119244.000000
9538 14726 1 0.16500 119244.000000
9538 14908 1 0.16500 119244.000000
9539 14726 1 0.16500 119244.000000
9539 16526 1 0.16500 119244.000000
9540 14727 1 0.16500 119244.000000
9540 14854 1 0.16500 119244.000000
9541 14728 1 0.16500 119244.000000
9541 20812 1 0.16500 119244.000000
9542 14728 1 0.16500 119244.000000
9542 17218 1 0.16500 119244.000000
9543 14728 1 0.16500 119244.000000
9543 16144 1 0.16500 119244.000000
9544 14728 1 0.16500 119244.000000
9544 15136 1 0.16500 119244.000000
9545 14729 1 0.16500 119244.000000
9545 15429 1 0.16500 119244.000000
9546 14730 1 0.16500 119244.000000
9546 16522 1 0.16500 119244.000000
9547 15167 1 0.16500 119244.000000
9547 17008 1 0.16500 119244.000000
9548 14850 1 0.16500 119244.000000
9548 17008 1 0.16500 119244.000000
9549 20134 1 0.16500 119244.000000
9549 20662 1 0.16500 119244.000000
9550 14732 1 0.16500 119244.000000
9550 15446 1 0.16500 119244.000000
9551 14732 1 0.16500 119244.000000
9551 15513 1 0.16500 119244.000000
9552 14733 1 0.16500 119244.000000
9552 16247 1 0.16500 119244.000000
9553 14733 1 0.16500 119244.000000
9553 16170 1 0.16500 119244.000000
9554 14733 1 0.16500 119244.000000
9554 15256 1 0.16500 119244.000000
9555 14734 1 0.16500 119244.000000
9555 15760 1 0.16500 119244.000000
9556 14735 1 0.16500 119244.000000
9556 14814 1 0.16500 119244.000000
9557 14735 1 0.16500 119244.000000
9557 20410 1 0.16500 119244.000000
9558 17526 1 0.16500 119244.000000
9558 19618 1 0.16500 119244.000000
9559 14736 1 0.16500 119244.000000
9559 15203 1 0.16500 119244.000000
9560 14736 1 0.16500 119244.000000
9560 15857 1 0.16500 119244.000000
9561 14737 1 0.16500 119244.000000
9561 20878 1 0.16500 119244.000000
9562 14737 1 0.16500 119244.000000
9562 20548 1 0.16500 119244.000000
9563 15094 1 0.16500 119244.000000
9563 17036 1 0.16500 119244.000000
9564 14738 1 0.16500 119244.000000
9564 15106 1 0.16500 119244.000000
9565 14739 1 0.16500 119244.000000
9565 16498 1 0.16500 119244.000000
9566 14739 1 0.16500 119244.000000
9566 16316 1 0.16500 119244.000000
9567 14662 1 0.16500 119244.000000
9567 15626 1 0.16500 119244.000000
9568 14073 1 0.16500 119244.000000
9568 17050 1 0.16500 119244.000000
9569 14741 1 0.16500 119244.000000
9569 15692 1 0.16500 119244.000000
9570 14741 1 0.16500 119244.000000
9570 15231 1 0.16500 119244.000000
9571 14742 1 0.16500 119244.000000
9571 15194 1 0.16500 119244.000000
9572 14744 1 0.16500 119244.000000
9572 15329 1 0.16500 119244.000000
9573 14745 1 0.16500 119244.000000
9573 16065 1 0.16500 119244.000000
9574 14746 1 0.16500 119244.000000
9574 20608 1 0.16500 119244.000000
9575 14746 1 0.16500 119244.000000
9575 20569 1 0.16500 119244.000000
9576 14747 1 0.16500 119244.000000
9576 20821 1 0.16500 119244.000000
9577 14747 1 0.16500 119244.000000
9577 16596 1 0.16500 119244.000000
9578 14748 1 0.16500 119244.000000
9578 20827 1 0.16500 119244.000000
9579 14749 1 0.16500 119244.000000
9579 15250 1 0.16500 119244.000000
9580 14750 1 0.16500 119244.000000
9580 16641 1 0.16500 119244.000000
9581 14751 1 0.16500 119244.000000
9581 20632 1 0.16500 119244.000000
9582 14751 1 0.16500 119244.000000
9582 15939 1 0.16500 119244.000000
9583 14751 1 0.16500 119244.000000
9583 20883 1 0.16500 119244.000000
9584 14754 1 0.16500 119244.000000
9584 16427 1 0.16500 119244.000000
9585 14754 1 0.16500 119244.000000
9585 15927 1 0.16500 119244.000000
9586 14755 1 0.16500 119244.000000
9586 16467 1 0.16500 119244.000000
9587 14756 1 0.16500 119244.000000
9587 16201 1 0.16500 119244.000000
9588 14757 1 0.16500 119244.000000
9588 16388 1 0.16500 119244.000000
9589 14757 1 0.16500 119244.000000
9589 16387 1 0.16500 119244.000000
9590 14757 1 0.16500 119244.000000
9590 15602 1 0.16500 119244.000000
9591 14759 1 0.16500 119244.000000
9591 15081 1 0.16500 119244.000000
9592 14759 1 0.16500 119244.000000
9592 15136 1 0.16500 119244.000000
9593 14760 1 0.16500 119244.000000
9593 15939 1 0.16500 119244.000000
9594 14760 1 0.16500 119244.000000
9594 15806 1 0.16500 119244.000000
9595 14761 1 0.16500 119244.000000
9595 16089 1 0.16500 119244.000000
9596 14761 1 0.16500 119244.000000
9596 14838 1 0.16500 119244.000000
9597 15385 1 0.16500 119244.000000
9597 16089 1 0.16500 119244.000000
9598 14762 1 0.16500 119244.000000
9598 14860 1 0.16500 119244.000000
9599 14762 1 0.16500 119244.000000
9599 16203 1 0.16500 119244.000000
9600 14763 1 0.16500 119244.000000
9600 15943 1 0.16500 119244.000000
9601 14997 1 0.16500 119244.000000
9601 20374 1 0.16500 119244.000000
9602 15437 1 0.16500 119244.000000
9602 20374 1 0.16500 119244.000000
9603 14764 1 0.16500 119244.000000
9603 15129 1 0.16500 119244.000000
9604 14765 1 0.16500 119244.000000
9604 16154 1 0.16500 119244.000000
9605 14765 1 0.16500 119244.000000
9605 14908 1 0.16500 119244.000000
9606 14766 1 0.16500 119244.000000
9606 15919 1 0.16500 119244.000000
9607 14767 1 0.16500 119244.000000
9607 15727 1 0.16500 119244.000000
9608 14767 1 0.16500 119244.000000
9608 15998 1 0.16500 119244.000000
9609 14768 1 0.16500 119244.000000
9609 16255 1 0.16500 119244.000000
9610 16255 1 0.16500 119244.000000
9610 16277 1 0.16500 119244.000000
9611 16161 1 0.16500 119244.000000
9611 16255 1 0.16500 119244.000000
9612 14769 1 0.16500 119244.000000
9612 16337 1 0.16500 119244.000000
9613 14769 1 0.16500 119244.000000
9613 15755 1 0.16500 119244.000000
9614 14770 1 0.16500 119244.000000
9614 15451 1 0.16500 119244.000000
9615 14770 1 0.16500 119244.000000
9615 15783 1 0.16500 119244.000000
9616 14772 1 0.16500 119244.000000
9616 15767 1 0.16500 119244.000000
9617 14772 1 0.16500 119244.000000
9617 16556 1 0.16500 119244.000000
9618 14773 1 0.16500 119244.000000
9618 15946 1 0.16500 119244.000000
9619 14774 1 0.16500 119244.000000
9619 15471 1 0.16500 119244.000000
9620 14775 1 0.16500 119244.000000
9620 16589 1 0.16500 119244.000000
9621 15167 1 0.16500 119244.000000
9621 19042 1 0.16500 119244.000000
9622 17078 1 0.16500 119244.000000
9622 17554 1 0.16500 119244.000000
9623 14779 1 0.16500 119244.000000
9623 16310 1 0.16500 119244.000000
9624 14779 1 0.16500 119244.000000
9624 16292 1 0.16500 119244.000000
9625 14779 1 0.16500 119244.000000
9625 16110 1 0.16500 119244.000000
9626 14781 1 0.16500 119244.000000
9626 16341 1 0.16500 119244.000000
9627 14781 1 0.16500 119244.000000
9627 15534 1 0.16500 119244.000000
9628 14781 1 0.16500 119244.000000
9628 15566 1 0.16500 119244.000000
9629 14781 1 0.16500 119244.000000
9629 14864 1 0.16500 119244.000000
9630 14782 1 0.16500 119244.000000
9630 16254 1 0.16500 119244.000000
9631 14782 1 0.16500 119244.000000
9631 15085 1 0.16500 119244.000000
9632 14783 1 0.16500 119244.000000
9632 15824 1 0.16500 119244.000000
9633 15644 1 0.16500 119244.000000
9633 15824 1 0.16500 119244.000000
9634 14783 1 0.16500 119244.000000
9634 16625 1 0.16500 119244.000000
9635 14784 1 0.16500 119244.000000
9635 15161 1 0.16500 119244.000000
9636 14784 1 0.16500 119244.000000
9636 15233 1 0.16500 119244.000000
9637 14785 1 0.16500 119244.000000
9637 15811 1 0.16500 119244.000000
9638 14786 1 0.16500 119244.000000
9638 16541 1 0.16500 119244.000000
9639 14786 1 0.16500 119244.000000
9639 16626 1 0.16500 119244.000000
9640 14787 1 0.16500 119244.000000
9640 15332 1 0.16500 119244.000000
9641 14788 1 0.16500 119244.000000
9641 15084 1 0.16500 119244.000000
9642 14789 1 0.16500 119244.000000
9642 20569 1 0.16500 119244.000000
9643 14789 1 0.16500 119244.000000
9643 17330 1 0.16500 119244.000000
9644 16443 1 0.16500 119244.000000
9644 17092 1 0.16500 119244.000000
9645 17092 1 0.16500 119244.000000
9645 20770 1 0.16500 119244.000000
9646 14790 1 0.16500 119244.000000
9646 16133 1 0.16500 119244.000000
9647 14790 1 0.16500 119244.000000
9647 15974 1 0.16500 119244.000000
9648 17386 1 0.16500 119244.000000
9648 20380 1 0.16500 119244.000000
9649 14792 1 0.16500 119244.000000
9649 15886 1 0.16500 119244.000000
9650 14792 1 0.16500 119244.000000
9650 16136 1 0.16500 119244.000000
9651 14792 1 0.16500 119244.000000
9651 16324 1 0.16500 119244.000000
9652 14793 1 0.16500 119244.000000
9652 15752 1 0.16500 119244.000000
9653 15411 1 0.16500 119244.000000
9653 20383 1 0.16500 119244.000000
9654 16023 1 0.16500 119244.000000
9654 20389 1 0.16500 119244.000000
9655 15678 1 0.16500 119244.000000
9655 15871 1 0.16500 119244.000000
9656 14796 1 0.16500 119244.000000
9656 15871 1 0.16500 119244.000000
9657 14797 1 0.16500 119244.000000
9657 15459 1 0.16500 119244.000000
9658 14798 1 0.16500 119244.000000
9658 15706 1 0.16500 119244.000000
9659 14798 1 0.16500 119244.000000
9659 15393 1 0.16500 119244.000000
9660 14798 1 0.16500 119244.000000
9660 16332 1 0.16500 119244.000000
9661 14799 1 0.16500 119244.000000
9661 15985 1 0.16500 119244.000000
9662 14799 1 0.16500 119244.000000
9662 15213 1 0.16500 119244.000000
9663 14799 1 0.16500 119244.000000
9663 14883 1 0.16500 119244.000000
9664 14800 1 0.16500 119244.000000
9664 16180 1 0.16500 119244.000000
9665 14801 1 0.16500 119244.000000
9665 20413 1 0.16500 119244.000000
9666 14801 1 0.16500 119244.000000
9666 15174 1 0.16500 119244.000000
9667 14802 1 0.16500 119244.000000
9667 16101 1 0.16500 119244.000000
9668 14802 1 0.16500 119244.000000
9668 20779 1 0.16500 119244.000000
9669 14802 1 0.16500 119244.000000
9669 14954 1 0.16500 119244.000000
9670 14802 1 0.16500 119244.000000
9670 15780 1 0.16500 119244.000000
9671 14803 1 0.16500 119244.000000
9671 14998 1 0.16500 119244.000000
9672 20299 1 0.16500 119244.000000
9672 20392 1 0.16500 119244.000000
9673 16497 1 0.16500 119244.000000
9673 20395 1 0.16500 119244.000000
9674 14804 1 0.16500 119244.000000
9674 15089 1 0.16500 119244.000000
9675 14805 1 0.16500 119244.000000
9675 16120 1 0.16500 119244.000000
9676 14806 1 0.16500 119244.000000
9676 14945 1 0.16500 119244.000000
9677 14807 1 0.16500 119244.000000
9677 15593 1 0.16500 119244.000000
9678 14807 1 0.16500 119244.000000
9678 20533 1 0.16500 119244.000000
9679 14807 1 0.16500 119244.000000
9679 20596 1 0.16500 119244.000000
9680 14808 1 0.16500 119244.000000
9680 16528 1 0.16500 119244.000000
9681 14808 1 0.16500 119244.000000
9681 15189 1 0.16500 119244.000000
9682 14808 1 0.16500 119244.000000
9682 15318 1 0.16500 119244.000000
9683 14809 1 0.16500 119244.000000
9683 16587 1 0.16500 119244.000000
9684 14810 1 0.16500 119244.000000
9684 15193 1 0.16500 119244.000000
9685 14811 1 0.16500 119244.000000
9685 15857 1 0.16500 119244.000000
9686 14811 1 0.16500 119244.000000
9686 15606 1 0.16500 119244.000000
9687 15864 1 0.16500 119244.000000
9687 16620 1 0.16500 119244.000000
9688 14812 1 0.16500 119244.000000
9688 16620 1 0.16500 119244.000000
9689 14813 1 0.16500 119244.000000
9689 16317 1 0.16500 119244.000000
9690 15906 1 0.16500 119244.000000
9690 20398 1 0.16500 119244.000000
9691 14814 1 0.16500 119244.000000
9691 20913 1 0.16500 119244.000000
9692 14815 1 0.16500 119244.000000
9692 16267 1 0.16500 119244.000000
9693 14816 1 0.16500 119244.000000
9693 16606 1 0.16500 119244.000000
9694 14817 1 0.16500 119244.000000
9694 15026 1 0.16500 119244.000000
9695 14817 1 0.16500 119244.000000
9695 15609 1 0.16500 119244.000000
9696 14818 1 0.16500 119244.000000
9696 16585 1 0.16500 119244.000000
9697 14818 1 0.16500 119244.000000
9697 15762 1 0.16500 119244.000000
9698 14819 1 0.16500 119244.000000
9698 15213 1 0.16500 119244.000000
9699 14820 1 0.16500 119244.000000
9699 15697 1 0.16500 119244.000000
9700 14820 1 0.16500 119244.000000
9700 16324 1 0.16500 119244.000000
9701 14820 1 0.16500 119244.000000
9701 20773 1 0.16500 119244.000000
9702 14821 1 0.16500 119244.000000
9702 14839 1 0.16500 119244.000000
9703 14821 1 0.16500 119244.000000
9703 15497 1 0.16500 119244.000000
9704 14821 1 0.16500 119244.000000
9704 16074 1 0.16500 119244.000000
9705 14822 1 0.16500 119244.000000
9705 16111 1 0.16500 119244.000000
9706 14822 1 0.16500 119244.000000
9706 15994 1 0.16500 119244.000000
9707 14982 1 0.16500 119244.000000
9707 16111 1 0.16500 119244.000000
9708 14823 1 0.16500 119244.000000
9708 16013 1 0.16500 119244.000000
9709 11779 1 0.16500 119244.000000
9709 14824 1 0.16500 119244.000000
9710 14825 1 0.16500 119244.000000
9710 15820 1 0.16500 119244.000000
9711 14825 1 0.16500 119244.000000
9711 15764 1 0.16500 119244.000000
9712 14826 1 0.16500 119244.000000
9712 15212 1 0.16500 119244.000000
9713 14826 1 0.16500 119244.000000
9713 15373 1 0.16500 119244.000000
9714 14827 1 0.16500 119244.000000
9714 16042 1 0.16500 119244.000000
9715 14827 1 0.16500 119244.000000
9715 15786 1 0.16500 119244.000000
9716 14828 1 0.16500 119244.000000
9716 16667 1 0.16500 119244.000000
9717 14828 1 0.16500 119244.000000
9717 15067 1 0.16500 119244.000000
9718 14829 1 0.16500 119244.000000
9718 14835 1 0.16500 119244.000000
9719 14830 1 0.16500 119244.000000
9719 15907 1 0.16500 119244.000000
9720 14830 1 0.16500 119244.000000
9720 15369 1 0.16500 119244.000000
9721 14830 1 0.16500 119244.000000
9721 15011 1 0.16500 119244.000000
9722 14832 1 0.16500 119244.000000
9722 15325 1 0.16500 119244.000000
9723 14832 1 0.16500 119244.000000
9723 16048 1 0.16500 119244.000000
9724 14834 1 0.16500 119244.000000
9724 15919 1 0.16500 119244.000000
9725 14835 1 0.16500 119244.000000
9725 15081 1 0.16500 119244.000000
9726 14836 1 0.16500 119244.000000
9726 16125 1 0.16500 119244.000000
9727 11952 1 0.16500 119244.000000
9727 20404 1 0.16500 119244.000000
9728 14837 1 0.16500 119244.000000
9728 15820 1 0.16500 119244.000000
9729 15441 1 0.16500 119244.000000
9729 15722 1 0.16500 119244.000000
9730 14838 1 0.16500 119244.000000
9730 15722 1 0.16500 119244.000000
9731 14840 1 0.16500 119244.000000
9731 15791 1 0.16500 119244.000000
9732 14841 1 0.16500 119244.000000
9732 20620 1 0.16500 119244.000000
9733 14841 1 0.16500 119244.000000
9733 16164 1 0.16500 119244.000000
9734 14841 1 0.16500 119244.000000
9734 20686 1 0.16500 119244.000000
9735 14841 1 0.16500 119244.000000
9735 16514 1 0.16500 119244.000000
9736 14842 1 0.16500 119244.000000
9736 15114 1 0.16500 119244.000000
9737 14842 1 0.16500 119244.000000
9737 15557 1 0.16500 119244.000000
9738 14842 1 0.16500 119244.000000
9738 15603 1 0.16500 119244.000000
9739 14843 1 0.16500 119244.000000
9739 15725 1 0.16500 119244.000000
9740 13086 1 0.16500 119244.000000
9740 15955 1 0.16500 119244.000000
9741 14845 1 0.16500 119244.000000
9741 15657 1 0.16500 119244.000000
9742 14846 1 0.16500 119244.000000
9742 15476 1 0.16500 119244.000000
9743 14846 1 0.16500 119244.000000
9743 15961 1 0.16500 119244.000000
9744 14847 1 0.16500 119244.000000
9744 20737 1 0.16500 119244.000000
9745 14847 1 0.16500 119244.000000
9745 16252 1 0.16500 119244.000000
9746 14848 1 0.16500 119244.000000
9746 15705 1 0.16500 119244.000000
9747 14848 1 0.16500 119244.000000
9747 15880 1 0.16500 119244.000000
9748 14849 1 0.16500 119244.000000
9748 16600 1 0.16500 119244.000000
9749 14850 1 0.16500 119244.000000
9749 16607 1 0.16500 119244.000000
9750 14850 1 0.16500 119244.000000
9750 14958 1 0.16500 119244.000000
9751 14851 1 0.16500 119244.000000
9751 20596 1 0.16500 119244.000000
9752 14851 1 0.16500 119244.000000
9752 15737 1 0.16500 119244.000000
9753 14851 1 0.16500 119244.000000
9753 15501 1 0.16500 119244.000000
9754 14852 1 0.16500 119244.000000
9754 15223 1 0.16500 119244.000000
9755 14853 1 0.16500 119244.000000
9755 14868 1 0.16500 119244.000000
9756 14853 1 0.16500 119244.000000
9756 16206 1 0.16500 119244.000000
9757 14857 1 0.16500 119244.000000
9757 15268 1 0.16500 119244.000000
9758 14857 1 0.16500 119244.000000
9758 15139 1 0.16500 119244.000000
9759 14974 1 0.16500 119244.000000
9759 15574 1 0.16500 119244.000000
9760 14859 1 0.16500 119244.000000
9760 14974 1 0.16500 119244.000000
9761 14860 1 0.16500 119244.000000
9761 14880 1 0.16500 119244.000000
9762 14861 1 0.16500 119244.000000
9762 16493 1 0.16500 119244.000000
9763 14861 1 0.16500 119244.000000
9763 15431 1 0.16500 119244.000000
9764 14887 1 0.16500 119244.000000
9764 17134 1 0.16500 119244.000000
9765 17134 1 0.16500 119244.000000
9765 17610 1 0.16500 119244.000000
9766 14862 1 0.16500 119244.000000
9766 20626 1 0.16500 119244.000000
9767 14863 1 0.16500 119244.000000
9767 15320 1 0.16500 119244.000000
9768 14863 1 0.16500 119244.000000
9768 20563 1 0.16500 119244.000000
9769 14864 1 0.16500 119244.000000
9769 14940 1 0.16500 119244.000000
9770 14864 1 0.16500 119244.000000
9770 15655 1 0.16500 119244.000000
9771 14865 1 0.16500 119244.000000
9771 16638 1 0.16500 119244.000000
9772 14865 1 0.16500 119244.000000
9772 15941 1 0.16500 119244.000000
9773 14867 1 0.16500 119244.000000
9773 15592 1 0.16500 119244.000000
9774 14868 1 0.16500 119244.000000
9774 16046 1 0.16500 119244.000000
9775 14869 1 0.16500 119244.000000
9775 15929 1 0.16500 119244.000000
9776 14870 1 0.16500 119244.000000
9776 16591 1 0.16500 119244.000000
9777 14630 1 0.16500 119244.000000
9777 15356 1 0.16500 119244.000000
9778 14871 1 0.16500 119244.000000
9778 16094 1 0.16500 119244.000000
9779 14871 1 0.16500 119244.000000
9779 15628 1 0.16500 119244.000000
9780 14872 1 0.16500 119244.000000
9780 16334 1 0.16500 119244.000000
9781 14873 1 0.16500 119244.000000
9781 16157 1 0.16500 119244.000000
9782 14873 1 0.16500 119244.000000
9782 16476 1 0.16500 119244.000000
9783 14874 1 0.16500 119244.000000
9783 16482 1 0.16500 119244.000000
9784 14874 1 0.16500 119244.000000
9784 15013 1 0.16500 119244.000000
9785 14874 1 0.16500 119244.000000
9785 15679 1 0.16500 119244.000000
9786 14875 1 0.16500 119244.000000
9786 16122 1 0.16500 119244.000000
9787 14876 1 0.16500 119244.000000
9787 14939 1 0.16500 119244.000000
9788 13342 1 0.16500 119244.000000
9788 14876 1 0.16500 119244.000000
9789 14877 1 0.16500 119244.000000
9789 15934 1 0.16500 119244.000000
9790 14878 1 0.16500 119244.000000
9790 16343 1 0.16500 119244.000000
9791 14878 1 0.16500 119244.000000
9791 15570 1 0.16500 119244.000000
9792 14878 1 0.16500 119244.000000
9792 15058 1 0.16500 119244.000000
9793 14880 1 0.16500 119244.000000
9793 16688 1 0.16500 119244.000000
9794 14881 1 0.16500 119244.000000
9794 16147 1 0.16500 119244.000000
9795 14881 1 0.16500 119244.000000
9795 15819 1 0.16500 119244.000000
9796 14882 1 0.16500 119244.000000
9796 15215 1 0.16500 119244.000000
9797 11475 1 0.16500 119244.000000
9797 14882 1 0.16500 119244.000000
9798 14884 1 0.16500 119244.000000
9798 15419 1 0.16500 119244.000000
9799 14884 1 0.16500 119244.000000
9799 15658 1 0.16500 119244.000000
9800 14886 1 0.16500 119244.000000
9800 15163 1 0.16500 119244.000000
9801 14886 1 0.16500 119244.000000
9801 15640 1 0.16500 119244.000000
9802 14887 1 0.16500 119244.000000
9802 15265 1 0.16500 119244.000000
9803 14887 1 0.16500 119244.000000
9803 20554 1 0.16500 119244.000000
9804 14889 1 0.16500 119244.000000
9804 15769 1 0.16500 119244.000000
9805 14891 1 0.16500 119244.000000
9805 15030 1 0.16500 119244.000000
9806 16665 1 0.16500 119244.000000
9806 20413 1 0.16500 119244.000000
9807 14893 1 0.16500 119244.000000
9807 20860 1 0.16500 119244.000000
9808 16404 1 0.16500 119244.000000
9808 20416 1 0.16500 119244.000000
9809 14894 1 0.16500 119244.000000
9809 14973 1 0.16500 119244.000000
9810 14894 1 0.16500 119244.000000
9810 15595 1 0.16500 119244.000000
9811 14895 1 0.16500 119244.000000
9811 14935 1 0.16500 119244.000000
9812 14895 1 0.16500 119244.000000
9812 16602 1 0.16500 119244.000000
9813 14896 1 0.16500 119244.000000
9813 14904 1 0.16500 119244.000000
9814 14896 1 0.16500 119244.000000
9814 16522 1 0.16500 119244.000000
9815 14896 1 0.16500 119244.000000
9815 15828 1 0.16500 119244.000000
9816 14897 1 0.16500 119244.000000
9816 15020 1 0.16500 119244.000000
9817 13651 1 0.16500 119244.000000
9817 14898 1 0.16500 119244.000000
9818 14898 1 0.16500 119244.000000
9818 16297 1 0.16500 119244.000000
9819 14899 1 0.16500 119244.000000
9819 15934 1 0.16500 119244.000000
9820 14899 1 0.16500 119244.000000
9820 16093 1 0.16500 119244.000000
9821 14901 1 0.16500 119244.000000
9821 15280 1 0.16500 119244.000000
9822 14902 1 0.16500 119244.000000
9822 15041 1 0.16500 119244.000000
9823 14902 1 0.16500 119244.000000
9823 20482 1 0.16500 119244.000000
9824 15192 1 0.16500 119244.000000
9824 20419 1 0.16500 119244.000000
9825 16356 1 0.16500 119244.000000
9825 17162 1 0.16500 119244.000000
9826 14904 1 0.16500 119244.000000
9826 16323 1 0.16500 119244.000000
9827 14905 1 0.16500 119244.000000
9827 16008 1 0.16500 119244.000000
9828 14905 1 0.16500 119244.000000
9828 15437 1 0.16500 119244.000000
9829 14906 1 0.16500 119244.000000
9829 15978 1 0.16500 119244.000000
9830 14906 1 0.16500 119244.000000
9830 15266 1 0.16500 119244.000000
9831 14907 1 0.16500 119244.000000
9831 16389 1 0.16500 119244.000000
9832 14907 1 0.16500 119244.000000
9832 16005 1 0.16500 119244.000000
9833 14907 1 0.16500 119244.000000
9833 16508 1 0.16500 119244.000000
9834 14908 1 0.16500 119244.000000
9834 15785 1 0.16500 119244.000000
9835 14909 1 0.16500 119244.000000
9835 20818 1 0.16500 119244.000000
9836 14910 1 0.16500 119244.000000
9836 15072 1 0.16500 119244.000000
9837 13933 1 0.16500 119244.000000
9837 14910 1 0.16500 119244.000000
9838 14910 1 0.16500 119244.000000
9838 15429 1 0.16500 119244.000000
9839 13109 1 0.16500 119244.000000
9839 14912 1 0.16500 119244.000000
9840 14912 1 0.16500 119244.000000
9840 15521 1 0.16500 119244.000000
9841 14913 1 0.16500 119244.000000
9841 15272 1 0.16500 119244.000000
9842 14913 1 0.16500 119244.000000
9842 14991 1 0.16500 119244.000000
9843 14915 1 0.16500 119244.000000
9843 15082 1 0.16500 119244.000000
9844 14915 1 0.16500 119244.000000
9844 20863 1 0.16500 119244.000000
9845 14917 1 0.16500 119244.000000
9845 16490 1 0.16500 119244.000000
9846 11682 1 0.16500 119244.000000
9846 14917 1 0.16500 119244.000000
9847 11489 1 0.16500 119244.000000
9847 14917 1 0.16500 119244.000000
9848 14918 1 0.16500 119244.000000
9848 15206 1 0.16500 119244.000000
9849 14919 1 0.16500 119244.000000
9849 15695 1 0.16500 119244.000000
9850 14919 1 0.16500 119244.000000
9850 16568 1 0.16500 119244.000000
9851 14920 1 0.16500 119244.000000
9851 15993 1 0.16500 119244.000000
9852 17890 1 0.16500 119244.000000
9852 20425 1 0.16500 119244.000000
9853 16593 1 0.16500 119244.000000
9853 20425 1 0.16500 119244.000000
9854 14921 1 0.16500 119244.000000
9854 16654 1 0.16500 119244.000000
9855 14923 1 0.16500 119244.000000
9855 16065 1 0.16500 119244.000000
9856 14923 1 0.16500 119244.000000
9856 15028 1 0.16500 119244.000000
9857 14924 1 0.16500 119244.000000
9857 16355 1 0.16500 119244.000000
9858 14925 1 0.16500 119244.000000
9858 14972 1 0.16500 119244.000000
9859 14925 1 0.16500 119244.000000
9859 18030 1 0.16500 119244.000000
9860 14926 1 0.16500 119244.000000
9860 15789 1 0.16500 119244.000000
9861 14926 1 0.16500 119244.000000
9861 15602 1 0.16500 119244.000000
9862 14927 1 0.16500 119244.000000
9862 16294 1 0.16500 119244.000000
9863 14927 1 0.16500 119244.000000
9863 16298 1 0.16500 119244.000000
9864 14928 1 0.16500 119244.000000
9864 15093 1 0.16500 119244.000000
9865 14929 1 0.16500 119244.000000
9865 15154 1 0.16500 119244.000000
9866 14929 1 0.16500 119244.000000
9866 15846 1 0.16500 119244.000000
9867 14930 1 0.16500 119244.000000
9867 15588 1 0.16500 119244.000000
9868 14930 1 0.16500 119244.000000
9868 16546 1 0.16500 119244.000000
9869 14930 1 0.16500 119244.000000
9869 15706 1 0.16500 119244.000000
9870 14931 1 0.16500 119244.000000
9870 15120 1 0.16500 119244.000000
9871 14932 1 0.16500 119244.000000
9871 16090 1 0.16500 119244.000000
9872 14932 1 0.16500 119244.000000
9872 16257 1 0.16500 119244.000000
9873 14933 1 0.16500 119244.000000
9873 15512 1 0.16500 119244.000000
9874 14933 1 0.16500 119244.000000
9874 15091 1 0.16500 119244.000000
9875 14934 1 0.16500 119244.000000
9875 16549 1 0.16500 119244.000000
9876 14934 1 0.16500 119244.000000
9876 15875 1 0.16500 119244.000000
9877 14935 1 0.16500 119244.000000
9877 20988 1 0.16500 119244.000000
9878 14935 1 0.16500 119244.000000
9878 15615 1 0.16500 119244.000000
9879 14936 1 0.16500 119244.000000
9879 15641 1 0.16500 119244.000000
9880 14937 1 0.16500 119244.000000
9880 16575 1 0.16500 119244.000000
9881 14937 1 0.16500 119244.000000
9881 15656 1 0.16500 119244.000000
9882 14938 1 0.16500 119244.000000
9882 15685 1 0.16500 119244.000000
9883 14938 1 0.16500 119244.000000
9883 15590 1 0.16500 119244.000000
9884 14939 1 0.16500 119244.000000
9884 15088 1 0.16500 119244.000000
9885 14942 1 0.16500 119244.000000
9885 16655 1 0.16500 119244.000000
9886 14945 1 0.16500 119244.000000
9886 16652 1 0.16500 119244.000000
9887 13147 1 0.16500 119244.000000
9887 15493 1 0.16500 119244.000000
9888 14947 1 0.16500 119244.000000
9888 16224 1 0.16500 119244.000000
9889 13147 1 0.16500 119244.000000
9889 14947 1 0.16500 119244.000000
9890 14948 1 0.16500 119244.000000
9890 16317 1 0.16500 119244.000000
9891 14948 1 0.16500 119244.000000
9891 16461 1 0.16500 119244.000000
9892 12950 1 0.16500 119244.000000
9892 14948 1 0.16500 119244.000000
9893 14949 1 0.16500 119244.000000
9893 15205 1 0.16500 119244.000000
9894 14949 1 0.16500 119244.000000
9894 16090 1 0.16500 119244.000000
9895 14950 1 0.16500 119244.000000
9895 16405 1 0.16500 119244.000000
9896 14951 1 0.16500 119244.000000
9896 15331 1 0.16500 119244.000000
9897 14952 1 0.16500 119244.000000
9897 16653 1 0.16500 119244.000000
9898 14952 1 0.16500 119244.000000
9898 15441 1 0.16500 119244.000000
9899 14953 1 0.16500 119244.000000
9899 17904 1 0.16500 119244.000000
9900 14955 1 0.16500 119244.000000
9900 15528 1 0.16500 119244.000000
9901 14955 1 0.16500 119244.000000
9901 15986 1 0.16500 119244.000000
9902 14955 1 0.16500 119244.000000
9902 14977 1 0.16500 119244.000000
9903 20437 1 0.16500 119244.000000
9903 20830 1 0.16500 119244.000000
9904 20437 1 0.16500 119244.000000
9904 20521 1 0.16500 119244.000000
9905 15902 1 0.16500 119244.000000
9905 20437 1 0.16500 119244.000000
9906 14956 1 0.16500 119244.000000
9906 15369 1 0.16500 119244.000000
9907 14956 1 0.16500 119244.000000
9907 16287 1 0.16500 119244.000000
9908 14957 1 0.16500 119244.000000
9908 15425 1 0.16500 119244.000000
9909 14957 1 0.16500 119244.000000
9909 15541 1 0.16500 119244.000000
9910 14958 1 0.16500 119244.000000
9910 15252 1 0.16500 119244.000000
9911 14959 1 0.16500 119244.000000
9911 15910 1 0.16500 119244.000000
9912 14960 1 0.16500 119244.000000
9912 16469 1 0.16500 119244.000000
9913 14961 1 0.16500 119244.000000
9913 16138 1 0.16500 119244.000000
9914 14964 1 0.16500 119244.000000
9914 15807 1 0.16500 119244.000000
9915 14964 1 0.16500 119244.000000
9915 15157 1 0.16500 119244.000000
9916 14965 1 0.16500 119244.000000
9916 15146 1 0.16500 119244.000000
9917 14966 1 0.16500 119244.000000
9917 16321 1 0.16500 119244.000000
9918 14966 1 0.16500 119244.000000
9918 15186 1 0.16500 119244.000000
9919 14967 1 0.16500 119244.000000
9919 15496 1 0.16500 119244.000000
9920 14967 1 0.16500 119244.000000
9920 16101 1 0.16500 119244.000000
9921 14968 1 0.16500 119244.000000
9921 16103 1 0.16500 119244.000000
9922 14328 1 0.16500 119244.000000
9922 14969 1 0.16500 119244.000000
9923 12980 1 0.16500 119244.000000
9923 16656 1 0.16500 119244.000000
9924 14970 1 0.16500 119244.000000
9924 16559 1 0.16500 119244.000000
9925 14970 1 0.16500 119244.000000
9925 15202 1 0.16500 119244.000000
9926 14971 1 0.16500 119244.000000
9926 15615 1 0.16500 119244.000000
9927 14972 1 0.16500 119244.000000
9927 20701 1 0.16500 119244.000000
9928 14973 1 0.16500 119244.000000
9928 16236 1 0.16500 119244.000000
9929 14975 1 0.16500 119244.000000
9929 15589 1 0.16500 119244.000000
9930 16157 1 0.16500 119244.000000
9930 20443 1 0.16500 119244.000000
9931 14976 1 0.16500 119244.000000
9931 16345 1 0.16500 119244.000000
9932 14976 1 0.16500 119244.000000
9932 15631 1 0.16500 119244.000000
9933 16223 1 0.16500 119244.000000
9933 20446 1 0.16500 119244.000000
9934 14977 1 0.16500 119244.000000
9934 15288 1 0.16500 119244.000000
9935 14978 1 0.16500 119244.000000
9935 15028 1 0.16500 119244.000000
9936 14979 1 0.16500 119244.000000
9936 15748 1 0.16500 119244.000000
9937 14979 1 0.16500 119244.000000
9937 15649 1 0.16500 119244.000000
9938 13648 1 0.16500 119244.000000
9938 14980 1 0.16500 119244.000000
9939 12492 1 0.16500 119244.000000
9939 14981 1 0.16500 119244.000000
9940 14259 1 0.16500 119244.000000
9940 15291 1 0.16500 119244.000000
9941 14982 1 0.16500 119244.000000
9941 16271 1 0.16500 119244.000000
9942 14982 1 0.16500 119244.000000
9942 15069 1 0.16500 119244.000000
9943 14984 1 0.16500 119244.000000
9943 15283 1 0.16500 119244.000000
9944 14985 1 0.16500 119244.000000
9944 15760 1 0.16500 119244.000000
9945 14986 1 0.16500 119244.000000
9945 16106 1 0.16500 119244.000000
9946 14986 1 0.16500 119244.000000
9946 15420 1 0.16500 119244.000000
9947 14987 1 0.16500 119244.000000
9947 15970 1 0.16500 119244.000000
9948 14987 1 0.16500 119244.000000
9948 15445 1 0.16500 119244.000000
9949 15743 1 0.16500 119244.000000
9949 20449 1 0.16500 119244.000000
9950 20449 1 0.16500 119244.000000
9950 20722 1 0.16500 119244.000000
9951 14988 1 0.16500 119244.000000
9951 15853 1 0.16500 119244.000000
9952 14988 1 0.16500 119244.000000
9952 15758 1 0.16500 119244.000000
9953 14988 1 0.16500 119244.000000
9953 15742 1 0.16500 119244.000000
9954 14988 1 0.16500 119244.000000
9954 15844 1 0.16500 119244.000000
9955 11653 1 0.16500 119244.000000
9955 15594 1 0.16500 119244.000000
9956 14991 1 0.16500 119244.000000
9956 15075 1 0.16500 119244.000000
9957 14992 1 0.16500 119244.000000
9957 15947 1 0.16500 119244.000000
9958 14993 1 0.16500 119244.000000
9958 15914 1 0.16500 119244.000000
9959 14994 1 0.16500 119244.000000
9959 16354 1 0.16500 119244.000000
9960 14994 1 0.16500 119244.000000
9960 16442 1 0.16500 119244.000000
9961 14995 1 0.16500 119244.000000
9961 15808 1 0.16500 119244.000000
9962 14996 1 0.16500 119244.000000
9962 16336 1 0.16500 119244.000000
9963 14996 1 0.16500 119244.000000
9963 15041 1 0.16500 119244.000000
9964 14997 1 0.16500 119244.000000
9964 15708 1 0.16500 119244.000000
9965 20452 1 0.16500 119244.000000
9965 20455 1 0.16500 119244.000000
9966 16410 1 0.16500 119244.000000
9966 20452 1 0.16500 119244.000000
9967 14998 1 0.16500 119244.000000
9967 15219 1 0.16500 119244.000000
9968 14999 1 0.16500 119244.000000
9968 15294 1 0.16500 119244.000000
9969 14768 1 0.16500 119244.000000
9969 14999 1 0.16500 119244.000000
9970 15000 1 0.16500 119244.000000
9970 15531 1 0.16500 119244.000000
9971 15002 1 0.16500 119244.000000
9971 20869 1 0.16500 119244.000000
9972 15002 1 0.16500 119244.000000
9972 15292 1 0.16500 119244.000000
9973 15003 1 0.16500 119244.000000
9973 15797 1 0.16500 119244.000000
9974 13880 1 0.16500 119244.000000
9974 15004 1 0.16500 119244.000000
9975 15004 1 0.16500 119244.000000
9975 15332 1 0.16500 119244.000000
9976 15005 1 0.16500 119244.000000
9976 16021 1 0.16500 119244.000000
9977 15006 1 0.16500 119244.000000
9977 15875 1 0.16500 119244.000000
9978 11760 1 0.16500 119244.000000
9978 16431 1 0.16500 119244.000000
9979 13804 1 0.16500 119244.000000
9979 15008 1 0.16500 119244.000000
9980 15008 1 0.16500 119244.000000
9980 15178 1 0.16500 119244.000000
9981 13378 1 0.16500 119244.000000
9981 15112 1 0.16500 119244.000000
9982 15010 1 0.16500 119244.000000
9982 16344 1 0.16500 119244.000000
9983 15011 1 0.16500 119244.000000
9983 15458 1 0.16500 119244.000000
9984 15012 1 0.16500 119244.000000
9984 15799 1 0.16500 119244.000000
9985 15012 1 0.16500 119244.000000
9985 15997 1 0.16500 119244.000000
9986 15013 1 0.16500 119244.000000
9986 16628 1 0.16500 119244.000000
9987 15015 1 0.16500 119244.000000
9987 15741 1 0.16500 119244.000000
9988 15016 1 0.16500 119244.000000
9988 15471 1 0.16500 119244.000000
9989 15016 1 0.16500 119244.000000
9989 15959 1 0.16500 119244.000000
9990 17232 1 0.16500 119244.000000
9990 20671 1 0.16500 119244.000000
9991 15017 1 0.16500 119244.000000
9991 17666 1 0.16500 119244.000000
9992 15017 1 0.16500 119244.000000
9992 20689 1 0.16500 119244.000000
9993 15753 1 0.16500 119244.000000
9993 20458 1 0.16500 119244.000000
9994 15569 1 0.16500 119244.000000
9994 15916 1 0.16500 119244.000000
9995 15916 1 0.16500 119244.000000
9995 20458 1 0.16500 119244.000000
9996 15018 1 0.16500 119244.000000
9996 16115 1 0.16500 119244.000000
9997 15021 1 0.16500 119244.000000
9997 15666 1 0.16500 119244.000000
9998 15021 1 0.16500 119244.000000
9998 16028 1 0.16500 119244.000000
9999 12893 1 0.16500 119244.000000
9999 15022 1 0.16500 119244.000000
10000 15022 1 0.16500 119244.000000
10000 15109 1 0.16500 119244.000000
10001 15022 1 0.16500 119244.000000
10001 15954 1 0.16500 119244.000000
10002 15024 1 0.16500 119244.000000
10002 15605 1 0.16500 119244.000000
10003 15024 1 0.16500 119244.000000
10003 15716 1 0.16500 119244.000000
10004 15024 1 0.16500 119244.000000
10004 20827 1 0.16500 119244.000000
10005 15025 1 0.16500 119244.000000
10005 16323 1 0.16500 119244.000000
10006 15025 1 0.16500 119244.000000
10006 15450 1 0.16500 119244.000000
10007 15026 1 0.16500 119244.000000
10007 16564 1 0.16500 119244.000000
10008 15027 1 0.16500 119244.000000
10008 15551 1 0.16500 119244.000000
10009 15028 1 0.16500 119244.000000
10009 15499 1 0.16500 119244.000000
10010 15029 1 0.16500 119244.000000
10010 15117 1 0.16500 119244.000000
10011 15029 1 0.16500 119244.000000
10011 16584 1 0.16500 119244.000000
10012 20461 1 0.16500 119244.000000
10012 20494 1 0.16500 119244.000000
10013 15031 1 0.16500 119244.000000
10013 16022 1 0.16500 119244.000000
10014 15031 1 0.16500 119244.000000
10014 15586 1 0.16500 119244.000000
10015 15032 1 0.16500 119244.000000
10015 15343 1 0.16500 119244.000000
10016 15033 1 0.16500 119244.000000
10016 16123 1 0.16500 119244.000000
10017 15033 1 0.16500 119244.000000
10017 16329 1 0.16500 119244.000000
10018 15034 1 0.16500 119244.000000
10018 16106 1 0.16500 119244.000000
10019 15034 1 0.16500 119244.000000
10019 15613 1 0.16500 119244.000000
10020 15034 1 0.16500 119244.000000
10020 16054 1 0.16500 119244.000000
10021 15130 1 0.16500 119244.000000
10021 20464 1 0.16500 119244.000000
10022 13296 1 0.16500 119244.000000
10022 15035 1 0.16500 119244.000000
10023 15035 1 0.16500 119244.000000
10023 16431 1 0.16500 119244.000000
10024 13296 1 0.16500 119244.000000
10024 16583 1 0.16500 119244.000000
10025 15036 1 0.16500 119244.000000
10025 15975 1 0.16500 119244.000000
10026 15037 1 0.16500 119244.000000
10026 16348 1 0.16500 119244.000000
10027 15038 1 0.16500 119244.000000
10027 15333 1 0.16500 119244.000000
10028 14127 1 0.16500 119244.000000
10028 15038 1 0.16500 119244.000000
10029 15040 1 0.16500 119244.000000
10029 15616 1 0.16500 119244.000000
10030 15042 1 0.16500 119244.000000
10030 16285 1 0.16500 119244.000000
10031 15043 1 0.16500 119244.000000
10031 15252 1 0.16500 119244.000000
10032 15482 1 0.16500 119244.000000
10032 19993 1 0.16500 119244.000000
10033 15044 1 0.16500 119244.000000
10033 17624 1 0.16500 119244.000000
10034 20467 1 0.16500 119244.000000
10034 20551 1 0.16500 119244.000000
10035 15584 1 0.16500 119244.000000
10035 20467 1 0.16500 119244.000000
10036 20467 1 0.16500 119244.000000
10036 20869 1 0.16500 119244.000000
10037 15048 1 0.16500 119244.000000
10037 16671 1 0.16500 119244.000000
10038 12629 1 0.16500 119244.000000
10038 15048 1 0.16500 119244.000000
10039 15049 1 0.16500 119244.000000
10039 16532 1 0.16500 119244.000000
10040 15050 1 0.16500 119244.000000
10040 15236 1 0.16500 119244.000000
10041 15051 1 0.16500 119244.000000
10041 16283 1 0.16500 119244.000000
10042 15052 1 0.16500 119244.000000
10042 15972 1 0.16500 119244.000000
10043 15052 1 0.16500 119244.000000
10043 16432 1 0.16500 119244.000000
10044 15054 1 0.16500 119244.000000
10044 16476 1 0.16500 119244.000000
10045 15054 1 0.16500 119244.000000
10045 15999 1 0.16500 119244.000000
10046 15055 1 0.16500 119244.000000
10046 20767 1 0.16500 119244.000000
10047 15055 1 0.16500 119244.000000
10047 20788 1 0.16500 119244.000000
10048 15056 1 0.16500 119244.000000
10048 20518 1 0.16500 119244.000000
10049 15057 1 0.16500 119244.000000
10049 20734 1 0.16500 119244.000000
10050 15057 1 0.16500 119244.000000
10050 15700 1 0.16500 119244.000000
10051 15058 1 0.16500 119244.000000
10051 15467 1 0.16500 119244.000000
10052 13196 1 0.16500 119244.000000
10052 16602 1 0.16500 119244.000000
10053 15060 1 0.16500 119244.000000
10053 21003 1 0.16500 119244.000000
10054 15061 1 0.16500 119244.000000
10054 15227 1 0.16500 119244.000000
10055 13180 1 0.16500 119244.000000
10055 15167 1 0.16500 119244.000000
10056 15063 1 0.16500 119244.000000
10056 16613 1 0.16500 119244.000000
10057 15064 1 0.16500 119244.000000
10057 16346 1 0.16500 119244.000000
10058 15064 1 0.16500 119244.000000
10058 16011 1 0.16500 119244.000000
10059 15066 1 0.16500 119244.000000
10059 16677 1 0.16500 119244.000000
10060 15066 1 0.16500 119244.000000
10060 15891 1 0.16500 119244.000000
10061 15066 1 0.16500 119244.000000
10061 16190 1 0.16500 119244.000000
10062 15599 1 0.16500 119244.000000
10062 16518 1 0.16500 119244.000000
10063 14008 1 0.16500 119244.000000
10063 17960 1 0.16500 119244.000000
10064 15068 1 0.16500 119244.000000
10064 16207 1 0.16500 119244.000000
10065 15070 1 0.16500 119244.000000
10065 16465 1 0.16500 119244.000000
10066 15070 1 0.16500 119244.000000
10066 15856 1 0.16500 119244.000000
10067 15071 1 0.16500 119244.000000
10067 16107 1 0.16500 119244.000000
10068 15530 1 0.16500 119244.000000
10068 20470 1 0.16500 119244.000000
10069 12257 1 0.16500 119244.000000
10069 20470 1 0.16500 119244.000000
10070 15075 1 0.16500 119244.000000
10070 16232 1 0.16500 119244.000000
10071 15076 1 0.16500 119244.000000
10071 15159 1 0.16500 119244.000000
10072 15077 1 0.16500 119244.000000
10072 15413 1 0.16500 119244.000000
10073 15077 1 0.16500 119244.000000
10073 16280 1 0.16500 119244.000000
10074 15078 1 0.16500 119244.000000
10074 16030 1 0.16500 119244.000000
10075 13087 1 0.16500 119244.000000
10075 16416 1 0.16500 119244.000000
10076 15079 1 0.16500 119244.000000
10076 15556 1 0.16500 119244.000000
10077 15080 1 0.16500 119244.000000
10077 16430 1 0.16500 119244.000000
10078 15080 1 0.16500 119244.000000
10078 16480 1 0.16500 119244.000000
10079 15080 1 0.16500 119244.000000
10079 16513 1 0.16500 119244.000000
10080 19951 1 0.16500 119244.000000
10080 20695 1 0.16500 119244.000000
10081 15592 1 0.16500 119244.000000
10081 20473 1 0.16500 119244.000000
10082 14628 1 0.16500 119244.000000
10082 17722 1 0.16500 119244.000000
10083 17274 1 0.16500 119244.000000
10083 20860 1 0.16500 119244.000000
10084 12976 1 0.16500 119244.000000
10084 16010 1 0.16500 119244.000000
10085 16231 1 0.16500 119244.000000
10085 20476 1 0.16500 119244.000000
10086 15299 1 0.16500 119244.000000
10086 20476 1 0.16500 119244.000000
10087 15085 1 0.16500 119244.000000
10087 20851 1 0.16500 119244.000000
10088 15086 1 0.16500 119244.000000
10088 15223 1 0.16500 119244.000000
10089 15087 1 0.16500 119244.000000
10089 15904 1 0.16500 119244.000000
10090 15088 1 0.16500 119244.000000
10090 15326 1 0.16500 119244.000000
10091 15090 1 0.16500 119244.000000
10091 16172 1 0.16500 119244.000000
10092 11735 1 0.16500 119244.000000
10092 15090 1 0.16500 119244.000000
10093 15091 1 0.16500 119244.000000
10093 16579 1 0.16500 119244.000000
10094 15091 1 0.16500 119244.000000
10094 15131 1 0.16500 119244.000000
10095 15092 1 0.16500 119244.000000
10095 16291 1 0.16500 119244.000000
10096 15092 1 0.16500 119244.000000
10096 16318 1 0.16500 119244.000000
10097 15093 1 0.16500 119244.000000
10097 15306 1 0.16500 119244.000000
10098 15098 1 0.16500 119244.000000
10098 16418 1 0.16500 119244.000000
10099 15098 1 0.16500 119244.000000
10099 15754 1 0.16500 119244.000000
10100 15098 1 0.16500 119244.000000
10100 15801 1 0.16500 119244.000000
10101 15099 1 0.16500 119244.000000
10101 16586 1 0.16500 119244.000000
10102 15100 1 0.16500 119244.000000
10102 16542 1 0.16500 119244.000000
10103 15100 1 0.16500 119244.000000
10103 16502 1 0.16500 119244.000000
10104 20479 1 0.16500 119244.000000
10104 20536 1 0.16500 119244.000000
10105 15790 1 0.16500 119244.000000
10105 18910 1 0.16500 119244.000000
10106 15103 1 0.16500 119244.000000
10106 16566 1 0.16500 119244.000000
10107 15104 1 0.16500 119244.000000
10107 16539 1 0.16500 119244.000000
10108 15105 1 0.16500 119244.000000
10108 15726 1 0.16500 119244.000000
10109 15105 1 0.16500 119244.000000
10109 16106 1 0.16500 119244.000000
10110 15106 1 0.16500 119244.000000
10110 15125 1 0.16500 119244.000000
10111 15106 1 0.16500 119244.000000
10111 15704 1 0.16500 119244.000000
10112 15107 1 0.16500 119244.000000
10112 15209 1 0.16500 119244.000000
10113 15107 1 0.16500 119244.000000
10113 16042 1 0.16500 119244.000000
10114 15108 1 0.16500 119244.000000
10114 15127 1 0.16500 119244.000000
10115 15109 1 0.16500 119244.000000
10115 16574 1 0.16500 119244.000000
10116 15109 1 0.16500 119244.000000
10116 15162 1 0.16500 119244.000000
10117 15110 1 0.16500 119244.000000
10117 16428 1 0.16500 119244.000000
10118 15110 1 0.16500 119244.000000
10118 15126 1 0.16500 119244.000000
10119 14099 1 0.16500 119244.000000
10119 16251 1 0.16500 119244.000000
10120 15112 1 0.16500 119244.000000
10120 15155 1 0.16500 119244.000000
10121 15561 1 0.16500 119244.000000
10121 20485 1 0.16500 119244.000000
10122 15114 1 0.16500 119244.000000
10122 15677 1 0.16500 119244.000000
10123 15115 1 0.16500 119244.000000
10123 15620 1 0.16500 119244.000000
10124 20488 1 0.16500 119244.000000
10124 20918 1 0.16500 119244.000000
10125 15117 1 0.16500 119244.000000
10125 15364 1 0.16500 119244.000000
10126 15117 1 0.16500 119244.000000
10126 15681 1 0.16500 119244.000000
10127 15118 1 0.16500 119244.000000
10127 16495 1 0.16500 119244.000000
10128 15119 1 0.16500 119244.000000
10128 16050 1 0.16500 119244.000000
10129 15121 1 0.16500 119244.000000
10129 15162 1 0.16500 119244.000000
10130 15121 1 0.16500 119244.000000
10130 16048 1 0.16500 119244.000000
10131 15122 1 0.16500 119244.000000
10131 15564 1 0.16500 119244.000000
10132 15123 1 0.16500 119244.000000
10132 15682 1 0.16500 119244.000000
10133 15123 1 0.16500 119244.000000
10133 15261 1 0.16500 119244.000000
10134 14229 1 0.16500 119244.000000
10134 15123 1 0.16500 119244.000000
10135 15123 1 0.16500 119244.000000
10135 15277 1 0.16500 119244.000000
10136 15124 1 0.16500 119244.000000
10136 16146 1 0.16500 119244.000000
10137 15125 1 0.16500 119244.000000
10137 15249 1 0.16500 119244.000000
10138 15126 1 0.16500 119244.000000
10138 15940 1 0.16500 119244.000000
10139 15128 1 0.16500 119244.000000
10139 15556 1 0.16500 119244.000000
10140 15129 1 0.16500 119244.000000
10140 17750 1 0.16500 119244.000000
10141 15132 1 0.16500 119244.000000
10141 16028 1 0.16500 119244.000000
10142 15133 1 0.16500 119244.000000
10142 15560 1 0.16500 119244.000000
10143 16196 1 0.16500 119244.000000
10143 17316 1 0.16500 119244.000000
10144 15134 1 0.16500 119244.000000
10144 16186 1 0.16500 119244.000000
10145 15135 1 0.16500 119244.000000
10145 15863 1 0.16500 119244.000000
10146 15135 1 0.16500 119244.000000
10146 20713 1 0.16500 119244.000000
10147 15135 1 0.16500 119244.000000
10147 15553 1 0.16500 119244.000000
10148 20491 1 0.16500 119244.000000
10148 20875 1 0.16500 119244.000000
10149 20491 1 0.16500 119244.000000
10149 20554 1 0.16500 119244.000000
10150 15438 1 0.16500 119244.000000
10150 15947 1 0.16500 119244.000000
10151 15137 1 0.16500 119244.000000
10151 15947 1 0.16500 119244.000000
10152 15138 1 0.16500 119244.000000
10152 16645 1 0.16500 119244.000000
10153 15140 1 0.16500 119244.000000
10153 15349 1 0.16500 119244.000000
10154 15140 1 0.16500 119244.000000
10154 15706 1 0.16500 119244.000000
10155 15141 1 0.16500 119244.000000
10155 15612 1 0.16500 119244.000000
10156 12853 1 0.16500 119244.000000
10156 16554 1 0.16500 119244.000000
10157 15142 1 0.16500 119244.000000
10157 16667 1 0.16500 119244.000000
10158 15143 1 0.16500 119244.000000
10158 20830 1 0.16500 119244.000000
10159 15144 1 0.16500 119244.000000
10159 15299 1 0.16500 119244.000000
10160 15145 1 0.16500 119244.000000
10160 16287 1 0.16500 119244.000000
10161 15147 1 0.16500 119244.000000
10161 15799 1 0.16500 119244.000000
10162 15147 1 0.16500 119244.000000
10162 15286 1 0.16500 119244.000000
10163 15148 1 0.16500 119244.000000
10163 16154 1 0.16500 119244.000000
10164 15148 1 0.16500 119244.000000
10164 15313 1 0.16500 119244.000000
10165 20494 1 0.16500 119244.000000
10165 20888 1 0.16500 119244.000000
10166 15150 1 0.16500 119244.000000
10166 15446 1 0.16500 119244.000000
10167 15151 1 0.16500 119244.000000
10167 15360 1 0.16500 119244.000000
10168 15152 1 0.16500 119244.000000
10168 16659 1 0.16500 119244.000000
10169 15152 1 0.16500 119244.000000
10169 16151 1 0.16500 119244.000000
10170 15154 1 0.16500 119244.000000
10170 16351 1 0.16500 119244.000000
10171 15155 1 0.16500 119244.000000
10171 15467 1 0.16500 119244.000000
10172 15156 1 0.16500 119244.000000
10172 16446 1 0.16500 119244.000000
10173 15156 1 0.16500 119244.000000
10173 15507 1 0.16500 119244.000000
10174 15157 1 0.16500 119244.000000
10174 16663 1 0.16500 119244.000000
10175 15158 1 0.16500 119244.000000
10175 15627 1 0.16500 119244.000000
10176 15158 1 0.16500 119244.000000
10176 15254 1 0.16500 119244.000000
10177 15159 1 0.16500 119244.000000
10177 16183 1 0.16500 119244.000000
10178 15160 1 0.16500 119244.000000
10178 15853 1 0.16500 119244.000000
10179 15160 1 0.16500 119244.000000
10179 15627 1 0.16500 119244.000000
10180 15160 1 0.16500 119244.000000
10180 16660 1 0.16500 119244.000000
10181 15162 1 0.16500 119244.000000
10181 15325 1 0.16500 119244.000000
10182 15162 1 0.16500 119244.000000
10182 16191 1 0.16500 119244.000000
10183 15163 1 0.16500 119244.000000
10183 16659 1 0.16500 119244.000000
10184 15163 1 0.16500 119244.000000
10184 15890 1 0.16500 119244.000000
10185 16211 1 0.16500 119244.000000
10185 20497 1 0.16500 119244.000000
10186 15164 1 0.16500 119244.000000
10186 15620 1 0.16500 119244.000000
10187 15165 1 0.16500 119244.000000
10187 16140 1 0.16500 119244.000000
10188 15165 1 0.16500 119244.000000
10188 15552 1 0.16500 119244.000000
10189 15167 1 0.16500 119244.000000
10189 15785 1 0.16500 119244.000000
10190 15168 1 0.16500 119244.000000
10190 16263 1 0.16500 119244.000000
10191 15168 1 0.16500 119244.000000
10191 16360 1 0.16500 119244.000000
10192 15169 1 0.16500 119244.000000
10192 15847 1 0.16500 119244.000000
10193 13638 1 0.16500 119244.000000
10193 15169 1 0.16500 119244.000000
10194 15170 1 0.16500 119244.000000
10194 16314 1 0.16500 119244.000000
10195 12289 1 0.16500 119244.000000
10195 16314 1 0.16500 119244.000000
10196 15171 1 0.16500 119244.000000
10196 16674 1 0.16500 119244.000000
10197 15171 1 0.16500 119244.000000
10197 20503 1 0.16500 119244.000000
10198 15172 1 0.16500 119244.000000
10198 16369 1 0.16500 119244.000000
10199 15173 1 0.16500 119244.000000
10199 16205 1 0.16500 119244.000000
10200 15174 1 0.16500 119244.000000
10200 15791 1 0.16500 119244.000000
10201 15175 1 0.16500 119244.000000
10201 15315 1 0.16500 119244.000000
10202 15175 1 0.16500 119244.000000
10202 16689 1 0.16500 119244.000000
10203 15176 1 0.16500 119244.000000
10203 15330 1 0.16500 119244.000000
10204 15177 1 0.16500 119244.000000
10204 16120 1 0.16500 119244.000000
10205 15178 1 0.16500 119244.000000
10205 16056 1 0.16500 119244.000000
10206 12100 1 0.16500 119244.000000
10206 15180 1 0.16500 119244.000000
10207 15180 1 0.16500 119244.000000
10207 15438 1 0.16500 119244.000000
10208 15180 1 0.16500 119244.000000
10208 16169 1 0.16500 119244.000000
10209 15181 1 0.16500 119244.000000
10209 15872 1 0.16500 119244.000000
10210 15181 1 0.16500 119244.000000
10210 16232 1 0.16500 119244.000000
10211 15182 1 0.16500 119244.000000
10211 15938 1 0.16500 119244.000000
10212 15182 1 0.16500 119244.000000
10212 15877 1 0.16500 119244.000000
10213 20500 1 0.16500 119244.000000
10213 20695 1 0.16500 119244.000000
10214 15183 1 0.16500 119244.000000
10214 15339 1 0.16500 119244.000000
10215 15183 1 0.16500 119244.000000
10215 16556 1 0.16500 119244.000000
10216 15184 1 0.16500 119244.000000
10216 16328 1 0.16500 119244.000000
10217 15185 1 0.16500 119244.000000
10217 16011 1 0.16500 119244.000000
10218 15186 1 0.16500 119244.000000
10218 15671 1 0.16500 119244.000000
10219 15186 1 0.16500 119244.000000
10219 16020 1 0.16500 119244.000000
10220 15187 1 0.16500 119244.000000
10220 15414 1 0.16500 119244.000000
10221 15187 1 0.16500 119244.000000
10221 20539 1 0.16500 119244.000000
10222 15187 1 0.16500 119244.000000
10222 20973 1 0.16500 119244.000000
10223 15188 1 0.16500 119244.000000
10223 16039 1 0.16500 119244.000000
10224 15189 1 0.16500 119244.000000
10224 15748 1 0.16500 119244.000000
10225 15190 1 0.16500 119244.000000
10225 16468 1 0.16500 119244.000000
10226 15190 1 0.16500 119244.000000
10226 16670 1 0.16500 119244.000000
10227 15190 1 0.16500 119244.000000
10227 16262 1 0.16500 119244.000000
10228 15191 1 0.16500 119244.000000
10228 16333 1 0.16500 119244.000000
10229 16691 1 0.16500 119244.000000
10229 20503 1 0.16500 119244.000000
10230 16243 1 0.16500 119244.000000
10230 20506 1 0.16500 119244.000000
10231 15192 1 0.16500 119244.000000
10231 15802 1 0.16500 119244.000000
10232 15193 1 0.16500 119244.000000
10232 15350 1 0.16500 119244.000000
10233 15193 1 0.16500 119244.000000
10233 15495 1 0.16500 119244.000000
10234 15194 1 0.16500 119244.000000
10234 16576 1 0.16500 119244.000000
10235 15194 1 0.16500 119244.000000
10235 16396 1 0.16500 119244.000000
10236 15195 1 0.16500 119244.000000
10236 16202 1 0.16500 119244.000000
10237 15195 1 0.16500 119244.000000
10237 15760 1 0.16500 119244.000000
10238 13344 1 0.16500 119244.000000
10238 20509 1 0.16500 119244.000000
10239 11592 1 0.16500 119244.000000
10239 20509 1 0.16500 119244.000000
10240 15197 1 0.16500 119244.000000
10240 15903 1 0.16500 119244.000000
10241 15197 1 0.16500 119244.000000
10241 15884 1 0.16500 119244.000000
10242 15198 1 0.16500 119244.000000
10242 16029 1 0.16500 119244.000000
10243 15198 1 0.16500 119244.000000
10243 15486 1 0.16500 119244.000000
10244 15199 1 0.16500 119244.000000
10244 16692 1 0.16500 119244.000000
10245 15201 1 0.16500 119244.000000
10245 16577 1 0.16500 119244.000000
10246 15202 1 0.16500 119244.000000
10246 15632 1 0.16500 119244.000000
10247 15203 1 0.16500 119244.000000
10247 15686 1 0.16500 119244.000000
10248 13737 1 0.16500 119244.000000
10248 15204 1 0.16500 119244.000000
10249 15204 1 0.16500 119244.000000
10249 16372 1 0.16500 119244.000000
10250 15205 1 0.16500 119244.000000
10250 15345 1 0.16500 119244.000000
10251 15206 1 0.16500 119244.000000
10251 15539 1 0.16500 119244.000000
10252 15206 1 0.16500 119244.000000
10252 15486 1 0.16500 119244.000000
10253 15207 1 0.16500 119244.000000
10253 15273 1 0.16500 119244.000000
10254 15207 1 0.16500 119244.000000
10254 15329 1 0.16500 119244.000000
10255 15209 1 0.16500 119244.000000
10255 16646 1 0.16500 119244.000000
10256 15210 1 0.16500 119244.000000
10256 16672 1 0.16500 119244.000000
10257 15210 1 0.16500 119244.000000
10257 15540 1 0.16500 119244.000000
10258 15212 1 0.16500 119244.000000
10258 16658 1 0.16500 119244.000000
10259 14826 1 0.16500 119244.000000
10259 15795 1 0.16500 119244.000000
10260 15214 1 0.16500 119244.000000
10260 16161 1 0.16500 119244.000000
10261 15214 1 0.16500 119244.000000
10261 16507 1 0.16500 119244.000000
10262 15215 1 0.16500 119244.000000
10262 15509 1 0.16500 119244.000000
10263 15216 1 0.16500 119244.000000
10263 15335 1 0.16500 119244.000000
10264 15216 1 0.16500 119244.000000
10264 16441 1 0.16500 119244.000000
10265 15217 1 0.16500 119244.000000
10265 15289 1 0.16500 119244.000000
10266 14921 1 0.16500 119244.000000
10266 15218 1 0.16500 119244.000000
10267 15218 1 0.16500 119244.000000
10267 15846 1 0.16500 119244.000000
10268 15219 1 0.16500 119244.000000
10268 15815 1 0.16500 119244.000000
10269 15219 1 0.16500 119244.000000
10269 15959 1 0.16500 119244.000000
10270 15221 1 0.16500 119244.000000
10270 20536 1 0.16500 119244.000000
10271 15221 1 0.16500 119244.000000
10271 15352 1 0.16500 119244.000000
10272 14117 1 0.16500 119244.000000
10272 16583 1 0.16500 119244.000000
10273 15222 1 0.16500 119244.000000
10273 16242 1 0.16500 119244.000000
10274 15225 1 0.16500 119244.000000
10274 16657 1 0.16500 119244.000000
10275 11477 1 0.16500 119244.000000
10275 16130 1 0.16500 119244.000000
10276 15576 1 0.16500 119244.000000
10276 17372 1 0.16500 119244.000000
10277 15227 1 0.16500 119244.000000
10277 15981 1 0.16500 119244.000000
10278 15227 1 0.16500 119244.000000
10278 15364 1 0.16500 119244.000000
10279 15228 1 0.16500 119244.000000
10279 16306 1 0.16500 119244.000000
10280 15228 1 0.16500 119244.000000
10280 16668 1 0.16500 119244.000000
10281 15229 1 0.16500 119244.000000
10281 15269 1 0.16500 119244.000000
10282 15231 1 0.16500 119244.000000
10282 15942 1 0.16500 119244.000000
10283 15231 1 0.16500 119244.000000
10283 15274 1 0.16500 119244.000000
10284 15232 1 0.16500 119244.000000
10284 16458 1 0.16500 119244.000000
10285 12723 1 0.16500 119244.000000
10285 16351 1 0.16500 119244.000000
10286 15234 1 0.16500 119244.000000
10286 15848 1 0.16500 119244.000000
10287 15236 1 0.16500 119244.000000
10287 16571 1 0.16500 119244.000000
10288 15237 1 0.16500 119244.000000
10288 16386 1 0.16500 119244.000000
10289 15238 1 0.16500 119244.000000
10289 15439 1 0.16500 119244.000000
10290 12019 1 0.16500 119244.000000
10290 13120 1 0.16500 119244.000000
10291 15239 1 0.16500 119244.000000
10291 15365 1 0.16500 119244.000000
10292 15242 1 0.16500 119244.000000
10292 16687 1 0.16500 119244.000000
10293 15243 1 0.16500 119244.000000
10293 15318 1 0.16500 119244.000000
10294 15243 1 0.16500 119244.000000
10294 16345 1 0.16500 119244.000000
10295 15244 1 0.16500 119244.000000
10295 15490 1 0.16500 119244.000000
10296 14141 1 0.16500 119244.000000
10296 20518 1 0.16500 119244.000000
10297 15249 1 0.16500 119244.000000
10297 16694 1 0.16500 119244.000000
10298 15249 1 0.16500 119244.000000
10298 16668 1 0.16500 119244.000000
10299 15251 1 0.16500 119244.000000
10299 16486 1 0.16500 119244.000000
10300 15255 1 0.16500 119244.000000
10300 15862 1 0.16500 119244.000000
10301 15255 1 0.16500 119244.000000
10301 16159 1 0.16500 119244.000000
10302 15671 1 0.16500 119244.000000
10302 15862 1 0.16500 119244.000000
10303 15256 1 0.16500 119244.000000
10303 16231 1 0.16500 119244.000000
10304 15257 1 0.16500 119244.000000
10304 15479 1 0.16500 119244.000000
10305 15258 1 0.16500 119244.000000
10305 16176 1 0.16500 119244.000000
10306 16251 1 0.16500 119244.000000
10306 20557 1 0.16500 119244.000000
10307 17400 1 0.16500 119244.000000
10307 20557 1 0.16500 119244.000000
10308 15260 1 0.16500 119244.000000
10308 16209 1 0.16500 119244.000000
10309 15261 1 0.16500 119244.000000
10309 16668 1 0.16500 119244.000000
10310 15261 1 0.16500 119244.000000
10310 16306 1 0.16500 119244.000000
10311 15262 1 0.16500 119244.000000
10311 15359 1 0.16500 119244.000000
10312 15262 1 0.16500 119244.000000
10312 20590 1 0.16500 119244.000000
10313 15263 1 0.16500 119244.000000
10313 16226 1 0.16500 119244.000000
10314 15508 1 0.16500 119244.000000
10314 17414 1 0.16500 119244.000000
10315 14432 1 0.16500 119244.000000
10315 15264 1 0.16500 119244.000000
10316 15264 1 0.16500 119244.000000
10316 15510 1 0.16500 119244.000000
10317 15265 1 0.16500 119244.000000
10317 16632 1 0.16500 119244.000000
10318 15267 1 0.16500 119244.000000
10318 16177 1 0.16500 119244.000000
10319 15267 1 0.16500 119244.000000
10319 16163 1 0.16500 119244.000000
10320 15267 1 0.16500 119244.000000
10320 16004 1 0.16500 119244.000000
10321 15268 1 0.16500 119244.000000
10321 15909 1 0.16500 119244.000000
10322 15268 1 0.16500 119244.000000
10322 15672 1 0.16500 119244.000000
10323 15269 1 0.16500 119244.000000
10323 15544 1 0.16500 119244.000000
10324 15272 1 0.16500 119244.000000
10324 15789 1 0.16500 119244.000000
10325 15273 1 0.16500 119244.000000
10325 15664 1 0.16500 119244.000000
10326 15273 1 0.16500 119244.000000
10326 15716 1 0.16500 119244.000000
10327 15274 1 0.16500 119244.000000
10327 15740 1 0.16500 119244.000000
10328 15275 1 0.16500 119244.000000
10328 15589 1 0.16500 119244.000000
10329 17428 1 0.16500 119244.000000
10329 20797 1 0.16500 119244.000000
10330 16378 1 0.16500 119244.000000
10330 17442 1 0.16500 119244.000000
10331 15276 1 0.16500 119244.000000
10331 15447 1 0.16500 119244.000000
10332 12412 1 0.16500 119244.000000
10332 15276 1 0.16500 119244.000000
10333 15278 1 0.16500 119244.000000
10333 16083 1 0.16500 119244.000000
10334 15279 1 0.16500 119244.000000
10334 15976 1 0.16500 119244.000000
10335 15279 1 0.16500 119244.000000
10335 15331 1 0.16500 119244.000000
10336 15281 1 0.16500 119244.000000
10336 15602 1 0.16500 119244.000000
10337 15282 1 0.16500 119244.000000
10337 15996 1 0.16500 119244.000000
10338 15282 1 0.16500 119244.000000
10338 16156 1 0.16500 119244.000000
10339 15836 1 0.16500 119244.000000
10339 16270 1 0.16500 119244.000000
10340 15284 1 0.16500 119244.000000
10340 15836 1 0.16500 119244.000000
10341 15285 1 0.16500 119244.000000
10341 15677 1 0.16500 119244.000000
10342 15286 1 0.16500 119244.000000
10342 15562 1 0.16500 119244.000000
10343 15286 1 0.16500 119244.000000
10343 16230 1 0.16500 119244.000000
10344 15287 1 0.16500 119244.000000
10344 16695 1 0.16500 119244.000000
10345 15287 1 0.16500 119244.000000
10345 15367 1 0.16500 119244.000000
10346 15288 1 0.16500 119244.000000
10346 16167 1 0.16500 119244.000000
10347 15289 1 0.16500 119244.000000
10347 16616 1 0.16500 119244.000000
10348 15290 1 0.16500 119244.000000
10348 16021 1 0.16500 119244.000000
10349 15291 1 0.16500 119244.000000
10349 15875 1 0.16500 119244.000000
10350 15292 1 0.16500 119244.000000
10350 16673 1 0.16500 119244.000000
10351 15294 1 0.16500 119244.000000
10351 16507 1 0.16500 119244.000000
10352 15294 1 0.16500 119244.000000
10352 15641 1 0.16500 119244.000000
10353 15294 1 0.16500 119244.000000
10353 16582 1 0.16500 119244.000000
10354 15295 1 0.16500 119244.000000
10354 16273 1 0.16500 119244.000000
10355 15296 1 0.16500 119244.000000
10355 20923 1 0.16500 119244.000000
10356 13119 1 0.16500 119244.000000
10356 16578 1 0.16500 119244.000000
10357 15299 1 0.16500 119244.000000
10357 16258 1 0.16500 119244.000000
10358 15300 1 0.16500 119244.000000
10358 15357 1 0.16500 119244.000000
10359 15300 1 0.16500 119244.000000
10359 16521 1 0.16500 119244.000000
10360 15302 1 0.16500 119244.000000
10360 16685 1 0.16500 119244.000000
10361 15302 1 0.16500 119244.000000
10361 15571 1 0.16500 119244.000000
10362 15302 1 0.16500 119244.000000
10362 15717 1 0.16500 119244.000000
10363 15303 1 0.16500 119244.000000
10363 16484 1 0.16500 119244.000000
10364 15303 1 0.16500 119244.000000
10364 16164 1 0.16500 119244.000000
10365 15303 1 0.16500 119244.000000
10365 16047 1 0.16500 119244.000000
10366 15304 1 0.16500 119244.000000
10366 16366 1 0.16500 119244.000000
10367 15304 1 0.16500 119244.000000
10367 16063 1 0.16500 119244.000000
10368 15305 1 0.16500 119244.000000
10368 16594 1 0.16500 119244.000000
10369 15305 1 0.16500 119244.000000
10369 15634 1 0.16500 119244.000000
10370 13985 1 0.16500 119244.000000
10370 15306 1 0.16500 119244.000000
10371 15306 1 0.16500 119244.000000
10371 20857 1 0.16500 119244.000000
10372 15307 1 0.16500 119244.000000
10372 16160 1 0.16500 119244.000000
10373 15307 1 0.16500 119244.000000
10373 15465 1 0.16500 119244.000000
10374 15307 1 0.16500 119244.000000
10374 16617 1 0.16500 119244.000000
10375 15307 1 0.16500 119244.000000
10375 16591 1 0.16500 119244.000000
10376 15310 1 0.16500 119244.000000
10376 15963 1 0.16500 119244.000000
10377 15311 1 0.16500 119244.000000
10377 16516 1 0.16500 119244.000000
10378 15312 1 0.16500 119244.000000
10378 16248 1 0.16500 119244.000000
10379 15312 1 0.16500 119244.000000
10379 16283 1 0.16500 119244.000000
10380 15312 1 0.16500 119244.000000
10380 15491 1 0.16500 119244.000000
10381 15313 1 0.16500 119244.000000
10381 15878 1 0.16500 119244.000000
10382 15313 1 0.16500 119244.000000
10382 15541 1 0.16500 119244.000000
10383 15314 1 0.16500 119244.000000
10383 15401 1 0.16500 119244.000000
10384 15315 1 0.16500 119244.000000
10384 15622 1 0.16500 119244.000000
10385 15316 1 0.16500 119244.000000
10385 20797 1 0.16500 119244.000000
10386 15316 1 0.16500 119244.000000
10386 16519 1 0.16500 119244.000000
10387 15317 1 0.16500 119244.000000
10387 16217 1 0.16500 119244.000000
10388 15317 1 0.16500 119244.000000
10388 16047 1 0.16500 119244.000000
10389 15323 1 0.16500 119244.000000
10389 16250 1 0.16500 119244.000000
10390 15323 1 0.16500 119244.000000
10390 15898 1 0.16500 119244.000000
10391 15327 1 0.16500 119244.000000
10391 16660 1 0.16500 119244.000000
10392 15328 1 0.16500 119244.000000
10392 15828 1 0.16500 119244.000000
10393 15328 1 0.16500 119244.000000
10393 16360 1 0.16500 119244.000000
10394 15328 1 0.16500 119244.000000
10394 16445 1 0.16500 119244.000000
10395 15330 1 0.16500 119244.000000
10395 16072 1 0.16500 119244.000000
10396 15333 1 0.16500 119244.000000
10396 15683 1 0.16500 119244.000000
10397 17498 1 0.16500 119244.000000
10397 20185 1 0.16500 119244.000000
10398 15334 1 0.16500 119244.000000
10398 15460 1 0.16500 119244.000000
10399 15336 1 0.16500 119244.000000
10399 15761 1 0.16500 119244.000000
10400 15337 1 0.16500 119244.000000
10400 15780 1 0.16500 119244.000000
10401 13631 1 0.16500 119244.000000
10401 16266 1 0.16500 119244.000000
10402 15339 1 0.16500 119244.000000
10402 16691 1 0.16500 119244.000000
10403 15340 1 0.16500 119244.000000
10403 15925 1 0.16500 119244.000000
10404 15340 1 0.16500 119244.000000
10404 15793 1 0.16500 119244.000000
10405 15341 1 0.16500 119244.000000
10405 15841 1 0.16500 119244.000000
10406 14168 1 0.16500 119244.000000
10406 15341 1 0.16500 119244.000000
10407 14165 1 0.16500 119244.000000
10407 15419 1 0.16500 119244.000000
10408 15343 1 0.16500 119244.000000
10408 15354 1 0.16500 119244.000000
10409 15344 1 0.16500 119244.000000
10409 17652 1 0.16500 119244.000000
10410 15345 1 0.16500 119244.000000
10410 15349 1 0.16500 119244.000000
10411 15346 1 0.16500 119244.000000
10411 16302 1 0.16500 119244.000000
10412 15347 1 0.16500 119244.000000
10412 15673 1 0.16500 119244.000000
10413 15348 1 0.16500 119244.000000
10413 20830 1 0.16500 119244.000000
10414 13782 1 0.16500 119244.000000
10414 15348 1 0.16500 119244.000000
10415 15349 1 0.16500 119244.000000
10415 16359 1 0.16500 119244.000000
10416 15351 1 0.16500 119244.000000
10416 15913 1 0.16500 119244.000000
10417 15351 1 0.16500 119244.000000
10417 15608 1 0.16500 119244.000000
10418 15352 1 0.16500 119244.000000
10418 15635 1 0.16500 119244.000000
10419 15354 1 0.16500 119244.000000
10419 16503 1 0.16500 119244.000000
10420 15354 1 0.16500 119244.000000
10420 16486 1 0.16500 119244.000000
10421 15355 1 0.16500 119244.000000
10421 15376 1 0.16500 119244.000000
10422 11690 1 0.16500 119244.000000
10422 16249 1 0.16500 119244.000000
10423 15359 1 0.16500 119244.000000
10423 15645 1 0.16500 119244.000000
10424 15361 1 0.16500 119244.000000
10424 16352 1 0.16500 119244.000000
10425 15362 1 0.16500 119244.000000
10425 20665 1 0.16500 119244.000000
10426 15363 1 0.16500 119244.000000
10426 15971 1 0.16500 119244.000000
10427 15365 1 0.16500 119244.000000
10427 16110 1 0.16500 119244.000000
10428 15366 1 0.16500 119244.000000
10428 15434 1 0.16500 119244.000000
10429 15366 1 0.16500 119244.000000
10429 16294 1 0.16500 119244.000000
10430 15367 1 0.16500 119244.000000
10430 15546 1 0.16500 119244.000000
10431 15367 1 0.16500 119244.000000
10431 15623 1 0.16500 119244.000000
10432 15368 1 0.16500 119244.000000
10432 15559 1 0.16500 119244.000000
10433 15373 1 0.16500 119244.000000
10433 17876 1 0.16500 119244.000000
10434 15375 1 0.16500 119244.000000
10434 16102 1 0.16500 119244.000000
10435 16140 1 0.16500 119244.000000
10435 20542 1 0.16500 119244.000000
10436 16535 1 0.16500 119244.000000
10436 20542 1 0.16500 119244.000000
10437 15379 1 0.16500 119244.000000
10437 15882 1 0.16500 119244.000000
10438 15379 1 0.16500 119244.000000
10438 15399 1 0.16500 119244.000000
10439 15379 1 0.16500 119244.000000
10439 20710 1 0.16500 119244.000000
10440 15379 1 0.16500 119244.000000
10440 17736 1 0.16500 119244.000000
10441 20545 1 0.16500 119244.000000
10441 20659 1 0.16500 119244.000000
10442 16174 1 0.16500 119244.000000
10442 20545 1 0.16500 119244.000000
10443 15380 1 0.16500 119244.000000
10443 15989 1 0.16500 119244.000000
10444 15381 1 0.16500 119244.000000
10444 16083 1 0.16500 119244.000000
10445 15381 1 0.16500 119244.000000
10445 16367 1 0.16500 119244.000000
10446 15382 1 0.16500 119244.000000
10446 16551 1 0.16500 119244.000000
10447 15383 1 0.16500 119244.000000
10447 15462 1 0.16500 119244.000000
10448 15384 1 0.16500 119244.000000
10448 15786 1 0.16500 119244.000000
10449 15385 1 0.16500 119244.000000
10449 16648 1 0.16500 119244.000000
10450 15385 1 0.16500 119244.000000
10450 15753 1 0.16500 119244.000000
10451 15386 1 0.16500 119244.000000
10451 15443 1 0.16500 119244.000000
10452 15386 1 0.16500 119244.000000
10452 16198 1 0.16500 119244.000000
10453 15386 1 0.16500 119244.000000
10453 15967 1 0.16500 119244.000000
10454 15388 1 0.16500 119244.000000
10454 16563 1 0.16500 119244.000000
10455 15388 1 0.16500 119244.000000
10455 16573 1 0.16500 119244.000000
10456 15390 1 0.16500 119244.000000
10456 16011 1 0.16500 119244.000000
10457 15391 1 0.16500 119244.000000
10457 20728 1 0.16500 119244.000000
10458 15392 1 0.16500 119244.000000
10458 16173 1 0.16500 119244.000000
10459 14459 1 0.16500 119244.000000
10459 15885 1 0.16500 119244.000000
10460 15393 1 0.16500 119244.000000
10460 16092 1 0.16500 119244.000000
10461 15763 1 0.16500 119244.000000
10461 20548 1 0.16500 119244.000000
10462 16186 1 0.16500 119244.000000
10462 20548 1 0.16500 119244.000000
10463 20551 1 0.16500 119244.000000
10463 20883 1 0.16500 119244.000000
10464 15395 1 0.16500 119244.000000
10464 15899 1 0.16500 119244.000000
10465 15397 1 0.16500 119244.000000
10465 16633 1 0.16500 119244.000000
10466 15398 1 0.16500 119244.000000
10466 16142 1 0.16500 119244.000000
10467 14823 1 0.16500 119244.000000
10467 15398 1 0.16500 119244.000000
10468 12456 1 0.16500 119244.000000
10468 15399 1 0.16500 119244.000000
10469 15400 1 0.16500 119244.000000
10469 16108 1 0.16500 119244.000000
10470 15402 1 0.16500 119244.000000
10470 15852 1 0.16500 119244.000000
10471 13080 1 0.16500 119244.000000
10471 15403 1 0.16500 119244.000000
10472 15403 1 0.16500 119244.000000
10472 15794 1 0.16500 119244.000000
10473 15404 1 0.16500 119244.000000
10473 16214 1 0.16500 119244.000000
10474 15404 1 0.16500 119244.000000
10474 15745 1 0.16500 119244.000000
10475 15405 1 0.16500 119244.000000
10475 16019 1 0.16500 119244.000000
10476 15406 1 0.16500 119244.000000
10476 15607 1 0.16500 119244.000000
10477 15408 1 0.16500 119244.000000
10477 15588 1 0.16500 119244.000000
10478 15410 1 0.16500 119244.000000
10478 15524 1 0.16500 119244.000000
10479 15411 1 0.16500 119244.000000
10479 15807 1 0.16500 119244.000000
10480 13484 1 0.16500 119244.000000
10480 15415 1 0.16500 119244.000000
10481 15415 1 0.16500 119244.000000
10481 16325 1 0.16500 119244.000000
10482 15416 1 0.16500 119244.000000
10482 15468 1 0.16500 119244.000000
10483 15417 1 0.16500 119244.000000
10483 16179 1 0.16500 119244.000000
10484 15418 1 0.16500 119244.000000
10484 16134 1 0.16500 119244.000000
10485 15419 1 0.16500 119244.000000
10485 15565 1 0.16500 119244.000000
10486 15420 1 0.16500 119244.000000
10486 15490 1 0.16500 119244.000000
10487 15422 1 0.16500 119244.000000
10487 15974 1 0.16500 119244.000000
10488 15422 1 0.16500 119244.000000
10488 20719 1 0.16500 119244.000000
10489 14144 1 0.16500 119244.000000
10489 15423 1 0.16500 119244.000000
10490 15423 1 0.16500 119244.000000
10490 16175 1 0.16500 119244.000000
10491 15424 1 0.16500 119244.000000
10491 15827 1 0.16500 119244.000000
10492 12549 1 0.16500 119244.000000
10492 20554 1 0.16500 119244.000000
10493 15426 1 0.16500 119244.000000
10493 15990 1 0.16500 119244.000000
10494 15429 1 0.16500 119244.000000
10494 16061 1 0.16500 119244.000000
10495 15430 1 0.16500 119244.000000
10495 16208 1 0.16500 119244.000000
10496 12062 1 0.16500 119244.000000
10496 15431 1 0.16500 119244.000000
10497 15432 1 0.16500 119244.000000
10497 16600 1 0.16500 119244.000000
10498 15433 1 0.16500 119244.000000
10498 16179 1 0.16500 119244.000000
10499 15434 1 0.16500 119244.000000
10499 15811 1 0.16500 119244.000000
10500 15435 1 0.16500 119244.000000
10500 15848 1 0.16500 119244.000000
10501 15438 1 0.16500 119244.000000
10501 16267 1 0.16500 119244.000000
10502 15442 1 0.16500 119244.000000
10502 16363 1 0.16500 119244.000000
10503 15442 1 0.16500 119244.000000
10503 16567 1 0.16500 119244.000000
10504 15444 1 0.16500 119244.000000
10504 15983 1 0.16500 119244.000000
10505 15445 1 0.16500 119244.000000
10505 16274 1 0.16500 119244.000000
10506 15445 1 0.16500 119244.000000
10506 15501 1 0.16500 119244.000000
10507 15446 1 0.16500 119244.000000
10507 15672 1 0.16500 119244.000000
10508 15448 1 0.16500 119244.000000
10508 15523 1 0.16500 119244.000000
10509 15450 1 0.16500 119244.000000
10509 16529 1 0.16500 119244.000000
10510 15450 1 0.16500 119244.000000
10510 16522 1 0.16500 119244.000000
10511 15450 1 0.16500 119244.000000
10511 15630 1 0.16500 119244.000000
10512 15452 1 0.16500 119244.000000
10512 16433 1 0.16500 119244.000000
10513 13782 1 0.16500 119244.000000
10513 20566 1 0.16500 119244.000000
10514 20152 1 0.16500 119244.000000
10514 20566 1 0.16500 119244.000000
10515 15454 1 0.16500 119244.000000
10515 15519 1 0.16500 119244.000000
10516 15454 1 0.16500 119244.000000
10516 15481 1 0.16500 119244.000000
10517 15455 1 0.16500 119244.000000
10517 15721 1 0.16500 119244.000000
10518 12684 1 0.16500 119244.000000
10518 13426 1 0.16500 119244.000000
10519 15457 1 0.16500 119244.000000
10519 15541 1 0.16500 119244.000000
10520 15458 1 0.16500 119244.000000
10520 16183 1 0.16500 119244.000000
10521 14797 1 0.16500 119244.000000
10521 15781 1 0.16500 119244.000000
10522 15460 1 0.16500 119244.000000
10522 15590 1 0.16500 119244.000000
10523 15460 1 0.16500 119244.000000
10523 16142 1 0.16500 119244.000000
10524 15462 1 0.16500 119244.000000
10524 16281 1 0.16500 119244.000000
10525 15462 1 0.16500 119244.000000
10525 16457 1 0.16500 119244.000000
10526 15463 1 0.16500 119244.000000
10526 15549 1 0.16500 119244.000000
10527 15465 1 0.16500 119244.000000
10527 16018 1 0.16500 119244.000000
10528 15466 1 0.16500 119244.000000
10528 16304 1 0.16500 119244.000000
10529 15468 1 0.16500 119244.000000
10529 16240 1 0.16500 119244.000000
10530 15469 1 0.16500 119244.000000
10530 15522 1 0.16500 119244.000000
10531 12722 1 0.16500 119244.000000
10531 16090 1 0.16500 119244.000000
10532 12722 1 0.16500 119244.000000
10532 15952 1 0.16500 119244.000000
10533 15472 1 0.16500 119244.000000
10533 16381 1 0.16500 119244.000000
10534 15473 1 0.16500 119244.000000
10534 15881 1 0.16500 119244.000000
10535 15473 1 0.16500 119244.000000
10535 16126 1 0.16500 119244.000000
10536 15474 1 0.16500 119244.000000
10536 16077 1 0.16500 119244.000000
10537 15475 1 0.16500 119244.000000
10537 16521 1 0.16500 119244.000000
10538 15476 1 0.16500 119244.000000
10538 15582 1 0.16500 119244.000000
10539 15477 1 0.16500 119244.000000
10539 15878 1 0.16500 119244.000000
10540 15478 1 0.16500 119244.000000
10540 15584 1 0.16500 119244.000000
10541 15479 1 0.16500 119244.000000
10541 15792 1 0.16500 119244.000000
10542 15479 1 0.16500 119244.000000
10542 16455 1 0.16500 119244.000000
10543 15480 1 0.16500 119244.000000
10543 16141 1 0.16500 119244.000000
10544 15481 1 0.16500 119244.000000
10544 16285 1 0.16500 119244.000000
10545 15482 1 0.16500 119244.000000
10545 21003 1 0.16500 119244.000000
10546 15483 1 0.16500 119244.000000
10546 15809 1 0.16500 119244.000000
10547 15483 1 0.16500 119244.000000
10547 15770 1 0.16500 119244.000000
10548 15484 1 0.16500 119244.000000
10548 16567 1 0.16500 119244.000000
10549 15763 1 0.16500 119244.000000
10549 17582 1 0.16500 119244.000000
10550 15485 1 0.16500 119244.000000
10550 20983 1 0.16500 119244.000000
10551 15485 1 0.16500 119244.000000
10551 20674 1 0.16500 119244.000000
10552 15485 1 0.16500 119244.000000
10552 15572 1 0.16500 119244.000000
10553 15487 1 0.16500 119244.000000
10553 16245 1 0.16500 119244.000000
10554 15488 1 0.16500 119244.000000
10554 16630 1 0.16500 119244.000000
10555 15488 1 0.16500 119244.000000
10555 20866 1 0.16500 119244.000000
10556 15489 1 0.16500 119244.000000
10556 16464 1 0.16500 119244.000000
10557 15489 1 0.16500 119244.000000
10557 16419 1 0.16500 119244.000000
10558 15489 1 0.16500 119244.000000
10558 15498 1 0.16500 119244.000000
10559 15491 1 0.16500 119244.000000
10559 16628 1 0.16500 119244.000000
10560 20572 1 0.16500 119244.000000
10560 20614 1 0.16500 119244.000000
10561 16279 1 0.16500 119244.000000
10561 20572 1 0.16500 119244.000000
10562 15492 1 0.16500 119244.000000
10562 16379 1 0.16500 119244.000000
10563 15492 1 0.16500 119244.000000
10563 16133 1 0.16500 119244.000000
10564 15492 1 0.16500 119244.000000
10564 15844 1 0.16500 119244.000000
10565 15493 1 0.16500 119244.000000
10565 16036 1 0.16500 119244.000000
10566 15494 1 0.16500 119244.000000
10566 15527 1 0.16500 119244.000000
10567 17974 1 0.16500 119244.000000
10567 20575 1 0.16500 119244.000000
10568 15495 1 0.16500 119244.000000
10568 16333 1 0.16500 119244.000000
10569 15496 1 0.16500 119244.000000
10569 20779 1 0.16500 119244.000000
10570 15496 1 0.16500 119244.000000
10570 15966 1 0.16500 119244.000000
10571 15497 1 0.16500 119244.000000
10571 15649 1 0.16500 119244.000000
10572 16381 1 0.16500 119244.000000
10572 20581 1 0.16500 119244.000000
10573 15500 1 0.16500 119244.000000
10573 16674 1 0.16500 119244.000000
10574 15501 1 0.16500 119244.000000
10574 16363 1 0.16500 119244.000000
10575 15502 1 0.16500 119244.000000
10575 15897 1 0.16500 119244.000000
10576 12950 1 0.16500 119244.000000
10576 15502 1 0.16500 119244.000000
10577 15502 1 0.16500 119244.000000
10577 16412 1 0.16500 119244.000000
10578 15504 1 0.16500 119244.000000
10578 15748 1 0.16500 119244.000000
10579 15506 1 0.16500 119244.000000
10579 16548 1 0.16500 119244.000000
10580 15506 1 0.16500 119244.000000
10580 16388 1 0.16500 119244.000000
10581 15944 1 0.16500 119244.000000
10581 20584 1 0.16500 119244.000000
10582 20584 1 0.16500 119244.000000
10582 20839 1 0.16500 119244.000000
10583 15508 1 0.16500 119244.000000
10583 16363 1 0.16500 119244.000000
10584 15509 1 0.16500 119244.000000
10584 15741 1 0.16500 119244.000000
10585 15509 1 0.16500 119244.000000
10585 15538 1 0.16500 119244.000000
10586 15510 1 0.16500 119244.000000
10586 15587 1 0.16500 119244.000000
10587 15511 1 0.16500 119244.000000
10587 20948 1 0.16500 119244.000000
10588 15512 1 0.16500 119244.000000
10588 15815 1 0.16500 119244.000000
10589 15515 1 0.16500 119244.000000
10589 16385 1 0.16500 119244.000000
10590 15517 1 0.16500 119244.000000
10590 16622 1 0.16500 119244.000000
10591 15519 1 0.16500 119244.000000
10591 15536 1 0.16500 119244.000000
10592 16057 1 0.16500 119244.000000
10592 20587 1 0.16500 119244.000000
10593 16593 1 0.16500 119244.000000
10593 20587 1 0.16500 119244.000000
10594 15520 1 0.16500 119244.000000
10594 16250 1 0.16500 119244.000000
10595 15521 1 0.16500 119244.000000
10595 16326 1 0.16500 119244.000000
10596 15522 1 0.16500 119244.000000
10596 16566 1 0.16500 119244.000000
10597 15523 1 0.16500 119244.000000
10597 15943 1 0.16500 119244.000000
10598 15524 1 0.16500 119244.000000
10598 15687 1 0.16500 119244.000000
10599 15525 1 0.16500 119244.000000
10599 16113 1 0.16500 119244.000000
10600 15526 1 0.16500 119244.000000
10600 16620 1 0.16500 119244.000000
10601 15526 1 0.16500 119244.000000
10601 16524 1 0.16500 119244.000000
10602 15529 1 0.16500 119244.000000
10602 16605 1 0.16500 119244.000000
10603 15530 1 0.16500 119244.000000
10603 20821 1 0.16500 119244.000000
10604 15530 1 0.16500 119244.000000
10604 15580 1 0.16500 119244.000000
10605 15531 1 0.16500 119244.000000
10605 15777 1 0.16500 119244.000000
10606 15532 1 0.16500 119244.000000
10606 16592 1 0.16500 119244.000000
10607 16174 1 0.16500 119244.000000
10607 20593 1 0.16500 119244.000000
10608 15535 1 0.16500 119244.000000
10608 16290 1 0.16500 119244.000000
10609 15535 1 0.16500 119244.000000
10609 16444 1 0.16500 119244.000000
10610 15536 1 0.16500 119244.000000
10610 16452 1 0.16500 119244.000000
10611 15536 1 0.16500 119244.000000
10611 16135 1 0.16500 119244.000000
10612 15538 1 0.16500 119244.000000
10612 16105 1 0.16500 119244.000000
10613 15538 1 0.16500 119244.000000
10613 16230 1 0.16500 119244.000000
10614 15540 1 0.16500 119244.000000
10614 16618 1 0.16500 119244.000000
10615 15542 1 0.16500 119244.000000
10615 16400 1 0.16500 119244.000000
10616 15544 1 0.16500 119244.000000
10616 15699 1 0.16500 119244.000000
10617 15545 1 0.16500 119244.000000
10617 15933 1 0.16500 119244.000000
10618 15545 1 0.16500 119244.000000
10618 15702 1 0.16500 119244.000000
10619 15546 1 0.16500 119244.000000
10619 16234 1 0.16500 119244.000000
10620 15550 1 0.16500 119244.000000
10620 16353 1 0.16500 119244.000000
10621 15550 1 0.16500 119244.000000
10621 15715 1 0.16500 119244.000000
10622 15551 1 0.16500 119244.000000
10622 16091 1 0.16500 119244.000000
10623 15552 1 0.16500 119244.000000
10623 16427 1 0.16500 119244.000000
10624 15552 1 0.16500 119244.000000
10624 16511 1 0.16500 119244.000000
10625 13518 1 0.16500 119244.000000
10625 15779 1 0.16500 119244.000000
10626 16647 1 0.16500 119244.000000
10626 20602 1 0.16500 119244.000000
10627 15553 1 0.16500 119244.000000
10627 15562 1 0.16500 119244.000000
10628 12917 1 0.16500 119244.000000
10628 16428 1 0.16500 119244.000000
10629 15554 1 0.16500 119244.000000
10629 15962 1 0.16500 119244.000000
10630 15554 1 0.16500 119244.000000
10630 16264 1 0.16500 119244.000000
10631 15555 1 0.16500 119244.000000
10631 16034 1 0.16500 119244.000000
10632 15559 1 0.16500 119244.000000
10632 20872 1 0.16500 119244.000000
10633 15560 1 0.16500 119244.000000
10633 15688 1 0.16500 119244.000000
10634 15562 1 0.16500 119244.000000
10634 15696 1 0.16500 119244.000000
10635 15564 1 0.16500 119244.000000
10635 16103 1 0.16500 119244.000000
10636 15564 1 0.16500 119244.000000
10636 15988 1 0.16500 119244.000000
10637 15566 1 0.16500 119244.000000
10637 16393 1 0.16500 119244.000000
10638 14176 1 0.16500 119244.000000
10638 15567 1 0.16500 119244.000000
10639 15568 1 0.16500 119244.000000
10639 16516 1 0.16500 119244.000000
10640 15568 1 0.16500 119244.000000
10640 16026 1 0.16500 119244.000000
10641 15568 1 0.16500 119244.000000
10641 16087 1 0.16500 119244.000000
10642 15568 1 0.16500 119244.000000
10642 16277 1 0.16500 119244.000000
10643 15569 1 0.16500 119244.000000
10643 16089 1 0.16500 119244.000000
10644 15570 1 0.16500 119244.000000
10644 15902 1 0.16500 119244.000000
10645 15573 1 0.16500 119244.000000
10645 16242 1 0.16500 119244.000000
10646 15573 1 0.16500 119244.000000
10646 16382 1 0.16500 119244.000000
10647 15552 1 0.16500 119244.000000
10647 15574 1 0.16500 119244.000000
10648 15575 1 0.16500 119244.000000
10648 15593 1 0.16500 119244.000000
10649 12251 1 0.16500 119244.000000
10649 15576 1 0.16500 119244.000000
10650 15577 1 0.16500 119244.000000
10650 16408 1 0.16500 119244.000000
10651 15578 1 0.16500 119244.000000
10651 16481 1 0.16500 119244.000000
10652 15578 1 0.16500 119244.000000
10652 15661 1 0.16500 119244.000000
10653 15579 1 0.16500 119244.000000
10653 16336 1 0.16500 119244.000000
10654 15580 1 0.16500 119244.000000
10654 15675 1 0.16500 119244.000000
10655 15581 1 0.16500 119244.000000
10655 16180 1 0.16500 119244.000000
10656 15581 1 0.16500 119244.000000
10656 16104 1 0.16500 119244.000000
10657 15581 1 0.16500 119244.000000
10657 15974 1 0.16500 119244.000000
10658 15582 1 0.16500 119244.000000
10658 15855 1 0.16500 119244.000000
10659 15585 1 0.16500 119244.000000
10659 15638 1 0.16500 119244.000000
10660 15586 1 0.16500 119244.000000
10660 16244 1 0.16500 119244.000000
10661 15312 1 0.16500 119244.000000
10661 15586 1 0.16500 119244.000000
10662 15587 1 0.16500 119244.000000
10662 16091 1 0.16500 119244.000000
10663 15588 1 0.16500 119244.000000
10663 16092 1 0.16500 119244.000000
10664 15589 1 0.16500 119244.000000
10664 15657 1 0.16500 119244.000000
10665 15590 1 0.16500 119244.000000
10665 15714 1 0.16500 119244.000000
10666 15592 1 0.16500 119244.000000
10666 15701 1 0.16500 119244.000000
10667 15594 1 0.16500 119244.000000
10667 15793 1 0.16500 119244.000000
10668 15596 1 0.16500 119244.000000
10668 15609 1 0.16500 119244.000000
10669 15598 1 0.16500 119244.000000
10669 16076 1 0.16500 119244.000000
10670 15598 1 0.16500 119244.000000
10670 20851 1 0.16500 119244.000000
10671 15598 1 0.16500 119244.000000
10671 20752 1 0.16500 119244.000000
10672 15067 1 0.16500 119244.000000
10672 15599 1 0.16500 119244.000000
10673 15604 1 0.16500 119244.000000
10673 15922 1 0.16500 119244.000000
10674 15605 1 0.16500 119244.000000
10674 20656 1 0.16500 119244.000000
10675 15606 1 0.16500 119244.000000
10675 15686 1 0.16500 119244.000000
10676 12191 1 0.16500 119244.000000
10676 16066 1 0.16500 119244.000000
10677 14287 1 0.16500 119244.000000
10677 15608 1 0.16500 119244.000000
10678 20611 1 0.16500 119244.000000
10678 20746 1 0.16500 119244.000000
10679 16201 1 0.16500 119244.000000
10679 20611 1 0.16500 119244.000000
10680 14817 1 0.16500 119244.000000
10680 16513 1 0.16500 119244.000000
10681 12950 1 0.16500 119244.000000
10681 15991 1 0.16500 119244.000000
10682 15612 1 0.16500 119244.000000
10682 16284 1 0.16500 119244.000000
10683 15613 1 0.16500 119244.000000
10683 16001 1 0.16500 119244.000000
10684 15614 1 0.16500 119244.000000
10684 16435 1 0.16500 119244.000000
10685 16205 1 0.16500 119244.000000
10685 20620 1 0.16500 119244.000000
10686 20620 1 0.16500 119244.000000
10686 20740 1 0.16500 119244.000000
10687 15616 1 0.16500 119244.000000
10687 15951 1 0.16500 119244.000000
10688 15617 1 0.16500 119244.000000
10688 16651 1 0.16500 119244.000000
10689 15617 1 0.16500 119244.000000
10689 16637 1 0.16500 119244.000000
10690 15617 1 0.16500 119244.000000
10690 15730 1 0.16500 119244.000000
10691 15618 1 0.16500 119244.000000
10691 16334 1 0.16500 119244.000000
10692 15619 1 0.16500 119244.000000
10692 16079 1 0.16500 119244.000000
10693 15619 1 0.16500 119244.000000
10693 16188 1 0.16500 119244.000000
10694 16064 1 0.16500 119244.000000
10694 17652 1 0.16500 119244.000000
10695 15621 1 0.16500 119244.000000
10695 16610 1 0.16500 119244.000000
10696 15622 1 0.16500 119244.000000
10696 16337 1 0.16500 119244.000000
10697 15626 1 0.16500 119244.000000
10697 16155 1 0.16500 119244.000000
10698 15158 1 0.16500 119244.000000
10698 15885 1 0.16500 119244.000000
10699 15629 1 0.16500 119244.000000
10699 16525 1 0.16500 119244.000000
10700 15629 1 0.16500 119244.000000
10700 16273 1 0.16500 119244.000000
10701 15837 1 0.16500 119244.000000
10701 17680 1 0.16500 119244.000000
10702 15632 1 0.16500 119244.000000
10702 16236 1 0.16500 119244.000000
10703 15638 1 0.16500 119244.000000
10703 16594 1 0.16500 119244.000000
10704 13616 1 0.16500 119244.000000
10704 15640 1 0.16500 119244.000000
10705 20623 1 0.16500 119244.000000
10705 20716 1 0.16500 119244.000000
10706 15642 1 0.16500 119244.000000
10706 16455 1 0.16500 119244.000000
10707 15643 1 0.16500 119244.000000
10707 16450 1 0.16500 119244.000000
10708 15643 1 0.16500 119244.000000
10708 15849 1 0.16500 119244.000000
10709 15644 1 0.16500 119244.000000
10709 16533 1 0.16500 119244.000000
10710 15646 1 0.16500 119244.000000
10710 15842 1 0.16500 119244.000000
10711 15646 1 0.16500 119244.000000
10711 20848 1 0.16500 119244.000000
10712 15648 1 0.16500 119244.000000
10712 15964 1 0.16500 119244.000000
10713 15648 1 0.16500 119244.000000
10713 16623 1 0.16500 119244.000000
10714 15650 1 0.16500 119244.000000
10714 15941 1 0.16500 119244.000000
10715 15650 1 0.16500 119244.000000
10715 16000 1 0.16500 119244.000000
10716 15652 1 0.16500 119244.000000
10716 16408 1 0.16500 119244.000000
10717 15653 1 0.16500 119244.000000
10717 16295 1 0.16500 119244.000000
10718 15654 1 0.16500 119244.000000
10718 15896 1 0.16500 119244.000000
10719 15656 1 0.16500 119244.000000
10719 16355 1 0.16500 119244.000000
10720 15657 1 0.16500 119244.000000
10720 15810 1 0.16500 119244.000000
10721 15658 1 0.16500 119244.000000
10721 16226 1 0.16500 119244.000000
10722 15663 1 0.16500 119244.000000
10722 16265 1 0.16500 119244.000000
10723 15663 1 0.16500 119244.000000
10723 15715 1 0.16500 119244.000000
10724 15667 1 0.16500 119244.000000
10724 16083 1 0.16500 119244.000000
10725 15667 1 0.16500 119244.000000
10725 15792 1 0.16500 119244.000000
10726 15669 1 0.16500 119244.000000
10726 16347 1 0.16500 119244.000000
10727 14207 1 0.16500 119244.000000
10727 16097 1 0.16500 119244.000000
10728 15670 1 0.16500 119244.000000
10728 16210 1 0.16500 119244.000000
10729 15673 1 0.16500 119244.000000
10729 16043 1 0.16500 119244.000000
10730 15675 1 0.16500 119244.000000
10730 16162 1 0.16500 119244.000000
10731 15676 1 0.16500 119244.000000
10731 15843 1 0.16500 119244.000000
10732 15677 1 0.16500 119244.000000
10732 15978 1 0.16500 119244.000000
10733 15678 1 0.16500 119244.000000
10733 16551 1 0.16500 119244.000000
10734 15678 1 0.16500 119244.000000
10734 16500 1 0.16500 119244.000000
10735 15679 1 0.16500 119244.000000
10735 16114 1 0.16500 119244.000000
10736 15680 1 0.16500 119244.000000
10736 16058 1 0.16500 119244.000000
10737 14607 1 0.16500 119244.000000
10737 15981 1 0.16500 119244.000000
10738 15681 1 0.16500 119244.000000
10738 16095 1 0.16500 119244.000000
10739 15682 1 0.16500 119244.000000
10739 16153 1 0.16500 119244.000000
10740 15685 1 0.16500 119244.000000
10740 15751 1 0.16500 119244.000000
10741 15398 1 0.16500 119244.000000
10741 15686 1 0.16500 119244.000000
10742 16592 1 0.16500 119244.000000
10742 20629 1 0.16500 119244.000000
10743 16634 1 0.16500 119244.000000
10743 20629 1 0.16500 119244.000000
10744 16045 1 0.16500 119244.000000
10744 20632 1 0.16500 119244.000000
10745 15688 1 0.16500 119244.000000
10745 16236 1 0.16500 119244.000000
10746 15688 1 0.16500 119244.000000
10746 16226 1 0.16500 119244.000000
10747 20635 1 0.16500 119244.000000
10747 20815 1 0.16500 119244.000000
10748 15689 1 0.16500 119244.000000
10748 16668 1 0.16500 119244.000000
10749 15690 1 0.16500 119244.000000
10749 15885 1 0.16500 119244.000000
10750 15691 1 0.16500 119244.000000
10750 15712 1 0.16500 119244.000000
10751 15694 1 0.16500 119244.000000
10751 16185 1 0.16500 119244.000000
10752 15697 1 0.16500 119244.000000
10752 15746 1 0.16500 119244.000000
10753 15698 1 0.16500 119244.000000
10753 15877 1 0.16500 119244.000000
10754 15698 1 0.16500 119244.000000
10754 16401 1 0.16500 119244.000000
10755 14512 1 0.16500 119244.000000
10755 15705 1 0.16500 119244.000000
10756 16158 1 0.16500 119244.000000
10756 20638 1 0.16500 119244.000000
10757 16626 1 0.16500 119244.000000
10757 20638 1 0.16500 119244.000000
10758 16136 1 0.16500 119244.000000
10758 20641 1 0.16500 119244.000000
10759 15708 1 0.16500 119244.000000
10759 15958 1 0.16500 119244.000000
10760 15711 1 0.16500 119244.000000
10760 16249 1 0.16500 119244.000000
10761 15712 1 0.16500 119244.000000
10761 16222 1 0.16500 119244.000000
10762 15713 1 0.16500 119244.000000
10762 16374 1 0.16500 119244.000000
10763 15715 1 0.16500 119244.000000
10763 16056 1 0.16500 119244.000000
10764 15719 1 0.16500 119244.000000
10764 20794 1 0.16500 119244.000000
10765 15719 1 0.16500 119244.000000
10765 15734 1 0.16500 119244.000000
10766 15719 1 0.16500 119244.000000
10766 20818 1 0.16500 119244.000000
10767 15720 1 0.16500 119244.000000
10767 15722 1 0.16500 119244.000000
10768 15721 1 0.16500 119244.000000
10768 15880 1 0.16500 119244.000000
10769 15722 1 0.16500 119244.000000
10769 16059 1 0.16500 119244.000000
10770 15724 1 0.16500 119244.000000
10770 16180 1 0.16500 119244.000000
10771 15725 1 0.16500 119244.000000
10771 15879 1 0.16500 119244.000000
10772 15726 1 0.16500 119244.000000
10772 15908 1 0.16500 119244.000000
10773 15727 1 0.16500 119244.000000
10773 15841 1 0.16500 119244.000000
10774 15728 1 0.16500 119244.000000
10774 15883 1 0.16500 119244.000000
10775 15729 1 0.16500 119244.000000
10775 16082 1 0.16500 119244.000000
10776 15730 1 0.16500 119244.000000
10776 16488 1 0.16500 119244.000000
10777 15730 1 0.16500 119244.000000
10777 16221 1 0.16500 119244.000000
10778 15732 1 0.16500 119244.000000
10778 16240 1 0.16500 119244.000000
10779 15733 1 0.16500 119244.000000
10779 15925 1 0.16500 119244.000000
10780 15733 1 0.16500 119244.000000
10780 16072 1 0.16500 119244.000000
10781 15737 1 0.16500 119244.000000
10781 16608 1 0.16500 119244.000000
10782 15740 1 0.16500 119244.000000
10782 15749 1 0.16500 119244.000000
10783 15740 1 0.16500 119244.000000
10783 15756 1 0.16500 119244.000000
10784 15743 1 0.16500 119244.000000
10784 20978 1 0.16500 119244.000000
10785 15746 1 0.16500 119244.000000
10785 15825 1 0.16500 119244.000000
10786 15746 1 0.16500 119244.000000
10786 21018 1 0.16500 119244.000000
10787 15749 1 0.16500 119244.000000
10787 15830 1 0.16500 119244.000000
10788 15754 1 0.16500 119244.000000
10788 16467 1 0.16500 119244.000000
10789 15756 1 0.16500 119244.000000
10789 16571 1 0.16500 119244.000000
10790 15757 1 0.16500 119244.000000
10790 20800 1 0.16500 119244.000000
10791 15758 1 0.16500 119244.000000
10791 16386 1 0.16500 119244.000000
10792 15759 1 0.16500 119244.000000
10792 16564 1 0.16500 119244.000000
10793 14011 1 0.16500 119244.000000
10793 15759 1 0.16500 119244.000000
10794 15760 1 0.16500 119244.000000
10794 16235 1 0.16500 119244.000000
10795 16373 1 0.16500 119244.000000
10795 17764 1 0.16500 119244.000000
10796 15761 1 0.16500 119244.000000
10796 16529 1 0.16500 119244.000000
10797 15762 1 0.16500 119244.000000
10797 15945 1 0.16500 119244.000000
10798 15762 1 0.16500 119244.000000
10798 16291 1 0.16500 119244.000000
10799 15764 1 0.16500 119244.000000
10799 16239 1 0.16500 119244.000000
10800 15767 1 0.16500 119244.000000
10800 16691 1 0.16500 119244.000000
10801 15767 1 0.16500 119244.000000
10801 15984 1 0.16500 119244.000000
10802 15769 1 0.16500 119244.000000
10802 20668 1 0.16500 119244.000000
10803 15773 1 0.16500 119244.000000
10803 16272 1 0.16500 119244.000000
10804 16655 1 0.16500 119244.000000
10804 20653 1 0.16500 119244.000000
10805 15774 1 0.16500 119244.000000
10805 16615 1 0.16500 119244.000000
10806 15776 1 0.16500 119244.000000
10806 16044 1 0.16500 119244.000000
10807 15779 1 0.16500 119244.000000
10807 16313 1 0.16500 119244.000000
10808 15780 1 0.16500 119244.000000
10808 20993 1 0.16500 119244.000000
10809 15781 1 0.16500 119244.000000
10809 16527 1 0.16500 119244.000000
10810 15781 1 0.16500 119244.000000
10810 16214 1 0.16500 119244.000000
10811 15784 1 0.16500 119244.000000
10811 16014 1 0.16500 119244.000000
10812 15786 1 0.16500 119244.000000
10812 16556 1 0.16500 119244.000000
10813 15790 1 0.16500 119244.000000
10813 15812 1 0.16500 119244.000000
10814 15955 1 0.16500 119244.000000
10814 20659 1 0.16500 119244.000000
10815 15795 1 0.16500 119244.000000
10815 17876 1 0.16500 119244.000000
10816 15796 1 0.16500 119244.000000
10816 16098 1 0.16500 119244.000000
10817 15798 1 0.16500 119244.000000
10817 16621 1 0.16500 119244.000000
10818 15798 1 0.16500 119244.000000
10818 16374 1 0.16500 119244.000000
10819 14783 1 0.16500 119244.000000
10819 15800 1 0.16500 119244.000000
10820 15802 1 0.16500 119244.000000
10820 16110 1 0.16500 119244.000000
10821 20662 1 0.16500 119244.000000
10821 20963 1 0.16500 119244.000000
10822 15361 1 0.16500 119244.000000
10822 20662 1 0.16500 119244.000000
10823 15806 1 0.16500 119244.000000
10823 16357 1 0.16500 119244.000000
10824 15806 1 0.16500 119244.000000
10824 16045 1 0.16500 119244.000000
10825 15807 1 0.16500 119244.000000
10825 16030 1 0.16500 119244.000000
10826 15808 1 0.16500 119244.000000
10826 16229 1 0.16500 119244.000000
10827 15812 1 0.16500 119244.000000
10827 16560 1 0.16500 119244.000000
10828 15887 1 0.16500 119244.000000
10828 20668 1 0.16500 119244.000000
10829 15818 1 0.16500 119244.000000
10829 18002 1 0.16500 119244.000000
10830 15821 1 0.16500 119244.000000
10830 16640 1 0.16500 119244.000000
10831 15824 1 0.16500 119244.000000
10831 16186 1 0.16500 119244.000000
10832 15825 1 0.16500 119244.000000
10832 15939 1 0.16500 119244.000000
10833 15827 1 0.16500 119244.000000
10833 16440 1 0.16500 119244.000000
10834 15829 1 0.16500 119244.000000
10834 15979 1 0.16500 119244.000000
10835 11886 1 0.16500 119244.000000
10835 15829 1 0.16500 119244.000000
10836 15831 1 0.16500 119244.000000
10836 20542 1 0.16500 119244.000000
10837 15831 1 0.16500 119244.000000
10837 16629 1 0.16500 119244.000000
10838 15832 1 0.16500 119244.000000
10838 16094 1 0.16500 119244.000000
10839 13638 1 0.16500 119244.000000
10839 15847 1 0.16500 119244.000000
10840 15834 1 0.16500 119244.000000
10840 16312 1 0.16500 119244.000000
10841 15834 1 0.16500 119244.000000
10841 20764 1 0.16500 119244.000000
10842 15835 1 0.16500 119244.000000
10842 16036 1 0.16500 119244.000000
10843 13080 1 0.16500 119244.000000
10843 15835 1 0.16500 119244.000000
10844 15838 1 0.16500 119244.000000
10844 16450 1 0.16500 119244.000000
10845 15839 1 0.16500 119244.000000
10845 16399 1 0.16500 119244.000000
10846 15839 1 0.16500 119244.000000
10846 16331 1 0.16500 119244.000000
10847 15840 1 0.16500 119244.000000
10847 16545 1 0.16500 119244.000000
10848 15842 1 0.16500 119244.000000
10848 16552 1 0.16500 119244.000000
10849 15845 1 0.16500 119244.000000
10849 16610 1 0.16500 119244.000000
10850 15851 1 0.16500 119244.000000
10850 16523 1 0.16500 119244.000000
10851 15851 1 0.16500 119244.000000
10851 16353 1 0.16500 119244.000000
10852 15855 1 0.16500 119244.000000
10852 20913 1 0.16500 119244.000000
10853 15856 1 0.16500 119244.000000
10853 16637 1 0.16500 119244.000000
10854 15857 1 0.16500 119244.000000
10854 15920 1 0.16500 119244.000000
10855 15858 1 0.16500 119244.000000
10855 15924 1 0.16500 119244.000000
10856 15860 1 0.16500 119244.000000
10856 16187 1 0.16500 119244.000000
10857 15860 1 0.16500 119244.000000
10857 16019 1 0.16500 119244.000000
10858 16302 1 0.16500 119244.000000
10858 20683 1 0.16500 119244.000000
10859 15861 1 0.16500 119244.000000
10859 15864 1 0.16500 119244.000000
10860 15862 1 0.16500 119244.000000
10860 16020 1 0.16500 119244.000000
10861 15862 1 0.16500 119244.000000
10861 16299 1 0.16500 119244.000000
10862 14242 1 0.16500 119244.000000
10862 15865 1 0.16500 119244.000000
10863 15868 1 0.16500 119244.000000
10863 15991 1 0.16500 119244.000000
10864 13689 1 0.16500 119244.000000
10864 20692 1 0.16500 119244.000000
10865 15872 1 0.16500 119244.000000
10865 15918 1 0.16500 119244.000000
10866 20689 1 0.16500 119244.000000
10866 20755 1 0.16500 119244.000000
10867 15932 1 0.16500 119244.000000
10867 20692 1 0.16500 119244.000000
10868 15916 1 0.16500 119244.000000
10868 17862 1 0.16500 119244.000000
10869 16664 1 0.16500 119244.000000
10869 17862 1 0.16500 119244.000000
10870 15875 1 0.16500 119244.000000
10870 15917 1 0.16500 119244.000000
10871 15881 1 0.16500 119244.000000
10871 16172 1 0.16500 119244.000000
10872 13792 1 0.16500 119244.000000
10872 16486 1 0.16500 119244.000000
10873 15882 1 0.16500 119244.000000
10873 16634 1 0.16500 119244.000000
10874 15882 1 0.16500 119244.000000
10874 16071 1 0.16500 119244.000000
10875 15883 1 0.16500 119244.000000
10875 15998 1 0.16500 119244.000000
10876 15884 1 0.16500 119244.000000
10876 15951 1 0.16500 119244.000000
10877 15690 1 0.16500 119244.000000
10877 16384 1 0.16500 119244.000000
10878 15889 1 0.16500 119244.000000
10878 15995 1 0.16500 119244.000000
10879 15889 1 0.16500 119244.000000
10879 16198 1 0.16500 119244.000000
10880 15890 1 0.16500 119244.000000
10880 16617 1 0.16500 119244.000000
10881 15891 1 0.16500 119244.000000
10881 16666 1 0.16500 119244.000000
10882 15894 1 0.16500 119244.000000
10882 15901 1 0.16500 119244.000000
10883 15895 1 0.16500 119244.000000
10883 16193 1 0.16500 119244.000000
10884 14251 1 0.16500 119244.000000
10884 15937 1 0.16500 119244.000000
10885 15895 1 0.16500 119244.000000
10885 16217 1 0.16500 119244.000000
10886 15896 1 0.16500 119244.000000
10886 16665 1 0.16500 119244.000000
10887 16548 1 0.16500 119244.000000
10887 20365 1 0.16500 119244.000000
10888 15902 1 0.16500 119244.000000
10888 16598 1 0.16500 119244.000000
10889 15903 1 0.16500 119244.000000
10889 15935 1 0.16500 119244.000000
10890 15904 1 0.16500 119244.000000
10890 16195 1 0.16500 119244.000000
10891 15906 1 0.16500 119244.000000
10891 16466 1 0.16500 119244.000000
10892 15907 1 0.16500 119244.000000
10892 16445 1 0.16500 119244.000000
10893 15907 1 0.16500 119244.000000
10893 16183 1 0.16500 119244.000000
10894 15907 1 0.16500 119244.000000
10894 16619 1 0.16500 119244.000000
10895 15908 1 0.16500 119244.000000
10895 16299 1 0.16500 119244.000000
10896 15911 1 0.16500 119244.000000
10896 16670 1 0.16500 119244.000000
10897 15915 1 0.16500 119244.000000
10897 16542 1 0.16500 119244.000000
10898 15917 1 0.16500 119244.000000
10898 16361 1 0.16500 119244.000000
10899 15917 1 0.16500 119244.000000
10899 16562 1 0.16500 119244.000000
10900 15918 1 0.16500 119244.000000
10900 16022 1 0.16500 119244.000000
10901 15857 1 0.16500 119244.000000
10901 16383 1 0.16500 119244.000000
10902 18130 1 0.16500 119244.000000
10902 20779 1 0.16500 119244.000000
10903 15924 1 0.16500 119244.000000
10903 15950 1 0.16500 119244.000000
10904 15926 1 0.16500 119244.000000
10904 16311 1 0.16500 119244.000000
10905 15926 1 0.16500 119244.000000
10905 16144 1 0.16500 119244.000000
10906 15927 1 0.16500 119244.000000
10906 20776 1 0.16500 119244.000000
10907 15928 1 0.16500 119244.000000
10907 16519 1 0.16500 119244.000000
10908 15929 1 0.16500 119244.000000
10908 15967 1 0.16500 119244.000000
10909 15931 1 0.16500 119244.000000
10909 16555 1 0.16500 119244.000000
10910 15931 1 0.16500 119244.000000
10910 16447 1 0.16500 119244.000000
10911 20710 1 0.16500 119244.000000
10911 20722 1 0.16500 119244.000000
10912 15932 1 0.16500 119244.000000
10912 16648 1 0.16500 119244.000000
10913 12266 1 0.16500 119244.000000
10913 16330 1 0.16500 119244.000000
10914 15935 1 0.16500 119244.000000
10914 16482 1 0.16500 119244.000000
10915 15938 1 0.16500 119244.000000
10915 16165 1 0.16500 119244.000000
10916 15939 1 0.16500 119244.000000
10916 20773 1 0.16500 119244.000000
10917 12041 1 0.16500 119244.000000
10917 15940 1 0.16500 119244.000000
10918 15943 1 0.16500 119244.000000
10918 16316 1 0.16500 119244.000000
10919 15949 1 0.16500 119244.000000
10919 16060 1 0.16500 119244.000000
10920 14532 1 0.16500 119244.000000
10920 16330 1 0.16500 119244.000000
10921 15953 1 0.16500 119244.000000
10921 16538 1 0.16500 119244.000000
10922 15953 1 0.16500 119244.000000
10922 16402 1 0.16500 119244.000000
10923 20716 1 0.16500 119244.000000
10923 20893 1 0.16500 119244.000000
10924 15959 1 0.16500 119244.000000
10924 16222 1 0.16500 119244.000000
10925 15963 1 0.16500 119244.000000
10925 16137 1 0.16500 119244.000000
10926 15966 1 0.16500 119244.000000
10926 16127 1 0.16500 119244.000000
10927 15967 1 0.16500 119244.000000
10927 16149 1 0.16500 119244.000000
10928 15968 1 0.16500 119244.000000
10928 16127 1 0.16500 119244.000000
10929 15968 1 0.16500 119244.000000
10929 16506 1 0.16500 119244.000000
10930 15969 1 0.16500 119244.000000
10930 16153 1 0.16500 119244.000000
10931 15976 1 0.16500 119244.000000
10931 16590 1 0.16500 119244.000000
10932 15980 1 0.16500 119244.000000
10932 16456 1 0.16500 119244.000000
10933 15983 1 0.16500 119244.000000
10933 16288 1 0.16500 119244.000000
10934 15986 1 0.16500 119244.000000
10934 16679 1 0.16500 119244.000000
10935 15991 1 0.16500 119244.000000
10935 16317 1 0.16500 119244.000000
10936 16000 1 0.16500 119244.000000
10936 16160 1 0.16500 119244.000000
10937 16002 1 0.16500 119244.000000
10937 16347 1 0.16500 119244.000000
10938 16003 1 0.16500 119244.000000
10938 16553 1 0.16500 119244.000000
10939 16006 1 0.16500 119244.000000
10939 16669 1 0.16500 119244.000000
10940 17988 1 0.16500 119244.000000
10940 20749 1 0.16500 119244.000000
10941 16007 1 0.16500 119244.000000
10941 16354 1 0.16500 119244.000000
10942 16449 1 0.16500 119244.000000
10942 20728 1 0.16500 119244.000000
10943 16012 1 0.16500 119244.000000
10943 16290 1 0.16500 119244.000000
10944 14073 1 0.16500 119244.000000
10944 16012 1 0.16500 119244.000000
10945 16014 1 0.16500 119244.000000
10945 16581 1 0.16500 119244.000000
10946 16015 1 0.16500 119244.000000
10946 16213 1 0.16500 119244.000000
10947 16016 1 0.16500 119244.000000
10947 16681 1 0.16500 119244.000000
10948 16017 1 0.16500 119244.000000
10948 16290 1 0.16500 119244.000000
10949 18016 1 0.16500 119244.000000
10949 20734 1 0.16500 119244.000000
10950 16139 1 0.16500 119244.000000
10950 20734 1 0.16500 119244.000000
10951 16020 1 0.16500 119244.000000
10951 16085 1 0.16500 119244.000000
10952 16020 1 0.16500 119244.000000
10952 16155 1 0.16500 119244.000000
10953 16021 1 0.16500 119244.000000
10953 16605 1 0.16500 119244.000000
10954 16024 1 0.16500 119244.000000
10954 16432 1 0.16500 119244.000000
10955 16025 1 0.16500 119244.000000
10955 16134 1 0.16500 119244.000000
10956 16027 1 0.16500 119244.000000
10956 16073 1 0.16500 119244.000000
10957 18002 1 0.16500 119244.000000
10957 21008 1 0.16500 119244.000000
10958 16035 1 0.16500 119244.000000
10958 16212 1 0.16500 119244.000000
10959 16037 1 0.16500 119244.000000
10959 16616 1 0.16500 119244.000000
10960 16037 1 0.16500 119244.000000
10960 16506 1 0.16500 119244.000000
10961 16037 1 0.16500 119244.000000
10961 16670 1 0.16500 119244.000000
10962 16038 1 0.16500 119244.000000
10962 16128 1 0.16500 119244.000000
10963 16040 1 0.16500 119244.000000
10963 16222 1 0.16500 119244.000000
10964 16062 1 0.16500 119244.000000
10964 20746 1 0.16500 119244.000000
10965 16509 1 0.16500 119244.000000
10965 20746 1 0.16500 119244.000000
10966 16041 1 0.16500 119244.000000
10966 16165 1 0.16500 119244.000000
10967 16043 1 0.16500 119244.000000
10967 16403 1 0.16500 119244.000000
10968 16044 1 0.16500 119244.000000
10968 16297 1 0.16500 119244.000000
10969 16045 1 0.16500 119244.000000
10969 16138 1 0.16500 119244.000000
10970 16046 1 0.16500 119244.000000
10970 16099 1 0.16500 119244.000000
10971 16047 1 0.16500 119244.000000
10971 16205 1 0.16500 119244.000000
10972 16048 1 0.16500 119244.000000
10972 16470 1 0.16500 119244.000000
10973 16051 1 0.16500 119244.000000
10973 16512 1 0.16500 119244.000000
10974 11956 1 0.16500 119244.000000
10974 16416 1 0.16500 119244.000000
10975 16054 1 0.16500 119244.000000
10975 16299 1 0.16500 119244.000000
10976 16057 1 0.16500 119244.000000
10976 16280 1 0.16500 119244.000000
10977 16060 1 0.16500 119244.000000
10977 16112 1 0.16500 119244.000000
10978 16060 1 0.16500 119244.000000
10978 16529 1 0.16500 119244.000000
10979 16061 1 0.16500 119244.000000
10979 16374 1 0.16500 119244.000000
10980 16150 1 0.16500 119244.000000
10980 16409 1 0.16500 119244.000000
10981 16062 1 0.16500 119244.000000
10981 16409 1 0.16500 119244.000000
10982 16063 1 0.16500 119244.000000
10982 16080 1 0.16500 119244.000000
10983 16067 1 0.16500 119244.000000
10983 16385 1 0.16500 119244.000000
10984 16067 1 0.16500 119244.000000
10984 16504 1 0.16500 119244.000000
10985 16067 1 0.16500 119244.000000
10985 16590 1 0.16500 119244.000000
10986 16068 1 0.16500 119244.000000
10986 16462 1 0.16500 119244.000000
10987 16072 1 0.16500 119244.000000
10987 16315 1 0.16500 119244.000000
10988 16634 1 0.16500 119244.000000
10988 20752 1 0.16500 119244.000000
10989 16073 1 0.16500 119244.000000
10989 16553 1 0.16500 119244.000000
10990 16078 1 0.16500 119244.000000
10990 16394 1 0.16500 119244.000000
10991 16081 1 0.16500 119244.000000
10991 16593 1 0.16500 119244.000000
10992 16092 1 0.16500 119244.000000
10992 16433 1 0.16500 119244.000000
10993 16095 1 0.16500 119244.000000
10993 16584 1 0.16500 119244.000000
10994 16097 1 0.16500 119244.000000
10994 16311 1 0.16500 119244.000000
10995 20758 1 0.16500 119244.000000
10995 20767 1 0.16500 119244.000000
10996 16107 1 0.16500 119244.000000
10996 16693 1 0.16500 119244.000000
10997 16108 1 0.16500 119244.000000
10997 16403 1 0.16500 119244.000000
10998 11843 1 0.16500 119244.000000
10998 16114 1 0.16500 119244.000000
10999 16116 1 0.16500 119244.000000
10999 16189 1 0.16500 119244.000000
11000 16116 1 0.16500 119244.000000
11000 16308 1 0.16500 119244.000000
11001 16117 1 0.16500 119244.000000
11001 16454 1 0.16500 119244.000000
11002 16117 1 0.16500 119244.000000
11002 16384 1 0.16500 119244.000000
11003 16119 1 0.16500 119244.000000
11003 16227 1 0.16500 119244.000000
11004 16119 1 0.16500 119244.000000
11004 16197 1 0.16500 119244.000000
11005 16126 1 0.16500 119244.000000
11005 16487 1 0.16500 119244.000000
11006 14331 1 0.16500 119244.000000
11006 16262 1 0.16500 119244.000000
11007 16132 1 0.16500 119244.000000
11007 16572 1 0.16500 119244.000000
11008 16132 1 0.16500 119244.000000
11008 16253 1 0.16500 119244.000000
11009 16135 1 0.16500 119244.000000
11009 16307 1 0.16500 119244.000000
11010 16142 1 0.16500 119244.000000
11010 16505 1 0.16500 119244.000000
11011 16145 1 0.16500 119244.000000
11011 16394 1 0.16500 119244.000000
11012 16148 1 0.16500 119244.000000
11012 16184 1 0.16500 119244.000000
11013 16149 1 0.16500 119244.000000
11013 16498 1 0.16500 119244.000000
11014 16150 1 0.16500 119244.000000
11014 20803 1 0.16500 119244.000000
11015 16151 1 0.16500 119244.000000
11015 16674 1 0.16500 119244.000000
11016 16152 1 0.16500 119244.000000
11016 16637 1 0.16500 119244.000000
11017 15969 1 0.16500 119244.000000
11017 16543 1 0.16500 119244.000000
11018 16154 1 0.16500 119244.000000
11018 16526 1 0.16500 119244.000000
11019 16154 1 0.16500 119244.000000
11019 16663 1 0.16500 119244.000000
11020 16162 1 0.16500 119244.000000
11020 16250 1 0.16500 119244.000000
11021 16250 1 0.16500 119244.000000
11021 16437 1 0.16500 119244.000000
11022 15170 1 0.16500 119244.000000
11022 16163 1 0.16500 119244.000000
11023 16164 1 0.16500 119244.000000
11023 16249 1 0.16500 119244.000000
11024 16170 1 0.16500 119244.000000
11024 16627 1 0.16500 119244.000000
11025 16170 1 0.16500 119244.000000
11025 16338 1 0.16500 119244.000000
11026 16171 1 0.16500 119244.000000
11026 16462 1 0.16500 119244.000000
11027 16175 1 0.16500 119244.000000
11027 16450 1 0.16500 119244.000000
11028 16177 1 0.16500 119244.000000
11028 16304 1 0.16500 119244.000000
11029 16178 1 0.16500 119244.000000
11029 20842 1 0.16500 119244.000000
11030 16178 1 0.16500 119244.000000
11030 16458 1 0.16500 119244.000000
11031 16179 1 0.16500 119244.000000
11031 16545 1 0.16500 119244.000000
11032 20770 1 0.16500 119244.000000
11032 20973 1 0.16500 119244.000000
11033 16184 1 0.16500 119244.000000
11033 16677 1 0.16500 119244.000000
11034 16192 1 0.16500 119244.000000
11034 16397 1 0.16500 119244.000000
11035 16198 1 0.16500 119244.000000
11035 16316 1 0.16500 119244.000000
11036 16200 1 0.16500 119244.000000
11036 16683 1 0.16500 119244.000000
11037 16202 1 0.16500 119244.000000
11037 16261 1 0.16500 119244.000000
11038 16204 1 0.16500 119244.000000
11038 16260 1 0.16500 119244.000000
11039 16212 1 0.16500 119244.000000
11039 16626 1 0.16500 119244.000000
11040 13243 1 0.16500 119244.000000
11040 16219 1 0.16500 119244.000000
11041 16223 1 0.16500 119244.000000
11041 16410 1 0.16500 119244.000000
11042 16223 1 0.16500 119244.000000
11042 16443 1 0.16500 119244.000000
11043 16228 1 0.16500 119244.000000
11043 16632 1 0.16500 119244.000000
11044 20848 1 0.16500 119244.000000
11044 20903 1 0.16500 119244.000000
11045 16231 1 0.16500 119244.000000
11045 16338 1 0.16500 119244.000000
11046 16234 1 0.16500 119244.000000
11046 16442 1 0.16500 119244.000000
11047 16234 1 0.16500 119244.000000
11047 16623 1 0.16500 119244.000000
11048 16236 1 0.16500 119244.000000
11048 16559 1 0.16500 119244.000000
11049 16237 1 0.16500 119244.000000
11049 20836 1 0.16500 119244.000000
11050 16239 1 0.16500 119244.000000
11050 16289 1 0.16500 119244.000000
11051 16245 1 0.16500 119244.000000
11051 16357 1 0.16500 119244.000000
11052 16251 1 0.16500 119244.000000
11052 16307 1 0.16500 119244.000000
11053 16252 1 0.16500 119244.000000
11053 16513 1 0.16500 119244.000000
11054 14768 1 0.16500 119244.000000
11054 16516 1 0.16500 119244.000000
11055 14768 1 0.16500 119244.000000
11055 16499 1 0.16500 119244.000000
11056 16256 1 0.16500 119244.000000
11056 16608 1 0.16500 119244.000000
11057 16264 1 0.16500 119244.000000
11057 16377 1 0.16500 119244.000000
11058 16266 1 0.16500 119244.000000
11058 16618 1 0.16500 119244.000000
11059 16268 1 0.16500 119244.000000
11059 16657 1 0.16500 119244.000000
11060 16269 1 0.16500 119244.000000
11060 16461 1 0.16500 119244.000000
11061 16269 1 0.16500 119244.000000
11061 16362 1 0.16500 119244.000000
11062 12241 1 0.16500 119244.000000
11062 20918 1 0.16500 119244.000000
11063 16271 1 0.16500 119244.000000
11063 16467 1 0.16500 119244.000000
11064 16276 1 0.16500 119244.000000
11064 16602 1 0.16500 119244.000000
11065 16278 1 0.16500 119244.000000
11065 16524 1 0.16500 119244.000000
11066 16280 1 0.16500 119244.000000
11066 16553 1 0.16500 119244.000000
11067 12842 1 0.16500 119244.000000
11067 16455 1 0.16500 119244.000000
11068 16283 1 0.16500 119244.000000
11068 16652 1 0.16500 119244.000000
11069 16285 1 0.16500 119244.000000
11069 16472 1 0.16500 119244.000000
11070 16286 1 0.16500 119244.000000
11070 16483 1 0.16500 119244.000000
11071 16287 1 0.16500 119244.000000
11071 16319 1 0.16500 119244.000000
11072 16145 1 0.16500 119244.000000
11072 16288 1 0.16500 119244.000000
11073 16288 1 0.16500 119244.000000
11073 16430 1 0.16500 119244.000000
11074 16293 1 0.16500 119244.000000
11074 16422 1 0.16500 119244.000000
11075 16302 1 0.16500 119244.000000
11075 20782 1 0.16500 119244.000000
11076 16300 1 0.16500 119244.000000
11076 16500 1 0.16500 119244.000000
11077 16309 1 0.16500 119244.000000
11077 16324 1 0.16500 119244.000000
11078 12149 1 0.16500 119244.000000
11078 20788 1 0.16500 119244.000000
11079 16319 1 0.16500 119244.000000
11079 16568 1 0.16500 119244.000000
11080 16319 1 0.16500 119244.000000
11080 16327 1 0.16500 119244.000000
11081 16322 1 0.16500 119244.000000
11081 20818 1 0.16500 119244.000000
11082 16326 1 0.16500 119244.000000
11082 16527 1 0.16500 119244.000000
11083 16332 1 0.16500 119244.000000
11083 16433 1 0.16500 119244.000000
11084 16340 1 0.16500 119244.000000
11084 16569 1 0.16500 119244.000000
11085 16342 1 0.16500 119244.000000
11085 16587 1 0.16500 119244.000000
11086 16346 1 0.16500 119244.000000
11086 16388 1 0.16500 119244.000000
11087 16348 1 0.16500 119244.000000
11087 16510 1 0.16500 119244.000000
11088 16353 1 0.16500 119244.000000
11088 16662 1 0.16500 119244.000000
11089 16355 1 0.16500 119244.000000
11089 16588 1 0.16500 119244.000000
11090 12861 1 0.16500 119244.000000
11090 16355 1 0.16500 119244.000000
11091 16356 1 0.16500 119244.000000
11091 16600 1 0.16500 119244.000000
11092 16456 1 0.16500 119244.000000
11092 20933 1 0.16500 119244.000000
11093 16364 1 0.16500 119244.000000
11093 16473 1 0.16500 119244.000000
11094 16379 1 0.16500 119244.000000
11094 16612 1 0.16500 119244.000000
11095 16387 1 0.16500 119244.000000
11095 16548 1 0.16500 119244.000000
11096 16392 1 0.16500 119244.000000
11096 16563 1 0.16500 119244.000000
11097 16548 1 0.16500 119244.000000
11097 20953 1 0.16500 119244.000000
11098 16405 1 0.16500 119244.000000
11098 16437 1 0.16500 119244.000000
11099 16417 1 0.16500 119244.000000
11099 16677 1 0.16500 119244.000000
11100 16418 1 0.16500 119244.000000
11100 16552 1 0.16500 119244.000000
11101 16420 1 0.16500 119244.000000
11101 16599 1 0.16500 119244.000000
11102 16420 1 0.16500 119244.000000
11102 16480 1 0.16500 119244.000000
11103 16421 1 0.16500 119244.000000
11103 16451 1 0.16500 119244.000000
11104 16422 1 0.16500 119244.000000
11104 16439 1 0.16500 119244.000000
11105 16424 1 0.16500 119244.000000
11105 16664 1 0.16500 119244.000000
11106 16425 1 0.16500 119244.000000
11106 16460 1 0.16500 119244.000000
11107 16427 1 0.16500 119244.000000
11107 16435 1 0.16500 119244.000000
11108 16434 1 0.16500 119244.000000
11108 16623 1 0.16500 119244.000000
11109 16441 1 0.16500 119244.000000
11109 16495 1 0.16500 119244.000000
11110 16443 1 0.16500 119244.000000
11110 16475 1 0.16500 119244.000000
11111 16450 1 0.16500 119244.000000
11111 16631 1 0.16500 119244.000000
11112 16455 1 0.16500 119244.000000
11112 16654 1 0.16500 119244.000000
11113 16456 1 0.16500 119244.000000
11113 16551 1 0.16500 119244.000000
11114 16457 1 0.16500 119244.000000
11114 16547 1 0.16500 119244.000000
11115 16465 1 0.16500 119244.000000
11115 16516 1 0.16500 119244.000000
11116 16636 1 0.16500 119244.000000
11116 20836 1 0.16500 119244.000000
11117 16469 1 0.16500 119244.000000
11117 16641 1 0.16500 119244.000000
11118 16474 1 0.16500 119244.000000
11118 16659 1 0.16500 119244.000000
11119 16479 1 0.16500 119244.000000
11119 16692 1 0.16500 119244.000000
11120 16480 1 0.16500 119244.000000
11120 16586 1 0.16500 119244.000000
11121 16483 1 0.16500 119244.000000
11121 16611 1 0.16500 119244.000000
11122 16499 1 0.16500 119244.000000
11122 16582 1 0.16500 119244.000000
11123 16502 1 0.16500 119244.000000
11123 16565 1 0.16500 119244.000000
11124 16515 1 0.16500 119244.000000
11124 16599 1 0.16500 119244.000000
11125 16592 1 0.16500 119244.000000
11125 20854 1 0.16500 119244.000000
11126 16535 1 0.16500 119244.000000
11126 16579 1 0.16500 119244.000000
11127 16539 1 0.16500 119244.000000
11127 16557 1 0.16500 119244.000000
11128 16541 1 0.16500 119244.000000
11128 16635 1 0.16500 119244.000000
11129 16543 1 0.16500 119244.000000
11129 16576 1 0.16500 119244.000000
11130 16550 1 0.16500 119244.000000
11130 16569 1 0.16500 119244.000000
11131 16560 1 0.16500 119244.000000
11131 16671 1 0.16500 119244.000000
11132 16571 1 0.16500 119244.000000
11132 16671 1 0.16500 119244.000000
11133 16591 1 0.16500 119244.000000
11133 16650 1 0.16500 119244.000000
11134 16602 1 0.16500 119244.000000
11134 16679 1 0.16500 119244.000000
11135 16604 1 0.16500 119244.000000
11135 16663 1 0.16500 119244.000000
11136 16633 1 0.16500 119244.000000
11136 16689 1 0.16500 119244.000000
11137 16638 1 0.16500 119244.000000
11137 21023 1 0.16500 119244.000000
11138 11427 1 0.16500 119244.000000
11138 12163 1 0.16500 119244.000000
11139 11427 1 0.16500 119244.000000
11139 11441 1 0.16500 119244.000000
11140 16488 1 0.16500 119244.000000
11140 18058 1 0.16500 119244.000000
11141 11460 1 0.16500 119244.000000
11141 15519 1 0.16500 119244.000000
11142 11475 1 0.16500 119244.000000
11142 15757 1 0.16500 119244.000000
11143 11478 1 0.16500 119244.000000
11143 12351 1 0.16500 119244.000000
11144 11515 1 0.16500 119244.000000
11144 15042 1 0.16500 119244.000000
11145 11527 1 0.16500 119244.000000
11145 16649 1 0.16500 119244.000000
11146 11530 1 0.16500 119244.000000
11146 14238 1 0.16500 119244.000000
11147 11533 1 0.16500 119244.000000
11147 15424 1 0.16500 119244.000000
11148 11537 1 0.16500 119244.000000
11148 13267 1 0.16500 119244.000000
11149 11568 1 0.16500 119244.000000
11149 12955 1 0.16500 119244.000000
11150 11607 1 0.16500 119244.000000
11150 13970 1 0.16500 119244.000000
11151 11628 1 0.16500 119244.000000
11151 13596 1 0.16500 119244.000000
11152 11638 1 0.16500 119244.000000
11152 12547 1 0.16500 119244.000000
11153 16632 1 0.16500 119244.000000
11153 18082 1 0.16500 119244.000000
11154 11561 1 0.16500 119244.000000
11154 11730 1 0.16500 119244.000000
11155 11738 1 0.16500 119244.000000
11155 14888 1 0.16500 119244.000000
11156 11776 1 0.16500 119244.000000
11156 12782 1 0.16500 119244.000000
11157 11795 1 0.16500 119244.000000
11157 12221 1 0.16500 119244.000000
11158 11804 1 0.16500 119244.000000
11158 14883 1 0.16500 119244.000000
11159 11806 1 0.16500 119244.000000
11159 13198 1 0.16500 119244.000000
11160 11812 1 0.16500 119244.000000
11160 15101 1 0.16500 119244.000000
11161 11814 1 0.16500 119244.000000
11161 14703 1 0.16500 119244.000000
11162 11537 1 0.16500 119244.000000
11162 11831 1 0.16500 119244.000000
11163 11860 1 0.16500 119244.000000
11163 16081 1 0.16500 119244.000000
11164 14814 1 0.16500 119244.000000
11164 18118 1 0.16500 119244.000000
11165 11879 1 0.16500 119244.000000
11165 14361 1 0.16500 119244.000000
11166 11887 1 0.16500 119244.000000
11166 14389 1 0.16500 119244.000000
11167 11412 1 0.16500 119244.000000
11167 11906 1 0.16500 119244.000000
11168 11922 1 0.16500 119244.000000
11168 16158 1 0.16500 119244.000000
11169 11964 1 0.16500 119244.000000
11169 13201 1 0.16500 119244.000000
11170 11651 1 0.16500 119244.000000
11170 11979 1 0.16500 119244.000000
11171 11993 1 0.16500 119244.000000
11171 15166 1 0.16500 119244.000000
11172 11814 1 0.16500 119244.000000
11172 12005 1 0.16500 119244.000000
11173 12021 1 0.16500 119244.000000
11173 14996 1 0.16500 119244.000000
11174 12031 1 0.16500 119244.000000
11174 13000 1 0.16500 119244.000000
11175 12050 1 0.16500 119244.000000
11175 14044 1 0.16500 119244.000000
11176 13849 1 0.16500 119244.000000
11176 18154 1 0.16500 119244.000000
11177 12058 1 0.16500 119244.000000
11177 12783 1 0.16500 119244.000000
11178 12094 1 0.16500 119244.000000
11178 13485 1 0.16500 119244.000000
11179 12096 1 0.16500 119244.000000
11179 15348 1 0.16500 119244.000000
11180 12105 1 0.16500 119244.000000
11180 12231 1 0.16500 119244.000000
11181 12130 1 0.16500 119244.000000
11181 16052 1 0.16500 119244.000000
11182 11812 1 0.16500 119244.000000
11182 12142 1 0.16500 119244.000000
11183 12185 1 0.16500 119244.000000
11183 12250 1 0.16500 119244.000000
11184 12210 1 0.16500 119244.000000
11184 12894 1 0.16500 119244.000000
11185 12257 1 0.16500 119244.000000
11185 15928 1 0.16500 119244.000000
11186 12267 1 0.16500 119244.000000
11186 12786 1 0.16500 119244.000000
11187 11738 1 0.16500 119244.000000
11187 12269 1 0.16500 119244.000000
11188 12825 1 0.16500 119244.000000
11188 18214 1 0.16500 119244.000000
11189 15409 1 0.16500 119244.000000
11189 18226 1 0.16500 119244.000000
11190 11887 1 0.16500 119244.000000
11190 18238 1 0.16500 119244.000000
11191 15153 1 0.16500 119244.000000
11191 18262 1 0.16500 119244.000000
11192 12131 1 0.16500 119244.000000
11192 18274 1 0.16500 119244.000000
11193 14705 1 0.16500 119244.000000
11193 18322 1 0.16500 119244.000000
11194 14054 1 0.16500 119244.000000
11194 18346 1 0.16500 119244.000000
11195 15984 1 0.16500 119244.000000
11195 18382 1 0.16500 119244.000000
11196 12430 1 0.16500 119244.000000
11196 16578 1 0.16500 119244.000000
11197 14262 1 0.16500 119244.000000
11197 18454 1 0.16500 119244.000000
11198 11441 1 0.16500 119244.000000
11198 18526 1 0.16500 119244.000000
11199 14868 1 0.16500 119244.000000
11199 18586 1 0.16500 119244.000000
11200 14972 1 0.16500 119244.000000
11200 18598 1 0.16500 119244.000000
11201 12615 1 0.16500 119244.000000
11201 15867 1 0.16500 119244.000000
11202 12642 1 0.16500 119244.000000
11202 13413 1 0.16500 119244.000000
11203 12674 1 0.16500 119244.000000
11203 15046 1 0.16500 119244.000000
11204 16132 1 0.16500 119244.000000
11204 18646 1 0.16500 119244.000000
11205 13306 1 0.16500 119244.000000
11205 18658 1 0.16500 119244.000000
11206 12373 1 0.16500 119244.000000
11206 18670 1 0.16500 119244.000000
11207 11414 1 0.16500 119244.000000
11207 12703 1 0.16500 119244.000000
11208 12337 1 0.16500 119244.000000
11208 12705 1 0.16500 119244.000000
11209 14958 1 0.16500 119244.000000
11209 18778 1 0.16500 119244.000000
11210 13435 1 0.16500 119244.000000
11210 18790 1 0.16500 119244.000000
11211 12790 1 0.16500 119244.000000
11211 13626 1 0.16500 119244.000000
11212 12135 1 0.16500 119244.000000
11212 18826 1 0.16500 119244.000000
11213 12705 1 0.16500 119244.000000
11213 12800 1 0.16500 119244.000000
11214 14678 1 0.16500 119244.000000
11214 18850 1 0.16500 119244.000000
11215 12807 1 0.16500 119244.000000
11215 16057 1 0.16500 119244.000000
11216 15448 1 0.16500 119244.000000
11216 18862 1 0.16500 119244.000000
11217 16139 1 0.16500 119244.000000
11217 18874 1 0.16500 119244.000000
11218 15217 1 0.16500 119244.000000
11218 18886 1 0.16500 119244.000000
11219 16307 1 0.16500 119244.000000
11219 18922 1 0.16500 119244.000000
11220 13643 1 0.16500 119244.000000
11220 18934 1 0.16500 119244.000000
11221 12252 1 0.16500 119244.000000
11221 12845 1 0.16500 119244.000000
11222 11426 1 0.16500 119244.000000
11222 18982 1 0.16500 119244.000000
11223 13250 1 0.16500 119244.000000
11223 18994 1 0.16500 119244.000000
11224 16432 1 0.16500 119244.000000
11224 19066 1 0.16500 119244.000000
11225 14173 1 0.16500 119244.000000
11225 19078 1 0.16500 119244.000000
11226 12922 1 0.16500 119244.000000
11226 19090 1 0.16500 119244.000000
11227 15966 1 0.16500 119244.000000
11227 19138 1 0.16500 119244.000000
11228 15007 1 0.16500 119244.000000
11228 19150 1 0.16500 119244.000000
11229 15055 1 0.16500 119244.000000
11229 19162 1 0.16500 119244.000000
11230 16227 1 0.16500 119244.000000
11230 19174 1 0.16500 119244.000000
11231 15882 1 0.16500 119244.000000
11231 19198 1 0.16500 119244.000000
11232 16614 1 0.16500 119244.000000
11232 19210 1 0.16500 119244.000000
11233 11993 1 0.16500 119244.000000
11233 19234 1 0.16500 119244.000000
11234 11530 1 0.16500 119244.000000
11234 19246 1 0.16500 119244.000000
11235 11503 1 0.16500 119244.000000
11235 12985 1 0.16500 119244.000000
11236 11410 1 0.16500 119244.000000
11236 13017 1 0.16500 119244.000000
11237 15134 1 0.16500 119244.000000
11237 19378 1 0.16500 119244.000000
11238 13078 1 0.16500 119244.000000
11238 14278 1 0.16500 119244.000000
11239 12701 1 0.16500 119244.000000
11239 19486 1 0.16500 119244.000000
11240 16475 1 0.16500 119244.000000
11240 19534 1 0.16500 119244.000000
11241 15930 1 0.16500 119244.000000
11241 19642 1 0.16500 119244.000000
11242 14566 1 0.16500 119244.000000
11242 19654 1 0.16500 119244.000000
11243 11925 1 0.16500 119244.000000
11243 19666 1 0.16500 119244.000000
11244 13586 1 0.16500 119244.000000
11244 19762 1 0.16500 119244.000000
11245 16647 1 0.16500 119244.000000
11245 19810 1 0.16500 119244.000000
11246 12264 1 0.16500 119244.000000
11246 19822 1 0.16500 119244.000000
11247 13290 1 0.16500 119244.000000
11247 19846 1 0.16500 119244.000000
11248 13292 1 0.16500 119244.000000
11248 16416 1 0.16500 119244.000000
11249 12790 1 0.16500 119244.000000
11249 19894 1 0.16500 119244.000000
11250 12576 1 0.16500 119244.000000
11250 19918 1 0.16500 119244.000000
11251 11967 1 0.16500 119244.000000
11251 19945 1 0.16500 119244.000000
11252 11760 1 0.16500 119244.000000
11252 19954 1 0.16500 119244.000000
11253 13877 1 0.16500 119244.000000
11253 19960 1 0.16500 119244.000000
11254 14615 1 0.16500 119244.000000
11254 19969 1 0.16500 119244.000000
11255 11861 1 0.16500 119244.000000
11255 13415 1 0.16500 119244.000000
11256 14387 1 0.16500 119244.000000
11256 19972 1 0.16500 119244.000000
11257 15639 1 0.16500 119244.000000
11257 19981 1 0.16500 119244.000000
11258 14903 1 0.16500 119244.000000
11258 19984 1 0.16500 119244.000000
11259 11806 1 0.16500 119244.000000
11259 19996 1 0.16500 119244.000000
11260 12800 1 0.16500 119244.000000
11260 20002 1 0.16500 119244.000000
11261 12026 1 0.16500 119244.000000
11261 13550 1 0.16500 119244.000000
11262 11527 1 0.16500 119244.000000
11262 20011 1 0.16500 119244.000000
11263 13415 1 0.16500 119244.000000
11263 13587 1 0.16500 119244.000000
11264 13587 1 0.16500 119244.000000
11264 18430 1 0.16500 119244.000000
11265 12185 1 0.16500 119244.000000
11265 20020 1 0.16500 119244.000000
11266 12436 1 0.16500 119244.000000
11266 20032 1 0.16500 119244.000000
11267 14451 1 0.16500 119244.000000
11267 20038 1 0.16500 119244.000000
11268 11494 1 0.16500 119244.000000
11268 13683 1 0.16500 119244.000000
11269 13686 1 0.16500 119244.000000
11269 14902 1 0.16500 119244.000000
11270 13686 1 0.16500 119244.000000
11270 18442 1 0.16500 119244.000000
11271 14418 1 0.16500 119244.000000
11271 20044 1 0.16500 119244.000000
11272 12674 1 0.16500 119244.000000
11272 20047 1 0.16500 119244.000000
11273 14428 1 0.16500 119244.000000
11273 20062 1 0.16500 119244.000000
11274 15955 1 0.16500 119244.000000
11274 20065 1 0.16500 119244.000000
11275 12789 1 0.16500 119244.000000
11275 20068 1 0.16500 119244.000000
11276 14012 1 0.16500 119244.000000
11276 20071 1 0.16500 119244.000000
11277 14007 1 0.16500 119244.000000
11277 20080 1 0.16500 119244.000000
11278 11687 1 0.16500 119244.000000
11278 20083 1 0.16500 119244.000000
11279 14297 1 0.16500 119244.000000
11279 20086 1 0.16500 119244.000000
11280 12267 1 0.16500 119244.000000
11280 13800 1 0.16500 119244.000000
11281 13297 1 0.16500 119244.000000
11281 20092 1 0.16500 119244.000000
11282 15405 1 0.16500 119244.000000
11282 20113 1 0.16500 119244.000000
11283 13608 1 0.16500 119244.000000
11283 20119 1 0.16500 119244.000000
11284 12817 1 0.16500 119244.000000
11284 20128 1 0.16500 119244.000000
11285 12615 1 0.16500 119244.000000
11285 20134 1 0.16500 119244.000000
11286 14766 1 0.16500 119244.000000
11286 20137 1 0.16500 119244.000000
11287 15680 1 0.16500 119244.000000
11287 20140 1 0.16500 119244.000000
11288 15173 1 0.16500 119244.000000
11288 20146 1 0.16500 119244.000000
11289 14246 1 0.16500 119244.000000
11289 20164 1 0.16500 119244.000000
11290 12976 1 0.16500 119244.000000
11290 20167 1 0.16500 119244.000000
11291 12845 1 0.16500 119244.000000
11291 20176 1 0.16500 119244.000000
11292 12289 1 0.16500 119244.000000
11292 14059 1 0.16500 119244.000000
11293 15848 1 0.16500 119244.000000
11293 20179 1 0.16500 119244.000000
11294 16077 1 0.16500 119244.000000
11294 20185 1 0.16500 119244.000000
11295 12646 1 0.16500 119244.000000
11295 20188 1 0.16500 119244.000000
11296 12142 1 0.16500 119244.000000
11296 20200 1 0.16500 119244.000000
11297 15812 1 0.16500 119244.000000
11297 20206 1 0.16500 119244.000000
11298 15709 1 0.16500 119244.000000
11298 20215 1 0.16500 119244.000000
11299 16375 1 0.16500 119244.000000
11299 20224 1 0.16500 119244.000000
11300 14187 1 0.16500 119244.000000
11300 15060 1 0.16500 119244.000000
11301 11566 1 0.16500 119244.000000
11301 14189 1 0.16500 119244.000000
11302 12435 1 0.16500 119244.000000
11302 20227 1 0.16500 119244.000000
11303 11446 1 0.16500 119244.000000
11303 20233 1 0.16500 119244.000000
11304 11972 1 0.16500 119244.000000
11304 20236 1 0.16500 119244.000000
11305 14352 1 0.16500 119244.000000
11305 20248 1 0.16500 119244.000000
11306 11870 1 0.16500 119244.000000
11306 20251 1 0.16500 119244.000000
11307 14061 1 0.16500 119244.000000
11307 14330 1 0.16500 119244.000000
11308 13629 1 0.16500 119244.000000
11308 20260 1 0.16500 119244.000000
11309 14334 1 0.16500 119244.000000
11309 14809 1 0.16500 119244.000000
11310 14562 1 0.16500 119244.000000
11310 20263 1 0.16500 119244.000000
11311 12052 1 0.16500 119244.000000
11311 20266 1 0.16500 119244.000000
11312 12924 1 0.16500 119244.000000
11312 14350 1 0.16500 119244.000000
11313 14334 1 0.16500 119244.000000
11313 14356 1 0.16500 119244.000000
11314 14356 1 0.16500 119244.000000
11314 19987 1 0.16500 119244.000000
11315 14111 1 0.16500 119244.000000
11315 20278 1 0.16500 119244.000000
11316 12574 1 0.16500 119244.000000
11316 20284 1 0.16500 119244.000000
11317 15129 1 0.16500 119244.000000
11317 20290 1 0.16500 119244.000000
11318 14175 1 0.16500 119244.000000
11318 20299 1 0.16500 119244.000000
11319 13157 1 0.16500 119244.000000
11319 20302 1 0.16500 119244.000000
11320 11417 1 0.16500 119244.000000
11320 13254 1 0.16500 119244.000000
11321 11433 1 0.16500 119244.000000
11321 13425 1 0.16500 119244.000000
11322 11442 1 0.16500 119244.000000
11322 13508 1 0.16500 119244.000000
11323 11460 1 0.16500 119244.000000
11323 16135 1 0.16500 119244.000000
11324 11468 1 0.16500 119244.000000
11324 15370 1 0.16500 119244.000000
11325 11471 1 0.16500 119244.000000
11325 12688 1 0.16500 119244.000000
11326 11473 1 0.16500 119244.000000
11326 14315 1 0.16500 119244.000000
11327 11474 1 0.16500 119244.000000
11327 15787 1 0.16500 119244.000000
11328 11475 1 0.16500 119244.000000
11328 13800 1 0.16500 119244.000000
11329 11478 1 0.16500 119244.000000
11329 12210 1 0.16500 119244.000000
11330 11483 1 0.16500 119244.000000
11330 13526 1 0.16500 119244.000000
11331 11486 1 0.16500 119244.000000
11331 13567 1 0.16500 119244.000000
11332 11508 1 0.16500 119244.000000
11332 12903 1 0.16500 119244.000000
11333 11515 1 0.16500 119244.000000
11333 15556 1 0.16500 119244.000000
11334 11521 1 0.16500 119244.000000
11334 12554 1 0.16500 119244.000000
11335 11533 1 0.16500 119244.000000
11335 15547 1 0.16500 119244.000000
11336 11548 1 0.16500 119244.000000
11336 12352 1 0.16500 119244.000000
11337 11549 1 0.16500 119244.000000
11337 14014 1 0.16500 119244.000000
11338 11560 1 0.16500 119244.000000
11338 15834 1 0.16500 119244.000000
11339 11568 1 0.16500 119244.000000
11339 13452 1 0.16500 119244.000000
11340 11573 1 0.16500 119244.000000
11340 12793 1 0.16500 119244.000000
11341 11578 1 0.16500 119244.000000
11341 12807 1 0.16500 119244.000000
11342 11592 1 0.16500 119244.000000
11342 13344 1 0.16500 119244.000000
11343 11594 1 0.16500 119244.000000
11343 14189 1 0.16500 119244.000000
11344 11606 1 0.16500 119244.000000
11344 15747 1 0.16500 119244.000000
11345 11607 1 0.16500 119244.000000
11345 14833 1 0.16500 119244.000000
11346 11623 1 0.16500 119244.000000
11346 12293 1 0.16500 119244.000000
11347 11625 1 0.16500 119244.000000
11347 12975 1 0.16500 119244.000000
11348 11627 1 0.16500 119244.000000
11348 16206 1 0.16500 119244.000000
11349 11628 1 0.16500 119244.000000
11349 13017 1 0.16500 119244.000000
11350 11638 1 0.16500 119244.000000
11350 15753 1 0.16500 119244.000000
11351 11674 1 0.16500 119244.000000
11351 12703 1 0.16500 119244.000000
11352 11689 1 0.16500 119244.000000
11352 16411 1 0.16500 119244.000000
11353 11692 1 0.16500 119244.000000
11353 15511 1 0.16500 119244.000000
11354 11711 1 0.16500 119244.000000
11354 12150 1 0.16500 119244.000000
11355 11730 1 0.16500 119244.000000
11355 14187 1 0.16500 119244.000000
11356 11743 1 0.16500 119244.000000
11356 12219 1 0.16500 119244.000000
11357 11747 1 0.16500 119244.000000
11357 12633 1 0.16500 119244.000000
11358 11772 1 0.16500 119244.000000
11358 13321 1 0.16500 119244.000000
11359 11776 1 0.16500 119244.000000
11359 15961 1 0.16500 119244.000000
11360 11786 1 0.16500 119244.000000
11360 14363 1 0.16500 119244.000000
11361 11788 1 0.16500 119244.000000
11361 15752 1 0.16500 119244.000000
11362 11793 1 0.16500 119244.000000
11362 12391 1 0.16500 119244.000000
11363 11795 1 0.16500 119244.000000
11363 12128 1 0.16500 119244.000000
11364 11804 1 0.16500 119244.000000
11364 12642 1 0.16500 119244.000000
11365 11808 1 0.16500 119244.000000
11365 12985 1 0.16500 119244.000000
11366 11831 1 0.16500 119244.000000
11366 13492 1 0.16500 119244.000000
11367 11856 1 0.16500 119244.000000
11367 15058 1 0.16500 119244.000000
11368 11860 1 0.16500 119244.000000
11368 16285 1 0.16500 119244.000000
11369 11871 1 0.16500 119244.000000
11369 15299 1 0.16500 119244.000000
11370 11879 1 0.16500 119244.000000
11370 13683 1 0.16500 119244.000000
11371 11882 1 0.16500 119244.000000
11371 14866 1 0.16500 119244.000000
11372 11885 1 0.16500 119244.000000
11372 16320 1 0.16500 119244.000000
11373 11890 1 0.16500 119244.000000
11373 13671 1 0.16500 119244.000000
11374 11892 1 0.16500 119244.000000
11374 13078 1 0.16500 119244.000000
11375 11897 1 0.16500 119244.000000
11375 11964 1 0.16500 119244.000000
11376 11906 1 0.16500 119244.000000
11376 14362 1 0.16500 119244.000000
11377 11921 1 0.16500 119244.000000
11377 13292 1 0.16500 119244.000000
11378 11922 1 0.16500 119244.000000
11378 14089 1 0.16500 119244.000000
11379 11929 1 0.16500 119244.000000
11379 14059 1 0.16500 119244.000000
11380 11931 1 0.16500 119244.000000
11380 15132 1 0.16500 119244.000000
11381 11971 1 0.16500 119244.000000
11381 13216 1 0.16500 119244.000000
11382 11973 1 0.16500 119244.000000
11382 13384 1 0.16500 119244.000000
11383 11979 1 0.16500 119244.000000
11383 12811 1 0.16500 119244.000000
11384 11989 1 0.16500 119244.000000
11384 13225 1 0.16500 119244.000000
11385 12005 1 0.16500 119244.000000
11385 13718 1 0.16500 119244.000000
11386 12009 1 0.16500 119244.000000
11386 14105 1 0.16500 119244.000000
11387 12010 1 0.16500 119244.000000
11387 12048 1 0.16500 119244.000000
11388 12011 1 0.16500 119244.000000
11388 12430 1 0.16500 119244.000000
11389 12021 1 0.16500 119244.000000
11389 13550 1 0.16500 119244.000000
11390 12031 1 0.16500 119244.000000
11390 15703 1 0.16500 119244.000000
11391 12049 1 0.16500 119244.000000
11391 14892 1 0.16500 119244.000000
11392 12050 1 0.16500 119244.000000
11392 13119 1 0.16500 119244.000000
11393 12058 1 0.16500 119244.000000
11393 15516 1 0.16500 119244.000000
11394 12086 1 0.16500 119244.000000
11394 15437 1 0.16500 119244.000000
11395 12087 1 0.16500 119244.000000
11395 15906 1 0.16500 119244.000000
11396 12092 1 0.16500 119244.000000
11396 16581 1 0.16500 119244.000000
11397 12094 1 0.16500 119244.000000
11397 12726 1 0.16500 119244.000000
11398 12096 1 0.16500 119244.000000
11398 14350 1 0.16500 119244.000000
11399 12102 1 0.16500 119244.000000
11399 12402 1 0.16500 119244.000000
11400 12105 1 0.16500 119244.000000
11400 13534 1 0.16500 119244.000000
11401 12107 1 0.16500 119244.000000
11401 16301 1 0.16500 119244.000000
11402 12121 1 0.16500 119244.000000
11402 15769 1 0.16500 119244.000000
11403 12130 1 0.16500 119244.000000
11403 14330 1 0.16500 119244.000000
11404 12172 1 0.16500 119244.000000
11404 15958 1 0.16500 119244.000000
11405 12239 1 0.16500 119244.000000
11405 16008 1 0.16500 119244.000000
11406 12251 1 0.16500 119244.000000
11406 12934 1 0.16500 119244.000000
11407 12257 1 0.16500 119244.000000
11407 13359 1 0.16500 119244.000000
11408 12269 1 0.16500 119244.000000
11408 13164 1 0.16500 119244.000000
16697 16698 1 0.10860 301825.392000
16698 16699 1 0.13986 296436.400000
16698 16707 1 0.13986 296436.400000
16699 16700 1 0.18850 35430.112000
16699 16701 1 0.13986 296436.400000
16700 16709 1 0.16500 119244.000000
16701 16702 1 0.10860 301825.392000
16701 16703 1 0.13986 296436.400000
16703 16704 1 0.10860 301825.392000
16703 16705 1 0.13986 296436.400000
16705 16706 1 0.10860 301825.392000
16705 16707 1 0.13986 296436.400000
16707 16708 1 0.10860 301825.392000
16709 16710 1 0.09450 207108.000000
16711 16712 1 0.10860 301825.392000
16712 16713 1 0.13986 296436.400000
16712 16721 1 0.13986 296436.400000
16713 16714 1 0.18850 35430.112000
16713 16715 1 0.13986 296436.400000
16714 16723 1 0.16500 119244.000000
16715 16716 1 0.10860 301825.392000
16715 16717 1 0.13986 296436.400000
16717 16718 1 0.10860 301825.392000
16717 16719 1 0.13986 296436.400000
16719 16720 1 0.10860 301825.392000
16719 16721 1 0.13986 296436.400000
16721 16722 1 0.10860 301825.392000
16723 16724 1 0.09450 207108.000000
16725 16726 1 0.10860 301825.392000
16726 16727 1 0.13986 296436.400000
16726 16735 1 0.13986 296436.400000
16727 16728 1 0.18850 35430.112000
16727 16729 1 0.13986 296436.400000
16728 16737 1 0.16500 119244.000000
16729 16730 1 0.10860 301825.392000
16729 16731 1 0.13986 296436.400000
16731 16732 1 0.10860 301825.392000
16731 16733 1 0.13986 296436.400000
16733 16734 1 0.10860 301825.392000
16733 16735 1 0.13986 296436.400000
16735 16736 1 0.10860 301825.392000
16737 16738 1 0.09450 207108.000000
16739 16740 1 0.10860 301825.392000
16740 16741 1 0.13986 296436.400000
16740 16749 1 0.13986 296436.400000
16741 16742 1 0.18850 35430.112000
16741 16743 1 0.13986 296436.400000
16742 16751 1 0.16500 119244.000000
16743 16744 1 0.10860 301825.392000
16743 16745 1 0.13986 296436.400000
16745 16746 1 0.10860 301825.392000
16745 16747 1 0.13986 296436.400000
16747 16748 1 0.10860 301825.392000
16747 16749 1 0.13986 296436.400000
16749 16750 1 0.10860 301825.392000
16751 16752 1 0.09450 207108.000000
16753 16754 1 0.10860 301825.392000
16754 16755 1 0.13986 296436.400000
16754 16763 1 0.13986 296436.400000
16755 16756 1 0.18850 35430.112000
16755 16757 1 0.13986 296436.400000
16756 16765 1 0.16500 119244.000000
16757 16758 1 0.10860 301825.392000
16757 16759 1 0.13986 296436.400000
16759 16760 1 0.10860 301825.392000
16759 16761 1 0.13986 296436.400000
16761 16762 1 0.10860 301825.392000
16761 16763 1 0.13986 296436.400000
16763 16764 1 0.10860 301825.392000
16765 16766 1 0.09450 207108.000000
16767 16768 1 0.10860 301825.392000
16768 16769 1 0.13986 296436.400000
16768 16777 1 0.13986 296436.400000
16769 16770 1 0.18850 35430.112000
16769 16771 1 0.13986 296436.400000
16770 16779 1 0.16500 119244.000000
16771 16772 1 0.10860 301825.392000
16771 16773 1 0.13986 296436.400000
16773 16774 1 0.10860 301825.392000
16773 16775 1 0.13986 296436.400000
16775 16776 1 0.10860 301825.392000
16775 16777 1 0.13986 296436.400000
16777 16778 1 0.10860 301825.392000
16779 16780 1 0.09450 207108.000000
16781 16782 1 0.10860 301825.392000
16782 16783 1 0.13986 296436.400000
16782 16791 1 0.13986 296436.400000
16783 16784 1 0.18850 35430.112000
16783 16785 1 0.13986 296436.400000
16784 16793 1 0.16500 119244.000000
16785 16786 1 0.10860 301825.392000
16785 16787 1 0.13986 296436.400000
16787 16788 1 0.10860 301825.392000
16787 16789 1 0.13986 296436.400000
16789 16790 1 0.10860 301825.392000
16789 16791 1 0.13986 296436.400000
16791 16792 1 0.10860 301825.392000
16793 16794 1 0.09450 207108.000000
16795 16796 1 0.10860 301825.392000
16796 16797 1 0.13986 296436.400000
16796 16805 1 0.13986 296436.400000
16797 16798 1 0.18850 35430.112000
16797 16799 1 0.13986 296436.400000
16798 16807 1 0.16500 119244.000000
16799 16800 1 0.10860 301825.392000
16799 16801 1 0.13986 296436.400000
16801 16802 1 0.10860 301825.392000
16801 16803 1 0.13986 296436.400000
16803 16804 1 0.10860 301825.392000
16803 16805 1 0.13986 296436.400000
16805 16806 1 0.10860 301825.392000
16807 16808 1 0.09450 207108.000000
16809 16810 1 0.10860 301825.392000
16810 16811 1 0.13986 296436.400000
16810 16819 1 0.13986 296436.400000
16811 16812 1 0.18850 35430.112000
16811 16813 1 0.13986 296436.400000
16812 16821 1 0.16500 119244.000000
16813 16814 1 0.10860 301825.392000
16813 16815 1 0.13986 296436.400000
16815 16816 1 0.10860 301825.392000
16815 16817 1 0.13986 296436.400000
16817 16818 1 0.10860 301825.392000
16817 16819 1 0.13986 296436.400000
16819 16820 1 0.10860 301825.392000
16821 16822 1 0.09450 207108.000000
16823 16824 1 0.10860 301825.392000
16824 16825 1 0.13986 296436.400000
16824 16833 1 0.13986 296436.400000
16825 16826 1 0.18850 35430.112000
16825 16827 1 0.13986 296436.400000
16826 16835 1 0.16500 119244.000000
16827 16828 1 0.10860 301825.392000
16827 16829 1 0.13986 296436.400000
16829 16830 1 0.10860 301825.392000
16829 16831 1 0.13986 296436.400000
16831 16832 1 0.10860 301825.392000
16831 16833 1 0.13986 296436.400000
16833 16834 1 0.10860 301825.392000
16835 16836 1 0.09450 207108.000000
16837 16838 1 0.10860 301825.392000
16838 16839 1 0.13986 296436.400000
16838 16847 1 0.13986 296436.400000
16839 16840 1 0.18850 35430.112000
16839 16841 1 0.13986 296436.400000
16840 16849 1 0.16500 119244.000000
16841 16842 1 0.10860 301825.392000
16841 16843 1 0.13986 296436.400000
16843 16844 1 0.10860 301825.392000
16843 16845 1 0.13986 296436.400000
16845 16846 1 0.10860 301825.392000
16845 16847 1 0.13986 296436.400000
16847 16848 1 0.10860 301825.392000
16849 16850 1 0.09450 207108.000000
16851 16852 1 0.10860 301825.392000
16852 16853 1 0.13986 296436.400000
16852 16861 1 0.13986 296436.400000
16853 16854 1 0.18850 35430.112000
16853 16855 1 0.13986 296436.400000
16854 16863 1 0.16500 119244.000000
16855 16856 1 0.10860 301825.392000
16855 16857 1 0.13986 296436.400000
16857 16858 1 0.10860 301825.392000
16857 16859 1 0.13986 296436.400000
16859 16860 1 0.10860 301825.392000
16859 16861 1 0.13986 296436.400000
16861 16862 1 0.10860 301825.392000
16863 16864 1 0.09450 207108.000000
16865 16866 1 0.10860 301825.392000
16866 16867 1 0.13986 296436.400000
16866 16875 1 0.13986 296436.400000
16867 16868 1 0.18850 35430.112000
16867 16869 1 0.13986 296436.400000
16868 16877 1 0.16500 119244.000000
16869 16870 1 0.10860 301825.392000
16869 16871 1 0.13986 296436.400000
16871 16872 1 0.10860 301825.392000
16871 16873 1 0.13986 296436.400000
16873 16874 1 0.10860 301825.392000
16873 16875 1 0.13986 296436.400000
16875 16876 1 0.10860 301825.392000
16877 16878 1 0.09450 207108.000000
16879 16880 1 0.10860 301825.392000
16880 16881 1 0.13986 296436.400000
16880 16889 1 0.13986 296436.400000
16881 16882 1 0.18850 35430.112000
16881 16883 1 0.13986 296436.400000
16882 16891 1 0.16500 119244.000000
16883 16884 1 0.10860 301825.392000
16883 16885 1 0.13986 296436.400000
16885 16886 1 0.10860 301825.392000
16885 16887 1 0.13986 296436.400000
16887 16888 1 0.10860 301825.392000
16887 16889 1 0.13986 296436.400000
16889 16890 1 0.10860 301825.392000
16891 16892 1 0.09450 207108.000000
16893 16894 1 0.10860 301825.392000
16894 16895 1 0.13986 296436.400000
16894 16903 1 0.13986 296436.400000
16895 16896 1 0.18850 35430.112000
16895 16897 1 0.13986 296436.400000
16896 16905 1 0.16500 119244.000000
16897 16898 1 0.10860 301825.392000
16897 16899 1 0.13986 296436.400000
16899 16900 1 0.10860 301825.392000
16899 16901 1 0.13986 296436.400000
16901 16902 1 0.10860 301825.392000
16901 16903 1 0.13986 296436.400000
16903 16904 1 0.10860 301825.392000
16905 16906 1 0.09450 207108.000000
16907 16908 1 0.10860 301825.392000
16908 16909 1 0.13986 296436.400000
16908 16917 1 0.13986 296436.400000
16909 16910 1 0.18850 35430.112000
16909 16911 1 0.13986 296436.400000
16910 16919 1 0.16500 119244.000000
16911 16912 1 0.10860 301825.392000
16911 16913 1 0.13986 296436.400000
16913 16914 1 0.10860 301825.392000
16913 16915 1 0.13986 296436.400000
16915 16916 1 0.10860 301825.392000
16915 16917 1 0.13986 296436.400000
16917 16918 1 0.10860 301825.392000
16919 16920 1 0.09450 207108.000000
16921 16922 1 0.10860 301825.392000
16922 16923 1 0.13986 296436.400000
16922 16931 1 0.13986 296436.400000
16923 16924 1 0.18850 35430.112000
16923 16925 1 0.13986 296436.400000
16924 16933 1 0.16500 119244.000000
16925 16926 1 0.10860 301825.392000
16925 16927 1 0.13986 296436.400000
16927 16928 1 0.10860 301825.392000
16927 16929 1 0.13986 296436.400000
16929 16930 1 0.10860 301825.392000
16929 16931 1 0.13986 296436.400000
16931 16932 1 0.10860 301825.392000
16933 16934 1 0.09450 207108.000000
16935 16936 1 0.10860 301825.392000
16936 16937 1 0.13986 296436.400000
16936 16945 1 0.13986 296436.400000
16937 16938 1 0.18850 35430.112000
16937 16939 1 0.13986 296436.400000
16938 16947 1 0.16500 119244.000000
16939 16940 1 0.10860 301825.392000
16939 16941 1 0.13986 296436.400000
16941 16942 1 0.10860 301825.392000
16941 16943 1 0.13986 296436.400000
16943 16944 1 0.10860 301825.392000
16943 16945 1 0.13986 296436.400000
16945 16946 1 0.10860 301825.392000
16947 16948 1 0.09450 207108.000000
16949 16950 1 0.10860 301825.392000
16950 16951 1 0.13986 296436.400000
16950 16959 1 0.13986 296436.400000
16951 16952 1 0.18850 35430.112000
16951 16953 1 0.13986 296436.400000
16952 16961 1 0.16500 119244.000000
16953 16954 1 0.10860 301825.392000
16953 16955 1 0.13986 296436.400000
16955 16956 1 0.10860 301825.392000
16955 16957 1 0.13986 296436.400000
16957 16958 1 0.10860 301825.392000
16957 16959 1 0.13986 296436.400000
16959 16960 1 0.10860 301825.392000
16961 16962 1 0.09450 207108.000000
16963 16964 1 0.10860 301825.392000
16964 16965 1 0.13986 296436.400000
16964 16973 1 0.13986 296436.400000
16965 16966 1 0.18850 35430.112000
16965 16967 1 0.13986 296436.400000
16966 16975 1 0.16500 119244.000000
16967 16968 1 0.10860 301825.392000
16967 16969 1 0.13986 296436.400000
16969 16970 1 0.10860 301825.392000
16969 16971 1 0.13986 296436.400000
16971 16972 1 0.10860 301825.392000
16971 16973 1 0.13986 296436.400000
16973 16974 1 0.10860 301825.392000
16975 16976 1 0.09450 207108.000000
16977 16978 1 0.10860 301825.392000
16978 16979 1 0.13986 296436.400000
16978 16987 1 0.13986 296436.400000
16979 16980 1 0.18850 35430.112000
16979 16981 1 0.13986 296436.400000
16980 16989 1 0.16500 119244.000000
16981 16982 1 0.10860 301825.392000
16981 16983 1 0.13986 296436.400000
16983 16984 1 0.10860 301825.392000
16983 16985 1 0.13986 296436.400000
16985 16986 1 0.10860 301825.392000
16985 16987 1 0.13986 296436.400000
16987 16988 1 0.10860 301825.392000
16989 16990 1 0.09450 207108.000000
16991 16992 1 0.10860 301825.392000
16992 16993 1 0.13986 296436.400000
16992 17001 1 0.13986 296436.400000
16993 16994 1 0.18850 35430.112000
16993 16995 1 0.13986 296436.400000
16994 17003 1 0.16500 119244.000000
16995 16996 1 0.10860 301825.392000
16995 16997 1 0.13986 296436.400000
16997 16998 1 0.10860 301825.392000
16997 16999 1 0.13986 296436.400000
16999 17000 1 0.10860 301825.392000
16999 17001 1 0.13986 296436.400000
17001 17002 1 0.10860 301825.392000
17003 17004 1 0.09450 207108.000000
17005 17006 1 0.10860 301825.392000
17006 17007 1 0.13986 296436.400000
17006 17015 1 0.13986 296436.400000
17007 17008 1 0.18850 35430.112000
17007 17009 1 0.13986 296436.400000
17008 17017 1 0.16500 119244.000000
17009 17010 1 0.10860 301825.392000
17009 17011 1 0.13986 296436.400000
17011 17012 1 0.10860 301825.392000
17011 17013 1 0.13986 296436.400000
17013 17014 1 0.10860 301825.392000
17013 17015 1 0.13986 296436.400000
17015 17016 1 0.10860 301825.392000
17017 17018 1 0.09450 207108.000000
17019 17020 1 0.10860 301825.392000
17020 17021 1 0.13986 296436.400000
17020 17029 1 0.13986 296436.400000
17021 17022 1 0.18850 35430.112000
17021 17023 1 0.13986 296436.400000
17022 17031 1 0.16500 119244.000000
17023 17024 1 0.10860 301825.392000
17023 17025 1 0.13986 296436.400000
17025 17026 1 0.10860 301825.392000
17025 17027 1 0.13986 296436.400000
17027 17028 1 0.10860 301825.392000
17027 17029 1 0.13986 296436.400000
17029 17030 1 0.10860 301825.392000
17031 17032 1 0.09450 207108.000000
17033 17034 1 0.10860 301825.392000
17034 17035 1 0.13986 296436.400000
17034 17043 1 0.13986 296436.400000
17035 17036 1 0.18850 35430.112000
17035 17037 1 0.13986 296436.400000
17036 17045 1 0.16500 119244.000000
17037 17038 1 0.10860 301825.392000
17037 17039 1 0.13986 296436.400000
17039 17040 1 0.10860 301825.392000
17039 17041 1 0.13986 296436.400000
17041 17042 1 0.10860 301825.392000
17041 17043 1 0.13986 296436.400000
17043 17044 1 0.10860 301825.392000
17045 17046 1 0.09450 207108.000000
17047 17048 1 0.10860 301825.392000
17048 17049 1 0.13986 296436.400000
17048 17057 1 0.13986 296436.400000
17049 17050 1 0.18850 35430.112000
17049 17051 1 0.13986 296436.400000
17050 17059 1 0.16500 119244.000000
17051 17052 1 0.10860 301825.392000
17051 17053 1 0.13986 296436.400000
17053 17054 1 0.10860 301825.392000
17053 17055 1 0.13986 296436.400000
17055 17056 1 0.10860 301825.392000
17055 17057 1 0.13986 296436.400000
17057 17058 1 0.10860 301825.392000
17059 17060 1 0.09450 207108.000000
17061 17062 1 0.10860 301825.392000
17062 17063 1 0.13986 296436.400000
17062 17071 1 0.13986 296436.400000
17063 17064 1 0.18850 35430.112000
17063 17065 1 0.13986 296436.400000
17064 17073 1 0.16500 119244.000000
17065 17066 1 0.10860 301825.392000
17065 17067 1 0.13986 296436.400000
17067 17068 1 0.10860 301825.392000
17067 17069 1 0.13986 296436.400000
17069 17070 1 0.10860 301825.392000
17069 17071 1 0.13986 296436.400000
17071 17072 1 0.10860 301825.392000
17073 17074 1 0.09450 207108.000000
17075 17076 1 0.10860 301825.392000
17076 17077 1 0.13986 296436.400000
17076 17085 1 0.13986 296436.400000
17077 17078 1 0.18850 35430.112000
17077 17079 1 0.13986 296436.400000
17078 17087 1 0.16500 119244.000000
17079 17080 1 0.10860 301825.392000
17079 17081 1 0.13986 296436.400000
17081 17082 1 0.10860 301825.392000
17081 17083 1 0.13986 296436.400000
17083 17084 1 0.10860 301825.392000
17083 17085 1 0.13986 296436.400000
17085 17086 1 0.10860 301825.392000
17087 17088 1 0.09450 207108.000000
17089 17090 1 0.10860 301825.392000
17090 17091 1 0.13986 296436.400000
17090 17099 1 0.13986 296436.400000
17091 17092 1 0.18850 35430.112000
17091 17093 1 0.13986 296436.400000
17092 17101 1 0.16500 119244.000000
17093 17094 1 0.10860 301825.392000
17093 17095 1 0.13986 296436.400000
17095 17096 1 0.10860 301825.392000
17095 17097 1 0.13986 296436.400000
17097 17098 1 0.10860 301825.392000
17097 17099 1 0.13986 296436.400000
17099 17100 1 0.10860 301825.392000
17101 17102 1 0.09450 207108.000000
17103 17104 1 0.10860 301825.392000
17104 17105 1 0.13986 296436.400000
17104 17113 1 0.13986 296436.400000
17105 17106 1 0.18850 35430.112000
17105 17107 1 0.13986 296436.400000
17106 17115 1 0.16500 119244.000000
17107 17108 1 0.10860 301825.392000
17107 17109 1 0.13986 296436.400000
17109 17110 1 0.10860 301825.392000
17109 17111 1 0.13986 296436.400000
17111 17112 1 0.10860 301825.392000
17111 17113 1 0.13986 296436.400000
17113 17114 1 0.10860 301825.392000
17115 17116 1 0.09450 207108.000000
17117 17118 1 0.10860 301825.392000
17118 17119 1 0.13986 296436.400000
17118 17127 1 0.13986 296436.400000
17119 17120 1 0.18850 35430.112000
17119 17121 1 0.13986 296436.400000
17120 17129 1 0.16500 119244.000000
17121 17122 1 0.10860 301825.392000
17121 17123 1 0.13986 296436.400000
17123 17124 1 0.10860 301825.392000
17123 17125 1 0.13986 296436.400000
17125 17126 1 0.10860 301825.392000
17125 17127 1 0.13986 296436.400000
17127 17128 1 0.10860 301825.392000
17129 17130 1 0.09450 207108.000000
17131 17132 1 0.10860 301825.392000
17132 17133 1 0.13986 296436.400000
17132 17141 1 0.13986 296436.400000
17133 17134 1 0.18850 35430.112000
17133 17135 1 0.13986 296436.400000
17134 17143 1 0.16500 119244.000000
17135 17136 1 0.10860 301825.392000
17135 17137 1 0.13986 296436.400000
17137 17138 1 0.10860 301825.392000
17137 17139 1 0.13986 296436.400000
17139 17140 1 0.10860 301825.392000
17139 17141 1 0.13986 296436.400000
17141 17142 1 0.10860 301825.392000
17143 17144 1 0.09450 207108.000000
17145 17146 1 0.10860 301825.392000
17146 17147 1 0.13986 296436.400000
17146 17155 1 0.13986 296436.400000
17147 17148 1 0.18850 35430.112000
17147 17149 1 0.13986 296436.400000
17148 17157 1 0.16500 119244.000000
17149 17150 1 0.10860 301825.392000
17149 17151 1 0.13986 296436.400000
17151 17152 1 0.10860 301825.392000
17151 17153 1 0.13986 296436.400000
17153 17154 1 0.10860 301825.392000
17153 17155 1 0.13986 296436.400000
17155 17156 1 0.10860 301825.392000
17157 17158 1 0.09450 207108.000000
17159 17160 1 0.10860 301825.392000
17160 17161 1 0.13986 296436.400000
17160 17169 1 0.13986 296436.400000
17161 17162 1 0.18850 35430.112000
17161 17163 1 0.13986 296436.400000
17162 17171 1 0.16500 119244.000000
17163 17164 1 0.10860 301825.392000
17163 17165 1 0.13986 296436.400000
17165 17166 1 0.10860 301825.392000
17165 17167 1 0.13986 296436.400000
17167 17168 1 0.10860 301825.392000
17167 17169 1 0.13986 296436.400000
17169 17170 1 0.10860 301825.392000
17171 17172 1 0.09450 207108.000000
17173 17174 1 0.10860 301825.392000
17174 17175 1 0.13986 296436.400000
17174 17183 1 0.13986 296436.400000
17175 17176 1 0.18850 35430.112000
17175 17177 1 0.13986 296436.400000
17176 17185 1 0.16500 119244.000000
17177 17178 1 0.10860 301825.392000
17177 17179 1 0.13986 296436.400000
17179 17180 1 0.10860 301825.392000
17179 17181 1 0.13986 296436.400000
17181 17182 1 0.10860 301825.392000
17181 17183 1 0.13986 296436.400000
17183 17184 1 0.10860 301825.392000
17185 17186 1 0.09450 207108.000000
17187 17188 1 0.10860 301825.392000
17188 17189 1 0.13986 296436.400000
17188 17197 1 0.13986 296436.400000
17189 17190 1 0.18850 35430.112000
17189 17191 1 0.13986 296436.400000
17190 17199 1 0.16500 119244.000000
17191 17192 1 0.10860 301825.392000
17191 17193 1 0.13986 296436.400000
17193 17194 1 0.10860 301825.392000
17193 17195 1 0.13986 296436.400000
17195 17196 1 0.10860 301825.392000
17195 17197 1 0.13986 296436.400000
17197 17198 1 0.10860 301825.392000
17199 17200 1 0.09450 207108.000000
17201 17202 1 0.10860 301825.392000
17202 17203 1 0.13986 296436.400000
17202 17211 1 0.13986 296436.400000
17203 17204 1 0.18850 35430.112000
17203 17205 1 0.13986 296436.400000
17204 17213 1 0.16500 119244.000000
17205 17206 1 0.10860 301825.392000
17205 17207 1 0.13986 296436.400000
17207 17208 1 0.10860 301825.392000
17207 17209 1 0.13986 296436.400000
17209 17210 1 0.10860 301825.392000
17209 17211 1 0.13986 296436.400000
17211 17212 1 0.10860 301825.392000
17213 17214 1 0.09450 207108.000000
17215 17216 1 0.10860 301825.392000
17216 17217 1 0.13986 296436.400000
17216 17225 1 0.13986 296436.400000
17217 17218 1 0.18850 35430.112000
17217 17219 1 0.13986 296436.400000
17218 17227 1 0.16500 119244.000000
17219 17220 1 0.10860 301825.392000
17219 17221 1 0.13986 296436.400000
17221 17222 1 0.10860 301825.392000
17221 17223 1 0.13986 296436.400000
17223 17224 1 0.10860 301825.392000
17223 17225 1 0.13986 296436.400000
17225 17226 1 0.10860 301825.392000
17227 17228 1 0.09450 207108.000000
17229 17230 1 0.10860 301825.392000
17230 17231 1 0.13986 296436.400000
17230 17239 1 0.13986 296436.400000
17231 17232 1 0.18850 35430.112000
17231 17233 1 0.13986 296436.400000
17232 17241 1 0.16500 119244.000000
17233 17234 1 0.10860 301825.392000
17233 17235 1 0.13986 296436.400000
17235 17236 1 0.10860 301825.392000
17235 17237 1 0.13986 296436.400000
17237 17238 1 0.10860 301825.392000
17237 17239 1 0.13986 296436.400000
17239 17240 1 0.10860 301825.392000
17241 17242 1 0.09450 207108.000000
17243 17244 1 0.10860 301825.392000
17244 17245 1 0.13986 296436.400000
17244 17253 1 0.13986 296436.400000
17245 17246 1 0.18850 35430.112000
17245 17247 1 0.13986 296436.400000
17246 17255 1 0.16500 119244.000000
17247 17248 1 0.10860 301825.392000
17247 17249 1 0.13986 296436.400000
17249 17250 1 0.10860 301825.392000
17249 17251 1 0.13986 296436.400000
17251 17252 1 0.10860 301825.392000
17251 17253 1 0.13986 296436.400000
17253 17254 1 0.10860 301825.392000
17255 17256 1 0.09450 207108.000000
17257 17258 1 0.10860 301825.392000
17258 17259 1 0.13986 296436.400000
17258 17267 1 0.13986 296436.400000
17259 17260 1 0.18850 35430.112000
17259 17261 1 0.13986 296436.400000
17260 17269 1 0.16500 119244.000000
17261 17262 1 0.10860 301825.392000
17261 17263 1 0.13986 296436.400000
17263 17264 1 0.10860 301825.392000
17263 17265 1 0.13986 296436.400000
17265 17266 1 0.10860 301825.392000
17265 17267 1 0.13986 296436.400000
17267 17268 1 0.10860 301825.392000
17269 17270 1 0.09450 207108.000000
17271 17272 1 0.10860 301825.392000
17272 17273 1 0.13986 296436.400000
17272 17281 1 0.13986 296436.400000
17273 17274 1 0.18850 35430.112000
17273 17275 1 0.13986 296436.400000
17274 17283 1 0.16500 119244.000000
17275 17276 1 0.10860 301825.392000
17275 17277 1 0.13986 296436.400000
17277 17278 1 0.10860 301825.392000
17277 17279 1 0.13986 296436.400000
17279 17280 1 0.10860 301825.392000
17279 17281 1 0.13986 296436.400000
17281 17282 1 0.10860 301825.392000
17283 17284 1 0.09450 207108.000000
17285 17286 1 0.10860 301825.392000
17286 17287 1 0.13986 296436.400000
17286 17295 1 0.13986 296436.400000
17287 17288 1 0.18850 35430.112000
17287 17289 1 0.13986 296436.400000
17288 17297 1 0.16500 119244.000000
17289 17290 1 0.10860 301825.392000
17289 17291 1 0.13986 296436.400000
17291 17292 1 0.10860 301825.392000
17291 17293 1 0.13986 296436.400000
17293 17294 1 0.10860 301825.392000
17293 17295 1 0.13986 296436.400000
17295 17296 1 0.10860 301825.392000
17297 17298 1 0.09450 207108.000000
17299 17300 1 0.10860 301825.392000
17300 17301 1 0.13986 296436.400000
17300 17309 1 0.13986 296436.400000
17301 17302 1 0.18850 35430.112000
17301 17303 1 0.13986 296436.400000
17302 17311 1 0.16500 119244.000000
17303 17304 1 0.10860 301825.392000
17303 17305 1 0.13986 296436.400000
17305 17306 1 0.10860 301825.392000
17305 17307 1 0.13986 296436.400000
17307 17308 1 0.10860 301825.392000
17307 17309 1 0.13986 296436.400000
17309 17310 1 0.10860 301825.392000
17311 17312 1 0.09450 207108.000000
17313 17314 1 0.10860 301825.392000
17314 17315 1 0.13986 296436.400000
17314 17323 1 0.13986 296436.400000
17315 17316 1 0.18850 35430.112000
17315 17317 1 0.13986 296436.400000
17316 17325 1 0.16500 119244.000000
17317 17318 1 0.10860 301825.392000
17317 17319 1 0.13986 296436.400000
17319 17320 1 0.10860 301825.392000
17319 17321 1 0.13986 296436.400000
17321 17322 1 0.10860 301825.392000
17321 17323 1 0.13986 296436.400000
17323 17324 1 0.10860 301825.392000
17325 17326 1 0.09450 207108.000000
17327 17328 1 0.10860 301825.392000
17328 17329 1 0.13986 296436.400000
17328 17337 1 0.13986 296436.400000
17329 17330 1 0.18850 35430.112000
17329 17331 1 0.13986 296436.400000
17330 17339 1 0.16500 119244.000000
17331 17332 1 0.10860 301825.392000
17331 17333 1 0.13986 296436.400000
17333 17334 1 0.10860 301825.392000
17333 17335 1 0.13986 296436.400000
17335 17336 1 0.10860 301825.392000
17335 17337 1 0.13986 296436.400000
17337 17338 1 0.10860 301825.392000
17339 17340 1 0.09450 207108.000000
17341 17342 1 0.10860 301825.392000
17342 17343 1 0.13986 296436.400000
17342 17351 1 0.13986 296436.400000
17343 17344 1 0.18850 35430.112000
17343 17345 1 0.13986 296436.400000
17344 17353 1 0.16500 119244.000000
17345 17346 1 0.10860 301825.392000
17345 17347 1 0.13986 296436.400000
17347 17348 1 0.10860 301825.392000
17347 17349 1 0.13986 296436.400000
17349 17350 1 0.10860 301825.392000
17349 17351 1 0.13986 296436.400000
17351 17352 1 0.10860 301825.392000
17353 17354 1 0.09450 207108.000000
17355 17356 1 0.10860 301825.392000
17356 17357 1 0.13986 296436.400000
17356 17365 1 0.13986 296436.400000
17357 17358 1 0.18850 35430.112000
17357 17359 1 0.13986 296436.400000
17358 17367 1 0.16500 119244.000000
17359 17360 1 0.10860 301825.392000
17359 17361 1 0.13986 296436.400000
17361 17362 1 0.10860 301825.392000
17361 17363 1 0.13986 296436.400000
17363 17364 1 0.10860 301825.392000
17363 17365 1 0.13986 296436.400000
17365 17366 1 0.10860 301825.392000
17367 17368 1 0.09450 207108.000000
17369 17370 1 0.10860 301825.392000
17370 17371 1 0.13986 296436.400000
17370 17379 1 0.13986 296436.400000
17371 17372 1 0.18850 35430.112000
17371 17373 1 0.13986 296436.400000
17372 17381 1 0.16500 119244.000000
17373 17374 1 0.10860 301825.392000
17373 17375 1 0.13986 296436.400000
17375 17376 1 0.10860 301825.392000
17375 17377 1 0.13986 296436.400000
17377 17378 1 0.10860 301825.392000
17377 17379 1 0.13986 296436.400000
17379 17380 1 0.10860 301825.392000
17381 17382 1 0.09450 207108.000000
17383 17384 1 0.10860 301825.392000
17384 17385 1 0.13986 296436.400000
17384 17393 1 0.13986 296436.400000
17385 17386 1 0.18850 35430.112000
17385 17387 1 0.13986 296436.400000
17386 17395 1 0.16500 119244.000000
17387 17388 1 0.10860 301825.392000
17387 17389 1 0.13986 296436.400000
17389 17390 1 0.10860 301825.392000
17389 17391 1 0.13986 296436.400000
17391 17392 1 0.10860 301825.392000
17391 17393 1 0.13986 296436.400000
17393 17394 1 0.10860 301825.392000
17395 17396 1 0.09450 207108.000000
17397 17398 1 0.10860 301825.392000
17398 17399 1 0.13986 296436.400000
17398 17407 1 0.13986 296436.400000
17399 17400 1 0.18850 35430.112000
17399 17401 1 0.13986 296436.400000
17400 17409 1 0.16500 119244.000000
17401 17402 1 0.10860 301825.392000
17401 17403 1 0.13986 296436.400000
17403 17404 1 0.10860 301825.392000
17403 17405 1 0.13986 296436.400000
17405 17406 1 0.10860 301825.392000
17405 17407 1 0.13986 296436.400000
17407 17408 1 0.10860 301825.392000
17409 17410 1 0.09450 207108.000000
17411 17412 1 0.10860 301825.392000
17412 17413 1 0.13986 296436.400000
17412 17421 1 0.13986 296436.400000
17413 17414 1 0.18850 35430.112000
17413 17415 1 0.13986 296436.400000
17414 17423 1 0.16500 119244.000000
17415 17416 1 0.10860 301825.392000
17415 17417 1 0.13986 296436.400000
17417 17418 1 0.10860 301825.392000
17417 17419 1 0.13986 296436.400000
17419 17420 1 0.10860 301825.392000
17419 17421 1 0.13986 296436.400000
17421 17422 1 0.10860 301825.392000
17423 17424 1 0.09450 207108.000000
17425 17426 1 0.10860 301825.392000
17426 17427 1 0.13986 296436.400000
17426 17435 1 0.13986 296436.400000
17427 17428 1 0.18850 35430.112000
17427 17429 1 0.13986 296436.400000
17428 17437 1 0.16500 119244.000000
17429 17430 1 0.10860 301825.392000
17429 17431 1 0.13986 296436.400000
17431 17432 1 0.10860 301825.392000
17431 17433 1 0.13986 296436.400000
17433 17434 1 0.10860 301825.392000
17433 17435 1 0.13986 296436.400000
17435 17436 1 0.10860 301825.392000
17437 17438 1 0.09450 207108.000000
17439 17440 1 0.10860 301825.392000
17440 17441 1 0.13986 296436.400000
17440 17449 1 0.13986 296436.400000
17441 17442 1 0.18850 35430.112000
17441 17443 1 0.13986 296436.400000
17442 17451 1 0.16500 119244.000000
17443 17444 1 0.10860 301825.392000
17443 17445 1 0.13986 296436.400000
17445 17446 1 0.10860 301825.392000
17445 17447 1 0.13986 296436.400000
17447 17448 1 0.10860 301825.392000
17447 17449 1 0.13986 296436.400000
17449 17450 1 0.10860 301825.392000
17451 17452 1 0.09450 207108.000000
17453 17454 1 0.10860 301825.392000
17454 17455 1 0.13986 296436.400000
17454 17463 1 0.13986 296436.400000
17455 17456 1 0.18850 35430.112000
17455 17457 1 0.13986 296436.400000
17456 17465 1 0.16500 119244.000000
17457 17458 1 0.10860 301825.392000
17457 17459 1 0.13986 296436.400000
17459 17460 1 0.10860 301825.392000
17459 17461 1 0.13986 296436.400000
17461 17462 1 0.10860 301825.392000
17461 17463 1 0.13986 296436.400000
17463 17464 1 0.10860 301825.392000
17465 17466 1 0.09450 207108.000000
17467 17468 1 0.10860 301825.392000
17468 17469 1 0.13986 296436.400000
17468 17477 1 0.13986 296436.400000
17469 17470 1 0.18850 35430.112000
17469 17471 1 0.13986 296436.400000
17470 17479 1 0.16500 119244.000000
17471 17472 1 0.10860 301825.392000
17471 17473 1 0.13986 296436.400000
17473 17474 1 0.10860 301825.392000
17473 17475 1 0.13986 296436.400000
17475 17476 1 0.10860 301825.392000
17475 17477 1 0.13986 296436.400000
17477 17478 1 0.10860 301825.392000
17479 17480 1 0.09450 207108.000000
17481 17482 1 0.10860 301825.392000
17482 17483 1 0.13986 296436.400000
17482 17491 1 0.13986 296436.400000
17483 17484 1 0.18850 35430.112000
17483 17485 1 0.13986 296436.400000
17484 17493 1 0.16500 119244.000000
17485 17486 1 0.10860 301825.392000
17485 17487 1 0.13986 296436.400000
17487 17488 1 0.10860 301825.392000
17487 17489 1 0.13986 296436.400000
17489 17490 1 0.10860 301825.392000
17489 17491 1 0.13986 296436.400000
17491 17492 1 0.10860 301825.392000
17493 17494 1 0.09450 207108.000000
17495 17496 1 0.10860 301825.392000
17496 17497 1 0.13986 296436.400000
17496 17505 1 0.13986 296436.400000
17497 17498 1 0.18850 35430.112000
17497 17499 1 0.13986 296436.400000
17498 17507 1 0.16500 119244.000000
17499 17500 1 0.10860 301825.392000
17499 17501 1 0.13986 296436.400000
17501 17502 1 0.10860 301825.392000
17501 17503 1 0.13986 296436.400000
17503 17504 1 0.10860 301825.392000
17503 17505 1 0.13986 296436.400000
17505 17506 1 0.10860 301825.392000
17507 17508 1 0.09450 207108.000000
17509 17510 1 0.10860 301825.392000
17510 17511 1 0.13986 296436.400000
17510 17519 1 0.13986 296436.400000
17511 17512 1 0.18850 35430.112000
17511 17513 1 0.13986 296436.400000
17512 17521 1 0.16500 119244.000000
17513 17514 1 0.10860 301825.392000
17513 17515 1 0.13986 296436.400000
17515 17516 1 0.10860 301825.392000
17515 17517 1 0.13986 296436.400000
17517 17518 1 0.10860 301825.392000
17517 17519 1 0.13986 296436.400000
17519 17520 1 0.10860 301825.392000
17521 17522 1 0.09450 207108.000000
17523 17524 1 0.10860 301825.392000
17524 17525 1 0.13986 296436.400000
17524 17533 1 0.13986 296436.400000
17525 17526 1 0.18850 35430.112000
17525 17527 1 0.13986 296436.400000
17526 17535 1 0.16500 119244.000000
17527 17528 1 0.10860 301825.392000
17527 17529 1 0.13986 296436.400000
17529 17530 1 0.10860 301825.392000
17529 17531 1 0.13986 296436.400000
17531 17532 1 0.10860 301825.392000
17531 17533 1 0.13986 296436.400000
17533 17534 1 0.10860 301825.392000
17535 17536 1 0.09450 207108.000000
17537 17538 1 0.10860 301825.392000
17538 17539 1 0.13986 296436.400000
17538 17547 1 0.13986 296436.400000
17539 17540 1 0.18850 35430.112000
17539 17541 1 0.13986 296436.400000
17540 17549 1 0.16500 119244.000000
17541 17542 1 0.10860 301825.392000
17541 17543 1 0.13986 296436.400000
17543 17544 1 0.10860 301825.392000
17543 17545 1 0.13986 296436.400000
17545 17546 1 0.10860 301825.392000
17545 17547 1 0.13986 296436.400000
17547 17548 1 0.10860 301825.392000
17549 17550 1 0.09450 207108.000000
17551 17552 1 0.10860 301825.392000
17552 17553 1 0.13986 296436.400000
17552 17561 1 0.13986 296436.400000
17553 17554 1 0.18850 35430.112000
17553 17555 1 0.13986 296436.400000
17554 17563 1 0.16500 119244.000000
17555 17556 1 0.10860 301825.392000
17555 17557 1 0.13986 296436.400000
17557 17558 1 0.10860 301825.392000
17557 17559 1 0.13986 296436.400000
17559 17560 1 0.10860 301825.392000
17559 17561 1 0.13986 296436.400000
17561 17562 1 0.10860 301825.392000
17563 17564 1 0.09450 207108.000000
17565 17566 1 0.10860 301825.392000
17566 17567 1 0.13986 296436.400000
17566 17575 1 0.13986 296436.400000
17567 17568 1 0.18850 35430.112000
17567 17569 1 0.13986 296436.400000
17568 17577 1 0.16500 119244.000000
17569 17570 1 0.10860 301825.392000
17569 17571 1 0.13986 296436.400000
17571 17572 1 0.10860 301825.392000
17571 17573 1 0.13986 296436.400000
17573 17574 1 0.10860 301825.392000
17573 17575 1 0.13986 296436.400000
17575 17576 1 0.10860 301825.392000
17577 17578 1 0.09450 207108.000000
17579 17580 1 0.10860 301825.392000
17580 17581 1 0.13986 296436.400000
17580 17589 1 0.13986 296436.400000
17581 17582 1 0.18850 35430.112000
17581 17583 1 0.13986 296436.400000
17582 17591 1 0.16500 119244.000000
17583 17584 1 0.10860 301825.392000
17583 17585 1 0.13986 296436.400000
17585 17586 1 0.10860 301825.392000
17585 17587 1 0.13986 296436.400000
17587 17588 1 0.10860 301825.392000
17587 17589 1 0.13986 296436.400000
17589 17590 1 0.10860 301825.392000
17591 17592 1 0.09450 207108.000000
17593 17594 1 0.10860 301825.392000
17594 17595 1 0.13986 296436.400000
17594 17603 1 0.13986 296436.400000
17595 17596 1 0.18850 35430.112000
17595 17597 1 0.13986 296436.400000
17596 17605 1 0.16500 119244.000000
17597 17598 1 0.10860 301825.392000
17597 17599 1 0.13986 296436.400000
17599 17600 1 0.10860 301825.392000
17599 17601 1 0.13986 296436.400000
17601 17602 1 0.10860 301825.392000
17601 17603 1 0.13986 296436.400000
17603 17604 1 0.10860 301825.392000
17605 17606 1 0.09450 207108.000000
17607 17608 1 0.10860 301825.392000
17608 17609 1 0.13986 296436.400000
17608 17617 1 0.13986 296436.400000
17609 17610 1 0.18850 35430.112000
17609 17611 1 0.13986 296436.400000
17610 17619 1 0.16500 119244.000000
17611 17612 1 0.10860 301825.392000
17611 17613 1 0.13986 296436.400000
17613 17614 1 0.10860 301825.392000
17613 17615 1 0.13986 296436.400000
17615 17616 1 0.10860 301825.392000
17615 17617 1 0.13986 296436.400000
17617 17618 1 0.10860 301825.392000
17619 17620 1 0.09450 207108.000000
17621 17622 1 0.10860 301825.392000
17622 17623 1 0.13986 296436.400000
17622 17631 1 0.13986 296436.400000
17623 17624 1 0.18850 35430.112000
17623 17625 1 0.13986 296436.400000
17624 17633 1 0.16500 119244.000000
17625 17626 1 0.10860 301825.392000
17625 17627 1 0.13986 296436.400000
17627 17628 1 0.10860 301825.392000
17627 17629 1 0.13986 296436.400000
17629 17630 1 0.10860 301825.392000
17629 17631 1 0.13986 296436.400000
17631 17632 1 0.10860 301825.392000
17633 17634 1 0.09450 207108.000000
17635 17636 1 0.10860 301825.392000
17636 17637 1 0.13986 296436.400000
17636 17645 1 0.13986 296436.400000
17637 17638 1 0.18850 35430.112000
17637 17639 1 0.13986 296436.400000
17638 17647 1 0.16500 119244.000000
17639 17640 1 0.10860 301825.392000
17639 17641 1 0.13986 296436.400000
17641 17642 1 0.10860 301825.392000
17641 17643 1 0.13986 296436.400000
17643 17644 1 0.10860 301825.392000
17643 17645 1 0.13986 296436.400000
17645 17646 1 0.10860 301825.392000
17647 17648 1 0.09450 207108.000000
17649 17650 1 0.10860 301825.392000
17650 17651 1 0.13986 296436.400000
17650 17659 1 0.13986 296436.400000
17651 17652 1 0.18850 35430.112000
17651 17653 1 0.13986 296436.400000
17652 17661 1 0.16500 119244.000000
17653 17654 1 0.10860 301825.392000
17653 17655 1 0.13986 296436.400000
17655 17656 1 0.10860 301825.392000
17655 17657 1 0.13986 296436.400000
17657 17658 1 0.10860 301825.392000
17657 17659 1 0.13986 296436.400000
17659 17660 1 0.10860 301825.392000
17661 17662 1 0.09450 207108.000000
17663 17664 1 0.10860 301825.392000
17664 17665 1 0.13986 296436.400000
17664 17673 1 0.13986 296436.400000
17665 17666 1 0.18850 35430.112000
17665 17667 1 0.13986 296436.400000
17666 17675 1 0.16500 119244.000000
17667 17668 1 0.10860 301825.392000
17667 17669 1 0.13986 296436.400000
17669 17670 1 0.10860 301825.392000
17669 17671 1 0.13986 296436.400000
17671 17672 1 0.10860 301825.392000
17671 17673 1 0.13986 296436.400000
17673 17674 1 0.10860 301825.392000
17675 17676 1 0.09450 207108.000000
17677 17678 1 0.10860 301825.392000
17678 17679 1 0.13986 296436.400000
17678 17687 1 0.13986 296436.400000
17679 17680 1 0.18850 35430.112000
17679 17681 1 0.13986 296436.400000
17680 17689 1 0.16500 119244.000000
17681 17682 1 0.10860 301825.392000
17681 17683 1 0.13986 296436.400000
17683 17684 1 0.10860 301825.392000
17683 17685 1 0.13986 296436.400000
17685 17686 1 0.10860 301825.392000
17685 17687 1 0.13986 296436.400000
17687 17688 1 0.10860 301825.392000
17689 17690 1 0.09450 207108.000000
17691 17692 1 0.10860 301825.392000
17692 17693 1 0.13986 296436.400000
17692 17701 1 0.13986 296436.400000
17693 17694 1 0.18850 35430.112000
17693 17695 1 0.13986 296436.400000
17694 17703 1 0.16500 119244.000000
17695 17696 1 0.10860 301825.392000
17695 17697 1 0.13986 296436.400000
17697 17698 1 0.10860 301825.392000
17697 17699 1 0.13986 296436.400000
17699 17700 1 0.10860 301825.392000
17699 17701 1 0.13986 296436.400000
17701 17702 1 0.10860 301825.392000
17703 17704 1 0.09450 207108.000000
17705 17706 1 0.10860 301825.392000
17706 17707 1 0.13986 296436.400000
17706 17715 1 0.13986 296436.400000
17707 17708 1 0.18850 35430.112000
17707 17709 1 0.13986 296436.400000
17708 17717 1 0.16500 119244.000000
17709 17710 1 0.10860 301825.392000
17709 17711 1 0.13986 296436.400000
17711 17712 1 0.10860 301825.392000
17711 17713 1 0.13986 296436.400000
17713 17714 1 0.10860 301825.392000
17713 17715 1 0.13986 296436.400000
17715 17716 1 0.10860 301825.392000
17717 17718 1 0.09450 207108.000000
17719 17720 1 0.10860 301825.392000
17720 17721 1 0.13986 296436.400000
17720 17729 1 0.13986 296436.400000
17721 17722 1 0.18850 35430.112000
17721 17723 1 0.13986 296436.400000
17722 17731 1 0.16500 119244.000000
17723 17724 1 0.10860 301825.392000
17723 17725 1 0.13986 296436.400000
17725 17726 1 0.10860 301825.392000
17725 17727 1 0.13986 296436.400000
17727 17728 1 0.10860 301825.392000
17727 17729 1 0.13986 296436.400000
17729 17730 1 0.10860 301825.392000
17731 17732 1 0.09450 207108.000000
17733 17734 1 0.10860 301825.392000
17734 17735 1 0.13986 296436.400000
17734 17743 1 0.13986 296436.400000
17735 17736 1 0.18850 35430.112000
17735 17737 1 0.13986 296436.400000
17736 17745 1 0.16500 119244.000000
17737 17738 1 0.10860 301825.392000
17737 17739 1 0.13986 296436.400000
17739 17740 1 0.10860 301825.392000
17739 17741 1 0.13986 296436.400000
17741 17742 1 0.10860 301825.392000
17741 17743 1 0.13986 296436.400000
17743 17744 1 0.10860 301825.392000
17745 17746 1 0.09450 207108.000000
17747 17748 1 0.10860 301825.392000
17748 17749 1 0.13986 296436.400000
17748 17757 1 0.13986 296436.400000
17749 17750 1 0.18850 35430.112000
17749 17751 1 0.13986 296436.400000
17750 17759 1 0.16500 119244.000000
17751 17752 1 0.10860 301825.392000
17751 17753 1 0.13986 296436.400000
17753 17754 1 0.10860 301825.392000
17753 17755 1 0.13986 296436.400000
17755 17756 1 0.10860 301825.392000
17755 17757 1 0.13986 296436.400000
17757 17758 1 0.10860 301825.392000
17759 17760 1 0.09450 207108.000000
17761 17762 1 0.10860 301825.392000
17762 17763 1 0.13986 296436.400000
17762 17771 1 0.13986 296436.400000
17763 17764 1 0.18850 35430.112000
17763 17765 1 0.13986 296436.400000
17764 17773 1 0.16500 119244.000000
17765 17766 1 0.10860 301825.392000
17765 17767 1 0.13986 296436.400000
17767 17768 1 0.10860 301825.392000
17767 17769 1 0.13986 296436.400000
17769 17770 1 0.10860 301825.392000
17769 17771 1 0.13986 296436.400000
17771 17772 1 0.10860 301825.392000
17773 17774 1 0.09450 207108.000000
17775 17776 1 0.10860 301825.392000
17776 17777 1 0.13986 296436.400000
17776 17785 1 0.13986 296436.400000
17777 17778 1 0.18850 35430.112000
17777 17779 1 0.13986 296436.400000
17778 17787 1 0.16500 119244.000000
17779 17780 1 0.10860 301825.392000
17779 17781 1 0.13986 296436.400000
17781 17782 1 0.10860 301825.392000
17781 17783 1 0.13986 296436.400000
17783 17784 1 0.10860 301825.392000
17783 17785 1 0.13986 296436.400000
17785 17786 1 0.10860 301825.392000
17787 17788 1 0.09450 207108.000000
17789 17790 1 0.10860 301825.392000
17790 17791 1 0.13986 296436.400000
17790 17799 1 0.13986 296436.400000
17791 17792 1 0.18850 35430.112000
17791 17793 1 0.13986 296436.400000
17792 17801 1 0.16500 119244.000000
17793 17794 1 0.10860 301825.392000
17793 17795 1 0.13986 296436.400000
17795 17796 1 0.10860 301825.392000
17795 17797 1 0.13986 296436.400000
17797 17798 1 0.10860 301825.392000
17797 17799 1 0.13986 296436.400000
17799 17800 1 0.10860 301825.392000
17801 17802 1 0.09450 207108.000000
17803 17804 1 0.10860 301825.392000
17804 17805 1 0.13986 296436.400000
17804 17813 1 0.13986 296436.400000
17805 17806 1 0.18850 35430.112000
17805 17807 1 0.13986 296436.400000
17806 17815 1 0.16500 119244.000000
17807 17808 1 0.10860 301825.392000
17807 17809 1 0.13986 296436.400000
17809 17810 1 0.10860 301825.392000
17809 17811 1 0.13986 296436.400000
17811 17812 1 0.10860 301825.392000
17811 17813 1 0.13986 296436.400000
17813 17814 1 0.10860 301825.392000
17815 17816 1 0.09450 207108.000000
17817 17818 1 0.10860 301825.392000
17818 17819 1 0.13986 296436.400000
17818 17827 1 0.13986 296436.400000
17819 17820 1 0.18850 35430.112000
17819 17821 1 0.13986 296436.400000
17820 17829 1 0.16500 119244.000000
17821 17822 1 0.10860 301825.392000
17821 17823 1 0.13986 296436.400000
17823 17824 1 0.10860 301825.392000
17823 17825 1 0.13986 296436.400000
17825 17826 1 0.10860 301825.392000
17825 17827 1 0.13986 296436.400000
17827 17828 1 0.10860 301825.392000
17829 17830 1 0.09450 207108.000000
17831 17832 1 0.10860 301825.392000
17832 17833 1 0.13986 296436.400000
17832 17841 1 0.13986 296436.400000
17833 17834 1 0.18850 35430.112000
17833 17835 1 0.13986 296436.400000
17834 17843 1 0.16500 119244.000000
17835 17836 1 0.10860 301825.392000
17835 17837 1 0.13986 296436.400000
17837 17838 1 0.10860 301825.392000
17837 17839 1 0.13986 296436.400000
17839 17840 1 0.10860 301825.392000
17839 17841 1 0.13986 296436.400000
17841 17842 1 0.10860 301825.392000
17843 17844 1 0.09450 207108.000000
17845 17846 1 0.10860 301825.392000
17846 17847 1 0.13986 296436.400000
17846 17855 1 0.13986 296436.400000
17847 17848 1 0.18850 35430.112000
17847 17849 1 0.13986 296436.400000
17848 17857 1 0.16500 119244.000000
17849 17850 1 0.10860 301825.392000
17849 17851 1 0.13986 296436.400000
17851 17852 1 0.10860 301825.392000
17851 17853 1 0.13986 296436.400000
17853 17854 1 0.10860 301825.392000
17853 17855 1 0.13986 296436.400000
17855 17856 1 0.10860 301825.392000
17857 17858 1 0.09450 207108.000000
17859 17860 1 0.10860 301825.392000
17860 17861 1 0.13986 296436.400000
17860 17869 1 0.13986 296436.400000
17861 17862 1 0.18850 35430.112000
17861 17863 1 0.13986 296436.400000
17862 17871 1 0.16500 119244.000000
17863 17864 1 0.10860 301825.392000
17863 17865 1 0.13986 296436.400000
17865 17866 1 0.10860 301825.392000
17865 17867 1 0.13986 296436.400000
17867 17868 1 0.10860 301825.392000
17867 17869 1 0.13986 296436.400000
17869 17870 1 0.10860 301825.392000
17871 17872 1 0.09450 207108.000000
17873 17874 1 0.10860 301825.392000
17874 17875 1 0.13986 296436.400000
17874 17883 1 0.13986 296436.400000
17875 17876 1 0.18850 35430.112000
17875 17877 1 0.13986 296436.400000
17876 17885 1 0.16500 119244.000000
17877 17878 1 0.10860 301825.392000
17877 17879 1 0.13986 296436.400000
17879 17880 1 0.10860 301825.392000
17879 17881 1 0.13986 296436.400000
17881 17882 1 0.10860 301825.392000
17881 17883 1 0.13986 296436.400000
17883 17884 1 0.10860 301825.392000
17885 17886 1 0.09450 207108.000000
17887 17888 1 0.10860 301825.392000
17888 17889 1 0.13986 296436.400000
17888 17897 1 0.13986 296436.400000
17889 17890 1 0.18850 35430.112000
17889 17891 1 0.13986 296436.400000
17890 17899 1 0.16500 119244.000000
17891 17892 1 0.10860 301825.392000
17891 17893 1 0.13986 296436.400000
17893 17894 1 0.10860 301825.392000
17893 17895 1 0.13986 296436.400000
17895 17896 1 0.10860 301825.392000
17895 17897 1 0.13986 296436.400000
17897 17898 1 0.10860 301825.392000
17899 17900 1 0.09450 207108.000000
17901 17902 1 0.10860 301825.392000
17902 17903 1 0.13986 296436.400000
17902 17911 1 0.13986 296436.400000
17903 17904 1 0.18850 35430.112000
17903 17905 1 0.13986 296436.400000
17904 17913 1 0.16500 119244.000000
17905 17906 1 0.10860 301825.392000
17905 17907 1 0.13986 296436.400000
17907 17908 1 0.10860 301825.392000
17907 17909 1 0.13986 296436.400000
17909 17910 1 0.10860 301825.392000
17909 17911 1 0.13986 296436.400000
17911 17912 1 0.10860 301825.392000
17913 17914 1 0.09450 207108.000000
17915 17916 1 0.10860 301825.392000
17916 17917 1 0.13986 296436.400000
17916 17925 1 0.13986 296436.400000
17917 17918 1 0.18850 35430.112000
17917 17919 1 0.13986 296436.400000
17918 17927 1 0.16500 119244.000000
17919 17920 1 0.10860 301825.392000
17919 17921 1 0.13986 296436.400000
17921 17922 1 0.10860 301825.392000
17921 17923 1 0.13986 296436.400000
17923 17924 1 0.10860 301825.392000
17923 17925 1 0.13986 296436.400000
17925 17926 1 0.10860 301825.392000
17927 17928 1 0.09450 207108.000000
17929 17930 1 0.10860 301825.392000
17930 17931 1 0.13986 296436.400000
17930 17939 1 0.13986 296436.400000
17931 17932 1 0.18850 35430.112000
17931 17933 1 0.13986 296436.400000
17932 17941 1 0.16500 119244.000000
17933 17934 1 0.10860 301825.392000
17933 17935 1 0.13986 296436.400000
17935 17936 1 0.10860 301825.392000
17935 17937 1 0.13986 296436.400000
17937 17938 1 0.10860 301825.392000
17937 17939 1 0.13986 296436.400000
17939 17940 1 0.10860 301825.392000
17941 17942 1 0.09450 207108.000000
17943 17944 1 0.10860 301825.392000
17944 17945 1 0.13986 296436.400000
17944 17953 1 0.13986 296436.400000
17945 17946 1 0.18850 35430.112000
17945 17947 1 0.13986 296436.400000
17946 17955 1 0.16500 119244.000000
17947 17948 1 0.10860 301825.392000
17947 17949 1 0.13986 296436.400000
17949 17950 1 0.10860 301825.392000
17949 17951 1 0.13986 296436.400000
17951 17952 1 0.10860 301825.392000
17951 17953 1 0.13986 296436.400000
17953 17954 1 0.10860 301825.392000
17955 17956 1 0.09450 207108.000000
17957 17958 1 0.10860 301825.392000
17958 17959 1 0.13986 296436.400000
17958 17967 1 0.13986 296436.400000
17959 17960 1 0.18850 35430.112000
17959 17961 1 0.13986 296436.400000
17960 17969 1 0.16500 119244.000000
17961 17962 1 0.10860 301825.392000
17961 17963 1 0.13986 296436.400000
17963 17964 1 0.10860 301825.392000
17963 17965 1 0.13986 296436.400000
17965 17966 1 0.10860 301825.392000
17965 17967 1 0.13986 296436.400000
17967 17968 1 0.10860 301825.392000
17969 17970 1 0.09450 207108.000000
17971 17972 1 0.10860 301825.392000
17972 17973 1 0.13986 296436.400000
17972 17981 1 0.13986 296436.400000
17973 17974 1 0.18850 35430.112000
17973 17975 1 0.13986 296436.400000
17974 17983 1 0.16500 119244.000000
17975 17976 1 0.10860 301825.392000
17975 17977 1 0.13986 296436.400000
17977 17978 1 0.10860 301825.392000
17977 17979 1 0.13986 296436.400000
17979 17980 1 0.10860 301825.392000
17979 17981 1 0.13986 296436.400000
17981 17982 1 0.10860 301825.392000
17983 17984 1 0.09450 207108.000000
17985 17986 1 0.10860 301825.392000
17986 17987 1 0.13986 296436.400000
17986 17995 1 0.13986 296436.400000
17987 17988 1 0.18850 35430.112000
17987 17989 1 0.13986 296436.400000
17988 17997 1 0.16500 119244.000000
17989 17990 1 0.10860 301825.392000
17989 17991 1 0.13986 296436.400000
17991 17992 1 0.10860 301825.392000
17991 17993 1 0.13986 296436.400000
17993 17994 1 0.10860 301825.392000
17993 17995 1 0.13986 296436.400000
17995 17996 1 0.10860 301825.392000
17997 17998 1 0.09450 207108.000000
17999 18000 1 0.10860 301825.392000
18000 18001 1 0.13986 296436.400000
18000 18009 1 0.13986 296436.400000
18001 18002 1 0.18850 35430.112000
18001 18003 1 0.13986 296436.400000
18002 18011 1 0.16500 119244.000000
18003 18004 1 0.10860 301825.392000
18003 18005 1 0.13986 296436.400000
18005 18006 1 0.10860 301825.392000
18005 18007 1 0.13986 296436.400000
18007 18008 1 0.10860 301825.392000
18007 18009 1 0.13986 296436.400000
18009 18010 1 0.10860 301825.392000
18011 18012 1 0.09450 207108.000000
18013 18014 1 0.10860 301825.392000
18014 18015 1 0.13986 296436.400000
18014 18023 1 0.13986 296436.400000
18015 18016 1 0.18850 35430.112000
18015 18017 1 0.13986 296436.400000
18016 18025 1 0.16500 119244.000000
18017 18018 1 0.10860 301825.392000
18017 18019 1 0.13986 296436.400000
18019 18020 1 0.10860 301825.392000
18019 18021 1 0.13986 296436.400000
18021 18022 1 0.10860 301825.392000
18021 18023 1 0.13986 296436.400000
18023 18024 1 0.10860 301825.392000
18025 18026 1 0.09450 207108.000000
18027 18028 1 0.10860 301825.392000
18028 18029 1 0.13986 296436.400000
18028 18037 1 0.13986 296436.400000
18029 18030 1 0.18850 35430.112000
18029 18031 1 0.13986 296436.400000
18030 18039 1 0.16500 119244.000000
18031 18032 1 0.10860 301825.392000
18031 18033 1 0.13986 296436.400000
18033 18034 1 0.10860 301825.392000
18033 18035 1 0.13986 296436.400000
18035 18036 1 0.10860 301825.392000
18035 18037 1 0.13986 296436.400000
18037 18038 1 0.10860 301825.392000
18039 18040 1 0.09450 207108.000000
18041 18042 1 0.10860 301825.392000
18042 18043 1 0.13986 296436.400000
18042 18051 1 0.13986 296436.400000
18043 18044 1 0.18850 35430.112000
18043 18045 1 0.13986 296436.400000
18044 18053 1 0.16500 119244.000000
18045 18046 1 0.10860 301825.392000
18045 18047 1 0.13986 296436.400000
18047 18048 1 0.10860 301825.392000
18047 18049 1 0.13986 296436.400000
18049 18050 1 0.10860 301825.392000
18049 18051 1 0.13986 296436.400000
18051 18052 1 0.10860 301825.392000
18053 18054 1 0.09450 207108.000000
18055 18056 1 0.10860 301825.392000
18056 18057 1 0.13986 296436.400000
18056 18065 1 0.13986 296436.400000
18057 18058 1 0.18850 35430.112000
18057 18059 1 0.13986 296436.400000
18059 18060 1 0.10860 301825.392000
18059 18061 1 0.13986 296436.400000
18061 18062 1 0.10860 301825.392000
18061 18063 1 0.13986 296436.400000
18063 18064 1 0.10860 301825.392000
18063 18065 1 0.13986 296436.400000
18065 18066 1 0.10860 301825.392000
18067 18068 1 0.10860 301825.392000
18068 18069 1 0.13986 296436.400000
18068 18077 1 0.13986 296436.400000
18069 18070 1 0.18850 35430.112000
18069 18071 1 0.13986 296436.400000
18071 18072 1 0.10860 301825.392000
18071 18073 1 0.13986 296436.400000
18073 18074 1 0.10860 301825.392000
18073 18075 1 0.13986 296436.400000
18075 18076 1 0.10860 301825.392000
18075 18077 1 0.13986 296436.400000
18077 18078 1 0.10860 301825.392000
18079 18080 1 0.10860 301825.392000
18080 18081 1 0.13986 296436.400000
18080 18089 1 0.13986 296436.400000
18081 18082 1 0.18850 35430.112000
18081 18083 1 0.13986 296436.400000
18083 18084 1 0.10860 301825.392000
18083 18085 1 0.13986 296436.400000
18085 18086 1 0.10860 301825.392000
18085 18087 1 0.13986 296436.400000
18087 18088 1 0.10860 301825.392000
18087 18089 1 0.13986 296436.400000
18089 18090 1 0.10860 301825.392000
18091 18092 1 0.10860 301825.392000
18092 18093 1 0.13986 296436.400000
18092 18101 1 0.13986 296436.400000
18093 18094 1 0.18850 35430.112000
18093 18095 1 0.13986 296436.400000
18095 18096 1 0.10860 301825.392000
18095 18097 1 0.13986 296436.400000
18097 18098 1 0.10860 301825.392000
18097 18099 1 0.13986 296436.400000
18099 18100 1 0.10860 301825.392000
18099 18101 1 0.13986 296436.400000
18101 18102 1 0.10860 301825.392000
18103 18104 1 0.10860 301825.392000
18104 18105 1 0.13986 296436.400000
18104 18113 1 0.13986 296436.400000
18105 18106 1 0.18850 35430.112000
18105 18107 1 0.13986 296436.400000
18107 18108 1 0.10860 301825.392000
18107 18109 1 0.13986 296436.400000
18109 18110 1 0.10860 301825.392000
18109 18111 1 0.13986 296436.400000
18111 18112 1 0.10860 301825.392000
18111 18113 1 0.13986 296436.400000
18113 18114 1 0.10860 301825.392000
18115 18116 1 0.10860 301825.392000
18116 18117 1 0.13986 296436.400000
18116 18125 1 0.13986 296436.400000
18117 18118 1 0.18850 35430.112000
18117 18119 1 0.13986 296436.400000
18119 18120 1 0.10860 301825.392000
18119 18121 1 0.13986 296436.400000
18121 18122 1 0.10860 301825.392000
18121 18123 1 0.13986 296436.400000
18123 18124 1 0.10860 301825.392000
18123 18125 1 0.13986 296436.400000
18125 18126 1 0.10860 301825.392000
18127 18128 1 0.10860 301825.392000
18128 18129 1 0.13986 296436.400000
18128 18137 1 0.13986 296436.400000
18129 18130 1 0.18850 35430.112000
18129 18131 1 0.13986 296436.400000
18131 18132 1 0.10860 301825.392000
18131 18133 1 0.13986 296436.400000
18133 18134 1 0.10860 301825.392000
18133 18135 1 0.13986 296436.400000
18135 18136 1 0.10860 301825.392000
18135 18137 1 0.13986 296436.400000
18137 18138 1 0.10860 301825.392000
18139 18140 1 0.10860 301825.392000
18140 18141 1 0.13986 296436.400000
18140 18149 1 0.13986 296436.400000
18141 18142 1 0.18850 35430.112000
18141 18143 1 0.13986 296436.400000
18143 18144 1 0.10860 301825.392000
18143 18145 1 0.13986 296436.400000
18145 18146 1 0.10860 301825.392000
18145 18147 1 0.13986 296436.400000
18147 18148 1 0.10860 301825.392000
18147 18149 1 0.13986 296436.400000
18149 18150 1 0.10860 301825.392000
18151 18152 1 0.10860 301825.392000
18152 18153 1 0.13986 296436.400000
18152 18161 1 0.13986 296436.400000
18153 18154 1 0.18850 35430.112000
18153 18155 1 0.13986 296436.400000
18155 18156 1 0.10860 301825.392000
18155 18157 1 0.13986 296436.400000
18157 18158 1 0.10860 301825.392000
18157 18159 1 0.13986 296436.400000
18159 18160 1 0.10860 301825.392000
18159 18161 1 0.13986 296436.400000
18161 18162 1 0.10860 301825.392000
18163 18164 1 0.10860 301825.392000
18164 18165 1 0.13986 296436.400000
18164 18173 1 0.13986 296436.400000
18165 18166 1 0.18850 35430.112000
18165 18167 1 0.13986 296436.400000
18167 18168 1 0.10860 301825.392000
18167 18169 1 0.13986 296436.400000
18169 18170 1 0.10860 301825.392000
18169 18171 1 0.13986 296436.400000
18171 18172 1 0.10860 301825.392000
18171 18173 1 0.13986 296436.400000
18173 18174 1 0.10860 301825.392000
18175 18176 1 0.10860 301825.392000
18176 18177 1 0.13986 296436.400000
18176 18185 1 0.13986 296436.400000
18177 18178 1 0.18850 35430.112000
18177 18179 1 0.13986 296436.400000
18179 18180 1 0.10860 301825.392000
18179 18181 1 0.13986 296436.400000
18181 18182 1 0.10860 301825.392000
18181 18183 1 0.13986 296436.400000
18183 18184 1 0.10860 301825.392000
18183 18185 1 0.13986 296436.400000
18185 18186 1 0.10860 301825.392000
18187 18188 1 0.10860 301825.392000
18188 18189 1 0.13986 296436.400000
18188 18197 1 0.13986 296436.400000
18189 18190 1 0.18850 35430.112000
18189 18191 1 0.13986 296436.400000
18191 18192 1 0.10860 301825.392000
18191 18193 1 0.13986 296436.400000
18193 18194 1 0.10860 301825.392000
18193 18195 1 0.13986 296436.400000
18195 18196 1 0.10860 301825.392000
18195 18197 1 0.13986 296436.400000
18197 18198 1 0.10860 301825.392000
18199 18200 1 0.10860 301825.392000
18200 18201 1 0.13986 296436.400000
18200 18209 1 0.13986 296436.400000
18201 18202 1 0.18850 35430.112000
18201 18203 1 0.13986 296436.400000
18203 18204 1 0.10860 301825.392000
18203 18205 1 0.13986 296436.400000
18205 18206 1 0.10860 301825.392000
18205 18207 1 0.13986 296436.400000
18207 18208 1 0.10860 301825.392000
18207 18209 1 0.13986 296436.400000
18209 18210 1 0.10860 301825.392000
18211 18212 1 0.10860 301825.392000
18212 18213 1 0.13986 296436.400000
18212 18221 1 0.13986 296436.400000
18213 18214 1 0.18850 35430.112000
18213 18215 1 0.13986 296436.400000
18215 18216 1 0.10860 301825.392000
18215 18217 1 0.13986 296436.400000
18217 18218 1 0.10860 301825.392000
18217 18219 1 0.13986 296436.400000
18219 18220 1 0.10860 301825.392000
18219 18221 1 0.13986 296436.400000
18221 18222 1 0.10860 301825.392000
18223 18224 1 0.10860 301825.392000
18224 18225 1 0.13986 296436.400000
18224 18233 1 0.13986 296436.400000
18225 18226 1 0.18850 35430.112000
18225 18227 1 0.13986 296436.400000
18227 18228 1 0.10860 301825.392000
18227 18229 1 0.13986 296436.400000
18229 18230 1 0.10860 301825.392000
18229 18231 1 0.13986 296436.400000
18231 18232 1 0.10860 301825.392000
18231 18233 1 0.13986 296436.400000
18233 18234 1 0.10860 301825.392000
18235 18236 1 0.10860 301825.392000
18236 18237 1 0.13986 296436.400000
18236 18245 1 0.13986 296436.400000
18237 18238 1 0.18850 35430.112000
18237 18239 1 0.13986 296436.400000
18239 18240 1 0.10860 301825.392000
18239 18241 1 0.13986 296436.400000
18241 18242 1 0.10860 301825.392000
18241 18243 1 0.13986 296436.400000
18243 18244 1 0.10860 301825.392000
18243 18245 1 0.13986 296436.400000
18245 18246 1 0.10860 301825.392000
18247 18248 1 0.10860 301825.392000
18248 18249 1 0.13986 296436.400000
18248 18257 1 0.13986 296436.400000
18249 18250 1 0.18850 35430.112000
18249 18251 1 0.13986 296436.400000
18251 18252 1 0.10860 301825.392000
18251 18253 1 0.13986 296436.400000
18253 18254 1 0.10860 301825.392000
18253 18255 1 0.13986 296436.400000
18255 18256 1 0.10860 301825.392000
18255 18257 1 0.13986 296436.400000
18257 18258 1 0.10860 301825.392000
18259 18260 1 0.10860 301825.392000
18260 18261 1 0.13986 296436.400000
18260 18269 1 0.13986 296436.400000
18261 18262 1 0.18850 35430.112000
18261 18263 1 0.13986 296436.400000
18263 18264 1 0.10860 301825.392000
18263 18265 1 0.13986 296436.400000
18265 18266 1 0.10860 301825.392000
18265 18267 1 0.13986 296436.400000
18267 18268 1 0.10860 301825.392000
18267 18269 1 0.13986 296436.400000
18269 18270 1 0.10860 301825.392000
18271 18272 1 0.10860 301825.392000
18272 18273 1 0.13986 296436.400000
18272 18281 1 0.13986 296436.400000
18273 18274 1 0.18850 35430.112000
18273 18275 1 0.13986 296436.400000
18275 18276 1 0.10860 301825.392000
18275 18277 1 0.13986 296436.400000
18277 18278 1 0.10860 301825.392000
18277 18279 1 0.13986 296436.400000
18279 18280 1 0.10860 301825.392000
18279 18281 1 0.13986 296436.400000
18281 18282 1 0.10860 301825.392000
18283 18284 1 0.10860 301825.392000
18284 18285 1 0.13986 296436.400000
18284 18293 1 0.13986 296436.400000
18285 18286 1 0.18850 35430.112000
18285 18287 1 0.13986 296436.400000
18287 18288 1 0.10860 301825.392000
18287 18289 1 0.13986 296436.400000
18289 18290 1 0.10860 301825.392000
18289 18291 1 0.13986 296436.400000
18291 18292 1 0.10860 301825.392000
18291 18293 1 0.13986 296436.400000
18293 18294 1 0.10860 301825.392000
18295 18296 1 0.10860 301825.392000
18296 18297 1 0.13986 296436.400000
18296 18305 1 0.13986 296436.400000
18297 18298 1 0.18850 35430.112000
18297 18299 1 0.13986 296436.400000
18299 18300 1 0.10860 301825.392000
18299 18301 1 0.13986 296436.400000
18301 18302 1 0.10860 301825.392000
18301 18303 1 0.13986 296436.400000
18303 18304 1 0.10860 301825.392000
18303 18305 1 0.13986 296436.400000
18305 18306 1 0.10860 301825.392000
18307 18308 1 0.10860 301825.392000
18308 18309 1 0.13986 296436.400000
18308 18317 1 0.13986 296436.400000
18309 18310 1 0.18850 35430.112000
18309 18311 1 0.13986 296436.400000
18311 18312 1 0.10860 301825.392000
18311 18313 1 0.13986 296436.400000
18313 18314 1 0.10860 301825.392000
18313 18315 1 0.13986 296436.400000
18315 18316 1 0.10860 301825.392000
18315 18317 1 0.13986 296436.400000
18317 18318 1 0.10860 301825.392000
18319 18320 1 0.10860 301825.392000
18320 18321 1 0.13986 296436.400000
18320 18329 1 0.13986 296436.400000
18321 18322 1 0.18850 35430.112000
18321 18323 1 0.13986 296436.400000
18323 18324 1 0.10860 301825.392000
18323 18325 1 0.13986 296436.400000
18325 18326 1 0.10860 301825.392000
18325 18327 1 0.13986 296436.400000
18327 18328 1 0.10860 301825.392000
18327 18329 1 0.13986 296436.400000
18329 18330 1 0.10860 301825.392000
18331 18332 1 0.10860 301825.392000
18332 18333 1 0.13986 296436.400000
18332 18341 1 0.13986 296436.400000
18333 18334 1 0.18850 35430.112000
18333 18335 1 0.13986 296436.400000
18335 18336 1 0.10860 301825.392000
18335 18337 1 0.13986 296436.400000
18337 18338 1 0.10860 301825.392000
18337 18339 1 0.13986 296436.400000
18339 18340 1 0.10860 301825.392000
18339 18341 1 0.13986 296436.400000
18341 18342 1 0.10860 301825.392000
18343 18344 1 0.10860 301825.392000
18344 18345 1 0.13986 296436.400000
18344 18353 1 0.13986 296436.400000
18345 18346 1 0.18850 35430.112000
18345 18347 1 0.13986 296436.400000
18347 18348 1 0.10860 301825.392000
18347 18349 1 0.13986 296436.400000
18349 18350 1 0.10860 301825.392000
18349 18351 1 0.13986 296436.400000
18351 18352 1 0.10860 301825.392000
18351 18353 1 0.13986 296436.400000
18353 18354 1 0.10860 301825.392000
18355 18356 1 0.10860 301825.392000
18356 18357 1 0.13986 296436.400000
18356 18365 1 0.13986 296436.400000
18357 18358 1 0.18850 35430.112000
18357 18359 1 0.13986 296436.400000
18359 18360 1 0.10860 301825.392000
18359 18361 1 0.13986 296436.400000
18361 18362 1 0.10860 301825.392000
18361 18363 1 0.13986 296436.400000
18363 18364 1 0.10860 301825.392000
18363 18365 1 0.13986 296436.400000
18365 18366 1 0.10860 301825.392000
18367 18368 1 0.10860 301825.392000
18368 18369 1 0.13986 296436.400000
18368 18377 1 0.13986 296436.400000
18369 18370 1 0.18850 35430.112000
18369 18371 1 0.13986 296436.400000
18371 18372 1 0.10860 301825.392000
18371 18373 1 0.13986 296436.400000
18373 18374 1 0.10860 301825.392000
18373 18375 1 0.13986 296436.400000
18375 18376 1 0.10860 301825.392000
18375 18377 1 0.13986 296436.400000
18377 18378 1 0.10860 301825.392000
18379 18380 1 0.10860 301825.392000
18380 18381 1 0.13986 296436.400000
18380 18389 1 0.13986 296436.400000
18381 18382 1 0.18850 35430.112000
18381 18383 1 0.13986 296436.400000
18383 18384 1 0.10860 301825.392000
18383 18385 1 0.13986 296436.400000
18385 18386 1 0.10860 301825.392000
18385 18387 1 0.13986 296436.400000
18387 18388 1 0.10860 301825.392000
18387 18389 1 0.13986 296436.400000
18389 18390 1 0.10860 301825.392000
18391 18392 1 0.10860 301825.392000
18392 18393 1 0.13986 296436.400000
18392 18401 1 0.13986 296436.400000
18393 18394 1 0.18850 35430.112000
18393 18395 1 0.13986 296436.400000
18395 18396 1 0.10860 301825.392000
18395 18397 1 0.13986 296436.400000
18397 18398 1 0.10860 301825.392000
18397 18399 1 0.13986 296436.400000
18399 18400 1 0.10860 301825.392000
18399 18401 1 0.13986 296436.400000
18401 18402 1 0.10860 301825.392000
18403 18404 1 0.10860 301825.392000
18404 18405 1 0.13986 296436.400000
18404 18413 1 0.13986 296436.400000
18405 18406 1 0.18850 35430.112000
18405 18407 1 0.13986 296436.400000
18407 18408 1 0.10860 301825.392000
18407 18409 1 0.13986 296436.400000
18409 18410 1 0.10860 301825.392000
18409 18411 1 0.13986 296436.400000
18411 18412 1 0.10860 301825.392000
18411 18413 1 0.13986 296436.400000
18413 18414 1 0.10860 301825.392000
18415 18416 1 0.10860 301825.392000
18416 18417 1 0.13986 296436.400000
18416 18425 1 0.13986 296436.400000
18417 18418 1 0.18850 35430.112000
18417 18419 1 0.13986 296436.400000
18419 18420 1 0.10860 301825.392000
18419 18421 1 0.13986 296436.400000
18421 18422 1 0.10860 301825.392000
18421 18423 1 0.13986 296436.400000
18423 18424 1 0.10860 301825.392000
18423 18425 1 0.13986 296436.400000
18425 18426 1 0.10860 301825.392000
18427 18428 1 0.10860 301825.392000
18428 18429 1 0.13986 296436.400000
18428 18437 1 0.13986 296436.400000
18429 18430 1 0.18850 35430.112000
18429 18431 1 0.13986 296436.400000
18431 18432 1 0.10860 301825.392000
18431 18433 1 0.13986 296436.400000
18433 18434 1 0.10860 301825.392000
18433 18435 1 0.13986 296436.400000
18435 18436 1 0.10860 301825.392000
18435 18437 1 0.13986 296436.400000
18437 18438 1 0.10860 301825.392000
18439 18440 1 0.10860 301825.392000
18440 18441 1 0.13986 296436.400000
18440 18449 1 0.13986 296436.400000
18441 18442 1 0.18850 35430.112000
18441 18443 1 0.13986 296436.400000
18443 18444 1 0.10860 301825.392000
18443 18445 1 0.13986 296436.400000
18445 18446 1 0.10860 301825.392000
18445 18447 1 0.13986 296436.400000
18447 18448 1 0.10860 301825.392000
18447 18449 1 0.13986 296436.400000
18449 18450 1 0.10860 301825.392000
18451 18452 1 0.10860 301825.392000
18452 18453 1 0.13986 296436.400000
18452 18461 1 0.13986 296436.400000
18453 18454 1 0.18850 35430.112000
18453 18455 1 0.13986 296436.400000
18455 18456 1 0.10860 301825.392000
18455 18457 1 0.13986 296436.400000
18457 18458 1 0.10860 301825.392000
18457 18459 1 0.13986 296436.400000
18459 18460 1 0.10860 301825.392000
18459 18461 1 0.13986 296436.400000
18461 18462 1 0.10860 301825.392000
18463 18464 1 0.10860 301825.392000
18464 18465 1 0.13986 296436.400000
18464 18473 1 0.13986 296436.400000
18465 18466 1 0.18850 35430.112000
18465 18467 1 0.13986 296436.400000
18467 18468 1 0.10860 301825.392000
18467 18469 1 0.13986 296436.400000
18469 18470 1 0.10860 301825.392000
18469 18471 1 0.13986 296436.400000
18471 18472 1 0.10860 301825.392000
18471 18473 1 0.13986 296436.400000
18473 18474 1 0.10860 301825.392000
18475 18476 1 0.10860 301825.392000
18476 18477 1 0.13986 296436.400000
18476 18485 1 0.13986 296436.400000
18477 18478 1 0.18850 35430.112000
18477 18479 1 0.13986 296436.400000
18479 18480 1 0.10860 301825.392000
18479 18481 1 0.13986 296436.400000
18481 18482 1 0.10860 301825.392000
18481 18483 1 0.13986 296436.400000
18483 18484 1 0.10860 301825.392000
18483 18485 1 0.13986 296436.400000
18485 18486 1 0.10860 301825.392000
18487 18488 1 0.10860 301825.392000
18488 18489 1 0.13986 296436.400000
18488 18497 1 0.13986 296436.400000
18489 18490 1 0.18850 35430.112000
18489 18491 1 0.13986 296436.400000
18491 18492 1 0.10860 301825.392000
18491 18493 1 0.13986 296436.400000
18493 18494 1 0.10860 301825.392000
18493 18495 1 0.13986 296436.400000
18495 18496 1 0.10860 301825.392000
18495 18497 1 0.13986 296436.400000
18497 18498 1 0.10860 301825.392000
18499 18500 1 0.10860 301825.392000
18500 18501 1 0.13986 296436.400000
18500 18509 1 0.13986 296436.400000
18501 18502 1 0.18850 35430.112000
18501 18503 1 0.13986 296436.400000
18503 18504 1 0.10860 301825.392000
18503 18505 1 0.13986 296436.400000
18505 18506 1 0.10860 301825.392000
18505 18507 1 0.13986 296436.400000
18507 18508 1 0.10860 301825.392000
18507 18509 1 0.13986 296436.400000
18509 18510 1 0.10860 301825.392000
18511 18512 1 0.10860 301825.392000
18512 18513 1 0.13986 296436.400000
18512 18521 1 0.13986 296436.400000
18513 18514 1 0.18850 35430.112000
18513 18515 1 0.13986 296436.400000
18515 18516 1 0.10860 301825.392000
18515 18517 1 0.13986 296436.400000
18517 18518 1 0.10860 301825.392000
18517 18519 1 0.13986 296436.400000
18519 18520 1 0.10860 301825.392000
18519 18521 1 0.13986 296436.400000
18521 18522 1 0.10860 301825.392000
18523 18524 1 0.10860 301825.392000
18524 18525 1 0.13986 296436.400000
18524 18533 1 0.13986 296436.400000
18525 18526 1 0.18850 35430.112000
18525 18527 1 0.13986 296436.400000
18527 18528 1 0.10860 301825.392000
18527 18529 1 0.13986 296436.400000
18529 18530 1 0.10860 301825.392000
18529 18531 1 0.13986 296436.400000
18531 18532 1 0.10860 301825.392000
18531 18533 1 0.13986 296436.400000
18533 18534 1 0.10860 301825.392000
18535 18536 1 0.10860 301825.392000
18536 18537 1 0.13986 296436.400000
18536 18545 1 0.13986 296436.400000
18537 18538 1 0.18850 35430.112000
18537 18539 1 0.13986 296436.400000
18539 18540 1 0.10860 301825.392000
18539 18541 1 0.13986 296436.400000
18541 18542 1 0.10860 301825.392000
18541 18543 1 0.13986 296436.400000
18543 18544 1 0.10860 301825.392000
18543 18545 1 0.13986 296436.400000
18545 18546 1 0.10860 301825.392000
18547 18548 1 0.10860 301825.392000
18548 18549 1 0.13986 296436.400000
18548 18557 1 0.13986 296436.400000
18549 18550 1 0.18850 35430.112000
18549 18551 1 0.13986 296436.400000
18551 18552 1 0.10860 301825.392000
18551 18553 1 0.13986 296436.400000
18553 18554 1 0.10860 301825.392000
18553 18555 1 0.13986 296436.400000
18555 18556 1 0.10860 301825.392000
18555 18557 1 0.13986 296436.400000
18557 18558 1 0.10860 301825.392000
18559 18560 1 0.10860 301825.392000
18560 18561 1 0.13986 296436.400000
18560 18569 1 0.13986 296436.400000
18561 18562 1 0.18850 35430.112000
18561 18563 1 0.13986 296436.400000
18563 18564 1 0.10860 301825.392000
18563 18565 1 0.13986 296436.400000
18565 18566 1 0.10860 301825.392000
18565 18567 1 0.13986 296436.400000
18567 18568 1 0.10860 301825.392000
18567 18569 1 0.13986 296436.400000
18569 18570 1 0.10860 301825.392000
18571 18572 1 0.10860 301825.392000
18572 18573 1 0.13986 296436.400000
18572 18581 1 0.13986 296436.400000
18573 18574 1 0.18850 35430.112000
18573 18575 1 0.13986 296436.400000
18575 18576 1 0.10860 301825.392000
18575 18577 1 0.13986 296436.400000
18577 18578 1 0.10860 301825.392000
18577 18579 1 0.13986 296436.400000
18579 18580 1 0.10860 301825.392000
18579 18581 1 0.13986 296436.400000
18581 18582 1 0.10860 301825.392000
18583 18584 1 0.10860 301825.392000
18584 18585 1 0.13986 296436.400000
18584 18593 1 0.13986 296436.400000
18585 18586 1 0.18850 35430.112000
18585 18587 1 0.13986 296436.400000
18587 18588 1 0.10860 301825.392000
18587 18589 1 0.13986 296436.400000
18589 18590 1 0.10860 301825.392000
18589 18591 1 0.13986 296436.400000
18591 18592 1 0.10860 301825.392000
18591 18593 1 0.13986 296436.400000
18593 18594 1 0.10860 301825.392000
18595 18596 1 0.10860 301825.392000
18596 18597 1 0.13986 296436.400000
18596 18605 1 0.13986 296436.400000
18597 18598 1 0.18850 35430.112000
18597 18599 1 0.13986 296436.400000
18599 18600 1 0.10860 301825.392000
18599 18601 1 0.13986 296436.400000
18601 18602 1 0.10860 301825.392000
18601 18603 1 0.13986 296436.400000
18603 18604 1 0.10860 301825.392000
18603 18605 1 0.13986 296436.400000
18605 18606 1 0.10860 301825.392000
18607 18608 1 0.10860 301825.392000
18608 18609 1 0.13986 296436.400000
18608 18617 1 0.13986 296436.400000
18609 18610 1 0.18850 35430.112000
18609 18611 1 0.13986 296436.400000
18611 18612 1 0.10860 301825.392000
18611 18613 1 0.13986 296436.400000
18613 18614 1 0.10860 301825.392000
18613 18615 1 0.13986 296436.400000
18615 18616 1 0.10860 301825.392000
18615 18617 1 0.13986 296436.400000
18617 18618 1 0.10860 301825.392000
18619 18620 1 0.10860 301825.392000
18620 18621 1 0.13986 296436.400000
18620 18629 1 0.13986 296436.400000
18621 18622 1 0.18850 35430.112000
18621 18623 1 0.13986 296436.400000
18623 18624 1 0.10860 301825.392000
18623 18625 1 0.13986 296436.400000
18625 18626 1 0.10860 301825.392000
18625 18627 1 0.13986 296436.400000
18627 18628 1 0.10860 301825.392000
18627 18629 1 0.13986 296436.400000
18629 18630 1 0.10860 301825.392000
18631 18632 1 0.10860 301825.392000
18632 18633 1 0.13986 296436.400000
18632 18641 1 0.13986 296436.400000
18633 18634 1 0.18850 35430.112000
18633 18635 1 0.13986 296436.400000
18635 18636 1 0.10860 301825.392000
18635 18637 1 0.13986 296436.400000
18637 18638 1 0.10860 301825.392000
18637 18639 1 0.13986 296436.400000
18639 18640 1 0.10860 301825.392000
18639 18641 1 0.13986 296436.400000
18641 18642 1 0.10860 301825.392000
18643 18644 1 0.10860 301825.392000
18644 18645 1 0.13986 296436.400000
18644 18653 1 0.13986 296436.400000
18645 18646 1 0.18850 35430.112000
18645 18647 1 0.13986 296436.400000
18647 18648 1 0.10860 301825.392000
18647 18649 1 0.13986 296436.400000
18649 18650 1 0.10860 301825.392000
18649 18651 1 0.13986 296436.400000
18651 18652 1 0.10860 301825.392000
18651 18653 1 0.13986 296436.400000
18653 18654 1 0.10860 301825.392000
18655 18656 1 0.10860 301825.392000
18656 18657 1 0.13986 296436.400000
18656 18665 1 0.13986 296436.400000
18657 18658 1 0.18850 35430.112000
18657 18659 1 0.13986 296436.400000
18659 18660 1 0.10860 301825.392000
18659 18661 1 0.13986 296436.400000
18661 18662 1 0.10860 301825.392000
18661 18663 1 0.13986 296436.400000
18663 18664 1 0.10860 301825.392000
18663 18665 1 0.13986 296436.400000
18665 18666 1 0.10860 301825.392000
18667 18668 1 0.10860 301825.392000
18668 18669 1 0.13986 296436.400000
18668 18677 1 0.13986 296436.400000
18669 18670 1 0.18850 35430.112000
18669 18671 1 0.13986 296436.400000
18671 18672 1 0.10860 301825.392000
18671 18673 1 0.13986 296436.400000
18673 18674 1 0.10860 301825.392000
18673 18675 1 0.13986 296436.400000
18675 18676 1 0.10860 301825.392000
18675 18677 1 0.13986 296436.400000
18677 18678 1 0.10860 301825.392000
18679 18680 1 0.10860 301825.392000
18680 18681 1 0.13986 296436.400000
18680 18689 1 0.13986 296436.400000
18681 18682 1 0.18850 35430.112000
18681 18683 1 0.13986 296436.400000
18683 18684 1 0.10860 301825.392000
18683 18685 1 0.13986 296436.400000
18685 18686 1 0.10860 301825.392000
18685 18687 1 0.13986 296436.400000
18687 18688 1 0.10860 301825.392000
18687 18689 1 0.13986 296436.400000
18689 18690 1 0.10860 301825.392000
18691 18692 1 0.10860 301825.392000
18692 18693 1 0.13986 296436.400000
18692 18701 1 0.13986 296436.400000
18693 18694 1 0.18850 35430.112000
18693 18695 1 0.13986 296436.400000
18695 18696 1 0.10860 301825.392000
18695 18697 1 0.13986 296436.400000
18697 18698 1 0.10860 301825.392000
18697 18699 1 0.13986 296436.400000
18699 18700 1 0.10860 301825.392000
18699 18701 1 0.13986 296436.400000
18701 18702 1 0.10860 301825.392000
18703 18704 1 0.10860 301825.392000
18704 18705 1 0.13986 296436.400000
18704 18713 1 0.13986 296436.400000
18705 18706 1 0.18850 35430.112000
18705 18707 1 0.13986 296436.400000
18707 18708 1 0.10860 301825.392000
18707 18709 1 0.13986 296436.400000
18709 18710 1 0.10860 301825.392000
18709 18711 1 0.13986 296436.400000
18711 18712 1 0.10860 301825.392000
18711 18713 1 0.13986 296436.400000
18713 18714 1 0.10860 301825.392000
18715 18716 1 0.10860 301825.392000
18716 18717 1 0.13986 296436.400000
18716 18725 1 0.13986 296436.400000
18717 18718 1 0.18850 35430.112000
18717 18719 1 0.13986 296436.400000
18719 18720 1 0.10860 301825.392000
18719 18721 1 0.13986 296436.400000
18721 18722 1 0.10860 301825.392000
18721 18723 1 0.13986 296436.400000
18723 18724 1 0.10860 301825.392000
18723 18725 1 0.13986 296436.400000
18725 18726 1 0.10860 301825.392000
18727 18728 1 0.10860 301825.392000
18728 18729 1 0.13986 296436.400000
18728 18737 1 0.13986 296436.400000
18729 18730 1 0.18850 35430.112000
18729 18731 1 0.13986 296436.400000
18731 18732 1 0.10860 301825.392000
18731 18733 1 0.13986 296436.400000
18733 18734 1 0.10860 301825.392000
18733 18735 1 0.13986 296436.400000
18735 18736 1 0.10860 301825.392000
18735 18737 1 0.13986 296436.400000
18737 18738 1 0.10860 301825.392000
18739 18740 1 0.10860 301825.392000
18740 18741 1 0.13986 296436.400000
18740 18749 1 0.13986 296436.400000
18741 18742 1 0.18850 35430.112000
18741 18743 1 0.13986 296436.400000
18743 18744 1 0.10860 301825.392000
18743 18745 1 0.13986 296436.400000
18745 18746 1 0.10860 301825.392000
18745 18747 1 0.13986 296436.400000
18747 18748 1 0.10860 301825.392000
18747 18749 1 0.13986 296436.400000
18749 18750 1 0.10860 301825.392000
18751 18752 1 0.10860 301825.392000
18752 18753 1 0.13986 296436.400000
18752 18761 1 0.13986 296436.400000
18753 18754 1 0.18850 35430.112000
18753 18755 1 0.13986 296436.400000
18755 18756 1 0.10860 301825.392000
18755 18757 1 0.13986 296436.400000
18757 18758 1 0.10860 301825.392000
18757 18759 1 0.13986 296436.400000
18759 18760 1 0.10860 301825.392000
18759 18761 1 0.13986 296436.400000
18761 18762 1 0.10860 301825.392000
18763 18764 1 0.10860 301825.392000
18764 18765 1 0.13986 296436.400000
18764 18773 1 0.13986 296436.400000
18765 18766 1 0.18850 35430.112000
18765 18767 1 0.13986 296436.400000
18767 18768 1 0.10860 301825.392000
18767 18769 1 0.13986 296436.400000
18769 18770 1 0.10860 301825.392000
18769 18771 1 0.13986 296436.400000
18771 18772 1 0.10860 301825.392000
18771 18773 1 0.13986 296436.400000
18773 18774 1 0.10860 301825.392000
18775 18776 1 0.10860 301825.392000
18776 18777 1 0.13986 296436.400000
18776 18785 1 0.13986 296436.400000
18777 18778 1 0.18850 35430.112000
18777 18779 1 0.13986 296436.400000
18779 18780 1 0.10860 301825.392000
18779 18781 1 0.13986 296436.400000
18781 18782 1 0.10860 301825.392000
18781 18783 1 0.13986 296436.400000
18783 18784 1 0.10860 301825.392000
18783 18785 1 0.13986 296436.400000
18785 18786 1 0.10860 301825.392000
18787 18788 1 0.10860 301825.392000
18788 18789 1 0.13986 296436.400000
18788 18797 1 0.13986 296436.400000
18789 18790 1 0.18850 35430.112000
18789 18791 1 0.13986 296436.400000
18791 18792 1 0.10860 301825.392000
18791 18793 1 0.13986 296436.400000
18793 18794 1 0.10860 301825.392000
18793 18795 1 0.13986 296436.400000
18795 18796 1 0.10860 301825.392000
18795 18797 1 0.13986 296436.400000
18797 18798 1 0.10860 301825.392000
18799 18800 1 0.10860 301825.392000
18800 18801 1 0.13986 296436.400000
18800 18809 1 0.13986 296436.400000
18801 18802 1 0.18850 35430.112000
18801 18803 1 0.13986 296436.400000
18803 18804 1 0.10860 301825.392000
18803 18805 1 0.13986 296436.400000
18805 18806 1 0.10860 301825.392000
18805 18807 1 0.13986 296436.400000
18807 18808 1 0.10860 301825.392000
18807 18809 1 0.13986 296436.400000
18809 18810 1 0.10860 301825.392000
18811 18812 1 0.10860 301825.392000
18812 18813 1 0.13986 296436.400000
18812 18821 1 0.13986 296436.400000
18813 18814 1 0.18850 35430.112000
18813 18815 1 0.13986 296436.400000
18815 18816 1 0.10860 301825.392000
18815 18817 1 0.13986 296436.400000
18817 18818 1 0.10860 301825.392000
18817 18819 1 0.13986 296436.400000
18819 18820 1 0.10860 301825.392000
18819 18821 1 0.13986 296436.400000
18821 18822 1 0.10860 301825.392000
18823 18824 1 0.10860 301825.392000
18824 18825 1 0.13986 296436.400000
18824 18833 1 0.13986 296436.400000
18825 18826 1 0.18850 35430.112000
18825 18827 1 0.13986 296436.400000
18827 18828 1 0.10860 301825.392000
18827 18829 1 0.13986 296436.400000
18829 18830 1 0.10860 301825.392000
18829 18831 1 0.13986 296436.400000
18831 18832 1 0.10860 301825.392000
18831 18833 1 0.13986 296436.400000
18833 18834 1 0.10860 301825.392000
18835 18836 1 0.10860 301825.392000
18836 18837 1 0.13986 296436.400000
18836 18845 1 0.13986 296436.400000
18837 18838 1 0.18850 35430.112000
18837 18839 1 0.13986 296436.400000
18839 18840 1 0.10860 301825.392000
18839 18841 1 0.13986 296436.400000
18841 18842 1 0.10860 301825.392000
18841 18843 1 0.13986 296436.400000
18843 18844 1 0.10860 301825.392000
18843 18845 1 0.13986 296436.400000
18845 18846 1 0.10860 301825.392000
18847 18848 1 0.10860 301825.392000
18848 18849 1 0.13986 296436.400000
18848 18857 1 0.13986 296436.400000
18849 18850 1 0.18850 35430.112000
18849 18851 1 0.13986 296436.400000
18851 18852 1 0.10860 301825.392000
18851 18853 1 0.13986 296436.400000
18853 18854 1 0.10860 301825.392000
18853 18855 1 0.13986 296436.400000
18855 18856 1 0.10860 301825.392000
18855 18857 1 0.13986 296436.400000
18857 18858 1 0.10860 301825.392000
18859 18860 1 0.10860 301825.392000
18860 18861 1 0.13986 296436.400000
18860 18869 1 0.13986 296436.400000
18861 18862 1 0.18850 35430.112000
18861 18863 1 0.13986 296436.400000
18863 18864 1 0.10860 301825.392000
18863 18865 1 0.13986 296436.400000
18865 18866 1 0.10860 301825.392000
18865 18867 1 0.13986 296436.400000
18867 18868 1 0.10860 301825.392000
18867 18869 1 0.13986 296436.400000
18869 18870 1 0.10860 301825.392000
18871 18872 1 0.10860 301825.392000
18872 18873 1 0.13986 296436.400000
18872 18881 1 0.13986 296436.400000
18873 18874 1 0.18850 35430.112000
18873 18875 1 0.13986 296436.400000
18875 18876 1 0.10860 301825.392000
18875 18877 1 0.13986 296436.400000
18877 18878 1 0.10860 301825.392000
18877 18879 1 0.13986 296436.400000
18879 18880 1 0.10860 301825.392000
18879 18881 1 0.13986 296436.400000
18881 18882 1 0.10860 301825.392000
18883 18884 1 0.10860 301825.392000
18884 18885 1 0.13986 296436.400000
18884 18893 1 0.13986 296436.400000
18885 18886 1 0.18850 35430.112000
18885 18887 1 0.13986 296436.400000
18887 18888 1 0.10860 301825.392000
18887 18889 1 0.13986 296436.400000
18889 18890 1 0.10860 301825.392000
18889 18891 1 0.13986 296436.400000
18891 18892 1 0.10860 301825.392000
18891 18893 1 0.13986 296436.400000
18893 18894 1 0.10860 301825.392000
18895 18896 1 0.10860 301825.392000
18896 18897 1 0.13986 296436.400000
18896 18905 1 0.13986 296436.400000
18897 18898 1 0.18850 35430.112000
18897 18899 1 0.13986 296436.400000
18899 18900 1 0.10860 301825.392000
18899 18901 1 0.13986 296436.400000
18901 18902 1 0.10860 301825.392000
18901 18903 1 0.13986 296436.400000
18903 18904 1 0.10860 301825.392000
18903 18905 1 0.13986 296436.400000
18905 18906 1 0.10860 301825.392000
18907 18908 1 0.10860 301825.392000
18908 18909 1 0.13986 296436.400000
18908 18917 1 0.13986 296436.400000
18909 18910 1 0.18850 35430.112000
18909 18911 1 0.13986 296436.400000
18911 18912 1 0.10860 301825.392000
18911 18913 1 0.13986 296436.400000
18913 18914 1 0.10860 301825.392000
18913 18915 1 0.13986 296436.400000
18915 18916 1 0.10860 301825.392000
18915 18917 1 0.13986 296436.400000
18917 18918 1 0.10860 301825.392000
18919 18920 1 0.10860 301825.392000
18920 18921 1 0.13986 296436.400000
18920 18929 1 0.13986 296436.400000
18921 18922 1 0.18850 35430.112000
18921 18923 1 0.13986 296436.400000
18923 18924 1 0.10860 301825.392000
18923 18925 1 0.13986 296436.400000
18925 18926 1 0.10860 301825.392000
18925 18927 1 0.13986 296436.400000
18927 18928 1 0.10860 301825.392000
18927 18929 1 0.13986 296436.400000
18929 18930 1 0.10860 301825.392000
18931 18932 1 0.10860 301825.392000
18932 18933 1 0.13986 296436.400000
18932 18941 1 0.13986 296436.400000
18933 18934 1 0.18850 35430.112000
18933 18935 1 0.13986 296436.400000
18935 18936 1 0.10860 301825.392000
18935 18937 1 0.13986 296436.400000
18937 18938 1 0.10860 301825.392000
18937 18939 1 0.13986 296436.400000
18939 18940 1 0.10860 301825.392000
18939 18941 1 0.13986 296436.400000
18941 18942 1 0.10860 301825.392000
18943 18944 1 0.10860 301825.392000
18944 18945 1 0.13986 296436.400000
18944 18953 1 0.13986 296436.400000
18945 18946 1 0.18850 35430.112000
18945 18947 1 0.13986 296436.400000
18947 18948 1 0.10860 301825.392000
18947 18949 1 0.13986 296436.400000
18949 18950 1 0.10860 301825.392000
18949 18951 1 0.13986 296436.400000
18951 18952 1 0.10860 301825.392000
18951 18953 1 0.13986 296436.400000
18953 18954 1 0.10860 301825.392000
18955 18956 1 0.10860 301825.392000
18956 18957 1 0.13986 296436.400000
18956 18965 1 0.13986 296436.400000
18957 18958 1 0.18850 35430.112000
18957 18959 1 0.13986 296436.400000
18959 18960 1 0.10860 301825.392000
18959 18961 1 0.13986 296436.400000
18961 18962 1 0.10860 301825.392000
18961 18963 1 0.13986 296436.400000
18963 18964 1 0.10860 301825.392000
18963 18965 1 0.13986 296436.400000
18965 18966 1 0.10860 301825.392000
18967 18968 1 0.10860 301825.392000
18968 18969 1 0.13986 296436.400000
18968 18977 1 0.13986 296436.400000
18969 18970 1 0.18850 35430.112000
18969 18971 1 0.13986 296436.400000
18971 18972 1 0.10860 301825.392000
18971 18973 1 0.13986 296436.400000
18973 18974 1 0.10860 301825.392000
18973 18975 1 0.13986 296436.400000
18975 18976 1 0.10860 301825.392000
18975 18977 1 0.13986 296436.400000
18977 18978 1 0.10860 301825.392000
18979 18980 1 0.10860 301825.392000
18980 18981 1 0.13986 296436.400000
18980 18989 1 0.13986 296436.400000
18981 18982 1 0.18850 35430.112000
18981 18983 1 0.13986 296436.400000
18983 18984 1 0.10860 301825.392000
18983 18985 1 0.13986 296436.400000
18985 18986 1 0.10860 301825.392000
18985 18987 1 0.13986 296436.400000
18987 18988 1 0.10860 301825.392000
18987 18989 1 0.13986 296436.400000
18989 18990 1 0.10860 301825.392000
18991 18992 1 0.10860 301825.392000
18992 18993 1 0.13986 296436.400000
18992 19001 1 0.13986 296436.400000
18993 18994 1 0.18850 35430.112000
18993 18995 1 0.13986 296436.400000
18995 18996 1 0.10860 301825.392000
18995 18997 1 0.13986 296436.400000
18997 18998 1 0.10860 301825.392000
18997 18999 1 0.13986 296436.400000
18999 19000 1 0.10860 301825.392000
18999 19001 1 0.13986 296436.400000
19001 19002 1 0.10860 301825.392000
19003 19004 1 0.10860 301825.392000
19004 19005 1 0.13986 296436.400000
19004 19013 1 0.13986 296436.400000
19005 19006 1 0.18850 35430.112000
19005 19007 1 0.13986 296436.400000
19007 19008 1 0.10860 301825.392000
19007 19009 1 0.13986 296436.400000
19009 19010 1 0.10860 301825.392000
19009 19011 1 0.13986 296436.400000
19011 19012 1 0.10860 301825.392000
19011 19013 1 0.13986 296436.400000
19013 19014 1 0.10860 301825.392000
19015 19016 1 0.10860 301825.392000
19016 19017 1 0.13986 296436.400000
19016 19025 1 0.13986 296436.400000
19017 19018 1 0.18850 35430.112000
19017 19019 1 0.13986 296436.400000
19019 19020 1 0.10860 301825.392000
19019 19021 1 0.13986 296436.400000
19021 19022 1 0.10860 301825.392000
19021 19023 1 0.13986 296436.400000
19023 19024 1 0.10860 301825.392000
19023 19025 1 0.13986 296436.400000
19025 19026 1 0.10860 301825.392000
19027 19028 1 0.10860 301825.392000
19028 19029 1 0.13986 296436.400000
19028 19037 1 0.13986 296436.400000
19029 19030 1 0.18850 35430.112000
19029 19031 1 0.13986 296436.400000
19031 19032 1 0.10860 301825.392000
19031 19033 1 0.13986 296436.400000
19033 19034 1 0.10860 301825.392000
19033 19035 1 0.13986 296436.400000
19035 19036 1 0.10860 301825.392000
19035 19037 1 0.13986 296436.400000
19037 19038 1 0.10860 301825.392000
19039 19040 1 0.10860 301825.392000
19040 19041 1 0.13986 296436.400000
19040 19049 1 0.13986 296436.400000
19041 19042 1 0.18850 35430.112000
19041 19043 1 0.13986 296436.400000
19043 19044 1 0.10860 301825.392000
19043 19045 1 0.13986 296436.400000
19045 19046 1 0.10860 301825.392000
19045 19047 1 0.13986 296436.400000
19047 19048 1 0.10860 301825.392000
19047 19049 1 0.13986 296436.400000
19049 19050 1 0.10860 301825.392000
19051 19052 1 0.10860 301825.392000
19052 19053 1 0.13986 296436.400000
19052 19061 1 0.13986 296436.400000
19053 19054 1 0.18850 35430.112000
19053 19055 1 0.13986 296436.400000
19055 19056 1 0.10860 301825.392000
19055 19057 1 0.13986 296436.400000
19057 19058 1 0.10860 301825.392000
19057 19059 1 0.13986 296436.400000
19059 19060 1 0.10860 301825.392000
19059 19061 1 0.13986 296436.400000
19061 19062 1 0.10860 301825.392000
19063 19064 1 0.10860 301825.392000
19064 19065 1 0.13986 296436.400000
19064 19073 1 0.13986 296436.400000
19065 19066 1 0.18850 35430.112000
19065 19067 1 0.13986 296436.400000
19067 19068 1 0.10860 301825.392000
19067 19069 1 0.13986 296436.400000
19069 19070 1 0.10860 301825.392000
19069 19071 1 0.13986 296436.400000
19071 19072 1 0.10860 301825.392000
19071 19073 1 0.13986 296436.400000
19073 19074 1 0.10860 301825.392000
19075 19076 1 0.10860 301825.392000
19076 19077 1 0.13986 296436.400000
19076 19085 1 0.13986 296436.400000
19077 19078 1 0.18850 35430.112000
19077 19079 1 0.13986 296436.400000
19079 19080 1 0.10860 301825.392000
19079 19081 1 0.13986 296436.400000
19081 19082 1 0.10860 301825.392000
19081 19083 1 0.13986 296436.400000
19083 19084 1 0.10860 301825.392000
19083 19085 1 0.13986 296436.400000
19085 19086 1 0.10860 301825.392000
19087 19088 1 0.10860 301825.392000
19088 19089 1 0.13986 296436.400000
19088 19097 1 0.13986 296436.400000
19089 19090 1 0.18850 35430.112000
19089 19091 1 0.13986 296436.400000
19091 19092 1 0.10860 301825.392000
19091 19093 1 0.13986 296436.400000
19093 19094 1 0.10860 301825.392000
19093 19095 1 0.13986 296436.400000
19095 19096 1 0.10860 301825.392000
19095 19097 1 0.13986 296436.400000
19097 19098 1 0.10860 301825.392000
19099 19100 1 0.10860 301825.392000
19100 19101 1 0.13986 296436.400000
19100 19109 1 0.13986 296436.400000
19101 19102 1 0.18850 35430.112000
19101 19103 1 0.13986 296436.400000
19103 19104 1 0.10860 301825.392000
19103 19105 1 0.13986 296436.400000
19105 19106 1 0.10860 301825.392000
19105 19107 1 0.13986 296436.400000
19107 19108 1 0.10860 301825.392000
19107 19109 1 0.13986 296436.400000
19109 19110 1 0.10860 301825.392000
19111 19112 1 0.10860 301825.392000
19112 19113 1 0.13986 296436.400000
19112 19121 1 0.13986 296436.400000
19113 19114 1 0.18850 35430.112000
19113 19115 1 0.13986 296436.400000
19115 19116 1 0.10860 301825.392000
19115 19117 1 0.13986 296436.400000
19117 19118 1 0.10860 301825.392000
19117 19119 1 0.13986 296436.400000
19119 19120 1 0.10860 301825.392000
19119 19121 1 0.13986 296436.400000
19121 19122 1 0.10860 301825.392000
19123 19124 1 0.10860 301825.392000
19124 19125 1 0.13986 296436.400000
19124 19133 1 0.13986 296436.400000
19125 19126 1 0.18850 35430.112000
19125 19127 1 0.13986 296436.400000
19127 19128 1 0.10860 301825.392000
19127 19129 1 0.13986 296436.400000
19129 19130 1 0.10860 301825.392000
19129 19131 1 0.13986 296436.400000
19131 19132 1 0.10860 301825.392000
19131 19133 1 0.13986 296436.400000
19133 19134 1 0.10860 301825.392000
19135 19136 1 0.10860 301825.392000
19136 19137 1 0.13986 296436.400000
19136 19145 1 0.13986 296436.400000
19137 19138 1 0.18850 35430.112000
19137 19139 1 0.13986 296436.400000
19139 19140 1 0.10860 301825.392000
19139 19141 1 0.13986 296436.400000
19141 19142 1 0.10860 301825.392000
19141 19143 1 0.13986 296436.400000
19143 19144 1 0.10860 301825.392000
19143 19145 1 0.13986 296436.400000
19145 19146 1 0.10860 301825.392000
19147 19148 1 0.10860 301825.392000
19148 19149 1 0.13986 296436.400000
19148 19157 1 0.13986 296436.400000
19149 19150 1 0.18850 35430.112000
19149 19151 1 0.13986 296436.400000
19151 19152 1 0.10860 301825.392000
19151 19153 1 0.13986 296436.400000
19153 19154 1 0.10860 301825.392000
19153 19155 1 0.13986 296436.400000
19155 19156 1 0.10860 301825.392000
19155 19157 1 0.13986 296436.400000
19157 19158 1 0.10860 301825.392000
19159 19160 1 0.10860 301825.392000
19160 19161 1 0.13986 296436.400000
19160 19169 1 0.13986 296436.400000
19161 19162 1 0.18850 35430.112000
19161 19163 1 0.13986 296436.400000
19163 19164 1 0.10860 301825.392000
19163 19165 1 0.13986 296436.400000
19165 19166 1 0.10860 301825.392000
19165 19167 1 0.13986 296436.400000
19167 19168 1 0.10860 301825.392000
19167 19169 1 0.13986 296436.400000
19169 19170 1 0.10860 301825.392000
19171 19172 1 0.10860 301825.392000
19172 19173 1 0.13986 296436.400000
19172 19181 1 0.13986 296436.400000
19173 19174 1 0.18850 35430.112000
19173 19175 1 0.13986 296436.400000
19175 19176 1 0.10860 301825.392000
19175 19177 1 0.13986 296436.400000
19177 19178 1 0.10860 301825.392000
19177 19179 1 0.13986 296436.400000
19179 19180 1 0.10860 301825.392000
19179 19181 1 0.13986 296436.400000
19181 19182 1 0.10860 301825.392000
19183 19184 1 0.10860 301825.392000
19184 19185 1 0.13986 296436.400000
19184 19193 1 0.13986 296436.400000
19185 19186 1 0.18850 35430.112000
19185 19187 1 0.13986 296436.400000
19187 19188 1 0.10860 301825.392000
19187 19189 1 0.13986 296436.400000
19189 19190 1 0.10860 301825.392000
19189 19191 1 0.13986 296436.400000
19191 19192 1 0.10860 301825.392000
19191 19193 1 0.13986 296436.400000
19193 19194 1 0.10860 301825.392000
19195 19196 1 0.10860 301825.392000
19196 19197 1 0.13986 296436.400000
19196 19205 1 0.13986 296436.400000
19197 19198 1 0.18850 35430.112000
19197 19199 1 0.13986 296436.400000
19199 19200 1 0.10860 301825.392000
19199 19201 1 0.13986 296436.400000
19201 19202 1 0.10860 301825.392000
19201 19203 1 0.13986 296436.400000
19203 19204 1 0.10860 301825.392000
19203 19205 1 0.13986 296436.400000
19205 19206 1 0.10860 301825.392000
19207 19208 1 0.10860 301825.392000
19208 19209 1 0.13986 296436.400000
19208 19217 1 0.13986 296436.400000
19209 19210 1 0.18850 35430.112000
19209 19211 1 0.13986 296436.400000
19211 19212 1 0.10860 301825.392000
19211 19213 1 0.13986 296436.400000
19213 19214 1 0.10860 301825.392000
19213 19215 1 0.13986 296436.400000
19215 19216 1 0.10860 301825.392000
19215 19217 1 0.13986 296436.400000
19217 19218 1 0.10860 301825.392000
19219 19220 1 0.10860 301825.392000
19220 19221 1 0.13986 296436.400000
19220 19229 1 0.13986 296436.400000
19221 19222 1 0.18850 35430.112000
19221 19223 1 0.13986 296436.400000
19223 19224 1 0.10860 301825.392000
19223 19225 1 0.13986 296436.400000
19225 19226 1 0.10860 301825.392000
19225 19227 1 0.13986 296436.400000
19227 19228 1 0.10860 301825.392000
19227 19229 1 0.13986 296436.400000
19229 19230 1 0.10860 301825.392000
19231 19232 1 0.10860 301825.392000
19232 19233 1 0.13986 296436.400000
19232 19241 1 0.13986 296436.400000
19233 19234 1 0.18850 35430.112000
19233 19235 1 0.13986 296436.400000
19235 19236 1 0.10860 301825.392000
19235 19237 1 0.13986 296436.400000
19237 19238 1 0.10860 301825.392000
19237 19239 1 0.13986 296436.400000
19239 19240 1 0.10860 301825.392000
19239 19241 1 0.13986 296436.400000
19241 19242 1 0.10860 301825.392000
19243 19244 1 0.10860 301825.392000
19244 19245 1 0.13986 296436.400000
19244 19253 1 0.13986 296436.400000
19245 19246 1 0.18850 35430.112000
19245 19247 1 0.13986 296436.400000
19247 19248 1 0.10860 301825.392000
19247 19249 1 0.13986 296436.400000
19249 19250 1 0.10860 301825.392000
19249 19251 1 0.13986 296436.400000
19251 19252 1 0.10860 301825.392000
19251 19253 1 0.13986 296436.400000
19253 19254 1 0.10860 301825.392000
19255 19256 1 0.10860 301825.392000
19256 19257 1 0.13986 296436.400000
19256 19265 1 0.13986 296436.400000
19257 19258 1 0.18850 35430.112000
19257 19259 1 0.13986 296436.400000
19259 19260 1 0.10860 301825.392000
19259 19261 1 0.13986 296436.400000
19261 19262 1 0.10860 301825.392000
19261 19263 1 0.13986 296436.400000
19263 19264 1 0.10860 301825.392000
19263 19265 1 0.13986 296436.400000
19265 19266 1 0.10860 301825.392000
19267 19268 1 0.10860 301825.392000
19268 19269 1 0.13986 296436.400000
19268 19277 1 0.13986 296436.400000
19269 19270 1 0.18850 35430.112000
19269 19271 1 0.13986 296436.400000
19271 19272 1 0.10860 301825.392000
19271 19273 1 0.13986 296436.400000
19273 19274 1 0.10860 301825.392000
19273 19275 1 0.13986 296436.400000
19275 19276 1 0.10860 301825.392000
19275 19277 1 0.13986 296436.400000
19277 19278 1 0.10860 301825.392000
19279 19280 1 0.10860 301825.392000
19280 19281 1 0.13986 296436.400000
19280 19289 1 0.13986 296436.400000
19281 19282 1 0.18850 35430.112000
19281 19283 1 0.13986 296436.400000
19283 19284 1 0.10860 301825.392000
19283 19285 1 0.13986 296436.400000
19285 19286 1 0.10860 301825.392000
19285 19287 1 0.13986 296436.400000
19287 19288 1 0.10860 301825.392000
19287 19289 1 0.13986 296436.400000
19289 19290 1 0.10860 301825.392000
19291 19292 1 0.10860 301825.392000
19292 19293 1 0.13986 296436.400000
19292 19301 1 0.13986 296436.400000
19293 19294 1 0.18850 35430.112000
19293 19295 1 0.13986 296436.400000
19295 19296 1 0.10860 301825.392000
19295 19297 1 0.13986 296436.400000
19297 19298 1 0.10860 301825.392000
19297 19299 1 0.13986 296436.400000
19299 19300 1 0.10860 301825.392000
19299 19301 1 0.13986 296436.400000
19301 19302 1 0.10860 301825.392000
19303 19304 1 0.10860 301825.392000
19304 19305 1 0.13986 296436.400000
19304 19313 1 0.13986 296436.400000
19305 19306 1 0.18850 35430.112000
19305 19307 1 0.13986 296436.400000
19307 19308 1 0.10860 301825.392000
19307 19309 1 0.13986 296436.400000
19309 19310 1 0.10860 301825.392000
19309 19311 1 0.13986 296436.400000
19311 19312 1 0.10860 301825.392000
19311 19313 1 0.13986 296436.400000
19313 19314 1 0.10860 301825.392000
19315 19316 1 0.10860 301825.392000
19316 19317 1 0.13986 296436.400000
19316 19325 1 0.13986 296436.400000
19317 19318 1 0.18850 35430.112000
19317 19319 1 0.13986 296436.400000
19319 19320 1 0.10860 301825.392000
19319 19321 1 0.13986 296436.400000
19321 19322 1 0.10860 301825.392000
19321 19323 1 0.13986 296436.400000
19323 19324 1 0.10860 301825.392000
19323 19325 1 0.13986 296436.400000
19325 19326 1 0.10860 301825.392000
19327 19328 1 0.10860 301825.392000
19328 19329 1 0.13986 296436.400000
19328 19337 1 0.13986 296436.400000
19329 19330 1 0.18850 35430.112000
19329 19331 1 0.13986 296436.400000
19331 19332 1 0.10860 301825.392000
19331 19333 1 0.13986 296436.400000
19333 19334 1 0.10860 301825.392000
19333 19335 1 0.13986 296436.400000
19335 19336 1 0.10860 301825.392000
19335 19337 1 0.13986 296436.400000
19337 19338 1 0.10860 301825.392000
19339 19340 1 0.10860 301825.392000
19340 19341 1 0.13986 296436.400000
19340 19349 1 0.13986 296436.400000
19341 19342 1 0.18850 35430.112000
19341 19343 1 0.13986 296436.400000
19343 19344 1 0.10860 301825.392000
19343 19345 1 0.13986 296436.400000
19345 19346 1 0.10860 301825.392000
19345 19347 1 0.13986 296436.400000
19347 19348 1 0.10860 301825.392000
19347 19349 1 0.13986 296436.400000
19349 19350 1 0.10860 301825.392000
19351 19352 1 0.10860 301825.392000
19352 19353 1 0.13986 296436.400000
19352 19361 1 0.13986 296436.400000
19353 19354 1 0.18850 35430.112000
19353 19355 1 0.13986 296436.400000
19355 19356 1 0.10860 301825.392000
19355 19357 1 0.13986 296436.400000
19357 19358 1 0.10860 301825.392000
19357 19359 1 0.13986 296436.400000
19359 19360 1 0.10860 301825.392000
19359 19361 1 0.13986 296436.400000
19361 19362 1 0.10860 301825.392000
19363 19364 1 0.10860 301825.392000
19364 19365 1 0.13986 296436.400000
19364 19373 1 0.13986 296436.400000
19365 19366 1 0.18850 35430.112000
19365 19367 1 0.13986 296436.400000
19367 19368 1 0.10860 301825.392000
19367 19369 1 0.13986 296436.400000
19369 19370 1 0.10860 301825.392000
19369 19371 1 0.13986 296436.400000
19371 19372 1 0.10860 301825.392000
19371 19373 1 0.13986 296436.400000
19373 19374 1 0.10860 301825.392000
19375 19376 1 0.10860 301825.392000
19376 19377 1 0.13986 296436.400000
19376 19385 1 0.13986 296436.400000
19377 19378 1 0.18850 35430.112000
19377 19379 1 0.13986 296436.400000
19379 19380 1 0.10860 301825.392000
19379 19381 1 0.13986 296436.400000
19381 19382 1 0.10860 301825.392000
19381 19383 1 0.13986 296436.400000
19383 19384 1 0.10860 301825.392000
19383 19385 1 0.13986 296436.400000
19385 19386 1 0.10860 301825.392000
19387 19388 1 0.10860 301825.392000
19388 19389 1 0.13986 296436.400000
19388 19397 1 0.13986 296436.400000
19389 19390 1 0.18850 35430.112000
19389 19391 1 0.13986 296436.400000
19391 19392 1 0.10860 301825.392000
19391 19393 1 0.13986 296436.400000
19393 19394 1 0.10860 301825.392000
19393 19395 1 0.13986 296436.400000
19395 19396 1 0.10860 301825.392000
19395 19397 1 0.13986 296436.400000
19397 19398 1 0.10860 301825.392000
19399 19400 1 0.10860 301825.392000
19400 19401 1 0.13986 296436.400000
19400 19409 1 0.13986 296436.400000
19401 19402 1 0.18850 35430.112000
19401 19403 1 0.13986 296436.400000
19403 19404 1 0.10860 301825.392000
19403 19405 1 0.13986 296436.400000
19405 19406 1 0.10860 301825.392000
19405 19407 1 0.13986 296436.400000
19407 19408 1 0.10860 301825.392000
19407 19409 1 0.13986 296436.400000
19409 19410 1 0.10860 301825.392000
19411 19412 1 0.10860 301825.392000
19412 19413 1 0.13986 296436.400000
19412 19421 1 0.13986 296436.400000
19413 19414 1 0.18850 35430.112000
19413 19415 1 0.13986 296436.400000
19415 19416 1 0.10860 301825.392000
19415 19417 1 0.13986 296436.400000
19417 19418 1 0.10860 301825.392000
19417 19419 1 0.13986 296436.400000
19419 19420 1 0.10860 301825.392000
19419 19421 1 0.13986 296436.400000
19421 19422 1 0.10860 301825.392000
19423 19424 1 0.10860 301825.392000
19424 19425 1 0.13986 296436.400000
19424 19433 1 0.13986 296436.400000
19425 19426 1 0.18850 35430.112000
19425 19427 1 0.13986 296436.400000
19427 19428 1 0.10860 301825.392000
19427 19429 1 0.13986 296436.400000
19429 19430 1 0.10860 301825.392000
19429 19431 1 0.13986 296436.400000
19431 19432 1 0.10860 301825.392000
19431 19433 1 0.13986 296436.400000
19433 19434 1 0.10860 301825.392000
19435 19436 1 0.10860 301825.392000
19436 19437 1 0.13986 296436.400000
19436 19445 1 0.13986 296436.400000
19437 19438 1 0.18850 35430.112000
19437 19439 1 0.13986 296436.400000
19439 19440 1 0.10860 301825.392000
19439 19441 1 0.13986 296436.400000
19441 19442 1 0.10860 301825.392000
19441 19443 1 0.13986 296436.400000
19443 19444 1 0.10860 301825.392000
19443 19445 1 0.13986 296436.400000
19445 19446 1 0.10860 301825.392000
19447 19448 1 0.10860 301825.392000
19448 19449 1 0.13986 296436.400000
19448 19457 1 0.13986 296436.400000
19449 19450 1 0.18850 35430.112000
19449 19451 1 0.13986 296436.400000
19451 19452 1 0.10860 301825.392000
19451 19453 1 0.13986 296436.400000
19453 19454 1 0.10860 301825.392000
19453 19455 1 0.13986 296436.400000
19455 19456 1 0.10860 301825.392000
19455 19457 1 0.13986 296436.400000
19457 19458 1 0.10860 301825.392000
19459 19460 1 0.10860 301825.392000
19460 19461 1 0.13986 296436.400000
19460 19469 1 0.13986 296436.400000
19461 19462 1 0.18850 35430.112000
19461 19463 1 0.13986 296436.400000
19463 19464 1 0.10860 301825.392000
19463 19465 1 0.13986 296436.400000
19465 19466 1 0.10860 301825.392000
19465 19467 1 0.13986 296436.400000
19467 19468 1 0.10860 301825.392000
19467 19469 1 0.13986 296436.400000
19469 19470 1 0.10860 301825.392000
19471 19472 1 0.10860 301825.392000
19472 19473 1 0.13986 296436.400000
19472 19481 1 0.13986 296436.400000
19473 19474 1 0.18850 35430.112000
19473 19475 1 0.13986 296436.400000
19475 19476 1 0.10860 301825.392000
19475 19477 1 0.13986 296436.400000
19477 19478 1 0.10860 301825.392000
19477 19479 1 0.13986 296436.400000
19479 19480 1 0.10860 301825.392000
19479 19481 1 0.13986 296436.400000
19481 19482 1 0.10860 301825.392000
19483 19484 1 0.10860 301825.392000
19484 19485 1 0.13986 296436.400000
19484 19493 1 0.13986 296436.400000
19485 19486 1 0.18850 35430.112000
19485 19487 1 0.13986 296436.400000
19487 19488 1 0.10860 301825.392000
19487 19489 1 0.13986 296436.400000
19489 19490 1 0.10860 301825.392000
19489 19491 1 0.13986 296436.400000
19491 19492 1 0.10860 301825.392000
19491 19493 1 0.13986 296436.400000
19493 19494 1 0.10860 301825.392000
19495 19496 1 0.10860 301825.392000
19496 19497 1 0.13986 296436.400000
19496 19505 1 0.13986 296436.400000
19497 19498 1 0.18850 35430.112000
19497 19499 1 0.13986 296436.400000
19499 19500 1 0.10860 301825.392000
19499 19501 1 0.13986 296436.400000
19501 19502 1 0.10860 301825.392000
19501 19503 1 0.13986 296436.400000
19503 19504 1 0.10860 301825.392000
19503 19505 1 0.13986 296436.400000
19505 19506 1 0.10860 301825.392000
19507 19508 1 0.10860 301825.392000
19508 19509 1 0.13986 296436.400000
19508 19517 1 0.13986 296436.400000
19509 19510 1 0.18850 35430.112000
19509 19511 1 0.13986 296436.400000
19511 19512 1 0.10860 301825.392000
19511 19513 1 0.13986 296436.400000
19513 19514 1 0.10860 301825.392000
19513 19515 1 0.13986 296436.400000
19515 19516 1 0.10860 301825.392000
19515 19517 1 0.13986 296436.400000
19517 19518 1 0.10860 301825.392000
19519 19520 1 0.10860 301825.392000
19520 19521 1 0.13986 296436.400000
19520 19529 1 0.13986 296436.400000
19521 19522 1 0.18850 35430.112000
19521 19523 1 0.13986 296436.400000
19523 19524 1 0.10860 301825.392000
19523 19525 1 0.13986 296436.400000
19525 19526 1 0.10860 301825.392000
19525 19527 1 0.13986 296436.400000
19527 19528 1 0.10860 301825.392000
19527 19529 1 0.13986 296436.400000
19529 19530 1 0.10860 301825.392000
19531 19532 1 0.10860 301825.392000
19532 19533 1 0.13986 296436.400000
19532 19541 1 0.13986 296436.400000
19533 19534 1 0.18850 35430.112000
19533 19535 1 0.13986 296436.400000
19535 19536 1 0.10860 301825.392000
19535 19537 1 0.13986 296436.400000
19537 19538 1 0.10860 301825.392000
19537 19539 1 0.13986 296436.400000
19539 19540 1 0.10860 301825.392000
19539 19541 1 0.13986 296436.400000
19541 19542 1 0.10860 301825.392000
19543 19544 1 0.10860 301825.392000
19544 19545 1 0.13986 296436.400000
19544 19553 1 0.13986 296436.400000
19545 19546 1 0.18850 35430.112000
19545 19547 1 0.13986 296436.400000
19547 19548 1 0.10860 301825.392000
19547 19549 1 0.13986 296436.400000
19549 19550 1 0.10860 301825.392000
19549 19551 1 0.13986 296436.400000
19551 19552 1 0.10860 301825.392000
19551 19553 1 0.13986 296436.400000
19553 19554 1 0.10860 301825.392000
19555 19556 1 0.10860 301825.392000
19556 19557 1 0.13986 296436.400000
19556 19565 1 0.13986 296436.400000
19557 19558 1 0.18850 35430.112000
19557 19559 1 0.13986 296436.400000
19559 19560 1 0.10860 301825.392000
19559 19561 1 0.13986 296436.400000
19561 19562 1 0.10860 301825.392000
19561 19563 1 0.13986 296436.400000
19563 19564 1 0.10860 301825.392000
19563 19565 1 0.13986 296436.400000
19565 19566 1 0.10860 301825.392000
19567 19568 1 0.10860 301825.392000
19568 19569 1 0.13986 296436.400000
19568 19577 1 0.13986 296436.400000
19569 19570 1 0.18850 35430.112000
19569 19571 1 0.13986 296436.400000
19571 19572 1 0.10860 301825.392000
19571 19573 1 0.13986 296436.400000
19573 19574 1 0.10860 301825.392000
19573 19575 1 0.13986 296436.400000
19575 19576 1 0.10860 301825.392000
19575 19577 1 0.13986 296436.400000
19577 19578 1 0.10860 301825.392000
19579 19580 1 0.10860 301825.392000
19580 19581 1 0.13986 296436.400000
19580 19589 1 0.13986 296436.400000
19581 19582 1 0.18850 35430.112000
19581 19583 1 0.13986 296436.400000
19583 19584 1 0.10860 301825.392000
19583 19585 1 0.13986 296436.400000
19585 19586 1 0.10860 301825.392000
19585 19587 1 0.13986 296436.400000
19587 19588 1 0.10860 301825.392000
19587 19589 1 0.13986 296436.400000
19589 19590 1 0.10860 301825.392000
19591 19592 1 0.10860 301825.392000
19592 19593 1 0.13986 296436.400000
19592 19601 1 0.13986 296436.400000
19593 19594 1 0.18850 35430.112000
19593 19595 1 0.13986 296436.400000
19595 19596 1 0.10860 301825.392000
19595 19597 1 0.13986 296436.400000
19597 19598 1 0.10860 301825.392000
19597 19599 1 0.13986 296436.400000
19599 19600 1 0.10860 301825.392000
19599 19601 1 0.13986 296436.400000
19601 19602 1 0.10860 301825.392000
19603 19604 1 0.10860 301825.392000
19604 19605 1 0.13986 296436.400000
19604 19613 1 0.13986 296436.400000
19605 19606 1 0.18850 35430.112000
19605 19607 1 0.13986 296436.400000
19607 19608 1 0.10860 301825.392000
19607 19609 1 0.13986 296436.400000
19609 19610 1 0.10860 301825.392000
19609 19611 1 0.13986 296436.400000
19611 19612 1 0.10860 301825.392000
19611 19613 1 0.13986 296436.400000
19613 19614 1 0.10860 301825.392000
19615 19616 1 0.10860 301825.392000
19616 19617 1 0.13986 296436.400000
19616 19625 1 0.13986 296436.400000
19617 19618 1 0.18850 35430.112000
19617 19619 1 0.13986 296436.400000
19619 19620 1 0.10860 301825.392000
19619 19621 1 0.13986 296436.400000
19621 19622 1 0.10860 301825.392000
19621 19623 1 0.13986 296436.400000
19623 19624 1 0.10860 301825.392000
19623 19625 1 0.13986 296436.400000
19625 19626 1 0.10860 301825.392000
19627 19628 1 0.10860 301825.392000
19628 19629 1 0.13986 296436.400000
19628 19637 1 0.13986 296436.400000
19629 19630 1 0.18850 35430.112000
19629 19631 1 0.13986 296436.400000
19631 19632 1 0.10860 301825.392000
19631 19633 1 0.13986 296436.400000
19633 19634 1 0.10860 301825.392000
19633 19635 1 0.13986 296436.400000
19635 19636 1 0.10860 301825.392000
19635 19637 1 0.13986 296436.400000
19637 19638 1 0.10860 301825.392000
19639 19640 1 0.10860 301825.392000
19640 19641 1 0.13986 296436.400000
19640 19649 1 0.13986 296436.400000
19641 19642 1 0.18850 35430.112000
19641 19643 1 0.13986 296436.400000
19643 19644 1 0.10860 301825.392000
19643 19645 1 0.13986 296436.400000
19645 19646 1 0.10860 301825.392000
19645 19647 1 0.13986 296436.400000
19647 19648 1 0.10860 301825.392000
19647 19649 1 0.13986 296436.400000
19649 19650 1 0.10860 301825.392000
19651 19652 1 0.10860 301825.392000
19652 19653 1 0.13986 296436.400000
19652 19661 1 0.13986 296436.400000
19653 19654 1 0.18850 35430.112000
19653 19655 1 0.13986 296436.400000
19655 19656 1 0.10860 301825.392000
19655 19657 1 0.13986 296436.400000
19657 19658 1 0.10860 301825.392000
19657 19659 1 0.13986 296436.400000
19659 19660 1 0.10860 301825.392000
19659 19661 1 0.13986 296436.400000
19661 19662 1 0.10860 301825.392000
19663 19664 1 0.10860 301825.392000
19664 19665 1 0.13986 296436.400000
19664 19673 1 0.13986 296436.400000
19665 19666 1 0.18850 35430.112000
19665 19667 1 0.13986 296436.400000
19667 19668 1 0.10860 301825.392000
19667 19669 1 0.13986 296436.400000
19669 19670 1 0.10860 301825.392000
19669 19671 1 0.13986 296436.400000
19671 19672 1 0.10860 301825.392000
19671 19673 1 0.13986 296436.400000
19673 19674 1 0.10860 301825.392000
19675 19676 1 0.10860 301825.392000
19676 19677 1 0.13986 296436.400000
19676 19685 1 0.13986 296436.400000
19677 19678 1 0.18850 35430.112000
19677 19679 1 0.13986 296436.400000
19679 19680 1 0.10860 301825.392000
19679 19681 1 0.13986 296436.400000
19681 19682 1 0.10860 301825.392000
19681 19683 1 0.13986 296436.400000
19683 19684 1 0.10860 301825.392000
19683 19685 1 0.13986 296436.400000
19685 19686 1 0.10860 301825.392000
19687 19688 1 0.10860 301825.392000
19688 19689 1 0.13986 296436.400000
19688 19697 1 0.13986 296436.400000
19689 19690 1 0.18850 35430.112000
19689 19691 1 0.13986 296436.400000
19691 19692 1 0.10860 301825.392000
19691 19693 1 0.13986 296436.400000
19693 19694 1 0.10860 301825.392000
19693 19695 1 0.13986 296436.400000
19695 19696 1 0.10860 301825.392000
19695 19697 1 0.13986 296436.400000
19697 19698 1 0.10860 301825.392000
19699 19700 1 0.10860 301825.392000
19700 19701 1 0.13986 296436.400000
19700 19709 1 0.13986 296436.400000
19701 19702 1 0.18850 35430.112000
19701 19703 1 0.13986 296436.400000
19703 19704 1 0.10860 301825.392000
19703 19705 1 0.13986 296436.400000
19705 19706 1 0.10860 301825.392000
19705 19707 1 0.13986 296436.400000
19707 19708 1 0.10860 301825.392000
19707 19709 1 0.13986 296436.400000
19709 19710 1 0.10860 301825.392000
19711 19712 1 0.10860 301825.392000
19712 19713 1 0.13986 296436.400000
19712 19721 1 0.13986 296436.400000
19713 19714 1 0.18850 35430.112000
19713 19715 1 0.13986 296436.400000
19715 19716 1 0.10860 301825.392000
19715 19717 1 0.13986 296436.400000
19717 19718 1 0.10860 301825.392000
19717 19719 1 0.13986 296436.400000
19719 19720 1 0.10860 301825.392000
19719 19721 1 0.13986 296436.400000
19721 19722 1 0.10860 301825.392000
19723 19724 1 0.10860 301825.392000
19724 19725 1 0.13986 296436.400000
19724 19733 1 0.13986 296436.400000
19725 19726 1 0.18850 35430.112000
19725 19727 1 0.13986 296436.400000
19727 19728 1 0.10860 301825.392000
19727 19729 1 0.13986 296436.400000
19729 19730 1 0.10860 301825.392000
19729 19731 1 0.13986 296436.400000
19731 19732 1 0.10860 301825.392000
19731 19733 1 0.13986 296436.400000
19733 19734 1 0.10860 301825.392000
19735 19736 1 0.10860 301825.392000
19736 19737 1 0.13986 296436.400000
19736 19745 1 0.13986 296436.400000
19737 19738 1 0.18850 35430.112000
19737 19739 1 0.13986 296436.400000
19739 19740 1 0.10860 301825.392000
19739 19741 1 0.13986 296436.400000
19741 19742 1 0.10860 301825.392000
19741 19743 1 0.13986 296436.400000
19743 19744 1 0.10860 301825.392000
19743 19745 1 0.13986 296436.400000
19745 19746 1 0.10860 301825.392000
19747 19748 1 0.10860 301825.392000
19748 19749 1 0.13986 296436.400000
19748 19757 1 0.13986 296436.400000
19749 19750 1 0.18850 35430.112000
19749 19751 1 0.13986 296436.400000
19751 19752 1 0.10860 301825.392000
19751 19753 1 0.13986 296436.400000
19753 19754 1 0.10860 301825.392000
19753 19755 1 0.13986 296436.400000
19755 19756 1 0.10860 301825.392000
19755 19757 1 0.13986 296436.400000
19757 19758 1 0.10860 301825.392000
19759 19760 1 0.10860 301825.392000
19760 19761 1 0.13986 296436.400000
19760 19769 1 0.13986 296436.400000
19761 19762 1 0.18850 35430.112000
19761 19763 1 0.13986 296436.400000
19763 19764 1 0.10860 301825.392000
19763 19765 1 0.13986 296436.400000
19765 19766 1 0.10860 301825.392000
19765 19767 1 0.13986 296436.400000
19767 19768 1 0.10860 301825.392000
19767 19769 1 0.13986 296436.400000
19769 19770 1 0.10860 301825.392000
19771 19772 1 0.10860 301825.392000
19772 19773 1 0.13986 296436.400000
19772 19781 1 0.13986 296436.400000
19773 19774 1 0.18850 35430.112000
19773 19775 1 0.13986 296436.400000
19775 19776 1 0.10860 301825.392000
19775 19777 1 0.13986 296436.400000
19777 19778 1 0.10860 301825.392000
19777 19779 1 0.13986 296436.400000
19779 19780 1 0.10860 301825.392000
19779 19781 1 0.13986 296436.400000
19781 19782 1 0.10860 301825.392000
19783 19784 1 0.10860 301825.392000
19784 19785 1 0.13986 296436.400000
19784 19793 1 0.13986 296436.400000
19785 19786 1 0.18850 35430.112000
19785 19787 1 0.13986 296436.400000
19787 19788 1 0.10860 301825.392000
19787 19789 1 0.13986 296436.400000
19789 19790 1 0.10860 301825.392000
19789 19791 1 0.13986 296436.400000
19791 19792 1 0.10860 301825.392000
19791 19793 1 0.13986 296436.400000
19793 19794 1 0.10860 301825.392000
19795 19796 1 0.10860 301825.392000
19796 19797 1 0.13986 296436.400000
19796 19805 1 0.13986 296436.400000
19797 19798 1 0.18850 35430.112000
19797 19799 1 0.13986 296436.400000
19799 19800 1 0.10860 301825.392000
19799 19801 1 0.13986 296436.400000
19801 19802 1 0.10860 301825.392000
19801 19803 1 0.13986 296436.400000
19803 19804 1 0.10860 301825.392000
19803 19805 1 0.13986 296436.400000
19805 19806 1 0.10860 301825.392000
19807 19808 1 0.10860 301825.392000
19808 19809 1 0.13986 296436.400000
19808 19817 1 0.13986 296436.400000
19809 19810 1 0.18850 35430.112000
19809 19811 1 0.13986 296436.400000
19811 19812 1 0.10860 301825.392000
19811 19813 1 0.13986 296436.400000
19813 19814 1 0.10860 301825.392000
19813 19815 1 0.13986 296436.400000
19815 19816 1 0.10860 301825.392000
19815 19817 1 0.13986 296436.400000
19817 19818 1 0.10860 301825.392000
19819 19820 1 0.10860 301825.392000
19820 19821 1 0.13986 296436.400000
19820 19829 1 0.13986 296436.400000
19821 19822 1 0.18850 35430.112000
19821 19823 1 0.13986 296436.400000
19823 19824 1 0.10860 301825.392000
19823 19825 1 0.13986 296436.400000
19825 19826 1 0.10860 301825.392000
19825 19827 1 0.13986 296436.400000
19827 19828 1 0.10860 301825.392000
19827 19829 1 0.13986 296436.400000
19829 19830 1 0.10860 301825.392000
19831 19832 1 0.10860 301825.392000
19832 19833 1 0.13986 296436.400000
19832 19841 1 0.13986 296436.400000
19833 19834 1 0.18850 35430.112000
19833 19835 1 0.13986 296436.400000
19835 19836 1 0.10860 301825.392000
19835 19837 1 0.13986 296436.400000
19837 19838 1 0.10860 301825.392000
19837 19839 1 0.13986 296436.400000
19839 19840 1 0.10860 301825.392000
19839 19841 1 0.13986 296436.400000
19841 19842 1 0.10860 301825.392000
19843 19844 1 0.10860 301825.392000
19844 19845 1 0.13986 296436.400000
19844 19853 1 0.13986 296436.400000
19845 19846 1 0.18850 35430.112000
19845 19847 1 0.13986 296436.400000
19847 19848 1 0.10860 301825.392000
19847 19849 1 0.13986 296436.400000
19849 19850 1 0.10860 301825.392000
19849 19851 1 0.13986 296436.400000
19851 19852 1 0.10860 301825.392000
19851 19853 1 0.13986 296436.400000
19853 19854 1 0.10860 301825.392000
19855 19856 1 0.10860 301825.392000
19856 19857 1 0.13986 296436.400000
19856 19865 1 0.13986 296436.400000
19857 19858 1 0.18850 35430.112000
19857 19859 1 0.13986 296436.400000
19859 19860 1 0.10860 301825.392000
19859 19861 1 0.13986 296436.400000
19861 19862 1 0.10860 301825.392000
19861 19863 1 0.13986 296436.400000
19863 19864 1 0.10860 301825.392000
19863 19865 1 0.13986 296436.400000
19865 19866 1 0.10860 301825.392000
19867 19868 1 0.10860 301825.392000
19868 19869 1 0.13986 296436.400000
19868 19877 1 0.13986 296436.400000
19869 19870 1 0.18850 35430.112000
19869 19871 1 0.13986 296436.400000
19871 19872 1 0.10860 301825.392000
19871 19873 1 0.13986 296436.400000
19873 19874 1 0.10860 301825.392000
19873 19875 1 0.13986 296436.400000
19875 19876 1 0.10860 301825.392000
19875 19877 1 0.13986 296436.400000
19877 19878 1 0.10860 301825.392000
19879 19880 1 0.10860 301825.392000
19880 19881 1 0.13986 296436.400000
19880 19889 1 0.13986 296436.400000
19881 19882 1 0.18850 35430.112000
19881 19883 1 0.13986 296436.400000
19883 19884 1 0.10860 301825.392000
19883 19885 1 0.13986 296436.400000
19885 19886 1 0.10860 301825.392000
19885 19887 1 0.13986 296436.400000
19887 19888 1 0.10860 301825.392000
19887 19889 1 0.13986 296436.400000
19889 19890 1 0.10860 301825.392000
19891 19892 1 0.10860 301825.392000
19892 19893 1 0.13986 296436.400000
19892 19901 1 0.13986 296436.400000
19893 19894 1 0.18850 35430.112000
19893 19895 1 0.13986 296436.400000
19895 19896 1 0.10860 301825.392000
19895 19897 1 0.13986 296436.400000
19897 19898 1 0.10860 301825.392000
19897 19899 1 0.13986 296436.400000
19899 19900 1 0.10860 301825.392000
19899 19901 1 0.13986 296436.400000
19901 19902 1 0.10860 301825.392000
19903 19904 1 0.10860 301825.392000
19904 19905 1 0.13986 296436.400000
19904 19913 1 0.13986 296436.400000
19905 19906 1 0.18850 35430.112000
19905 19907 1 0.13986 296436.400000
19907 19908 1 0.10860 301825.392000
19907 19909 1 0.13986 296436.400000
19909 19910 1 0.10860 301825.392000
19909 19911 1 0.13986 296436.400000
19911 19912 1 0.10860 301825.392000
19911 19913 1 0.13986 296436.400000
19913 19914 1 0.10860 301825.392000
19915 19916 1 0.10860 301825.392000
19916 19917 1 0.13986 296436.400000
19916 19925 1 0.13986 296436.400000
19917 19918 1 0.18850 35430.112000
19917 19919 1 0.13986 296436.400000
19919 19920 1 0.10860 301825.392000
19919 19921 1 0.13986 296436.400000
19921 19922 1 0.10860 301825.392000
19921 19923 1 0.13986 296436.400000
19923 19924 1 0.10860 301825.392000
19923 19925 1 0.13986 296436.400000
19925 19926 1 0.10860 301825.392000
19927 19928 1 0.10860 301825.392000
19928 19929 1 0.13986 296436.400000
19928 19937 1 0.13986 296436.400000
19929 19930 1 0.18850 35430.112000
19929 19931 1 0.13986 296436.400000
19931 19932 1 0.10860 301825.392000
19931 19933 1 0.13986 296436.400000
19933 19934 1 0.10860 301825.392000
19933 19935 1 0.13986 296436.400000
19935 19936 1 0.10860 301825.392000
19935 19937 1 0.13986 296436.400000
19937 19938 1 0.10860 301825.392000
19939 19940 1 0.16500 119244.000000
19940 19941 1 0.09450 207108.000000
19942 19943 1 0.16500 119244.000000
19943 19944 1 0.09450 207108.000000
19945 19946 1 0.16500 119244.000000
19946 19947 1 0.09450 207108.000000
19948 19949 1 0.16500 119244.000000
19949 19950 1 0.09450 207108.000000
19951 19952 1 0.16500 119244.000000
19952 19953 1 0.09450 207108.000000
19954 19955 1 0.16500 119244.000000
19955 19956 1 0.09450 207108.000000
19957 19958 1 0.16500 119244.000000
19958 19959 1 0.09450 207108.000000
19960 19961 1 0.16500 119244.000000
19961 19962 1 0.09450 207108.000000
19963 19964 1 0.16500 119244.000000
19964 19965 1 0.09450 207108.000000
19966 19967 1 0.16500 119244.000000
19967 19968 1 0.09450 207108.000000
19969 19970 1 0.16500 119244.000000
19970 19971 1 0.09450 207108.000000
19972 19973 1 0.16500 119244.000000
19973 19974 1 0.09450 207108.000000
19975 19976 1 0.16500 119244.000000
19976 19977 1 0.09450 207108.000000
19978 19979 1 0.16500 119244.000000
19979 19980 1 0.09450 207108.000000
19981 19982 1 0.16500 119244.000000
19982 19983 1 0.09450 207108.000000
19984 19985 1 0.16500 119244.000000
19985 19986 1 0.09450 207108.000000
19987 19988 1 0.16500 119244.000000
19988 19989 1 0.09450 207108.000000
19990 19991 1 0.16500 119244.000000
19991 19992 1 0.09450 207108.000000
19993 19994 1 0.16500 119244.000000
19994 19995 1 0.09450 207108.000000
19996 19997 1 0.16500 119244.000000
19997 19998 1 0.09450 207108.000000
19999 20000 1 0.16500 119244.000000
20000 20001 1 0.09450 207108.000000
20002 20003 1 0.16500 119244.000000
20003 20004 1 0.09450 207108.000000
20005 20006 1 0.16500 119244.000000
20006 20007 1 0.09450 207108.000000
20008 20009 1 0.16500 119244.000000
20009 20010 1 0.09450 207108.000000
20011 20012 1 0.16500 119244.000000
20012 20013 1 0.09450 207108.000000
20014 20015 1 0.16500 119244.000000
20015 20016 1 0.09450 207108.000000
20017 20018 1 0.16500 119244.000000
20018 20019 1 0.09450 207108.000000
20020 20021 1 0.16500 119244.000000
20021 20022 1 0.09450 207108.000000
20023 20024 1 0.16500 119244.000000
20024 20025 1 0.09450 207108.000000
20026 20027 1 0.16500 119244.000000
20027 20028 1 0.09450 207108.000000
20029 20030 1 0.16500 119244.000000
20030 20031 1 0.09450 207108.000000
20032 20033 1 0.16500 119244.000000
20033 20034 1 0.09450 207108.000000
20035 20036 1 0.16500 119244.000000
20036 20037 1 0.09450 207108.000000
20038 20039 1 0.16500 119244.000000
20039 20040 1 0.09450 207108.000000
20041 20042 1 0.16500 119244.000000
20042 20043 1 0.09450 207108.000000
20044 20045 1 0.16500 119244.000000
20045 20046 1 0.09450 207108.000000
20047 20048 1 0.16500 119244.000000
20048 20049 1 0.09450 207108.000000
20050 20051 1 0.16500 119244.000000
20051 20052 1 0.09450 207108.000000
20053 20054 1 0.16500 119244.000000
20054 20055 1 0.09450 207108.000000
20056 20057 1 0.16500 119244.000000
20057 20058 1 0.09450 207108.000000
20059 20060 1 0.16500 119244.000000
20060 20061 1 0.09450 207108.000000
20062 20063 1 0.16500 119244.000000
20063 20064 1 0.09450 207108.000000
20065 20066 1 0.16500 119244.000000
20066 20067 1 0.09450 207108.000000
20068 20069 1 0.16500 119244.000000
20069 20070 1 0.09450 207108.000000
20071 20072 1 0.16500 119244.000000
20072 20073 1 0.09450 207108.000000
20074 20075 1 0.16500 119244.000000
20075 20076 1 0.09450 207108.000000
20077 20078 1 0.16500 119244.000000
20078 20079 1 0.09450 207108.000000
20080 20081 1 0.16500 119244.000000
20081 20082 1 0.09450 207108.000000
20083 20084 1 0.16500 119244.000000
20084 20085 1 0.09450 207108.000000
20086 20087 1 0.16500 119244.000000
20087 20088 1 0.09450 207108.000000
20089 20090 1 0.16500 119244.000000
20090 20091 1 0.09450 207108.000000
20092 20093 1 0.16500 119244.000000
20093 20094 1 0.09450 207108.000000
20095 20096 1 0.16500 119244.000000
20096 20097 1 0.09450 207108.000000
20098 20099 1 0.16500 119244.000000
20099 20100 1 0.09450 207108.000000
20101 20102 1 0.16500 119244.000000
20102 20103 1 0.09450 207108.000000
20104 20105 1 0.16500 119244.000000
20105 20106 1 0.09450 207108.000000
20107 20108 1 0.16500 119244.000000
20108 20109 1 0.09450 207108.000000
20110 20111 1 0.16500 119244.000000
20111 20112 1 0.09450 207108.000000
20113 20114 1 0.16500 119244.000000
20114 20115 1 0.09450 207108.000000
20116 20117 1 0.16500 119244.000000
20117 20118 1 0.09450 207108.000000
20119 20120 1 0.16500 119244.000000
20120 20121 1 0.09450 207108.000000
20122 20123 1 0.16500 119244.000000
20123 20124 1 0.09450 207108.000000
20125 20126 1 0.16500 119244.000000
20126 20127 1 0.09450 207108.000000
20128 20129 1 0.16500 119244.000000
20129 20130 1 0.09450 207108.000000
20131 20132 1 0.16500 119244.000000
20132 20133 1 0.09450 207108.000000
20134 20135 1 0.16500 119244.000000
20135 20136 1 0.09450 207108.000000
20137 20138 1 0.16500 119244.000000
20138 20139 1 0.09450 207108.000000
20140 20141 1 0.16500 119244.000000
20141 20142 1 0.09450 207108.000000
20143 20144 1 0.16500 119244.000000
20144 20145 1 0.09450 207108.000000
20146 20147 1 0.16500 119244.000000
20147 20148 1 0.09450 207108.000000
20149 20150 1 0.16500 119244.000000
20150 20151 1 0.09450 207108.000000
20152 20153 1 0.16500 119244.000000
20153 20154 1 0.09450 207108.000000
20155 20156 1 0.16500 119244.000000
20156 20157 1 0.09450 207108.000000
20158 20159 1 0.16500 119244.000000
20159 20160 1 0.09450 207108.000000
20161 20162 1 0.16500 119244.000000
20162 20163 1 0.09450 207108.000000
20164 20165 1 0.16500 119244.000000
20165 20166 1 0.09450 207108.000000
20167 20168 1 0.16500 119244.000000
20168 20169 1 0.09450 207108.000000
20170 20171 1 0.16500 119244.000000
20171 20172 1 0.09450 207108.000000
20173 20174 1 0.16500 119244.000000
20174 20175 1 0.09450 207108.000000
20176 20177 1 0.16500 119244.000000
20177 20178 1 0.09450 207108.000000
20179 20180 1 0.16500 119244.000000
20180 20181 1 0.09450 207108.000000
20182 20183 1 0.16500 119244.000000
20183 20184 1 0.09450 207108.000000
20185 20186 1 0.16500 119244.000000
20186 20187 1 0.09450 207108.000000
20188 20189 1 0.16500 119244.000000
20189 20190 1 0.09450 207108.000000
20191 20192 1 0.16500 119244.000000
20192 20193 1 0.09450 207108.000000
20194 20195 1 0.16500 119244.000000
20195 20196 1 0.09450 207108.000000
20197 20198 1 0.16500 119244.000000
20198 20199 1 0.09450 207108.000000
20200 20201 1 0.16500 119244.000000
20201 20202 1 0.09450 207108.000000
20203 20204 1 0.16500 119244.000000
20204 20205 1 0.09450 207108.000000
20206 20207 1 0.16500 119244.000000
20207 20208 1 0.09450 207108.000000
20209 20210 1 0.16500 119244.000000
20210 20211 1 0.09450 207108.000000
20212 20213 1 0.16500 119244.000000
20213 20214 1 0.09450 207108.000000
20215 20216 1 0.16500 119244.000000
20216 20217 1 0.09450 207108.000000
20218 20219 1 0.16500 119244.000000
20219 20220 1 0.09450 207108.000000
20221 20222 1 0.16500 119244.000000
20222 20223 1 0.09450 207108.000000
20224 20225 1 0.16500 119244.000000
20225 20226 1 0.09450 207108.000000
20227 20228 1 0.16500 119244.000000
20228 20229 1 0.09450 207108.000000
20230 20231 1 0.16500 119244.000000
20231 20232 1 0.09450 207108.000000
20233 20234 1 0.16500 119244.000000
20234 20235 1 0.09450 207108.000000
20236 20237 1 0.16500 119244.000000
20237 20238 1 0.09450 207108.000000
20239 20240 1 0.16500 119244.000000
20240 20241 1 0.09450 207108.000000
20242 20243 1 0.16500 119244.000000
20243 20244 1 0.09450 207108.000000
20245 20246 1 0.16500 119244.000000
20246 20247 1 0.09450 207108.000000
20248 20249 1 0.16500 119244.000000
20249 20250 1 0.09450 207108.000000
20251 20252 1 0.16500 119244.000000
20252 20253 1 0.09450 207108.000000
20254 20255 1 0.16500 119244.000000
20255 20256 1 0.09450 207108.000000
20257 20258 1 0.16500 119244.000000
20258 20259 1 0.09450 207108.000000
20260 20261 1 0.16500 119244.000000
20261 20262 1 0.09450 207108.000000
20263 20264 1 0.16500 119244.000000
20264 20265 1 0.09450 207108.000000
20266 20267 1 0.16500 119244.000000
20267 20268 1 0.09450 207108.000000
20269 20270 1 0.16500 119244.000000
20270 20271 1 0.09450 207108.000000
20272 20273 1 0.16500 119244.000000
20273 20274 1 0.09450 207108.000000
20275 20276 1 0.16500 119244.000000
20276 20277 1 0.09450 207108.000000
20278 20279 1 0.16500 119244.000000
20279 20280 1 0.09450 207108.000000
20281 20282 1 0.16500 119244.000000
20282 20283 1 0.09450 207108.000000
20284 20285 1 0.16500 119244.000000
20285 20286 1 0.09450 207108.000000
20287 20288 1 0.16500 119244.000000
20288 20289 1 0.09450 207108.000000
20290 20291 1 0.16500 119244.000000
20291 20292 1 0.09450 207108.000000
20293 20294 1 0.16500 119244.000000
20294 20295 1 0.09450 207108.000000
20296 20297 1 0.16500 119244.000000
20297 20298 1 0.09450 207108.000000
20299 20300 1 0.16500 119244.000000
20300 20301 1 0.09450 207108.000000
20302 20303 1 0.16500 119244.000000
20303 20304 1 0.09450 207108.000000
20305 20306 1 0.16500 119244.000000
20306 20307 1 0.09450 207108.000000
20308 20309 1 0.16500 119244.000000
20309 20310 1 0.09450 207108.000000
20311 20312 1 0.16500 119244.000000
20312 20313 1 0.09450 207108.000000
20314 20315 1 0.16500 119244.000000
20315 20316 1 0.09450 207108.000000
20317 20318 1 0.16500 119244.000000
20318 20319 1 0.09450 207108.000000
20320 20321 1 0.16500 119244.000000
20321 20322 1 0.09450 207108.000000
20323 20324 1 0.16500 119244.000000
20324 20325 1 0.09450 207108.000000
20326 20327 1 0.16500 119244.000000
20327 20328 1 0.09450 207108.000000
20329 20330 1 0.16500 119244.000000
20330 20331 1 0.09450 207108.000000
20332 20333 1 0.16500 119244.000000
20333 20334 1 0.09450 207108.000000
20335 20336 1 0.16500 119244.000000
20336 20337 1 0.09450 207108.000000
20338 20339 1 0.16500 119244.000000
20339 20340 1 0.09450 207108.000000
20341 20342 1 0.16500 119244.000000
20342 20343 1 0.09450 207108.000000
20344 20345 1 0.16500 119244.000000
20345 20346 1 0.09450 207108.000000
20347 20348 1 0.16500 119244.000000
20348 20349 1 0.09450 207108.000000
20350 20351 1 0.16500 119244.000000
20351 20352 1 0.09450 207108.000000
20353 20354 1 0.16500 119244.000000
20354 20355 1 0.09450 207108.000000
20356 20357 1 0.16500 119244.000000
20357 20358 1 0.09450 207108.000000
20359 20360 1 0.16500 119244.000000
20360 20361 1 0.09450 207108.000000
20362 20363 1 0.16500 119244.000000
20363 20364 1 0.09450 207108.000000
20365 20366 1 0.16500 119244.000000
20366 20367 1 0.09450 207108.000000
20368 20369 1 0.16500 119244.000000
20369 20370 1 0.09450 207108.000000
20371 20372 1 0.16500 119244.000000
20372 20373 1 0.09450 207108.000000
20374 20375 1 0.16500 119244.000000
20375 20376 1 0.09450 207108.000000
20377 20378 1 0.16500 119244.000000
20378 20379 1 0.09450 207108.000000
20380 20381 1 0.16500 119244.000000
20381 20382 1 0.09450 207108.000000
20383 20384 1 0.16500 119244.000000
20384 20385 1 0.09450 207108.000000
20386 20387 1 0.16500 119244.000000
20387 20388 1 0.09450 207108.000000
20389 20390 1 0.16500 119244.000000
20390 20391 1 0.09450 207108.000000
20392 20393 1 0.16500 119244.000000
20393 20394 1 0.09450 207108.000000
20395 20396 1 0.16500 119244.000000
20396 20397 1 0.09450 207108.000000
20398 20399 1 0.16500 119244.000000
20399 20400 1 0.09450 207108.000000
20401 20402 1 0.16500 119244.000000
20402 20403 1 0.09450 207108.000000
20404 20405 1 0.16500 119244.000000
20405 20406 1 0.09450 207108.000000
20407 20408 1 0.16500 119244.000000
20408 20409 1 0.09450 207108.000000
20410 20411 1 0.16500 119244.000000
20411 20412 1 0.09450 207108.000000
20413 20414 1 0.16500 119244.000000
20414 20415 1 0.09450 207108.000000
20416 20417 1 0.16500 119244.000000
20417 20418 1 0.09450 207108.000000
20419 20420 1 0.16500 119244.000000
20420 20421 1 0.09450 207108.000000
20422 20423 1 0.16500 119244.000000
20423 20424 1 0.09450 207108.000000
20425 20426 1 0.16500 119244.000000
20426 20427 1 0.09450 207108.000000
20428 20429 1 0.16500 119244.000000
20429 20430 1 0.09450 207108.000000
20431 20432 1 0.16500 119244.000000
20432 20433 1 0.09450 207108.000000
20434 20435 1 0.16500 119244.000000
20435 20436 1 0.09450 207108.000000
20437 20438 1 0.16500 119244.000000
20438 20439 1 0.09450 207108.000000
20440 20441 1 0.16500 119244.000000
20441 20442 1 0.09450 207108.000000
20443 20444 1 0.16500 119244.000000
20444 20445 1 0.09450 207108.000000
20446 20447 1 0.16500 119244.000000
20447 20448 1 0.09450 207108.000000
20449 20450 1 0.16500 119244.000000
20450 20451 1 0.09450 207108.000000
20452 20453 1 0.16500 119244.000000
20453 20454 1 0.09450 207108.000000
20455 20456 1 0.16500 119244.000000
20456 20457 1 0.09450 207108.000000
20458 20459 1 0.16500 119244.000000
20459 20460 1 0.09450 207108.000000
20461 20462 1 0.16500 119244.000000
20462 20463 1 0.09450 207108.000000
20464 20465 1 0.16500 119244.000000
20465 20466 1 0.09450 207108.000000
20467 20468 1 0.16500 119244.000000
20468 20469 1 0.09450 207108.000000
20470 20471 1 0.16500 119244.000000
20471 20472 1 0.09450 207108.000000
20473 20474 1 0.16500 119244.000000
20474 20475 1 0.09450 207108.000000
20476 20477 1 0.16500 119244.000000
20477 20478 1 0.09450 207108.000000
20479 20480 1 0.16500 119244.000000
20480 20481 1 0.09450 207108.000000
20482 20483 1 0.16500 119244.000000
20483 20484 1 0.09450 207108.000000
20485 20486 1 0.16500 119244.000000
20486 20487 1 0.09450 207108.000000
20488 20489 1 0.16500 119244.000000
20489 20490 1 0.09450 207108.000000
20491 20492 1 0.16500 119244.000000
20492 20493 1 0.09450 207108.000000
20494 20495 1 0.16500 119244.000000
20495 20496 1 0.09450 207108.000000
20497 20498 1 0.16500 119244.000000
20498 20499 1 0.09450 207108.000000
20500 20501 1 0.16500 119244.000000
20501 20502 1 0.09450 207108.000000
20503 20504 1 0.16500 119244.000000
20504 20505 1 0.09450 207108.000000
20506 20507 1 0.16500 119244.000000
20507 20508 1 0.09450 207108.000000
20509 20510 1 0.16500 119244.000000
20510 20511 1 0.09450 207108.000000
20512 20513 1 0.16500 119244.000000
20513 20514 1 0.09450 207108.000000
20515 20516 1 0.16500 119244.000000
20516 20517 1 0.09450 207108.000000
20518 20519 1 0.16500 119244.000000
20519 20520 1 0.09450 207108.000000
20521 20522 1 0.16500 119244.000000
20522 20523 1 0.09450 207108.000000
20524 20525 1 0.16500 119244.000000
20525 20526 1 0.09450 207108.000000
20527 20528 1 0.16500 119244.000000
20528 20529 1 0.09450 207108.000000
20530 20531 1 0.16500 119244.000000
20531 20532 1 0.09450 207108.000000
20533 20534 1 0.16500 119244.000000
20534 20535 1 0.09450 207108.000000
20536 20537 1 0.16500 119244.000000
20537 20538 1 0.09450 207108.000000
20539 20540 1 0.16500 119244.000000
20540 20541 1 0.09450 207108.000000
20542 20543 1 0.16500 119244.000000
20543 20544 1 0.09450 207108.000000
20545 20546 1 0.16500 119244.000000
20546 20547 1 0.09450 207108.000000
20548 20549 1 0.16500 119244.000000
20549 20550 1 0.09450 207108.000000
20551 20552 1 0.16500 119244.000000
20552 20553 1 0.09450 207108.000000
20554 20555 1 0.16500 119244.000000
20555 20556 1 0.09450 207108.000000
20557 20558 1 0.16500 119244.000000
20558 20559 1 0.09450 207108.000000
20560 20561 1 0.16500 119244.000000
20561 20562 1 0.09450 207108.000000
20563 20564 1 0.16500 119244.000000
20564 20565 1 0.09450 207108.000000
20566 20567 1 0.16500 119244.000000
20567 20568 1 0.09450 207108.000000
20569 20570 1 0.16500 119244.000000
20570 20571 1 0.09450 207108.000000
20572 20573 1 0.16500 119244.000000
20573 20574 1 0.09450 207108.000000
20575 20576 1 0.16500 119244.000000
20576 20577 1 0.09450 207108.000000
20578 20579 1 0.16500 119244.000000
20579 20580 1 0.09450 207108.000000
20581 20582 1 0.16500 119244.000000
20582 20583 1 0.09450 207108.000000
20584 20585 1 0.16500 119244.000000
20585 20586 1 0.09450 207108.000000
20587 20588 1 0.16500 119244.000000
20588 20589 1 0.09450 207108.000000
20590 20591 1 0.16500 119244.000000
20591 20592 1 0.09450 207108.000000
20593 20594 1 0.16500 119244.000000
20594 20595 1 0.09450 207108.000000
20596 20597 1 0.16500 119244.000000
20597 20598 1 0.09450 207108.000000
20599 20600 1 0.16500 119244.000000
20600 20601 1 0.09450 207108.000000
20602 20603 1 0.16500 119244.000000
20603 20604 1 0.09450 207108.000000
20605 20606 1 0.16500 119244.000000
20606 20607 1 0.09450 207108.000000
20608 20609 1 0.16500 119244.000000
20609 20610 1 0.09450 207108.000000
20611 20612 1 0.16500 119244.000000
20612 20613 1 0.09450 207108.000000
20614 20615 1 0.16500 119244.000000
20615 20616 1 0.09450 207108.000000
20617 20618 1 0.16500 119244.000000
20618 20619 1 0.09450 207108.000000
20620 20621 1 0.16500 119244.000000
20621 20622 1 0.09450 207108.000000
20623 20624 1 0.16500 119244.000000
20624 20625 1 0.09450 207108.000000
20626 20627 1 0.16500 119244.000000
20627 20628 1 0.09450 207108.000000
20629 20630 1 0.16500 119244.000000
20630 20631 1 0.09450 207108.000000
20632 20633 1 0.16500 119244.000000
20633 20634 1 0.09450 207108.000000
20635 20636 1 0.16500 119244.000000
20636 20637 1 0.09450 207108.000000
20638 20639 1 0.16500 119244.000000
20639 20640 1 0.09450 207108.000000
20641 20642 1 0.16500 119244.000000
20642 20643 1 0.09450 207108.000000
20644 20645 1 0.16500 119244.000000
20645 20646 1 0.09450 207108.000000
20647 20648 1 0.16500 119244.000000
20648 20649 1 0.09450 207108.000000
20650 20651 1 0.16500 119244.000000
20651 20652 1 0.09450 207108.000000
20653 20654 1 0.16500 119244.000000
20654 20655 1 0.09450 207108.000000
20656 20657 1 0.16500 119244.000000
20657 20658 1 0.09450 207108.000000
20659 20660 1 0.16500 119244.000000
20660 20661 1 0.09450 207108.000000
20662 20663 1 0.16500 119244.000000
20663 20664 1 0.09450 207108.000000
20665 20666 1 0.16500 119244.000000
20666 20667 1 0.09450 207108.000000
20668 20669 1 0.16500 119244.000000
20669 20670 1 0.09450 207108.000000
20671 20672 1 0.16500 119244.000000
20672 20673 1 0.09450 207108.000000
20674 20675 1 0.16500 119244.000000
20675 20676 1 0.09450 207108.000000
20677 20678 1 0.16500 119244.000000
20678 20679 1 0.09450 207108.000000
20680 20681 1 0.16500 119244.000000
20681 20682 1 0.09450 207108.000000
20683 20684 1 0.16500 119244.000000
20684 20685 1 0.09450 207108.000000
20686 20687 1 0.16500 119244.000000
20687 20688 1 0.09450 207108.000000
20689 20690 1 0.16500 119244.000000
20690 20691 1 0.09450 207108.000000
20692 20693 1 0.16500 119244.000000
20693 20694 1 0.09450 207108.000000
20695 20696 1 0.16500 119244.000000
20696 20697 1 0.09450 207108.000000
20698 20699 1 0.16500 119244.000000
20699 20700 1 0.09450 207108.000000
20701 20702 1 0.16500 119244.000000
20702 20703 1 0.09450 207108.000000
20704 20705 1 0.16500 119244.000000
20705 20706 1 0.09450 207108.000000
20707 20708 1 0.16500 119244.000000
20708 20709 1 0.09450 207108.000000
20710 20711 1 0.16500 119244.000000
20711 20712 1 0.09450 207108.000000
20713 20714 1 0.16500 119244.000000
20714 20715 1 0.09450 207108.000000
20716 20717 1 0.16500 119244.000000
20717 20718 1 0.09450 207108.000000
20719 20720 1 0.16500 119244.000000
20720 20721 1 0.09450 207108.000000
20722 20723 1 0.16500 119244.000000
20723 20724 1 0.09450 207108.000000
20725 20726 1 0.16500 119244.000000
20726 20727 1 0.09450 207108.000000
20728 20729 1 0.16500 119244.000000
20729 20730 1 0.09450 207108.000000
20731 20732 1 0.16500 119244.000000
20732 20733 1 0.09450 207108.000000
20734 20735 1 0.16500 119244.000000
20735 20736 1 0.09450 207108.000000
20737 20738 1 0.16500 119244.000000
20738 20739 1 0.09450 207108.000000
20740 20741 1 0.16500 119244.000000
20741 20742 1 0.09450 207108.000000
20743 20744 1 0.16500 119244.000000
20744 20745 1 0.09450 207108.000000
20746 20747 1 0.16500 119244.000000
20747 20748 1 0.09450 207108.000000
20749 20750 1 0.16500 119244.000000
20750 20751 1 0.09450 207108.000000
20752 20753 1 0.16500 119244.000000
20753 20754 1 0.09450 207108.000000
20755 20756 1 0.16500 119244.000000
20756 20757 1 0.09450 207108.000000
20758 20759 1 0.16500 119244.000000
20759 20760 1 0.09450 207108.000000
20761 20762 1 0.16500 119244.000000
20762 20763 1 0.09450 207108.000000
20764 20765 1 0.16500 119244.000000
20765 20766 1 0.09450 207108.000000
20767 20768 1 0.16500 119244.000000
20768 20769 1 0.09450 207108.000000
20770 20771 1 0.16500 119244.000000
20771 20772 1 0.09450 207108.000000
20773 20774 1 0.16500 119244.000000
20774 20775 1 0.09450 207108.000000
20776 20777 1 0.16500 119244.000000
20777 20778 1 0.09450 207108.000000
20779 20780 1 0.16500 119244.000000
20780 20781 1 0.09450 207108.000000
20782 20783 1 0.16500 119244.000000
20783 20784 1 0.09450 207108.000000
20785 20786 1 0.16500 119244.000000
20786 20787 1 0.09450 207108.000000
20788 20789 1 0.16500 119244.000000
20789 20790 1 0.09450 207108.000000
20791 20792 1 0.16500 119244.000000
20792 20793 1 0.09450 207108.000000
20794 20795 1 0.16500 119244.000000
20795 20796 1 0.09450 207108.000000
20797 20798 1 0.16500 119244.000000
20798 20799 1 0.09450 207108.000000
20800 20801 1 0.16500 119244.000000
20801 20802 1 0.09450 207108.000000
20803 20804 1 0.16500 119244.000000
20804 20805 1 0.09450 207108.000000
20806 20807 1 0.16500 119244.000000
20807 20808 1 0.09450 207108.000000
20809 20810 1 0.16500 119244.000000
20810 20811 1 0.09450 207108.000000
20812 20813 1 0.16500 119244.000000
20813 20814 1 0.09450 207108.000000
20815 20816 1 0.16500 119244.000000
20816 20817 1 0.09450 207108.000000
20818 20819 1 0.16500 119244.000000
20819 20820 1 0.09450 207108.000000
20821 20822 1 0.16500 119244.000000
20822 20823 1 0.09450 207108.000000
20824 20825 1 0.16500 119244.000000
20825 20826 1 0.09450 207108.000000
20827 20828 1 0.16500 119244.000000
20828 20829 1 0.09450 207108.000000
20830 20831 1 0.16500 119244.000000
20831 20832 1 0.09450 207108.000000
20833 20834 1 0.16500 119244.000000
20834 20835 1 0.09450 207108.000000
20836 20837 1 0.16500 119244.000000
20837 20838 1 0.09450 207108.000000
20839 20840 1 0.16500 119244.000000
20840 20841 1 0.09450 207108.000000
20842 20843 1 0.16500 119244.000000
20843 20844 1 0.09450 207108.000000
20845 20846 1 0.16500 119244.000000
20846 20847 1 0.09450 207108.000000
20848 20849 1 0.16500 119244.000000
20849 20850 1 0.09450 207108.000000
20851 20852 1 0.16500 119244.000000
20852 20853 1 0.09450 207108.000000
20854 20855 1 0.16500 119244.000000
20855 20856 1 0.09450 207108.000000
20857 20858 1 0.16500 119244.000000
20858 20859 1 0.09450 207108.000000
20860 20861 1 0.16500 119244.000000
20861 20862 1 0.09450 207108.000000
20863 20864 1 0.16500 119244.000000
20864 20865 1 0.09450 207108.000000
20866 20867 1 0.16500 119244.000000
20867 20868 1 0.09450 207108.000000
20869 20870 1 0.16500 119244.000000
20870 20871 1 0.09450 207108.000000
20872 20873 1 0.16500 119244.000000
20873 20874 1 0.09450 207108.000000
20875 20876 1 0.16500 119244.000000
20876 20877 1 0.09450 207108.000000
20878 20879 1 0.16500 119244.000000
20878 20881 1 0.16500 119244.000000
20879 20880 1 0.09450 207108.000000
20881 20882 1 0.09450 207108.000000
20883 20884 1 0.16500 119244.000000
20883 20886 1 0.16500 119244.000000
20884 20885 1 0.09450 207108.000000
20886 20887 1 0.09450 207108.000000
20888 20889 1 0.16500 119244.000000
20888 20891 1 0.16500 119244.000000
20889 20890 1 0.09450 207108.000000
20891 20892 1 0.09450 207108.000000
20893 20894 1 0.16500 119244.000000
20893 20896 1 0.16500 119244.000000
20894 20895 1 0.09450 207108.000000
20896 20897 1 0.09450 207108.000000
20898 20899 1 0.16500 119244.000000
20898 20901 1 0.16500 119244.000000
20899 20900 1 0.09450 207108.000000
20901 20902 1 0.09450 207108.000000
20903 20904 1 0.16500 119244.000000
20903 20906 1 0.16500 119244.000000
20904 20905 1 0.09450 207108.000000
20906 20907 1 0.09450 207108.000000
20908 20909 1 0.16500 119244.000000
20908 20911 1 0.16500 119244.000000
20909 20910 1 0.09450 207108.000000
20911 20912 1 0.09450 207108.000000
20913 20914 1 0.16500 119244.000000
20913 20916 1 0.16500 119244.000000
20914 20915 1 0.09450 207108.000000
20916 20917 1 0.09450 207108.000000
20918 20919 1 0.16500 119244.000000
20918 20921 1 0.16500 119244.000000
20919 20920 1 0.09450 207108.000000
20921 20922 1 0.09450 207108.000000
20923 20924 1 0.16500 119244.000000
20923 20926 1 0.16500 119244.000000
20924 20925 1 0.09450 207108.000000
20926 20927 1 0.09450 207108.000000
20928 20929 1 0.16500 119244.000000
20928 20931 1 0.16500 119244.000000
20929 20930 1 0.09450 207108.000000
20931 20932 1 0.09450 207108.000000
20933 20934 1 0.16500 119244.000000
20933 20936 1 0.16500 119244.000000
20934 20935 1 0.09450 207108.000000
20936 20937 1 0.09450 207108.000000
20938 20939 1 0.16500 119244.000000
20938 20941 1 0.16500 119244.000000
20939 20940 1 0.09450 207108.000000
20941 20942 1 0.09450 207108.000000
20943 20944 1 0.16500 119244.000000
20943 20946 1 0.16500 119244.000000
20944 20945 1 0.09450 207108.000000
20946 20947 1 0.09450 207108.000000
20948 20949 1 0.16500 119244.000000
20948 20951 1 0.16500 119244.000000
20949 20950 1 0.09450 207108.000000
20951 20952 1 0.09450 207108.000000
20953 20954 1 0.16500 119244.000000
20953 20956 1 0.16500 119244.000000
20954 20955 1 0.09450 207108.000000
20956 20957 1 0.09450 207108.000000
20958 20959 1 0.16500 119244.000000
20958 20961 1 0.16500 119244.000000
20959 20960 1 0.09450 207108.000000
20961 20962 1 0.09450 207108.000000
20963 20964 1 0.16500 119244.000000
20963 20966 1 0.16500 119244.000000
20964 20965 1 0.09450 207108.000000
20966 20967 1 0.09450 207108.000000
20968 20969 1 0.16500 119244.000000
20968 20971 1 0.16500 119244.000000
20969 20970 1 0.09450 207108.000000
20971 20972 1 0.09450 207108.000000
20973 20974 1 0.16500 119244.000000
20973 20976 1 0.16500 119244.000000
20974 20975 1 0.09450 207108.000000
20976 20977 1 0.09450 207108.000000
20978 20979 1 0.16500 119244.000000
20978 20981 1 0.16500 119244.000000
20979 20980 1 0.09450 207108.000000
20981 20982 1 0.09450 207108.000000
20983 20984 1 0.16500 119244.000000
20983 20986 1 0.16500 119244.000000
20984 20985 1 0.09450 207108.000000
20986 20987 1 0.09450 207108.000000
20988 20989 1 0.16500 119244.000000
20988 20991 1 0.16500 119244.000000
20989 20990 1 0.09450 207108.000000
20991 20992 1 0.09450 207108.000000
20993 20994 1 0.16500 119244.000000
20993 20996 1 0.16500 119244.000000
20994 20995 1 0.09450 207108.000000
20996 20997 1 0.09450 207108.000000
20998 20999 1 0.16500 119244.000000
20998 21001 1 0.16500 119244.000000
20999 21000 1 0.09450 207108.000000
21001 21002 1 0.09450 207108.000000
21003 21004 1 0.16500 119244.000000
21003 21006 1 0.16500 119244.000000
21004 21005 1 0.09450 207108.000000
21006 21007 1 0.09450 207108.000000
21008 21009 1 0.16500 119244.000000
21008 21011 1 0.16500 119244.000000
21009 21010 1 0.09450 207108.000000
21011 21012 1 0.09450 207108.000000
21013 21014 1 0.16500 119244.000000
21013 21016 1 0.16500 119244.000000
21014 21015 1 0.09450 207108.000000
21016 21017 1 0.09450 207108.000000
21018 21019 1 0.16500 119244.000000
21018 21021 1 0.16500 119244.000000
21019 21020 1 0.09450 207108.000000
21021 21022 1 0.09450 207108.000000
21023 21024 1 0.16500 119244.000000
21023 21026 1 0.16500 119244.000000
21024 21025 1 0.09450 207108.000000
21026 21027 1 0.09450 207108.000000

[ pairs ]
; ai aj funct params
16697 16700 1
16697 16701 1
16697 16705 1
16697 16708 1
16698 16702 1
16698 16703 1
16698 16706 1
16699 16704 1
16699 16705 1
16699 16708 1
16700 16702 1
16700 16703 1
16700 16707 1
16701 16706 1
16701 16707 1
16702 16704 1
16702 16705 1
16703 16708 1
16704 16706 1
16704 16707 1
16706 16708 1
16711 16714 1
16711 16715 1
16711 16719 1
16711 16722 1
16712 16716 1
16712 16717 1
16712 16720 1
16713 16718 1
16713 16719 1
16713 16722 1
16714 16716 1
16714 16717 1
16714 16721 1
16715 16720 1
16715 16721 1
16716 16718 1
16716 16719 1
16717 16722 1
16718 16720 1
16718 16721 1
16720 16722 1
16725 16728 1
16725 16729 1
16725 16733 1
16725 16736 1
16726 16730 1
16726 16731 1
16726 16734 1
16727 16732 1
16727 16733 1
16727 16736 1
16728 16730 1
16728 16731 1
16728 16735 1
16729 16734 1
16729 16735 1
16730 16732 1
16730 16733 1
16731 16736 1
16732 16734 1
16732 16735 1
16734 16736 1
16739 16742 1
16739 16743 1
16739 16747 1
16739 16750 1
16740 16744 1
16740 16745 1
16740 16748 1
16741 16746 1
16741 16747 1
16741 16750 1
16742 16744 1
16742 16745 1
16742 16749 1
16743 16748 1
16743 16749 1
16744 16746 1
16744 16747 1
16745 16750 1
16746 16748 1
16746 16749 1
16748 16750 1
16753 16756 1
16753 16757 1
16753 16761 1
16753 16764 1
16754 16758 1
16754 16759 1
16754 16762 1
16755 16760 1
16755 16761 1
16755 16764 1
16756 16758 1
16756 16759 1
16756 16763 1
16757 16762 1
16757 16763 1
16758 16760 1
16758 16761 1
16759 16764 1
16760 16762 1
16760 16763 1
16762 16764 1
16767 16770 1
16767 16771 1
16767 16775 1
16767 16778 1
16768 16772 1
16768 16773 1
16768 16776 1
16769 16774 1
16769 16775 1
16769 16778 1
16770 16772 1
16770 16773 1
16770 16777 1
16771 16776 1
16771 16777 1
16772 16774 1
16772 16775 1
16773 16778 1
16774 16776 1
16774 16777 1
16776 16778 1
16781 16784 1
16781 16785 1
16781 16789 1
16781 16792 1
16782 16786 1
16782 16787 1
16782 16790 1
16783 16788 1
16783 16789 1
16783 16792 1
16784 16786 1
16784 16787 1
16784 16791 1
16785 16790 1
16785 16791 1
16786 16788 1
16786 16789 1
16787 16792 1
16788 16790 1
16788 16791 1
16790 16792 1
16795 16798 1
16795 16799 1
16795 16803 1
16795 16806 1
16796 16800 1
16796 16801 1
16796 16804 1
16797 16802 1
16797 16803 1
16797 16806 1
16798 16800 1
16798 16801 1
16798 16805 1
16799 16804 1
16799 16805 1
16800 16802 1
16800 16803 1
16801 16806 1
16802 16804 1
16802 16805 1
16804 16806 1
16809 16812 1
16809 16813 1
16809 16817 1
16809 16820 1
16810 16814 1
16810 16815 1
16810 16818 1
16811 16816 1
16811 16817 1
16811 16820 1
16812 16814 1
16812 16815 1
16812 16819 1
16813 16818 1
16813 16819 1
16814 16816 1
16814 16817 1
16815 16820 1
16816 16818 1
16816 16819 1
16818 16820 1
16823 16826 1
16823 16827 1
16823 16831 1
16823 16834 1
16824 16828 1
16824 16829 1
16824 16832 1
16825 16830 1
16825 16831 1
16825 16834 1
16826 16828 1
16826 16829 1
16826 16833 1
16827 16832 1
16827 16833 1
16828 16830 1
16828 16831 1
16829 16834 1
16830 16832 1
16830 16833 1
16832 16834 1
16837 16840 1
16837 16841 1
16837 16845 1
16837 16848 1
16838 16842 1
16838 16843 1
16838 16846 1
16839 16844 1
16839 16845 1
16839 16848 1
16840 16842 1
16840 16843 1
16840 16847 1
16841 16846 1
16841 16847 1
16842 16844 1
16842 16845 1
16843 16848 1
16844 16846 1
16844 16847 1
16846 16848 1
16851 16854 1
16851 16855 1
16851 16859 1
16851 16862 1
16852 16856 1
16852 16857 1
16852 16860 1
16853 16858 1
16853 16859 1
16853 16862 1
16854 16856 1
16854 16857 1
16854 16861 1
16855 16860 1
16855 16861 1
16856 16858 1
16856 16859 1
16857 16862 1
16858 16860 1
16858 16861 1
16860 16862 1
16865 16868 1
16865 16869 1
16865 16873 1
16865 16876 1
16866 16870 1
16866 16871 1
16866 16874 1
16867 16872 1
16867 16873 1
16867 16876 1
16868 16870 1
16868 16871 1
16868 16875 1
16869 16874 1
16869 16875 1
16870 16872 1
16870 16873 1
16871 16876 1
16872 16874 1
16872 16875 1
16874 16876 1
16879 16882 1
16879 16883 1
16879 16887 1
16879 16890 1
16880 16884 1
16880 16885 1
16880 16888 1
16881 16886 1
16881 16887 1
16881 16890 1
16882 16884 1
16882 16885 1
16882 16889 1
16883 16888 1
16883 16889 1
16884 16886 1
16884 16887 1
16885 16890 1
16886 16888 1
16886 16889 1
16888 16890 1
16893 16896 1
16893 16897 1
16893 16901 1
16893 16904 1
16894 16898 1
16894 16899 1
16894 16902 1
16895 16900 1
16895 16901 1
16895 16904 1
16896 16898 1
16896 16899 1
16896 16903 1
16897 16902 1
16897 16903 1
16898 16900 1
16898 16901 1
16899 16904 1
16900 16902 1
16900 16903 1
16902 16904 1
16907 16910 1
16907 16911 1
16907 16915 1
16907 16918 1
16908 16912 1
16908 16913 1
16908 16916 1
16909 16914 1
16909 16915 1
16909 16918 1
16910 16912 1
16910 16913 1
16910 16917 1
16911 16916 1
16911 16917 1
16912 16914 1
16912 16915 1
16913 16918 1
16914 16916 1
16914 16917 1
16916 16918 1
16921 16924 1
16921 16925 1
16921 16929 1
16921 16932 1
16922 16926 1
16922 16927 1
16922 16930 1
16923 16928 1
16923 16929 1
16923 16932 1
16924 16926 1
16924 16927 1
16924 16931 1
16925 16930 1
16925 16931 1
16926 16928 1
16926 16929 1
16927 16932 1
16928 16930 1
16928 16931 1
16930 16932 1
16935 16938 1
16935 16939 1
16935 16943 1
16935 16946 1
16936 16940 1
16936 16941 1
16936 16944 1
16937 16942 1
16937 16943 1
16937 16946 1
16938 16940 1
16938 16941 1
16938 16945 1
16939 16944 1
16939 16945 1
16940 16942 1
16940 16943 1
16941 16946 1
16942 16944 1
16942 16945 1
16944 16946 1
16949 16952 1
16949 16953 1
16949 16957 1
16949 16960 1
16950 16954 1
16950 16955 1
16950 16958 1
16951 16956 1
16951 16957 1
16951 16960 1
16952 16954 1
16952 16955 1
16952 16959 1
16953 16958 1
16953 16959 1
16954 16956 1
16954 16957 1
16955 16960 1
16956 16958 1
16956 16959 1
16958 16960 1
16963 16966 1
16963 16967 1
16963 16971 1
16963 16974 1
16964 16968 1
16964 16969 1
16964 16972 1
16965 16970 1
16965 16971 1
16965 16974 1
16966 16968 1
16966 16969 1
16966 16973 1
16967 16972 1
16967 16973 1
16968 16970 1
16968 16971 1
16969 16974 1
16970 16972 1
16970 16973 1
16972 16974 1
16977 16980 1
16977 16981 1
16977 16985 1
16977 16988 1
16978 16982 1
16978 16983 1
16978 16986 1
16979 16984 1
16979 16985 1
16979 16988 1
16980 16982 1
16980 16983 1
16980 16987 1
16981 16986 1
16981 16987 1
16982 16984 1
16982 16985 1
16983 16988 1
16984 16986 1
16984 16987 1
16986 16988 1
16991 16994 1
16991 16995 1
16991 16999 1
16991 17002 1
16992 16996 1
16992 16997 1
16992 17000 1
16993 16998 1
16993 16999 1
16993 17002 1
16994 16996 1
16994 16997 1
16994 17001 1
16995 17000 1
16995 17001 1
16996 16998 1
16996 16999 1
16997 17002 1
16998 17000 1
16998 17001 1
17000 17002 1
17005 17008 1
17005 17009 1
17005 17013 1
17005 17016 1
17006 17010 1
17006 17011 1
17006 17014 1
17007 17012 1
17007 17013 1
17007 17016 1
17008 17010 1
17008 17011 1
17008 17015 1
17009 17014 1
17009 17015 1
17010 17012 1
17010 17013 1
17011 17016 1
17012 17014 1
17012 17015 1
17014 17016 1
17019 17022 1
17019 17023 1
17019 17027 1
17019 17030 1
17020 17024 1
17020 17025 1
17020 17028 1
17021 17026 1
17021 17027 1
17021 17030 1
17022 17024 1
17022 17025 1
17022 17029 1
17023 17028 1
17023 17029 1
17024 17026 1
17024 17027 1
17025 17030 1
17026 17028 1
17026 17029 1
17028 17030 1
17033 17036 1
17033 17037 1
17033 17041 1
17033 17044 1
17034 17038 1
17034 17039 1
17034 17042 1
17035 17040 1
17035 17041 1
17035 17044 1
17036 17038 1
17036 17039 1
17036 17043 1
17037 17042 1
17037 17043 1
17038 17040 1
17038 17041 1
17039 17044 1
17040 17042 1
17040 17043 1
17042 17044 1
17047 17050 1
17047 17051 1
17047 17055 1
17047 17058 1
17048 17052 1
17048 17053 1
17048 17056 1
17049 17054 1
17049 17055 1
17049 17058 1
17050 17052 1
17050 17053 1
17050 17057 1
17051 17056 1
17051 17057 1
17052 17054 1
17052 17055 1
17053 17058 1
17054 17056 1
17054 17057 1
17056 17058 1
17061 17064 1
17061 17065 1
17061 17069 1
17061 17072 1
17062 17066 1
17062 17067 1
17062 17070 1
17063 17068 1
17063 17069 1
17063 17072 1
17064 17066 1
17064 17067 1
17064 17071 1
17065 17070 1
17065 17071 1
17066 17068 1
17066 17069 1
17067 17072 1
17068 17070 1
17068 17071 1
17070 17072 1
17075 17078 1
17075 17079 1
17075 17083 1
17075 17086 1
17076 17080 1
17076 17081 1
17076 17084 1
17077 17082 1
17077 17083 1
17077 17086 1
17078 17080 1
17078 17081 1
17078 17085 1
17079 17084 1
17079 17085 1
17080 17082 1
17080 17083 1
17081 17086 1
17082 17084 1
17082 17085 1
17084 17086 1
17089 17092 1
17089 17093 1
17089 17097 1
17089 17100 1
17090 17094 1
17090 17095 1
17090 17098 1
17091 17096 1
17091 17097 1
17091 17100 1
17092 17094 1
17092 17095 1
17092 17099 1
17093 17098 1
17093 17099 1
17094 17096 1
17094 17097 1
17095 17100 1
17096 17098 1
17096 17099 1
17098 17100 1
17103 17106 1
17103 17107 1
17103 17111 1
17103 17114 1
17104 17108 1
17104 17109 1
17104 17112 1
17105 17110 1
17105 17111 1
17105 17114 1
17106 17108 1
17106 17109 1
17106 17113 1
17107 17112 1
17107 17113 1
17108 17110 1
17108 17111 1
17109 17114 1
17110 17112 1
17110 17113 1
17112 17114 1
17117 17120 1
17117 17121 1
17117 17125 1
17117 17128 1
17118 17122 1
17118 17123 1
17118 17126 1
17119 17124 1
17119 17125 1
17119 17128 1
17120 17122 1
17120 17123 1
17120 17127 1
17121 17126 1
17121 17127 1
17122 17124 1
17122 17125 1
17123 17128 1
17124 17126 1
17124 17127 1
17126 17128 1
17131 17134 1
17131 17135 1
17131 17139 1
17131 17142 1
17132 17136 1
17132 17137 1
17132 17140 1
17133 17138 1
17133 17139 1
17133 17142 1
17134 17136 1
17134 17137 1
17134 17141 1
17135 17140 1
17135 17141 1
17136 17138 1
17136 17139 1
17137 17142 1
17138 17140 1
17138 17141 1
17140 17142 1
17145 17148 1
17145 17149 1
17145 17153 1
17145 17156 1
17146 17150 1
17146 17151 1
17146 17154 1
17147 17152 1
17147 17153 1
17147 17156 1
17148 17150 1
17148 17151 1
17148 17155 1
17149 17154 1
17149 17155 1
17150 17152 1
17150 17153 1
17151 17156 1
17152 17154 1
17152 17155 1
17154 17156 1
17159 17162 1
17159 17163 1
17159 17167 1
17159 17170 1
17160 17164 1
17160 17165 1
17160 17168 1
17161 17166 1
17161 17167 1
17161 17170 1
17162 17164 1
17162 17165 1
17162 17169 1
17163 17168 1
17163 17169 1
17164 17166 1
17164 17167 1
17165 17170 1
17166 17168 1
17166 17169 1
17168 17170 1
17173 17176 1
17173 17177 1
17173 17181 1
17173 17184 1
17174 17178 1
17174 17179 1
17174 17182 1
17175 17180 1
17175 17181 1
17175 17184 1
17176 17178 1
17176 17179 1
17176 17183 1
17177 17182 1
17177 17183 1
17178 17180 1
17178 17181 1
17179 17184 1
17180 17182 1
17180 17183 1
17182 17184 1
17187 17190 1
17187 17191 1
17187 17195 1
17187 17198 1
17188 17192 1
17188 17193 1
17188 17196 1
17189 17194 1
17189 17195 1
17189 17198 1
17190 17192 1
17190 17193 1
17190 17197 1
17191 17196 1
17191 17197 1
17192 17194 1
17192 17195 1
17193 17198 1
17194 17196 1
17194 17197 1
17196 17198 1
17201 17204 1
17201 17205 1
17201 17209 1
17201 17212 1
17202 17206 1
17202 17207 1
17202 17210 1
17203 17208 1
17203 17209 1
17203 17212 1
17204 17206 1
17204 17207 1
17204 17211 1
17205 17210 1
17205 17211 1
17206 17208 1
17206 17209 1
17207 17212 1
17208 17210 1
17208 17211 1
17210 17212 1
17215 17218 1
17215 17219 1
17215 17223 1
17215 17226 1
17216 17220 1
17216 17221 1
17216 17224 1
17217 17222 1
17217 17223 1
17217 17226 1
17218 17220 1
17218 17221 1
17218 17225 1
17219 17224 1
17219 17225 1
17220 17222 1
17220 17223 1
17221 17226 1
17222 17224 1
17222 17225 1
17224 17226 1
17229 17232 1
17229 17233 1
17229 17237 1
17229 17240 1
17230 17234 1
17230 17235 1
17230 17238 1
17231 17236 1
17231 17237 1
17231 17240 1
17232 17234 1
17232 17235 1
17232 17239 1
17233 17238 1
17233 17239 1
17234 17236 1
17234 17237 1
17235 17240 1
17236 17238 1
17236 17239 1
17238 17240 1
17243 17246 1
17243 17247 1
17243 17251 1
17243 17254 1
17244 17248 1
17244 17249 1
17244 17252 1
17245 17250 1
17245 17251 1
17245 17254 1
17246 17248 1
17246 17249 1
17246 17253 1
17247 17252 1
17247 17253 1
17248 17250 1
17248 17251 1
17249 17254 1
17250 17252 1
17250 17253 1
17252 17254 1
17257 17260 1
17257 17261 1
17257 17265 1
17257 17268 1
17258 17262 1
17258 17263 1
17258 17266 1
17259 17264 1
17259 17265 1
17259 17268 1
17260 17262 1
17260 17263 1
17260 17267 1
17261 17266 1
17261 17267 1
17262 17264 1
17262 17265 1
17263 17268 1
17264 17266 1
17264 17267 1
17266 17268 1
17271 17274 1
17271 17275 1
17271 17279 1
17271 17282 1
17272 17276 1
17272 17277 1
17272 17280 1
17273 17278 1
17273 17279 1
17273 17282 1
17274 17276 1
17274 17277 1
17274 17281 1
17275 17280 1
17275 17281 1
17276 17278 1
17276 17279 1
17277 17282 1
17278 17280 1
17278 17281 1
17280 17282 1
17285 17288 1
17285 17289 1
17285 17293 1
17285 17296 1
17286 17290 1
17286 17291 1
17286 17294 1
17287 17292 1
17287 17293 1
17287 17296 1
17288 17290 1
17288 17291 1
17288 17295 1
17289 17294 1
17289 17295 1
17290 17292 1
17290 17293 1
17291 17296 1
17292 17294 1
17292 17295 1
17294 17296 1
17299 17302 1
17299 17303 1
17299 17307 1
17299 17310 1
17300 17304 1
17300 17305 1
17300 17308 1
17301 17306 1
17301 17307 1
17301 17310 1
17302 17304 1
17302 17305 1
17302 17309 1
17303 17308 1
17303 17309 1
17304 17306 1
17304 17307 1
17305 17310 1
17306 17308 1
17306 17309 1
17308 17310 1
17313 17316 1
17313 17317 1
17313 17321 1
17313 17324 1
17314 17318 1
17314 17319 1
17314 17322 1
17315 17320 1
17315 17321 1
17315 17324 1
17316 17318 1
17316 17319 1
17316 17323 1
17317 17322 1
17317 17323 1
17318 17320 1
17318 17321 1
17319 17324 1
17320 17322 1
17320 17323 1
17322 17324 1
17327 17330 1
17327 17331 1
17327 17335 1
17327 17338 1
17328 17332 1
17328 17333 1
17328 17336 1
17329 17334 1
17329 17335 1
17329 17338 1
17330 17332 1
17330 17333 1
17330 17337 1
17331 17336 1
17331 17337 1
17332 17334 1
17332 17335 1
17333 17338 1
17334 17336 1
17334 17337 1
17336 17338 1
17341 17344 1
17341 17345 1
17341 17349 1
17341 17352 1
17342 17346 1
17342 17347 1
17342 17350 1
17343 17348 1
17343 17349 1
17343 17352 1
17344 17346 1
17344 17347 1
17344 17351 1
17345 17350 1
17345 17351 1
17346 17348 1
17346 17349 1
17347 17352 1
17348 17350 1
17348 17351 1
17350 17352 1
17355 17358 1
17355 17359 1
17355 17363 1
17355 17366 1
17356 17360 1
17356 17361 1
17356 17364 1
17357 17362 1
17357 17363 1
17357 17366 1
17358 17360 1
17358 17361 1
17358 17365 1
17359 17364 1
17359 17365 1
17360 17362 1
17360 17363 1
17361 17366 1
17362 17364 1
17362 17365 1
17364 17366 1
17369 17372 1
17369 17373 1
17369 17377 1
17369 17380 1
17370 17374 1
17370 17375 1
17370 17378 1
17371 17376 1
17371 17377 1
17371 17380 1
17372 17374 1
17372 17375 1
17372 17379 1
17373 17378 1
17373 17379 1
17374 17376 1
17374 17377 1
17375 17380 1
17376 17378 1
17376 17379 1
17378 17380 1
17383 17386 1
17383 17387 1
17383 17391 1
17383 17394 1
17384 17388 1
17384 17389 1
17384 17392 1
17385 17390 1
17385 17391 1
17385 17394 1
17386 17388 1
17386 17389 1
17386 17393 1
17387 17392 1
17387 17393 1
17388 17390 1
17388 17391 1
17389 17394 1
17390 17392 1
17390 17393 1
17392 17394 1
17397 17400 1
17397 17401 1
17397 17405 1
17397 17408 1
17398 17402 1
17398 17403 1
17398 17406 1
17399 17404 1
17399 17405 1
17399 17408 1
17400 17402 1
17400 17403 1
17400 17407 1
17401 17406 1
17401 17407 1
17402 17404 1
17402 17405 1
17403 17408 1
17404 17406 1
17404 17407 1
17406 17408 1
17411 17414 1
17411 17415 1
17411 17419 1
17411 17422 1
17412 17416 1
17412 17417 1
17412 17420 1
17413 17418 1
17413 17419 1
17413 17422 1
17414 17416 1
17414 17417 1
17414 17421 1
17415 17420 1
17415 17421 1
17416 17418 1
17416 17419 1
17417 17422 1
17418 17420 1
17418 17421 1
17420 17422 1
17425 17428 1
17425 17429 1
17425 17433 1
17425 17436 1
17426 17430 1
17426 17431 1
17426 17434 1
17427 17432 1
17427 17433 1
17427 17436 1
17428 17430 1
17428 17431 1
17428 17435 1
17429 17434 1
17429 17435 1
17430 17432 1
17430 17433 1
17431 17436 1
17432 17434 1
17432 17435 1
17434 17436 1
17439 17442 1
17439 17443 1
17439 17447 1
17439 17450 1
17440 17444 1
17440 17445 1
17440 17448 1
17441 17446 1
17441 17447 1
17441 17450 1
17442 17444 1
17442 17445 1
17442 17449 1
17443 17448 1
17443 17449 1
17444 17446 1
17444 17447 1
17445 17450 1
17446 17448 1
17446 17449 1
17448 17450 1
17453 17456 1
17453 17457 1
17453 17461 1
17453 17464 1
17454 17458 1
17454 17459 1
17454 17462 1
17455 17460 1
17455 17461 1
17455 17464 1
17456 17458 1
17456 17459 1
17456 17463 1
17457 17462 1
17457 17463 1
17458 17460 1
17458 17461 1
17459 17464 1
17460 17462 1
17460 17463 1
17462 17464 1
17467 17470 1
17467 17471 1
17467 17475 1
17467 17478 1
17468 17472 1
17468 17473 1
17468 17476 1
17469 17474 1
17469 17475 1
17469 17478 1
17470 17472 1
17470 17473 1
17470 17477 1
17471 17476 1
17471 17477 1
17472 17474 1
17472 17475 1
17473 17478 1
17474 17476 1
17474 17477 1
17476 17478 1
17481 17484 1
17481 17485 1
17481 17489 1
17481 17492 1
17482 17486 1
17482 17487 1
17482 17490 1
17483 17488 1
17483 17489 1
17483 17492 1
17484 17486 1
17484 17487 1
17484 17491 1
17485 17490 1
17485 17491 1
17486 17488 1
17486 17489 1
17487 17492 1
17488 17490 1
17488 17491 1
17490 17492 1
17495 17498 1
17495 17499 1
17495 17503 1
17495 17506 1
17496 17500 1
17496 17501 1
17496 17504 1
17497 17502 1
17497 17503 1
17497 17506 1
17498 17500 1
17498 17501 1
17498 17505 1
17499 17504 1
17499 17505 1
17500 17502 1
17500 17503 1
17501 17506 1
17502 17504 1
17502 17505 1
17504 17506 1
17509 17512 1
17509 17513 1
17509 17517 1
17509 17520 1
17510 17514 1
17510 17515 1
17510 17518 1
17511 17516 1
17511 17517 1
17511 17520 1
17512 17514 1
17512 17515 1
17512 17519 1
17513 17518 1
17513 17519 1
17514 17516 1
17514 17517 1
17515 17520 1
17516 17518 1
17516 17519 1
17518 17520 1
17523 17526 1
17523 17527 1
17523 17531 1
17523 17534 1
17524 17528 1
17524 17529 1
17524 17532 1
17525 17530 1
17525 17531 1
17525 17534 1
17526 17528 1
17526 17529 1
17526 17533 1
17527 17532 1
17527 17533 1
17528 17530 1
17528 17531 1
17529 17534 1
17530 17532 1
17530 17533 1
17532 17534 1
17537 17540 1
17537 17541 1
17537 17545 1
17537 17548 1
17538 17542 1
17538 17543 1
17538 17546 1
17539 17544 1
17539 17545 1
17539 17548 1
17540 17542 1
17540 17543 1
17540 17547 1
17541 17546 1
17541 17547 1
17542 17544 1
17542 17545 1
17543 17548 1
17544 17546 1
17544 17547 1
17546 17548 1
17551 17554 1
17551 17555 1
17551 17559 1
17551 17562 1
17552 17556 1
17552 17557 1
17552 17560 1
17553 17558 1
17553 17559 1
17553 17562 1
17554 17556 1
17554 17557 1
17554 17561 1
17555 17560 1
17555 17561 1
17556 17558 1
17556 17559 1
17557 17562 1
17558 17560 1
17558 17561 1
17560 17562 1
17565 17568 1
17565 17569 1
17565 17573 1
17565 17576 1
17566 17570 1
17566 17571 1
17566 17574 1
17567 17572 1
17567 17573 1
17567 17576 1
17568 17570 1
17568 17571 1
17568 17575 1
17569 17574 1
17569 17575 1
17570 17572 1
17570 17573 1
17571 17576 1
17572 17574 1
17572 17575 1
17574 17576 1
17579 17582 1
17579 17583 1
17579 17587 1
17579 17590 1
17580 17584 1
17580 17585 1
17580 17588 1
17581 17586 1
17581 17587 1
17581 17590 1
17582 17584 1
17582 17585 1
17582 17589 1
17583 17588 1
17583 17589 1
17584 17586 1
17584 17587 1
17585 17590 1
17586 17588 1
17586 17589 1
17588 17590 1
17593 17596 1
17593 17597 1
17593 17601 1
17593 17604 1
17594 17598 1
17594 17599 1
17594 17602 1
17595 17600 1
17595 17601 1
17595 17604 1
17596 17598 1
17596 17599 1
17596 17603 1
17597 17602 1
17597 17603 1
17598 17600 1
17598 17601 1
17599 17604 1
17600 17602 1
17600 17603 1
17602 17604 1
17607 17610 1
17607 17611 1
17607 17615 1
17607 17618 1
17608 17612 1
17608 17613 1
17608 17616 1
17609 17614 1
17609 17615 1
17609 17618 1
17610 17612 1
17610 17613 1
17610 17617 1
17611 17616 1
17611 17617 1
17612 17614 1
17612 17615 1
17613 17618 1
17614 17616 1
17614 17617 1
17616 17618 1
17621 17624 1
17621 17625 1
17621 17629 1
17621 17632 1
17622 17626 1
17622 17627 1
17622 17630 1
17623 17628 1
17623 17629 1
17623 17632 1
17624 17626 1
17624 17627 1
17624 17631 1
17625 17630 1
17625 17631 1
17626 17628 1
17626 17629 1
17627 17632 1
17628 17630 1
17628 17631 1
17630 17632 1
17635 17638 1
17635 17639 1
17635 17643 1
17635 17646 1
17636 17640 1
17636 17641 1
17636 17644 1
17637 17642 1
17637 17643 1
17637 17646 1
17638 17640 1
17638 17641 1
17638 17645 1
17639 17644 1
17639 17645 1
17640 17642 1
17640 17643 1
17641 17646 1
17642 17644 1
17642 17645 1
17644 17646 1
17649 17652 1
17649 17653 1
17649 17657 1
17649 17660 1
17650 17654 1
17650 17655 1
17650 17658 1
17651 17656 1
17651 17657 1
17651 17660 1
17652 17654 1
17652 17655 1
17652 17659 1
17653 17658 1
17653 17659 1
17654 17656 1
17654 17657 1
17655 17660 1
17656 17658 1
17656 17659 1
17658 17660 1
17663 17666 1
17663 17667 1
17663 17671 1
17663 17674 1
17664 17668 1
17664 17669 1
17664 17672 1
17665 17670 1
17665 17671 1
17665 17674 1
17666 17668 1
17666 17669 1
17666 17673 1
17667 17672 1
17667 17673 1
17668 17670 1
17668 17671 1
17669 17674 1
17670 17672 1
17670 17673 1
17672 17674 1
17677 17680 1
17677 17681 1
17677 17685 1
17677 17688 1
17678 17682 1
17678 17683 1
17678 17686 1
17679 17684 1
17679 17685 1
17679 17688 1
17680 17682 1
17680 17683 1
17680 17687 1
17681 17686 1
17681 17687 1
17682 17684 1
17682 17685 1
17683 17688 1
17684 17686 1
17684 17687 1
17686 17688 1
17691 17694 1
17691 17695 1
17691 17699 1
17691 17702 1
17692 17696 1
17692 17697 1
17692 17700 1
17693 17698 1
17693 17699 1
17693 17702 1
17694 17696 1
17694 17697 1
17694 17701 1
17695 17700 1
17695 17701 1
17696 17698 1
17696 17699 1
17697 17702 1
17698 17700 1
17698 17701 1
17700 17702 1
17705 17708 1
17705 17709 1
17705 17713 1
17705 17716 1
17706 17710 1
17706 17711 1
17706 17714 1
17707 17712 1
17707 17713 1
17707 17716 1
17708 17710 1
17708 17711 1
17708 17715 1
17709 17714 1
17709 17715 1
17710 17712 1
17710 17713 1
17711 17716 1
17712 17714 1
17712 17715 1
17714 17716 1
17719 17722 1
17719 17723 1
17719 17727 1
17719 17730 1
17720 17724 1
17720 17725 1
17720 17728 1
17721 17726 1
17721 17727 1
17721 17730 1
17722 17724 1
17722 17725 1
17722 17729 1
17723 17728 1
17723 17729 1
17724 17726 1
17724 17727 1
17725 17730 1
17726 17728 1
17726 17729 1
17728 17730 1
17733 17736 1
17733 17737 1
17733 17741 1
17733 17744 1
17734 17738 1
17734 17739 1
17734 17742 1
17735 17740 1
17735 17741 1
17735 17744 1
17736 17738 1
17736 17739 1
17736 17743 1
17737 17742 1
17737 17743 1
17738 17740 1
17738 17741 1
17739 17744 1
17740 17742 1
17740 17743 1
17742 17744 1
17747 17750 1
17747 17751 1
17747 17755 1
17747 17758 1
17748 17752 1
17748 17753 1
17748 17756 1
17749 17754 1
17749 17755 1
17749 17758 1
17750 17752 1
17750 17753 1
17750 17757 1
17751 17756 1
17751 17757 1
17752 17754 1
17752 17755 1
17753 17758 1
17754 17756 1
17754 17757 1
17756 17758 1
17761 17764 1
17761 17765 1
17761 17769 1
17761 17772 1
17762 17766 1
17762 17767 1
17762 17770 1
17763 17768 1
17763 17769 1
17763 17772 1
17764 17766 1
17764 17767 1
17764 17771 1
17765 17770 1
17765 17771 1
17766 17768 1
17766 17769 1
17767 17772 1
17768 17770 1
17768 17771 1
17770 17772 1
17775 17778 1
17775 17779 1
17775 17783 1
17775 17786 1
17776 17780 1
17776 17781 1
17776 17784 1
17777 17782 1
17777 17783 1
17777 17786 1
17778 17780 1
17778 17781 1
17778 17785 1
17779 17784 1
17779 17785 1
17780 17782 1
17780 17783 1
17781 17786 1
17782 17784 1
17782 17785 1
17784 17786 1
17789 17792 1
17789 17793 1
17789 17797 1
17789 17800 1
17790 17794 1
17790 17795 1
17790 17798 1
17791 17796 1
17791 17797 1
17791 17800 1
17792 17794 1
17792 17795 1
17792 17799 1
17793 17798 1
17793 17799 1
17794 17796 1
17794 17797 1
17795 17800 1
17796 17798 1
17796 17799 1
17798 17800 1
17803 17806 1
17803 17807 1
17803 17811 1
17803 17814 1
17804 17808 1
17804 17809 1
17804 17812 1
17805 17810 1
17805 17811 1
17805 17814 1
17806 17808 1
17806 17809 1
17806 17813 1
17807 17812 1
17807 17813 1
17808 17810 1
17808 17811 1
17809 17814 1
17810 17812 1
17810 17813 1
17812 17814 1
17817 17820 1
17817 17821 1
17817 17825 1
17817 17828 1
17818 17822 1
17818 17823 1
17818 17826 1
17819 17824 1
17819 17825 1
17819 17828 1
17820 17822 1
17820 17823 1
17820 17827 1
17821 17826 1
17821 17827 1
17822 17824 1
17822 17825 1
17823 17828 1
17824 17826 1
17824 17827 1
17826 17828 1
17831 17834 1
17831 17835 1
17831 17839 1
17831 17842 1
17832 17836 1
17832 17837 1
17832 17840 1
17833 17838 1
17833 17839 1
17833 17842 1
17834 17836 1
17834 17837 1
17834 17841 1
17835 17840 1
17835 17841 1
17836 17838 1
17836 17839 1
17837 17842 1
17838 17840 1
17838 17841 1
17840 17842 1
17845 17848 1
17845 17849 1
17845 17853 1
17845 17856 1
17846 17850 1
17846 17851 1
17846 17854 1
17847 17852 1
17847 17853 1
17847 17856 1
17848 17850 1
17848 17851 1
17848 17855 1
17849 17854 1
17849 17855 1
17850 17852 1
17850 17853 1
17851 17856 1
17852 17854 1
17852 17855 1
17854 17856 1
17859 17862 1
17859 17863 1
17859 17867 1
17859 17870 1
17860 17864 1
17860 17865 1
17860 17868 1
17861 17866 1
17861 17867 1
17861 17870 1
17862 17864 1
17862 17865 1
17862 17869 1
17863 17868 1
17863 17869 1
17864 17866 1
17864 17867 1
17865 17870 1
17866 17868 1
17866 17869 1
17868 17870 1
17873 17876 1
17873 17877 1
17873 17881 1
17873 17884 1
17874 17878 1
17874 17879 1
17874 17882 1
17875 17880 1
17875 17881 1
17875 17884 1
17876 17878 1
17876 17879 1
17876 17883 1
17877 17882 1
17877 17883 1
17878 17880 1
17878 17881 1
17879 17884 1
17880 17882 1
17880 17883 1
17882 17884 1
17887 17890 1
17887 17891 1
17887 17895 1
17887 17898 1
17888 17892 1
17888 17893 1
17888 17896 1
17889 17894 1
17889 17895 1
17889 17898 1
17890 17892 1
17890 17893 1
17890 17897 1
17891 17896 1
17891 17897 1
17892 17894 1
17892 17895 1
17893 17898 1
17894 17896 1
17894 17897 1
17896 17898 1
17901 17904 1
17901 17905 1
17901 17909 1
17901 17912 1
17902 17906 1
17902 17907 1
17902 17910 1
17903 17908 1
17903 17909 1
17903 17912 1
17904 17906 1
17904 17907 1
17904 17911 1
17905 17910 1
17905 17911 1
17906 17908 1
17906 17909 1
17907 17912 1
17908 17910 1
17908 17911 1
17910 17912 1
17915 17918 1
17915 17919 1
17915 17923 1
17915 17926 1
17916 17920 1
17916 17921 1
17916 17924 1
17917 17922 1
17917 17923 1
17917 17926 1
17918 17920 1
17918 17921 1
17918 17925 1
17919 17924 1
17919 17925 1
17920 17922 1
17920 17923 1
17921 17926 1
17922 17924 1
17922 17925 1
17924 17926 1
17929 17932 1
17929 17933 1
17929 17937 1
17929 17940 1
17930 17934 1
17930 17935 1
17930 17938 1
17931 17936 1
17931 17937 1
17931 17940 1
17932 17934 1
17932 17935 1
17932 17939 1
17933 17938 1
17933 17939 1
17934 17936 1
17934 17937 1
17935 17940 1
17936 17938 1
17936 17939 1
17938 17940 1
17943 17946 1
17943 17947 1
17943 17951 1
17943 17954 1
17944 17948 1
17944 17949 1
17944 17952 1
17945 17950 1
17945 17951 1
17945 17954 1
17946 17948 1
17946 17949 1
17946 17953 1
17947 17952 1
17947 17953 1
17948 17950 1
17948 17951 1
17949 17954 1
17950 17952 1
17950 17953 1
17952 17954 1
17957 17960 1
17957 17961 1
17957 17965 1
17957 17968 1
17958 17962 1
17958 17963 1
17958 17966 1
17959 17964 1
17959 17965 1
17959 17968 1
17960 17962 1
17960 17963 1
17960 17967 1
17961 17966 1
17961 17967 1
17962 17964 1
17962 17965 1
17963 17968 1
17964 17966 1
17964 17967 1
17966 17968 1
17971 17974 1
17971 17975 1
17971 17979 1
17971 17982 1
17972 17976 1
17972 17977 1
17972 17980 1
17973 17978 1
17973 17979 1
17973 17982 1
17974 17976 1
17974 17977 1
17974 17981 1
17975 17980 1
17975 17981 1
17976 17978 1
17976 17979 1
17977 17982 1
17978 17980 1
17978 17981 1
17980 17982 1
17985 17988 1
17985 17989 1
17985 17993 1
17985 17996 1
17986 17990 1
17986 17991 1
17986 17994 1
17987 17992 1
17987 17993 1
17987 17996 1
17988 17990 1
17988 17991 1
17988 17995 1
17989 17994 1
17989 17995 1
17990 17992 1
17990 17993 1
17991 17996 1
17992 17994 1
17992 17995 1
17994 17996 1
17999 18002 1
17999 18003 1
17999 18007 1
17999 18010 1
18000 18004 1
18000 18005 1
18000 18008 1
18001 18006 1
18001 18007 1
18001 18010 1
18002 18004 1
18002 18005 1
18002 18009 1
18003 18008 1
18003 18009 1
18004 18006 1
18004 18007 1
18005 18010 1
18006 18008 1
18006 18009 1
18008 18010 1
18013 18016 1
18013 18017 1
18013 18021 1
18013 18024 1
18014 18018 1
18014 18019 1
18014 18022 1
18015 18020 1
18015 18021 1
18015 18024 1
18016 18018 1
18016 18019 1
18016 18023 1
18017 18022 1
18017 18023 1
18018 18020 1
18018 18021 1
18019 18024 1
18020 18022 1
18020 18023 1
18022 18024 1
18027 18030 1
18027 18031 1
18027 18035 1
18027 18038 1
18028 18032 1
18028 18033 1
18028 18036 1
18029 18034 1
18029 18035 1
18029 18038 1
18030 18032 1
18030 18033 1
18030 18037 1
18031 18036 1
18031 18037 1
18032 18034 1
18032 18035 1
18033 18038 1
18034 18036 1
18034 18037 1
18036 18038 1
18041 18044 1
18041 18045 1
18041 18049 1
18041 18052 1
18042 18046 1
18042 18047 1
18042 18050 1
18043 18048 1
18043 18049 1
18043 18052 1
18044 18046 1
18044 18047 1
18044 18051 1
18045 18050 1
18045 18051 1
18046 18048 1
18046 18049 1
18047 18052 1
18048 18050 1
18048 18051 1
18050 18052 1
18055 18058 1
18055 18059 1
18055 18063 1
18055 18066 1
18056 18060 1
18056 18061 1
18056 18064 1
18057 18062 1
18057 18063 1
18057 18066 1
18058 18060 1
18058 18061 1
18058 18065 1
18059 18064 1
18059 18065 1
18060 18062 1
18060 18063 1
18061 18066 1
18062 18064 1
18062 18065 1
18064 18066 1
18067 18070 1
18067 18071 1
18067 18075 1
18067 18078 1
18068 18072 1
18068 18073 1
18068 18076 1
18069 18074 1
18069 18075 1
18069 18078 1
18070 18072 1
18070 18073 1
18070 18077 1
18071 18076 1
18071 18077 1
18072 18074 1
18072 18075 1
18073 18078 1
18074 18076 1
18074 18077 1
18076 18078 1
18079 18082 1
18079 18083 1
18079 18087 1
18079 18090 1
18080 18084 1
18080 18085 1
18080 18088 1
18081 18086 1
18081 18087 1
18081 18090 1
18082 18084 1
18082 18085 1
18082 18089 1
18083 18088 1
18083 18089 1
18084 18086 1
18084 18087 1
18085 18090 1
18086 18088 1
18086 18089 1
18088 18090 1
18091 18094 1
18091 18095 1
18091 18099 1
18091 18102 1
18092 18096 1
18092 18097 1
18092 18100 1
18093 18098 1
18093 18099 1
18093 18102 1
18094 18096 1
18094 18097 1
18094 18101 1
18095 18100 1
18095 18101 1
18096 18098 1
18096 18099 1
18097 18102 1
18098 18100 1
18098 18101 1
18100 18102 1
18103 18106 1
18103 18107 1
18103 18111 1
18103 18114 1
18104 18108 1
18104 18109 1
18104 18112 1
18105 18110 1
18105 18111 1
18105 18114 1
18106 18108 1
18106 18109 1
18106 18113 1
18107 18112 1
18107 18113 1
18108 18110 1
18108 18111 1
18109 18114 1
18110 18112 1
18110 18113 1
18112 18114 1
18115 18118 1
18115 18119 1
18115 18123 1
18115 18126 1
18116 18120 1
18116 18121 1
18116 18124 1
18117 18122 1
18117 18123 1
18117 18126 1
18118 18120 1
18118 18121 1
18118 18125 1
18119 18124 1
18119 18125 1
18120 18122 1
18120 18123 1
18121 18126 1
18122 18124 1
18122 18125 1
18124 18126 1
18127 18130 1
18127 18131 1
18127 18135 1
18127 18138 1
18128 18132 1
18128 18133 1
18128 18136 1
18129 18134 1
18129 18135 1
18129 18138 1
18130 18132 1
18130 18133 1
18130 18137 1
18131 18136 1
18131 18137 1
18132 18134 1
18132 18135 1
18133 18138 1
18134 18136 1
18134 18137 1
18136 18138 1
18139 18142 1
18139 18143 1
18139 18147 1
18139 18150 1
18140 18144 1
18140 18145 1
18140 18148 1
18141 18146 1
18141 18147 1
18141 18150 1
18142 18144 1
18142 18145 1
18142 18149 1
18143 18148 1
18143 18149 1
18144 18146 1
18144 18147 1
18145 18150 1
18146 18148 1
18146 18149 1
18148 18150 1
18151 18154 1
18151 18155 1
18151 18159 1
18151 18162 1
18152 18156 1
18152 18157 1
18152 18160 1
18153 18158 1
18153 18159 1
18153 18162 1
18154 18156 1
18154 18157 1
18154 18161 1
18155 18160 1
18155 18161 1
18156 18158 1
18156 18159 1
18157 18162 1
18158 18160 1
18158 18161 1
18160 18162 1
18163 18166 1
18163 18167 1
18163 18171 1
18163 18174 1
18164 18168 1
18164 18169 1
18164 18172 1
18165 18170 1
18165 18171 1
18165 18174 1
18166 18168 1
18166 18169 1
18166 18173 1
18167 18172 1
18167 18173 1
18168 18170 1
18168 18171 1
18169 18174 1
18170 18172 1
18170 18173 1
18172 18174 1
18175 18178 1
18175 18179 1
18175 18183 1
18175 18186 1
18176 18180 1
18176 18181 1
18176 18184 1
18177 18182 1
18177 18183 1
18177 18186 1
18178 18180 1
18178 18181 1
18178 18185 1
18179 18184 1
18179 18185 1
18180 18182 1
18180 18183 1
18181 18186 1
18182 18184 1
18182 18185 1
18184 18186 1
18187 18190 1
18187 18191 1
18187 18195 1
18187 18198 1
18188 18192 1
18188 18193 1
18188 18196 1
18189 18194 1
18189 18195 1
18189 18198 1
18190 18192 1
18190 18193 1
18190 18197 1
18191 18196 1
18191 18197 1
18192 18194 1
18192 18195 1
18193 18198 1
18194 18196 1
18194 18197 1
18196 18198 1
18199 18202 1
18199 18203 1
18199 18207 1
18199 18210 1
18200 18204 1
18200 18205 1
18200 18208 1
18201 18206 1
18201 18207 1
18201 18210 1
18202 18204 1
18202 18205 1
18202 18209 1
18203 18208 1
18203 18209 1
18204 18206 1
18204 18207 1
18205 18210 1
18206 18208 1
18206 18209 1
18208 18210 1
18211 18214 1
18211 18215 1
18211 18219 1
18211 18222 1
18212 18216 1
18212 18217 1
18212 18220 1
18213 18218 1
18213 18219 1
18213 18222 1
18214 18216 1
18214 18217 1
18214 18221 1
18215 18220 1
18215 18221 1
18216 18218 1
18216 18219 1
18217 18222 1
18218 18220 1
18218 18221 1
18220 18222 1
18223 18226 1
18223 18227 1
18223 18231 1
18223 18234 1
18224 18228 1
18224 18229 1
18224 18232 1
18225 18230 1
18225 18231 1
18225 18234 1
18226 18228 1
18226 18229 1
18226 18233 1
18227 18232 1
18227 18233 1
18228 18230 1
18228 18231 1
18229 18234 1
18230 18232 1
18230 18233 1
18232 18234 1
18235 18238 1
18235 18239 1
18235 18243 1
18235 18246 1
18236 18240 1
18236 18241 1
18236 18244 1
18237 18242 1
18237 18243 1
18237 18246 1
18238 18240 1
18238 18241 1
18238 18245 1
18239 18244 1
18239 18245 1
18240 18242 1
18240 18243 1
18241 18246 1
18242 18244 1
18242 18245 1
18244 18246 1
18247 18250 1
18247 18251 1
18247 18255 1
18247 18258 1
18248 18252 1
18248 18253 1
18248 18256 1
18249 18254 1
18249 18255 1
18249 18258 1
18250 18252 1
18250 18253 1
18250 18257 1
18251 18256 1
18251 18257 1
18252 18254 1
18252 18255 1
18253 18258 1
18254 18256 1
18254 18257 1
18256 18258 1
18259 18262 1
18259 18263 1
18259 18267 1
18259 18270 1
18260 18264 1
18260 18265 1
18260 18268 1
18261 18266 1
18261 18267 1
18261 18270 1
18262 18264 1
18262 18265 1
18262 18269 1
18263 18268 1
18263 18269 1
18264 18266 1
18264 18267 1
18265 18270 1
18266 18268 1
18266 18269 1
18268 18270 1
18271 18274 1
18271 18275 1
18271 18279 1
18271 18282 1
18272 18276 1
18272 18277 1
18272 18280 1
18273 18278 1
18273 18279 1
18273 18282 1
18274 18276 1
18274 18277 1
18274 18281 1
18275 18280 1
18275 18281 1
18276 18278 1
18276 18279 1
18277 18282 1
18278 18280 1
18278 18281 1
18280 18282 1
18283 18286 1
18283 18287 1
18283 18291 1
18283 18294 1
18284 18288 1
18284 18289 1
18284 18292 1
18285 18290 1
18285 18291 1
18285 18294 1
18286 18288 1
18286 18289 1
18286 18293 1
18287 18292 1
18287 18293 1
18288 18290 1
18288 18291 1
18289 18294 1
18290 18292 1
18290 18293 1
18292 18294 1
18295 18298 1
18295 18299 1
18295 18303 1
18295 18306 1
18296 18300 1
18296 18301 1
18296 18304 1
18297 18302 1
18297 18303 1
18297 18306 1
18298 18300 1
18298 18301 1
18298 18305 1
18299 18304 1
18299 18305 1
18300 18302 1
18300 18303 1
18301 18306 1
18302 18304 1
18302 18305 1
18304 18306 1
18307 18310 1
18307 18311 1
18307 18315 1
18307 18318 1
18308 18312 1
18308 18313 1
18308 18316 1
18309 18314 1
18309 18315 1
18309 18318 1
18310 18312 1
18310 18313 1
18310 18317 1
18311 18316 1
18311 18317 1
18312 18314 1
18312 18315 1
18313 18318 1
18314 18316 1
18314 18317 1
18316 18318 1
18319 18322 1
18319 18323 1
18319 18327 1
18319 18330 1
18320 18324 1
18320 18325 1
18320 18328 1
18321 18326 1
18321 18327 1
18321 18330 1
18322 18324 1
18322 18325 1
18322 18329 1
18323 18328 1
18323 18329 1
18324 18326 1
18324 18327 1
18325 18330 1
18326 18328 1
18326 18329 1
18328 18330 1
18331 18334 1
18331 18335 1
18331 18339 1
18331 18342 1
18332 18336 1
18332 18337 1
18332 18340 1
18333 18338 1
18333 18339 1
18333 18342 1
18334 18336 1
18334 18337 1
18334 18341 1
18335 18340 1
18335 18341 1
18336 18338 1
18336 18339 1
18337 18342 1
18338 18340 1
18338 18341 1
18340 18342 1
18343 18346 1
18343 18347 1
18343 18351 1
18343 18354 1
18344 18348 1
18344 18349 1
18344 18352 1
18345 18350 1
18345 18351 1
18345 18354 1
18346 18348 1
18346 18349 1
18346 18353 1
18347 18352 1
18347 18353 1
18348 18350 1
18348 18351 1
18349 18354 1
18350 18352 1
18350 18353 1
18352 18354 1
18355 18358 1
18355 18359 1
18355 18363 1
18355 18366 1
18356 18360 1
18356 18361 1
18356 18364 1
18357 18362 1
18357 18363 1
18357 18366 1
18358 18360 1
18358 18361 1
18358 18365 1
18359 18364 1
18359 18365 1
18360 18362 1
18360 18363 1
18361 18366 1
18362 18364 1
18362 18365 1
18364 18366 1
18367 18370 1
18367 18371 1
18367 18375 1
18367 18378 1
18368 18372 1
18368 18373 1
18368 18376 1
18369 18374 1
18369 18375 1
18369 18378 1
18370 18372 1
18370 18373 1
18370 18377 1
18371 18376 1
18371 18377 1
18372 18374 1
18372 18375 1
18373 18378 1
18374 18376 1
18374 18377 1
18376 18378 1
18379 18382 1
18379 18383 1
18379 18387 1
18379 18390 1
18380 18384 1
18380 18385 1
18380 18388 1
18381 18386 1
18381 18387 1
18381 18390 1
18382 18384 1
18382 18385 1
18382 18389 1
18383 18388 1
18383 18389 1
18384 18386 1
18384 18387 1
18385 18390 1
18386 18388 1
18386 18389 1
18388 18390 1
18391 18394 1
18391 18395 1
18391 18399 1
18391 18402 1
18392 18396 1
18392 18397 1
18392 18400 1
18393 18398 1
18393 18399 1
18393 18402 1
18394 18396 1
18394 18397 1
18394 18401 1
18395 18400 1
18395 18401 1
18396 18398 1
18396 18399 1
18397 18402 1
18398 18400 1
18398 18401 1
18400 18402 1
18403 18406 1
18403 18407 1
18403 18411 1
18403 18414 1
18404 18408 1
18404 18409 1
18404 18412 1
18405 18410 1
18405 18411 1
18405 18414 1
18406 18408 1
18406 18409 1
18406 18413 1
18407 18412 1
18407 18413 1
18408 18410 1
18408 18411 1
18409 18414 1
18410 18412 1
18410 18413 1
18412 18414 1
18415 18418 1
18415 18419 1
18415 18423 1
18415 18426 1
18416 18420 1
18416 18421 1
18416 18424 1
18417 18422 1
18417 18423 1
18417 18426 1
18418 18420 1
18418 18421 1
18418 18425 1
18419 18424 1
18419 18425 1
18420 18422 1
18420 18423 1
18421 18426 1
18422 18424 1
18422 18425 1
18424 18426 1
18427 18430 1
18427 18431 1
18427 18435 1
18427 18438 1
18428 18432 1
18428 18433 1
18428 18436 1
18429 18434 1
18429 18435 1
18429 18438 1
18430 18432 1
18430 18433 1
18430 18437 1
18431 18436 1
18431 18437 1
18432 18434 1
18432 18435 1
18433 18438 1
18434 18436 1
18434 18437 1
18436 18438 1
18439 18442 1
18439 18443 1
18439 18447 1
18439 18450 1
18440 18444 1
18440 18445 1
18440 18448 1
18441 18446 1
18441 18447 1
18441 18450 1
18442 18444 1
18442 18445 1
18442 18449 1
18443 18448 1
18443 18449 1
18444 18446 1
18444 18447 1
18445 18450 1
18446 18448 1
18446 18449 1
18448 18450 1
18451 18454 1
18451 18455 1
18451 18459 1
18451 18462 1
18452 18456 1
18452 18457 1
18452 18460 1
18453 18458 1
18453 18459 1
18453 18462 1
18454 18456 1
18454 18457 1
18454 18461 1
18455 18460 1
18455 18461 1
18456 18458 1
18456 18459 1
18457 18462 1
18458 18460 1
18458 18461 1
18460 18462 1
18463 18466 1
18463 18467 1
18463 18471 1
18463 18474 1
18464 18468 1
18464 18469 1
18464 18472 1
18465 18470 1
18465 18471 1
18465 18474 1
18466 18468 1
18466 18469 1
18466 18473 1
18467 18472 1
18467 18473 1
18468 18470 1
18468 18471 1
18469 18474 1
18470 18472 1
18470 18473 1
18472 18474 1
18475 18478 1
18475 18479 1
18475 18483 1
18475 18486 1
18476 18480 1
18476 18481 1
18476 18484 1
18477 18482 1
18477 18483 1
18477 18486 1
18478 18480 1
18478 18481 1
18478 18485 1
18479 18484 1
18479 18485 1
18480 18482 1
18480 18483 1
18481 18486 1
18482 18484 1
18482 18485 1
18484 18486 1
18487 18490 1
18487 18491 1
18487 18495 1
18487 18498 1
18488 18492 1
18488 18493 1
18488 18496 1
18489 18494 1
18489 18495 1
18489 18498 1
18490 18492 1
18490 18493 1
18490 18497 1
18491 18496 1
18491 18497 1
18492 18494 1
18492 18495 1
18493 18498 1
18494 18496 1
18494 18497 1
18496 18498 1
18499 18502 1
18499 18503 1
18499 18507 1
18499 18510 1
18500 18504 1
18500 18505 1
18500 18508 1
18501 18506 1
18501 18507 1
18501 18510 1
18502 18504 1
18502 18505 1
18502 18509 1
18503 18508 1
18503 18509 1
18504 18506 1
18504 18507 1
18505 18510 1
18506 18508 1
18506 18509 1
18508 18510 1
18511 18514 1
18511 18515 1
18511 18519 1
18511 18522 1
18512 18516 1
18512 18517 1
18512 18520 1
18513 18518 1
18513 18519 1
18513 18522 1
18514 18516 1
18514 18517 1
18514 18521 1
18515 18520 1
18515 18521 1
18516 18518 1
18516 18519 1
18517 18522 1
18518 18520 1
18518 18521 1
18520 18522 1
18523 18526 1
18523 18527 1
18523 18531 1
18523 18534 1
18524 18528 1
18524 18529 1
18524 18532 1
18525 18530 1
18525 18531 1
18525 18534 1
18526 18528 1
18526 18529 1
18526 18533 1
18527 18532 1
18527 18533 1
18528 18530 1
18528 18531 1
18529 18534 1
18530 18532 1
18530 18533 1
18532 18534 1
18535 18538 1
18535 18539 1
18535 18543 1
18535 18546 1
18536 18540 1
18536 18541 1
18536 18544 1
18537 18542 1
18537 18543 1
18537 18546 1
18538 18540 1
18538 18541 1
18538 18545 1
18539 18544 1
18539 18545 1
18540 18542 1
18540 18543 1
18541 18546 1
18542 18544 1
18542 18545 1
18544 18546 1
18547 18550 1
18547 18551 1
18547 18555 1
18547 18558 1
18548 18552 1
18548 18553 1
18548 18556 1
18549 18554 1
18549 18555 1
18549 18558 1
18550 18552 1
18550 18553 1
18550 18557 1
18551 18556 1
18551 18557 1
18552 18554 1
18552 18555 1
18553 18558 1
18554 18556 1
18554 18557 1
18556 18558 1
18559 18562 1
18559 18563 1
18559 18567 1
18559 18570 1
18560 18564 1
18560 18565 1
18560 18568 1
18561 18566 1
18561 18567 1
18561 18570 1
18562 18564 1
18562 18565 1
18562 18569 1
18563 18568 1
18563 18569 1
18564 18566 1
18564 18567 1
18565 18570 1
18566 18568 1
18566 18569 1
18568 18570 1
18571 18574 1
18571 18575 1
18571 18579 1
18571 18582 1
18572 18576 1
18572 18577 1
18572 18580 1
18573 18578 1
18573 18579 1
18573 18582 1
18574 18576 1
18574 18577 1
18574 18581 1
18575 18580 1
18575 18581 1
18576 18578 1
18576 18579 1
18577 18582 1
18578 18580 1
18578 18581 1
18580 18582 1
18583 18586 1
18583 18587 1
18583 18591 1
18583 18594 1
18584 18588 1
18584 18589 1
18584 18592 1
18585 18590 1
18585 18591 1
18585 18594 1
18586 18588 1
18586 18589 1
18586 18593 1
18587 18592 1
18587 18593 1
18588 18590 1
18588 18591 1
18589 18594 1
18590 18592 1
18590 18593 1
18592 18594 1
18595 18598 1
18595 18599 1
18595 18603 1
18595 18606 1
18596 18600 1
18596 18601 1
18596 18604 1
18597 18602 1
18597 18603 1
18597 18606 1
18598 18600 1
18598 18601 1
18598 18605 1
18599 18604 1
18599 18605 1
18600 18602 1
18600 18603 1
18601 18606 1
18602 18604 1
18602 18605 1
18604 18606 1
18607 18610 1
18607 18611 1
18607 18615 1
18607 18618 1
18608 18612 1
18608 18613 1
18608 18616 1
18609 18614 1
18609 18615 1
18609 18618 1
18610 18612 1
18610 18613 1
18610 18617 1
18611 18616 1
18611 18617 1
18612 18614 1
18612 18615 1
18613 18618 1
18614 18616 1
18614 18617 1
18616 18618 1
18619 18622 1
18619 18623 1
18619 18627 1
18619 18630 1
18620 18624 1
18620 18625 1
18620 18628 1
18621 18626 1
18621 18627 1
18621 18630 1
18622 18624 1
18622 18625 1
18622 18629 1
18623 18628 1
18623 18629 1
18624 18626 1
18624 18627 1
18625 18630 1
18626 18628 1
18626 18629 1
18628 18630 1
18631 18634 1
18631 18635 1
18631 18639 1
18631 18642 1
18632 18636 1
18632 18637 1
18632 18640 1
18633 18638 1
18633 18639 1
18633 18642 1
18634 18636 1
18634 18637 1
18634 18641 1
18635 18640 1
18635 18641 1
18636 18638 1
18636 18639 1
18637 18642 1
18638 18640 1
18638 18641 1
18640 18642 1
18643 18646 1
18643 18647 1
18643 18651 1
18643 18654 1
18644 18648 1
18644 18649 1
18644 18652 1
18645 18650 1
18645 18651 1
18645 18654 1
18646 18648 1
18646 18649 1
18646 18653 1
18647 18652 1
18647 18653 1
18648 18650 1
18648 18651 1
18649 18654 1
18650 18652 1
18650 18653 1
18652 18654 1
18655 18658 1
18655 18659 1
18655 18663 1
18655 18666 1
18656 18660 1
18656 18661 1
18656 18664 1
18657 18662 1
18657 18663 1
18657 18666 1
18658 18660 1
18658 18661 1
18658 18665 1
18659 18664 1
18659 18665 1
18660 18662 1
18660 18663 1
18661 18666 1
18662 18664 1
18662 18665 1
18664 18666 1
18667 18670 1
18667 18671 1
18667 18675 1
18667 18678 1
18668 18672 1
18668 18673 1
18668 18676 1
18669 18674 1
18669 18675 1
18669 18678 1
18670 18672 1
18670 18673 1
18670 18677 1
18671 18676 1
18671 18677 1
18672 18674 1
18672 18675 1
18673 18678 1
18674 18676 1
18674 18677 1
18676 18678 1
18679 18682 1
18679 18683 1
18679 18687 1
18679 18690 1
18680 18684 1
18680 18685 1
18680 18688 1
18681 18686 1
18681 18687 1
18681 18690 1
18682 18684 1
18682 18685 1
18682 18689 1
18683 18688 1
18683 18689 1
18684 18686 1
18684 18687 1
18685 18690 1
18686 18688 1
18686 18689 1
18688 18690 1
18691 18694 1
18691 18695 1
18691 18699 1
18691 18702 1
18692 18696 1
18692 18697 1
18692 18700 1
18693 18698 1
18693 18699 1
18693 18702 1
18694 18696 1
18694 18697 1
18694 18701 1
18695 18700 1
18695 18701 1
18696 18698 1
18696 18699 1
18697 18702 1
18698 18700 1
18698 18701 1
18700 18702 1
18703 18706 1
18703 18707 1
18703 18711 1
18703 18714 1
18704 18708 1
18704 18709 1
18704 18712 1
18705 18710 1
18705 18711 1
18705 18714 1
18706 18708 1
18706 18709 1
18706 18713 1
18707 18712 1
18707 18713 1
18708 18710 1
18708 18711 1
18709 18714 1
18710 18712 1
18710 18713 1
18712 18714 1
18715 18718 1
18715 18719 1
18715 18723 1
18715 18726 1
18716 18720 1
18716 18721 1
18716 18724 1
18717 18722 1
18717 18723 1
18717 18726 1
18718 18720 1
18718 18721 1
18718 18725 1
18719 18724 1
18719 18725 1
18720 18722 1
18720 18723 1
18721 18726 1
18722 18724 1
18722 18725 1
18724 18726 1
18727 18730 1
18727 18731 1
18727 18735 1
18727 18738 1
18728 18732 1
18728 18733 1
18728 18736 1
18729 18734 1
18729 18735 1
18729 18738 1
18730 18732 1
18730 18733 1
18730 18737 1
18731 18736 1
18731 18737 1
18732 18734 1
18732 18735 1
18733 18738 1
18734 18736 1
18734 18737 1
18736 18738 1
18739 18742 1
18739 18743 1
18739 18747 1
18739 18750 1
18740 18744 1
18740 18745 1
18740 18748 1
18741 18746 1
18741 18747 1
18741 18750 1
18742 18744 1
18742 18745 1
18742 18749 1
18743 18748 1
18743 18749 1
18744 18746 1
18744 18747 1
18745 18750 1
18746 18748 1
18746 18749 1
18748 18750 1
18751 18754 1
18751 18755 1
18751 18759 1
18751 18762 1
18752 18756 1
18752 18757 1
18752 18760 1
18753 18758 1
18753 18759 1
18753 18762 1
18754 18756 1
18754 18757 1
18754 18761 1
18755 18760 1
18755 18761 1
18756 18758 1
18756 18759 1
18757 18762 1
18758 18760 1
18758 18761 1
18760 18762 1
18763 18766 1
18763 18767 1
18763 18771 1
18763 18774 1
18764 18768 1
18764 18769 1
18764 18772 1
18765 18770 1
18765 18771 1
18765 18774 1
18766 18768 1
18766 18769 1
18766 18773 1
18767 18772 1
18767 18773 1
18768 18770 1
18768 18771 1
18769 18774 1
18770 18772 1
18770 18773 1
18772 18774 1
18775 18778 1
18775 18779 1
18775 18783 1
18775 18786 1
18776 18780 1
18776 18781 1
18776 18784 1
18777 18782 1
18777 18783 1
18777 18786 1
18778 18780 1
18778 18781 1
18778 18785 1
18779 18784 1
18779 18785 1
18780 18782 1
18780 18783 1
18781 18786 1
18782 18784 1
18782 18785 1
18784 18786 1
18787 18790 1
18787 18791 1
18787 18795 1
18787 18798 1
18788 18792 1
18788 18793 1
18788 18796 1
18789 18794 1
18789 18795 1
18789 18798 1
18790 18792 1
18790 18793 1
18790 18797 1
18791 18796 1
18791 18797 1
18792 18794 1
18792 18795 1
18793 18798 1
18794 18796 1
18794 18797 1
18796 18798 1
18799 18802 1
18799 18803 1
18799 18807 1
18799 18810 1
18800 18804 1
18800 18805 1
18800 18808 1
18801 18806 1
18801 18807 1
18801 18810 1
18802 18804 1
18802 18805 1
18802 18809 1
18803 18808 1
18803 18809 1
18804 18806 1
18804 18807 1
18805 18810 1
18806 18808 1
18806 18809 1
18808 18810 1
18811 18814 1
18811 18815 1
18811 18819 1
18811 18822 1
18812 18816 1
18812 18817 1
18812 18820 1
18813 18818 1
18813 18819 1
18813 18822 1
18814 18816 1
18814 18817 1
18814 18821 1
18815 18820 1
18815 18821 1
18816 18818 1
18816 18819 1
18817 18822 1
18818 18820 1
18818 18821 1
18820 18822 1
18823 18826 1
18823 18827 1
18823 18831 1
18823 18834 1
18824 18828 1
18824 18829 1
18824 18832 1
18825 18830 1
18825 18831 1
18825 18834 1
18826 18828 1
18826 18829 1
18826 18833 1
18827 18832 1
18827 18833 1
18828 18830 1
18828 18831 1
18829 18834 1
18830 18832 1
18830 18833 1
18832 18834 1
18835 18838 1
18835 18839 1
18835 18843 1
18835 18846 1
18836 18840 1
18836 18841 1
18836 18844 1
18837 18842 1
18837 18843 1
18837 18846 1
18838 18840 1
18838 18841 1
18838 18845 1
18839 18844 1
18839 18845 1
18840 18842 1
18840 18843 1
18841 18846 1
18842 18844 1
18842 18845 1
18844 18846 1
18847 18850 1
18847 18851 1
18847 18855 1
18847 18858 1
18848 18852 1
18848 18853 1
18848 18856 1
18849 18854 1
18849 18855 1
18849 18858 1
18850 18852 1
18850 18853 1
18850 18857 1
18851 18856 1
18851 18857 1
18852 18854 1
18852 18855 1
18853 18858 1
18854 18856 1
18854 18857 1
18856 18858 1
18859 18862 1
18859 18863 1
18859 18867 1
18859 18870 1
18860 18864 1
18860 18865 1
18860 18868 1
18861 18866 1
18861 18867 1
18861 18870 1
18862 18864 1
18862 18865 1
18862 18869 1
18863 18868 1
18863 18869 1
18864 18866 1
18864 18867 1
18865 18870 1
18866 18868 1
18866 18869 1
18868 18870 1
18871 18874 1
18871 18875 1
18871 18879 1
18871 18882 1
18872 18876 1
18872 18877 1
18872 18880 1
18873 18878 1
18873 18879 1
18873 18882 1
18874 18876 1
18874 18877 1
18874 18881 1
18875 18880 1
18875 18881 1
18876 18878 1
18876 18879 1
18877 18882 1
18878 18880 1
18878 18881 1
18880 18882 1
18883 18886 1
18883 18887 1
18883 18891 1
18883 18894 1
18884 18888 1
18884 18889 1
18884 18892 1
18885 18890 1
18885 18891 1
18885 18894 1
18886 18888 1
18886 18889 1
18886 18893 1
18887 18892 1
18887 18893 1
18888 18890 1
18888 18891 1
18889 18894 1
18890 18892 1
18890 18893 1
18892 18894 1
18895 18898 1
18895 18899 1
18895 18903 1
18895 18906 1
18896 18900 1
18896 18901 1
18896 18904 1
18897 18902 1
18897 18903 1
18897 18906 1
18898 18900 1
18898 18901 1
18898 18905 1
18899 18904 1
18899 18905 1
18900 18902 1
18900 18903 1
18901 18906 1
18902 18904 1
18902 18905 1
18904 18906 1
18907 18910 1
18907 18911 1
18907 18915 1
18907 18918 1
18908 18912 1
18908 18913 1
18908 18916 1
18909 18914 1
18909 18915 1
18909 18918 1
18910 18912 1
18910 18913 1
18910 18917 1
18911 18916 1
18911 18917 1
18912 18914 1
18912 18915 1
18913 18918 1
18914 18916 1
18914 18917 1
18916 18918 1
18919 18922 1
18919 18923 1
18919 18927 1
18919 18930 1
18920 18924 1
18920 18925 1
18920 18928 1
18921 18926 1
18921 18927 1
18921 18930 1
18922 18924 1
18922 18925 1
18922 18929 1
18923 18928 1
18923 18929 1
18924 18926 1
18924 18927 1
18925 18930 1
18926 18928 1
18926 18929 1
18928 18930 1
18931 18934 1
18931 18935 1
18931 18939 1
18931 18942 1
18932 18936 1
18932 18937 1
18932 18940 1
18933 18938 1
18933 18939 1
18933 18942 1
18934 18936 1
18934 18937 1
18934 18941 1
18935 18940 1
18935 18941 1
18936 18938 1
18936 18939 1
18937 18942 1
18938 18940 1
18938 18941 1
18940 18942 1
18943 18946 1
18943 18947 1
18943 18951 1
18943 18954 1
18944 18948 1
18944 18949 1
18944 18952 1
18945 18950 1
18945 18951 1
18945 18954 1
18946 18948 1
18946 18949 1
18946 18953 1
18947 18952 1
18947 18953 1
18948 18950 1
18948 18951 1
18949 18954 1
18950 18952 1
18950 18953 1
18952 18954 1
18955 18958 1
18955 18959 1
18955 18963 1
18955 18966 1
18956 18960 1
18956 18961 1
18956 18964 1
18957 18962 1
18957 18963 1
18957 18966 1
18958 18960 1
18958 18961 1
18958 18965 1
18959 18964 1
18959 18965 1
18960 18962 1
18960 18963 1
18961 18966 1
18962 18964 1
18962 18965 1
18964 18966 1
18967 18970 1
18967 18971 1
18967 18975 1
18967 18978 1
18968 18972 1
18968 18973 1
18968 18976 1
18969 18974 1
18969 18975 1
18969 18978 1
18970 18972 1
18970 18973 1
18970 18977 1
18971 18976 1
18971 18977 1
18972 18974 1
18972 18975 1
18973 18978 1
18974 18976 1
18974 18977 1
18976 18978 1
18979 18982 1
18979 18983 1
18979 18987 1
18979 18990 1
18980 18984 1
18980 18985 1
18980 18988 1
18981 18986 1
18981 18987 1
18981 18990 1
18982 18984 1
18982 18985 1
18982 18989 1
18983 18988 1
18983 18989 1
18984 18986 1
18984 18987 1
18985 18990 1
18986 18988 1
18986 18989 1
18988 18990 1
18991 18994 1
18991 18995 1
18991 18999 1
18991 19002 1
18992 18996 1
18992 18997 1
18992 19000 1
18993 18998 1
18993 18999 1
18993 19002 1
18994 18996 1
18994 18997 1
18994 19001 1
18995 19000 1
18995 19001 1
18996 18998 1
18996 18999 1
18997 19002 1
18998 19000 1
18998 19001 1
19000 19002 1
19003 19006 1
19003 19007 1
19003 19011 1
19003 19014 1
19004 19008 1
19004 19009 1
19004 19012 1
19005 19010 1
19005 19011 1
19005 19014 1
19006 19008 1
19006 19009 1
19006 19013 1
19007 19012 1
19007 19013 1
19008 19010 1
19008 19011 1
19009 19014 1
19010 19012 1
19010 19013 1
19012 19014 1
19015 19018 1
19015 19019 1
19015 19023 1
19015 19026 1
19016 19020 1
19016 19021 1
19016 19024 1
19017 19022 1
19017 19023 1
19017 19026 1
19018 19020 1
19018 19021 1
19018 19025 1
19019 19024 1
19019 19025 1
19020 19022 1
19020 19023 1
19021 19026 1
19022 19024 1
19022 19025 1
19024 19026 1
19027 19030 1
19027 19031 1
19027 19035 1
19027 19038 1
19028 19032 1
19028 19033 1
19028 19036 1
19029 19034 1
19029 19035 1
19029 19038 1
19030 19032 1
19030 19033 1
19030 19037 1
19031 19036 1
19031 19037 1
19032 19034 1
19032 19035 1
19033 19038 1
19034 19036 1
19034 19037 1
19036 19038 1
19039 19042 1
19039 19043 1
19039 19047 1
19039 19050 1
19040 19044 1
19040 19045 1
19040 19048 1
19041 19046 1
19041 19047 1
19041 19050 1
19042 19044 1
19042 19045 1
19042 19049 1
19043 19048 1
19043 19049 1
19044 19046 1
19044 19047 1
19045 19050 1
19046 19048 1
19046 19049 1
19048 19050 1
19051 19054 1
19051 19055 1
19051 19059 1
19051 19062 1
19052 19056 1
19052 19057 1
19052 19060 1
19053 19058 1
19053 19059 1
19053 19062 1
19054 19056 1
19054 19057 1
19054 19061 1
19055 19060 1
19055 19061 1
19056 19058 1
19056 19059 1
19057 19062 1
19058 19060 1
19058 19061 1
19060 19062 1
19063 19066 1
19063 19067 1
19063 19071 1
19063 19074 1
19064 19068 1
19064 19069 1
19064 19072 1
19065 19070 1
19065 19071 1
19065 19074 1
19066 19068 1
19066 19069 1
19066 19073 1
19067 19072 1
19067 19073 1
19068 19070 1
19068 19071 1
19069 19074 1
19070 19072 1
19070 19073 1
19072 19074 1
19075 19078 1
19075 19079 1
19075 19083 1
19075 19086 1
19076 19080 1
19076 19081 1
19076 19084 1
19077 19082 1
19077 19083 1
19077 19086 1
19078 19080 1
19078 19081 1
19078 19085 1
19079 19084 1
19079 19085 1
19080 19082 1
19080 19083 1
19081 19086 1
19082 19084 1
19082 19085 1
19084 19086 1
19087 19090 1
19087 19091 1
19087 19095 1
19087 19098 1
19088 19092 1
19088 19093 1
19088 19096 1
19089 19094 1
19089 19095 1
19089 19098 1
19090 19092 1
19090 19093 1
19090 19097 1
19091 19096 1
19091 19097 1
19092 19094 1
19092 19095 1
19093 19098 1
19094 19096 1
19094 19097 1
19096 19098 1
19099 19102 1
19099 19103 1
19099 19107 1
19099 19110 1
19100 19104 1
19100 19105 1
19100 19108 1
19101 19106 1
19101 19107 1
19101 19110 1
19102 19104 1
19102 19105 1
19102 19109 1
19103 19108 1
19103 19109 1
19104 19106 1
19104 19107 1
19105 19110 1
19106 19108 1
19106 19109 1
19108 19110 1
19111 19114 1
19111 19115 1
19111 19119 1
19111 19122 1
19112 19116 1
19112 19117 1
19112 19120 1
19113 19118 1
19113 19119 1
19113 19122 1
19114 19116 1
19114 19117 1
19114 19121 1
19115 19120 1
19115 19121 1
19116 19118 1
19116 19119 1
19117 19122 1
19118 19120 1
19118 19121 1
19120 19122 1
19123 19126 1
19123 19127 1
19123 19131 1
19123 19134 1
19124 19128 1
19124 19129 1
19124 19132 1
19125 19130 1
19125 19131 1
19125 19134 1
19126 19128 1
19126 19129 1
19126 19133 1
19127 19132 1
19127 19133 1
19128 19130 1
19128 19131 1
19129 19134 1
19130 19132 1
19130 19133 1
19132 19134 1
19135 19138 1
19135 19139 1
19135 19143 1
19135 19146 1
19136 19140 1
19136 19141 1
19136 19144 1
19137 19142 1
19137 19143 1
19137 19146 1
19138 19140 1
19138 19141 1
19138 19145 1
19139 19144 1
19139 19145 1
19140 19142 1
19140 19143 1
19141 19146 1
19142 19144 1
19142 19145 1
19144 19146 1
19147 19150 1
19147 19151 1
19147 19155 1
19147 19158 1
19148 19152 1
19148 19153 1
19148 19156 1
19149 19154 1
19149 19155 1
19149 19158 1
19150 19152 1
19150 19153 1
19150 19157 1
19151 19156 1
19151 19157 1
19152 19154 1
19152 19155 1
19153 19158 1
19154 19156 1
19154 19157 1
19156 19158 1
19159 19162 1
19159 19163 1
19159 19167 1
19159 19170 1
19160 19164 1
19160 19165 1
19160 19168 1
19161 19166 1
19161 19167 1
19161 19170 1
19162 19164 1
19162 19165 1
19162 19169 1
19163 19168 1
19163 19169 1
19164 19166 1
19164 19167 1
19165 19170 1
19166 19168 1
19166 19169 1
19168 19170 1
19171 19174 1
19171 19175 1
19171 19179 1
19171 19182 1
19172 19176 1
19172 19177 1
19172 19180 1
19173 19178 1
19173 19179 1
19173 19182 1
19174 19176 1
19174 19177 1
19174 19181 1
19175 19180 1
19175 19181 1
19176 19178 1
19176 19179 1
19177 19182 1
19178 19180 1
19178 19181 1
19180 19182 1
19183 19186 1
19183 19187 1
19183 19191 1
19183 19194 1
19184 19188 1
19184 19189 1
19184 19192 1
19185 19190 1
19185 19191 1
19185 19194 1
19186 19188 1
19186 19189 1
19186 19193 1
19187 19192 1
19187 19193 1
19188 19190 1
19188 19191 1
19189 19194 1
19190 19192 1
19190 19193 1
19192 19194 1
19195 19198 1
19195 19199 1
19195 19203 1
19195 19206 1
19196 19200 1
19196 19201 1
19196 19204 1
19197 19202 1
19197 19203 1
19197 19206 1
19198 19200 1
19198 19201 1
19198 19205 1
19199 19204 1
19199 19205 1
19200 19202 1
19200 19203 1
19201 19206 1
19202 19204 1
19202 19205 1
19204 19206 1
19207 19210 1
19207 19211 1
19207 19215 1
19207 19218 1
19208 19212 1
19208 19213 1
19208 19216 1
19209 19214 1
19209 19215 1
19209 19218 1
19210 19212 1
19210 19213 1
19210 19217 1
19211 19216 1
19211 19217 1
19212 19214 1
19212 19215 1
19213 19218 1
19214 19216 1
19214 19217 1
19216 19218 1
19219 19222 1
19219 19223 1
19219 19227 1
19219 19230 1
19220 19224 1
19220 19225 1
19220 19228 1
19221 19226 1
19221 19227 1
19221 19230 1
19222 19224 1
19222 19225 1
19222 19229 1
19223 19228 1
19223 19229 1
19224 19226 1
19224 19227 1
19225 19230 1
19226 19228 1
19226 19229 1
19228 19230 1
19231 19234 1
19231 19235 1
19231 19239 1
19231 19242 1
19232 19236 1
19232 19237 1
19232 19240 1
19233 19238 1
19233 19239 1
19233 19242 1
19234 19236 1
19234 19237 1
19234 19241 1
19235 19240 1
19235 19241 1
19236 19238 1
19236 19239 1
19237 19242 1
19238 19240 1
19238 19241 1
19240 19242 1
19243 19246 1
19243 19247 1
19243 19251 1
19243 19254 1
19244 19248 1
19244 19249 1
19244 19252 1
19245 19250 1
19245 19251 1
19245 19254 1
19246 19248 1
19246 19249 1
19246 19253 1
19247 19252 1
19247 19253 1
19248 19250 1
19248 19251 1
19249 19254 1
19250 19252 1
19250 19253 1
19252 19254 1
19255 19258 1
19255 19259 1
19255 19263 1
19255 19266 1
19256 19260 1
19256 19261 1
19256 19264 1
19257 19262 1
19257 19263 1
19257 19266 1
19258 19260 1
19258 19261 1
19258 19265 1
19259 19264 1
19259 19265 1
19260 19262 1
19260 19263 1
19261 19266 1
19262 19264 1
19262 19265 1
19264 19266 1
19267 19270 1
19267 19271 1
19267 19275 1
19267 19278 1
19268 19272 1
19268 19273 1
19268 19276 1
19269 19274 1
19269 19275 1
19269 19278 1
19270 19272 1
19270 19273 1
19270 19277 1
19271 19276 1
19271 19277 1
19272 19274 1
19272 19275 1
19273 19278 1
19274 19276 1
19274 19277 1
19276 19278 1
19279 19282 1
19279 19283 1
19279 19287 1
19279 19290 1
19280 19284 1
19280 19285 1
19280 19288 1
19281 19286 1
19281 19287 1
19281 19290 1
19282 19284 1
19282 19285 1
19282 19289 1
19283 19288 1
19283 19289 1
19284 19286 1
19284 19287 1
19285 19290 1
19286 19288 1
19286 19289 1
19288 19290 1
19291 19294 1
19291 19295 1
19291 19299 1
19291 19302 1
19292 19296 1
19292 19297 1
19292 19300 1
19293 19298 1
19293 19299 1
19293 19302 1
19294 19296 1
19294 19297 1
19294 19301 1
19295 19300 1
19295 19301 1
19296 19298 1
19296 19299 1
19297 19302 1
19298 19300 1
19298 19301 1
19300 19302 1
19303 19306 1
19303 19307 1
19303 19311 1
19303 19314 1
19304 19308 1
19304 19309 1
19304 19312 1
19305 19310 1
19305 19311 1
19305 19314 1
19306 19308 1
19306 19309 1
19306 19313 1
19307 19312 1
19307 19313 1
19308 19310 1
19308 19311 1
19309 19314 1
19310 19312 1
19310 19313 1
19312 19314 1
19315 19318 1
19315 19319 1
19315 19323 1
19315 19326 1
19316 19320 1
19316 19321 1
19316 19324 1
19317 19322 1
19317 19323 1
19317 19326 1
19318 19320 1
19318 19321 1
19318 19325 1
19319 19324 1
19319 19325 1
19320 19322 1
19320 19323 1
19321 19326 1
19322 19324 1
19322 19325 1
19324 19326 1
19327 19330 1
19327 19331 1
19327 19335 1
19327 19338 1
19328 19332 1
19328 19333 1
19328 19336 1
19329 19334 1
19329 19335 1
19329 19338 1
19330 19332 1
19330 19333 1
19330 19337 1
19331 19336 1
19331 19337 1
19332 19334 1
19332 19335 1
19333 19338 1
19334 19336 1
19334 19337 1
19336 19338 1
19339 19342 1
19339 19343 1
19339 19347 1
19339 19350 1
19340 19344 1
19340 19345 1
19340 19348 1
19341 19346 1
19341 19347 1
19341 19350 1
19342 19344 1
19342 19345 1
19342 19349 1
19343 19348 1
19343 19349 1
19344 19346 1
19344 19347 1
19345 19350 1
19346 19348 1
19346 19349 1
19348 19350 1
19351 19354 1
19351 19355 1
19351 19359 1
19351 19362 1
19352 19356 1
19352 19357 1
19352 19360 1
19353 19358 1
19353 19359 1
19353 19362 1
19354 19356 1
19354 19357 1
19354 19361 1
19355 19360 1
19355 19361 1
19356 19358 1
19356 19359 1
19357 19362 1
19358 19360 1
19358 19361 1
19360 19362 1
19363 19366 1
19363 19367 1
19363 19371 1
19363 19374 1
19364 19368 1
19364 19369 1
19364 19372 1
19365 19370 1
19365 19371 1
19365 19374 1
19366 19368 1
19366 19369 1
19366 19373 1
19367 19372 1
19367 19373 1
19368 19370 1
19368 19371 1
19369 19374 1
19370 19372 1
19370 19373 1
19372 19374 1
19375 19378 1
19375 19379 1
19375 19383 1
19375 19386 1
19376 19380 1
19376 19381 1
19376 19384 1
19377 19382 1
19377 19383 1
19377 19386 1
19378 19380 1
19378 19381 1
19378 19385 1
19379 19384 1
19379 19385 1
19380 19382 1
19380 19383 1
19381 19386 1
19382 19384 1
19382 19385 1
19384 19386 1
19387 19390 1
19387 19391 1
19387 19395 1
19387 19398 1
19388 19392 1
19388 19393 1
19388 19396 1
19389 19394 1
19389 19395 1
19389 19398 1
19390 19392 1
19390 19393 1
19390 19397 1
19391 19396 1
19391 19397 1
19392 19394 1
19392 19395 1
19393 19398 1
19394 19396 1
19394 19397 1
19396 19398 1
19399 19402 1
19399 19403 1
19399 19407 1
19399 19410 1
19400 19404 1
19400 19405 1
19400 19408 1
19401 19406 1
19401 19407 1
19401 19410 1
19402 19404 1
19402 19405 1
19402 19409 1
19403 19408 1
19403 19409 1
19404 19406 1
19404 19407 1
19405 19410 1
19406 19408 1
19406 19409 1
19408 19410 1
19411 19414 1
19411 19415 1
19411 19419 1
19411 19422 1
19412 19416 1
19412 19417 1
19412 19420 1
19413 19418 1
19413 19419 1
19413 19422 1
19414 19416 1
19414 19417 1
19414 19421 1
19415 19420 1
19415 19421 1
19416 19418 1
19416 19419 1
19417 19422 1
19418 19420 1
19418 19421 1
19420 19422 1
19423 19426 1
19423 19427 1
19423 19431 1
19423 19434 1
19424 19428 1
19424 19429 1
19424 19432 1
19425 19430 1
19425 19431 1
19425 19434 1
19426 19428 1
19426 19429 1
19426 19433 1
19427 19432 1
19427 19433 1
19428 19430 1
19428 19431 1
19429 19434 1
19430 19432 1
19430 19433 1
19432 19434 1
19435 19438 1
19435 19439 1
19435 19443 1
19435 19446 1
19436 19440 1
19436 19441 1
19436 19444 1
19437 19442 1
19437 19443 1
19437 19446 1
19438 19440 1
19438 19441 1
19438 19445 1
19439 19444 1
19439 19445 1
19440 19442 1
19440 19443 1
19441 19446 1
19442 19444 1
19442 19445 1
19444 19446 1
19447 19450 1
19447 19451 1
19447 19455 1
19447 19458 1
19448 19452 1
19448 19453 1
19448 19456 1
19449 19454 1
19449 19455 1
19449 19458 1
19450 19452 1
19450 19453 1
19450 19457 1
19451 19456 1
19451 19457 1
19452 19454 1
19452 19455 1
19453 19458 1
19454 19456 1
19454 19457 1
19456 19458 1
19459 19462 1
19459 19463 1
19459 19467 1
19459 19470 1
19460 19464 1
19460 19465 1
19460 19468 1
19461 19466 1
19461 19467 1
19461 19470 1
19462 19464 1
19462 19465 1
19462 19469 1
19463 19468 1
19463 19469 1
19464 19466 1
19464 19467 1
19465 19470 1
19466 19468 1
19466 19469 1
19468 19470 1
19471 19474 1
19471 19475 1
19471 19479 1
19471 19482 1
19472 19476 1
19472 19477 1
19472 19480 1
19473 19478 1
19473 19479 1
19473 19482 1
19474 19476 1
19474 19477 1
19474 19481 1
19475 19480 1
19475 19481 1
19476 19478 1
19476 19479 1
19477 19482 1
19478 19480 1
19478 19481 1
19480 19482 1
19483 19486 1
19483 19487 1
19483 19491 1
19483 19494 1
19484 19488 1
19484 19489 1
19484 19492 1
19485 19490 1
19485 19491 1
19485 19494 1
19486 19488 1
19486 19489 1
19486 19493 1
19487 19492 1
19487 19493 1
19488 19490 1
19488 19491 1
19489 19494 1
19490 19492 1
19490 19493 1
19492 19494 1
19495 19498 1
19495 19499 1
19495 19503 1
19495 19506 1
19496 19500 1
19496 19501 1
19496 19504 1
19497 19502 1
19497 19503 1
19497 19506 1
19498 19500 1
19498 19501 1
19498 19505 1
19499 19504 1
19499 19505 1
19500 19502 1
19500 19503 1
19501 19506 1
19502 19504 1
19502 19505 1
19504 19506 1
19507 19510 1
19507 19511 1
19507 19515 1
19507 19518 1
19508 19512 1
19508 19513 1
19508 19516 1
19509 19514 1
19509 19515 1
19509 19518 1
19510 19512 1
19510 19513 1
19510 19517 1
19511 19516 1
19511 19517 1
19512 19514 1
19512 19515 1
19513 19518 1
19514 19516 1
19514 19517 1
19516 19518 1
19519 19522 1
19519 19523 1
19519 19527 1
19519 19530 1
19520 19524 1
19520 19525 1
19520 19528 1
19521 19526 1
19521 19527 1
19521 19530 1
19522 19524 1
19522 19525 1
19522 19529 1
19523 19528 1
19523 19529 1
19524 19526 1
19524 19527 1
19525 19530 1
19526 19528 1
19526 19529 1
19528 19530 1
19531 19534 1
19531 19535 1
19531 19539 1
19531 19542 1
19532 19536 1
19532 19537 1
19532 19540 1
19533 19538 1
19533 19539 1
19533 19542 1
19534 19536 1
19534 19537 1
19534 19541 1
19535 19540 1
19535 19541 1
19536 19538 1
19536 19539 1
19537 19542 1
19538 19540 1
19538 19541 1
19540 19542 1
19543 19546 1
19543 19547 1
19543 19551 1
19543 19554 1
19544 19548 1
19544 19549 1
19544 19552 1
19545 19550 1
19545 19551 1
19545 19554 1
19546 19548 1
19546 19549 1
19546 19553 1
19547 19552 1
19547 19553 1
19548 19550 1
19548 19551 1
19549 19554 1
19550 19552 1
19550 19553 1
19552 19554 1
19555 19558 1
19555 19559 1
19555 19563 1
19555 19566 1
19556 19560 1
19556 19561 1
19556 19564 1
19557 19562 1
19557 19563 1
19557 19566 1
19558 19560 1
19558 19561 1
19558 19565 1
19559 19564 1
19559 19565 1
19560 19562 1
19560 19563 1
19561 19566 1
19562 19564 1
19562 19565 1
19564 19566 1
19567 19570 1
19567 19571 1
19567 19575 1
19567 19578 1
19568 19572 1
19568 19573 1
19568 19576 1
19569 19574 1
19569 19575 1
19569 19578 1
19570 19572 1
19570 19573 1
19570 19577 1
19571 19576 1
19571 19577 1
19572 19574 1
19572 19575 1
19573 19578 1
19574 19576 1
19574 19577 1
19576 19578 1
19579 19582 1
19579 19583 1
19579 19587 1
19579 19590 1
19580 19584 1
19580 19585 1
19580 19588 1
19581 19586 1
19581 19587 1
19581 19590 1
19582 19584 1
19582 19585 1
19582 19589 1
19583 19588 1
19583 19589 1
19584 19586 1
19584 19587 1
19585 19590 1
19586 19588 1
19586 19589 1
19588 19590 1
19591 19594 1
19591 19595 1
19591 19599 1
19591 19602 1
19592 19596 1
19592 19597 1
19592 19600 1
19593 19598 1
19593 19599 1
19593 19602 1
19594 19596 1
19594 19597 1
19594 19601 1
19595 19600 1
19595 19601 1
19596 19598 1
19596 19599 1
19597 19602 1
19598 19600 1
19598 19601 1
19600 19602 1
19603 19606 1
19603 19607 1
19603 19611 1
19603 19614 1
19604 19608 1
19604 19609 1
19604 19612 1
19605 19610 1
19605 19611 1
19605 19614 1
19606 19608 1
19606 19609 1
19606 19613 1
19607 19612 1
19607 19613 1
19608 19610 1
19608 19611 1
19609 19614 1
19610 19612 1
19610 19613 1
19612 19614 1
19615 19618 1
19615 19619 1
19615 19623 1
19615 19626 1
19616 19620 1
19616 19621 1
19616 19624 1
19617 19622 1
19617 19623 1
19617 19626 1
19618 19620 1
19618 19621 1
19618 19625 1
19619 19624 1
19619 19625 1
19620 19622 1
19620 19623 1
19621 19626 1
19622 19624 1
19622 19625 1
19624 19626 1
19627 19630 1
19627 19631 1
19627 19635 1
19627 19638 1
19628 19632 1
19628 19633 1
19628 19636 1
19629 19634 1
19629 19635 1
19629 19638 1
19630 19632 1
19630 19633 1
19630 19637 1
19631 19636 1
19631 19637 1
19632 19634 1
19632 19635 1
19633 19638 1
19634 19636 1
19634 19637 1
19636 19638 1
19639 19642 1
19639 19643 1
19639 19647 1
19639 19650 1
19640 19644 1
19640 19645 1
19640 19648 1
19641 19646 1
19641 19647 1
19641 19650 1
19642 19644 1
19642 19645 1
19642 19649 1
19643 19648 1
19643 19649 1
19644 19646 1
19644 19647 1
19645 19650 1
19646 19648 1
19646 19649 1
19648 19650 1
19651 19654 1
19651 19655 1
19651 19659 1
19651 19662 1
19652 19656 1
19652 19657 1
19652 19660 1
19653 19658 1
19653 19659 1
19653 19662 1
19654 19656 1
19654 19657 1
19654 19661 1
19655 19660 1
19655 19661 1
19656 19658 1
19656 19659 1
19657 19662 1
19658 19660 1
19658 19661 1
19660 19662 1
19663 19666 1
19663 19667 1
19663 19671 1
19663 19674 1
19664 19668 1
19664 19669 1
19664 19672 1
19665 19670 1
19665 19671 1
19665 19674 1
19666 19668 1
19666 19669 1
19666 19673 1
19667 19672 1
19667 19673 1
19668 19670 1
19668 19671 1
19669 19674 1
19670 19672 1
19670 19673 1
19672 19674 1
19675 19678 1
19675 19679 1
19675 19683 1
19675 19686 1
19676 19680 1
19676 19681 1
19676 19684 1
19677 19682 1
19677 19683 1
19677 19686 1
19678 19680 1
19678 19681 1
19678 19685 1
19679 19684 1
19679 19685 1
19680 19682 1
19680 19683 1
19681 19686 1
19682 19684 1
19682 19685 1
19684 19686 1
19687 19690 1
19687 19691 1
19687 19695 1
19687 19698 1
19688 19692 1
19688 19693 1
19688 19696 1
19689 19694 1
19689 19695 1
19689 19698 1
19690 19692 1
19690 19693 1
19690 19697 1
19691 19696 1
19691 19697 1
19692 19694 1
19692 19695 1
19693 19698 1
19694 19696 1
19694 19697 1
19696 19698 1
19699 19702 1
19699 19703 1
19699 19707 1
19699 19710 1
19700 19704 1
19700 19705 1
19700 19708 1
19701 19706 1
19701 19707 1
19701 19710 1
19702 19704 1
19702 19705 1
19702 19709 1
19703 19708 1
19703 19709 1
19704 19706 1
19704 19707 1
19705 19710 1
19706 19708 1
19706 19709 1
19708 19710 1
19711 19714 1
19711 19715 1
19711 19719 1
19711 19722 1
19712 19716 1
19712 19717 1
19712 19720 1
19713 19718 1
19713 19719 1
19713 19722 1
19714 19716 1
19714 19717 1
19714 19721 1
19715 19720 1
19715 19721 1
19716 19718 1
19716 19719 1
19717 19722 1
19718 19720 1
19718 19721 1
19720 19722 1
19723 19726 1
19723 19727 1
19723 19731 1
19723 19734 1
19724 19728 1
19724 19729 1
19724 19732 1
19725 19730 1
19725 19731 1
19725 19734 1
19726 19728 1
19726 19729 1
19726 19733 1
19727 19732 1
19727 19733 1
19728 19730 1
19728 19731 1
19729 19734 1
19730 19732 1
19730 19733 1
19732 19734 1
19735 19738 1
19735 19739 1
19735 19743 1
19735 19746 1
19736 19740 1
19736 19741 1
19736 19744 1
19737 19742 1
19737 19743 1
19737 19746 1
19738 19740 1
19738 19741 1
19738 19745 1
19739 19744 1
19739 19745 1
19740 19742 1
19740 19743 1
19741 19746 1
19742 19744 1
19742 19745 1
19744 19746 1
19747 19750 1
19747 19751 1
19747 19755 1
19747 19758 1
19748 19752 1
19748 19753 1
19748 19756 1
19749 19754 1
19749 19755 1
19749 19758 1
19750 19752 1
19750 19753 1
19750 19757 1
19751 19756 1
19751 19757 1
19752 19754 1
19752 19755 1
19753 19758 1
19754 19756 1
19754 19757 1
19756 19758 1
19759 19762 1
19759 19763 1
19759 19767 1
19759 19770 1
19760 19764 1
19760 19765 1
19760 19768 1
19761 19766 1
19761 19767 1
19761 19770 1
19762 19764 1
19762 19765 1
19762 19769 1
19763 19768 1
19763 19769 1
19764 19766 1
19764 19767 1
19765 19770 1
19766 19768 1
19766 19769 1
19768 19770 1
19771 19774 1
19771 19775 1
19771 19779 1
19771 19782 1
19772 19776 1
19772 19777 1
19772 19780 1
19773 19778 1
19773 19779 1
19773 19782 1
19774 19776 1
19774 19777 1
19774 19781 1
19775 19780 1
19775 19781 1
19776 19778 1
19776 19779 1
19777 19782 1
19778 19780 1
19778 19781 1
19780 19782 1
19783 19786 1
19783 19787 1
19783 19791 1
19783 19794 1
19784 19788 1
19784 19789 1
19784 19792 1
19785 19790 1
19785 19791 1
19785 19794 1
19786 19788 1
19786 19789 1
19786 19793 1
19787 19792 1
19787 19793 1
19788 19790 1
19788 19791 1
19789 19794 1
19790 19792 1
19790 19793 1
19792 19794 1
19795 19798 1
19795 19799 1
19795 19803 1
19795 19806 1
19796 19800 1
19796 19801 1
19796 19804 1
19797 19802 1
19797 19803 1
19797 19806 1
19798 19800 1
19798 19801 1
19798 19805 1
19799 19804 1
19799 19805 1
19800 19802 1
19800 19803 1
19801 19806 1
19802 19804 1
19802 19805 1
19804 19806 1
19807 19810 1
19807 19811 1
19807 19815 1
19807 19818 1
19808 19812 1
19808 19813 1
19808 19816 1
19809 19814 1
19809 19815 1
19809 19818 1
19810 19812 1
19810 19813 1
19810 19817 1
19811 19816 1
19811 19817 1
19812 19814 1
19812 19815 1
19813 19818 1
19814 19816 1
19814 19817 1
19816 19818 1
19819 19822 1
19819 19823 1
19819 19827 1
19819 19830 1
19820 19824 1
19820 19825 1
19820 19828 1
19821 19826 1
19821 19827 1
19821 19830 1
19822 19824 1
19822 19825 1
19822 19829 1
19823 19828 1
19823 19829 1
19824 19826 1
19824 19827 1
19825 19830 1
19826 19828 1
19826 19829 1
19828 19830 1
19831 19834 1
19831 19835 1
19831 19839 1
19831 19842 1
19832 19836 1
19832 19837 1
19832 19840 1
19833 19838 1
19833 19839 1
19833 19842 1
19834 19836 1
19834 19837 1
19834 19841 1
19835 19840 1
19835 19841 1
19836 19838 1
19836 19839 1
19837 19842 1
19838 19840 1
19838 19841 1
19840 19842 1
19843 19846 1
19843 19847 1
19843 19851 1
19843 19854 1
19844 19848 1
19844 19849 1
19844 19852 1
19845 19850 1
19845 19851 1
19845 19854 1
19846 19848 1
19846 19849 1
19846 19853 1
19847 19852 1
19847 19853 1
19848 19850 1
19848 19851 1
19849 19854 1
19850 19852 1
19850 19853 1
19852 19854 1
19855 19858 1
19855 19859 1
19855 19863 1
19855 19866 1
19856 19860 1
19856 19861 1
19856 19864 1
19857 19862 1
19857 19863 1
19857 19866 1
19858 19860 1
19858 19861 1
19858 19865 1
19859 19864 1
19859 19865 1
19860 19862 1
19860 19863 1
19861 19866 1
19862 19864 1
19862 19865 1
19864 19866 1
19867 19870 1
19867 19871 1
19867 19875 1
19867 19878 1
19868 19872 1
19868 19873 1
19868 19876 1
19869 19874 1
19869 19875 1
19869 19878 1
19870 19872 1
19870 19873 1
19870 19877 1
19871 19876 1
19871 19877 1
19872 19874 1
19872 19875 1
19873 19878 1
19874 19876 1
19874 19877 1
19876 19878 1
19879 19882 1
19879 19883 1
19879 19887 1
19879 19890 1
19880 19884 1
19880 19885 1
19880 19888 1
19881 19886 1
19881 19887 1
19881 19890 1
19882 19884 1
19882 19885 1
19882 19889 1
19883 19888 1
19883 19889 1
19884 19886 1
19884 19887 1
19885 19890 1
19886 19888 1
19886 19889 1
19888 19890 1
19891 19894 1
19891 19895 1
19891 19899 1
19891 19902 1
19892 19896 1
19892 19897 1
19892 19900 1
19893 19898 1
19893 19899 1
19893 19902 1
19894 19896 1
19894 19897 1
19894 19901 1
19895 19900 1
19895 19901 1
19896 19898 1
19896 19899 1
19897 19902 1
19898 19900 1
19898 19901 1
19900 19902 1
19903 19906 1
19903 19907 1
19903 19911 1
19903 19914 1
19904 19908 1
19904 19909 1
19904 19912 1
19905 19910 1
19905 19911 1
19905 19914 1
19906 19908 1
19906 19909 1
19906 19913 1
19907 19912 1
19907 19913 1
19908 19910 1
19908 19911 1
19909 19914 1
19910 19912 1
19910 19913 1
19912 19914 1
19915 19918 1
19915 19919 1
19915 19923 1
19915 19926 1
19916 19920 1
19916 19921 1
19916 19924 1
19917 19922 1
19917 19923 1
19917 19926 1
19918 19920 1
19918 19921 1
19918 19925 1
19919 19924 1
19919 19925 1
19920 19922 1
19920 19923 1
19921 19926 1
19922 19924 1
19922 19925 1
19924 19926 1
19927 19930 1
19927 19931 1
19927 19935 1
19927 19938 1
19928 19932 1
19928 19933 1
19928 19936 1
19929 19934 1
19929 19935 1
19929 19938 1
19930 19932 1
19930 19933 1
19930 19937 1
19931 19936 1
19931 19937 1
19932 19934 1
19932 19935 1
19933 19938 1
19934 19936 1
19934 19937 1
19936 19938 1

[ angles ]
; ai aj ak funct params
11409 1 15009 1 149.00000 418.400000
11409 2 15683 1 149.00000 418.400000
11409 3 15869 1 149.00000 418.400000
11409 4 11784 1 149.00000 418.400000
11410 5 11554 1 149.00000 418.400000
11410 6 20191 1 149.00000 418.400000
11411 7 15793 1 149.00000 418.400000
11411 8 16609 1 149.00000 418.400000
11411 9 11845 1 149.00000 418.400000
11411 10 12553 1 149.00000 418.400000
11412 11 12373 1 149.00000 418.400000
11412 12 12704 1 149.00000 418.400000
11412 13 13711 1 149.00000 418.400000
11413 14 11451 1 149.00000 418.400000
11413 15 13639 1 149.00000 418.400000
11413 16 13901 1 149.00000 418.400000
11413 17 12638 1 149.00000 418.400000
12464 18 20527 1 149.00000 418.400000
11414 19 20563 1 149.00000 418.400000
11414 20 14270 1 149.00000 418.400000
11414 21 14189 1 149.00000 418.400000
11415 22 15264 1 149.00000 418.400000
11415 23 16205 1 149.00000 418.400000
11415 24 20146 1 149.00000 418.400000
11415 25 12937 1 149.00000 418.400000
11416 26 12368 1 149.00000 418.400000
11416 27 13942 1 149.00000 418.400000
11416 28 15110 1 149.00000 418.400000
11416 29 16483 1 149.00000 418.400000
11417 30 19978 1 149.00000 418.400000
11417 31 17582 1 149.00000 418.400000
11417 32 13967 1 149.00000 418.400000
11418 33 14307 1 149.00000 418.400000
11418 34 15601 1 149.00000 418.400000
11418 35 12872 1 149.00000 418.400000
11418 36 15279 1 149.00000 418.400000
11419 37 14255 1 149.00000 418.400000
11419 38 13597 1 149.00000 418.400000
11419 39 12796 1 149.00000 418.400000
11419 40 14145 1 149.00000 418.400000
11420 41 15257 1 149.00000 418.400000
11420 42 14630 1 149.00000 418.400000
11420 43 15914 1 149.00000 418.400000
11420 44 16282 1 149.00000 418.400000
11421 45 15373 1 149.00000 418.400000
11421 46 14187 1 149.00000 418.400000
11421 47 14336 1 149.00000 418.400000
11421 48 15745 1 149.00000 418.400000
11422 49 14616 1 149.00000 418.400000
11422 50 14945 1 149.00000 418.400000
11422 51 14050 1 149.00000 418.400000
11422 52 12309 1 149.00000 418.400000
11423 53 14121 1 149.00000 418.400000
11423 54 12771 1 149.00000 418.400000
11423 55 15855 1 149.00000 418.400000
11423 56 12381 1 149.00000 418.400000
11424 57 14149 1 149.00000 418.400000
11424 58 13976 1 149.00000 418.400000
11424 59 11910 1 149.00000 418.400000
11424 60 15434 1 149.00000 418.400000
11425 61 20284 1 149.00000 418.400000
11425 62 12558 1 149.00000 418.400000
11425 63 11454 1 149.00000 418.400000
11425 64 12287 1 149.00000 418.400000
11426 65 11620 1 149.00000 418.400000
11426 66 16052 1 149.00000 418.400000
11426 67 16098 1 149.00000 418.400000
11427 68 16638 1 149.00000 418.400000
11427 69 15044 1 149.00000 418.400000
11428 70 15321 1 149.00000 418.400000
11428 71 13928 1 149.00000 418.400000
11428 72 16397 1 149.00000 418.400000
11428 73 15987 1 149.00000 418.400000
11429 74 20323 1 149.00000 418.400000
11429 75 20311 1 149.00000 418.400000
11429 76 15845 1 149.00000 418.400000
11429 77 16664 1 149.00000 418.400000
11430 78 12560 1 149.00000 418.400000
11430 79 11858 1 149.00000 418.400000
11430 80 15213 1 149.00000 418.400000
11430 81 14775 1 149.00000 418.400000
11431 82 13900 1 149.00000 418.400000
11431 83 16667 1 149.00000 418.400000
11431 84 14793 1 149.00000 418.400000
11431 85 16518 1 149.00000 418.400000
13657 86 13685 1 149.00000 418.400000
11432 87 13275 1 149.00000 418.400000
11432 88 13685 1 149.00000 418.400000
11432 89 15849 1 149.00000 418.400000
11433 90 20599 1 149.00000 418.400000
11433 91 15950 1 149.00000 418.400000
11433 92 15547 1 149.00000 418.400000
11434 93 13863 1 149.00000 418.400000
11434 94 13616 1 149.00000 418.400000
11434 95 16247 1 149.00000 418.400000
11434 96 12749 1 149.00000 418.400000
11435 97 15583 1 149.00000 418.400000
11435 98 13081 1 149.00000 418.400000
11435 99 13966 1 149.00000 418.400000
11435 100 16115 1 149.00000 418.400000
11436 101 11709 1 149.00000 418.400000
11436 102 14064 1 149.00000 418.400000
11436 103 12526 1 149.00000 418.400000
11436 104 16256 1 149.00000 418.400000
11437 105 12209 1 149.00000 418.400000
11437 106 16617 1 149.00000 418.400000
11437 107 16018 1 149.00000 418.400000
11437 108 16259 1 149.00000 418.400000
11438 109 14763 1 149.00000 418.400000
11438 110 16182 1 149.00000 418.400000
11438 111 13627 1 149.00000 418.400000
11438 112 15889 1 149.00000 418.400000
11439 113 11848 1 149.00000 418.400000
11439 114 12655 1 149.00000 418.400000
11439 115 16169 1 149.00000 418.400000
11439 116 11914 1 149.00000 418.400000
11440 117 14446 1 149.00000 418.400000
11440 118 11911 1 149.00000 418.400000
11440 119 15201 1 149.00000 418.400000
11440 120 12724 1 149.00000 418.400000
11441 121 16638 1 149.00000 418.400000
11441 122 16581 1 149.00000 418.400000
11442 123 11547 1 149.00000 418.400000
11442 124 16550 1 149.00000 418.400000
11442 125 18322 1 149.00000 418.400000
11443 126 11919 1 149.00000 418.400000
11443 127 11445 1 149.00000 418.400000
11443 128 11927 1 149.00000 418.400000
11443 129 11807 1 149.00000 418.400000
11444 130 12959 1 149.00000 418.400000
11444 131 13834 1 149.00000 418.400000
11444 132 13754 1 149.00000 418.400000
11444 133 15637 1 149.00000 418.400000
11445 134 13312 1 149.00000 418.400000
11445 135 13602 1 149.00000 418.400000
11445 136 15309 1 149.00000 418.400000
11446 137 11566 1 149.00000 418.400000
11446 138 15296 1 149.00000 418.400000
11446 139 12328 1 149.00000 418.400000
11447 140 12730 1 149.00000 418.400000
11447 141 13797 1 149.00000 418.400000
11447 142 12052 1 149.00000 418.400000
11447 143 11946 1 149.00000 418.400000
11448 144 15293 1 149.00000 418.400000
11448 145 12800 1 149.00000 418.400000
11448 146 12337 1 149.00000 418.400000
11448 147 12705 1 149.00000 418.400000
13945 148 15116 1 149.00000 418.400000
11449 149 14921 1 149.00000 418.400000
11449 150 15116 1 149.00000 418.400000
11449 151 11722 1 149.00000 418.400000
11450 152 14696 1 149.00000 418.400000
11450 153 11868 1 149.00000 418.400000
11450 154 14805 1 149.00000 418.400000
11450 155 11933 1 149.00000 418.400000
11451 156 12225 1 149.00000 418.400000
11451 157 13547 1 149.00000 418.400000
11451 158 14150 1 149.00000 418.400000
13670 159 13787 1 149.00000 418.400000
11452 160 11754 1 149.00000 418.400000
11452 161 12812 1 149.00000 418.400000
11452 162 15254 1 149.00000 418.400000
11453 163 13309 1 149.00000 418.400000
11453 164 13535 1 149.00000 418.400000
11453 165 16191 1 149.00000 418.400000
11453 166 14756 1 149.00000 418.400000
11454 167 13798 1 149.00000 418.400000
11454 168 12574 1 149.00000 418.400000
11454 169 14218 1 149.00000 418.400000
11455 170 16259 1 149.00000 418.400000
11455 171 12183 1 149.00000 418.400000
11455 172 13525 1 149.00000 418.400000
11455 173 15650 1 149.00000 418.400000
11456 174 19963 1 149.00000 418.400000
11456 175 15166 1 149.00000 418.400000
11456 176 11601 1 149.00000 418.400000
11456 177 16686 1 149.00000 418.400000
17456 178 18058 1 149.00000 418.400000
16221 179 18058 1 149.00000 418.400000
11457 180 12832 1 149.00000 418.400000
11457 181 20131 1 149.00000 418.400000
11457 182 16099 1 149.00000 418.400000
11457 183 16164 1 149.00000 418.400000
11458 184 14567 1 149.00000 418.400000
11458 185 13389 1 149.00000 418.400000
11458 186 12736 1 149.00000 418.400000
11458 187 13872 1 149.00000 418.400000
11459 188 15764 1 149.00000 418.400000
11459 189 13776 1 149.00000 418.400000
11459 190 15453 1 149.00000 418.400000
11459 191 12192 1 149.00000 418.400000
11460 192 14197 1 149.00000 418.400000
11461 193 13100 1 149.00000 418.400000
11461 194 14812 1 149.00000 418.400000
11461 195 14650 1 149.00000 418.400000
11461 196 12586 1 149.00000 418.400000
11462 197 16427 1 149.00000 418.400000
11462 198 14074 1 149.00000 418.400000
11462 199 14359 1 149.00000 418.400000
11462 200 12507 1 149.00000 418.400000
11463 201 15347 1 149.00000 418.400000
11463 202 15143 1 149.00000 418.400000
11463 203 13397 1 149.00000 418.400000
12600 204 15143 1 149.00000 418.400000
20176 205 20377 1 149.00000 418.400000
11464 206 15981 1 149.00000 418.400000
11464 207 20377 1 149.00000 418.400000
11464 208 11842 1 149.00000 418.400000
11465 209 13094 1 149.00000 418.400000
11465 210 16595 1 149.00000 418.400000
11465 211 15803 1 149.00000 418.400000
11465 212 16418 1 149.00000 418.400000
13185 213 16580 1 149.00000 418.400000
11466 214 13185 1 149.00000 418.400000
11466 215 14320 1 149.00000 418.400000
11466 216 13335 1 149.00000 418.400000
11467 217 14336 1 149.00000 418.400000
11467 218 15579 1 149.00000 418.400000
11467 219 12403 1 149.00000 418.400000
11467 220 15750 1 149.00000 418.400000
11468 221 13225 1 149.00000 418.400000
11468 222 13168 1 149.00000 418.400000
11468 223 16431 1 149.00000 418.400000
11469 224 16573 1 149.00000 418.400000
11469 225 13939 1 149.00000 418.400000
11469 226 11846 1 149.00000 418.400000
11469 227 16454 1 149.00000 418.400000
11470 228 13524 1 149.00000 418.400000
11470 229 14123 1 149.00000 418.400000
11470 230 12117 1 149.00000 418.400000
11470 231 16123 1 149.00000 418.400000
11471 232 20362 1 149.00000 418.400000
11471 233 16211 1 149.00000 418.400000
11471 234 15265 1 149.00000 418.400000
14178 235 16334 1 149.00000 418.400000
14178 236 14626 1 149.00000 418.400000
11472 237 14178 1 149.00000 418.400000
13360 238 14178 1 149.00000 418.400000
11473 239 15747 1 149.00000 418.400000
11473 240 15896 1 149.00000 418.400000
11473 241 17330 1 149.00000 418.400000
11474 242 16069 1 149.00000 418.400000
11474 243 13560 1 149.00000 418.400000
11474 244 14963 1 149.00000 418.400000
11475 245 20800 1 149.00000 418.400000
11476 246 12992 1 149.00000 418.400000
11476 247 16533 1 149.00000 418.400000
11476 248 13036 1 149.00000 418.400000
11476 249 11557 1 149.00000 418.400000
11877 250 13734 1 149.00000 418.400000
11477 251 15225 1 149.00000 418.400000
11477 252 14355 1 149.00000 418.400000
11477 253 13734 1 149.00000 418.400000
11478 254 11985 1 149.00000 418.400000
11478 255 11967 1 149.00000 418.400000
11479 256 14113 1 149.00000 418.400000
11479 257 13911 1 149.00000 418.400000
11479 258 14901 1 149.00000 418.400000
11479 259 14177 1 149.00000 418.400000
11480 260 12087 1 149.00000 418.400000
11480 261 12212 1 149.00000 418.400000
11480 262 15906 1 149.00000 418.400000
11480 263 11494 1 149.00000 418.400000
11481 264 16061 1 149.00000 418.400000
11481 265 14569 1 149.00000 418.400000
11481 266 16640 1 149.00000 418.400000
11481 267 12399 1 149.00000 418.400000
11482 268 12952 1 149.00000 418.400000
11482 269 13075 1 149.00000 418.400000
11482 270 15692 1 149.00000 418.400000
11482 271 11523 1 149.00000 418.400000
11483 272 16008 1 149.00000 418.400000
11483 273 14212 1 149.00000 418.400000
11483 274 18814 1 149.00000 418.400000
11484 275 14857 1 149.00000 418.400000
11484 276 15697 1 149.00000 418.400000
11484 277 12286 1 149.00000 418.400000
11484 278 14567 1 149.00000 418.400000
11485 279 13544 1 149.00000 418.400000
11485 280 12101 1 149.00000 418.400000
11485 281 15404 1 149.00000 418.400000
11485 282 14043 1 149.00000 418.400000
11486 283 14961 1 149.00000 418.400000
11486 284 13188 1 149.00000 418.400000
11486 285 20032 1 149.00000 418.400000
11487 286 12418 1 149.00000 418.400000
11487 287 13179 1 149.00000 418.400000
11487 288 14651 1 149.00000 418.400000
11487 289 11496 1 149.00000 418.400000
11488 290 11975 1 149.00000 418.400000
11488 291 12348 1 149.00000 418.400000
11488 292 11581 1 149.00000 418.400000
11975 293 12893 1 149.00000 418.400000
11489 294 14718 1 149.00000 418.400000
11489 295 16082 1 149.00000 418.400000
11489 296 13614 1 149.00000 418.400000
13614 297 13938 1 149.00000 418.400000
11490 298 15490 1 149.00000 418.400000
11490 299 15613 1 149.00000 418.400000
11490 300 12207 1 149.00000 418.400000
11490 301 12190 1 149.00000 418.400000
11491 302 14560 1 149.00000 418.400000
11491 303 12271 1 149.00000 418.400000
11491 304 14384 1 149.00000 418.400000
11491 305 15693 1 149.00000 418.400000
11492 306 16826 1 149.00000 418.400000
11492 307 13200 1 149.00000 418.400000
11492 308 14688 1 149.00000 418.400000
11492 309 16227 1 149.00000 418.400000
11493 310 12687 1 149.00000 418.400000
11493 311 11775 1 149.00000 418.400000
11493 312 15415 1 149.00000 418.400000
11493 313 16604 1 149.00000 418.400000
11494 314 20398 1 149.00000 418.400000
11494 315 12973 1 149.00000 418.400000
11495 316 11739 1 149.00000 418.400000
11495 317 12917 1 149.00000 418.400000
11495 318 14304 1 149.00000 418.400000
11495 319 15863 1 149.00000 418.400000
15996 320 18154 1 149.00000 418.400000
11496 321 15401 1 149.00000 418.400000
11496 322 12192 1 149.00000 418.400000
11496 323 16289 1 149.00000 418.400000
11497 324 15176 1 149.00000 418.400000
11497 325 14335 1 149.00000 418.400000
11497 326 15534 1 149.00000 418.400000
11497 327 14022 1 149.00000 418.400000
11498 328 11859 1 149.00000 418.400000
11498 329 14822 1 149.00000 418.400000
11498 330 16616 1 149.00000 418.400000
11498 331 11678 1 149.00000 418.400000
11499 332 15773 1 149.00000 418.400000
11499 333 12346 1 149.00000 418.400000
11499 334 12227 1 149.00000 418.400000
11499 335 14046 1 149.00000 418.400000
12938 336 15555 1 149.00000 418.400000
15189 337 15555 1 149.00000 418.400000
11500 338 16528 1 149.00000 418.400000
11801 339 15555 1 149.00000 418.400000
11501 340 12801 1 149.00000 418.400000
11501 341 14026 1 149.00000 418.400000
11501 342 12895 1 149.00000 418.400000
11501 343 14685 1 149.00000 418.400000
11502 344 14874 1 149.00000 418.400000
11502 345 11852 1 149.00000 418.400000
11502 346 15197 1 149.00000 418.400000
11502 347 11567 1 149.00000 418.400000
12985 348 20707 1 149.00000 418.400000
14239 349 20707 1 149.00000 418.400000
11503 350 20707 1 149.00000 418.400000
11503 351 14505 1 149.00000 418.400000
11504 352 16006 1 149.00000 418.400000
11504 353 13796 1 149.00000 418.400000
11504 354 14572 1 149.00000 418.400000
11504 355 16421 1 149.00000 418.400000
11505 356 19126 1 149.00000 418.400000
11505 357 15757 1 149.00000 418.400000
11505 358 15215 1 149.00000 418.400000
11505 359 14108 1 149.00000 418.400000
11506 360 12883 1 149.00000 418.400000
11506 361 15983 1 149.00000 418.400000
11506 362 11621 1 149.00000 418.400000
11506 363 12628 1 149.00000 418.400000
11507 364 16537 1 149.00000 418.400000
11507 365 16312 1 149.00000 418.400000
11507 366 12844 1 149.00000 418.400000
11507 367 14493 1 149.00000 418.400000
13968 368 16344 1 149.00000 418.400000
11508 369 16344 1 149.00000 418.400000
12515 370 16344 1 149.00000 418.400000
13251 371 20434 1 149.00000 418.400000
11509 372 13251 1 149.00000 418.400000
13251 373 15616 1 149.00000 418.400000
11509 374 11879 1 149.00000 418.400000
11580 375 11945 1 149.00000 418.400000
11945 376 12871 1 149.00000 418.400000
11510 377 12048 1 149.00000 418.400000
11510 378 11945 1 149.00000 418.400000
11511 379 12781 1 149.00000 418.400000
11511 380 13753 1 149.00000 418.400000
11511 381 14274 1 149.00000 418.400000
11511 382 16529 1 149.00000 418.400000
11512 383 20107 1 149.00000 418.400000
11512 384 15445 1 149.00000 418.400000
11512 385 15946 1 149.00000 418.400000
11512 386 14545 1 149.00000 418.400000
11513 387 15560 1 149.00000 418.400000
11513 388 11588 1 149.00000 418.400000
11513 389 13084 1 149.00000 418.400000
11513 390 11749 1 149.00000 418.400000
11514 391 13495 1 149.00000 418.400000
11514 392 13235 1 149.00000 418.400000
11514 393 11977 1 149.00000 418.400000
11514 394 12713 1 149.00000 418.400000
11515 395 17162 1 149.00000 418.400000
11515 396 11937 1 149.00000 418.400000
11516 397 14351 1 149.00000 418.400000
11694 398 14527 1 149.00000 418.400000
11516 399 12727 1 149.00000 418.400000
11516 400 14527 1 149.00000 418.400000
11517 401 11598 1 149.00000 418.400000
11517 402 14261 1 149.00000 418.400000
11517 403 16620 1 149.00000 418.400000
11517 404 11634 1 149.00000 418.400000
11518 405 15748 1 149.00000 418.400000
11518 406 13167 1 149.00000 418.400000
13722 407 15396 1 149.00000 418.400000
11518 408 15396 1 149.00000 418.400000
11519 409 12573 1 149.00000 418.400000
11519 410 13115 1 149.00000 418.400000
11519 411 14282 1 149.00000 418.400000
11519 412 16365 1 149.00000 418.400000
11520 413 13244 1 149.00000 418.400000
11520 414 16639 1 149.00000 418.400000
11520 415 12714 1 149.00000 418.400000
11520 416 17638 1 149.00000 418.400000
11521 417 20653 1 149.00000 418.400000
11521 418 13367 1 149.00000 418.400000
11521 419 16497 1 149.00000 418.400000
11522 420 13334 1 149.00000 418.400000
11522 421 14186 1 149.00000 418.400000
11522 422 14086 1 149.00000 418.400000
11522 423 13282 1 149.00000 418.400000
11523 424 14405 1 149.00000 418.400000
11523 425 12872 1 149.00000 418.400000
11523 426 11557 1 149.00000 418.400000
11524 427 15945 1 149.00000 418.400000
11524 428 16510 1 149.00000 418.400000
11524 429 14310 1 149.00000 418.400000
11524 430 11640 1 149.00000 418.400000
11525 431 12858 1 149.00000 418.400000
11525 432 12933 1 149.00000 418.400000
11525 433 13563 1 149.00000 418.400000
11525 434 15844 1 149.00000 418.400000
12197 435 14469 1 149.00000 418.400000
11526 436 12197 1 149.00000 418.400000
11526 437 13221 1 149.00000 418.400000
11526 438 14066 1 149.00000 418.400000
11527 439 13591 1 149.00000 418.400000
11527 440 12289 1 149.00000 418.400000
11528 441 17806 1 149.00000 418.400000
11528 442 16896 1 149.00000 418.400000
11528 443 15351 1 149.00000 418.400000
11528 444 15852 1 149.00000 418.400000
11529 445 11585 1 149.00000 418.400000
11529 446 12856 1 149.00000 418.400000
11529 447 14172 1 149.00000 418.400000
11529 448 14861 1 149.00000 418.400000
11530 449 13237 1 149.00000 418.400000
11530 450 12026 1 149.00000 418.400000
11531 451 13627 1 149.00000 418.400000
11531 452 15995 1 149.00000 418.400000
11531 453 14468 1 149.00000 418.400000
11531 454 12953 1 149.00000 418.400000
11532 455 14546 1 149.00000 418.400000
11532 456 11984 1 149.00000 418.400000
11532 457 12511 1 149.00000 418.400000
11532 458 18478 1 149.00000 418.400000
11533 459 16440 1 149.00000 418.400000
11533 460 18862 1 149.00000 418.400000
11534 461 15627 1 149.00000 418.400000
11534 462 13478 1 149.00000 418.400000
11534 463 14975 1 149.00000 418.400000
11534 464 15638 1 149.00000 418.400000
11535 465 16564 1 149.00000 418.400000
11535 466 16362 1 149.00000 418.400000
11535 467 14011 1 149.00000 418.400000
11535 468 13124 1 149.00000 418.400000
11536 469 15134 1 149.00000 418.400000
11536 470 12212 1 149.00000 418.400000
11536 471 15666 1 149.00000 418.400000
11536 472 14556 1 149.00000 418.400000
11537 473 13234 1 149.00000 418.400000
11537 474 15071 1 149.00000 418.400000
11538 475 14000 1 149.00000 418.400000
11538 476 14900 1 149.00000 418.400000
11538 477 14993 1 149.00000 418.400000
11538 478 13456 1 149.00000 418.400000
11539 479 15615 1 149.00000 418.400000
14114 480 18574 1 149.00000 418.400000
16419 481 20422 1 149.00000 418.400000
11539 482 20422 1 149.00000 418.400000
11540 483 13061 1 149.00000 418.400000
11540 484 12989 1 149.00000 418.400000
11540 485 14693 1 149.00000 418.400000
11540 486 14286 1 149.00000 418.400000
11541 487 12081 1 149.00000 418.400000
11541 488 11659 1 149.00000 418.400000
11541 489 16277 1 149.00000 418.400000
11541 490 13353 1 149.00000 418.400000
11542 491 19918 1 149.00000 418.400000
11542 492 14122 1 149.00000 418.400000
11542 493 16639 1 149.00000 418.400000
11542 494 15927 1 149.00000 418.400000
13803 495 16247 1 149.00000 418.400000
11543 496 15698 1 149.00000 418.400000
11543 497 13803 1 149.00000 418.400000
11543 498 15505 1 149.00000 418.400000
14971 499 19945 1 149.00000 418.400000
11544 500 14978 1 149.00000 418.400000
11544 501 11960 1 149.00000 418.400000
11544 502 15259 1 149.00000 418.400000
11544 503 11553 1 149.00000 418.400000
11545 504 15330 1 149.00000 418.400000
11545 505 13346 1 149.00000 418.400000
11545 506 14774 1 149.00000 418.400000
11545 507 12553 1 149.00000 418.400000
11546 508 13604 1 149.00000 418.400000
11546 509 13742 1 149.00000 418.400000
11546 510 13527 1 149.00000 418.400000
11546 511 15651 1 149.00000 418.400000
11547 512 19960 1 149.00000 418.400000
11547 513 12365 1 149.00000 418.400000
11547 514 17596 1 149.00000 418.400000
11548 515 13289 1 149.00000 418.400000
11548 516 16080 1 149.00000 418.400000
11548 517 14943 1 149.00000 418.400000
11549 518 20737 1 149.00000 418.400000
11549 519 18766 1 149.00000 418.400000
11549 520 16515 1 149.00000 418.400000
11550 521 19690 1 149.00000 418.400000
11550 522 15455 1 149.00000 418.400000
12811 523 19690 1 149.00000 418.400000
11550 524 12369 1 149.00000 418.400000
11551 525 16406 1 149.00000 418.400000
11551 526 16613 1 149.00000 418.400000
11551 527 16462 1 149.00000 418.400000
11551 528 11998 1 149.00000 418.400000
11552 529 12698 1 149.00000 418.400000
11552 530 15664 1 149.00000 418.400000
11552 531 11729 1 149.00000 418.400000
11552 532 15805 1 149.00000 418.400000
11553 533 12276 1 149.00000 418.400000
11553 534 15499 1 149.00000 418.400000
11553 535 13107 1 149.00000 418.400000
11554 536 15893 1 149.00000 418.400000
11554 537 12518 1 149.00000 418.400000
11554 538 15989 1 149.00000 418.400000
11555 539 14096 1 149.00000 418.400000
11555 540 15802 1 149.00000 418.400000
11555 541 13680 1 149.00000 418.400000
11555 542 12995 1 149.00000 418.400000
12431 543 12736 1 149.00000 418.400000
12736 544 16384 1 149.00000 418.400000
11556 545 12736 1 149.00000 418.400000
11557 546 13011 1 149.00000 418.400000
11557 547 12595 1 149.00000 418.400000
11558 548 16148 1 149.00000 418.400000
11558 549 14433 1 149.00000 418.400000
11558 550 15684 1 149.00000 418.400000
11558 551 15948 1 149.00000 418.400000
11559 552 13354 1 149.00000 418.400000
11559 553 11717 1 149.00000 418.400000
11559 554 15868 1 149.00000 418.400000
11717 555 13163 1 149.00000 418.400000
11560 556 16312 1 149.00000 418.400000
11560 557 13574 1 149.00000 418.400000
11560 558 14049 1 149.00000 418.400000
11561 559 12635 1 149.00000 418.400000
11561 560 11878 1 149.00000 418.400000
11561 561 12926 1 149.00000 418.400000
11562 562 16596 1 149.00000 418.400000
11562 563 12520 1 149.00000 418.400000
11562 564 15174 1 149.00000 418.400000
11562 565 14190 1 149.00000 418.400000
11563 566 12232 1 149.00000 418.400000
11563 567 14185 1 149.00000 418.400000
11563 568 15101 1 149.00000 418.400000
11563 569 13329 1 149.00000 418.400000
11564 570 11700 1 149.00000 418.400000
11564 571 12666 1 149.00000 418.400000
11564 572 16470 1 149.00000 418.400000
11564 573 13521 1 149.00000 418.400000
11565 574 14869 1 149.00000 418.400000
11565 575 15539 1 149.00000 418.400000
11565 576 13411 1 149.00000 418.400000
11565 577 12543 1 149.00000 418.400000
11566 578 14715 1 149.00000 418.400000
11566 579 18190 1 149.00000 418.400000
11567 580 12226 1 149.00000 418.400000
11567 581 12060 1 149.00000 418.400000
11567 582 13731 1 149.00000 418.400000
11568 583 14777 1 149.00000 418.400000
11568 584 13445 1 149.00000 418.400000
11569 585 16166 1 149.00000 418.400000
11569 586 15542 1 149.00000 418.400000
11569 587 16533 1 149.00000 418.400000
11569 588 12366 1 149.00000 418.400000
11570 589 14724 1 149.00000 418.400000
11570 590 16396 1 149.00000 418.400000
11570 591 12490 1 149.00000 418.400000
11570 592 13220 1 149.00000 418.400000
11571 593 12310 1 149.00000 418.400000
11571 594 14740 1 149.00000 418.400000
11571 595 15714 1 149.00000 418.400000
11571 596 14904 1 149.00000 418.400000
11572 597 14529 1 149.00000 418.400000
11572 598 16798 1 149.00000 418.400000
11572 599 11626 1 149.00000 418.400000
11572 600 13349 1 149.00000 418.400000
11573 601 16728 1 149.00000 418.400000
11573 602 15558 1 149.00000 418.400000
11573 603 17120 1 149.00000 418.400000
11574 604 14578 1 149.00000 418.400000
11574 605 14797 1 149.00000 418.400000
11574 606 11575 1 149.00000 418.400000
11574 607 16204 1 149.00000 418.400000
11575 608 12942 1 149.00000 418.400000
11575 609 11706 1 149.00000 418.400000
11575 610 12840 1 149.00000 418.400000
11576 611 13733 1 149.00000 418.400000
11576 612 12423 1 149.00000 418.400000
11576 613 15825 1 149.00000 418.400000
11576 614 16672 1 149.00000 418.400000
11577 615 15036 1 149.00000 418.400000
11577 616 14547 1 149.00000 418.400000
11577 617 15356 1 149.00000 418.400000
11577 618 14290 1 149.00000 418.400000
11578 619 15007 1 149.00000 418.400000
11578 620 20587 1 149.00000 418.400000
11578 621 14689 1 149.00000 418.400000
11579 622 15636 1 149.00000 418.400000
11579 623 12753 1 149.00000 418.400000
11579 624 13505 1 149.00000 418.400000
11579 625 13914 1 149.00000 418.400000
11580 626 15250 1 149.00000 418.400000
11580 627 15544 1 149.00000 418.400000
11580 628 12133 1 149.00000 418.400000
11581 629 11588 1 149.00000 418.400000
11581 630 13921 1 149.00000 418.400000
11581 631 15772 1 149.00000 418.400000
11582 632 15847 1 149.00000 418.400000
11582 633 14100 1 149.00000 418.400000
11582 634 12535 1 149.00000 418.400000
11582 635 12203 1 149.00000 418.400000
11583 636 15515 1 149.00000 418.400000
11583 637 12274 1 149.00000 418.400000
11583 638 14405 1 149.00000 418.400000
11583 639 15279 1 149.00000 418.400000
11584 640 11900 1 149.00000 418.400000
11584 641 12433 1 149.00000 418.400000
11584 642 14202 1 149.00000 418.400000
11584 643 15258 1 149.00000 418.400000
11585 644 12422 1 149.00000 418.400000
11585 645 16688 1 149.00000 418.400000
11585 646 11866 1 149.00000 418.400000
11586 647 12866 1 149.00000 418.400000
11586 648 14725 1 149.00000 418.400000
11586 649 14263 1 149.00000 418.400000
11586 650 15688 1 149.00000 418.400000
11587 651 13726 1 149.00000 418.400000
11587 652 20898 1 149.00000 418.400000
11587 653 14288 1 149.00000 418.400000
11587 654 19006 1 149.00000 418.400000
11588 655 12237 1 149.00000 418.400000
11588 656 12015 1 149.00000 418.400000
11589 657 13840 1 149.00000 418.400000
11589 658 12632 1 149.00000 418.400000
11589 659 13420 1 149.00000 418.400000
12632 660 16679 1 149.00000 418.400000
11590 661 16156 1 149.00000 418.400000
11590 662 16603 1 149.00000 418.400000
14640 663 16603 1 149.00000 418.400000
11590 664 12661 1 149.00000 418.400000
11591 665 15861 1 149.00000 418.400000
14618 666 15861 1 149.00000 418.400000
11591 667 13348 1 149.00000 418.400000
11591 668 11763 1 149.00000 418.400000
11592 669 12432 1 149.00000 418.400000
11592 670 15102 1 149.00000 418.400000
11593 671 14223 1 149.00000 418.400000
11593 672 15131 1 149.00000 418.400000
12460 673 14223 1 149.00000 418.400000
11593 674 12933 1 149.00000 418.400000
11594 675 12657 1 149.00000 418.400000
11594 676 15405 1 149.00000 418.400000
11594 677 11951 1 149.00000 418.400000
11595 678 11641 1 149.00000 418.400000
11595 679 14019 1 149.00000 418.400000
11595 680 16471 1 149.00000 418.400000
11641 681 15900 1 149.00000 418.400000
11596 682 12992 1 149.00000 418.400000
14180 683 15692 1 149.00000 418.400000
11596 684 13807 1 149.00000 418.400000
11596 685 14180 1 149.00000 418.400000
11597 686 13302 1 149.00000 418.400000
11597 687 11748 1 149.00000 418.400000
11597 688 15888 1 149.00000 418.400000
11597 689 15164 1 149.00000 418.400000
11598 690 12123 1 149.00000 418.400000
11889 691 13100 1 149.00000 418.400000
11598 692 11889 1 149.00000 418.400000
11599 693 13797 1 149.00000 418.400000
11599 694 14070 1 149.00000 418.400000
11599 695 12155 1 149.00000 418.400000
11599 696 12052 1 149.00000 418.400000
11600 697 13808 1 149.00000 418.400000
11600 698 13603 1 149.00000 418.400000
11600 699 12193 1 149.00000 418.400000
11600 700 12891 1 149.00000 418.400000
11601 701 13069 1 149.00000 418.400000
11601 702 14421 1 149.00000 418.400000
11601 703 14665 1 149.00000 418.400000
11602 704 12619 1 149.00000 418.400000
11602 705 14198 1 149.00000 418.400000
11602 706 14273 1 149.00000 418.400000
11602 707 13538 1 149.00000 418.400000
11603 708 20764 1 149.00000 418.400000
11603 709 12844 1 149.00000 418.400000
11603 710 14796 1 149.00000 418.400000
11603 711 13471 1 149.00000 418.400000
11604 712 16666 1 149.00000 418.400000
11604 713 14666 1 149.00000 418.400000
11604 714 14773 1 149.00000 418.400000
14773 715 15199 1 149.00000 418.400000
13459 716 15558 1 149.00000 418.400000
11605 717 15558 1 149.00000 418.400000
11605 718 18550 1 149.00000 418.400000
11606 719 15230 1 149.00000 418.400000
11606 720 12405 1 149.00000 418.400000
11606 721 20782 1 149.00000 418.400000
11607 722 14452 1 149.00000 418.400000
11646 723 14128 1 149.00000 418.400000
14128 724 14452 1 149.00000 418.400000
11608 725 13809 1 149.00000 418.400000
11608 726 13694 1 149.00000 418.400000
11608 727 12518 1 149.00000 418.400000
11608 728 13076 1 149.00000 418.400000
11609 729 12392 1 149.00000 418.400000
11609 730 16107 1 149.00000 418.400000
11609 731 16333 1 149.00000 418.400000
11609 732 12816 1 149.00000 418.400000
11610 733 15685 1 149.00000 418.400000
11610 734 12186 1 149.00000 418.400000
11610 735 16360 1 149.00000 418.400000
11610 736 14904 1 149.00000 418.400000
11611 737 15771 1 149.00000 418.400000
11611 738 12508 1 149.00000 418.400000
11611 739 12503 1 149.00000 418.400000
11611 740 12639 1 149.00000 418.400000
11612 741 11989 1 149.00000 418.400000
11612 742 19342 1 149.00000 418.400000
11612 743 14911 1 149.00000 418.400000
11612 744 13671 1 149.00000 418.400000
11613 745 12414 1 149.00000 418.400000
11613 746 13713 1 149.00000 418.400000
11613 747 14258 1 149.00000 418.400000
11613 748 14995 1 149.00000 418.400000
11614 749 15507 1 149.00000 418.400000
11614 750 14875 1 149.00000 418.400000
11614 751 15385 1 149.00000 418.400000
11614 752 13650 1 149.00000 418.400000
11615 753 12732 1 149.00000 418.400000
11615 754 12715 1 149.00000 418.400000
11615 755 12417 1 149.00000 418.400000
11615 756 12154 1 149.00000 418.400000
11616 757 12654 1 149.00000 418.400000
11616 758 11716 1 149.00000 418.400000
11616 759 13043 1 149.00000 418.400000
11596 760 11616 1 149.00000 418.400000
11617 761 13174 1 149.00000 418.400000
11617 762 13139 1 149.00000 418.400000
11617 763 15103 1 149.00000 418.400000
11617 764 15851 1 149.00000 418.400000
11618 765 14009 1 149.00000 418.400000
11618 766 14616 1 149.00000 418.400000
11618 767 14112 1 149.00000 418.400000
11618 768 14806 1 149.00000 418.400000
11619 769 12155 1 149.00000 418.400000
11500 770 11619 1 149.00000 418.400000
11619 771 14244 1 149.00000 418.400000
11619 772 14787 1 149.00000 418.400000
11620 773 13682 1 149.00000 418.400000
11620 774 15384 1 149.00000 418.400000
11620 775 20179 1 149.00000 418.400000
11621 776 16078 1 149.00000 418.400000
11621 777 13928 1 149.00000 418.400000
13928 778 14528 1 149.00000 418.400000
11622 779 17568 1 149.00000 418.400000
11622 780 13937 1 149.00000 418.400000
11622 781 12590 1 149.00000 418.400000
11622 782 16483 1 149.00000 418.400000
11623 783 20407 1 149.00000 418.400000
11623 784 12390 1 149.00000 418.400000
11623 785 20845 1 149.00000 418.400000
11624 786 14508 1 149.00000 418.400000
11624 787 13350 1 149.00000 418.400000
11624 788 14390 1 149.00000 418.400000
11624 789 16134 1 149.00000 418.400000
11625 790 16425 1 149.00000 418.400000
11625 791 16243 1 149.00000 418.400000
11625 792 15703 1 149.00000 418.400000
14583 793 20551 1 149.00000 418.400000
11626 794 15517 1 149.00000 418.400000
11626 795 16044 1 149.00000 418.400000
11626 796 12701 1 149.00000 418.400000
11627 797 12780 1 149.00000 418.400000
11627 798 14209 1 149.00000 418.400000
11627 799 20272 1 149.00000 418.400000
11628 800 13152 1 149.00000 418.400000
11628 801 12352 1 149.00000 418.400000
11629 802 15794 1 149.00000 418.400000
11629 803 15352 1 149.00000 418.400000
11629 804 12940 1 149.00000 418.400000
11629 805 13765 1 149.00000 418.400000
11630 806 11982 1 149.00000 418.400000
11630 807 16282 1 149.00000 418.400000
11630 808 13305 1 149.00000 418.400000
11982 809 14140 1 149.00000 418.400000
14912 810 15912 1 149.00000 418.400000
11876 811 15912 1 149.00000 418.400000
15912 812 16329 1 149.00000 418.400000
11631 813 15912 1 149.00000 418.400000
11632 814 15547 1 149.00000 418.400000
11632 815 13425 1 149.00000 418.400000
11632 816 13997 1 149.00000 418.400000
11632 817 16440 1 149.00000 418.400000
11633 818 13291 1 149.00000 418.400000
11633 819 16229 1 149.00000 418.400000
11633 820 14949 1 149.00000 418.400000
11633 821 15322 1 149.00000 418.400000
11634 822 12448 1 149.00000 418.400000
11634 823 13633 1 149.00000 418.400000
11634 824 16524 1 149.00000 418.400000
11635 825 16492 1 149.00000 418.400000
16039 826 16492 1 149.00000 418.400000
11635 827 15508 1 149.00000 418.400000
11635 828 12173 1 149.00000 418.400000
11636 829 15177 1 149.00000 418.400000
11636 830 14364 1 149.00000 418.400000
11636 831 14608 1 149.00000 418.400000
11636 832 14248 1 149.00000 418.400000
11637 833 16292 1 149.00000 418.400000
11637 834 16244 1 149.00000 418.400000
11637 835 15802 1 149.00000 418.400000
11637 836 16022 1 149.00000 418.400000
18070 837 18790 1 149.00000 418.400000
13435 838 18070 1 149.00000 418.400000
15863 839 18070 1 149.00000 418.400000
11638 840 18562 1 149.00000 418.400000
11639 841 12808 1 149.00000 418.400000
11639 842 16334 1 149.00000 418.400000
11631 843 11639 1 149.00000 418.400000
11639 844 14829 1 149.00000 418.400000
12050 845 20359 1 149.00000 418.400000
11640 846 14818 1 149.00000 418.400000
11640 847 12132 1 149.00000 418.400000
11640 848 12930 1 149.00000 418.400000
11641 849 14420 1 149.00000 418.400000
11595 850 13245 1 149.00000 418.400000
11641 851 15447 1 149.00000 418.400000
11642 852 16103 1 149.00000 418.400000
11642 853 20647 1 149.00000 418.400000
11642 854 11990 1 149.00000 418.400000
11642 855 12428 1 149.00000 418.400000
11643 856 11697 1 149.00000 418.400000
11643 857 14585 1 149.00000 418.400000
11643 858 12965 1 149.00000 418.400000
11643 859 15926 1 149.00000 418.400000
11644 860 14939 1 149.00000 418.400000
11644 861 12936 1 149.00000 418.400000
11644 862 16412 1 149.00000 418.400000
11644 863 16461 1 149.00000 418.400000
11645 864 19510 1 149.00000 418.400000
11645 865 11676 1 149.00000 418.400000
11676 866 15233 1 149.00000 418.400000
11645 867 16581 1 149.00000 418.400000
11646 868 13629 1 149.00000 418.400000
11646 869 11691 1 149.00000 418.400000
11646 870 13356 1 149.00000 418.400000
11647 871 12965 1 149.00000 418.400000
11647 872 13763 1 149.00000 418.400000
11647 873 15382 1 149.00000 418.400000
11647 874 15817 1 149.00000 418.400000
11648 875 12152 1 149.00000 418.400000
11648 876 12236 1 149.00000 418.400000
11648 877 15641 1 149.00000 418.400000
11648 878 13247 1 149.00000 418.400000
11649 879 16146 1 149.00000 418.400000
11649 880 15436 1 149.00000 418.400000
11649 881 14660 1 149.00000 418.400000
11649 882 12530 1 149.00000 418.400000
11650 883 13575 1 149.00000 418.400000
11650 884 15514 1 149.00000 418.400000
11650 885 15361 1 149.00000 418.400000
11650 886 14612 1 149.00000 418.400000
11651 887 14137 1 149.00000 418.400000
11651 888 14512 1 149.00000 418.400000
11651 889 12811 1 149.00000 418.400000
11652 890 14680 1 149.00000 418.400000
11652 891 13730 1 149.00000 418.400000
11652 892 16266 1 149.00000 418.400000
11652 893 12693 1 149.00000 418.400000
11653 894 11742 1 149.00000 418.400000
12135 895 12551 1 149.00000 418.400000
11742 896 20650 1 149.00000 418.400000
12551 897 14989 1 149.00000 418.400000
11654 898 14170 1 149.00000 418.400000
11654 899 13864 1 149.00000 418.400000
11654 900 12298 1 149.00000 418.400000
11654 901 16121 1 149.00000 418.400000
12254 902 12996 1 149.00000 418.400000
12400 903 12996 1 149.00000 418.400000
11655 904 12996 1 149.00000 418.400000
12996 905 14795 1 149.00000 418.400000
12226 906 14543 1 149.00000 418.400000
11656 907 15586 1 149.00000 418.400000
11656 908 15440 1 149.00000 418.400000
11656 909 14543 1 149.00000 418.400000
11657 910 15545 1 149.00000 418.400000
11657 911 12189 1 149.00000 418.400000
11657 912 16308 1 149.00000 418.400000
11657 913 16202 1 149.00000 418.400000
11658 914 15708 1 149.00000 418.400000
11658 915 13399 1 149.00000 418.400000
11658 916 15451 1 149.00000 418.400000
11658 917 14754 1 149.00000 418.400000
11659 918 12272 1 149.00000 418.400000
11659 919 16161 1 149.00000 418.400000
11659 920 16499 1 149.00000 418.400000
11660 921 15433 1 149.00000 418.400000
11660 922 14084 1 149.00000 418.400000
11660 923 13090 1 149.00000 418.400000
11660 924 11943 1 149.00000 418.400000
11661 925 11670 1 149.00000 418.400000
11661 926 13965 1 149.00000 418.400000
11661 927 12008 1 149.00000 418.400000
11661 928 16369 1 149.00000 418.400000
11662 929 15849 1 149.00000 418.400000
11662 930 15196 1 149.00000 418.400000
11662 931 13829 1 149.00000 418.400000
11662 932 15583 1 149.00000 418.400000
11663 933 13864 1 149.00000 418.400000
11663 934 16436 1 149.00000 418.400000
11663 935 13448 1 149.00000 418.400000
11663 936 14906 1 149.00000 418.400000
11664 937 15752 1 149.00000 418.400000
11664 938 16227 1 149.00000 418.400000
11664 939 13232 1 149.00000 418.400000
11664 940 19174 1 149.00000 418.400000
11665 941 11724 1 149.00000 418.400000
11665 942 15925 1 149.00000 418.400000
11665 943 20200 1 149.00000 418.400000
11665 944 14735 1 149.00000 418.400000
11666 945 15597 1 149.00000 418.400000
11666 946 11847 1 149.00000 418.400000
11666 947 16534 1 149.00000 418.400000
11666 948 16687 1 149.00000 418.400000
11761 949 14893 1 149.00000 418.400000
11667 950 12454 1 149.00000 418.400000
11667 951 14893 1 149.00000 418.400000
11667 952 13774 1 149.00000 418.400000
11668 953 11685 1 149.00000 418.400000
11668 954 13621 1 149.00000 418.400000
11668 955 12797 1 149.00000 418.400000
11668 956 15451 1 149.00000 418.400000
11669 957 11737 1 149.00000 418.400000
11669 958 12474 1 149.00000 418.400000
11737 959 13556 1 149.00000 418.400000
12474 960 12826 1 149.00000 418.400000
11670 961 15626 1 149.00000 418.400000
11670 962 14730 1 149.00000 418.400000
11670 963 14627 1 149.00000 418.400000
16228 964 18082 1 149.00000 418.400000
13373 965 18082 1 149.00000 418.400000
11671 966 12965 1 149.00000 418.400000
11671 967 14280 1 149.00000 418.400000
11671 968 14758 1 149.00000 418.400000
11671 969 16406 1 149.00000 418.400000
11672 970 15903 1 149.00000 418.400000
11672 971 11981 1 149.00000 418.400000
11672 972 12348 1 149.00000 418.400000
11672 973 11883 1 149.00000 418.400000
11673 974 14794 1 149.00000 418.400000
11673 975 14173 1 149.00000 418.400000
11673 976 16014 1 149.00000 418.400000
11673 977 14784 1 149.00000 418.400000
11674 978 16411 1 149.00000 418.400000
11674 979 15387 1 149.00000 418.400000
11674 980 19474 1 149.00000 418.400000
11675 981 15005 1 149.00000 418.400000
12174 982 15005 1 149.00000 418.400000
11675 983 12335 1 149.00000 418.400000
11675 984 11800 1 149.00000 418.400000
12002 985 18016 1 149.00000 418.400000
11645 986 18526 1 149.00000 418.400000
11676 987 12908 1 149.00000 418.400000
11676 988 15784 1 149.00000 418.400000
11677 989 16487 1 149.00000 418.400000
11677 990 16675 1 149.00000 418.400000
11677 991 15409 1 149.00000 418.400000
11677 992 11716 1 149.00000 418.400000
11678 993 13461 1 149.00000 418.400000
11678 994 16506 1 149.00000 418.400000
11678 995 11859 1 149.00000 418.400000
11679 996 16616 1 149.00000 418.400000
11679 997 16468 1 149.00000 418.400000
11679 998 16143 1 149.00000 418.400000
11679 999 12658 1 149.00000 418.400000
11680 1000 13323 1 149.00000 418.400000
11680 1001 16555 1 149.00000 418.400000
11680 1002 16239 1 149.00000 418.400000
11680 1003 15453 1 149.00000 418.400000
11681 1004 12459 1 149.00000 418.400000
11681 1005 12152 1 149.00000 418.400000
11681 1006 14990 1 149.00000 418.400000
11681 1007 14338 1 149.00000 418.400000
11682 1008 11715 1 149.00000 418.400000
11682 1009 15395 1 149.00000 418.400000
15065 1010 15406 1 149.00000 418.400000
11682 1011 15065 1 149.00000 418.400000
11683 1012 14730 1 149.00000 418.400000
11683 1013 15761 1 149.00000 418.400000
11683 1014 16369 1 149.00000 418.400000
11683 1015 12681 1 149.00000 418.400000
11684 1016 11992 1 149.00000 418.400000
11684 1017 16019 1 149.00000 418.400000
11684 1018 14133 1 149.00000 418.400000
11684 1019 12542 1 149.00000 418.400000
11685 1020 13321 1 149.00000 418.400000
11685 1021 15437 1 149.00000 418.400000
11685 1022 12086 1 149.00000 418.400000
11686 1023 15816 1 149.00000 418.400000
11686 1024 16210 1 149.00000 418.400000
11686 1025 13300 1 149.00000 418.400000
11686 1026 16365 1 149.00000 418.400000
11687 1027 12204 1 149.00000 418.400000
11687 1028 12312 1 149.00000 418.400000
11687 1029 15587 1 149.00000 418.400000
11655 1030 11688 1 149.00000 418.400000
11688 1031 15918 1 149.00000 418.400000
11688 1032 14779 1 149.00000 418.400000
11688 1033 15456 1 149.00000 418.400000
11689 1034 16812 1 149.00000 418.400000
11689 1035 14270 1 149.00000 418.400000
11882 1036 15358 1 149.00000 418.400000
15358 1037 20686 1 149.00000 418.400000
13204 1038 15358 1 149.00000 418.400000
11690 1039 15358 1 149.00000 418.400000
11691 1040 15511 1 149.00000 418.400000
11691 1041 15282 1 149.00000 418.400000
11691 1042 11692 1 149.00000 418.400000
11692 1043 14833 1 149.00000 418.400000
11692 1044 18154 1 149.00000 418.400000
11693 1045 15376 1 149.00000 418.400000
11693 1046 15900 1 149.00000 418.400000
11693 1047 11766 1 149.00000 418.400000
11693 1048 15447 1 149.00000 418.400000
11694 1049 15229 1 149.00000 418.400000
11694 1050 15773 1 149.00000 418.400000
11694 1051 14749 1 149.00000 418.400000
11695 1052 11843 1 149.00000 418.400000
11695 1053 15679 1 149.00000 418.400000
11695 1054 15389 1 149.00000 418.400000
11695 1055 12682 1 149.00000 418.400000
11696 1056 11902 1 149.00000 418.400000
11696 1057 16027 1 149.00000 418.400000
11696 1058 14506 1 149.00000 418.400000
11696 1059 15432 1 149.00000 418.400000
11697 1060 15823 1 149.00000 418.400000
11697 1061 15563 1 149.00000 418.400000
13012 1062 15823 1 149.00000 418.400000
13353 1063 13573 1 149.00000 418.400000
11698 1064 13353 1 149.00000 418.400000
13353 1065 14928 1 149.00000 418.400000
11699 1066 13845 1 149.00000 418.400000
11699 1067 14695 1 149.00000 418.400000
11699 1068 14721 1 149.00000 418.400000
11699 1069 12475 1 149.00000 418.400000
11700 1070 15998 1 149.00000 418.400000
11700 1071 16574 1 149.00000 418.400000
11700 1072 15121 1 149.00000 418.400000
11701 1073 11882 1 149.00000 418.400000
11701 1074 16683 1 149.00000 418.400000
11701 1075 20539 1 149.00000 418.400000
11701 1076 14866 1 149.00000 418.400000
11702 1077 13700 1 149.00000 418.400000
11702 1078 13981 1 149.00000 418.400000
11702 1079 16540 1 149.00000 418.400000
11702 1080 15317 1 149.00000 418.400000
11703 1081 15852 1 149.00000 418.400000
11703 1082 12756 1 149.00000 418.400000
11703 1083 16614 1 149.00000 418.400000
11703 1084 14597 1 149.00000 418.400000
11704 1085 13520 1 149.00000 418.400000
11704 1086 12582 1 149.00000 418.400000
11704 1087 14184 1 149.00000 418.400000
11704 1088 13181 1 149.00000 418.400000
11705 1089 14224 1 149.00000 418.400000
11705 1090 14854 1 149.00000 418.400000
11705 1091 13238 1 149.00000 418.400000
11705 1092 16287 1 149.00000 418.400000
11706 1093 13213 1 149.00000 418.400000
11706 1094 14342 1 149.00000 418.400000
11706 1095 16347 1 149.00000 418.400000
11707 1096 14365 1 149.00000 418.400000
11707 1097 13336 1 149.00000 418.400000
11707 1098 14422 1 149.00000 418.400000
11707 1099 12840 1 149.00000 418.400000
11708 1100 13192 1 149.00000 418.400000
11708 1101 13230 1 149.00000 418.400000
11708 1102 15228 1 149.00000 418.400000
11708 1103 16539 1 149.00000 418.400000
11709 1104 16050 1 149.00000 418.400000
11709 1105 14993 1 149.00000 418.400000
11709 1106 16650 1 149.00000 418.400000
11710 1107 12272 1 149.00000 418.400000
12272 1108 16477 1 149.00000 418.400000
12272 1109 13401 1 149.00000 418.400000
11711 1110 20035 1 149.00000 418.400000
11711 1111 13539 1 149.00000 418.400000
11711 1112 20791 1 149.00000 418.400000
11712 1113 16448 1 149.00000 418.400000
14606 1114 16448 1 149.00000 418.400000
11712 1115 15438 1 149.00000 418.400000
11712 1116 11840 1 149.00000 418.400000
11713 1117 13878 1 149.00000 418.400000
11713 1118 12435 1 149.00000 418.400000
11713 1119 15696 1 149.00000 418.400000
11713 1120 20800 1 149.00000 418.400000
11714 1121 13239 1 149.00000 418.400000
11714 1122 15795 1 149.00000 418.400000
11714 1123 18442 1 149.00000 418.400000
11714 1124 15308 1 149.00000 418.400000
11715 1125 16066 1 149.00000 418.400000
11715 1126 15600 1 149.00000 418.400000
11715 1127 16332 1 149.00000 418.400000
11716 1128 12063 1 149.00000 418.400000
11716 1129 12984 1 149.00000 418.400000
11717 1130 15591 1 149.00000 418.400000
11559 1131 15204 1 149.00000 418.400000
11717 1132 15248 1 149.00000 418.400000
11718 1133 14019 1 149.00000 418.400000
11718 1134 12472 1 149.00000 418.400000
11718 1135 14067 1 149.00000 418.400000
11718 1136 13978 1 149.00000 418.400000
15911 1137 20212 1 149.00000 418.400000
11719 1138 15459 1 149.00000 418.400000
11719 1139 12865 1 149.00000 418.400000
11719 1140 15521 1 149.00000 418.400000
11719 1141 11907 1 149.00000 418.400000
11720 1142 12215 1 149.00000 418.400000
11720 1143 11735 1 149.00000 418.400000
11720 1144 13335 1 149.00000 418.400000
11720 1145 13590 1 149.00000 418.400000
11721 1146 16491 1 149.00000 418.400000
11721 1147 12966 1 149.00000 418.400000
11721 1148 19606 1 149.00000 418.400000
11721 1149 15979 1 149.00000 418.400000
11722 1150 13672 1 149.00000 418.400000
13672 1151 14136 1 149.00000 418.400000
11722 1152 12472 1 149.00000 418.400000
11723 1153 16599 1 149.00000 418.400000
11723 1154 13157 1 149.00000 418.400000
11723 1155 14847 1 149.00000 418.400000
11723 1156 15080 1 149.00000 418.400000
11724 1157 16196 1 149.00000 418.400000
11724 1158 12046 1 149.00000 418.400000
11724 1159 14962 1 149.00000 418.400000
13170 1160 15732 1 149.00000 418.400000
11725 1161 12154 1 149.00000 418.400000
11725 1162 13170 1 149.00000 418.400000
13170 1163 13497 1 149.00000 418.400000
11726 1164 14393 1 149.00000 418.400000
11726 1165 16393 1 149.00000 418.400000
11726 1166 13702 1 149.00000 418.400000
11726 1167 14062 1 149.00000 418.400000
11727 1168 16497 1 149.00000 418.400000
11727 1169 15147 1 149.00000 418.400000
11727 1170 12554 1 149.00000 418.400000
11727 1171 20026 1 149.00000 418.400000
11728 1172 14021 1 149.00000 418.400000
11728 1173 15011 1 149.00000 418.400000
11728 1174 12939 1 149.00000 418.400000
11728 1175 14224 1 149.00000 418.400000
11729 1176 15990 1 149.00000 418.400000
11729 1177 14457 1 149.00000 418.400000
11729 1178 16005 1 149.00000 418.400000
11730 1179 16118 1 149.00000 418.400000
11730 1180 17484 1 149.00000 418.400000
11731 1181 15295 1 149.00000 418.400000
11731 1182 14458 1 149.00000 418.400000
11731 1183 16112 1 149.00000 418.400000
11731 1184 15518 1 149.00000 418.400000
11732 1185 13899 1 149.00000 418.400000
11732 1186 12202 1 149.00000 418.400000
11732 1187 11851 1 149.00000 418.400000
11732 1188 16470 1 149.00000 418.400000
11733 1189 13144 1 149.00000 418.400000
11733 1190 16385 1 149.00000 418.400000
11733 1191 14664 1 149.00000 418.400000
13144 1192 14484 1 149.00000 418.400000
11734 1193 14084 1 149.00000 418.400000
11734 1194 13917 1 149.00000 418.400000
11734 1195 12000 1 149.00000 418.400000
11734 1196 12945 1 149.00000 418.400000
11466 1197 11735 1 149.00000 418.400000
11735 1198 16182 1 149.00000 418.400000
13673 1199 14914 1 149.00000 418.400000
11736 1200 14416 1 149.00000 418.400000
11736 1201 13673 1 149.00000 418.400000
11736 1202 14942 1 149.00000 418.400000
11669 1203 12667 1 149.00000 418.400000
11737 1204 12914 1 149.00000 418.400000
11737 1205 12897 1 149.00000 418.400000
11738 1206 12216 1 149.00000 418.400000
11738 1207 16868 1 149.00000 418.400000
11739 1208 15110 1 149.00000 418.400000
11739 1209 13937 1 149.00000 418.400000
11739 1210 13622 1 149.00000 418.400000
11740 1211 14066 1 149.00000 418.400000
11488 1212 11740 1 149.00000 418.400000
11740 1213 15418 1 149.00000 418.400000
11740 1214 12583 1 149.00000 418.400000
11741 1215 16356 1 149.00000 418.400000
11741 1216 12210 1 149.00000 418.400000
11741 1217 14895 1 149.00000 418.400000
11741 1218 11796 1 149.00000 418.400000
11742 1219 14565 1 149.00000 418.400000
11653 1220 15724 1 149.00000 418.400000
11742 1221 16064 1 149.00000 418.400000
11743 1222 20668 1 149.00000 418.400000
11743 1223 12607 1 149.00000 418.400000
11743 1224 20806 1 149.00000 418.400000
11744 1225 11767 1 149.00000 418.400000
11744 1226 15248 1 149.00000 418.400000
11744 1227 16368 1 149.00000 418.400000
11744 1228 13163 1 149.00000 418.400000
11745 1229 13949 1 149.00000 418.400000
11745 1230 16338 1 149.00000 418.400000
11745 1231 20938 1 149.00000 418.400000
11745 1232 13240 1 149.00000 418.400000
11746 1233 14947 1 149.00000 418.400000
11746 1234 15403 1 149.00000 418.400000
11746 1235 13325 1 149.00000 418.400000
11746 1236 14845 1 149.00000 418.400000
11747 1237 20401 1 149.00000 418.400000
11747 1238 15738 1 149.00000 418.400000
11747 1239 13750 1 149.00000 418.400000
11748 1240 14678 1 149.00000 418.400000
11748 1241 13617 1 149.00000 418.400000
11748 1242 12927 1 149.00000 418.400000
11749 1243 15202 1 149.00000 418.400000
11749 1244 15772 1 149.00000 418.400000
11749 1245 16134 1 149.00000 418.400000
11750 1246 14003 1 149.00000 418.400000
11750 1247 11928 1 149.00000 418.400000
11750 1248 15350 1 149.00000 418.400000
11750 1249 14216 1 149.00000 418.400000
11751 1250 15717 1 149.00000 418.400000
11751 1251 13022 1 149.00000 418.400000
11751 1252 12577 1 149.00000 418.400000
11751 1253 14392 1 149.00000 418.400000
11752 1254 14343 1 149.00000 418.400000
11752 1255 14143 1 149.00000 418.400000
11752 1256 11809 1 149.00000 418.400000
11752 1257 16300 1 149.00000 418.400000
11897 1258 12918 1 149.00000 418.400000
11753 1259 17764 1 149.00000 418.400000
11753 1260 20785 1 149.00000 418.400000
11753 1261 13315 1 149.00000 418.400000
11753 1262 16575 1 149.00000 418.400000
11754 1263 16630 1 149.00000 418.400000
11754 1264 15638 1 149.00000 418.400000
11754 1265 12467 1 149.00000 418.400000
11755 1266 13745 1 149.00000 418.400000
11755 1267 15478 1 149.00000 418.400000
11755 1268 13860 1 149.00000 418.400000
11755 1269 20272 1 149.00000 418.400000
11756 1270 14648 1 149.00000 418.400000
11756 1271 16686 1 149.00000 418.400000
11756 1272 14038 1 149.00000 418.400000
11756 1273 12545 1 149.00000 418.400000
11757 1274 16412 1 149.00000 418.400000
11757 1275 13260 1 149.00000 418.400000
11757 1276 13874 1 149.00000 418.400000
11757 1277 13258 1 149.00000 418.400000
11758 1278 12577 1 149.00000 418.400000
11758 1279 12285 1 149.00000 418.400000
11758 1280 14296 1 149.00000 418.400000
11758 1281 15720 1 149.00000 418.400000
11759 1282 14924 1 149.00000 418.400000
11759 1283 15051 1 149.00000 418.400000
12371 1284 16525 1 149.00000 418.400000
11759 1285 16525 1 149.00000 418.400000
11760 1286 15006 1 149.00000 418.400000
15006 1287 16562 1 149.00000 418.400000
11760 1288 19114 1 149.00000 418.400000
11761 1289 13453 1 149.00000 418.400000
11761 1290 14954 1 149.00000 418.400000
11761 1291 20023 1 149.00000 418.400000
11762 1292 15742 1 149.00000 418.400000
11762 1293 16133 1 149.00000 418.400000
11762 1294 15985 1 149.00000 418.400000
11762 1295 16530 1 149.00000 418.400000
11763 1296 15640 1 149.00000 418.400000
11763 1297 15179 1 149.00000 418.400000
11763 1298 12139 1 149.00000 418.400000
11764 1299 11893 1 149.00000 418.400000
11764 1300 16098 1 149.00000 418.400000
11764 1301 12336 1 149.00000 418.400000
11764 1302 12823 1 149.00000 418.400000
11765 1303 15281 1 149.00000 418.400000
14416 1304 16156 1 149.00000 418.400000
11765 1305 14416 1 149.00000 418.400000
11765 1306 16053 1 149.00000 418.400000
11766 1307 14775 1 149.00000 418.400000
11766 1308 11830 1 149.00000 418.400000
11766 1309 12929 1 149.00000 418.400000
11767 1310 16200 1 149.00000 418.400000
11767 1311 14536 1 149.00000 418.400000
11690 1312 11767 1 149.00000 418.400000
11768 1313 12140 1 149.00000 418.400000
11768 1314 16448 1 149.00000 418.400000
11768 1315 13480 1 149.00000 418.400000
11768 1316 12280 1 149.00000 418.400000
11769 1317 12948 1 149.00000 418.400000
11769 1318 14697 1 149.00000 418.400000
11769 1319 16368 1 149.00000 418.400000
11769 1320 14536 1 149.00000 418.400000
11770 1321 14648 1 149.00000 418.400000
11770 1322 14665 1 149.00000 418.400000
11770 1323 16194 1 149.00000 418.400000
11770 1324 12106 1 149.00000 418.400000
11771 1325 12128 1 149.00000 418.400000
11771 1326 14860 1 149.00000 418.400000
11771 1327 17750 1 149.00000 418.400000
11771 1328 14440 1 149.00000 418.400000
11772 1329 19354 1 149.00000 418.400000
19354 1330 20461 1 149.00000 418.400000
11772 1331 12569 1 149.00000 418.400000
11773 1332 15566 1 149.00000 418.400000
11773 1333 15292 1 149.00000 418.400000
11773 1334 14489 1 149.00000 418.400000
11773 1335 13860 1 149.00000 418.400000
11774 1336 14155 1 149.00000 418.400000
11774 1337 15634 1 149.00000 418.400000
11774 1338 12662 1 149.00000 418.400000
11774 1339 14381 1 149.00000 418.400000
11775 1340 15921 1 149.00000 418.400000
11775 1341 13760 1 149.00000 418.400000
11775 1342 16194 1 149.00000 418.400000
11776 1343 11965 1 149.00000 418.400000
11776 1344 11869 1 149.00000 418.400000
11777 1345 12536 1 149.00000 418.400000
11777 1346 11998 1 149.00000 418.400000
11777 1347 14429 1 149.00000 418.400000
11777 1348 16414 1 149.00000 418.400000
13651 1349 15797 1 149.00000 418.400000
13651 1350 15504 1 149.00000 418.400000
11778 1351 13651 1 149.00000 418.400000
15396 1352 15504 1 149.00000 418.400000
11779 1353 14234 1 149.00000 418.400000
15246 1354 15338 1 149.00000 418.400000
11779 1355 16392 1 149.00000 418.400000
11779 1356 15246 1 149.00000 418.400000
12322 1357 15992 1 149.00000 418.400000
11780 1358 15503 1 149.00000 418.400000
12322 1359 14575 1 149.00000 418.400000
11780 1360 12322 1 149.00000 418.400000
11781 1361 16436 1 149.00000 418.400000
11781 1362 15978 1 149.00000 418.400000
11781 1363 13912 1 149.00000 418.400000
11781 1364 11942 1 149.00000 418.400000
11782 1365 14154 1 149.00000 418.400000
11782 1366 12290 1 149.00000 418.400000
11782 1367 15111 1 149.00000 418.400000
11782 1368 13794 1 149.00000 418.400000
11783 1369 13216 1 149.00000 418.400000
11783 1370 14883 1 149.00000 418.400000
11783 1371 14210 1 149.00000 418.400000
11783 1372 11971 1 149.00000 418.400000
11784 1373 12255 1 149.00000 418.400000
11784 1374 13765 1 149.00000 418.400000
11784 1375 15427 1 149.00000 418.400000
11785 1376 12959 1 149.00000 418.400000
11785 1377 15732 1 149.00000 418.400000
11785 1378 14485 1 149.00000 418.400000
11785 1379 12573 1 149.00000 418.400000
11786 1380 14745 1 149.00000 418.400000
11786 1381 12048 1 149.00000 418.400000
11786 1382 17680 1 149.00000 418.400000
11787 1383 15107 1 149.00000 418.400000
11787 1384 16335 1 149.00000 418.400000
11787 1385 15700 1 149.00000 418.400000
11787 1386 14881 1 149.00000 418.400000
11788 1387 19318 1 149.00000 418.400000
11788 1388 14793 1 149.00000 418.400000
11788 1389 15870 1 149.00000 418.400000
11789 1390 15232 1 149.00000 418.400000
11789 1391 13479 1 149.00000 418.400000
11789 1392 13370 1 149.00000 418.400000
11789 1393 12733 1 149.00000 418.400000
11790 1394 15337 1 149.00000 418.400000
11790 1395 13737 1 149.00000 418.400000
11790 1396 12454 1 149.00000 418.400000
11790 1397 14954 1 149.00000 418.400000
11791 1398 14266 1 149.00000 418.400000
11791 1399 13071 1 149.00000 418.400000
11791 1400 14593 1 149.00000 418.400000
11791 1401 13785 1 149.00000 418.400000
11792 1402 15125 1 149.00000 418.400000
14170 1403 16153 1 149.00000 418.400000
11792 1404 13767 1 149.00000 418.400000
11792 1405 14170 1 149.00000 418.400000
11793 1406 12359 1 149.00000 418.400000
11793 1407 20797 1 149.00000 418.400000
11793 1408 15525 1 149.00000 418.400000
12339 1409 15203 1 149.00000 418.400000
11794 1410 15203 1 149.00000 418.400000
11794 1411 15813 1 149.00000 418.400000
11794 1412 15334 1 149.00000 418.400000
11795 1413 14762 1 149.00000 418.400000
11795 1414 19246 1 149.00000 418.400000
11796 1415 16441 1 149.00000 418.400000
11796 1416 11937 1 149.00000 418.400000
11796 1417 14849 1 149.00000 418.400000
11797 1418 15464 1 149.00000 418.400000
11797 1419 16031 1 149.00000 418.400000
11797 1420 13301 1 149.00000 418.400000
11797 1421 13322 1 149.00000 418.400000
11798 1422 13770 1 149.00000 418.400000
11798 1423 12525 1 149.00000 418.400000
11798 1424 12794 1 149.00000 418.400000
11798 1425 15637 1 149.00000 418.400000
11799 1426 13034 1 149.00000 418.400000
11799 1427 13026 1 149.00000 418.400000
11799 1428 16653 1 149.00000 418.400000
11799 1429 14676 1 149.00000 418.400000
11800 1430 15266 1 149.00000 418.400000
11800 1431 14229 1 149.00000 418.400000
11800 1432 15277 1 149.00000 418.400000
11801 1433 13362 1 149.00000 418.400000
11801 1434 12148 1 149.00000 418.400000
11801 1435 15394 1 149.00000 418.400000
11802 1436 15964 1 149.00000 418.400000
11802 1437 13828 1 149.00000 418.400000
11802 1438 15768 1 149.00000 418.400000
11802 1439 12383 1 149.00000 418.400000
11803 1440 14019 1 149.00000 418.400000
11803 1441 15112 1 149.00000 418.400000
11803 1442 16403 1 149.00000 418.400000
11804 1443 15985 1 149.00000 418.400000
11804 1444 20758 1 149.00000 418.400000
11805 1445 14490 1 149.00000 418.400000
11805 1446 16437 1 149.00000 418.400000
11805 1447 16690 1 149.00000 418.400000
11805 1448 13045 1 149.00000 418.400000
11806 1449 16531 1 149.00000 418.400000
11806 1450 13415 1 149.00000 418.400000
11807 1451 12810 1 149.00000 418.400000
11807 1452 15974 1 149.00000 418.400000
11807 1453 14686 1 149.00000 418.400000
11808 1454 14571 1 149.00000 418.400000
11808 1455 20020 1 149.00000 418.400000
11808 1456 15634 1 149.00000 418.400000
11809 1457 13904 1 149.00000 418.400000
11809 1458 16500 1 149.00000 418.400000
11809 1459 16414 1 149.00000 418.400000
12626 1460 15335 1 149.00000 418.400000
11810 1461 15079 1 149.00000 418.400000
11810 1462 15970 1 149.00000 418.400000
14017 1463 15216 1 149.00000 418.400000
11811 1464 14765 1 149.00000 418.400000
11811 1465 14406 1 149.00000 418.400000
11811 1466 14442 1 149.00000 418.400000
11811 1467 15220 1 149.00000 418.400000
12232 1468 16196 1 149.00000 418.400000
12579 1469 14299 1 149.00000 418.400000
11812 1470 12232 1 149.00000 418.400000
11812 1471 12579 1 149.00000 418.400000
11813 1472 12383 1 149.00000 418.400000
11813 1473 13480 1 149.00000 418.400000
11813 1474 12754 1 149.00000 418.400000
11813 1475 13256 1 149.00000 418.400000
11814 1476 13718 1 149.00000 418.400000
11814 1477 14541 1 149.00000 418.400000
11815 1478 15128 1 149.00000 418.400000
11815 1479 16006 1 149.00000 418.400000
11815 1480 15371 1 149.00000 418.400000
11815 1481 17288 1 149.00000 418.400000
11816 1482 14346 1 149.00000 418.400000
11816 1483 15591 1 149.00000 418.400000
11816 1484 12281 1 149.00000 418.400000
11816 1485 15994 1 149.00000 418.400000
11817 1486 14298 1 149.00000 418.400000
11817 1487 15570 1 149.00000 418.400000
11817 1488 16108 1 149.00000 418.400000
11817 1489 15116 1 149.00000 418.400000
11818 1490 13647 1 149.00000 418.400000
11818 1491 13946 1 149.00000 418.400000
11818 1492 12327 1 149.00000 418.400000
11818 1493 14990 1 149.00000 418.400000
11819 1494 12199 1 149.00000 418.400000
11819 1495 20002 1 149.00000 418.400000
11819 1496 13077 1 149.00000 418.400000
11819 1497 12921 1 149.00000 418.400000
11820 1498 15891 1 149.00000 418.400000
12427 1499 13793 1 149.00000 418.400000
11820 1500 12427 1 149.00000 418.400000
11820 1501 12036 1 149.00000 418.400000
11821 1502 12355 1 149.00000 418.400000
11821 1503 13012 1 149.00000 418.400000
11821 1504 15063 1 149.00000 418.400000
11821 1505 14499 1 149.00000 418.400000
11822 1506 14251 1 149.00000 418.400000
11822 1507 13838 1 149.00000 418.400000
11822 1508 15070 1 149.00000 418.400000
11822 1509 16217 1 149.00000 418.400000
11823 1510 13878 1 149.00000 418.400000
11823 1511 14618 1 149.00000 418.400000
11823 1512 15562 1 149.00000 418.400000
11823 1513 15509 1 149.00000 418.400000
11824 1514 13038 1 149.00000 418.400000
11824 1515 15267 1 149.00000 418.400000
11824 1516 14936 1 149.00000 418.400000
11824 1517 14916 1 149.00000 418.400000
11825 1518 14410 1 149.00000 418.400000
11825 1519 14468 1 149.00000 418.400000
11825 1520 12177 1 149.00000 418.400000
11825 1521 16198 1 149.00000 418.400000
11826 1522 14526 1 149.00000 418.400000
11826 1523 14723 1 149.00000 418.400000
11826 1524 13978 1 149.00000 418.400000
11826 1525 15495 1 149.00000 418.400000
11827 1526 19198 1 149.00000 418.400000
11827 1527 14721 1 149.00000 418.400000
11827 1528 16071 1 149.00000 418.400000
11827 1529 13941 1 149.00000 418.400000
11828 1530 15620 1 149.00000 418.400000
11828 1531 16339 1 149.00000 418.400000
11828 1532 14600 1 149.00000 418.400000
11828 1533 14043 1 149.00000 418.400000
11829 1534 14795 1 149.00000 418.400000
11829 1535 15020 1 149.00000 418.400000
11829 1536 15068 1 149.00000 418.400000
11829 1537 15546 1 149.00000 418.400000
11830 1538 16471 1 149.00000 418.400000
11830 1539 13071 1 149.00000 418.400000
11830 1540 14692 1 149.00000 418.400000
11831 1541 13628 1 149.00000 418.400000
11831 1542 14748 1 149.00000 418.400000
11832 1543 16523 1 149.00000 418.400000
11832 1544 12628 1 149.00000 418.400000
11832 1545 14205 1 149.00000 418.400000
11832 1546 13832 1 149.00000 418.400000
11833 1547 12530 1 149.00000 418.400000
11833 1548 12057 1 149.00000 418.400000
11833 1549 15224 1 149.00000 418.400000
11833 1550 13810 1 149.00000 418.400000
11834 1551 15146 1 149.00000 418.400000
11834 1552 13868 1 149.00000 418.400000
11834 1553 15493 1 149.00000 418.400000
11834 1554 14845 1 149.00000 418.400000
11835 1555 12433 1 149.00000 418.400000
11835 1556 14124 1 149.00000 418.400000
11835 1557 14708 1 149.00000 418.400000
11835 1558 14914 1 149.00000 418.400000
11836 1559 15298 1 149.00000 418.400000
11836 1560 15198 1 149.00000 418.400000
11836 1561 15633 1 149.00000 418.400000
11836 1562 16417 1 149.00000 418.400000
11837 1563 14451 1 149.00000 418.400000
11837 1564 14151 1 149.00000 418.400000
11837 1565 12395 1 149.00000 418.400000
11837 1566 12009 1 149.00000 418.400000
11838 1567 11908 1 149.00000 418.400000
12533 1568 16238 1 149.00000 418.400000
11838 1569 12533 1 149.00000 418.400000
11838 1570 13843 1 149.00000 418.400000
11839 1571 12382 1 149.00000 418.400000
11839 1572 16055 1 149.00000 418.400000
11839 1573 15839 1 149.00000 418.400000
11839 1574 12360 1 149.00000 418.400000
11840 1575 15993 1 149.00000 418.400000
12093 1576 15993 1 149.00000 418.400000
11840 1577 16300 1 149.00000 418.400000
11840 1578 14815 1 149.00000 418.400000
11841 1579 13676 1 149.00000 418.400000
11841 1580 14940 1 149.00000 418.400000
11841 1581 13131 1 149.00000 418.400000
11841 1582 14659 1 149.00000 418.400000
11842 1583 12252 1 149.00000 418.400000
11842 1584 13173 1 149.00000 418.400000
11842 1585 13748 1 149.00000 418.400000
11843 1586 12582 1 149.00000 418.400000
11843 1587 16588 1 149.00000 418.400000
12497 1588 16588 1 149.00000 418.400000
11844 1589 15759 1 149.00000 418.400000
11844 1590 13856 1 149.00000 418.400000
11844 1591 15609 1 149.00000 418.400000
11844 1592 15711 1 149.00000 418.400000
11845 1593 15925 1 149.00000 418.400000
11845 1594 13346 1 149.00000 418.400000
11845 1595 15073 1 149.00000 418.400000
11846 1596 16496 1 149.00000 418.400000
11556 1597 11846 1 149.00000 418.400000
11846 1598 15540 1 149.00000 418.400000
11847 1599 14233 1 149.00000 418.400000
11847 1600 13979 1 149.00000 418.400000
11847 1601 11898 1 149.00000 418.400000
11848 1602 12318 1 149.00000 418.400000
11848 1603 13400 1 149.00000 418.400000
11848 1604 13902 1 149.00000 418.400000
11849 1605 13326 1 149.00000 418.400000
11849 1606 14341 1 149.00000 418.400000
11849 1607 14614 1 149.00000 418.400000
11849 1608 12502 1 149.00000 418.400000
11850 1609 13842 1 149.00000 418.400000
11850 1610 14365 1 149.00000 418.400000
11850 1611 13028 1 149.00000 418.400000
13842 1612 15804 1 149.00000 418.400000
11851 1613 12962 1 149.00000 418.400000
11851 1614 16185 1 149.00000 418.400000
11851 1615 16270 1 149.00000 418.400000
11852 1616 12769 1 149.00000 418.400000
11852 1617 12973 1 149.00000 418.400000
11852 1618 13995 1 149.00000 418.400000
11866 1619 13840 1 149.00000 418.400000
11853 1620 13840 1 149.00000 418.400000
11853 1621 14487 1 149.00000 418.400000
11853 1622 14861 1 149.00000 418.400000
18094 1623 20770 1 149.00000 418.400000
13156 1624 18094 1 149.00000 418.400000
12006 1625 18094 1 149.00000 418.400000
11854 1626 14081 1 149.00000 418.400000
11854 1627 12487 1 149.00000 418.400000
11854 1628 13832 1 149.00000 418.400000
11854 1629 14800 1 149.00000 418.400000
11855 1630 15915 1 149.00000 418.400000
11855 1631 16377 1 149.00000 418.400000
11855 1632 16000 1 149.00000 418.400000
13440 1633 16377 1 149.00000 418.400000
11856 1634 20521 1 149.00000 418.400000
11856 1635 20566 1 149.00000 418.400000
11856 1636 13748 1 149.00000 418.400000
11857 1637 16109 1 149.00000 418.400000
11857 1638 15063 1 149.00000 418.400000
11857 1639 14263 1 149.00000 418.400000
11857 1640 15342 1 149.00000 418.400000
11858 1641 13674 1 149.00000 418.400000
11858 1642 12852 1 149.00000 418.400000
11858 1643 19102 1 149.00000 418.400000
18106 1644 20776 1 149.00000 418.400000
18106 1645 20647 1 149.00000 418.400000
14770 1646 18106 1 149.00000 418.400000
11710 1647 14515 1 149.00000 418.400000
12415 1648 13453 1 149.00000 418.400000
11710 1649 12415 1 149.00000 418.400000
11860 1650 13343 1 149.00000 418.400000
11860 1651 16472 1 149.00000 418.400000
11861 1652 18118 1 149.00000 418.400000
11861 1653 12885 1 149.00000 418.400000
11861 1654 12033 1 149.00000 418.400000
13329 1655 18118 1 149.00000 418.400000
11862 1656 16508 1 149.00000 418.400000
11862 1657 13546 1 149.00000 418.400000
11862 1658 14681 1 149.00000 418.400000
11862 1659 12498 1 149.00000 418.400000
11863 1660 12864 1 149.00000 418.400000
11863 1661 16683 1 149.00000 418.400000
11863 1662 15663 1 149.00000 418.400000
11863 1663 13873 1 149.00000 418.400000
11864 1664 13345 1 149.00000 418.400000
11864 1665 12776 1 149.00000 418.400000
11864 1666 12939 1 149.00000 418.400000
11864 1667 15740 1 149.00000 418.400000
11865 1668 15375 1 149.00000 418.400000
11865 1669 15707 1 149.00000 418.400000
11865 1670 16660 1 149.00000 418.400000
11865 1671 12338 1 149.00000 418.400000
11866 1672 13764 1 149.00000 418.400000
11866 1673 13933 1 149.00000 418.400000
11867 1674 15898 1 149.00000 418.400000
11867 1675 14181 1 149.00000 418.400000
11867 1676 15065 1 149.00000 418.400000
11867 1677 13009 1 149.00000 418.400000
11868 1678 15725 1 149.00000 418.400000
11868 1679 12774 1 149.00000 418.400000
11868 1680 14608 1 149.00000 418.400000
11869 1681 14846 1 149.00000 418.400000
11869 1682 14577 1 149.00000 418.400000
11869 1683 13587 1 149.00000 418.400000
17946 1684 20023 1 149.00000 418.400000
18130 1685 19594 1 149.00000 418.400000
14108 1686 20251 1 149.00000 418.400000
11870 1687 14108 1 149.00000 418.400000
11870 1688 13523 1 149.00000 418.400000
11871 1689 18538 1 149.00000 418.400000
11871 1690 14984 1 149.00000 418.400000
11871 1691 15144 1 149.00000 418.400000
11872 1692 13994 1 149.00000 418.400000
11872 1693 13444 1 149.00000 418.400000
11872 1694 15776 1 149.00000 418.400000
11872 1695 14399 1 149.00000 418.400000
12567 1696 16380 1 149.00000 418.400000
11873 1697 12567 1 149.00000 418.400000
11873 1698 12024 1 149.00000 418.400000
11873 1699 12615 1 149.00000 418.400000
11874 1700 16126 1 149.00000 418.400000
11874 1701 14175 1 149.00000 418.400000
11874 1702 13752 1 149.00000 418.400000
11874 1703 19414 1 149.00000 418.400000
11875 1704 15207 1 149.00000 418.400000
11875 1705 13136 1 149.00000 418.400000
11875 1706 16489 1 149.00000 418.400000
11875 1707 14748 1 149.00000 418.400000
11876 1708 12555 1 149.00000 418.400000
11876 1709 15220 1 149.00000 418.400000
11876 1710 15148 1 149.00000 418.400000
11877 1711 15448 1 149.00000 418.400000
15225 1712 15448 1 149.00000 418.400000
11877 1713 15827 1 149.00000 418.400000
11877 1714 14782 1 149.00000 418.400000
11878 1715 20560 1 149.00000 418.400000
11878 1716 13333 1 149.00000 418.400000
11878 1717 19987 1 149.00000 418.400000
11879 1718 13227 1 149.00000 418.400000
11880 1719 14795 1 149.00000 418.400000
12988 1720 16292 1 149.00000 418.400000
12988 1721 16207 1 149.00000 418.400000
11880 1722 12988 1 149.00000 418.400000
11881 1723 13513 1 149.00000 418.400000
11881 1724 15682 1 149.00000 418.400000
11881 1725 15689 1 149.00000 418.400000
11881 1726 16481 1 149.00000 418.400000
11882 1727 20725 1 149.00000 418.400000
11883 1728 16125 1 149.00000 418.400000
11883 1729 14408 1 149.00000 418.400000
11883 1730 12274 1 149.00000 418.400000
11884 1731 15164 1 149.00000 418.400000
11884 1732 16061 1 149.00000 418.400000
11884 1733 13409 1 149.00000 418.400000
11884 1734 13301 1 149.00000 418.400000
11885 1735 14946 1 149.00000 418.400000
11885 1736 15639 1 149.00000 418.400000
11885 1737 14141 1 149.00000 418.400000
11886 1738 15920 1 149.00000 418.400000
11886 1739 16662 1 149.00000 418.400000
14401 1740 15920 1 149.00000 418.400000
12522 1741 16662 1 149.00000 418.400000
11887 1742 14059 1 149.00000 418.400000
11888 1743 12408 1 149.00000 418.400000
11888 1744 12441 1 149.00000 418.400000
11888 1745 14803 1 149.00000 418.400000
11888 1746 15668 1 149.00000 418.400000
11889 1747 13092 1 149.00000 418.400000
11889 1748 15528 1 149.00000 418.400000
11598 1749 15141 1 149.00000 418.400000
16363 1750 16700 1 149.00000 418.400000
11890 1751 20794 1 149.00000 418.400000
11890 1752 14116 1 149.00000 418.400000
11890 1753 14379 1 149.00000 418.400000
11891 1754 15854 1 149.00000 418.400000
11891 1755 20557 1 149.00000 418.400000
11891 1756 14892 1 149.00000 418.400000
11891 1757 13264 1 149.00000 418.400000
11892 1758 16310 1 149.00000 418.400000
11892 1759 14379 1 149.00000 418.400000
11892 1760 15867 1 149.00000 418.400000
11893 1761 13128 1 149.00000 418.400000
11893 1762 15667 1 149.00000 418.400000
11893 1763 12208 1 149.00000 418.400000
11894 1764 12338 1 149.00000 418.400000
11894 1765 13895 1 149.00000 418.400000
11894 1766 12437 1 149.00000 418.400000
11894 1767 12503 1 149.00000 418.400000
11895 1768 14349 1 149.00000 418.400000
11895 1769 12952 1 149.00000 418.400000
11895 1770 12889 1 149.00000 418.400000
11895 1771 14233 1 149.00000 418.400000
11896 1772 20248 1 149.00000 418.400000
11896 1773 12546 1 149.00000 418.400000
11896 1774 14352 1 149.00000 418.400000
11896 1775 14505 1 149.00000 418.400000
11897 1776 16681 1 149.00000 418.400000
11897 1777 12834 1 149.00000 418.400000
11898 1778 14668 1 149.00000 418.400000
11898 1779 13002 1 149.00000 418.400000
11898 1780 16413 1 149.00000 418.400000
11899 1781 20743 1 149.00000 418.400000
11899 1782 12914 1 149.00000 418.400000
11899 1783 13986 1 149.00000 418.400000
11899 1784 16124 1 149.00000 418.400000
11900 1785 14147 1 149.00000 418.400000
11900 1786 15179 1 149.00000 418.400000
11900 1787 15015 1 149.00000 418.400000
11901 1788 15078 1 149.00000 418.400000
11901 1789 14635 1 149.00000 418.400000
11901 1790 14852 1 149.00000 418.400000
11901 1791 13001 1 149.00000 418.400000
11902 1792 12947 1 149.00000 418.400000
11902 1793 13044 1 149.00000 418.400000
11902 1794 14120 1 149.00000 418.400000
11903 1795 13713 1 149.00000 418.400000
11903 1796 15018 1 149.00000 418.400000
11903 1797 16331 1 149.00000 418.400000
11903 1798 14264 1 149.00000 418.400000
11904 1799 14183 1 149.00000 418.400000
11904 1800 13392 1 149.00000 418.400000
11904 1801 12738 1 149.00000 418.400000
11904 1802 12447 1 149.00000 418.400000
11905 1803 12201 1 149.00000 418.400000
11905 1804 14665 1 149.00000 418.400000
11905 1805 16686 1 149.00000 418.400000
11905 1806 14759 1 149.00000 418.400000
11906 1807 15150 1 149.00000 418.400000
11906 1808 13383 1 149.00000 418.400000
11907 1809 12584 1 149.00000 418.400000
11907 1810 12224 1 149.00000 418.400000
11907 1811 13585 1 149.00000 418.400000
11908 1812 13802 1 149.00000 418.400000
11908 1813 11980 1 149.00000 418.400000
11908 1814 14279 1 149.00000 418.400000
11909 1815 12769 1 149.00000 418.400000
11909 1816 13055 1 149.00000 418.400000
11909 1817 14375 1 149.00000 418.400000
11909 1818 16466 1 149.00000 418.400000
11910 1819 12181 1 149.00000 418.400000
11910 1820 13153 1 149.00000 418.400000
11910 1821 15622 1 149.00000 418.400000
11911 1822 13531 1 149.00000 418.400000
11911 1823 14891 1 149.00000 418.400000
11911 1824 16690 1 149.00000 418.400000
11912 1825 15477 1 149.00000 418.400000
11912 1826 16024 1 149.00000 418.400000
11912 1827 14113 1 149.00000 418.400000
11912 1828 15972 1 149.00000 418.400000
13511 1829 18142 1 149.00000 418.400000
18142 1830 20107 1 149.00000 418.400000
14077 1831 18142 1 149.00000 418.400000
11913 1832 14256 1 149.00000 418.400000
11913 1833 12676 1 149.00000 418.400000
11913 1834 15416 1 149.00000 418.400000
11913 1835 15637 1 149.00000 418.400000
11914 1836 13824 1 149.00000 418.400000
11914 1837 13052 1 149.00000 418.400000
11914 1838 15804 1 149.00000 418.400000
11915 1839 14572 1 149.00000 418.400000
11915 1840 13411 1 149.00000 418.400000
11915 1841 12543 1 149.00000 418.400000
11915 1842 14586 1 149.00000 418.400000
11916 1843 16357 1 149.00000 418.400000
11916 1844 15967 1 149.00000 418.400000
11916 1845 12451 1 149.00000 418.400000
11916 1846 15478 1 149.00000 418.400000
11917 1847 12735 1 149.00000 418.400000
11917 1848 12621 1 149.00000 418.400000
11917 1849 12849 1 149.00000 418.400000
11917 1850 14307 1 149.00000 418.400000
11918 1851 14581 1 149.00000 418.400000
11918 1852 13106 1 149.00000 418.400000
11918 1853 16193 1 149.00000 418.400000
11918 1854 11991 1 149.00000 418.400000
11919 1855 14989 1 149.00000 418.400000
11919 1856 15422 1 149.00000 418.400000
11919 1857 15724 1 149.00000 418.400000
11460 1858 20029 1 149.00000 418.400000
11920 1859 15341 1 149.00000 418.400000
11920 1860 15506 1 149.00000 418.400000
11920 1861 12672 1 149.00000 418.400000
11920 1862 13140 1 149.00000 418.400000
11921 1863 13018 1 149.00000 418.400000
11921 1864 19066 1 149.00000 418.400000
11921 1865 15052 1 149.00000 418.400000
11922 1866 16635 1 149.00000 418.400000
11922 1867 15646 1 149.00000 418.400000
11923 1868 14364 1 149.00000 418.400000
11923 1869 16631 1 149.00000 418.400000
11923 1870 15965 1 149.00000 418.400000
11923 1871 16181 1 149.00000 418.400000
11924 1872 13338 1 149.00000 418.400000
11924 1873 11961 1 149.00000 418.400000
11924 1874 13882 1 149.00000 418.400000
11924 1875 16418 1 149.00000 418.400000
11925 1876 15944 1 149.00000 418.400000
11925 1877 15709 1 149.00000 418.400000
11925 1878 16661 1 149.00000 418.400000
11926 1879 14308 1 149.00000 418.400000
11926 1880 16148 1 149.00000 418.400000
11926 1881 13154 1 149.00000 418.400000
11926 1882 12592 1 149.00000 418.400000
11927 1883 14199 1 149.00000 418.400000
11927 1884 13130 1 149.00000 418.400000
11927 1885 14230 1 149.00000 418.400000
11928 1886 12410 1 149.00000 418.400000
11928 1887 14744 1 149.00000 418.400000
11928 1888 13474 1 149.00000 418.400000
11929 1889 14562 1 149.00000 418.400000
11929 1890 16540 1 149.00000 418.400000
11929 1891 13242 1 149.00000 418.400000
11930 1892 14124 1 149.00000 418.400000
11930 1893 15037 1 149.00000 418.400000
14124 1894 15782 1 149.00000 418.400000
11930 1895 15799 1 149.00000 418.400000
11931 1896 19954 1 149.00000 418.400000
11931 1897 16562 1 149.00000 418.400000
11932 1898 12127 1 149.00000 418.400000
11932 1899 14700 1 149.00000 418.400000
11932 1900 14604 1 149.00000 418.400000
11932 1901 16345 1 149.00000 418.400000
14537 1902 16679 1 149.00000 418.400000
11933 1903 13062 1 149.00000 418.400000
15615 1904 15986 1 149.00000 418.400000
11933 1905 14537 1 149.00000 418.400000
11934 1906 15468 1 149.00000 418.400000
11934 1907 14647 1 149.00000 418.400000
11934 1908 16210 1 149.00000 418.400000
11934 1909 12296 1 149.00000 418.400000
11935 1910 13110 1 149.00000 418.400000
11935 1911 14219 1 149.00000 418.400000
14219 1912 15019 1 149.00000 418.400000
11935 1913 13870 1 149.00000 418.400000
11936 1914 16412 1 149.00000 418.400000
11936 1915 16235 1 149.00000 418.400000
11936 1916 13259 1 149.00000 418.400000
11936 1917 12278 1 149.00000 418.400000
11937 1918 15128 1 149.00000 418.400000
11937 1919 13615 1 149.00000 418.400000
11938 1920 16438 1 149.00000 418.400000
11938 1921 15405 1 149.00000 418.400000
11938 1922 20833 1 149.00000 418.400000
11938 1923 13546 1 149.00000 418.400000
15440 1924 16244 1 149.00000 418.400000
11939 1925 15440 1 149.00000 418.400000
11939 1926 20419 1 149.00000 418.400000
14867 1927 20419 1 149.00000 418.400000
13065 1928 16424 1 149.00000 418.400000
11940 1929 18514 1 149.00000 418.400000
12066 1930 16177 1 149.00000 418.400000
11940 1931 13065 1 149.00000 418.400000
11941 1932 16189 1 149.00000 418.400000
11941 1933 16226 1 149.00000 418.400000
11941 1934 14973 1 149.00000 418.400000
11941 1935 15084 1 149.00000 418.400000
11942 1936 14112 1 149.00000 418.400000
11942 1937 12220 1 149.00000 418.400000
11942 1938 13666 1 149.00000 418.400000
12430 1939 14387 1 149.00000 418.400000
11943 1940 12000 1 149.00000 418.400000
11943 1941 13624 1 149.00000 418.400000
11943 1942 15840 1 149.00000 418.400000
11944 1943 12834 1 149.00000 418.400000
11944 1944 20176 1 149.00000 418.400000
11944 1945 19948 1 149.00000 418.400000
11510 1946 12727 1 149.00000 418.400000
11945 1947 15269 1 149.00000 418.400000
11510 1948 14191 1 149.00000 418.400000
11946 1949 15234 1 149.00000 418.400000
11946 1950 13278 1 149.00000 418.400000
11946 1951 20656 1 149.00000 418.400000
11947 1952 13836 1 149.00000 418.400000
11947 1953 14231 1 149.00000 418.400000
11947 1954 14321 1 149.00000 418.400000
11947 1955 13153 1 149.00000 418.400000
11948 1956 12283 1 149.00000 418.400000
11948 1957 12525 1 149.00000 418.400000
11948 1958 13452 1 149.00000 418.400000
11948 1959 13137 1 149.00000 418.400000
11949 1960 17078 1 149.00000 418.400000
11949 1961 13991 1 149.00000 418.400000
11949 1962 19993 1 149.00000 418.400000
11949 1963 12942 1 149.00000 418.400000
11950 1964 12122 1 149.00000 418.400000
11950 1965 14591 1 149.00000 418.400000
11950 1966 16502 1 149.00000 418.400000
11950 1967 16147 1 149.00000 418.400000
11951 1968 16624 1 149.00000 418.400000
11951 1969 17708 1 149.00000 418.400000
11951 1970 20578 1 149.00000 418.400000
11952 1971 20590 1 149.00000 418.400000
11952 1972 18970 1 149.00000 418.400000
11952 1973 15841 1 149.00000 418.400000
13653 1974 15841 1 149.00000 418.400000
14803 1975 15988 1 149.00000 418.400000
11953 1976 15016 1 149.00000 418.400000
11953 1977 15988 1 149.00000 418.400000
11953 1978 12896 1 149.00000 418.400000
11954 1979 11985 1 149.00000 418.400000
11954 1980 12351 1 149.00000 418.400000
11954 1981 13465 1 149.00000 418.400000
11954 1982 15442 1 149.00000 418.400000
11955 1983 13088 1 149.00000 418.400000
11955 1984 20815 1 149.00000 418.400000
11955 1985 14107 1 149.00000 418.400000
11955 1986 11979 1 149.00000 418.400000
11956 1987 19066 1 149.00000 418.400000
11956 1988 12023 1 149.00000 418.400000
16024 1989 16051 1 149.00000 418.400000
11956 1990 16051 1 149.00000 418.400000
11957 1991 14049 1 149.00000 418.400000
11957 1992 16312 1 149.00000 418.400000
11957 1993 20983 1 149.00000 418.400000
11957 1994 12202 1 149.00000 418.400000
11958 1995 13874 1 149.00000 418.400000
11958 1996 13268 1 149.00000 418.400000
11958 1997 14570 1 149.00000 418.400000
11958 1998 15619 1 149.00000 418.400000
11959 1999 14859 1 149.00000 418.400000
11959 2000 13187 1 149.00000 418.400000
11959 2001 14516 1 149.00000 418.400000
11959 2002 15165 1 149.00000 418.400000
11960 2003 12235 1 149.00000 418.400000
11960 2004 14033 1 149.00000 418.400000
11960 2005 15717 1 149.00000 418.400000
11961 2006 16152 1 149.00000 418.400000
11961 2007 14941 1 149.00000 418.400000
11961 2008 14755 1 149.00000 418.400000
14297 2009 17960 1 149.00000 418.400000
11962 2010 14946 1 149.00000 418.400000
11962 2011 13073 1 149.00000 418.400000
11962 2012 13158 1 149.00000 418.400000
11962 2013 13366 1 149.00000 418.400000
11963 2014 18982 1 149.00000 418.400000
11963 2015 13492 1 149.00000 418.400000
11963 2016 15796 1 149.00000 418.400000
11963 2017 13278 1 149.00000 418.400000
11964 2018 13762 1 149.00000 418.400000
11964 2019 20464 1 149.00000 418.400000
11965 2020 15208 1 149.00000 418.400000
11965 2021 12782 1 149.00000 418.400000
11965 2022 12315 1 149.00000 418.400000
11966 2023 12912 1 149.00000 418.400000
11966 2024 15157 1 149.00000 418.400000
11966 2025 12955 1 149.00000 418.400000
11966 2026 18044 1 149.00000 418.400000
11967 2027 12267 1 149.00000 418.400000
11967 2028 15973 1 149.00000 418.400000
11968 2029 13491 1 149.00000 418.400000
11968 2030 15235 1 149.00000 418.400000
11968 2031 20512 1 149.00000 418.400000
11968 2032 12559 1 149.00000 418.400000
11969 2033 14028 1 149.00000 418.400000
11969 2034 16489 1 149.00000 418.400000
11969 2035 15503 1 149.00000 418.400000
11969 2036 20827 1 149.00000 418.400000
11970 2037 14983 1 149.00000 418.400000
11970 2038 15126 1 149.00000 418.400000
11970 2039 15037 1 149.00000 418.400000
11970 2040 12217 1 149.00000 418.400000
11971 2041 16530 1 149.00000 418.400000
11971 2042 20665 1 149.00000 418.400000
11972 2043 13526 1 149.00000 418.400000
11972 2044 15310 1 149.00000 418.400000
11972 2045 19750 1 149.00000 418.400000
11973 2046 19984 1 149.00000 418.400000
11973 2047 14903 1 149.00000 418.400000
11973 2048 15351 1 149.00000 418.400000
11974 2049 13209 1 149.00000 418.400000
11974 2050 15471 1 149.00000 418.400000
11974 2051 13589 1 149.00000 418.400000
11974 2052 13280 1 149.00000 418.400000
11975 2053 11981 1 149.00000 418.400000
11975 2054 13236 1 149.00000 418.400000
11976 2055 12280 1 149.00000 418.400000
11976 2056 16088 1 149.00000 418.400000
11976 2057 16230 1 149.00000 418.400000
11976 2058 12194 1 149.00000 418.400000
11977 2059 13400 1 149.00000 418.400000
11977 2060 12282 1 149.00000 418.400000
11977 2061 14292 1 149.00000 418.400000
11978 2062 16018 1 149.00000 418.400000
11978 2063 15188 1 149.00000 418.400000
11978 2064 12461 1 149.00000 418.400000
11978 2065 15737 1 149.00000 418.400000
11979 2066 19690 1 149.00000 418.400000
11980 2067 13652 1 149.00000 418.400000
11980 2068 15423 1 149.00000 418.400000
11980 2069 13081 1 149.00000 418.400000
11981 2070 12042 1 149.00000 418.400000
11981 2071 14531 1 149.00000 418.400000
11982 2072 13992 1 149.00000 418.400000
11982 2073 15074 1 149.00000 418.400000
11630 2074 15914 1 149.00000 418.400000
11983 2075 12541 1 149.00000 418.400000
11983 2076 14492 1 149.00000 418.400000
11983 2077 15275 1 149.00000 418.400000
11983 2078 16594 1 149.00000 418.400000
11984 2079 14236 1 149.00000 418.400000
11984 2080 14946 1 149.00000 418.400000
11984 2081 13016 1 149.00000 418.400000
11985 2082 12449 1 149.00000 418.400000
11985 2083 16276 1 149.00000 418.400000
11986 2084 14542 1 149.00000 418.400000
11986 2085 14890 1 149.00000 418.400000
11986 2086 16180 1 149.00000 418.400000
11986 2087 12958 1 149.00000 418.400000
11987 2088 12450 1 149.00000 418.400000
11987 2089 13768 1 149.00000 418.400000
11987 2090 13193 1 149.00000 418.400000
11987 2091 13983 1 149.00000 418.400000
11988 2092 15911 1 149.00000 418.400000
11988 2093 13783 1 149.00000 418.400000
11988 2094 14915 1 149.00000 418.400000
11988 2095 18466 1 149.00000 418.400000
11989 2096 14559 1 149.00000 418.400000
11989 2097 18490 1 149.00000 418.400000
11990 2098 16503 1 149.00000 418.400000
16503 2099 20494 1 149.00000 418.400000
11990 2100 17694 1 149.00000 418.400000
11991 2101 12016 1 149.00000 418.400000
11991 2102 15937 1 149.00000 418.400000
11991 2103 15936 1 149.00000 418.400000
11992 2104 16389 1 149.00000 418.400000
11992 2105 13546 1 149.00000 418.400000
11992 2106 16187 1 149.00000 418.400000
11993 2107 19942 1 149.00000 418.400000
11993 2108 16520 1 149.00000 418.400000
11994 2109 12886 1 149.00000 418.400000
11994 2110 15928 1 149.00000 418.400000
11994 2111 14692 1 149.00000 418.400000
11994 2112 20470 1 149.00000 418.400000
11995 2113 16101 1 149.00000 418.400000
11995 2114 13082 1 149.00000 418.400000
11995 2115 13588 1 149.00000 418.400000
11995 2116 15337 1 149.00000 418.400000
12261 2117 13925 1 149.00000 418.400000
11996 2118 13925 1 149.00000 418.400000
11996 2119 16087 1 149.00000 418.400000
11996 2120 14142 1 149.00000 418.400000
11997 2121 14076 1 149.00000 418.400000
11997 2122 13544 1 149.00000 418.400000
11997 2123 12853 1 149.00000 418.400000
11997 2124 16554 1 149.00000 418.400000
11998 2125 16597 1 149.00000 418.400000
11998 2126 13272 1 149.00000 418.400000
11999 2127 12417 1 149.00000 418.400000
11999 2128 12715 1 149.00000 418.400000
11999 2129 16216 1 149.00000 418.400000
11999 2130 15595 1 149.00000 418.400000
12000 2131 14959 1 149.00000 418.400000
12000 2132 14430 1 149.00000 418.400000
12001 2133 12065 1 149.00000 418.400000
12001 2134 13434 1 149.00000 418.400000
12001 2135 15344 1 149.00000 418.400000
12001 2136 13774 1 149.00000 418.400000
12002 2137 14247 1 149.00000 418.400000
12002 2138 15700 1 149.00000 418.400000
12002 2139 12251 1 149.00000 418.400000
12003 2140 13954 1 149.00000 418.400000
12003 2141 13183 1 149.00000 418.400000
12003 2142 12870 1 149.00000 418.400000
12003 2143 15240 1 149.00000 418.400000
12004 2144 16380 1 149.00000 418.400000
12004 2145 13178 1 149.00000 418.400000
12004 2146 13635 1 149.00000 418.400000
12004 2147 13206 1 149.00000 418.400000
12005 2148 17246 1 149.00000 418.400000
12006 2149 13561 1 149.00000 418.400000
12006 2150 16475 1 149.00000 418.400000
12006 2151 15087 1 149.00000 418.400000
12007 2152 15901 1 149.00000 418.400000
12007 2153 16166 1 149.00000 418.400000
12007 2154 15241 1 149.00000 418.400000
12007 2155 16400 1 149.00000 418.400000
12008 2156 15971 1 149.00000 418.400000
12008 2157 16390 1 149.00000 418.400000
12008 2158 13913 1 149.00000 418.400000
12009 2159 14521 1 149.00000 418.400000
12009 2160 12694 1 149.00000 418.400000
12010 2161 12871 1 149.00000 418.400000
12010 2162 16572 1 149.00000 418.400000
14504 2163 19630 1 149.00000 418.400000
12010 2164 19630 1 149.00000 418.400000
12011 2165 14387 1 149.00000 418.400000
12011 2166 14037 1 149.00000 418.400000
12012 2167 15449 1 149.00000 418.400000
12012 2168 14549 1 149.00000 418.400000
12012 2169 15500 1 149.00000 418.400000
12012 2170 14685 1 149.00000 418.400000
12013 2171 13460 1 149.00000 418.400000
12013 2172 14774 1 149.00000 418.400000
12013 2173 16532 1 149.00000 418.400000
12013 2174 15534 1 149.00000 418.400000
12014 2175 12881 1 149.00000 418.400000
16515 2176 16994 1 149.00000 418.400000
12014 2177 14014 1 149.00000 418.400000
12014 2178 16515 1 149.00000 418.400000
12015 2179 15418 1 149.00000 418.400000
12015 2180 14508 1 149.00000 418.400000
12016 2181 15868 1 149.00000 418.400000
12016 2182 14146 1 149.00000 418.400000
12016 2183 13977 1 149.00000 418.400000
12017 2184 12679 1 149.00000 418.400000
12017 2185 14755 1 149.00000 418.400000
12017 2186 16637 1 149.00000 418.400000
12017 2187 14306 1 149.00000 418.400000
12018 2188 12904 1 149.00000 418.400000
12018 2189 16239 1 149.00000 418.400000
12018 2190 12474 1 149.00000 418.400000
12018 2191 13962 1 149.00000 418.400000
12019 2192 16629 1 149.00000 418.400000
12019 2193 16423 1 149.00000 418.400000
15488 2194 16444 1 149.00000 418.400000
12019 2195 16444 1 149.00000 418.400000
12020 2196 15894 1 149.00000 418.400000
12020 2197 15687 1 149.00000 418.400000
12020 2198 16130 1 149.00000 418.400000
12020 2199 15245 1 149.00000 418.400000
12021 2200 15373 1 149.00000 418.400000
12021 2201 15041 1 149.00000 418.400000
12022 2202 12849 1 149.00000 418.400000
12022 2203 12826 1 149.00000 418.400000
12022 2204 16166 1 149.00000 418.400000
12022 2205 13927 1 149.00000 418.400000
12023 2206 16030 1 149.00000 418.400000
12023 2207 13165 1 149.00000 418.400000
12023 2208 12030 1 149.00000 418.400000
12024 2209 15239 1 149.00000 418.400000
12024 2210 13050 1 149.00000 418.400000
12024 2211 12995 1 149.00000 418.400000
12025 2212 13197 1 149.00000 418.400000
12025 2213 15410 1 149.00000 418.400000
12025 2214 12699 1 149.00000 418.400000
12025 2215 16622 1 149.00000 418.400000
12026 2216 12446 1 149.00000 418.400000
12026 2217 12674 1 149.00000 418.400000
12027 2218 15406 1 149.00000 418.400000
12027 2219 12720 1 149.00000 418.400000
12027 2220 15635 1 149.00000 418.400000
12027 2221 15869 1 149.00000 418.400000
12028 2222 13291 1 149.00000 418.400000
12028 2223 15315 1 149.00000 418.400000
12028 2224 13876 1 149.00000 418.400000
12028 2225 14642 1 149.00000 418.400000
12029 2226 13506 1 149.00000 418.400000
12029 2227 15778 1 149.00000 418.400000
12029 2228 15563 1 149.00000 418.400000
12029 2229 13497 1 149.00000 418.400000
12030 2230 15157 1 149.00000 418.400000
12030 2231 15972 1 149.00000 418.400000
12030 2232 13018 1 149.00000 418.400000
12031 2233 12568 1 149.00000 418.400000
12031 2234 12975 1 149.00000 418.400000
12032 2235 13987 1 149.00000 418.400000
12032 2236 13003 1 149.00000 418.400000
12032 2237 14914 1 149.00000 418.400000
12032 2238 13495 1 149.00000 418.400000
12033 2239 15101 1 149.00000 418.400000
12033 2240 19996 1 149.00000 418.400000
12033 2241 12597 1 149.00000 418.400000
12034 2242 16149 1 149.00000 418.400000
12034 2243 13850 1 149.00000 418.400000
12034 2244 13015 1 149.00000 418.400000
12034 2245 15948 1 149.00000 418.400000
12035 2246 20278 1 149.00000 418.400000
12035 2247 16609 1 149.00000 418.400000
12035 2248 13209 1 149.00000 418.400000
12035 2249 15073 1 149.00000 418.400000
12036 2250 14666 1 149.00000 418.400000
12036 2251 13083 1 149.00000 418.400000
12036 2252 15653 1 149.00000 418.400000
12037 2253 20449 1 149.00000 418.400000
12037 2254 13662 1 149.00000 418.400000
12037 2255 13735 1 149.00000 418.400000
12037 2256 14068 1 149.00000 418.400000
12038 2257 13024 1 149.00000 418.400000
12038 2258 14706 1 149.00000 418.400000
12038 2259 16129 1 149.00000 418.400000
12038 2260 13554 1 149.00000 418.400000
12039 2261 14856 1 149.00000 418.400000
12039 2262 16209 1 149.00000 418.400000
12039 2263 13143 1 149.00000 418.400000
12039 2264 15105 1 149.00000 418.400000
12040 2265 14742 1 149.00000 418.400000
12040 2266 13339 1 149.00000 418.400000
12040 2267 13847 1 149.00000 418.400000
12040 2268 12480 1 149.00000 418.400000
12242 2269 16565 1 149.00000 418.400000
12041 2270 16565 1 149.00000 418.400000
12041 2271 16428 1 149.00000 418.400000
12041 2272 12288 1 149.00000 418.400000
12042 2273 12753 1 149.00000 418.400000
12042 2274 15013 1 149.00000 418.400000
12042 2275 15270 1 149.00000 418.400000
12043 2276 14457 1 149.00000 418.400000
12043 2277 13035 1 149.00000 418.400000
12043 2278 13498 1 149.00000 418.400000
12043 2279 16358 1 149.00000 418.400000
12044 2280 15402 1 149.00000 418.400000
12044 2281 13912 1 149.00000 418.400000
12044 2282 15549 1 149.00000 418.400000
12044 2283 15701 1 149.00000 418.400000
12045 2284 13622 1 149.00000 418.400000
12045 2285 13637 1 149.00000 418.400000
12045 2286 12368 1 149.00000 418.400000
12045 2287 15012 1 149.00000 418.400000
12046 2288 14448 1 149.00000 418.400000
12046 2289 12709 1 149.00000 418.400000
12046 2290 14948 1 149.00000 418.400000
12047 2291 16556 1 149.00000 418.400000
12047 2292 14646 1 149.00000 418.400000
12047 2293 14753 1 149.00000 418.400000
12047 2294 12300 1 149.00000 418.400000
12048 2295 15474 1 149.00000 418.400000
12049 2296 12836 1 149.00000 418.400000
12049 2297 18898 1 149.00000 418.400000
12049 2298 16882 1 149.00000 418.400000
12050 2299 13905 1 149.00000 418.400000
12051 2300 16364 1 149.00000 418.400000
12051 2301 15069 1 149.00000 418.400000
12051 2302 12281 1 149.00000 418.400000
12051 2303 13989 1 149.00000 418.400000
12052 2304 13880 1 149.00000 418.400000
12053 2305 16268 1 149.00000 418.400000
12053 2306 14206 1 149.00000 418.400000
12053 2307 13243 1 149.00000 418.400000
12053 2308 15894 1 149.00000 418.400000
12054 2309 12593 1 149.00000 418.400000
12054 2310 15636 1 149.00000 418.400000
12054 2311 15270 1 149.00000 418.400000
12054 2312 15727 1 149.00000 418.400000
12055 2313 16411 1 149.00000 418.400000
12055 2314 13507 1 149.00000 418.400000
12055 2315 13858 1 149.00000 418.400000
12055 2316 15320 1 149.00000 418.400000
12056 2317 16289 1 149.00000 418.400000
12056 2318 16315 1 149.00000 418.400000
12056 2319 13533 1 149.00000 418.400000
12056 2320 12806 1 149.00000 418.400000
12057 2321 14296 1 149.00000 418.400000
12057 2322 14885 1 149.00000 418.400000
12057 2323 15417 1 149.00000 418.400000
12058 2324 18838 1 149.00000 418.400000
12058 2325 15023 1 149.00000 418.400000
12059 2326 13584 1 149.00000 418.400000
12059 2327 13250 1 149.00000 418.400000
12059 2328 12116 1 149.00000 418.400000
12059 2329 14047 1 149.00000 418.400000
12060 2330 14705 1 149.00000 418.400000
12060 2331 16550 1 149.00000 418.400000
13903 2332 14705 1 149.00000 418.400000
12061 2333 12502 1 149.00000 418.400000
12061 2334 12335 1 149.00000 418.400000
12061 2335 14458 1 149.00000 418.400000
12061 2336 14877 1 149.00000 418.400000
15059 2337 15484 1 149.00000 418.400000
11853 2338 12062 1 149.00000 418.400000
15484 2339 16276 1 149.00000 418.400000
12062 2340 15484 1 149.00000 418.400000
12063 2341 15243 1 149.00000 418.400000
12568 2342 14707 1 149.00000 418.400000
12063 2343 14707 1 149.00000 418.400000
12064 2344 12698 1 149.00000 418.400000
12064 2345 13368 1 149.00000 418.400000
12064 2346 16225 1 149.00000 418.400000
12064 2347 15244 1 149.00000 418.400000
12065 2348 13565 1 149.00000 418.400000
12065 2349 16064 1 149.00000 418.400000
12066 2350 13065 1 149.00000 418.400000
12066 2351 14445 1 149.00000 418.400000
13065 2352 15569 1 149.00000 418.400000
12066 2353 15466 1 149.00000 418.400000
12067 2354 16138 1 149.00000 418.400000
12067 2355 16305 1 149.00000 418.400000
12067 2356 12997 1 149.00000 418.400000
12067 2357 13796 1 149.00000 418.400000
12068 2358 13203 1 149.00000 418.400000
12068 2359 14215 1 149.00000 418.400000
12068 2360 14377 1 149.00000 418.400000
12068 2361 14821 1 149.00000 418.400000
12069 2362 13507 1 149.00000 418.400000
12069 2363 14863 1 149.00000 418.400000
12069 2364 14919 1 149.00000 418.400000
12069 2365 12388 1 149.00000 418.400000
12070 2366 13669 1 149.00000 418.400000
12070 2367 15387 1 149.00000 418.400000
12070 2368 13769 1 149.00000 418.400000
12070 2369 13507 1 149.00000 418.400000
12071 2370 14983 1 149.00000 418.400000
12071 2371 14591 1 149.00000 418.400000
12071 2372 13380 1 149.00000 418.400000
12071 2373 15940 1 149.00000 418.400000
12072 2374 14949 1 149.00000 418.400000
12072 2375 12671 1 149.00000 418.400000
12072 2376 14952 1 149.00000 418.400000
12072 2377 13876 1 149.00000 418.400000
12073 2378 12077 1 149.00000 418.400000
12073 2379 14401 1 149.00000 418.400000
12073 2380 13364 1 149.00000 418.400000
12073 2381 13416 1 149.00000 418.400000
12074 2382 14833 1 149.00000 418.400000
12074 2383 14452 1 149.00000 418.400000
12074 2384 16388 1 149.00000 418.400000
12074 2385 13148 1 149.00000 418.400000
12075 2386 15039 1 149.00000 418.400000
12075 2387 14245 1 149.00000 418.400000
12075 2388 12979 1 149.00000 418.400000
12075 2389 16671 1 149.00000 418.400000
12076 2390 15782 1 149.00000 418.400000
12076 2391 14291 1 149.00000 418.400000
12076 2392 15258 1 149.00000 418.400000
12076 2393 14983 1 149.00000 418.400000
12077 2394 13177 1 149.00000 418.400000
12077 2395 16536 1 149.00000 418.400000
12077 2396 12302 1 149.00000 418.400000
15983 2397 16536 1 149.00000 418.400000
12078 2398 16053 1 149.00000 418.400000
12078 2399 15319 1 149.00000 418.400000
12078 2400 12125 1 149.00000 418.400000
14171 2401 16053 1 149.00000 418.400000
12079 2402 16143 1 149.00000 418.400000
12079 2403 14941 1 149.00000 418.400000
12079 2404 12304 1 149.00000 418.400000
12079 2405 12843 1 149.00000 418.400000
12080 2406 16518 1 149.00000 418.400000
12080 2407 15899 1 149.00000 418.400000
12080 2408 13417 1 149.00000 418.400000
12080 2409 16119 1 149.00000 418.400000
12081 2410 13573 1 149.00000 418.400000
12081 2411 15936 1 149.00000 418.400000
12081 2412 14029 1 149.00000 418.400000
12082 2413 16618 1 149.00000 418.400000
12082 2414 15388 1 149.00000 418.400000
12082 2415 15246 1 149.00000 418.400000
12082 2416 14974 1 149.00000 418.400000
12083 2417 13076 1 149.00000 418.400000
12083 2418 15559 1 149.00000 418.400000
12083 2419 20122 1 149.00000 418.400000
12083 2420 19546 1 149.00000 418.400000
12084 2421 17260 1 149.00000 418.400000
12084 2422 14080 1 149.00000 418.400000
12084 2423 14237 1 149.00000 418.400000
12084 2424 15665 1 149.00000 418.400000
12085 2425 14699 1 149.00000 418.400000
12085 2426 12815 1 149.00000 418.400000
12085 2427 15734 1 149.00000 418.400000
12085 2428 12166 1 149.00000 418.400000
11772 2429 12086 1 149.00000 418.400000
12086 2430 16168 1 149.00000 418.400000
12087 2431 19378 1 149.00000 418.400000
11509 2432 13683 1 149.00000 418.400000
12087 2433 13683 1 149.00000 418.400000
12088 2434 14662 1 149.00000 418.400000
12088 2435 16390 1 149.00000 418.400000
12088 2436 12438 1 149.00000 418.400000
12088 2437 16323 1 149.00000 418.400000
12089 2438 14434 1 149.00000 418.400000
12089 2439 15333 1 149.00000 418.400000
12089 2440 15009 1 149.00000 418.400000
12089 2441 14015 1 149.00000 418.400000
11464 2442 12090 1 149.00000 418.400000
12090 2443 19078 1 149.00000 418.400000
12090 2444 13358 1 149.00000 418.400000
12090 2445 14173 1 149.00000 418.400000
12091 2446 12421 1 149.00000 418.400000
12091 2447 12803 1 149.00000 418.400000
12091 2448 14627 1 149.00000 418.400000
12091 2449 13965 1 149.00000 418.400000
12092 2450 14784 1 149.00000 418.400000
12092 2451 19510 1 149.00000 418.400000
12092 2452 20809 1 149.00000 418.400000
12093 2453 12589 1 149.00000 418.400000
12093 2454 12721 1 149.00000 418.400000
12093 2455 20389 1 149.00000 418.400000
12094 2456 16258 1 149.00000 418.400000
12094 2457 16322 1 149.00000 418.400000
12095 2458 14819 1 149.00000 418.400000
12095 2459 15377 1 149.00000 418.400000
12095 2460 12386 1 149.00000 418.400000
12095 2461 16379 1 149.00000 418.400000
12096 2462 16378 1 149.00000 418.400000
12096 2463 12600 1 149.00000 418.400000
12097 2464 13653 1 149.00000 418.400000
12097 2465 13975 1 149.00000 418.400000
12097 2466 16534 1 149.00000 418.400000
12097 2467 13749 1 149.00000 418.400000
12098 2468 12115 1 149.00000 418.400000
12098 2469 20410 1 149.00000 418.400000
12098 2470 13518 1 149.00000 418.400000
12098 2471 15073 1 149.00000 418.400000
12099 2472 15353 1 149.00000 418.400000
12099 2473 14571 1 149.00000 418.400000
12099 2474 15275 1 149.00000 418.400000
12099 2475 13023 1 149.00000 418.400000
12100 2476 15741 1 149.00000 418.400000
12100 2477 16544 1 149.00000 418.400000
12100 2478 15526 1 149.00000 418.400000
12489 2479 16544 1 149.00000 418.400000
12101 2480 13101 1 149.00000 418.400000
12101 2481 16339 1 149.00000 418.400000
12101 2482 12774 1 149.00000 418.400000
12102 2483 12680 1 149.00000 418.400000
12102 2484 14004 1 149.00000 418.400000
12102 2485 14732 1 149.00000 418.400000
12103 2486 15648 1 149.00000 418.400000
12103 2487 12683 1 149.00000 418.400000
12103 2488 12254 1 149.00000 418.400000
12103 2489 14495 1 149.00000 418.400000
19939 2490 20680 1 149.00000 418.400000
15155 2491 15869 1 149.00000 418.400000
15155 2492 19939 1 149.00000 418.400000
15812 2493 18166 1 149.00000 418.400000
18166 2494 20206 1 149.00000 418.400000
13384 2495 18166 1 149.00000 418.400000
12104 2496 12144 1 149.00000 418.400000
12104 2497 12757 1 149.00000 418.400000
12104 2498 17050 1 149.00000 418.400000
12104 2499 20440 1 149.00000 418.400000
12105 2500 16301 1 149.00000 418.400000
12105 2501 13741 1 149.00000 418.400000
12106 2502 15014 1 149.00000 418.400000
12106 2503 14553 1 149.00000 418.400000
12106 2504 12259 1 149.00000 418.400000
12107 2505 14500 1 149.00000 418.400000
12107 2506 12231 1 149.00000 418.400000
14500 2507 15880 1 149.00000 418.400000
12108 2508 14655 1 149.00000 418.400000
12108 2509 15733 1 149.00000 418.400000
12108 2510 13512 1 149.00000 418.400000
12108 2511 16461 1 149.00000 418.400000
12109 2512 14196 1 149.00000 418.400000
12109 2513 12378 1 149.00000 418.400000
12109 2514 12962 1 149.00000 418.400000
12109 2515 13356 1 149.00000 418.400000
12110 2516 15819 1 149.00000 418.400000
12110 2517 18874 1 149.00000 418.400000
12110 2518 16139 1 149.00000 418.400000
12110 2519 16042 1 149.00000 418.400000
12111 2520 16463 1 149.00000 418.400000
12111 2521 14109 1 149.00000 418.400000
12111 2522 16295 1 149.00000 418.400000
12111 2523 15956 1 149.00000 418.400000
12112 2524 12471 1 149.00000 418.400000
12112 2525 14487 1 149.00000 418.400000
12112 2526 12529 1 149.00000 418.400000
12112 2527 12986 1 149.00000 418.400000
12113 2528 15281 1 149.00000 418.400000
12113 2529 12661 1 149.00000 418.400000
12113 2530 14203 1 149.00000 418.400000
12113 2531 12548 1 149.00000 418.400000
12114 2532 15240 1 149.00000 418.400000
12114 2533 14620 1 149.00000 418.400000
12114 2534 14370 1 149.00000 418.400000
12114 2535 15228 1 149.00000 418.400000
12115 2536 16124 1 149.00000 418.400000
12115 2537 15779 1 149.00000 418.400000
12115 2538 16501 1 149.00000 418.400000
12116 2539 16212 1 149.00000 418.400000
12116 2540 19981 1 149.00000 418.400000
12116 2541 13727 1 149.00000 418.400000
12117 2542 12731 1 149.00000 418.400000
12117 2543 15413 1 149.00000 418.400000
12117 2544 15489 1 149.00000 418.400000
12118 2545 14516 1 149.00000 418.400000
12118 2546 15965 1 149.00000 418.400000
12118 2547 13714 1 149.00000 418.400000
12118 2548 15838 1 149.00000 418.400000
12119 2549 14921 1 149.00000 418.400000
12119 2550 12213 1 149.00000 418.400000
12119 2551 13553 1 149.00000 418.400000
12119 2552 15161 1 149.00000 418.400000
12120 2553 13432 1 149.00000 418.400000
12120 2554 13482 1 149.00000 418.400000
12120 2555 15094 1 149.00000 418.400000
12120 2556 16605 1 149.00000 418.400000
16449 2557 19834 1 149.00000 418.400000
12121 2558 15751 1 149.00000 418.400000
12121 2559 12219 1 149.00000 418.400000
12121 2560 19834 1 149.00000 418.400000
12122 2561 12742 1 149.00000 418.400000
12122 2562 13717 1 149.00000 418.400000
12122 2563 13380 1 149.00000 418.400000
12123 2564 16275 1 149.00000 418.400000
12123 2565 12767 1 149.00000 418.400000
12123 2566 15019 1 149.00000 418.400000
12124 2567 13650 1 149.00000 418.400000
12124 2568 15516 1 149.00000 418.400000
12124 2569 15753 1 149.00000 418.400000
12124 2570 14690 1 149.00000 418.400000
12125 2571 15735 1 149.00000 418.400000
12125 2572 12470 1 149.00000 418.400000
12470 2573 15181 1 149.00000 418.400000
11621 2574 12126 1 149.00000 418.400000
12126 2575 13469 1 149.00000 418.400000
12126 2576 13889 1 149.00000 418.400000
12126 2577 13027 1 149.00000 418.400000
12127 2578 15298 1 149.00000 418.400000
12127 2579 14395 1 149.00000 418.400000
12127 2580 13744 1 149.00000 418.400000
12128 2581 13971 1 149.00000 418.400000
12128 2582 15171 1 149.00000 418.400000
12164 2583 15371 1 149.00000 418.400000
12129 2584 12436 1 149.00000 418.400000
12129 2585 15371 1 149.00000 418.400000
12129 2586 13154 1 149.00000 418.400000
12130 2587 14061 1 149.00000 418.400000
12130 2588 15576 1 149.00000 418.400000
12131 2589 13711 1 149.00000 418.400000
12131 2590 12599 1 149.00000 418.400000
12131 2591 17260 1 149.00000 418.400000
12132 2592 12906 1 149.00000 418.400000
12132 2593 14579 1 149.00000 418.400000
12132 2594 12759 1 149.00000 418.400000
12133 2595 16572 1 149.00000 418.400000
12133 2596 14871 1 149.00000 418.400000
12133 2597 12265 1 149.00000 418.400000
12134 2598 16586 1 149.00000 418.400000
12134 2599 16145 1 149.00000 418.400000
12134 2600 13469 1 149.00000 418.400000
12134 2601 12862 1 149.00000 418.400000
12135 2602 16064 1 149.00000 418.400000
12135 2603 14890 1 149.00000 418.400000
12136 2604 18178 1 149.00000 418.400000
14334 2605 18178 1 149.00000 418.400000
12137 2606 16635 1 149.00000 418.400000
14899 2607 16635 1 149.00000 418.400000
12137 2608 16552 1 149.00000 418.400000
12137 2609 15803 1 149.00000 418.400000
12138 2610 16350 1 149.00000 418.400000
12138 2611 13116 1 149.00000 418.400000
12138 2612 13962 1 149.00000 418.400000
12139 2613 12749 1 149.00000 418.400000
12139 2614 12711 1 149.00000 418.400000
12139 2615 13299 1 149.00000 418.400000
12140 2616 13256 1 149.00000 418.400000
12140 2617 13523 1 149.00000 418.400000
12140 2618 14609 1 149.00000 418.400000
12141 2619 16509 1 149.00000 418.400000
12141 2620 19726 1 149.00000 418.400000
12141 2621 16191 1 149.00000 418.400000
12141 2622 14275 1 149.00000 418.400000
12142 2623 12232 1 149.00000 418.400000
12142 2624 17316 1 149.00000 418.400000
13003 2625 13436 1 149.00000 418.400000
12143 2626 15319 1 149.00000 418.400000
12143 2627 13436 1 149.00000 418.400000
12143 2628 13398 1 149.00000 418.400000
12144 2629 16012 1 149.00000 418.400000
12144 2630 15293 1 149.00000 418.400000
12144 2631 13187 1 149.00000 418.400000
12145 2632 16055 1 149.00000 418.400000
12145 2633 18898 1 149.00000 418.400000
12145 2634 16546 1 149.00000 418.400000
12145 2635 15808 1 149.00000 418.400000
12146 2636 15879 1 149.00000 418.400000
12146 2637 13509 1 149.00000 418.400000
12146 2638 15413 1 149.00000 418.400000
12146 2639 16073 1 149.00000 418.400000
12147 2640 13459 1 149.00000 418.400000
12147 2641 15870 1 149.00000 418.400000
12147 2642 13900 1 149.00000 418.400000
12147 2643 13418 1 149.00000 418.400000
12148 2644 16682 1 149.00000 418.400000
12148 2645 13501 1 149.00000 418.400000
12148 2646 12776 1 149.00000 418.400000
12149 2647 13542 1 149.00000 418.400000
12149 2648 16491 1 149.00000 418.400000
15833 2649 16491 1 149.00000 418.400000
12149 2650 14404 1 149.00000 418.400000
12150 2651 20035 1 149.00000 418.400000
12150 2652 20866 1 149.00000 418.400000
12150 2653 16629 1 149.00000 418.400000
12151 2654 13667 1 149.00000 418.400000
12151 2655 14281 1 149.00000 418.400000
12151 2656 14941 1 149.00000 418.400000
12151 2657 16582 1 149.00000 418.400000
12152 2658 14999 1 149.00000 418.400000
12152 2659 12292 1 149.00000 418.400000
12153 2660 13528 1 149.00000 418.400000
12153 2661 13497 1 149.00000 418.400000
12153 2662 13801 1 149.00000 418.400000
12153 2663 16678 1 149.00000 418.400000
12154 2664 14589 1 149.00000 418.400000
12154 2665 13988 1 149.00000 418.400000
12155 2666 14415 1 149.00000 418.400000
12155 2667 20506 1 149.00000 418.400000
12156 2668 14655 1 149.00000 418.400000
12156 2669 14570 1 149.00000 418.400000
12156 2670 12994 1 149.00000 418.400000
12156 2671 12381 1 149.00000 418.400000
12157 2672 13348 1 149.00000 418.400000
12157 2673 13525 1 149.00000 418.400000
12157 2674 14289 1 149.00000 418.400000
12157 2675 12279 1 149.00000 418.400000
12158 2676 12816 1 149.00000 418.400000
12158 2677 15191 1 149.00000 418.400000
12158 2678 16367 1 149.00000 418.400000
12158 2679 14067 1 149.00000 418.400000
12159 2680 13544 1 149.00000 418.400000
12159 2681 13630 1 149.00000 418.400000
12159 2682 15866 1 149.00000 418.400000
14797 2683 15866 1 149.00000 418.400000
12160 2684 18586 1 149.00000 418.400000
12160 2685 12751 1 149.00000 418.400000
12160 2686 13340 1 149.00000 418.400000
12160 2687 16252 1 149.00000 418.400000
12161 2688 15831 1 149.00000 418.400000
12161 2689 15865 1 149.00000 418.400000
12161 2690 20035 1 149.00000 418.400000
12161 2691 14016 1 149.00000 418.400000
12162 2692 15444 1 149.00000 418.400000
12162 2693 14373 1 149.00000 418.400000
12162 2694 16410 1 149.00000 418.400000
12162 2695 12974 1 149.00000 418.400000
12163 2696 13372 1 149.00000 418.400000
12163 2697 12461 1 149.00000 418.400000
12163 2698 15044 1 149.00000 418.400000
12164 2699 15556 1 149.00000 418.400000
12164 2700 20485 1 149.00000 418.400000
12164 2701 13691 1 149.00000 418.400000
12165 2702 15830 1 149.00000 418.400000
12165 2703 14443 1 149.00000 418.400000
12165 2704 13669 1 149.00000 418.400000
12165 2705 14396 1 149.00000 418.400000
12166 2706 13375 1 149.00000 418.400000
12166 2707 12331 1 149.00000 418.400000
12166 2708 16322 1 149.00000 418.400000
12167 2709 13350 1 149.00000 418.400000
12167 2710 16439 1 149.00000 418.400000
12167 2711 16469 1 149.00000 418.400000
12167 2712 13229 1 149.00000 418.400000
12168 2713 13931 1 149.00000 418.400000
12168 2714 13693 1 149.00000 418.400000
12168 2715 12565 1 149.00000 418.400000
12168 2716 19354 1 149.00000 418.400000
12169 2717 16580 1 149.00000 418.400000
12169 2718 14774 1 149.00000 418.400000
12169 2719 13280 1 149.00000 418.400000
12169 2720 15049 1 149.00000 418.400000
12170 2721 16688 1 149.00000 418.400000
12170 2722 14641 1 149.00000 418.400000
12170 2723 12493 1 149.00000 418.400000
12170 2724 16203 1 149.00000 418.400000
12171 2725 16615 1 149.00000 418.400000
12171 2726 13784 1 149.00000 418.400000
12171 2727 15410 1 149.00000 418.400000
12171 2728 13517 1 149.00000 418.400000
12172 2729 15708 1 149.00000 418.400000
12172 2730 19870 1 149.00000 418.400000
12172 2731 13321 1 149.00000 418.400000
12173 2732 12786 1 149.00000 418.400000
12173 2733 20227 1 149.00000 418.400000
12173 2734 14752 1 149.00000 418.400000
12174 2735 13273 1 149.00000 418.400000
12174 2736 13665 1 149.00000 418.400000
12174 2737 16093 1 149.00000 418.400000
12175 2738 12390 1 149.00000 418.400000
12175 2739 13779 1 149.00000 418.400000
12175 2740 14959 1 149.00000 418.400000
12175 2741 14925 1 149.00000 418.400000
12176 2742 16170 1 149.00000 418.400000
12176 2743 16646 1 149.00000 418.400000
12176 2744 15819 1 149.00000 418.400000
12176 2745 12742 1 149.00000 418.400000
12177 2746 20056 1 149.00000 418.400000
12177 2747 20497 1 149.00000 418.400000
12177 2748 16632 1 149.00000 418.400000
12178 2749 13138 1 149.00000 418.400000
12178 2750 14539 1 149.00000 418.400000
12178 2751 15878 1 149.00000 418.400000
12178 2752 12808 1 149.00000 418.400000
12179 2753 14228 1 149.00000 418.400000
14737 2754 15800 1 149.00000 418.400000
12179 2755 14783 1 149.00000 418.400000
12179 2756 14737 1 149.00000 418.400000
12180 2757 12583 1 149.00000 418.400000
12180 2758 13236 1 149.00000 418.400000
12180 2759 13757 1 149.00000 418.400000
12180 2760 13521 1 149.00000 418.400000
12181 2761 15345 1 149.00000 418.400000
12181 2762 14716 1 149.00000 418.400000
12181 2763 14314 1 149.00000 418.400000
12182 2764 12946 1 149.00000 418.400000
12182 2765 15581 1 149.00000 418.400000
12182 2766 14153 1 149.00000 418.400000
12182 2767 14622 1 149.00000 418.400000
12183 2768 16018 1 149.00000 418.400000
12183 2769 15941 1 149.00000 418.400000
12183 2770 12228 1 149.00000 418.400000
12184 2771 16624 1 149.00000 418.400000
13821 2772 14294 1 149.00000 418.400000
12184 2773 13821 1 149.00000 418.400000
12184 2774 15119 1 149.00000 418.400000
12185 2775 15108 1 149.00000 418.400000
12185 2776 15634 1 149.00000 418.400000
12186 2777 15630 1 149.00000 418.400000
12186 2778 12664 1 149.00000 418.400000
12186 2779 15828 1 149.00000 418.400000
12187 2780 20943 1 149.00000 418.400000
12187 2781 13477 1 149.00000 418.400000
12187 2782 14534 1 149.00000 418.400000
12187 2783 14629 1 149.00000 418.400000
12188 2784 15766 1 149.00000 418.400000
12188 2785 14399 1 149.00000 418.400000
12188 2786 14309 1 149.00000 418.400000
12188 2787 13395 1 149.00000 418.400000
12189 2788 14092 1 149.00000 418.400000
12189 2789 12935 1 149.00000 418.400000
12189 2790 15933 1 149.00000 418.400000
12190 2791 12788 1 149.00000 418.400000
12190 2792 14140 1 149.00000 418.400000
12788 2793 13108 1 149.00000 418.400000
12191 2794 16690 1 149.00000 418.400000
12191 2795 15607 1 149.00000 418.400000
12191 2796 15065 1 149.00000 418.400000
14110 2797 15607 1 149.00000 418.400000
12192 2798 16308 1 149.00000 418.400000
12192 2799 15933 1 149.00000 418.400000
12193 2800 14412 1 149.00000 418.400000
12193 2801 15114 1 149.00000 418.400000
13091 2802 14412 1 149.00000 418.400000
12194 2803 14640 1 149.00000 418.400000
12194 2804 14942 1 149.00000 418.400000
12194 2805 14609 1 149.00000 418.400000
12195 2806 12884 1 149.00000 418.400000
12195 2807 14368 1 149.00000 418.400000
12195 2808 15851 1 149.00000 418.400000
12195 2809 13199 1 149.00000 418.400000
12196 2810 14242 1 149.00000 418.400000
12196 2811 14450 1 149.00000 418.400000
12196 2812 15585 1 149.00000 418.400000
12196 2813 15160 1 149.00000 418.400000
12197 2814 14981 1 149.00000 418.400000
13921 2815 13980 1 149.00000 418.400000
12197 2816 16028 1 149.00000 418.400000
11526 2817 13921 1 149.00000 418.400000
12198 2818 12474 1 149.00000 418.400000
12198 2819 14065 1 149.00000 418.400000
12198 2820 16166 1 149.00000 418.400000
12198 2821 13719 1 149.00000 418.400000
12199 2822 16017 1 149.00000 418.400000
12199 2823 16676 1 149.00000 418.400000
12199 2824 16238 1 149.00000 418.400000
12200 2825 15729 1 149.00000 418.400000
12200 2826 16584 1 149.00000 418.400000
12200 2827 14491 1 149.00000 418.400000
12200 2828 16547 1 149.00000 418.400000
12201 2829 16365 1 149.00000 418.400000
12201 2830 16194 1 149.00000 418.400000
12201 2831 14094 1 149.00000 418.400000
12202 2832 12378 1 149.00000 418.400000
12202 2833 12754 1 149.00000 418.400000
12203 2834 12230 1 149.00000 418.400000
12203 2835 14743 1 149.00000 418.400000
12203 2836 12637 1 149.00000 418.400000
12204 2837 15551 1 149.00000 418.400000
12204 2838 15702 1 149.00000 418.400000
12204 2839 17610 1 149.00000 418.400000
12205 2840 13110 1 149.00000 418.400000
12205 2841 14815 1 149.00000 418.400000
12205 2842 13100 1 149.00000 418.400000
12205 2843 12721 1 149.00000 418.400000
12206 2844 14281 1 149.00000 418.400000
12206 2845 12439 1 149.00000 418.400000
12206 2846 14755 1 149.00000 418.400000
12206 2847 13642 1 149.00000 418.400000
12207 2848 14013 1 149.00000 418.400000
12207 2849 15329 1 149.00000 418.400000
12207 2850 12410 1 149.00000 418.400000
12208 2851 12964 1 149.00000 418.400000
12208 2852 12901 1 149.00000 418.400000
12208 2853 14247 1 149.00000 418.400000
12209 2854 16039 1 149.00000 418.400000
12209 2855 13963 1 149.00000 418.400000
12209 2856 14250 1 149.00000 418.400000
12210 2857 12449 1 149.00000 418.400000
12211 2858 13812 1 149.00000 418.400000
12211 2859 13580 1 149.00000 418.400000
12211 2860 15454 1 149.00000 418.400000
13812 2861 15338 1 149.00000 418.400000
12212 2862 13778 1 149.00000 418.400000
12212 2863 16466 1 149.00000 418.400000
12213 2864 12723 1 149.00000 418.400000
12213 2865 12804 1 149.00000 418.400000
12804 2866 15642 1 149.00000 418.400000
12214 2867 15353 1 149.00000 418.400000
12214 2868 16391 1 149.00000 418.400000
12214 2869 14505 1 149.00000 418.400000
12214 2870 13564 1 149.00000 418.400000
12215 2871 15889 1 149.00000 418.400000
12215 2872 13015 1 149.00000 418.400000
12215 2873 14354 1 149.00000 418.400000
12216 2874 14271 1 149.00000 418.400000
12216 2875 13781 1 149.00000 418.400000
12216 2876 14402 1 149.00000 418.400000
12217 2877 13942 1 149.00000 418.400000
12217 2878 12288 1 149.00000 418.400000
12217 2879 12696 1 149.00000 418.400000
12218 2880 12317 1 149.00000 418.400000
12218 2881 14494 1 149.00000 418.400000
12218 2882 13060 1 149.00000 418.400000
12218 2883 12855 1 149.00000 418.400000
12219 2884 15769 1 149.00000 418.400000
12219 2885 13610 1 149.00000 418.400000
12220 2886 15701 1 149.00000 418.400000
12220 2887 16652 1 149.00000 418.400000
12220 2888 14050 1 149.00000 418.400000
12221 2889 14657 1 149.00000 418.400000
12221 2890 15129 1 149.00000 418.400000
12221 2891 14860 1 149.00000 418.400000
12222 2892 13324 1 149.00000 418.400000
12222 2893 20903 1 149.00000 418.400000
12518 2894 14713 1 149.00000 418.400000
12222 2895 14713 1 149.00000 418.400000
12223 2896 13209 1 149.00000 418.400000
12223 2897 13244 1 149.00000 418.400000
12223 2898 15089 1 149.00000 418.400000
12223 2899 20125 1 149.00000 418.400000
12224 2900 15149 1 149.00000 418.400000
12224 2901 13630 1 149.00000 418.400000
12224 2902 14977 1 149.00000 418.400000
12225 2903 13167 1 149.00000 418.400000
12225 2904 16190 1 149.00000 418.400000
12225 2905 15766 1 149.00000 418.400000
12226 2906 13903 1 149.00000 418.400000
13520 2907 16248 1 149.00000 418.400000
12226 2908 16248 1 149.00000 418.400000
12227 2909 15229 1 149.00000 418.400000
12227 2910 14517 1 149.00000 418.400000
12227 2911 14527 1 149.00000 418.400000
12228 2912 15188 1 149.00000 418.400000
12228 2913 15044 1 149.00000 418.400000
12228 2914 20968 1 149.00000 418.400000
12229 2915 16240 1 149.00000 418.400000
12229 2916 15778 1 149.00000 418.400000
12229 2917 12715 1 149.00000 418.400000
12230 2918 15169 1 149.00000 418.400000
12230 2919 12356 1 149.00000 418.400000
12230 2920 16653 1 149.00000 418.400000
12231 2921 16301 1 149.00000 418.400000
12231 2922 14776 1 149.00000 418.400000
12233 2923 16680 1 149.00000 418.400000
12233 2924 15736 1 149.00000 418.400000
12233 2925 16477 1 149.00000 418.400000
12233 2926 16161 1 149.00000 418.400000
12234 2927 15913 1 149.00000 418.400000
12234 2928 16449 1 149.00000 418.400000
12234 2929 16263 1 149.00000 418.400000
12234 2930 15685 1 149.00000 418.400000
12235 2931 14243 1 149.00000 418.400000
12235 2932 13090 1 149.00000 418.400000
12235 2933 13779 1 149.00000 418.400000
12236 2934 16507 1 149.00000 418.400000
12236 2935 12292 1 149.00000 418.400000
12236 2936 14276 1 149.00000 418.400000
12237 2937 12893 1 149.00000 418.400000
12237 2938 15133 1 149.00000 418.400000
12237 2939 15109 1 149.00000 418.400000
12238 2940 16514 1 149.00000 418.400000
12238 2941 12563 1 149.00000 418.400000
11690 2942 12238 1 149.00000 418.400000
12563 2943 14251 1 149.00000 418.400000
12239 2944 14042 1 149.00000 418.400000
12239 2945 14905 1 149.00000 418.400000
12239 2946 16168 1 149.00000 418.400000
12240 2947 15658 1 149.00000 418.400000
12240 2948 13438 1 149.00000 418.400000
12240 2949 15820 1 149.00000 418.400000
12240 2950 16409 1 149.00000 418.400000
16478 2951 16566 1 149.00000 418.400000
16478 2952 19990 1 149.00000 418.400000
12241 2953 16478 1 149.00000 418.400000
14397 2954 16478 1 149.00000 418.400000
12242 2955 15100 1 149.00000 418.400000
12242 2956 16377 1 149.00000 418.400000
12242 2957 14010 1 149.00000 418.400000
12243 2958 15334 1 149.00000 418.400000
12243 2959 15714 1 149.00000 418.400000
12243 2960 14740 1 149.00000 418.400000
12243 2961 16009 1 149.00000 418.400000
12244 2962 13366 1 149.00000 418.400000
12244 2963 16320 1 149.00000 418.400000
12244 2964 13250 1 149.00000 418.400000
12244 2965 15639 1 149.00000 418.400000
12245 2966 13815 1 149.00000 418.400000
12245 2967 13287 1 149.00000 418.400000
12245 2968 14674 1 149.00000 418.400000
12245 2969 15931 1 149.00000 418.400000
12246 2970 15845 1 149.00000 418.400000
12246 2971 12784 1 149.00000 418.400000
12478 2972 12784 1 149.00000 418.400000
12246 2973 14159 1 149.00000 418.400000
12247 2974 12491 1 149.00000 418.400000
12247 2975 13411 1 149.00000 418.400000
12247 2976 13796 1 149.00000 418.400000
12247 2977 14525 1 149.00000 418.400000
12248 2978 14580 1 149.00000 418.400000
12248 2979 13182 1 149.00000 418.400000
12248 2980 16543 1 149.00000 418.400000
12248 2981 16481 1 149.00000 418.400000
12249 2982 13955 1 149.00000 418.400000
12249 2983 13214 1 149.00000 418.400000
12249 2984 13460 1 149.00000 418.400000
12249 2985 12896 1 149.00000 418.400000
12250 2986 17022 1 149.00000 418.400000
12250 2987 15127 1 149.00000 418.400000
12250 2988 14883 1 149.00000 418.400000
12136 2989 16570 1 149.00000 418.400000
12136 2990 17484 1 149.00000 418.400000
14678 2991 18178 1 149.00000 418.400000
15278 2992 15822 1 149.00000 418.400000
12520 2993 15822 1 149.00000 418.400000
12898 2994 15822 1 149.00000 418.400000
12251 2995 15822 1 149.00000 418.400000
12252 2996 20575 1 149.00000 418.400000
12252 2997 12878 1 149.00000 418.400000
12253 2998 15047 1 149.00000 418.400000
12253 2999 16577 1 149.00000 418.400000
12253 3000 15275 1 149.00000 418.400000
12253 3001 12779 1 149.00000 418.400000
12254 3002 12416 1 149.00000 418.400000
12254 3003 14911 1 149.00000 418.400000
12255 3004 13956 1 149.00000 418.400000
12255 3005 13123 1 149.00000 418.400000
12255 3006 14311 1 149.00000 418.400000
12256 3007 16309 1 149.00000 418.400000
13822 3008 13998 1 149.00000 418.400000
12256 3009 14567 1 149.00000 418.400000
12256 3010 13998 1 149.00000 418.400000
12258 3011 16681 1 149.00000 418.400000
12258 3012 13483 1 149.00000 418.400000
12258 3013 21023 1 149.00000 418.400000
12258 3014 16014 1 149.00000 418.400000
12259 3015 12808 1 149.00000 418.400000
12259 3016 16604 1 149.00000 418.400000
12259 3017 14442 1 149.00000 418.400000
12260 3018 14520 1 149.00000 418.400000
12260 3019 15054 1 149.00000 418.400000
12260 3020 14340 1 149.00000 418.400000
12260 3021 16157 1 149.00000 418.400000
12261 3022 14235 1 149.00000 418.400000
12261 3023 12375 1 149.00000 418.400000
12261 3024 15416 1 149.00000 418.400000
12262 3025 14020 1 149.00000 418.400000
12262 3026 12556 1 149.00000 418.400000
12262 3027 16484 1 149.00000 418.400000
12262 3028 14011 1 149.00000 418.400000
12263 3029 15927 1 149.00000 418.400000
12263 3030 15668 1 149.00000 418.400000
12263 3031 12714 1 149.00000 418.400000
12263 3032 12442 1 149.00000 418.400000
12264 3033 16091 1 149.00000 418.400000
12264 3034 19186 1 149.00000 418.400000
12264 3035 20083 1 149.00000 418.400000
12265 3036 15699 1 149.00000 418.400000
12265 3037 12982 1 149.00000 418.400000
12265 3038 12358 1 149.00000 418.400000
12266 3039 17708 1 149.00000 418.400000
12266 3040 15003 1 149.00000 418.400000
12266 3041 17918 1 149.00000 418.400000
12267 3042 14671 1 149.00000 418.400000
12268 3043 15975 1 149.00000 418.400000
12268 3044 15209 1 149.00000 418.400000
12268 3045 13074 1 149.00000 418.400000
15360 3046 15975 1 149.00000 418.400000
12269 3047 16598 1 149.00000 418.400000
12269 3048 16636 1 149.00000 418.400000
12270 3049 14368 1 149.00000 418.400000
12270 3050 15850 1 149.00000 418.400000
12270 3051 13132 1 149.00000 418.400000
12270 3052 16366 1 149.00000 418.400000
12271 3053 15710 1 149.00000 418.400000
11449 3054 12271 1 149.00000 418.400000
12271 3055 15218 1 149.00000 418.400000
11859 3056 13025 1 149.00000 418.400000
11710 3057 15289 1 149.00000 418.400000
12273 3058 14410 1 149.00000 418.400000
12273 3059 16211 1 149.00000 418.400000
12273 3060 15943 1 149.00000 418.400000
12274 3061 13374 1 149.00000 418.400000
12274 3062 16504 1 149.00000 418.400000
12275 3063 12495 1 149.00000 418.400000
12275 3064 13984 1 149.00000 418.400000
12275 3065 13824 1 149.00000 418.400000
12275 3066 16404 1 149.00000 418.400000
12276 3067 14312 1 149.00000 418.400000
12276 3068 14749 1 149.00000 418.400000
12276 3069 16653 1 149.00000 418.400000
12277 3070 14596 1 149.00000 418.400000
12277 3071 20605 1 149.00000 418.400000
12277 3072 15134 1 149.00000 418.400000
12277 3073 16466 1 149.00000 418.400000
12278 3074 13106 1 149.00000 418.400000
12278 3075 16026 1 149.00000 418.400000
12278 3076 14174 1 149.00000 418.400000
12279 3077 13611 1 149.00000 418.400000
12279 3078 16259 1 149.00000 418.400000
12279 3079 15640 1 149.00000 418.400000
12280 3080 16105 1 149.00000 418.400000
12280 3081 16544 1 149.00000 418.400000
12281 3082 16271 1 149.00000 418.400000
12281 3083 16368 1 149.00000 418.400000
13623 3084 14911 1 149.00000 418.400000
12282 3085 16100 1 149.00000 418.400000
12282 3086 13623 1 149.00000 418.400000
12283 3087 13754 1 149.00000 418.400000
12283 3088 12656 1 149.00000 418.400000
12283 3089 14777 1 149.00000 418.400000
12284 3090 13283 1 149.00000 418.400000
12284 3091 13056 1 149.00000 418.400000
12284 3092 14236 1 149.00000 418.400000
12284 3093 12325 1 149.00000 418.400000
12285 3094 14828 1 149.00000 418.400000
12285 3095 12900 1 149.00000 418.400000
12285 3096 14927 1 149.00000 418.400000
12286 3097 13818 1 149.00000 418.400000
12286 3098 13908 1 149.00000 418.400000
12286 3099 15886 1 149.00000 418.400000
12287 3100 16139 1 149.00000 418.400000
12287 3101 20350 1 149.00000 418.400000
12288 3102 14591 1 149.00000 418.400000
12288 3103 13059 1 149.00000 418.400000
14831 3104 18202 1 149.00000 418.400000
18202 3105 20572 1 149.00000 418.400000
18202 3106 20059 1 149.00000 418.400000
15472 3107 16314 1 149.00000 418.400000
12624 3108 15472 1 149.00000 418.400000
12289 3109 18238 1 149.00000 418.400000
12290 3110 16452 1 149.00000 418.400000
12290 3111 13580 1 149.00000 418.400000
12290 3112 14357 1 149.00000 418.400000
12291 3113 14269 1 149.00000 418.400000
12291 3114 16573 1 149.00000 418.400000
12291 3115 12997 1 149.00000 418.400000
12291 3116 16496 1 149.00000 418.400000
12292 3117 13282 1 149.00000 418.400000
12292 3118 14272 1 149.00000 418.400000
12293 3119 20407 1 149.00000 418.400000
12293 3120 14923 1 149.00000 418.400000
12293 3121 15474 1 149.00000 418.400000
12294 3122 14897 1 149.00000 418.400000
12294 3123 15031 1 149.00000 418.400000
12294 3124 15390 1 149.00000 418.400000
12294 3125 15491 1 149.00000 418.400000
12295 3126 14682 1 149.00000 418.400000
12295 3127 15743 1 149.00000 418.400000
12295 3128 16509 1 149.00000 418.400000
12295 3129 16590 1 149.00000 418.400000
12296 3130 14599 1 149.00000 418.400000
12296 3131 13677 1 149.00000 418.400000
12296 3132 12375 1 149.00000 418.400000
14167 3133 15747 1 149.00000 418.400000
12297 3134 14167 1 149.00000 418.400000
14167 3135 15230 1 149.00000 418.400000
12297 3136 15654 1 149.00000 418.400000
12298 3137 16038 1 149.00000 418.400000
12298 3138 15266 1 149.00000 418.400000
12298 3139 13599 1 149.00000 418.400000
12299 3140 16241 1 149.00000 418.400000
12299 3141 15449 1 149.00000 418.400000
12299 3142 13203 1 149.00000 418.400000
12299 3143 14026 1 149.00000 418.400000
12300 3144 14176 1 149.00000 418.400000
12300 3145 14922 1 149.00000 418.400000
12300 3146 13456 1 149.00000 418.400000
15738 3147 18214 1 149.00000 418.400000
18226 3148 20041 1 149.00000 418.400000
15942 3149 18226 1 149.00000 418.400000
12301 3150 14010 1 149.00000 418.400000
12301 3151 13446 1 149.00000 418.400000
12301 3152 12347 1 149.00000 418.400000
12301 3153 13127 1 149.00000 418.400000
12302 3154 15715 1 149.00000 418.400000
12302 3155 16200 1 149.00000 418.400000
12302 3156 13364 1 149.00000 418.400000
12303 3157 13974 1 149.00000 418.400000
12303 3158 15890 1 149.00000 418.400000
12303 3159 16215 1 149.00000 418.400000
12303 3160 15151 1 149.00000 418.400000
16651 3161 18238 1 149.00000 418.400000
12304 3162 16453 1 149.00000 418.400000
12304 3163 15104 1 149.00000 418.400000
12304 3164 12634 1 149.00000 418.400000
12305 3165 13932 1 149.00000 418.400000
12305 3166 13901 1 149.00000 418.400000
12305 3167 12341 1 149.00000 418.400000
12305 3168 12585 1 149.00000 418.400000
12306 3169 14858 1 149.00000 418.400000
12306 3170 15062 1 149.00000 418.400000
12306 3171 13086 1 149.00000 418.400000
12306 3172 13095 1 149.00000 418.400000
12307 3173 13778 1 149.00000 418.400000
12307 3174 14408 1 149.00000 418.400000
12307 3175 13075 1 149.00000 418.400000
12307 3176 13011 1 149.00000 418.400000
12308 3177 13602 1 149.00000 418.400000
12308 3178 15010 1 149.00000 418.400000
12308 3179 13968 1 149.00000 418.400000
12308 3180 12890 1 149.00000 418.400000
12309 3181 13487 1 149.00000 418.400000
12309 3182 13680 1 149.00000 418.400000
12309 3183 15527 1 149.00000 418.400000
11410 3184 17064 1 149.00000 418.400000
12310 3185 16360 1 149.00000 418.400000
12310 3186 13030 1 149.00000 418.400000
12310 3187 14530 1 149.00000 418.400000
14777 3188 18250 1 149.00000 418.400000
18250 3189 20080 1 149.00000 418.400000
12311 3190 14416 1 149.00000 418.400000
12311 3191 13885 1 149.00000 418.400000
12311 3192 15996 1 149.00000 418.400000
12311 3193 12562 1 149.00000 418.400000
12312 3194 16261 1 149.00000 418.400000
12312 3195 20815 1 149.00000 418.400000
12484 3196 16261 1 149.00000 418.400000
12312 3197 14092 1 149.00000 418.400000
12313 3198 16490 1 149.00000 418.400000
12313 3199 13475 1 149.00000 418.400000
12313 3200 13660 1 149.00000 418.400000
12313 3201 16690 1 149.00000 418.400000
12314 3202 13935 1 149.00000 418.400000
12314 3203 13599 1 149.00000 418.400000
12314 3204 15045 1 149.00000 418.400000
12314 3205 14483 1 149.00000 418.400000
12315 3206 16028 1 149.00000 418.400000
12315 3207 20878 1 149.00000 418.400000
12315 3208 14228 1 149.00000 418.400000
12316 3209 15238 1 149.00000 418.400000
12316 3210 14333 1 149.00000 418.400000
12316 3211 15885 1 149.00000 418.400000
12316 3212 15254 1 149.00000 418.400000
12317 3213 12368 1 149.00000 418.400000
12398 3214 15037 1 149.00000 418.400000
12317 3215 12398 1 149.00000 418.400000
12318 3216 13134 1 149.00000 418.400000
12318 3217 12331 1 149.00000 418.400000
12318 3218 14699 1 149.00000 418.400000
12319 3219 12726 1 149.00000 418.400000
12319 3220 20353 1 149.00000 418.400000
12319 3221 20898 1 149.00000 418.400000
12319 3222 12331 1 149.00000 418.400000
18262 3223 20326 1 149.00000 418.400000
16058 3224 18262 1 149.00000 418.400000
12320 3225 16358 1 149.00000 418.400000
12320 3226 14240 1 149.00000 418.400000
12320 3227 13305 1 149.00000 418.400000
12320 3228 13654 1 149.00000 418.400000
12321 3229 15561 1 149.00000 418.400000
12321 3230 13691 1 149.00000 418.400000
12321 3231 12706 1 149.00000 418.400000
12321 3232 12592 1 149.00000 418.400000
12322 3233 13135 1 149.00000 418.400000
11780 3234 12602 1 149.00000 418.400000
11780 3235 14003 1 149.00000 418.400000
12323 3236 13230 1 149.00000 418.400000
12323 3237 15259 1 149.00000 418.400000
12323 3238 16694 1 149.00000 418.400000
12323 3239 13310 1 149.00000 418.400000
12324 3240 13994 1 149.00000 418.400000
12324 3241 15138 1 149.00000 418.400000
12324 3242 16076 1 149.00000 418.400000
12325 3243 15661 1 149.00000 418.400000
12325 3244 13569 1 149.00000 418.400000
12325 3245 12981 1 149.00000 418.400000
12326 3246 13095 1 149.00000 418.400000
12326 3247 13754 1 149.00000 418.400000
12326 3248 18250 1 149.00000 418.400000
12326 3249 12525 1 149.00000 418.400000
12327 3250 12509 1 149.00000 418.400000
12327 3251 14366 1 149.00000 418.400000
12327 3252 13944 1 149.00000 418.400000
12328 3253 13070 1 149.00000 418.400000
12328 3254 15843 1 149.00000 418.400000
12328 3255 13143 1 149.00000 418.400000
12329 3256 16323 1 149.00000 418.400000
12329 3257 14341 1 149.00000 418.400000
12329 3258 15590 1 149.00000 418.400000
12329 3259 12438 1 149.00000 418.400000
12330 3260 13906 1 149.00000 418.400000
12330 3261 13816 1 149.00000 418.400000
12330 3262 13691 1 149.00000 418.400000
12330 3263 14017 1 149.00000 418.400000
12331 3264 14288 1 149.00000 418.400000
12332 3265 13203 1 149.00000 418.400000
12332 3266 12695 1 149.00000 418.400000
12332 3267 13085 1 149.00000 418.400000
12332 3268 13527 1 149.00000 418.400000
12333 3269 15689 1 149.00000 418.400000
12333 3270 13736 1 149.00000 418.400000
12333 3271 12685 1 149.00000 418.400000
12333 3272 14584 1 149.00000 418.400000
12334 3273 13475 1 149.00000 418.400000
12334 3274 12447 1 149.00000 418.400000
12334 3275 16665 1 149.00000 418.400000
12334 3276 15809 1 149.00000 418.400000
12335 3277 15557 1 149.00000 418.400000
12335 3278 15045 1 149.00000 418.400000
12336 3279 12524 1 149.00000 418.400000
12336 3280 15479 1 149.00000 418.400000
12336 3281 13654 1 149.00000 418.400000
12337 3282 16587 1 149.00000 418.400000
12337 3283 16676 1 149.00000 418.400000
12599 3284 18274 1 149.00000 418.400000
18274 3285 20446 1 149.00000 418.400000
12338 3286 13262 1 149.00000 418.400000
12338 3287 15853 1 149.00000 418.400000
12339 3288 13696 1 149.00000 418.400000
12339 3289 13468 1 149.00000 418.400000
12339 3290 13317 1 149.00000 418.400000
13020 3291 13597 1 149.00000 418.400000
12340 3292 13576 1 149.00000 418.400000
12340 3293 13020 1 149.00000 418.400000
12340 3294 13442 1 149.00000 418.400000
12341 3295 13621 1 149.00000 418.400000
12341 3296 15032 1 149.00000 418.400000
12341 3297 14087 1 149.00000 418.400000
13330 3298 13915 1 149.00000 418.400000
12342 3299 12836 1 149.00000 418.400000
12342 3300 13330 1 149.00000 418.400000
12342 3301 19222 1 149.00000 418.400000
13306 3302 18286 1 149.00000 418.400000
18286 3303 18658 1 149.00000 418.400000
15503 3304 18286 1 149.00000 418.400000
12343 3305 15464 1 149.00000 418.400000
12343 3306 14359 1 149.00000 418.400000
12343 3307 15200 1 149.00000 418.400000
12343 3308 12550 1 149.00000 418.400000
12159 3309 12344 1 149.00000 418.400000
12344 3310 12853 1 149.00000 418.400000
12344 3311 13799 1 149.00000 418.400000
12344 3312 16275 1 149.00000 418.400000
12345 3313 15973 1 149.00000 418.400000
12345 3314 16096 1 149.00000 418.400000
12345 3315 12471 1 149.00000 418.400000
12345 3316 16276 1 149.00000 418.400000
12346 3317 14445 1 149.00000 418.400000
12346 3318 16004 1 149.00000 418.400000
12346 3319 14535 1 149.00000 418.400000
12347 3320 15681 1 149.00000 418.400000
12347 3321 16264 1 149.00000 418.400000
12347 3322 13762 1 149.00000 418.400000
12348 3323 14836 1 149.00000 418.400000
12348 3324 13221 1 149.00000 418.400000
12349 3325 13495 1 149.00000 418.400000
12349 3326 14488 1 149.00000 418.400000
12349 3327 13656 1 149.00000 418.400000
13206 3328 14488 1 149.00000 418.400000
12350 3329 13781 1 149.00000 418.400000
12350 3330 13489 1 149.00000 418.400000
12350 3331 12949 1 149.00000 418.400000
12350 3332 16868 1 149.00000 418.400000
18298 3333 20305 1 149.00000 418.400000
14162 3334 18298 1 149.00000 418.400000
14125 3335 18298 1 149.00000 418.400000
12351 3336 15508 1 149.00000 418.400000
12351 3337 12786 1 149.00000 418.400000
12352 3338 15709 1 149.00000 418.400000
12352 3339 16080 1 149.00000 418.400000
12353 3340 13725 1 149.00000 418.400000
12353 3341 13328 1 149.00000 418.400000
12353 3342 13431 1 149.00000 418.400000
12353 3343 15913 1 149.00000 418.400000
12354 3344 13887 1 149.00000 418.400000
12354 3345 20479 1 149.00000 418.400000
12354 3346 12720 1 149.00000 418.400000
12354 3347 17974 1 149.00000 418.400000
12355 3348 14848 1 149.00000 418.400000
12355 3349 14599 1 149.00000 418.400000
12355 3350 12684 1 149.00000 418.400000
13924 3351 18310 1 149.00000 418.400000
15300 3352 18310 1 149.00000 418.400000
16416 3353 18310 1 149.00000 418.400000
12356 3354 14711 1 149.00000 418.400000
12356 3355 16272 1 149.00000 418.400000
12356 3356 14749 1 149.00000 418.400000
14159 3357 16686 1 149.00000 418.400000
12357 3358 19558 1 149.00000 418.400000
12357 3359 14159 1 149.00000 418.400000
12357 3360 12570 1 149.00000 418.400000
12358 3361 14653 1 149.00000 418.400000
12358 3362 16398 1 149.00000 418.400000
12358 3363 13137 1 149.00000 418.400000
12359 3364 12602 1 149.00000 418.400000
12359 3365 18658 1 149.00000 418.400000
13628 3366 16489 1 149.00000 418.400000
12359 3367 13628 1 149.00000 418.400000
12360 3368 13266 1 149.00000 418.400000
12360 3369 13276 1 149.00000 418.400000
12360 3370 15854 1 149.00000 418.400000
13481 3371 18322 1 149.00000 418.400000
12361 3372 13629 1 149.00000 418.400000
12361 3373 13256 1 149.00000 418.400000
12361 3374 12378 1 149.00000 418.400000
12361 3375 15485 1 149.00000 418.400000
14702 3376 18334 1 149.00000 418.400000
15452 3377 18334 1 149.00000 418.400000
15408 3378 18334 1 149.00000 418.400000
13466 3379 18346 1 149.00000 418.400000
18346 3380 20599 1 149.00000 418.400000
12362 3381 14875 1 149.00000 418.400000
12362 3382 14761 1 149.00000 418.400000
12362 3383 12848 1 149.00000 418.400000
12362 3384 14131 1 149.00000 418.400000
15057 3385 18358 1 149.00000 418.400000
12898 3386 18358 1 149.00000 418.400000
13560 3387 18358 1 149.00000 418.400000
12363 3388 15999 1 149.00000 418.400000
12363 3389 13193 1 149.00000 418.400000
12363 3390 14520 1 149.00000 418.400000
12363 3391 13768 1 149.00000 418.400000
12364 3392 14360 1 149.00000 418.400000
12364 3393 12992 1 149.00000 418.400000
12364 3394 16615 1 149.00000 418.400000
12364 3395 13740 1 149.00000 418.400000
12365 3396 12629 1 149.00000 418.400000
12365 3397 14287 1 149.00000 418.400000
12365 3398 16569 1 149.00000 418.400000
12366 3399 16126 1 149.00000 418.400000
12366 3400 13556 1 149.00000 418.400000
12366 3401 13967 1 149.00000 418.400000
12367 3402 14879 1 149.00000 418.400000
12367 3403 13835 1 149.00000 418.400000
12367 3404 15364 1 149.00000 418.400000
12367 3405 14290 1 149.00000 418.400000
12368 3406 16286 1 149.00000 418.400000
12669 3407 14985 1 149.00000 418.400000
12369 3408 12669 1 149.00000 418.400000
12369 3409 15324 1 149.00000 418.400000
12370 3410 16341 1 149.00000 418.400000
12370 3411 16513 1 149.00000 418.400000
12370 3412 14551 1 149.00000 418.400000
12370 3413 16420 1 149.00000 418.400000
12371 3414 13140 1 149.00000 418.400000
13140 3415 14168 1 149.00000 418.400000
12371 3416 12961 1 149.00000 418.400000
14764 3417 18370 1 149.00000 418.400000
18370 3418 20938 1 149.00000 418.400000
13485 3419 18370 1 149.00000 418.400000
12372 3420 14729 1 149.00000 418.400000
12372 3421 15164 1 149.00000 418.400000
12372 3422 15713 1 149.00000 418.400000
12372 3423 15750 1 149.00000 418.400000
12373 3424 15697 1 149.00000 418.400000
12373 3425 20119 1 149.00000 418.400000
12374 3426 15563 1 149.00000 418.400000
12374 3427 14097 1 149.00000 418.400000
12374 3428 16068 1 149.00000 418.400000
12374 3429 14758 1 149.00000 418.400000
15384 3430 18382 1 149.00000 418.400000
14502 3431 18382 1 149.00000 418.400000
12229 3432 12375 1 149.00000 418.400000
12375 3433 14161 1 149.00000 418.400000
12388 3434 18190 1 149.00000 418.400000
12376 3435 14788 1 149.00000 418.400000
12376 3436 12417 1 149.00000 418.400000
12376 3437 14973 1 149.00000 418.400000
12376 3438 14725 1 149.00000 418.400000
12377 3439 12992 1 149.00000 418.400000
12377 3440 13043 1 149.00000 418.400000
12377 3441 16487 1 149.00000 418.400000
12377 3442 15542 1 149.00000 418.400000
12378 3443 20317 1 149.00000 418.400000
12379 3444 13118 1 149.00000 418.400000
12379 3445 13524 1 149.00000 418.400000
12379 3446 13786 1 149.00000 418.400000
12379 3447 13585 1 149.00000 418.400000
12380 3448 13005 1 149.00000 418.400000
12380 3449 14628 1 149.00000 418.400000
12317 3450 12380 1 149.00000 418.400000
12380 3451 15739 1 149.00000 418.400000
12381 3452 14652 1 149.00000 418.400000
12381 3453 13329 1 149.00000 418.400000
12382 3454 14769 1 149.00000 418.400000
12382 3455 12414 1 149.00000 418.400000
12382 3456 15808 1 149.00000 418.400000
12383 3457 16270 1 149.00000 418.400000
14791 3458 16623 1 149.00000 418.400000
12383 3459 12962 1 149.00000 418.400000
12384 3460 15704 1 149.00000 418.400000
12384 3461 14337 1 149.00000 418.400000
12384 3462 15910 1 149.00000 418.400000
12384 3463 20845 1 149.00000 418.400000
11605 3464 12385 1 149.00000 418.400000
12385 3465 14838 1 149.00000 418.400000
12385 3466 15205 1 149.00000 418.400000
12385 3467 16059 1 149.00000 418.400000
12386 3468 15985 1 149.00000 418.400000
12386 3469 14153 1 149.00000 418.400000
12386 3470 20767 1 149.00000 418.400000
12387 3471 13640 1 149.00000 418.400000
12387 3472 15018 1 149.00000 418.400000
12387 3473 15014 1 149.00000 418.400000
12387 3474 13449 1 149.00000 418.400000
12388 3475 15676 1 149.00000 418.400000
12388 3476 14394 1 149.00000 418.400000
12467 3477 18394 1 149.00000 418.400000
14246 3478 18394 1 149.00000 418.400000
18394 3479 20053 1 149.00000 418.400000
12389 3480 13453 1 149.00000 418.400000
12389 3481 15994 1 149.00000 418.400000
12389 3482 14265 1 149.00000 418.400000
12389 3483 13977 1 149.00000 418.400000
12390 3484 14978 1 149.00000 418.400000
12390 3485 16685 1 149.00000 418.400000
12391 3486 15525 1 149.00000 418.400000
12391 3487 13447 1 149.00000 418.400000
12391 3488 14889 1 149.00000 418.400000
12392 3489 16519 1 149.00000 418.400000
12257 3490 12392 1 149.00000 418.400000
12392 3491 13234 1 149.00000 418.400000
19999 3492 20533 1 149.00000 418.400000
19999 3493 20578 1 149.00000 418.400000
16237 3494 20281 1 149.00000 418.400000
12393 3495 13751 1 149.00000 418.400000
12393 3496 15178 1 149.00000 418.400000
12393 3497 15893 1 149.00000 418.400000
12393 3498 14969 1 149.00000 418.400000
12394 3499 16356 1 149.00000 418.400000
12394 3500 18574 1 149.00000 418.400000
12394 3501 13950 1 149.00000 418.400000
12394 3502 14935 1 149.00000 418.400000
12395 3503 13574 1 149.00000 418.400000
12395 3504 20038 1 149.00000 418.400000
12395 3505 16191 1 149.00000 418.400000
12396 3506 14369 1 149.00000 418.400000
12396 3507 15113 1 149.00000 418.400000
12396 3508 14965 1 149.00000 418.400000
12396 3509 15957 1 149.00000 418.400000
12397 3510 13906 1 149.00000 418.400000
12397 3511 13919 1 149.00000 418.400000
12397 3512 15118 1 149.00000 418.400000
12397 3513 16421 1 149.00000 418.400000
12398 3514 15012 1 149.00000 418.400000
12398 3515 15982 1 149.00000 418.400000
12399 3516 15464 1 149.00000 418.400000
12399 3517 12717 1 149.00000 418.400000
12400 3518 14278 1 149.00000 418.400000
12400 3519 13671 1 149.00000 418.400000
12400 3520 13103 1 149.00000 418.400000
12401 3521 15923 1 149.00000 418.400000
12401 3522 13448 1 149.00000 418.400000
12401 3523 16038 1 149.00000 418.400000
12401 3524 16032 1 149.00000 418.400000
12402 3525 14362 1 149.00000 418.400000
12402 3526 15513 1 149.00000 418.400000
12402 3527 20515 1 149.00000 418.400000
12403 3528 16554 1 149.00000 418.400000
12403 3529 16284 1 149.00000 418.400000
12403 3530 15745 1 149.00000 418.400000
12404 3531 13991 1 149.00000 418.400000
12404 3532 13336 1 149.00000 418.400000
12404 3533 13799 1 149.00000 418.400000
12404 3534 15866 1 149.00000 418.400000
12405 3535 12867 1 149.00000 418.400000
12405 3536 16685 1 149.00000 418.400000
12405 3537 18030 1 149.00000 418.400000
12406 3538 16611 1 149.00000 418.400000
12406 3539 19318 1 149.00000 418.400000
12406 3540 16784 1 149.00000 418.400000
12406 3541 14232 1 149.00000 418.400000
12407 3542 12589 1 149.00000 418.400000
12407 3543 20933 1 149.00000 418.400000
12407 3544 14439 1 149.00000 418.400000
12407 3545 14645 1 149.00000 418.400000
12408 3546 16070 1 149.00000 418.400000
12408 3547 12766 1 149.00000 418.400000
12408 3548 14869 1 149.00000 418.400000
12409 3549 20110 1 149.00000 418.400000
12409 3550 14796 1 149.00000 418.400000
12409 3551 14920 1 149.00000 418.400000
12409 3552 15572 1 149.00000 418.400000
12410 3553 14384 1 149.00000 418.400000
12410 3554 13866 1 149.00000 418.400000
12411 3555 16413 1 149.00000 418.400000
12411 3556 12645 1 149.00000 418.400000
12411 3557 16459 1 149.00000 418.400000
12411 3558 15145 1 149.00000 418.400000
18406 3559 20536 1 149.00000 418.400000
17540 3560 18406 1 149.00000 418.400000
13887 3561 18406 1 149.00000 418.400000
15987 3562 16612 1 149.00000 418.400000
12412 3563 12503 1 149.00000 418.400000
12412 3564 15987 1 149.00000 418.400000
13027 3565 15987 1 149.00000 418.400000
13732 3566 18418 1 149.00000 418.400000
18418 3567 20659 1 149.00000 418.400000
18418 3568 20512 1 149.00000 418.400000
18430 3569 20998 1 149.00000 418.400000
15961 3570 18430 1 149.00000 418.400000
12413 3571 14726 1 149.00000 418.400000
12413 3572 13445 1 149.00000 418.400000
12413 3573 14568 1 149.00000 418.400000
12413 3574 12656 1 149.00000 418.400000
12414 3575 13007 1 149.00000 418.400000
12414 3576 16399 1 149.00000 418.400000
11859 3577 13453 1 149.00000 418.400000
12415 3578 13573 1 149.00000 418.400000
12415 3579 14265 1 149.00000 418.400000
12416 3580 16354 1 149.00000 418.400000
12416 3581 15788 1 149.00000 418.400000
12416 3582 15546 1 149.00000 418.400000
12417 3583 14499 1 149.00000 418.400000
12418 3584 15314 1 149.00000 418.400000
12418 3585 15731 1 149.00000 418.400000
12418 3586 13116 1 149.00000 418.400000
13246 3587 16426 1 149.00000 418.400000
12419 3588 13246 1 149.00000 418.400000
12419 3589 16520 1 149.00000 418.400000
12419 3590 13360 1 149.00000 418.400000
12420 3591 15665 1 149.00000 418.400000
12420 3592 12752 1 149.00000 418.400000
12420 3593 13104 1 149.00000 418.400000
12420 3594 15321 1 149.00000 418.400000
12421 3595 13936 1 149.00000 418.400000
12421 3596 16080 1 149.00000 418.400000
12421 3597 14533 1 149.00000 418.400000
12422 3598 15072 1 149.00000 418.400000
12422 3599 12603 1 149.00000 418.400000
12422 3600 12514 1 149.00000 418.400000
18442 3601 20416 1 149.00000 418.400000
12423 3602 14751 1 149.00000 418.400000
12423 3603 19582 1 149.00000 418.400000
12423 3604 19570 1 149.00000 418.400000
12424 3605 14472 1 149.00000 418.400000
12424 3606 14104 1 149.00000 418.400000
12424 3607 14508 1 149.00000 418.400000
12424 3608 14390 1 149.00000 418.400000
12425 3609 15271 1 149.00000 418.400000
12425 3610 14317 1 149.00000 418.400000
12425 3611 16189 1 149.00000 418.400000
12425 3612 15453 1 149.00000 418.400000
12426 3613 14982 1 149.00000 418.400000
12426 3614 12843 1 149.00000 418.400000
12426 3615 15098 1 149.00000 418.400000
12426 3616 13405 1 149.00000 418.400000
11820 3617 15199 1 149.00000 418.400000
12427 3618 13816 1 149.00000 418.400000
12427 3619 13083 1 149.00000 418.400000
12428 3620 15354 1 149.00000 418.400000
12428 3621 14611 1 149.00000 418.400000
12428 3622 15783 1 149.00000 418.400000
12429 3623 12739 1 149.00000 418.400000
12429 3624 15826 1 149.00000 418.400000
12924 3625 15826 1 149.00000 418.400000
12429 3626 16475 1 149.00000 418.400000
12430 3627 18946 1 149.00000 418.400000
13119 3628 20359 1 149.00000 418.400000
12431 3629 13865 1 149.00000 418.400000
13865 3630 15690 1 149.00000 418.400000
12431 3631 15327 1 149.00000 418.400000
12432 3632 12925 1 149.00000 418.400000
12432 3633 21013 1 149.00000 418.400000
12432 3634 13811 1 149.00000 418.400000
17302 3635 21013 1 149.00000 418.400000
12433 3636 16088 1 149.00000 418.400000
12433 3637 14147 1 149.00000 418.400000
12434 3638 15776 1 149.00000 418.400000
12434 3639 15797 1 149.00000 418.400000
12434 3640 16330 1 149.00000 418.400000
12434 3641 14277 1 149.00000 418.400000
12435 3642 15647 1 149.00000 418.400000
12435 3643 15135 1 149.00000 418.400000
12436 3644 17288 1 149.00000 418.400000
12436 3645 19618 1 149.00000 418.400000
12437 3646 14367 1 149.00000 418.400000
12437 3647 13545 1 149.00000 418.400000
12437 3648 13027 1 149.00000 418.400000
12438 3649 13326 1 149.00000 418.400000
12438 3650 15334 1 149.00000 418.400000
12439 3651 15937 1 149.00000 418.400000
12439 3652 12563 1 149.00000 418.400000
12439 3653 16368 1 149.00000 418.400000
12440 3654 13258 1 149.00000 418.400000
11996 3655 13943 1 149.00000 418.400000
12440 3656 14118 1 149.00000 418.400000
12440 3657 13943 1 149.00000 418.400000
12441 3658 16376 1 149.00000 418.400000
12441 3659 15122 1 149.00000 418.400000
12441 3660 15206 1 149.00000 418.400000
12442 3661 14918 1 149.00000 418.400000
12442 3662 15783 1 149.00000 418.400000
12442 3663 15122 1 149.00000 418.400000
12443 3664 12658 1 149.00000 418.400000
12443 3665 13405 1 149.00000 418.400000
12443 3666 13935 1 149.00000 418.400000
12443 3667 14145 1 149.00000 418.400000
12444 3668 14882 1 149.00000 418.400000
12444 3669 14752 1 149.00000 418.400000
12444 3670 12529 1 149.00000 418.400000
12444 3671 16199 1 149.00000 418.400000
12445 3672 13233 1 149.00000 418.400000
12445 3673 14560 1 149.00000 418.400000
12445 3674 14298 1 149.00000 418.400000
12445 3675 14610 1 149.00000 418.400000
16456 3676 18454 1 149.00000 418.400000
18454 3677 20431 1 149.00000 418.400000
12446 3678 15579 1 149.00000 418.400000
12446 3679 12837 1 149.00000 418.400000
12446 3680 15713 1 149.00000 418.400000
12447 3681 15654 1 149.00000 418.400000
12447 3682 13938 1 149.00000 418.400000
12448 3683 16041 1 149.00000 418.400000
12448 3684 16275 1 149.00000 418.400000
12448 3685 15612 1 149.00000 418.400000
12449 3686 12894 1 149.00000 418.400000
12449 3687 12626 1 149.00000 418.400000
12450 3688 12898 1 149.00000 418.400000
12450 3689 15791 1 149.00000 418.400000
12450 3690 16069 1 149.00000 418.400000
12451 3691 14489 1 149.00000 418.400000
12451 3692 15443 1 149.00000 418.400000
12451 3693 13214 1 149.00000 418.400000
12452 3694 16474 1 149.00000 418.400000
11591 3695 12452 1 149.00000 418.400000
12452 3696 14886 1 149.00000 418.400000
12452 3697 16493 1 149.00000 418.400000
12453 3698 13837 1 149.00000 418.400000
12453 3699 13784 1 149.00000 418.400000
12453 3700 15242 1 149.00000 418.400000
12453 3701 12699 1 149.00000 418.400000
12454 3702 13434 1 149.00000 418.400000
12454 3703 13977 1 149.00000 418.400000
12455 3704 14979 1 149.00000 418.400000
12455 3705 15990 1 149.00000 418.400000
12455 3706 12519 1 149.00000 418.400000
12455 3707 13722 1 149.00000 418.400000
13197 3708 14169 1 149.00000 418.400000
12456 3709 13197 1 149.00000 418.400000
12456 3710 16634 1 149.00000 418.400000
12456 3711 16130 1 149.00000 418.400000
12457 3712 13439 1 149.00000 418.400000
12457 3713 12855 1 149.00000 418.400000
13439 3714 14148 1 149.00000 418.400000
12457 3715 15224 1 149.00000 418.400000
12458 3716 16016 1 149.00000 418.400000
12458 3717 12918 1 149.00000 418.400000
12458 3718 16264 1 149.00000 418.400000
12458 3719 13483 1 149.00000 418.400000
12459 3720 13688 1 149.00000 418.400000
12459 3721 12676 1 149.00000 418.400000
12459 3722 14115 1 149.00000 418.400000
12460 3723 14372 1 149.00000 418.400000
12460 3724 14062 1 149.00000 418.400000
12460 3725 12791 1 149.00000 418.400000
12461 3726 15575 1 149.00000 418.400000
12461 3727 20596 1 149.00000 418.400000
12462 3728 13512 1 149.00000 418.400000
13342 3729 13512 1 149.00000 418.400000
12462 3730 15401 1 149.00000 418.400000
12462 3731 16315 1 149.00000 418.400000
12463 3732 16553 1 149.00000 418.400000
12463 3733 13044 1 149.00000 418.400000
12463 3734 14466 1 149.00000 418.400000
12463 3735 16593 1 149.00000 418.400000
18466 3736 20863 1 149.00000 418.400000
16013 3737 18466 1 149.00000 418.400000
12464 3738 16649 1 149.00000 418.400000
12357 3739 12464 1 149.00000 418.400000
12464 3740 20581 1 149.00000 418.400000
12465 3741 14433 1 149.00000 418.400000
12465 3742 16184 1 149.00000 418.400000
12465 3743 12999 1 149.00000 418.400000
12465 3744 15633 1 149.00000 418.400000
12466 3745 14998 1 149.00000 418.400000
12466 3746 16639 1 149.00000 418.400000
12466 3747 13160 1 149.00000 418.400000
12466 3748 16579 1 149.00000 418.400000
12467 3749 13023 1 149.00000 418.400000
12467 3750 16594 1 149.00000 418.400000
12468 3751 12903 1 149.00000 418.400000
12468 3752 16530 1 149.00000 418.400000
12468 3753 12858 1 149.00000 418.400000
12468 3754 12515 1 149.00000 418.400000
12469 3755 13742 1 149.00000 418.400000
12469 3756 14348 1 149.00000 418.400000
12469 3757 16274 1 149.00000 418.400000
12469 3758 12744 1 149.00000 418.400000
12125 3759 12707 1 149.00000 418.400000
12470 3760 14991 1 149.00000 418.400000
12470 3761 16396 1 149.00000 418.400000
12471 3762 13465 1 149.00000 418.400000
12471 3763 16199 1 149.00000 418.400000
12472 3764 14285 1 149.00000 418.400000
12472 3765 16108 1 149.00000 418.400000
12473 3766 13805 1 149.00000 418.400000
12473 3767 14035 1 149.00000 418.400000
12473 3768 15237 1 149.00000 418.400000
12473 3769 14799 1 149.00000 418.400000
11669 3770 15723 1 149.00000 418.400000
18478 3771 20044 1 149.00000 418.400000
14418 3772 18478 1 149.00000 418.400000
12475 3773 20221 1 149.00000 418.400000
12475 3774 13749 1 149.00000 418.400000
12475 3775 20824 1 149.00000 418.400000
12476 3776 16647 1 149.00000 418.400000
12476 3777 12897 1 149.00000 418.400000
12476 3778 12914 1 149.00000 418.400000
12476 3779 19978 1 149.00000 418.400000
12477 3780 15601 1 149.00000 418.400000
12477 3781 14360 1 149.00000 418.400000
12477 3782 15687 1 149.00000 418.400000
12477 3783 12735 1 149.00000 418.400000
12478 3784 16381 1 149.00000 418.400000
12478 3785 16084 1 149.00000 418.400000
12478 3786 13618 1 149.00000 418.400000
12479 3787 13376 1 149.00000 418.400000
12479 3788 12484 1 149.00000 418.400000
12479 3789 13088 1 149.00000 418.400000
12480 3790 13182 1 149.00000 418.400000
12480 3791 15224 1 149.00000 418.400000
12480 3792 14658 1 149.00000 418.400000
12481 3793 14738 1 149.00000 418.400000
12481 3794 12954 1 149.00000 418.400000
12481 3795 16128 1 149.00000 418.400000
11792 3796 12481 1 149.00000 418.400000
12482 3797 13479 1 149.00000 418.400000
12482 3798 12670 1 149.00000 418.400000
12482 3799 13326 1 149.00000 418.400000
12482 3800 16390 1 149.00000 418.400000
12483 3801 16001 1 149.00000 418.400000
12483 3802 13108 1 149.00000 418.400000
12483 3803 13761 1 149.00000 418.400000
12483 3804 13781 1 149.00000 418.400000
12479 3805 12504 1 149.00000 418.400000
12484 3806 12968 1 149.00000 418.400000
12484 3807 15195 1 149.00000 418.400000
12485 3808 15182 1 149.00000 418.400000
12485 3809 14880 1 149.00000 418.400000
12485 3810 12809 1 149.00000 418.400000
12485 3811 14172 1 149.00000 418.400000
14631 3812 16646 1 149.00000 418.400000
12486 3813 13304 1 149.00000 418.400000
12486 3814 16502 1 149.00000 418.400000
12486 3815 14631 1 149.00000 418.400000
12487 3816 14542 1 149.00000 418.400000
12487 3817 13875 1 149.00000 418.400000
12487 3818 13416 1 149.00000 418.400000
12488 3819 14076 1 149.00000 418.400000
12488 3820 14729 1 149.00000 418.400000
12488 3821 14043 1 149.00000 418.400000
12488 3822 15115 1 149.00000 418.400000
12489 3823 15215 1 149.00000 418.400000
12489 3824 14618 1 149.00000 418.400000
12489 3825 14812 1 149.00000 418.400000
12490 3826 15982 1 149.00000 418.400000
12490 3827 14079 1 149.00000 418.400000
12490 3828 13060 1 149.00000 418.400000
12491 3829 16421 1 149.00000 418.400000
12491 3830 15200 1 149.00000 418.400000
12491 3831 14824 1 149.00000 418.400000
11931 3832 12492 1 149.00000 418.400000
14259 3833 16562 1 149.00000 418.400000
12492 3834 15132 1 149.00000 418.400000
12493 3835 15713 1 149.00000 418.400000
12493 3836 14090 1 149.00000 418.400000
12493 3837 16517 1 149.00000 418.400000
12494 3838 14325 1 149.00000 418.400000
12494 3839 13763 1 149.00000 418.400000
12494 3840 14055 1 149.00000 418.400000
12494 3841 16311 1 149.00000 418.400000
12495 3842 13052 1 149.00000 418.400000
12495 3843 14911 1 149.00000 418.400000
12495 3844 16007 1 149.00000 418.400000
12496 3845 20308 1 149.00000 418.400000
12496 3846 15440 1 149.00000 418.400000
12496 3847 19366 1 149.00000 418.400000
12496 3848 16292 1 149.00000 418.400000
12497 3849 13753 1 149.00000 418.400000
12497 3850 12829 1 149.00000 418.400000
12497 3851 13122 1 149.00000 418.400000
12498 3852 13503 1 149.00000 418.400000
12498 3853 15074 1 149.00000 418.400000
12498 3854 16351 1 149.00000 418.400000
12499 3855 16029 1 149.00000 418.400000
12499 3856 14586 1 149.00000 418.400000
12499 3857 16148 1 149.00000 418.400000
12499 3858 13793 1 149.00000 418.400000
12500 3859 13460 1 149.00000 418.400000
12500 3860 16393 1 149.00000 418.400000
12500 3861 16222 1 149.00000 418.400000
12500 3862 14060 1 149.00000 418.400000
12501 3863 14229 1 149.00000 418.400000
12501 3864 15661 1 149.00000 418.400000
12501 3865 16558 1 149.00000 418.400000
12501 3866 15682 1 149.00000 418.400000
12502 3867 13479 1 149.00000 418.400000
12502 3868 15518 1 149.00000 418.400000
12503 3869 15758 1 149.00000 418.400000
12504 3870 16216 1 149.00000 418.400000
12504 3871 13464 1 149.00000 418.400000
12504 3872 13161 1 149.00000 418.400000
12505 3873 13449 1 149.00000 418.400000
12505 3874 14720 1 149.00000 418.400000
12505 3875 15223 1 149.00000 418.400000
12505 3876 13007 1 149.00000 418.400000
13103 3877 18490 1 149.00000 418.400000
18490 3878 20617 1 149.00000 418.400000
15424 3879 18502 1 149.00000 418.400000
18502 3880 20329 1 149.00000 418.400000
15523 3881 18502 1 149.00000 418.400000
12506 3882 14964 1 149.00000 418.400000
12506 3883 14134 1 149.00000 418.400000
12506 3884 13445 1 149.00000 418.400000
12506 3885 20383 1 149.00000 418.400000
12507 3886 14918 1 149.00000 418.400000
12507 3887 15668 1 149.00000 418.400000
12507 3888 16070 1 149.00000 418.400000
12508 3889 15960 1 149.00000 418.400000
12508 3890 13478 1 149.00000 418.400000
12508 3891 14434 1 149.00000 418.400000
12509 3892 13579 1 149.00000 418.400000
12509 3893 12624 1 149.00000 418.400000
12509 3894 15617 1 149.00000 418.400000
12510 3895 15847 1 149.00000 418.400000
12510 3896 14694 1 149.00000 418.400000
12510 3897 14711 1 149.00000 418.400000
12510 3898 15544 1 149.00000 418.400000
12511 3899 15639 1 149.00000 418.400000
12511 3900 13414 1 149.00000 418.400000
12511 3901 16626 1 149.00000 418.400000
12512 3902 14435 1 149.00000 418.400000
12512 3903 13954 1 149.00000 418.400000
12512 3904 18838 1 149.00000 418.400000
12512 3905 12537 1 149.00000 418.400000
12513 3906 14966 1 149.00000 418.400000
12513 3907 13581 1 149.00000 418.400000
12513 3908 15304 1 149.00000 418.400000
12513 3909 12803 1 149.00000 418.400000
12514 3910 15431 1 149.00000 418.400000
12514 3911 14507 1 149.00000 418.400000
12514 3912 12799 1 149.00000 418.400000
12515 3913 14790 1 149.00000 418.400000
12515 3914 20218 1 149.00000 418.400000
12516 3915 14604 1 149.00000 418.400000
12516 3916 15473 1 149.00000 418.400000
12516 3917 13043 1 149.00000 418.400000
12516 3918 16675 1 149.00000 418.400000
14038 3919 14563 1 149.00000 418.400000
12517 3920 14038 1 149.00000 418.400000
12517 3921 16610 1 149.00000 418.400000
20122 3922 20287 1 149.00000 418.400000
12518 3923 20287 1 149.00000 418.400000
12519 3924 15497 1 149.00000 418.400000
12519 3925 15332 1 149.00000 418.400000
12519 3926 14215 1 149.00000 418.400000
12520 3927 20530 1 149.00000 418.400000
12520 3928 14747 1 149.00000 418.400000
13419 3929 18514 1 149.00000 418.400000
18514 3930 20305 1 149.00000 418.400000
12521 3931 14666 1 149.00000 418.400000
12521 3932 15651 1 149.00000 418.400000
12521 3933 14717 1 149.00000 418.400000
12521 3934 14026 1 149.00000 418.400000
13408 3935 20533 1 149.00000 418.400000
13408 3936 18526 1 149.00000 418.400000
12522 3937 13468 1 149.00000 418.400000
12522 3938 13893 1 149.00000 418.400000
12523 3939 15056 1 149.00000 418.400000
12523 3940 13158 1 149.00000 418.400000
12523 3941 14138 1 149.00000 418.400000
12523 3942 15739 1 149.00000 418.400000
12524 3943 13871 1 149.00000 418.400000
12524 3944 13298 1 149.00000 418.400000
12524 3945 15378 1 149.00000 418.400000
12525 3946 20593 1 149.00000 418.400000
12526 3947 14000 1 149.00000 418.400000
12526 3948 13604 1 149.00000 418.400000
12526 3949 14922 1 149.00000 418.400000
12527 3950 12904 1 149.00000 418.400000
12527 3951 14825 1 149.00000 418.400000
12527 3952 13243 1 149.00000 418.400000
12527 3953 13846 1 149.00000 418.400000
12528 3954 13689 1 149.00000 418.400000
12528 3955 14148 1 149.00000 418.400000
13689 3956 17176 1 149.00000 418.400000
12528 3957 13439 1 149.00000 418.400000
12529 3958 14650 1 149.00000 418.400000
12529 3959 14812 1 149.00000 418.400000
12530 3960 14494 1 149.00000 418.400000
12530 3961 12696 1 149.00000 418.400000
12531 3962 13881 1 149.00000 418.400000
12531 3963 14876 1 149.00000 418.400000
12531 3964 13260 1 149.00000 418.400000
12531 3965 15195 1 149.00000 418.400000
12532 3966 14369 1 149.00000 418.400000
12532 3967 15439 1 149.00000 418.400000
12532 3968 14459 1 149.00000 418.400000
12532 3969 13843 1 149.00000 418.400000
12533 3970 15535 1 149.00000 418.400000
12533 3971 12546 1 149.00000 418.400000
11838 3972 13670 1 149.00000 418.400000
12534 3973 13212 1 149.00000 418.400000
12534 3974 16375 1 149.00000 418.400000
12534 3975 15048 1 149.00000 418.400000
12534 3976 17596 1 149.00000 418.400000
12535 3977 14694 1 149.00000 418.400000
12535 3978 15628 1 149.00000 418.400000
12536 3979 14104 1 149.00000 418.400000
12536 3980 13350 1 149.00000 418.400000
12536 3981 14750 1 149.00000 418.400000
12537 3982 16552 1 149.00000 418.400000
12537 3983 14428 1 149.00000 418.400000
12537 3984 13882 1 149.00000 418.400000
12538 3985 14587 1 149.00000 418.400000
12538 3986 16682 1 149.00000 418.400000
12538 3987 16034 1 149.00000 418.400000
12538 3988 14898 1 149.00000 418.400000
12539 3989 15620 1 149.00000 418.400000
12539 3990 13409 1 149.00000 418.400000
12539 3991 14364 1 149.00000 418.400000
12539 3992 14714 1 149.00000 418.400000
12540 3993 17848 1 149.00000 418.400000
12540 3994 13286 1 149.00000 418.400000
12540 3995 15217 1 149.00000 418.400000
12540 3996 13210 1 149.00000 418.400000
12541 3997 16577 1 149.00000 418.400000
12541 3998 14381 1 149.00000 418.400000
12541 3999 14266 1 149.00000 418.400000
12542 4000 14709 1 149.00000 418.400000
12542 4001 14715 1 149.00000 418.400000
12542 4002 15660 1 149.00000 418.400000
12543 4003 15948 1 149.00000 418.400000
12543 4004 16305 1 149.00000 418.400000
12544 4005 13780 1 149.00000 418.400000
12544 4006 15933 1 149.00000 418.400000
12544 4007 14651 1 149.00000 418.400000
12544 4008 14679 1 149.00000 418.400000
12545 4009 15621 1 149.00000 418.400000
12246 4010 12545 1 149.00000 418.400000
12545 4011 14186 1 149.00000 418.400000
12546 4012 13802 1 149.00000 418.400000
12546 4013 13077 1 149.00000 418.400000
12547 4014 17176 1 149.00000 418.400000
12547 4015 13327 1 149.00000 418.400000
12547 4016 13593 1 149.00000 418.400000
14909 4017 18538 1 149.00000 418.400000
18538 4018 20614 1 149.00000 418.400000
12548 4019 14791 1 149.00000 418.400000
12548 4020 15064 1 149.00000 418.400000
12548 4021 16434 1 149.00000 418.400000
12905 4022 16219 1 149.00000 418.400000
12549 4023 20149 1 149.00000 418.400000
12549 4024 12960 1 149.00000 418.400000
12549 4025 16219 1 149.00000 418.400000
12550 4026 13322 1 149.00000 418.400000
13322 4027 16435 1 149.00000 418.400000
13418 4028 18550 1 149.00000 418.400000
16359 4029 18550 1 149.00000 418.400000
11653 4030 14989 1 149.00000 418.400000
12551 4031 20719 1 149.00000 418.400000
12551 4032 18826 1 149.00000 418.400000
15516 4033 18562 1 149.00000 418.400000
14047 4034 18562 1 149.00000 418.400000
12552 4035 14610 1 149.00000 418.400000
13522 4036 15671 1 149.00000 418.400000
12552 4037 16643 1 149.00000 418.400000
12552 4038 15671 1 149.00000 418.400000
12553 4039 15340 1 149.00000 418.400000
12553 4040 14335 1 149.00000 418.400000
12554 4041 20713 1 149.00000 418.400000
12554 4042 15696 1 149.00000 418.400000
12555 4043 15541 1 149.00000 418.400000
12555 4044 12575 1 149.00000 418.400000
12555 4045 16326 1 149.00000 418.400000
12556 4046 12740 1 149.00000 418.400000
12556 4047 13269 1 149.00000 418.400000
12556 4048 13856 1 149.00000 418.400000
12557 4049 15188 1 149.00000 418.400000
12557 4050 17624 1 149.00000 418.400000
12557 4051 17414 1 149.00000 418.400000
12557 4052 14851 1 149.00000 418.400000
12558 4053 15057 1 149.00000 418.400000
12558 4054 13620 1 149.00000 418.400000
12558 4055 14881 1 149.00000 418.400000
12559 4056 13972 1 149.00000 418.400000
12559 4057 20545 1 149.00000 418.400000
12559 4058 15625 1 149.00000 418.400000
12560 4059 13805 1 149.00000 418.400000
12560 4060 17022 1 149.00000 418.400000
12560 4061 12886 1 149.00000 418.400000
12561 4062 15644 1 149.00000 418.400000
12561 4063 15763 1 149.00000 418.400000
12561 4064 13967 1 149.00000 418.400000
12561 4065 12604 1 149.00000 418.400000
12562 4066 15859 1 149.00000 418.400000
12078 4067 15859 1 149.00000 418.400000
12562 4068 14778 1 149.00000 418.400000
12563 4069 14306 1 149.00000 418.400000
12564 4070 15397 1 149.00000 418.400000
12564 4071 15483 1 149.00000 418.400000
12564 4072 12779 1 149.00000 418.400000
12564 4073 14891 1 149.00000 418.400000
12565 4074 16303 1 149.00000 418.400000
12565 4075 12633 1 149.00000 418.400000
12565 4076 20401 1 149.00000 418.400000
12566 4077 15346 1 149.00000 418.400000
12566 4078 15718 1 149.00000 418.400000
12566 4079 13032 1 149.00000 418.400000
12566 4080 16058 1 149.00000 418.400000
11873 4081 14831 1 149.00000 418.400000
12567 4082 20614 1 149.00000 418.400000
12567 4083 12759 1 149.00000 418.400000
12568 4084 13931 1 149.00000 418.400000
12568 4085 13000 1 149.00000 418.400000
12569 4086 15343 1 149.00000 418.400000
12569 4087 20888 1 149.00000 418.400000
12569 4088 14770 1 149.00000 418.400000
12570 4089 12659 1 149.00000 418.400000
12570 4090 13973 1 149.00000 418.400000
12570 4091 13716 1 149.00000 418.400000
12571 4092 14036 1 149.00000 418.400000
12571 4093 13541 1 149.00000 418.400000
12571 4094 13199 1 149.00000 418.400000
12571 4095 15103 1 149.00000 418.400000
12572 4096 13564 1 149.00000 418.400000
12572 4097 15357 1 149.00000 418.400000
12572 4098 13664 1 149.00000 418.400000
12572 4099 15475 1 149.00000 418.400000
12573 4100 13506 1 149.00000 418.400000
13506 4101 16210 1 149.00000 418.400000
12574 4102 16910 1 149.00000 418.400000
12574 4103 13341 1 149.00000 418.400000
12575 4104 13450 1 149.00000 418.400000
12575 4105 16526 1 149.00000 418.400000
12575 4106 16296 1 149.00000 418.400000
13113 4107 16535 1 149.00000 418.400000
12576 4108 13113 1 149.00000 418.400000
12576 4109 16639 1 149.00000 418.400000
12576 4110 15512 1 149.00000 418.400000
13223 4111 19486 1 149.00000 418.400000
12577 4112 12768 1 149.00000 418.400000
12577 4113 14243 1 149.00000 418.400000
12578 4114 14708 1 149.00000 418.400000
12578 4115 14942 1 149.00000 418.400000
12578 4116 16497 1 149.00000 418.400000
12578 4117 16230 1 149.00000 418.400000
12579 4118 20512 1 149.00000 418.400000
12579 4119 20857 1 149.00000 418.400000
12580 4120 16547 1 149.00000 418.400000
12580 4121 14840 1 149.00000 418.400000
12580 4122 15543 1 149.00000 418.400000
12580 4123 14385 1 149.00000 418.400000
12581 4124 15635 1 149.00000 418.400000
12581 4125 16433 1 149.00000 418.400000
12581 4126 13960 1 149.00000 418.400000
12581 4127 16066 1 149.00000 418.400000
12582 4128 13428 1 149.00000 418.400000
12582 4129 15777 1 149.00000 418.400000
12583 4130 15623 1 149.00000 418.400000
12583 4131 13265 1 149.00000 418.400000
12584 4132 14912 1 149.00000 418.400000
12584 4133 12774 1 149.00000 418.400000
12584 4134 14843 1 149.00000 418.400000
12585 4135 13931 1 149.00000 418.400000
12585 4136 13959 1 149.00000 418.400000
12585 4137 12638 1 149.00000 418.400000
12586 4138 14606 1 149.00000 418.400000
12586 4139 16023 1 149.00000 418.400000
12586 4140 14815 1 149.00000 418.400000
12587 4141 15180 1 149.00000 418.400000
12587 4142 15526 1 149.00000 418.400000
12587 4143 12655 1 149.00000 418.400000
12587 4144 12767 1 149.00000 418.400000
12588 4145 16435 1 149.00000 418.400000
12588 4146 13613 1 149.00000 418.400000
12588 4147 15464 1 149.00000 418.400000
12588 4148 14997 1 149.00000 418.400000
12589 4149 15678 1 149.00000 418.400000
12589 4150 17834 1 149.00000 418.400000
12590 4151 15130 1 149.00000 418.400000
12590 4152 13446 1 149.00000 418.400000
12590 4153 13762 1 149.00000 418.400000
12591 4154 14291 1 149.00000 418.400000
12591 4155 15940 1 149.00000 418.400000
12591 4156 13611 1 149.00000 418.400000
12591 4157 14304 1 149.00000 418.400000
12592 4158 15891 1 149.00000 418.400000
12592 4159 15858 1 149.00000 418.400000
12593 4160 16346 1 149.00000 418.400000
12593 4161 15341 1 149.00000 418.400000
12593 4162 15185 1 149.00000 418.400000
12594 4163 14992 1 149.00000 418.400000
12594 4164 14292 1 149.00000 418.400000
12594 4165 16169 1 149.00000 418.400000
12594 4166 13828 1 149.00000 418.400000
11539 4167 18574 1 149.00000 418.400000
11539 4168 20988 1 149.00000 418.400000
12595 4169 14664 1 149.00000 418.400000
12595 4170 15515 1 149.00000 418.400000
12595 4171 13927 1 149.00000 418.400000
18586 4172 20302 1 149.00000 418.400000
12596 4173 14613 1 149.00000 418.400000
12596 4174 15045 1 149.00000 418.400000
12596 4175 12601 1 149.00000 418.400000
12597 4176 16188 1 149.00000 418.400000
12597 4177 14844 1 149.00000 418.400000
12597 4178 13732 1 149.00000 418.400000
12598 4179 12732 1 149.00000 418.400000
12598 4180 15624 1 149.00000 418.400000
12598 4181 13692 1 149.00000 418.400000
12599 4182 12863 1 149.00000 418.400000
12599 4183 15665 1 149.00000 418.400000
12600 4184 19402 1 149.00000 418.400000
12600 4185 15348 1 149.00000 418.400000
12601 4186 15266 1 149.00000 418.400000
12601 4187 15114 1 149.00000 418.400000
12601 4188 15557 1 149.00000 418.400000
12602 4189 13447 1 149.00000 418.400000
12602 4190 16113 1 149.00000 418.400000
12603 4191 12856 1 149.00000 418.400000
12603 4192 14348 1 149.00000 418.400000
12603 4193 12895 1 149.00000 418.400000
12604 4194 12826 1 149.00000 418.400000
12604 4195 16447 1 149.00000 418.400000
12604 4196 13815 1 149.00000 418.400000
12605 4197 13834 1 149.00000 418.400000
12605 4198 15816 1 149.00000 418.400000
12605 4199 13760 1 149.00000 418.400000
12605 4200 15921 1 149.00000 418.400000
12606 4201 14410 1 149.00000 418.400000
12606 4202 15731 1 149.00000 418.400000
12606 4203 15265 1 149.00000 418.400000
12606 4204 16350 1 149.00000 418.400000
12607 4205 16505 1 149.00000 418.400000
12607 4206 13391 1 149.00000 418.400000
12607 4207 20128 1 149.00000 418.400000
16352 4208 18598 1 149.00000 418.400000
18598 4209 20701 1 149.00000 418.400000
12608 4210 12942 1 149.00000 418.400000
12608 4211 13239 1 149.00000 418.400000
12608 4212 14188 1 149.00000 418.400000
12609 4213 13891 1 149.00000 418.400000
12609 4214 14452 1 149.00000 418.400000
12609 4215 16346 1 149.00000 418.400000
12609 4216 13970 1 149.00000 418.400000
12610 4217 16114 1 149.00000 418.400000
12610 4218 16628 1 149.00000 418.400000
12610 4219 14479 1 149.00000 418.400000
12610 4220 14058 1 149.00000 418.400000
12611 4221 20755 1 149.00000 418.400000
12611 4222 12873 1 149.00000 418.400000
12611 4223 13277 1 149.00000 418.400000
12611 4224 19474 1 149.00000 418.400000
12612 4225 13764 1 149.00000 418.400000
12612 4226 14172 1 149.00000 418.400000
12612 4227 13633 1 149.00000 418.400000
12612 4228 13470 1 149.00000 418.400000
12613 4229 13717 1 149.00000 418.400000
12613 4230 14984 1 149.00000 418.400000
12613 4231 13798 1 149.00000 418.400000
12614 4232 12847 1 149.00000 418.400000
12614 4233 14663 1 149.00000 418.400000
12614 4234 15191 1 149.00000 418.400000
12614 4235 15710 1 149.00000 418.400000
12615 4236 20158 1 149.00000 418.400000
12616 4237 13379 1 149.00000 418.400000
12616 4238 20806 1 149.00000 418.400000
12616 4239 13391 1 149.00000 418.400000
12616 4240 15979 1 149.00000 418.400000
15077 4241 18610 1 149.00000 418.400000
14123 4242 18610 1 149.00000 418.400000
16049 4243 18610 1 149.00000 418.400000
12617 4244 12839 1 149.00000 418.400000
12617 4245 12665 1 149.00000 418.400000
12617 4246 15573 1 149.00000 418.400000
12617 4247 14934 1 149.00000 418.400000
12618 4248 15476 1 149.00000 418.400000
12618 4249 14267 1 149.00000 418.400000
12618 4250 13986 1 149.00000 418.400000
12618 4251 16447 1 149.00000 418.400000
12619 4252 15376 1 149.00000 418.400000
12619 4253 13199 1 149.00000 418.400000
12619 4254 13522 1 149.00000 418.400000
12620 4255 15223 1 149.00000 418.400000
12620 4256 14380 1 149.00000 418.400000
12620 4257 16399 1 149.00000 418.400000
12620 4258 16115 1 149.00000 418.400000
12621 4259 13701 1 149.00000 418.400000
12621 4260 13846 1 149.00000 418.400000
12621 4261 14837 1 149.00000 418.400000
12622 4262 12755 1 149.00000 418.400000
12622 4263 15061 1 149.00000 418.400000
12622 4264 16654 1 149.00000 418.400000
12622 4265 16033 1 149.00000 418.400000
12623 4266 14420 1 149.00000 418.400000
12623 4267 13397 1 149.00000 418.400000
12623 4268 15427 1 149.00000 418.400000
12623 4269 15112 1 149.00000 418.400000
12624 4270 14059 1 149.00000 418.400000
12624 4271 13946 1 149.00000 418.400000
12625 4272 12630 1 149.00000 418.400000
12625 4273 15545 1 149.00000 418.400000
12625 4274 15326 1 149.00000 418.400000
12625 4275 15401 1 149.00000 418.400000
12626 4276 15059 1 149.00000 418.400000
12626 4277 16567 1 149.00000 418.400000
12627 4278 19786 1 149.00000 418.400000
12627 4279 15963 1 149.00000 418.400000
12627 4280 13910 1 149.00000 418.400000
12627 4281 20236 1 149.00000 418.400000
12628 4282 15550 1 149.00000 418.400000
12628 4283 16536 1 149.00000 418.400000
12629 4284 15050 1 149.00000 418.400000
12682 4285 15050 1 149.00000 418.400000
12629 4286 13212 1 149.00000 418.400000
12630 4287 15027 1 149.00000 418.400000
12630 4288 12772 1 149.00000 418.400000
12630 4289 14659 1 149.00000 418.400000
12631 4290 16685 1 149.00000 418.400000
12631 4291 13107 1 149.00000 418.400000
12631 4292 20782 1 149.00000 418.400000
12631 4293 13219 1 149.00000 418.400000
12632 4294 14076 1 149.00000 418.400000
11589 4295 13933 1 149.00000 418.400000
12632 4296 14643 1 149.00000 418.400000
12633 4297 13462 1 149.00000 418.400000
12633 4298 16168 1 149.00000 418.400000
12634 4299 14517 1 149.00000 418.400000
12634 4300 16557 1 149.00000 418.400000
12634 4301 15053 1 149.00000 418.400000
12635 4302 12712 1 149.00000 418.400000
12712 4303 15001 1 149.00000 418.400000
12635 4304 14334 1 149.00000 418.400000
12636 4305 15273 1 149.00000 418.400000
12636 4306 13654 1 149.00000 418.400000
12636 4307 13706 1 149.00000 418.400000
12636 4308 15796 1 149.00000 418.400000
12637 4309 12671 1 149.00000 418.400000
12637 4310 14642 1 149.00000 418.400000
12637 4311 15662 1 149.00000 418.400000
12638 4312 13145 1 149.00000 418.400000
12638 4313 16303 1 149.00000 418.400000
12639 4314 15427 1 149.00000 418.400000
12639 4315 14127 1 149.00000 418.400000
12639 4316 16218 1 149.00000 418.400000
12640 4317 16221 1 149.00000 418.400000
12640 4318 16980 1 149.00000 418.400000
12640 4319 13838 1 149.00000 418.400000
13838 4320 16514 1 149.00000 418.400000
12641 4321 13676 1 149.00000 418.400000
12641 4322 12780 1 149.00000 418.400000
12641 4323 14864 1 149.00000 418.400000
12641 4324 13860 1 149.00000 418.400000
12642 4325 20218 1 149.00000 418.400000
12642 4326 16530 1 149.00000 418.400000
12643 4327 12949 1 149.00000 418.400000
12643 4328 15105 1 149.00000 418.400000
12643 4329 14856 1 149.00000 418.400000
12643 4330 20254 1 149.00000 418.400000
12644 4331 15093 1 149.00000 418.400000
12440 4332 12644 1 149.00000 418.400000
12644 4333 15897 1 149.00000 418.400000
12644 4334 15235 1 149.00000 418.400000
12645 4335 14538 1 149.00000 418.400000
12645 4336 13723 1 149.00000 418.400000
12645 4337 16319 1 149.00000 418.400000
12646 4338 13078 1 149.00000 418.400000
12646 4339 16110 1 149.00000 418.400000
12646 4340 20308 1 149.00000 418.400000
12647 4341 15322 1 149.00000 418.400000
12647 4342 16610 1 149.00000 418.400000
12647 4343 14932 1 149.00000 418.400000
12647 4344 14683 1 149.00000 418.400000
12648 4345 15009 1 149.00000 418.400000
12648 4346 14110 1 149.00000 418.400000
12648 4347 14353 1 149.00000 418.400000
12648 4348 15520 1 149.00000 418.400000
12649 4349 13198 1 149.00000 418.400000
12649 4350 14577 1 149.00000 418.400000
12649 4351 15533 1 149.00000 418.400000
12649 4352 15208 1 149.00000 418.400000
12650 4353 13610 1 149.00000 418.400000
12650 4354 13030 1 149.00000 418.400000
12650 4355 14889 1 149.00000 418.400000
12650 4356 14431 1 149.00000 418.400000
12651 4357 16153 1 149.00000 418.400000
12651 4358 15494 1 149.00000 418.400000
12651 4359 13487 1 149.00000 418.400000
12651 4360 16121 1 149.00000 418.400000
12652 4361 16023 1 149.00000 418.400000
12652 4362 13826 1 149.00000 418.400000
12652 4363 17386 1 149.00000 418.400000
12652 4364 12721 1 149.00000 418.400000
12653 4365 16426 1 149.00000 418.400000
12653 4366 13557 1 149.00000 418.400000
12653 4367 20623 1 149.00000 418.400000
12653 4368 13112 1 149.00000 418.400000
12654 4369 15318 1 149.00000 418.400000
12654 4370 15394 1 149.00000 418.400000
12654 4371 12702 1 149.00000 418.400000
12655 4372 15804 1 149.00000 418.400000
12655 4373 16278 1 149.00000 418.400000
13397 4374 19939 1 149.00000 418.400000
12656 4375 14485 1 149.00000 418.400000
12656 4376 13834 1 149.00000 418.400000
12657 4377 15003 1 149.00000 418.400000
12657 4378 16812 1 149.00000 418.400000
12657 4379 15860 1 149.00000 418.400000
12658 4380 16111 1 149.00000 418.400000
12658 4381 12843 1 149.00000 418.400000
12659 4382 13741 1 149.00000 418.400000
12659 4383 13704 1 149.00000 418.400000
12659 4384 16649 1 149.00000 418.400000
12660 4385 16335 1 149.00000 418.400000
12660 4386 16147 1 149.00000 418.400000
12660 4387 15100 1 149.00000 418.400000
12660 4388 15383 1 149.00000 418.400000
12661 4389 15964 1 149.00000 418.400000
12661 4390 14791 1 149.00000 418.400000
12662 4391 20338 1 149.00000 418.400000
12802 4392 20338 1 149.00000 418.400000
12662 4393 13387 1 149.00000 418.400000
12663 4394 15648 1 149.00000 418.400000
12663 4395 14203 1 149.00000 418.400000
12663 4396 14897 1 149.00000 418.400000
12663 4397 14302 1 149.00000 418.400000
16119 4398 18622 1 149.00000 418.400000
14232 4399 18622 1 149.00000 418.400000
14793 4400 18622 1 149.00000 418.400000
12664 4401 15039 1 149.00000 418.400000
12664 4402 14160 1 149.00000 418.400000
12664 4403 15913 1 149.00000 418.400000
12665 4404 16382 1 149.00000 418.400000
12665 4405 14960 1 149.00000 418.400000
12665 4406 14041 1 149.00000 418.400000
12666 4407 13757 1 149.00000 418.400000
12666 4408 14767 1 149.00000 418.400000
12666 4409 15064 1 149.00000 418.400000
12667 4410 16124 1 149.00000 418.400000
12667 4411 13323 1 149.00000 418.400000
12667 4412 13533 1 149.00000 418.400000
12668 4413 16579 1 149.00000 418.400000
12668 4414 16511 1 149.00000 418.400000
12668 4415 14944 1 149.00000 418.400000
12668 4416 16140 1 149.00000 418.400000
12669 4417 13700 1 149.00000 418.400000
12669 4418 18718 1 149.00000 418.400000
12369 4419 20263 1 149.00000 418.400000
12670 4420 12733 1 149.00000 418.400000
12670 4421 14554 1 149.00000 418.400000
12670 4422 12746 1 149.00000 418.400000
12671 4423 16257 1 149.00000 418.400000
12671 4424 15322 1 149.00000 418.400000
12672 4425 20365 1 149.00000 418.400000
12672 4426 15262 1 149.00000 418.400000
12672 4427 19258 1 149.00000 418.400000
12673 4428 14475 1 149.00000 418.400000
12673 4429 13090 1 149.00000 418.400000
12673 4430 13308 1 149.00000 418.400000
12673 4431 16694 1 149.00000 418.400000
16375 4432 18634 1 149.00000 418.400000
13508 4433 18634 1 149.00000 418.400000
14514 4434 18634 1 149.00000 418.400000
12674 4435 13302 1 149.00000 418.400000
12675 4436 14239 1 149.00000 418.400000
12675 4437 20731 1 149.00000 418.400000
12675 4438 15483 1 149.00000 418.400000
12675 4439 20608 1 149.00000 418.400000
12676 4440 14647 1 149.00000 418.400000
12676 4441 13249 1 149.00000 418.400000
12677 4442 14182 1 149.00000 418.400000
12677 4443 13210 1 149.00000 418.400000
11516 4444 12677 1 149.00000 418.400000
12677 4445 16557 1 149.00000 418.400000
12678 4446 20539 1 149.00000 418.400000
12678 4447 15380 1 149.00000 418.400000
12678 4448 16683 1 149.00000 418.400000
12678 4449 13097 1 149.00000 418.400000
12679 4450 15818 1 149.00000 418.400000
12679 4451 15412 1 149.00000 418.400000
12679 4452 16488 1 149.00000 418.400000
12680 4453 14194 1 149.00000 418.400000
12680 4454 18922 1 149.00000 418.400000
12680 4455 13608 1 149.00000 418.400000
12681 4456 15260 1 149.00000 418.400000
12681 4457 13141 1 149.00000 418.400000
12681 4458 12824 1 149.00000 418.400000
12682 4459 13004 1 149.00000 418.400000
12682 4460 13705 1 149.00000 418.400000
12683 4461 14302 1 149.00000 418.400000
12683 4462 12713 1 149.00000 418.400000
11655 4463 12683 1 149.00000 418.400000
12684 4464 13161 1 149.00000 418.400000
12684 4465 16216 1 149.00000 418.400000
12685 4466 13182 1 149.00000 418.400000
12685 4467 14513 1 149.00000 418.400000
12685 4468 13361 1 149.00000 418.400000
12686 4469 16212 1 149.00000 418.400000
12686 4470 14435 1 149.00000 418.400000
12686 4471 15480 1 149.00000 418.400000
12686 4472 14620 1 149.00000 418.400000
12687 4473 14653 1 149.00000 418.400000
12687 4474 14964 1 149.00000 418.400000
12687 4475 14568 1 149.00000 418.400000
12688 4476 15523 1 149.00000 418.400000
12688 4477 16657 1 149.00000 418.400000
12688 4478 16211 1 149.00000 418.400000
18646 4479 20593 1 149.00000 418.400000
14504 4480 16253 1 149.00000 418.400000
16253 4481 18646 1 149.00000 418.400000
12689 4482 13743 1 149.00000 418.400000
12689 4483 13888 1 149.00000 418.400000
12689 4484 14460 1 149.00000 418.400000
12689 4485 16468 1 149.00000 418.400000
12690 4486 15573 1 149.00000 418.400000
12690 4487 15252 1 149.00000 418.400000
12690 4488 13747 1 149.00000 418.400000
12690 4489 16607 1 149.00000 418.400000
12691 4490 14244 1 149.00000 418.400000
12691 4491 16243 1 149.00000 418.400000
12691 4492 13145 1 149.00000 418.400000
12691 4493 14707 1 149.00000 418.400000
12692 4494 15153 1 149.00000 418.400000
14710 4495 16058 1 149.00000 418.400000
12692 4496 14710 1 149.00000 418.400000
12692 4497 20683 1 149.00000 418.400000
12693 4498 13548 1 149.00000 418.400000
12693 4499 13228 1 149.00000 418.400000
12693 4500 15643 1 149.00000 418.400000
12694 4501 15834 1 149.00000 418.400000
12694 4502 16597 1 149.00000 418.400000
12694 4503 16537 1 149.00000 418.400000
12695 4504 16074 1 149.00000 418.400000
12695 4505 16220 1 149.00000 418.400000
12695 4506 15096 1 149.00000 418.400000
12696 4507 16291 1 149.00000 418.400000
12696 4508 16510 1 149.00000 418.400000
14820 4509 18670 1 149.00000 418.400000
18670 4510 20641 1 149.00000 418.400000
13306 4511 18682 1 149.00000 418.400000
14129 4512 18682 1 149.00000 418.400000
18682 4513 19858 1 149.00000 418.400000
13591 4514 20011 1 149.00000 418.400000
14566 4515 18694 1 149.00000 418.400000
18694 4516 20173 1 149.00000 418.400000
18694 4517 20785 1 149.00000 418.400000
12697 4518 15756 1 149.00000 418.400000
12697 4519 16375 1 149.00000 418.400000
12697 4520 16560 1 149.00000 418.400000
12697 4521 12925 1 149.00000 418.400000
12698 4522 15076 1 149.00000 418.400000
12698 4523 15329 1 149.00000 418.400000
12699 4524 15532 1 149.00000 418.400000
12699 4525 14349 1 149.00000 418.400000
12700 4526 13480 1 149.00000 418.400000
12700 4527 15836 1 149.00000 418.400000
11712 4528 12700 1 149.00000 418.400000
12700 4529 15947 1 149.00000 418.400000
12701 4530 16411 1 149.00000 418.400000
12702 4531 16460 1 149.00000 418.400000
12702 4532 16528 1 149.00000 418.400000
12063 4533 12702 1 149.00000 418.400000
12703 4534 20563 1 149.00000 418.400000
12703 4535 14441 1 149.00000 418.400000
12704 4536 15268 1 149.00000 418.400000
12704 4537 15150 1 149.00000 418.400000
12704 4538 16246 1 149.00000 418.400000
12705 4539 20440 1 149.00000 418.400000
12706 4540 14719 1 149.00000 418.400000
12706 4541 15946 1 149.00000 418.400000
12706 4542 15199 1 149.00000 418.400000
12707 4543 14079 1 149.00000 418.400000
12707 4544 14138 1 149.00000 418.400000
12707 4545 12868 1 149.00000 418.400000
12708 4546 14401 1 149.00000 418.400000
12708 4547 13364 1 149.00000 418.400000
12708 4548 14346 1 149.00000 418.400000
12708 4549 16473 1 149.00000 418.400000
12709 4550 20650 1 149.00000 418.400000
12709 4551 14565 1 149.00000 418.400000
12709 4552 15344 1 149.00000 418.400000
14175 4553 20392 1 149.00000 418.400000
12710 4554 13254 1 149.00000 418.400000
12710 4555 16487 1 149.00000 418.400000
12710 4556 20392 1 149.00000 418.400000
12711 4557 12763 1 149.00000 418.400000
12711 4558 16247 1 149.00000 418.400000
12711 4559 13996 1 149.00000 418.400000
12635 4560 16570 1 149.00000 418.400000
12712 4561 16587 1 149.00000 418.400000
12712 4562 14901 1 149.00000 418.400000
12713 4563 14295 1 149.00000 418.400000
12713 4564 13398 1 149.00000 418.400000
12714 4565 20647 1 149.00000 418.400000
12714 4566 15564 1 149.00000 418.400000
12715 4567 15624 1 149.00000 418.400000
12716 4568 14386 1 149.00000 418.400000
12716 4569 13437 1 149.00000 418.400000
12716 4570 16641 1 149.00000 418.400000
12716 4571 12860 1 149.00000 418.400000
12717 4572 15118 1 149.00000 418.400000
12717 4573 15821 1 149.00000 418.400000
12717 4574 15200 1 149.00000 418.400000
12718 4575 15324 1 149.00000 418.400000
12718 4576 20011 1 149.00000 418.400000
12718 4577 20263 1 149.00000 418.400000
12718 4578 13242 1 149.00000 418.400000
12719 4579 13682 1 149.00000 418.400000
12719 4580 15435 1 149.00000 418.400000
12719 4581 14772 1 149.00000 418.400000
12719 4582 15567 1 149.00000 418.400000
12720 4583 13406 1 149.00000 418.400000
13406 4584 20575 1 149.00000 418.400000
12721 4585 16167 1 149.00000 418.400000
14807 4586 18706 1 149.00000 418.400000
18706 4587 20943 1 149.00000 418.400000
14545 4588 18706 1 149.00000 418.400000
15470 4589 19282 1 149.00000 418.400000
13172 4590 15470 1 149.00000 418.400000
12722 4591 15470 1 149.00000 418.400000
13844 4592 15470 1 149.00000 418.400000
14794 4593 15233 1 149.00000 418.400000
12723 4594 15074 1 149.00000 418.400000
12723 4595 15233 1 149.00000 418.400000
12724 4596 13045 1 149.00000 418.400000
12724 4597 15683 1 149.00000 418.400000
12724 4598 15607 1 149.00000 418.400000
12725 4599 13990 1 149.00000 418.400000
12725 4600 12841 1 149.00000 418.400000
12725 4601 15324 1 149.00000 418.400000
12725 4602 15301 1 149.00000 418.400000
12726 4603 16322 1 149.00000 418.400000
12726 4604 20794 1 149.00000 418.400000
12727 4605 16065 1 149.00000 418.400000
12727 4606 12775 1 149.00000 418.400000
16371 4607 20143 1 149.00000 418.400000
15605 4608 20143 1 149.00000 418.400000
12728 4609 13496 1 149.00000 418.400000
12728 4610 15513 1 149.00000 418.400000
12728 4611 15794 1 149.00000 418.400000
12728 4612 15835 1 149.00000 418.400000
12729 4613 16060 1 149.00000 418.400000
12729 4614 14341 1 149.00000 418.400000
12729 4615 15025 1 149.00000 418.400000
12729 4616 15518 1 149.00000 418.400000
12730 4617 12825 1 149.00000 418.400000
12730 4618 15004 1 149.00000 418.400000
12730 4619 15567 1 149.00000 418.400000
12731 4620 15879 1 149.00000 418.400000
12731 4621 13585 1 149.00000 418.400000
12731 4622 14548 1 149.00000 418.400000
18718 4623 20524 1 149.00000 418.400000
11550 4624 18718 1 149.00000 418.400000
12598 4625 14498 1 149.00000 418.400000
12732 4626 14894 1 149.00000 418.400000
12732 4627 13184 1 149.00000 418.400000
12733 4628 15368 1 149.00000 418.400000
12733 4629 13913 1 149.00000 418.400000
12734 4630 13529 1 149.00000 418.400000
12734 4631 15349 1 149.00000 418.400000
12734 4632 13232 1 149.00000 418.400000
12734 4633 14716 1 149.00000 418.400000
12735 4634 13918 1 149.00000 418.400000
12735 4635 15894 1 149.00000 418.400000
16614 4636 18730 1 149.00000 418.400000
13603 4637 18730 1 149.00000 418.400000
13091 4638 18730 1 149.00000 418.400000
11556 4639 16454 1 149.00000 418.400000
11556 4640 13998 1 149.00000 418.400000
12737 4641 16225 1 149.00000 418.400000
12737 4642 15458 1 149.00000 418.400000
12737 4643 15076 1 149.00000 418.400000
12737 4644 13645 1 149.00000 418.400000
12738 4645 14315 1 149.00000 418.400000
12738 4646 16069 1 149.00000 418.400000
12738 4647 16665 1 149.00000 418.400000
12739 4648 18754 1 149.00000 418.400000
12739 4649 12752 1 149.00000 418.400000
12739 4650 19534 1 149.00000 418.400000
12740 4651 16249 1 149.00000 418.400000
12740 4652 16514 1 149.00000 418.400000
12740 4653 13163 1 149.00000 418.400000
12741 4654 12947 1 149.00000 418.400000
12741 4655 14156 1 149.00000 418.400000
12741 4656 13388 1 149.00000 418.400000
12741 4657 15849 1 149.00000 418.400000
12742 4658 13798 1 149.00000 418.400000
12742 4659 15256 1 149.00000 418.400000
12743 4660 16642 1 149.00000 418.400000
12743 4661 16684 1 149.00000 418.400000
12743 4662 15981 1 149.00000 418.400000
12743 4663 13173 1 149.00000 418.400000
12744 4664 13963 1 149.00000 418.400000
12744 4665 15737 1 149.00000 418.400000
12744 4666 15501 1 149.00000 418.400000
12745 4667 16601 1 149.00000 418.400000
12745 4668 16361 1 149.00000 418.400000
12745 4669 15533 1 149.00000 418.400000
12745 4670 13105 1 149.00000 418.400000
12746 4671 14969 1 149.00000 418.400000
12746 4672 14462 1 149.00000 418.400000
12746 4673 15813 1 149.00000 418.400000
12747 4674 14363 1 149.00000 418.400000
12747 4675 13708 1 149.00000 418.400000
14037 4676 15421 1 149.00000 418.400000
12747 4677 15421 1 149.00000 418.400000
12748 4678 12972 1 149.00000 418.400000
12748 4679 13693 1 149.00000 418.400000
12748 4680 16303 1 149.00000 418.400000
12748 4681 16295 1 149.00000 418.400000
12749 4682 16401 1 149.00000 418.400000
12749 4683 16474 1 149.00000 418.400000
12750 4684 14329 1 149.00000 418.400000
12750 4685 13220 1 149.00000 418.400000
12750 4686 14488 1 149.00000 418.400000
12750 4687 13178 1 149.00000 418.400000
12751 4688 20455 1 149.00000 418.400000
12751 4689 14866 1 149.00000 418.400000
12751 4690 12864 1 149.00000 418.400000
18742 4691 20344 1 149.00000 418.400000
13718 4692 18742 1 149.00000 418.400000
15094 4693 18742 1 149.00000 418.400000
12752 4694 15905 1 149.00000 418.400000
12752 4695 16223 1 149.00000 418.400000
12753 4696 13374 1 149.00000 418.400000
12753 4697 15935 1 149.00000 418.400000
12754 4698 15284 1 149.00000 418.400000
12754 4699 15572 1 149.00000 418.400000
14080 4700 18754 1 149.00000 418.400000
14350 4701 18754 1 149.00000 418.400000
12755 4702 15642 1 149.00000 418.400000
12755 4703 13393 1 149.00000 418.400000
12755 4704 14290 1 149.00000 418.400000
12756 4705 13912 1 149.00000 418.400000
12756 4706 15285 1 149.00000 418.400000
12756 4707 20182 1 149.00000 418.400000
12757 4708 13920 1 149.00000 418.400000
12757 4709 19018 1 149.00000 418.400000
12757 4710 15165 1 149.00000 418.400000
12758 4711 14732 1 149.00000 418.400000
12758 4712 14194 1 149.00000 418.400000
12758 4713 12773 1 149.00000 418.400000
12758 4714 15139 1 149.00000 418.400000
12759 4715 13178 1 149.00000 418.400000
12759 4716 14558 1 149.00000 418.400000
12760 4717 13282 1 149.00000 418.400000
12760 4718 16402 1 149.00000 418.400000
12760 4719 15699 1 149.00000 418.400000
12760 4720 13947 1 149.00000 418.400000
12761 4721 13590 1 149.00000 418.400000
12761 4722 12813 1 149.00000 418.400000
12761 4723 12770 1 149.00000 418.400000
12761 4724 13744 1 149.00000 418.400000
12762 4725 16232 1 149.00000 418.400000
12762 4726 16561 1 149.00000 418.400000
12762 4727 16022 1 149.00000 418.400000
12762 4728 14945 1 149.00000 418.400000
12763 4729 13380 1 149.00000 418.400000
12763 4730 13304 1 149.00000 418.400000
12763 4731 14291 1 149.00000 418.400000
12764 4732 14411 1 149.00000 418.400000
12764 4733 20869 1 149.00000 418.400000
12764 4734 12881 1 149.00000 418.400000
12764 4735 20773 1 149.00000 418.400000
14209 4736 18766 1 149.00000 418.400000
14014 4737 18766 1 149.00000 418.400000
12765 4738 14868 1 149.00000 418.400000
12765 4739 15759 1 149.00000 418.400000
12765 4740 16252 1 149.00000 418.400000
12765 4741 13340 1 149.00000 418.400000
12766 4742 14269 1 149.00000 418.400000
12766 4743 14025 1 149.00000 418.400000
12766 4744 12830 1 149.00000 418.400000
12767 4745 16267 1 149.00000 418.400000
12767 4746 13215 1 149.00000 418.400000
12768 4747 14576 1 149.00000 418.400000
12768 4748 16298 1 149.00000 418.400000
12768 4749 15571 1 149.00000 418.400000
12769 4750 13004 1 149.00000 418.400000
12769 4751 13778 1 149.00000 418.400000
12770 4752 13772 1 149.00000 418.400000
12770 4753 15245 1 149.00000 418.400000
12770 4754 16182 1 149.00000 418.400000
14065 4755 16182 1 149.00000 418.400000
12771 4756 12994 1 149.00000 418.400000
12771 4757 16124 1 149.00000 418.400000
12771 4758 14735 1 149.00000 418.400000
12772 4759 16091 1 149.00000 418.400000
13993 4760 14461 1 149.00000 418.400000
12772 4761 14461 1 149.00000 418.400000
12773 4762 13794 1 149.00000 418.400000
12773 4763 16224 1 149.00000 418.400000
12773 4764 13048 1 149.00000 418.400000
12774 4765 15149 1 149.00000 418.400000
12775 4766 15250 1 149.00000 418.400000
12775 4767 15474 1 149.00000 418.400000
12775 4768 15499 1 149.00000 418.400000
12776 4769 14224 1 149.00000 418.400000
12776 4770 14443 1 149.00000 418.400000
18778 4771 20116 1 149.00000 418.400000
14106 4772 18778 1 149.00000 418.400000
12777 4773 14892 1 149.00000 418.400000
12777 4774 13014 1 149.00000 418.400000
12777 4775 13246 1 149.00000 418.400000
12777 4776 20425 1 149.00000 418.400000
12778 4777 19930 1 149.00000 418.400000
12778 4778 13427 1 149.00000 418.400000
12778 4779 20812 1 149.00000 418.400000
12778 4780 12835 1 149.00000 418.400000
12779 4781 15810 1 149.00000 418.400000
12779 4782 15353 1 149.00000 418.400000
13868 4783 15810 1 149.00000 418.400000
12780 4784 16228 1 149.00000 418.400000
12780 4785 20056 1 149.00000 418.400000
12781 4786 16459 1 149.00000 418.400000
12781 4787 13054 1 149.00000 418.400000
12781 4788 14538 1 149.00000 418.400000
12492 4789 12782 1 149.00000 418.400000
12783 4790 16158 1 149.00000 418.400000
12783 4791 13727 1 149.00000 418.400000
12783 4792 18838 1 149.00000 418.400000
12784 4793 13973 1 149.00000 418.400000
12784 4794 13334 1 149.00000 418.400000
13201 4795 18790 1 149.00000 418.400000
12785 4796 15137 1 149.00000 418.400000
12785 4797 13853 1 149.00000 418.400000
12785 4798 15461 1 149.00000 418.400000
12785 4799 14994 1 149.00000 418.400000
12786 4800 16199 1 149.00000 418.400000
12787 4801 13215 1 149.00000 418.400000
13215 4802 16347 1 149.00000 418.400000
12787 4803 15137 1 149.00000 418.400000
12788 4804 16001 1 149.00000 418.400000
12788 4805 14929 1 149.00000 418.400000
12190 4806 13129 1 149.00000 418.400000
13707 4807 18802 1 149.00000 418.400000
14801 4808 18802 1 149.00000 418.400000
18802 4809 20530 1 149.00000 418.400000
12789 4810 14039 1 149.00000 418.400000
14039 4811 16952 1 149.00000 418.400000
12789 4812 15512 1 149.00000 418.400000
14862 4813 18814 1 149.00000 418.400000
13526 4814 18814 1 149.00000 418.400000
12790 4815 15374 1 149.00000 418.400000
12790 4816 14890 1 149.00000 418.400000
14111 4817 18826 1 149.00000 418.400000
12791 4818 16040 1 149.00000 418.400000
12791 4819 13607 1 149.00000 418.400000
12791 4820 15487 1 149.00000 418.400000
12792 4821 12907 1 149.00000 418.400000
12792 4822 14069 1 149.00000 418.400000
12792 4823 14164 1 149.00000 418.400000
12792 4824 15119 1 149.00000 418.400000
12793 4825 15952 1 149.00000 418.400000
12793 4826 15916 1 149.00000 418.400000
12793 4827 14523 1 149.00000 418.400000
12794 4828 14139 1 149.00000 418.400000
12794 4829 13095 1 149.00000 418.400000
12794 4830 15625 1 149.00000 418.400000
12795 4831 16423 1 149.00000 418.400000
12795 4832 14944 1 149.00000 418.400000
12795 4833 15831 1 149.00000 418.400000
12795 4834 13120 1 149.00000 418.400000
12796 4835 15069 1 149.00000 418.400000
12796 4836 16656 1 149.00000 418.400000
12796 4837 13405 1 149.00000 418.400000
12797 4838 14034 1 149.00000 418.400000
12797 4839 13399 1 149.00000 418.400000
12797 4840 14997 1 149.00000 418.400000
12798 4841 13990 1 149.00000 418.400000
12798 4842 14990 1 149.00000 418.400000
12798 4843 14647 1 149.00000 418.400000
12798 4844 13300 1 149.00000 418.400000
12799 4845 13196 1 149.00000 418.400000
12799 4846 13840 1 149.00000 418.400000
12799 4847 14910 1 149.00000 418.400000
16017 4848 20677 1 149.00000 418.400000
12800 4849 16017 1 149.00000 418.400000
12801 4850 14717 1 149.00000 418.400000
12801 4851 14119 1 149.00000 418.400000
12801 4852 16131 1 149.00000 418.400000
12802 4853 20731 1 149.00000 418.400000
12802 4854 14571 1 149.00000 418.400000
12802 4855 15047 1 149.00000 418.400000
12803 4856 16063 1 149.00000 418.400000
12803 4857 15971 1 149.00000 418.400000
12804 4858 16282 1 149.00000 418.400000
12804 4859 13472 1 149.00000 418.400000
12213 4860 14929 1 149.00000 418.400000
13390 4861 18850 1 149.00000 418.400000
13302 4862 18850 1 149.00000 418.400000
12805 4863 16083 1 149.00000 418.400000
12805 4864 16367 1 149.00000 418.400000
12805 4865 14747 1 149.00000 418.400000
12805 4866 16693 1 149.00000 418.400000
12806 4867 15049 1 149.00000 418.400000
12806 4868 15330 1 149.00000 418.400000
12806 4869 15314 1 149.00000 418.400000
12807 4870 20017 1 149.00000 418.400000
12807 4871 15007 1 149.00000 418.400000
12808 4872 15148 1 149.00000 418.400000
12809 4873 13863 1 149.00000 418.400000
12809 4874 15152 1 149.00000 418.400000
12809 4875 14440 1 149.00000 418.400000
12810 4876 12862 1 149.00000 418.400000
12810 4877 15691 1 149.00000 418.400000
12810 4878 13563 1 149.00000 418.400000
12811 4879 15880 1 149.00000 418.400000
12812 4880 13703 1 149.00000 418.400000
12812 4881 16391 1 149.00000 418.400000
12812 4882 13670 1 149.00000 418.400000
12813 4883 13859 1 149.00000 418.400000
12813 4884 13951 1 149.00000 418.400000
12813 4885 14763 1 149.00000 418.400000
15085 4886 18862 1 149.00000 418.400000
12814 4887 16661 1 149.00000 418.400000
12814 4888 13152 1 149.00000 418.400000
12814 4889 16063 1 149.00000 418.400000
12814 4890 15008 1 149.00000 418.400000
12815 4891 12993 1 149.00000 418.400000
12815 4892 14558 1 149.00000 418.400000
12815 4893 14488 1 149.00000 418.400000
18874 4894 20269 1 149.00000 418.400000
13490 4895 18886 1 149.00000 418.400000
18886 4896 20212 1 149.00000 418.400000
12816 4897 15580 1 149.00000 418.400000
12816 4898 13978 1 149.00000 418.400000
14326 4899 16142 1 149.00000 418.400000
12817 4900 14326 1 149.00000 418.400000
12817 4901 12956 1 149.00000 418.400000
12818 4902 13308 1 149.00000 418.400000
12818 4903 15125 1 149.00000 418.400000
12818 4904 14464 1 149.00000 418.400000
12818 4905 13381 1 149.00000 418.400000
12819 4906 14202 1 149.00000 418.400000
12819 4907 13902 1 149.00000 418.400000
12819 4908 13299 1 149.00000 418.400000
12819 4909 15505 1 149.00000 418.400000
12820 4910 16454 1 149.00000 418.400000
12820 4911 16415 1 149.00000 418.400000
12820 4912 13510 1 149.00000 418.400000
12820 4913 14944 1 149.00000 418.400000
12821 4914 15200 1 149.00000 418.400000
12821 4915 13758 1 149.00000 418.400000
12821 4916 16451 1 149.00000 418.400000
12821 4917 15577 1 149.00000 418.400000
12822 4918 14369 1 149.00000 418.400000
12822 4919 15423 1 149.00000 418.400000
12822 4920 13657 1 149.00000 418.400000
12822 4921 15643 1 149.00000 418.400000
13511 4922 16700 1 149.00000 418.400000
12823 4923 15257 1 149.00000 418.400000
12823 4924 12964 1 149.00000 418.400000
12823 4925 14646 1 149.00000 418.400000
12824 4926 13855 1 149.00000 418.400000
12824 4927 13029 1 149.00000 418.400000
12824 4928 13070 1 149.00000 418.400000
12825 4929 15848 1 149.00000 418.400000
12825 4930 19786 1 149.00000 418.400000
12826 4931 16555 1 149.00000 418.400000
14318 4932 18898 1 149.00000 418.400000
12827 4933 13841 1 149.00000 418.400000
12827 4934 14926 1 149.00000 418.400000
12827 4935 14637 1 149.00000 418.400000
12827 4936 16053 1 149.00000 418.400000
13344 4937 15102 1 149.00000 418.400000
18910 4938 20008 1 149.00000 418.400000
15102 4939 18910 1 149.00000 418.400000
16030 4940 16325 1 149.00000 418.400000
12828 4941 13194 1 149.00000 418.400000
12828 4942 16325 1 149.00000 418.400000
12828 4943 14852 1 149.00000 418.400000
12829 4944 15777 1 149.00000 418.400000
12829 4945 14245 1 149.00000 418.400000
12829 4946 15050 1 149.00000 418.400000
12830 4947 13160 1 149.00000 418.400000
12830 4948 16415 1 149.00000 418.400000
12830 4949 13455 1 149.00000 418.400000
12831 4950 15674 1 149.00000 418.400000
12831 4951 15635 1 149.00000 418.400000
12831 4952 20479 1 149.00000 418.400000
12831 4953 15452 1 149.00000 418.400000
12832 4954 15264 1 149.00000 418.400000
12832 4955 20740 1 149.00000 418.400000
12832 4956 19186 1 149.00000 418.400000
12833 4957 15665 1 149.00000 418.400000
12833 4958 15226 1 149.00000 418.400000
12833 4959 13724 1 149.00000 418.400000
12833 4960 14376 1 149.00000 418.400000
16251 4961 18922 1 149.00000 418.400000
12834 4962 14607 1 149.00000 418.400000
12834 4963 20377 1 149.00000 418.400000
12835 4964 14325 1 149.00000 418.400000
12835 4965 16049 1 149.00000 418.400000
12835 4966 15136 1 149.00000 418.400000
12836 4967 16055 1 149.00000 418.400000
12836 4968 15854 1 149.00000 418.400000
12837 4969 16336 1 149.00000 418.400000
12837 4970 16203 1 149.00000 418.400000
12837 4971 19246 1 149.00000 418.400000
12838 4972 15418 1 149.00000 418.400000
12838 4973 13265 1 149.00000 418.400000
12838 4974 14390 1 149.00000 418.400000
12838 4975 15287 1 149.00000 418.400000
12839 4976 16469 1 149.00000 418.400000
12839 4977 16583 1 149.00000 418.400000
12839 4978 16439 1 149.00000 418.400000
12840 4979 15866 1 149.00000 418.400000
12840 4980 14342 1 149.00000 418.400000
18934 4981 20002 1 149.00000 418.400000
13598 4982 18934 1 149.00000 418.400000
12841 4983 14980 1 149.00000 418.400000
12841 4984 14235 1 149.00000 418.400000
12841 4985 13677 1 149.00000 418.400000
12842 4986 13606 1 149.00000 418.400000
12842 4987 13654 1 149.00000 418.400000
12842 4988 16282 1 149.00000 418.400000
12843 4989 14460 1 149.00000 418.400000
16128 4990 18946 1 149.00000 418.400000
18946 4991 19972 1 149.00000 418.400000
12844 4992 16414 1 149.00000 418.400000
12844 4993 14143 1 149.00000 418.400000
18958 4994 20485 1 149.00000 418.400000
13466 4995 18958 1 149.00000 418.400000
12845 4996 14688 1 149.00000 418.400000
12845 4997 12878 1 149.00000 418.400000
12846 4998 14078 1 149.00000 418.400000
12846 4999 14518 1 149.00000 418.400000
12846 5000 19810 1 149.00000 418.400000
12846 5001 17694 1 149.00000 418.400000
12847 5002 13866 1 149.00000 418.400000
12847 5003 15378 1 149.00000 418.400000
12847 5004 13606 1 149.00000 418.400000
12848 5005 14312 1 149.00000 418.400000
12848 5006 14033 1 149.00000 418.400000
12848 5007 13310 1 149.00000 418.400000
12849 5008 12904 1 149.00000 418.400000
12849 5009 14698 1 149.00000 418.400000
12850 5010 13839 1 149.00000 418.400000
13839 5011 15382 1 149.00000 418.400000
16407 5012 16500 1 149.00000 418.400000
12850 5013 16407 1 149.00000 418.400000
12851 5014 14380 1 149.00000 418.400000
12851 5015 16512 1 149.00000 418.400000
12851 5016 15357 1 149.00000 418.400000
12851 5017 15086 1 149.00000 418.400000
12852 5018 13155 1 149.00000 418.400000
12852 5019 19162 1 149.00000 418.400000
12852 5020 20488 1 149.00000 418.400000
12853 5021 15141 1 149.00000 418.400000
12854 5022 15471 1 149.00000 418.400000
12854 5023 13934 1 149.00000 418.400000
12854 5024 16609 1 149.00000 418.400000
12854 5025 13312 1 149.00000 418.400000
12855 5026 14628 1 149.00000 418.400000
12855 5027 13303 1 149.00000 418.400000
13806 5028 14253 1 149.00000 418.400000
12856 5029 13806 1 149.00000 418.400000
18970 5030 19654 1 149.00000 418.400000
13749 5031 18970 1 149.00000 418.400000
12857 5032 15013 1 149.00000 418.400000
12857 5033 13731 1 149.00000 418.400000
12857 5034 14053 1 149.00000 418.400000
12857 5035 14531 1 149.00000 418.400000
12858 5036 15742 1 149.00000 418.400000
12858 5037 14450 1 149.00000 418.400000
15234 5038 18982 1 149.00000 418.400000
12859 5039 20014 1 149.00000 418.400000
12859 5040 14163 1 149.00000 418.400000
12859 5041 20095 1 149.00000 418.400000
12859 5042 14482 1 149.00000 418.400000
16320 5043 18994 1 149.00000 418.400000
15083 5044 18994 1 149.00000 418.400000
12860 5045 16382 1 149.00000 418.400000
12860 5046 14097 1 149.00000 418.400000
12860 5047 13801 1 149.00000 418.400000
12861 5048 15629 1 149.00000 418.400000
15949 5049 16644 1 149.00000 418.400000
12861 5050 16644 1 149.00000 418.400000
12861 5051 13441 1 149.00000 418.400000
12862 5052 13889 1 149.00000 418.400000
12862 5053 14367 1 149.00000 418.400000
19006 5054 20290 1 149.00000 418.400000
13712 5055 19006 1 149.00000 418.400000
12863 5056 13641 1 149.00000 418.400000
12863 5057 16429 1 149.00000 418.400000
12863 5058 16136 1 149.00000 418.400000
15444 5059 16430 1 149.00000 418.400000
12864 5060 15596 1 149.00000 418.400000
12864 5061 15444 1 149.00000 418.400000
12865 5062 13118 1 149.00000 418.400000
12865 5063 13039 1 149.00000 418.400000
12865 5064 16329 1 149.00000 418.400000
12866 5065 14756 1 149.00000 418.400000
12866 5066 14151 1 149.00000 418.400000
12866 5067 13309 1 149.00000 418.400000
12867 5068 14167 1 149.00000 418.400000
12867 5069 16854 1 149.00000 418.400000
12867 5070 14340 1 149.00000 418.400000
12868 5071 16696 1 149.00000 418.400000
12868 5072 15982 1 149.00000 418.400000
12868 5073 13571 1 149.00000 418.400000
12869 5074 14066 1 149.00000 418.400000
12869 5075 15623 1 149.00000 418.400000
12869 5076 14531 1 149.00000 418.400000
12869 5077 15616 1 149.00000 418.400000
12870 5078 14445 1 149.00000 418.400000
12870 5079 14690 1 149.00000 418.400000
12870 5080 16141 1 149.00000 418.400000
12871 5081 16680 1 149.00000 418.400000
12871 5082 15837 1 149.00000 418.400000
12872 5083 14360 1 149.00000 418.400000
12872 5084 14349 1 149.00000 418.400000
12873 5085 15597 1 149.00000 418.400000
12873 5086 13769 1 149.00000 418.400000
12873 5087 15095 1 149.00000 418.400000
12874 5088 13525 1 149.00000 418.400000
12874 5089 16039 1 149.00000 418.400000
12874 5090 15647 1 149.00000 418.400000
12874 5091 20968 1 149.00000 418.400000
12875 5092 20701 1 149.00000 418.400000
12875 5093 20005 1 149.00000 418.400000
12875 5094 13917 1 149.00000 418.400000
12875 5095 20059 1 149.00000 418.400000
12876 5096 16146 1 149.00000 418.400000
12876 5097 14491 1 149.00000 418.400000
12876 5098 14550 1 149.00000 418.400000
12876 5099 14828 1 149.00000 418.400000
12877 5100 16145 1 149.00000 418.400000
12877 5101 14199 1 149.00000 418.400000
12877 5102 14817 1 149.00000 418.400000
12877 5103 16480 1 149.00000 418.400000
13313 5104 19018 1 149.00000 418.400000
19018 5105 19450 1 149.00000 418.400000
12878 5106 16684 1 149.00000 418.400000
11944 5107 12878 1 149.00000 418.400000
12879 5108 15524 1 149.00000 418.400000
12879 5109 15138 1 149.00000 418.400000
12879 5110 14284 1 149.00000 418.400000
12879 5111 15631 1 149.00000 418.400000
12880 5112 13170 1 149.00000 418.400000
12880 5113 13281 1 149.00000 418.400000
12880 5114 13747 1 149.00000 418.400000
13281 5115 13801 1 149.00000 418.400000
12881 5116 16324 1 149.00000 418.400000
12881 5117 16673 1 149.00000 418.400000
12882 5118 15343 1 149.00000 418.400000
12882 5119 15251 1 149.00000 418.400000
12882 5120 13931 1 149.00000 418.400000
12882 5121 13861 1 149.00000 418.400000
12883 5122 14670 1 149.00000 418.400000
12883 5123 12884 1 149.00000 418.400000
12883 5124 12974 1 149.00000 418.400000
12884 5125 14544 1 149.00000 418.400000
12884 5126 16397 1 149.00000 418.400000
12885 5127 14652 1 149.00000 418.400000
12885 5128 15582 1 149.00000 418.400000
12885 5129 16129 1 149.00000 418.400000
19030 5130 20383 1 149.00000 418.400000
14134 5131 19030 1 149.00000 418.400000
13385 5132 19030 1 149.00000 418.400000
12886 5133 16756 1 149.00000 418.400000
12886 5134 19102 1 149.00000 418.400000
14777 5135 19042 1 149.00000 418.400000
13562 5136 19042 1 149.00000 418.400000
12887 5137 15292 1 149.00000 418.400000
12014 5138 12887 1 149.00000 418.400000
12887 5139 15655 1 149.00000 418.400000
12887 5140 13926 1 149.00000 418.400000
16896 5141 19054 1 149.00000 418.400000
16614 5142 19054 1 149.00000 418.400000
15391 5143 19054 1 149.00000 418.400000
12888 5144 13872 1 149.00000 418.400000
12888 5145 15746 1 149.00000 418.400000
12888 5146 13608 1 149.00000 418.400000
12888 5147 15139 1 149.00000 418.400000
12889 5148 15331 1 149.00000 418.400000
12889 5149 13979 1 149.00000 418.400000
12889 5150 14405 1 149.00000 418.400000
12890 5151 14039 1 149.00000 418.400000
12890 5152 14804 1 149.00000 418.400000
12890 5153 15815 1 149.00000 418.400000
12891 5154 14371 1 149.00000 418.400000
12891 5155 12956 1 149.00000 418.400000
12891 5156 13010 1 149.00000 418.400000
11432 5157 12892 1 149.00000 418.400000
12892 5158 12947 1 149.00000 418.400000
12892 5159 13228 1 149.00000 418.400000
12892 5160 14357 1 149.00000 418.400000
11733 5161 16504 1 149.00000 418.400000
12893 5162 16504 1 149.00000 418.400000
12894 5163 13511 1 149.00000 418.400000
12894 5164 15079 1 149.00000 418.400000
12895 5165 15651 1 149.00000 418.400000
12895 5166 13271 1 149.00000 418.400000
12896 5167 16376 1 149.00000 418.400000
12896 5168 16580 1 149.00000 418.400000
12897 5169 14684 1 149.00000 418.400000
12897 5170 15779 1 149.00000 418.400000
12898 5171 12934 1 149.00000 418.400000
19078 5172 19330 1 149.00000 418.400000
17106 5173 19090 1 149.00000 418.400000
15498 5174 19090 1 149.00000 418.400000
12899 5175 16714 1 149.00000 418.400000
12899 5176 15797 1 149.00000 418.400000
12899 5177 16044 1 149.00000 418.400000
11689 5178 12899 1 149.00000 418.400000
12900 5179 15067 1 149.00000 418.400000
12900 5180 15366 1 149.00000 418.400000
12900 5181 12967 1 149.00000 418.400000
12901 5182 14330 1 149.00000 418.400000
12901 5183 14061 1 149.00000 418.400000
12901 5184 15384 1 149.00000 418.400000
12902 5185 15583 1 149.00000 418.400000
12902 5186 16331 1 149.00000 418.400000
12902 5187 13657 1 149.00000 418.400000
12903 5188 20791 1 149.00000 418.400000
12903 5189 15362 1 149.00000 418.400000
12904 5190 15901 1 149.00000 418.400000
12905 5191 14068 1 149.00000 418.400000
12905 5192 14206 1 149.00000 418.400000
12905 5193 13846 1 149.00000 418.400000
12906 5194 14984 1 149.00000 418.400000
12906 5195 16279 1 149.00000 418.400000
12906 5196 14052 1 149.00000 418.400000
11778 5197 12907 1 149.00000 418.400000
12907 5198 16508 1 149.00000 418.400000
12907 5199 13817 1 149.00000 418.400000
12908 5200 16650 1 149.00000 418.400000
12908 5201 13503 1 149.00000 418.400000
12908 5202 13472 1 149.00000 418.400000
12909 5203 14255 1 149.00000 418.400000
11794 5204 12909 1 149.00000 418.400000
12909 5205 13063 1 149.00000 418.400000
12910 5206 14324 1 149.00000 418.400000
13618 5207 14324 1 149.00000 418.400000
12910 5208 14347 1 149.00000 418.400000
12910 5209 15845 1 149.00000 418.400000
12911 5210 13894 1 149.00000 418.400000
12911 5211 14879 1 149.00000 418.400000
12911 5212 14313 1 149.00000 418.400000
12911 5213 16335 1 149.00000 418.400000
12912 5214 13068 1 149.00000 418.400000
12912 5215 16526 1 149.00000 418.400000
12912 5216 20332 1 149.00000 418.400000
12913 5217 13128 1 149.00000 418.400000
12913 5218 13267 1 149.00000 418.400000
12913 5219 13298 1 149.00000 418.400000
12913 5220 16052 1 149.00000 418.400000
15928 5221 19102 1 149.00000 418.400000
12914 5222 16447 1 149.00000 418.400000
14131 5223 14952 1 149.00000 418.400000
12915 5224 14131 1 149.00000 418.400000
12915 5225 16272 1 149.00000 418.400000
12915 5226 16257 1 149.00000 418.400000
12916 5227 16263 1 149.00000 418.400000
12916 5228 15039 1 149.00000 418.400000
12916 5229 13454 1 149.00000 418.400000
12916 5230 14903 1 149.00000 418.400000
15554 5231 15650 1 149.00000 418.400000
12917 5232 13440 1 149.00000 418.400000
12917 5233 15554 1 149.00000 418.400000
13225 5234 19114 1 149.00000 418.400000
14669 5235 19114 1 149.00000 418.400000
12918 5236 13762 1 149.00000 418.400000
12918 5237 15962 1 149.00000 418.400000
12919 5238 16093 1 149.00000 418.400000
14877 5239 16093 1 149.00000 418.400000
12919 5240 15045 1 149.00000 418.400000
12919 5241 14636 1 149.00000 418.400000
12920 5242 13795 1 149.00000 418.400000
12920 5243 15115 1 149.00000 418.400000
12920 5244 16120 1 149.00000 418.400000
12920 5245 13409 1 149.00000 418.400000
12921 5246 13598 1 149.00000 418.400000
12921 5247 13802 1 149.00000 418.400000
12921 5248 13652 1 149.00000 418.400000
12922 5249 14226 1 149.00000 418.400000
12922 5250 14158 1 149.00000 418.400000
12922 5251 19930 1 149.00000 418.400000
15814 5252 15954 1 149.00000 418.400000
12923 5253 15954 1 149.00000 418.400000
12923 5254 15270 1 149.00000 418.400000
12923 5255 15998 1 149.00000 418.400000
12924 5256 20281 1 149.00000 418.400000
12924 5257 16966 1 149.00000 418.400000
12925 5258 20224 1 149.00000 418.400000
12925 5259 15231 1 149.00000 418.400000
16023 5260 19126 1 149.00000 418.400000
13800 5261 19126 1 149.00000 418.400000
12926 5262 16570 1 149.00000 418.400000
12926 5263 16118 1 149.00000 418.400000
12926 5264 15425 1 149.00000 418.400000
12927 5265 14600 1 149.00000 418.400000
12927 5266 16570 1 149.00000 418.400000
12928 5267 13975 1 149.00000 418.400000
12928 5268 19654 1 149.00000 418.400000
12928 5269 20824 1 149.00000 418.400000
12928 5270 20755 1 149.00000 418.400000
12929 5271 14526 1 149.00000 418.400000
12929 5272 15355 1 149.00000 418.400000
12929 5273 13674 1 149.00000 418.400000
12930 5274 15092 1 149.00000 418.400000
12930 5275 14329 1 149.00000 418.400000
12930 5276 12971 1 149.00000 418.400000
12931 5277 13716 1 149.00000 418.400000
12931 5278 16365 1 149.00000 418.400000
12931 5279 15670 1 149.00000 418.400000
12931 5280 14759 1 149.00000 418.400000
12932 5281 14274 1 149.00000 418.400000
12932 5282 16328 1 149.00000 418.400000
12932 5283 13122 1 149.00000 418.400000
12932 5284 14305 1 149.00000 418.400000
12933 5285 16660 1 149.00000 418.400000
12933 5286 15707 1 149.00000 418.400000
12934 5287 20530 1 149.00000 418.400000
12934 5288 20050 1 149.00000 418.400000
12935 5289 16116 1 149.00000 418.400000
12935 5290 13376 1 149.00000 418.400000
12935 5291 13776 1 149.00000 418.400000
12936 5292 14020 1 149.00000 418.400000
12936 5293 13259 1 149.00000 418.400000
12936 5294 15088 1 149.00000 418.400000
12937 5295 14734 1 149.00000 418.400000
12937 5296 13700 1 149.00000 418.400000
12937 5297 20524 1 149.00000 418.400000
13578 5298 19138 1 149.00000 418.400000
19138 5299 20194 1 149.00000 418.400000
11500 5300 12938 1 149.00000 418.400000
12938 5301 15426 1 149.00000 418.400000
12938 5302 14979 1 149.00000 418.400000
12939 5303 13811 1 149.00000 418.400000
12939 5304 14260 1 149.00000 418.400000
12940 5305 14311 1 149.00000 418.400000
12940 5306 15446 1 149.00000 418.400000
12940 5307 14362 1 149.00000 418.400000
12941 5308 12951 1 149.00000 418.400000
12941 5309 14139 1 149.00000 418.400000
12941 5310 14118 1 149.00000 418.400000
12941 5311 13925 1 149.00000 418.400000
12942 5312 13336 1 149.00000 418.400000
12943 5313 13956 1 149.00000 418.400000
12943 5314 14237 1 149.00000 418.400000
12943 5315 14332 1 149.00000 418.400000
12943 5316 16218 1 149.00000 418.400000
12944 5317 13067 1 149.00000 418.400000
12944 5318 12987 1 149.00000 418.400000
12944 5319 13407 1 149.00000 418.400000
12944 5320 15826 1 149.00000 418.400000
12945 5321 14925 1 149.00000 418.400000
12945 5322 20005 1 149.00000 418.400000
12945 5323 14340 1 149.00000 418.400000
16464 5324 19150 1 149.00000 418.400000
19150 5325 20422 1 149.00000 418.400000
12946 5326 14404 1 149.00000 418.400000
12946 5327 15377 1 149.00000 418.400000
12946 5328 13832 1 149.00000 418.400000
12947 5329 14466 1 149.00000 418.400000
12948 5330 13989 1 149.00000 418.400000
12948 5331 14713 1 149.00000 418.400000
12948 5332 16467 1 149.00000 418.400000
12949 5333 17470 1 149.00000 418.400000
12949 5334 15296 1 149.00000 418.400000
13897 5335 15611 1 149.00000 418.400000
12950 5336 14146 1 149.00000 418.400000
14146 5337 15611 1 149.00000 418.400000
14327 5338 15611 1 149.00000 418.400000
12951 5339 16188 1 149.00000 418.400000
12951 5340 13288 1 149.00000 418.400000
12951 5341 15624 1 149.00000 418.400000
12952 5342 15749 1 149.00000 418.400000
12952 5343 15774 1 149.00000 418.400000
19162 5344 20314 1 149.00000 418.400000
12953 5345 13695 1 149.00000 418.400000
12953 5346 13116 1 149.00000 418.400000
12953 5347 15049 1 149.00000 418.400000
12954 5348 20359 1 149.00000 418.400000
12954 5349 15923 1 149.00000 418.400000
12954 5350 13767 1 149.00000 418.400000
12955 5351 13445 1 149.00000 418.400000
19174 5352 20170 1 149.00000 418.400000
16046 5353 19186 1 149.00000 418.400000
12956 5354 15391 1 149.00000 418.400000
12956 5355 13603 1 149.00000 418.400000
19198 5356 20722 1 149.00000 418.400000
12957 5357 13006 1 149.00000 418.400000
12957 5358 16600 1 149.00000 418.400000
11933 5359 12957 1 149.00000 418.400000
12957 5360 13950 1 149.00000 418.400000
12958 5361 19894 1 149.00000 418.400000
12958 5362 16104 1 149.00000 418.400000
12958 5363 14404 1 149.00000 418.400000
12959 5364 15468 1 149.00000 418.400000
12959 5365 15816 1 149.00000 418.400000
12960 5366 16150 1 149.00000 418.400000
12960 5367 13780 1 149.00000 418.400000
12960 5368 15820 1 149.00000 418.400000
12961 5369 13930 1 149.00000 418.400000
12961 5370 12977 1 149.00000 418.400000
12961 5371 15656 1 149.00000 418.400000
12962 5372 14791 1 149.00000 418.400000
16032 5373 19210 1 149.00000 418.400000
19210 5374 20182 1 149.00000 418.400000
13577 5375 14524 1 149.00000 418.400000
13577 5376 16328 1 149.00000 418.400000
12963 5377 15656 1 149.00000 418.400000
12963 5378 15359 1 149.00000 418.400000
12964 5379 15786 1 149.00000 418.400000
12268 5380 12964 1 149.00000 418.400000
12965 5381 15980 1 149.00000 418.400000
12966 5382 14404 1 149.00000 418.400000
12966 5383 13875 1 149.00000 418.400000
12966 5384 13082 1 149.00000 418.400000
12967 5385 16059 1 149.00000 418.400000
12967 5386 13529 1 149.00000 418.400000
12967 5387 13900 1 149.00000 418.400000
12968 5388 14107 1 149.00000 418.400000
12968 5389 13648 1 149.00000 418.400000
12968 5390 13426 1 149.00000 418.400000
15408 5391 19222 1 149.00000 418.400000
19222 5392 20515 1 149.00000 418.400000
12419 5393 19234 1 149.00000 418.400000
16057 5394 19234 1 149.00000 418.400000
12969 5395 13143 1 149.00000 418.400000
12969 5396 13064 1 149.00000 418.400000
12969 5397 13394 1 149.00000 418.400000
12969 5398 14709 1 149.00000 418.400000
12970 5399 16566 1 149.00000 418.400000
12970 5400 16491 1 149.00000 418.400000
12970 5401 13379 1 149.00000 418.400000
12970 5402 13964 1 149.00000 418.400000
12971 5403 13717 1 149.00000 418.400000
12971 5404 12993 1 149.00000 418.400000
12971 5405 15283 1 149.00000 418.400000
12972 5406 14042 1 149.00000 418.400000
12972 5407 13462 1 149.00000 418.400000
12972 5408 13473 1 149.00000 418.400000
12973 5409 15884 1 149.00000 418.400000
12060 5410 12973 1 149.00000 418.400000
12974 5411 15905 1 149.00000 418.400000
12974 5412 15321 1 149.00000 418.400000
12975 5413 16243 1 149.00000 418.400000
12975 5414 20401 1 149.00000 418.400000
12976 5415 20860 1 149.00000 418.400000
12976 5416 13884 1 149.00000 418.400000
12977 5417 16373 1 149.00000 418.400000
12977 5418 16575 1 149.00000 418.400000
12963 5419 12977 1 149.00000 418.400000
12978 5420 15236 1 149.00000 418.400000
12978 5421 14245 1 149.00000 418.400000
12978 5422 13516 1 149.00000 418.400000
12978 5423 16459 1 149.00000 418.400000
12979 5424 13384 1 149.00000 418.400000
12979 5425 15048 1 149.00000 418.400000
12979 5426 15608 1 149.00000 418.400000
19258 5427 20404 1 149.00000 418.400000
19258 5428 20590 1 149.00000 418.400000
12980 5429 13809 1 149.00000 418.400000
12980 5430 14969 1 149.00000 418.400000
12981 5431 13487 1 149.00000 418.400000
12981 5432 14616 1 149.00000 418.400000
12981 5433 13502 1 149.00000 418.400000
12982 5434 14504 1 149.00000 418.400000
12982 5435 16538 1 149.00000 418.400000
12982 5436 16680 1 149.00000 418.400000
12983 5437 17204 1 149.00000 418.400000
12983 5438 14500 1 149.00000 418.400000
12983 5439 13012 1 149.00000 418.400000
12107 5440 20230 1 149.00000 418.400000
12984 5441 15409 1 149.00000 418.400000
12984 5442 15703 1 149.00000 418.400000
12984 5443 13552 1 149.00000 418.400000
12985 5444 14571 1 149.00000 418.400000
14211 5445 16493 1 149.00000 418.400000
12986 5446 14211 1 149.00000 418.400000
12986 5447 15861 1 149.00000 418.400000
12987 5448 16966 1 149.00000 418.400000
12987 5449 16237 1 149.00000 418.400000
11656 5450 12988 1 149.00000 418.400000
11880 5451 15020 1 149.00000 418.400000
11880 5452 15031 1 149.00000 418.400000
12989 5453 14986 1 149.00000 418.400000
12989 5454 16054 1 149.00000 418.400000
12989 5455 15726 1 149.00000 418.400000
12990 5456 16642 1 149.00000 418.400000
12990 5457 15729 1 149.00000 418.400000
12990 5458 15395 1 149.00000 418.400000
12990 5459 14063 1 149.00000 418.400000
12991 5460 20044 1 149.00000 418.400000
12991 5461 15529 1 149.00000 418.400000
12991 5462 17036 1 149.00000 418.400000
12991 5463 14089 1 149.00000 418.400000
13217 5464 13380 1 149.00000 418.400000
12993 5465 13690 1 149.00000 418.400000
12993 5466 13217 1 149.00000 418.400000
19270 5467 20584 1 149.00000 418.400000
19270 5468 20842 1 149.00000 418.400000
13141 5469 19270 1 149.00000 418.400000
12994 5470 14639 1 149.00000 418.400000
12994 5471 15733 1 149.00000 418.400000
19282 5472 19642 1 149.00000 418.400000
15930 5473 19282 1 149.00000 418.400000
12995 5474 15365 1 149.00000 418.400000
12995 5475 13635 1 149.00000 418.400000
11655 5476 16100 1 149.00000 418.400000
12997 5477 16357 1 149.00000 418.400000
12997 5478 14869 1 149.00000 418.400000
12998 5479 16004 1 149.00000 418.400000
12998 5480 15641 1 149.00000 418.400000
12998 5481 16453 1 149.00000 418.400000
12998 5482 14517 1 149.00000 418.400000
12999 5483 16254 1 149.00000 418.400000
12999 5484 13951 1 149.00000 418.400000
12999 5485 13519 1 149.00000 418.400000
13000 5486 13861 1 149.00000 418.400000
13000 5487 16675 1 149.00000 418.400000
13001 5488 14704 1 149.00000 418.400000
13001 5489 15086 1 149.00000 418.400000
13001 5490 13924 1 149.00000 418.400000
13002 5491 14358 1 149.00000 418.400000
13002 5492 14305 1 149.00000 418.400000
13002 5493 15597 1 149.00000 418.400000
13003 5494 14640 1 149.00000 418.400000
13003 5495 14295 1 149.00000 418.400000
16498 5496 19294 1 149.00000 418.400000
15584 5497 19294 1 149.00000 418.400000
19294 5498 19762 1 149.00000 418.400000
13004 5499 15211 1 149.00000 418.400000
13004 5500 16482 1 149.00000 418.400000
19306 5501 20059 1 149.00000 418.400000
14873 5502 19306 1 149.00000 418.400000
16279 5503 19306 1 149.00000 418.400000
13005 5504 16938 1 149.00000 418.400000
13005 5505 15997 1 149.00000 418.400000
13005 5506 19390 1 149.00000 418.400000
13006 5507 16027 1 149.00000 418.400000
13006 5508 15177 1 149.00000 418.400000
13006 5509 15725 1 149.00000 418.400000
13007 5510 13291 1 149.00000 418.400000
13007 5511 14590 1 149.00000 418.400000
13008 5512 16309 1 149.00000 418.400000
13008 5513 16673 1 149.00000 418.400000
13008 5514 14393 1 149.00000 418.400000
13008 5515 15487 1 149.00000 418.400000
15873 5516 19318 1 149.00000 418.400000
13009 5517 16642 1 149.00000 418.400000
13009 5518 13852 1 149.00000 418.400000
13009 5519 13320 1 149.00000 418.400000
13010 5520 15460 1 149.00000 418.400000
13010 5521 13063 1 149.00000 418.400000
13010 5522 15398 1 149.00000 418.400000
13011 5523 14596 1 149.00000 418.400000
13011 5524 14556 1 149.00000 418.400000
13012 5525 16406 1 149.00000 418.400000
14222 5526 19330 1 149.00000 418.400000
13164 5527 19330 1 149.00000 418.400000
13013 5528 13908 1 149.00000 418.400000
13013 5529 15099 1 149.00000 418.400000
13013 5530 13545 1 149.00000 418.400000
13013 5531 14522 1 149.00000 418.400000
13014 5532 13208 1 149.00000 418.400000
13014 5533 13275 1 149.00000 418.400000
13014 5534 13276 1 149.00000 418.400000
13015 5535 13859 1 149.00000 418.400000
13015 5536 16316 1 149.00000 418.400000
13016 5537 16558 1 149.00000 418.400000
13016 5538 13414 1 149.00000 418.400000
13016 5539 15578 1 149.00000 418.400000
13017 5540 20872 1 149.00000 418.400000
13017 5541 14201 1 149.00000 418.400000
13018 5542 18044 1 149.00000 418.400000
13018 5543 15411 1 149.00000 418.400000
13019 5544 16293 1 149.00000 418.400000
14259 5545 16025 1 149.00000 418.400000
13019 5546 14470 1 149.00000 418.400000
13019 5547 16025 1 149.00000 418.400000
13020 5548 16111 1 149.00000 418.400000
13020 5549 14145 1 149.00000 418.400000
12340 5550 15968 1 149.00000 418.400000
16404 5551 19342 1 149.00000 418.400000
14116 5552 19342 1 149.00000 418.400000
13021 5553 16100 1 149.00000 418.400000
13021 5554 15456 1 149.00000 418.400000
13021 5555 14427 1 149.00000 418.400000
13021 5556 13235 1 149.00000 418.400000
13022 5557 15441 1 149.00000 418.400000
13022 5558 14676 1 149.00000 418.400000
13022 5559 14436 1 149.00000 418.400000
13023 5560 16391 1 149.00000 418.400000
13023 5561 20164 1 149.00000 418.400000
13024 5562 14498 1 149.00000 418.400000
13024 5563 14894 1 149.00000 418.400000
13024 5564 14473 1 149.00000 418.400000
13025 5565 15775 1 149.00000 418.400000
13025 5566 17946 1 149.00000 418.400000
13025 5567 16010 1 149.00000 418.400000
13026 5568 14208 1 149.00000 418.400000
13026 5569 14642 1 149.00000 418.400000
13026 5570 13040 1 149.00000 418.400000
13027 5571 13724 1 149.00000 418.400000
14297 5572 19366 1 149.00000 418.400000
16207 5573 19366 1 149.00000 418.400000
13028 5574 16041 1 149.00000 418.400000
13028 5575 13819 1 149.00000 418.400000
13028 5576 16278 1 149.00000 418.400000
12179 5577 15666 1 149.00000 418.400000
15666 5578 19378 1 149.00000 418.400000
13637 5579 19390 1 149.00000 418.400000
16286 5580 17190 1 149.00000 418.400000
17190 5581 19390 1 149.00000 418.400000
13029 5582 19975 1 149.00000 418.400000
13029 5583 15676 1 149.00000 418.400000
13029 5584 14519 1 149.00000 418.400000
13030 5585 15992 1 149.00000 418.400000
13030 5586 13678 1 149.00000 418.400000
13031 5587 14216 1 149.00000 418.400000
13031 5588 15193 1 149.00000 418.400000
13031 5589 13558 1 149.00000 418.400000
13031 5590 16643 1 149.00000 418.400000
13032 5591 16689 1 149.00000 418.400000
13032 5592 20569 1 149.00000 418.400000
13032 5593 13924 1 149.00000 418.400000
13033 5594 14603 1 149.00000 418.400000
13033 5595 13189 1 149.00000 418.400000
13033 5596 15660 1 149.00000 418.400000
13033 5597 16187 1 149.00000 418.400000
13034 5598 15717 1 149.00000 418.400000
13034 5599 13107 1 149.00000 418.400000
13035 5600 15805 1 149.00000 418.400000
13035 5601 13797 1 149.00000 418.400000
13036 5602 14453 1 149.00000 418.400000
13036 5603 14596 1 149.00000 418.400000
13036 5604 13890 1 149.00000 418.400000
13037 5605 14496 1 149.00000 418.400000
13037 5606 14816 1 149.00000 418.400000
13037 5607 14310 1 149.00000 418.400000
13037 5608 13624 1 149.00000 418.400000
13038 5609 14366 1 149.00000 418.400000
13038 5610 15170 1 149.00000 418.400000
13038 5611 16651 1 149.00000 418.400000
13039 5612 15604 1 149.00000 418.400000
13039 5613 15459 1 149.00000 418.400000
13039 5614 16326 1 149.00000 418.400000
13040 5615 14322 1 149.00000 418.400000
13040 5616 15718 1 149.00000 418.400000
13040 5617 15169 1 149.00000 418.400000
13041 5618 15800 1 149.00000 418.400000
13041 5619 14484 1 149.00000 418.400000
13041 5620 14228 1 149.00000 418.400000
13041 5621 13773 1 149.00000 418.400000
13042 5622 15263 1 149.00000 418.400000
13042 5623 16559 1 149.00000 418.400000
13042 5624 14414 1 149.00000 418.400000
13042 5625 14484 1 149.00000 418.400000
13043 5626 16345 1 149.00000 418.400000
13044 5627 16081 1 149.00000 418.400000
13044 5628 14689 1 149.00000 418.400000
13045 5629 14353 1 149.00000 418.400000
13887 5630 19402 1 149.00000 418.400000
13046 5631 14316 1 149.00000 418.400000
15339 5632 16151 1 149.00000 418.400000
13046 5633 16151 1 149.00000 418.400000
13046 5634 13592 1 149.00000 418.400000
13047 5635 16214 1 149.00000 418.400000
13047 5636 16118 1 149.00000 418.400000
13047 5637 13114 1 149.00000 418.400000
13047 5638 13738 1 149.00000 418.400000
13048 5639 15392 1 149.00000 418.400000
13048 5640 13389 1 149.00000 418.400000
13048 5641 15610 1 149.00000 418.400000
13049 5642 14884 1 149.00000 418.400000
13049 5643 16409 1 149.00000 418.400000
13049 5644 13789 1 149.00000 418.400000
13049 5645 14756 1 149.00000 418.400000
13050 5646 13766 1 149.00000 418.400000
13050 5647 15514 1 149.00000 418.400000
13050 5648 14816 1 149.00000 418.400000
13051 5649 16589 1 149.00000 418.400000
13051 5650 14293 1 149.00000 418.400000
13051 5651 15276 1 149.00000 418.400000
13051 5652 16612 1 149.00000 418.400000
14093 5653 14994 1 149.00000 418.400000
13052 5654 14093 1 149.00000 418.400000
13052 5655 14495 1 149.00000 418.400000
13053 5656 13791 1 149.00000 418.400000
13053 5657 13999 1 149.00000 418.400000
13053 5658 15462 1 149.00000 418.400000
13053 5659 15999 1 149.00000 418.400000
15843 5660 18190 1 149.00000 418.400000
13054 5661 13295 1 149.00000 418.400000
13054 5662 15630 1 149.00000 418.400000
13054 5663 14160 1 149.00000 418.400000
13055 5664 13995 1 149.00000 418.400000
13055 5665 13212 1 149.00000 418.400000
13055 5666 13508 1 149.00000 418.400000
13056 5667 15005 1 149.00000 418.400000
13056 5668 16558 1 149.00000 418.400000
13056 5669 14546 1 149.00000 418.400000
13057 5670 14322 1 149.00000 418.400000
13057 5671 16077 1 149.00000 418.400000
13057 5672 13219 1 149.00000 418.400000
13057 5673 20683 1 149.00000 418.400000
13058 5674 14316 1 149.00000 418.400000
13058 5675 13271 1 149.00000 418.400000
13058 5676 13604 1 149.00000 418.400000
13058 5677 13093 1 149.00000 418.400000
13059 5678 15436 1 149.00000 418.400000
13059 5679 13791 1 149.00000 418.400000
13059 5680 16281 1 149.00000 418.400000
13060 5681 16510 1 149.00000 418.400000
13060 5682 14658 1 149.00000 418.400000
13061 5683 14896 1 149.00000 418.400000
13061 5684 14530 1 149.00000 418.400000
13061 5685 15626 1 149.00000 418.400000
13062 5686 15879 1 149.00000 418.400000
13062 5687 14548 1 149.00000 418.400000
13062 5688 14114 1 149.00000 418.400000
13063 5689 14614 1 149.00000 418.400000
13063 5690 14931 1 149.00000 418.400000
13064 5691 16327 1 149.00000 418.400000
13064 5692 13961 1 149.00000 418.400000
13064 5693 14986 1 149.00000 418.400000
11940 5694 13419 1 149.00000 418.400000
13419 5695 16163 1 149.00000 418.400000
13066 5696 15360 1 149.00000 418.400000
13066 5697 15356 1 149.00000 418.400000
13066 5698 15915 1 149.00000 418.400000
13066 5699 16160 1 149.00000 418.400000
13067 5700 13289 1 149.00000 418.400000
13067 5701 16321 1 149.00000 418.400000
13067 5702 16195 1 149.00000 418.400000
13068 5703 15313 1 149.00000 418.400000
13068 5704 13333 1 149.00000 418.400000
13068 5705 15972 1 149.00000 418.400000
13112 5706 14038 1 149.00000 418.400000
13069 5707 14855 1 149.00000 418.400000
13069 5708 13112 1 149.00000 418.400000
13070 5709 17358 1 149.00000 418.400000
13070 5710 13530 1 149.00000 418.400000
13071 5711 13805 1 149.00000 418.400000
13071 5712 13823 1 149.00000 418.400000
14518 5713 19414 1 149.00000 418.400000
19414 5714 19978 1 149.00000 418.400000
14633 5715 19426 1 149.00000 418.400000
13499 5716 19426 1 149.00000 418.400000
14044 5717 19426 1 149.00000 418.400000
13072 5718 15025 1 149.00000 418.400000
13072 5719 14031 1 149.00000 418.400000
13072 5720 16369 1 149.00000 418.400000
13072 5721 16390 1 149.00000 418.400000
13073 5722 14913 1 149.00000 418.400000
13073 5723 14742 1 149.00000 418.400000
13073 5724 15578 1 149.00000 418.400000
16150 5725 19438 1 149.00000 418.400000
14068 5726 19438 1 149.00000 418.400000
19438 5727 20149 1 149.00000 418.400000
13074 5728 14827 1 149.00000 418.400000
13074 5729 14157 1 149.00000 418.400000
13074 5730 15183 1 149.00000 418.400000
13075 5731 15211 1 149.00000 418.400000
13075 5732 14375 1 149.00000 418.400000
13076 5733 13370 1 149.00000 418.400000
13076 5734 13421 1 149.00000 418.400000
13077 5735 20677 1 149.00000 418.400000
13077 5736 13643 1 149.00000 418.400000
13078 5737 16310 1 149.00000 418.400000
13079 5738 15908 1 149.00000 418.400000
13079 5739 13489 1 149.00000 418.400000
13079 5740 15693 1 149.00000 418.400000
13079 5741 15034 1 149.00000 418.400000
13080 5742 16224 1 149.00000 418.400000
13080 5743 13147 1 149.00000 418.400000
15111 5744 16224 1 149.00000 418.400000
12902 5745 13081 1 149.00000 418.400000
13081 5746 14380 1 149.00000 418.400000
13082 5747 15374 1 149.00000 418.400000
13082 5748 14542 1 149.00000 418.400000
13083 5749 14717 1 149.00000 418.400000
13083 5750 14109 1 149.00000 418.400000
14122 5751 19450 1 149.00000 418.400000
14200 5752 19450 1 149.00000 418.400000
13084 5753 13721 1 149.00000 418.400000
13084 5754 13350 1 149.00000 418.400000
13084 5755 16171 1 149.00000 418.400000
13085 5756 14666 1 149.00000 418.400000
13085 5757 14557 1 149.00000 418.400000
13085 5758 14195 1 149.00000 418.400000
13086 5759 14844 1 149.00000 418.400000
14844 5760 16531 1 149.00000 418.400000
13087 5761 15078 1 149.00000 418.400000
13087 5762 13292 1 149.00000 418.400000
13087 5763 15680 1 149.00000 418.400000
14771 5764 15078 1 149.00000 418.400000
13088 5765 13426 1 149.00000 418.400000
13088 5766 16109 1 149.00000 418.400000
13089 5767 15821 1 149.00000 418.400000
13089 5768 14582 1 149.00000 418.400000
13089 5769 15577 1 149.00000 418.400000
13089 5770 14109 1 149.00000 418.400000
13090 5771 14959 1 149.00000 418.400000
13091 5772 16032 1 149.00000 418.400000
13091 5773 15285 1 149.00000 418.400000
13861 5774 19462 1 149.00000 418.400000
13752 5775 19462 1 149.00000 418.400000
16503 5776 19462 1 149.00000 418.400000
13092 5777 13110 1 149.00000 418.400000
13092 5778 13630 1 149.00000 418.400000
13092 5779 15019 1 149.00000 418.400000
13093 5780 13869 1 149.00000 418.400000
13093 5781 14253 1 149.00000 418.400000
13093 5782 13742 1 149.00000 418.400000
13094 5783 15104 1 149.00000 418.400000
13094 5784 13338 1 149.00000 418.400000
13094 5785 15240 1 149.00000 418.400000
13095 5786 15955 1 149.00000 418.400000
13096 5787 13765 1 149.00000 418.400000
13096 5788 15672 1 149.00000 418.400000
13096 5789 14127 1 149.00000 418.400000
13096 5790 16246 1 149.00000 418.400000
15414 5791 15663 1 149.00000 418.400000
13097 5792 15414 1 149.00000 418.400000
13097 5793 15178 1 149.00000 418.400000
13422 5794 14082 1 149.00000 418.400000
13098 5795 14465 1 149.00000 418.400000
13098 5796 14234 1 149.00000 418.400000
13098 5797 14082 1 149.00000 418.400000
13099 5798 13811 1 149.00000 418.400000
11500 5799 13099 1 149.00000 418.400000
13099 5800 14415 1 149.00000 418.400000
13099 5801 14021 1 149.00000 418.400000
13100 5802 13515 1 149.00000 418.400000
13101 5803 15521 1 149.00000 418.400000
13101 5804 15425 1 149.00000 418.400000
13101 5805 16214 1 149.00000 418.400000
13102 5806 15672 1 149.00000 418.400000
13102 5807 15403 1 149.00000 418.400000
13102 5808 15038 1 149.00000 418.400000
13102 5809 15610 1 149.00000 418.400000
13103 5810 15788 1 149.00000 418.400000
13103 5811 15068 1 149.00000 418.400000
13104 5812 13257 1 149.00000 418.400000
13104 5813 14332 1 149.00000 418.400000
13104 5814 13159 1 149.00000 418.400000
13105 5815 16531 1 149.00000 418.400000
13105 5816 16075 1 149.00000 418.400000
13105 5817 13692 1 149.00000 418.400000
13106 5818 16217 1 149.00000 418.400000
13106 5819 16465 1 149.00000 418.400000
13034 5820 13922 1 149.00000 418.400000
13107 5821 14322 1 149.00000 418.400000
13108 5822 14681 1 149.00000 418.400000
13108 5823 16389 1 149.00000 418.400000
13457 5824 15457 1 149.00000 418.400000
13109 5825 15457 1 149.00000 418.400000
13109 5826 15425 1 149.00000 418.400000
13109 5827 14098 1 149.00000 418.400000
14394 5828 14441 1 149.00000 418.400000
14441 5829 19474 1 149.00000 418.400000
13349 5830 19486 1 149.00000 418.400000
13110 5831 15288 1 149.00000 418.400000
15412 5832 19498 1 149.00000 418.400000
14428 5833 19498 1 149.00000 418.400000
19498 5834 20062 1 149.00000 418.400000
13111 5835 14230 1 149.00000 418.400000
13111 5836 14813 1 149.00000 418.400000
14565 5837 14813 1 149.00000 418.400000
14448 5838 14813 1 149.00000 418.400000
16485 5839 19510 1 149.00000 418.400000
14888 5840 16485 1 149.00000 418.400000
16485 5841 20833 1 149.00000 418.400000
16351 5842 16485 1 149.00000 418.400000
13112 5843 15166 1 149.00000 418.400000
13069 5844 16520 1 149.00000 418.400000
13113 5845 20068 1 149.00000 418.400000
13113 5846 19918 1 149.00000 418.400000
13114 5847 13991 1 149.00000 418.400000
13114 5848 14187 1 149.00000 418.400000
13114 5849 15060 1 149.00000 418.400000
13115 5850 16097 1 149.00000 418.400000
13115 5851 14406 1 149.00000 418.400000
13115 5852 15081 1 149.00000 418.400000
13116 5853 16289 1 149.00000 418.400000
13117 5854 14054 1 149.00000 418.400000
13117 5855 14057 1 149.00000 418.400000
13117 5856 20599 1 149.00000 418.400000
13117 5857 15858 1 149.00000 418.400000
12850 5858 13118 1 149.00000 418.400000
13118 5859 13570 1 149.00000 418.400000
13119 5860 15704 1 149.00000 418.400000
15297 5861 15704 1 149.00000 418.400000
13120 5862 16012 1 149.00000 418.400000
14419 5863 15238 1 149.00000 418.400000
13120 5864 15238 1 149.00000 418.400000
13121 5865 15503 1 149.00000 418.400000
13121 5866 20008 1 149.00000 418.400000
13121 5867 16183 1 149.00000 418.400000
13122 5868 14668 1 149.00000 418.400000
13122 5869 16459 1 149.00000 418.400000
13123 5870 15352 1 149.00000 418.400000
13123 5871 13887 1 149.00000 418.400000
13123 5872 15869 1 149.00000 418.400000
13124 5873 13261 1 149.00000 418.400000
13124 5874 15326 1 149.00000 418.400000
13124 5875 13739 1 149.00000 418.400000
13125 5876 13568 1 149.00000 418.400000
13125 5877 14009 1 149.00000 418.400000
13125 5878 13502 1 149.00000 418.400000
11675 5879 13125 1 149.00000 418.400000
13126 5880 13972 1 149.00000 418.400000
13126 5881 13857 1 149.00000 418.400000
13126 5882 13943 1 149.00000 418.400000
13126 5883 15625 1 149.00000 418.400000
13127 5884 15130 1 149.00000 418.400000
13127 5885 13601 1 149.00000 418.400000
13127 5886 16095 1 149.00000 418.400000
13128 5887 16693 1 149.00000 418.400000
13128 5888 15576 1 149.00000 418.400000
13129 5889 13606 1 149.00000 418.400000
13129 5890 14384 1 149.00000 418.400000
13129 5891 15218 1 149.00000 418.400000
13571 5892 19522 1 149.00000 418.400000
12562 5893 19522 1 149.00000 418.400000
15056 5894 19522 1 149.00000 418.400000
13130 5895 14656 1 149.00000 418.400000
13130 5896 15724 1 149.00000 418.400000
13130 5897 14800 1 149.00000 418.400000
13131 5898 16228 1 149.00000 418.400000
13131 5899 15731 1 149.00000 418.400000
13131 5900 15027 1 149.00000 418.400000
13132 5901 14462 1 149.00000 418.400000
13132 5902 13355 1 149.00000 418.400000
13132 5903 13893 1 149.00000 418.400000
13133 5904 13625 1 149.00000 418.400000
13133 5905 14839 1 149.00000 418.400000
13133 5906 16303 1 149.00000 418.400000
13133 5907 13750 1 149.00000 418.400000
13134 5908 15734 1 149.00000 418.400000
12282 5909 13134 1 149.00000 418.400000
13134 5910 13400 1 149.00000 418.400000
13135 5911 14530 1 149.00000 418.400000
13135 5912 13678 1 149.00000 418.400000
13135 5913 15255 1 149.00000 418.400000
13136 5914 15247 1 149.00000 418.400000
13136 5915 15350 1 149.00000 418.400000
13136 5916 13429 1 149.00000 418.400000
13137 5917 13443 1 149.00000 418.400000
13137 5918 13834 1 149.00000 418.400000
16443 5919 19534 1 149.00000 418.400000
11631 5920 13138 1 149.00000 418.400000
13138 5921 15457 1 149.00000 418.400000
13138 5922 13486 1 149.00000 418.400000
13139 5923 16085 1 149.00000 418.400000
13139 5924 15850 1 149.00000 418.400000
13139 5925 13355 1 149.00000 418.400000
13140 5926 14426 1 149.00000 418.400000
12371 5927 13649 1 149.00000 418.400000
13141 5928 16233 1 149.00000 418.400000
13141 5929 15172 1 149.00000 418.400000
13142 5930 13963 1 149.00000 418.400000
13142 5931 16493 1 149.00000 418.400000
13142 5932 14253 1 149.00000 418.400000
13142 5933 14348 1 149.00000 418.400000
13143 5934 13855 1 149.00000 418.400000
13144 5935 14836 1 149.00000 418.400000
13144 5936 14414 1 149.00000 418.400000
13145 5937 14150 1 149.00000 418.400000
13145 5938 13625 1 149.00000 418.400000
13146 5939 14637 1 149.00000 418.400000
13146 5940 13668 1 149.00000 418.400000
13146 5941 14946 1 149.00000 418.400000
13146 5942 14478 1 149.00000 418.400000
15957 5943 16349 1 149.00000 418.400000
14154 5944 15957 1 149.00000 418.400000
13147 5945 15957 1 149.00000 418.400000
13148 5946 15282 1 149.00000 418.400000
13148 5947 15281 1 149.00000 418.400000
13148 5948 13356 1 149.00000 418.400000
13149 5949 16525 1 149.00000 418.400000
13149 5950 14005 1 149.00000 418.400000
13149 5951 13283 1 149.00000 418.400000
13149 5952 13649 1 149.00000 418.400000
13150 5953 14086 1 149.00000 418.400000
13150 5954 15621 1 149.00000 418.400000
12910 5955 13150 1 149.00000 418.400000
13150 5956 16257 1 149.00000 418.400000
13151 5957 14342 1 149.00000 418.400000
13151 5958 13870 1 149.00000 418.400000
13151 5959 13630 1 149.00000 418.400000
13151 5960 15459 1 149.00000 418.400000
13152 5961 13596 1 149.00000 418.400000
13152 5962 13804 1 149.00000 418.400000
15232 5963 20344 1 149.00000 418.400000
13482 5964 19546 1 149.00000 418.400000
19546 5965 20344 1 149.00000 418.400000
13153 5966 15600 1 149.00000 418.400000
13153 5967 15393 1 149.00000 418.400000
13154 5968 14103 1 149.00000 418.400000
13154 5969 18958 1 149.00000 418.400000
13155 5970 14397 1 149.00000 418.400000
13155 5971 14383 1 149.00000 418.400000
13155 5972 13674 1 149.00000 418.400000
13541 5973 14397 1 149.00000 418.400000
16649 5974 19558 1 149.00000 418.400000
13534 5975 19558 1 149.00000 418.400000
13156 5976 13804 1 149.00000 418.400000
13156 5977 15414 1 149.00000 418.400000
13641 5978 14373 1 149.00000 418.400000
13157 5979 20455 1 149.00000 418.400000
13157 5980 13641 1 149.00000 418.400000
13641 5981 20446 1 149.00000 418.400000
13158 5982 14141 1 149.00000 418.400000
13158 5983 13339 1 149.00000 418.400000
13159 5984 15673 1 149.00000 418.400000
13159 5985 14273 1 149.00000 418.400000
13159 5986 13430 1 149.00000 418.400000
13160 5987 16511 1 149.00000 418.400000
13160 5988 15668 1 149.00000 418.400000
13161 5989 16109 1 149.00000 418.400000
13161 5990 14788 1 149.00000 418.400000
15519 5991 19570 1 149.00000 418.400000
13316 5992 19570 1 149.00000 418.400000
13162 5993 15369 1 149.00000 418.400000
13162 5994 13684 1 149.00000 418.400000
13162 5995 16445 1 149.00000 418.400000
13162 5996 15039 1 149.00000 418.400000
19582 5997 21018 1 149.00000 418.400000
19582 5998 20197 1 149.00000 418.400000
13163 5999 15937 1 149.00000 418.400000
13164 6000 20521 1 149.00000 418.400000
13164 6001 16598 1 149.00000 418.400000
13165 6002 15477 1 149.00000 418.400000
13165 6003 13896 1 149.00000 418.400000
13165 6004 13194 1 149.00000 418.400000
16506 6005 19594 1 149.00000 418.400000
15496 6006 19594 1 149.00000 418.400000
13166 6007 15627 1 149.00000 418.400000
13166 6008 13262 1 149.00000 418.400000
13166 6009 15610 1 149.00000 418.400000
13166 6010 13865 1 149.00000 418.400000
13167 6011 15649 1 149.00000 418.400000
13167 6012 16074 1 149.00000 418.400000
13168 6013 13239 1 149.00000 418.400000
13168 6014 20416 1 149.00000 418.400000
13168 6015 15253 1 149.00000 418.400000
13169 6016 16599 1 149.00000 418.400000
13169 6017 14792 1 149.00000 418.400000
13169 6018 15099 1 149.00000 418.400000
13169 6019 16429 1 149.00000 418.400000
11725 6020 13476 1 149.00000 418.400000
11725 6021 16382 1 149.00000 418.400000
13171 6022 15543 1 149.00000 418.400000
13171 6023 13835 1 149.00000 418.400000
13171 6024 13852 1 149.00000 418.400000
13171 6025 14950 1 149.00000 418.400000
19606 6026 19894 1 149.00000 418.400000
15374 6027 19606 1 149.00000 418.400000
13172 6028 13827 1 149.00000 418.400000
13172 6029 15345 1 149.00000 418.400000
13172 6030 16229 1 149.00000 418.400000
16208 6031 20032 1 149.00000 418.400000
16208 6032 19618 1 149.00000 418.400000
13173 6033 13775 1 149.00000 418.400000
13173 6034 14601 1 149.00000 418.400000
13174 6035 13696 1 149.00000 418.400000
13174 6036 16662 1 149.00000 418.400000
13174 6037 13964 1 149.00000 418.400000
19630 6038 19738 1 149.00000 418.400000
13175 6039 14106 1 149.00000 418.400000
13175 6040 16296 1 149.00000 418.400000
13175 6041 13747 1 149.00000 418.400000
13175 6042 15785 1 149.00000 418.400000
13176 6043 16399 1 149.00000 418.400000
13176 6044 14555 1 149.00000 418.400000
13176 6045 15874 1 149.00000 418.400000
13176 6046 16337 1 149.00000 418.400000
13177 6047 15977 1 149.00000 418.400000
13177 6048 14303 1 149.00000 418.400000
13177 6049 15596 1 149.00000 418.400000
13178 6050 16606 1 149.00000 418.400000
13827 6051 19642 1 149.00000 418.400000
13179 6052 15027 1 149.00000 418.400000
13179 6053 15702 1 149.00000 418.400000
13179 6054 14887 1 149.00000 418.400000
13180 6055 15062 1 149.00000 418.400000
13180 6056 14007 1 149.00000 418.400000
13180 6057 20080 1 149.00000 418.400000
13181 6058 14924 1 149.00000 418.400000
13181 6059 16283 1 149.00000 418.400000
13181 6060 16114 1 149.00000 418.400000
13182 6061 16545 1 149.00000 418.400000
13183 6062 13338 1 149.00000 418.400000
13183 6063 14916 1 149.00000 418.400000
13183 6064 16004 1 149.00000 418.400000
13184 6065 13554 1 149.00000 418.400000
13184 6066 16601 1 149.00000 418.400000
13184 6067 15632 1 149.00000 418.400000
13185 6068 15995 1 149.00000 418.400000
13185 6069 13695 1 149.00000 418.400000
13186 6070 15775 1 149.00000 418.400000
13186 6071 15217 1 149.00000 418.400000
13186 6072 16477 1 149.00000 418.400000
13186 6073 20335 1 149.00000 418.400000
13187 6074 14425 1 149.00000 418.400000
13187 6075 14419 1 149.00000 418.400000
13188 6076 16669 1 149.00000 418.400000
13188 6077 14953 1 149.00000 418.400000
13188 6078 16138 1 149.00000 418.400000
14101 6079 19666 1 149.00000 418.400000
15559 6080 19666 1 149.00000 418.400000
13189 6081 14898 1 149.00000 418.400000
13189 6082 15320 1 149.00000 418.400000
13189 6083 14587 1 149.00000 418.400000
13190 6084 13869 1 149.00000 418.400000
13190 6085 14594 1 149.00000 418.400000
13190 6086 13592 1 149.00000 418.400000
13190 6087 14922 1 149.00000 418.400000
16664 6088 19678 1 149.00000 418.400000
19678 6089 20581 1 149.00000 418.400000
13191 6090 15449 1 149.00000 418.400000
13191 6091 16137 1 149.00000 418.400000
13191 6092 14316 1 149.00000 418.400000
13191 6093 14045 1 149.00000 418.400000
13192 6094 15249 1 149.00000 418.400000
13192 6095 16370 1 149.00000 418.400000
13192 6096 13514 1 149.00000 418.400000
13193 6097 13560 1 149.00000 418.400000
13193 6098 13620 1 149.00000 418.400000
14585 6099 19702 1 149.00000 418.400000
19702 6100 20812 1 149.00000 418.400000
14226 6101 19702 1 149.00000 418.400000
13194 6102 15014 1 149.00000 418.400000
13194 6103 16604 1 149.00000 418.400000
13195 6104 16085 1 149.00000 418.400000
13195 6105 13678 1 149.00000 418.400000
13195 6106 14431 1 149.00000 418.400000
13195 6107 14740 1 149.00000 418.400000
15984 6108 19714 1 149.00000 418.400000
15963 6109 19714 1 149.00000 418.400000
15435 6110 19714 1 149.00000 418.400000
13196 6111 14643 1 149.00000 418.400000
15059 6112 15335 1 149.00000 418.400000
13196 6113 15059 1 149.00000 418.400000
16076 6114 16130 1 149.00000 418.400000
13197 6115 15687 1 149.00000 418.400000
12782 6116 13198 1 149.00000 418.400000
13198 6117 16361 1 149.00000 418.400000
13199 6118 16192 1 149.00000 418.400000
13200 6119 15899 1 149.00000 418.400000
13200 6120 13232 1 149.00000 418.400000
13200 6121 13892 1 149.00000 418.400000
13201 6122 15962 1 149.00000 418.400000
13201 6123 13937 1 149.00000 418.400000
13202 6124 14713 1 149.00000 418.400000
13202 6125 15989 1 149.00000 418.400000
13202 6126 17064 1 149.00000 418.400000
13202 6127 13382 1 149.00000 418.400000
13203 6128 13604 1 149.00000 418.400000
12238 6129 13204 1 149.00000 418.400000
13204 6130 17456 1 149.00000 418.400000
13204 6131 14344 1 149.00000 418.400000
13205 6132 13206 1 149.00000 418.400000
13205 6133 13398 1 149.00000 418.400000
13205 6134 15537 1 149.00000 418.400000
13635 6135 15456 1 149.00000 418.400000
13206 6136 13235 1 149.00000 418.400000
13207 6137 14990 1 149.00000 418.400000
13207 6138 13704 1 149.00000 418.400000
13207 6139 13973 1 149.00000 418.400000
13207 6140 16084 1 149.00000 418.400000
13208 6141 13360 1 149.00000 418.400000
13208 6142 16003 1 149.00000 418.400000
13208 6143 14264 1 149.00000 418.400000
13209 6144 20761 1 149.00000 418.400000
14191 6145 14745 1 149.00000 418.400000
13210 6146 14191 1 149.00000 418.400000
14191 6147 15837 1 149.00000 418.400000
19726 6148 20038 1 149.00000 418.400000
19726 6149 20611 1 149.00000 418.400000
13211 6150 20803 1 149.00000 418.400000
13211 6151 20875 1 149.00000 418.400000
13211 6152 20635 1 149.00000 418.400000
13211 6153 15565 1 149.00000 418.400000
13212 6154 14227 1 149.00000 418.400000
13213 6155 14220 1 149.00000 418.400000
13213 6156 14386 1 149.00000 418.400000
13213 6157 14051 1 149.00000 418.400000
13214 6158 15929 1 149.00000 418.400000
13214 6159 14025 1 149.00000 418.400000
13215 6160 14422 1 149.00000 418.400000
12787 6161 13709 1 149.00000 418.400000
13709 6162 15804 1 149.00000 418.400000
13216 6163 13661 1 149.00000 418.400000
13216 6164 13777 1 149.00000 418.400000
13217 6165 14467 1 149.00000 418.400000
13217 6166 13996 1 149.00000 418.400000
14347 6167 16424 1 149.00000 418.400000
13218 6168 15952 1 149.00000 418.400000
13218 6169 15569 1 149.00000 418.400000
13218 6170 14347 1 149.00000 418.400000
13219 6171 15499 1 149.00000 418.400000
13219 6172 20407 1 149.00000 418.400000
19738 6173 20335 1 149.00000 418.400000
14477 6174 19738 1 149.00000 418.400000
15982 6175 16696 1 149.00000 418.400000
13220 6176 13656 1 149.00000 418.400000
13220 6177 16348 1 149.00000 418.400000
11930 6178 16696 1 149.00000 418.400000
13221 6179 15021 1 149.00000 418.400000
13221 6180 13251 1 149.00000 418.400000
13222 6181 15771 1 149.00000 418.400000
13222 6182 16386 1 149.00000 418.400000
13222 6183 14266 1 149.00000 418.400000
13222 6184 14434 1 149.00000 418.400000
13223 6185 14532 1 149.00000 418.400000
13223 6186 16714 1 149.00000 418.400000
13223 6187 17918 1 149.00000 418.400000
13224 6188 13469 1 149.00000 418.400000
13224 6189 16429 1 149.00000 418.400000
13224 6190 14373 1 149.00000 418.400000
13224 6191 13724 1 149.00000 418.400000
13225 6192 14559 1 149.00000 418.400000
13226 6193 14611 1 149.00000 418.400000
13226 6194 13792 1 149.00000 418.400000
13226 6195 14968 1 149.00000 418.400000
13226 6196 14320 1 149.00000 418.400000
15984 6197 19750 1 149.00000 418.400000
15171 6198 19750 1 149.00000 418.400000
14514 6199 20224 1 149.00000 418.400000
13227 6200 15951 1 149.00000 418.400000
13227 6201 14705 1 149.00000 418.400000
13227 6202 13494 1 149.00000 418.400000
13228 6203 13631 1 149.00000 418.400000
13228 6204 13580 1 149.00000 418.400000
13229 6205 14388 1 149.00000 418.400000
13229 6206 16171 1 149.00000 418.400000
13229 6207 14960 1 149.00000 418.400000
13230 6208 14535 1 149.00000 418.400000
13230 6209 14527 1 149.00000 418.400000
13231 6210 14998 1 149.00000 418.400000
13231 6211 16040 1 149.00000 418.400000
13231 6212 14617 1 149.00000 418.400000
13231 6213 16415 1 149.00000 418.400000
13232 6214 13458 1 149.00000 418.400000
13233 6215 13813 1 149.00000 418.400000
13233 6216 13407 1 149.00000 418.400000
13233 6217 14085 1 149.00000 418.400000
13234 6218 15247 1 149.00000 418.400000
13234 6219 17428 1 149.00000 418.400000
13235 6220 15734 1 149.00000 418.400000
13236 6221 16574 1 149.00000 418.400000
12923 6222 13236 1 149.00000 418.400000
13237 6223 15798 1 149.00000 418.400000
13237 6224 14238 1 149.00000 418.400000
13237 6225 16008 1 149.00000 418.400000
13238 6226 14830 1 149.00000 418.400000
13238 6227 16225 1 149.00000 418.400000
13238 6228 14221 1 149.00000 418.400000
15430 6229 19762 1 149.00000 418.400000
16657 6230 19774 1 149.00000 418.400000
14206 6231 19774 1 149.00000 418.400000
19774 6232 20362 1 149.00000 418.400000
18214 6233 19786 1 149.00000 418.400000
12608 6234 14117 1 149.00000 418.400000
13239 6235 17554 1 149.00000 418.400000
13240 6236 14440 1 149.00000 418.400000
13240 6237 13644 1 149.00000 418.400000
13240 6238 20503 1 149.00000 418.400000
13241 6239 16075 1 149.00000 418.400000
13241 6240 14041 1 149.00000 418.400000
13241 6241 16549 1 149.00000 418.400000
13241 6242 16607 1 149.00000 418.400000
13242 6243 13946 1 149.00000 418.400000
13242 6244 15301 1 149.00000 418.400000
13243 6245 16350 1 149.00000 418.400000
13244 6246 15219 1 149.00000 418.400000
13244 6247 15988 1 149.00000 418.400000
13245 6248 15771 1 149.00000 418.400000
13245 6249 14593 1 149.00000 418.400000
13245 6250 13378 1 149.00000 418.400000
13246 6251 20893 1 149.00000 418.400000
13247 6252 16084 1 149.00000 418.400000
13247 6253 14509 1 149.00000 418.400000
13247 6254 14366 1 149.00000 418.400000
13248 6255 14534 1 149.00000 418.400000
14423 6256 15096 1 149.00000 418.400000
13248 6257 13527 1 149.00000 418.400000
13248 6258 14423 1 149.00000 418.400000
13249 6259 14338 1 149.00000 418.400000
13249 6260 16402 1 149.00000 418.400000
13249 6261 15816 1 149.00000 418.400000
19798 6262 20833 1 149.00000 418.400000
19798 6263 20578 1 149.00000 418.400000
14294 6264 19798 1 149.00000 418.400000
13250 6265 13593 1 149.00000 418.400000
11509 6266 15884 1 149.00000 418.400000
19810 6267 20602 1 149.00000 418.400000
13252 6268 16495 1 149.00000 418.400000
13252 6269 15744 1 149.00000 418.400000
13252 6270 14849 1 149.00000 418.400000
13252 6271 16120 1 149.00000 418.400000
13253 6272 15807 1 149.00000 418.400000
13253 6273 15628 1 149.00000 418.400000
13253 6274 14771 1 149.00000 418.400000
14100 6275 14771 1 149.00000 418.400000
13254 6276 13967 1 149.00000 418.400000
13254 6277 13890 1 149.00000 418.400000
13255 6278 16542 1 149.00000 418.400000
13255 6279 15036 1 149.00000 418.400000
13255 6280 16335 1 149.00000 418.400000
13255 6281 15209 1 149.00000 418.400000
13256 6282 16603 1 149.00000 418.400000
12412 6283 13257 1 149.00000 418.400000
13257 6284 16218 1 149.00000 418.400000
13257 6285 15226 1 149.00000 418.400000
13258 6286 15897 1 149.00000 418.400000
13258 6287 16079 1 149.00000 418.400000
13259 6288 16484 1 149.00000 418.400000
13259 6289 16193 1 149.00000 418.400000
13260 6290 16494 1 149.00000 418.400000
13260 6291 16235 1 149.00000 418.400000
13261 6292 14659 1 149.00000 418.400000
13261 6293 15176 1 149.00000 418.400000
13261 6294 14095 1 149.00000 418.400000
13262 6295 15960 1 149.00000 418.400000
13262 6296 15909 1 149.00000 418.400000
13263 6297 15948 1 149.00000 418.400000
13263 6298 16029 1 149.00000 418.400000
13263 6299 15539 1 149.00000 418.400000
13263 6300 15633 1 149.00000 418.400000
13264 6301 14592 1 149.00000 418.400000
13264 6302 16307 1 149.00000 418.400000
13264 6303 17890 1 149.00000 418.400000
13265 6304 16234 1 149.00000 418.400000
13265 6305 16185 1 149.00000 418.400000
13266 6306 14318 1 149.00000 418.400000
13266 6307 14892 1 149.00000 418.400000
13266 6308 16426 1 149.00000 418.400000
13267 6309 15071 1 149.00000 418.400000
13267 6310 20293 1 149.00000 418.400000
13268 6311 13881 1 149.00000 418.400000
13268 6312 14473 1 149.00000 418.400000
13268 6313 13288 1 149.00000 418.400000
19822 6314 20428 1 149.00000 418.400000
15551 6315 19822 1 149.00000 418.400000
13269 6316 16193 1 149.00000 418.400000
13269 6317 15991 1 149.00000 418.400000
13269 6318 14020 1 149.00000 418.400000
13270 6319 15053 1 149.00000 418.400000
13270 6320 14687 1 149.00000 418.400000
13210 6321 13270 1 149.00000 418.400000
13270 6322 16477 1 149.00000 418.400000
13271 6323 13806 1 149.00000 418.400000
13271 6324 15449 1 149.00000 418.400000
13272 6325 16537 1 149.00000 418.400000
13272 6326 14151 1 149.00000 418.400000
13272 6327 13721 1 149.00000 418.400000
13273 6328 16541 1 149.00000 418.400000
13273 6329 16605 1 149.00000 418.400000
13273 6330 15934 1 149.00000 418.400000
13274 6331 14750 1 149.00000 418.400000
13274 6332 16439 1 149.00000 418.400000
13274 6333 15461 1 149.00000 418.400000
13274 6334 14051 1 149.00000 418.400000
14615 6335 19834 1 149.00000 418.400000
13275 6336 14466 1 149.00000 418.400000
14466 6337 16003 1 149.00000 418.400000
13276 6338 13790 1 149.00000 418.400000
13276 6339 16331 1 149.00000 418.400000
13277 6340 16687 1 149.00000 418.400000
13277 6341 20854 1 149.00000 418.400000
13277 6342 15387 1 149.00000 418.400000
13278 6343 15716 1 149.00000 418.400000
15716 6344 15805 1 149.00000 418.400000
13278 6345 16358 1 149.00000 418.400000
13279 6346 13601 1 149.00000 418.400000
13279 6347 15436 1 149.00000 418.400000
13279 6348 16611 1 149.00000 418.400000
13279 6349 13446 1 149.00000 418.400000
19846 6350 20347 1 149.00000 418.400000
16549 6351 19846 1 149.00000 418.400000
13280 6352 16501 1 149.00000 418.400000
13280 6353 16313 1 149.00000 418.400000
13281 6354 13450 1 149.00000 418.400000
13281 6355 16678 1 149.00000 418.400000
12880 6356 15785 1 149.00000 418.400000
13282 6357 14338 1 149.00000 418.400000
13283 6358 14009 1 149.00000 418.400000
13283 6359 15290 1 149.00000 418.400000
13284 6360 15805 1 149.00000 418.400000
14070 6361 15605 1 149.00000 418.400000
13284 6362 15076 1 149.00000 418.400000
13284 6363 14070 1 149.00000 418.400000
13285 6364 20104 1 149.00000 418.400000
13285 6365 14449 1 149.00000 418.400000
13285 6366 20644 1 149.00000 418.400000
13285 6367 14804 1 149.00000 418.400000
13286 6368 13490 1 149.00000 418.400000
12747 6369 13286 1 149.00000 418.400000
13286 6370 14193 1 149.00000 418.400000
13287 6371 15271 1 149.00000 418.400000
13287 6372 14706 1 149.00000 418.400000
13287 6373 15476 1 149.00000 418.400000
13288 6374 16494 1 149.00000 418.400000
13288 6375 15595 1 149.00000 418.400000
13289 6376 15087 1 149.00000 418.400000
13289 6377 15304 1 149.00000 418.400000
13290 6378 16075 1 149.00000 418.400000
13290 6379 20092 1 149.00000 418.400000
13290 6380 20347 1 149.00000 418.400000
13291 6381 16337 1 149.00000 418.400000
13292 6382 15411 1 149.00000 418.400000
19858 6383 19969 1 149.00000 418.400000
14615 6384 19858 1 149.00000 418.400000
14200 6385 19870 1 149.00000 418.400000
19870 6386 20776 1 149.00000 418.400000
13293 6387 13960 1 149.00000 418.400000
13293 6388 14446 1 149.00000 418.400000
13293 6389 14845 1 149.00000 418.400000
13293 6390 16036 1 149.00000 418.400000
13294 6391 15864 1 149.00000 418.400000
13294 6392 13299 1 149.00000 418.400000
13294 6393 16401 1 149.00000 418.400000
13294 6394 16524 1 149.00000 418.400000
13557 6395 19882 1 149.00000 418.400000
19882 6396 20623 1 149.00000 418.400000
14563 6397 19882 1 149.00000 418.400000
13295 6398 13433 1 149.00000 418.400000
13295 6399 15828 1 149.00000 418.400000
13433 6400 14956 1 149.00000 418.400000
15035 6401 16293 1 149.00000 418.400000
13296 6402 13923 1 149.00000 418.400000
13296 6403 15006 1 149.00000 418.400000
13297 6404 16549 1 149.00000 418.400000
13297 6405 15252 1 149.00000 418.400000
13297 6406 13311 1 149.00000 418.400000
13298 6407 13706 1 149.00000 418.400000
13298 6408 16098 1 149.00000 418.400000
13299 6409 15015 1 149.00000 418.400000
13300 6410 13716 1 149.00000 418.400000
13300 6411 15892 1 149.00000 418.400000
14714 6412 15888 1 149.00000 418.400000
14691 6413 15888 1 149.00000 418.400000
13301 6414 15888 1 149.00000 418.400000
13302 6415 15046 1 149.00000 418.400000
13303 6416 16286 1 149.00000 418.400000
15873 6417 17722 1 149.00000 418.400000
13303 6418 15873 1 149.00000 418.400000
13304 6419 13611 1 149.00000 418.400000
13304 6420 16215 1 149.00000 418.400000
13305 6421 14457 1 149.00000 418.400000
13305 6422 15664 1 149.00000 418.400000
13306 6423 13447 1 149.00000 418.400000
13307 6424 14197 1 149.00000 418.400000
13307 6425 16135 1 149.00000 418.400000
13307 6426 14357 1 149.00000 418.400000
13307 6427 20029 1 149.00000 418.400000
13308 6428 15840 1 149.00000 418.400000
13308 6429 14580 1 149.00000 418.400000
13309 6430 15560 1 149.00000 418.400000
13309 6431 13721 1 149.00000 418.400000
13310 6432 16122 1 149.00000 418.400000
13310 6433 13736 1 149.00000 418.400000
13311 6434 14934 1 149.00000 418.400000
13311 6435 15370 1 149.00000 418.400000
13311 6436 15222 1 149.00000 418.400000
15370 6437 16431 1 149.00000 418.400000
13312 6438 14060 1 149.00000 418.400000
13312 6439 14335 1 149.00000 418.400000
13313 6440 17512 1 149.00000 418.400000
13313 6441 15958 1 149.00000 418.400000
13313 6442 15614 1 149.00000 418.400000
13314 6443 13820 1 149.00000 418.400000
13314 6444 13600 1 149.00000 418.400000
13314 6445 13677 1 149.00000 418.400000
13314 6446 13990 1 149.00000 418.400000
13315 6447 13728 1 149.00000 418.400000
13315 6448 20173 1 149.00000 418.400000
13315 6449 14075 1 149.00000 418.400000
13316 6450 13733 1 149.00000 418.400000
13316 6451 14953 1 149.00000 418.400000
13316 6452 20632 1 149.00000 418.400000
13317 6453 14624 1 149.00000 418.400000
13317 6454 15606 1 149.00000 418.400000
13317 6455 15829 1 149.00000 418.400000
13318 6456 13969 1 149.00000 418.400000
13318 6457 13393 1 149.00000 418.400000
13318 6458 14301 1 149.00000 418.400000
13318 6459 16016 1 149.00000 418.400000
13319 6460 14573 1 149.00000 418.400000
13319 6461 13922 1 149.00000 418.400000
13319 6462 14208 1 149.00000 418.400000
13319 6463 15346 1 149.00000 418.400000
13320 6464 14601 1 149.00000 418.400000
13320 6465 15406 1 149.00000 418.400000
13320 6466 15898 1 149.00000 418.400000
13321 6467 15451 1 149.00000 418.400000
12550 6468 14074 1 149.00000 418.400000
13322 6469 13958 1 149.00000 418.400000
12550 6470 14824 1 149.00000 418.400000
13323 6471 14121 1 149.00000 418.400000
13323 6472 14639 1 149.00000 418.400000
13324 6473 15754 1 149.00000 418.400000
13324 6474 15412 1 149.00000 418.400000
13324 6475 15842 1 149.00000 418.400000
13325 6476 13493 1 149.00000 418.400000
13325 6477 14975 1 149.00000 418.400000
13325 6478 15610 1 149.00000 418.400000
12909 6479 13326 1 149.00000 418.400000
13327 6480 15932 1 149.00000 418.400000
13327 6481 14047 1 149.00000 418.400000
13327 6482 15156 1 149.00000 418.400000
13328 6483 15000 1 149.00000 418.400000
13328 6484 15630 1 149.00000 418.400000
13328 6485 14444 1 149.00000 418.400000
19906 6486 20071 1 149.00000 418.400000
14478 6487 19906 1 149.00000 418.400000
14418 6488 14478 1 149.00000 418.400000
13329 6489 14814 1 149.00000 418.400000
13330 6490 14099 1 149.00000 418.400000
13330 6491 15513 1 149.00000 418.400000
12342 6492 17400 1 149.00000 418.400000
13331 6493 14572 1 149.00000 418.400000
13331 6494 16208 1 149.00000 418.400000
13331 6495 15684 1 149.00000 418.400000
12129 6496 13331 1 149.00000 418.400000
13332 6497 14037 1 149.00000 418.400000
13332 6498 14923 1 149.00000 418.400000
13332 6499 14471 1 149.00000 418.400000
13332 6500 20845 1 149.00000 418.400000
13333 6501 14957 1 149.00000 418.400000
13333 6502 13457 1 149.00000 418.400000
13334 6503 14324 1 149.00000 418.400000
13334 6504 16084 1 149.00000 418.400000
13335 6505 16376 1 149.00000 418.400000
13335 6506 13655 1 149.00000 418.400000
13336 6507 15795 1 149.00000 418.400000
13337 6508 15183 1 149.00000 418.400000
13337 6509 15151 1 149.00000 418.400000
13337 6510 13592 1 149.00000 418.400000
13337 6511 14753 1 149.00000 418.400000
13338 6512 16453 1 149.00000 418.400000
13339 6513 15739 1 149.00000 418.400000
13339 6514 15083 1 149.00000 418.400000
13340 6515 20131 1 149.00000 418.400000
13340 6516 15711 1 149.00000 418.400000
13341 6517 15787 1 149.00000 418.400000
13341 6518 13620 1 149.00000 418.400000
15787 6519 20443 1 149.00000 418.400000
13342 6520 16308 1 149.00000 418.400000
13342 6521 14317 1 149.00000 418.400000
13343 6522 13422 1 149.00000 418.400000
13343 6523 15432 1 149.00000 418.400000
13343 6524 14120 1 149.00000 418.400000
13344 6525 16371 1 149.00000 418.400000
14123 6526 19930 1 149.00000 418.400000
13345 6527 13516 1 149.00000 418.400000
13345 6528 14260 1 149.00000 418.400000
13345 6529 16571 1 149.00000 418.400000
13346 6530 16501 1 149.00000 418.400000
13346 6531 16072 1 149.00000 418.400000
13347 6532 14102 1 149.00000 418.400000
13347 6533 14809 1 149.00000 418.400000
13347 6534 13617 1 149.00000 418.400000
13347 6535 13390 1 149.00000 418.400000
13348 6536 14250 1 149.00000 418.400000
13348 6537 13879 1 149.00000 418.400000
13349 6538 20851 1 149.00000 418.400000
13349 6539 14621 1 149.00000 418.400000
13351 6540 15520 1 149.00000 418.400000
13351 6541 15675 1 149.00000 418.400000
13351 6542 14593 1 149.00000 418.400000
13351 6543 16471 1 149.00000 418.400000
13352 6544 13477 1 149.00000 418.400000
13352 6545 14069 1 149.00000 418.400000
14069 6546 14595 1 149.00000 418.400000
11698 6547 13884 1 149.00000 418.400000
11698 6548 15775 1 149.00000 418.400000
11698 6549 15736 1 149.00000 418.400000
13354 6550 14303 1 149.00000 418.400000
13354 6551 13856 1 149.00000 418.400000
13856 6552 15977 1 149.00000 418.400000
13355 6553 13696 1 149.00000 418.400000
13355 6554 15363 1 149.00000 418.400000
11590 6555 13356 1 149.00000 418.400000
16049 6556 19942 1 149.00000 418.400000
19942 6557 19963 1 149.00000 418.400000
19945 6558 20380 1 149.00000 418.400000
13357 6559 16406 1 149.00000 418.400000
13357 6560 19957 1 149.00000 418.400000
13357 6561 14521 1 149.00000 418.400000
13357 6562 16597 1 149.00000 418.400000
13358 6563 15161 1 149.00000 418.400000
13358 6564 16086 1 149.00000 418.400000
13358 6565 15061 1 149.00000 418.400000
13359 6566 16107 1 149.00000 418.400000
13359 6567 20821 1 149.00000 418.400000
13359 6568 20293 1 149.00000 418.400000
19948 6569 20464 1 149.00000 418.400000
16197 6570 19948 1 149.00000 418.400000
13360 6571 16280 1 149.00000 418.400000
19951 6572 20473 1 149.00000 418.400000
15402 6573 19951 1 149.00000 418.400000
20089 6574 20473 1 149.00000 418.400000
13361 6575 16446 1 149.00000 418.400000
13361 6576 15224 1 149.00000 418.400000
13361 6577 15417 1 149.00000 418.400000
13362 6578 16460 1 149.00000 418.400000
13362 6579 15274 1 149.00000 418.400000
13362 6580 13811 1 149.00000 418.400000
15917 6581 19954 1 149.00000 418.400000
13363 6582 15253 1 149.00000 418.400000
13363 6583 13853 1 149.00000 418.400000
13363 6584 16007 1 149.00000 418.400000
13363 6585 15035 1 149.00000 418.400000
13364 6586 15248 1 149.00000 418.400000
15248 6587 15977 1 149.00000 418.400000
14095 6588 14940 1 149.00000 418.400000
13365 6589 14940 1 149.00000 418.400000
13365 6590 14853 1 149.00000 418.400000
13365 6591 13993 1 149.00000 418.400000
13366 6592 13847 1 149.00000 418.400000
13366 6593 13414 1 149.00000 418.400000
13367 6594 15696 1 149.00000 418.400000
13367 6595 15757 1 149.00000 418.400000
13367 6596 15538 1 149.00000 418.400000
13368 6597 16005 1 149.00000 418.400000
13368 6598 14727 1 149.00000 418.400000
13368 6599 14006 1 149.00000 418.400000
14262 6600 19957 1 149.00000 418.400000
19957 6601 20431 1 149.00000 418.400000
13369 6602 15030 1 149.00000 418.400000
13369 6603 15600 1 149.00000 418.400000
13369 6604 14917 1 149.00000 418.400000
13369 6605 15811 1 149.00000 418.400000
13370 6606 14554 1 149.00000 418.400000
13370 6607 14877 1 149.00000 418.400000
13371 6608 14675 1 149.00000 418.400000
13371 6609 14392 1 149.00000 418.400000
13371 6610 15372 1 149.00000 418.400000
13371 6611 13922 1 149.00000 418.400000
13372 6612 15465 1 149.00000 418.400000
13372 6613 14865 1 149.00000 418.400000
13372 6614 15784 1 149.00000 418.400000
13373 6615 20428 1 149.00000 418.400000
13365 6616 13373 1 149.00000 418.400000
13373 6617 16206 1 149.00000 418.400000
13374 6618 14951 1 149.00000 418.400000
13374 6619 15954 1 149.00000 418.400000
13375 6620 14467 1 149.00000 418.400000
13375 6621 16258 1 149.00000 418.400000
13803 6622 14467 1 149.00000 418.400000
13376 6623 15419 1 149.00000 418.400000
13376 6624 15084 1 149.00000 418.400000
13377 6625 15652 1 149.00000 418.400000
13377 6626 15032 1 149.00000 418.400000
13377 6627 15783 1 149.00000 418.400000
13377 6628 15486 1 149.00000 418.400000
13378 6629 15427 1 149.00000 418.400000
13378 6630 15009 1 149.00000 418.400000
13379 6631 14624 1 149.00000 418.400000
13379 6632 15887 1 149.00000 418.400000
13381 6633 14430 1 149.00000 418.400000
13381 6634 15297 1 149.00000 418.400000
13381 6635 14612 1 149.00000 418.400000
13382 6636 14344 1 149.00000 418.400000
13382 6637 14536 1 149.00000 418.400000
13382 6638 20725 1 149.00000 418.400000
13698 6639 19960 1 149.00000 418.400000
13383 6640 16246 1 149.00000 418.400000
13383 6641 14311 1 149.00000 418.400000
13383 6642 17442 1 149.00000 418.400000
13384 6643 14903 1 149.00000 418.400000
13385 6644 16094 1 149.00000 418.400000
13253 6645 13385 1 149.00000 418.400000
13385 6646 20140 1 149.00000 418.400000
15136 6647 19963 1 149.00000 418.400000
16521 6648 19966 1 149.00000 418.400000
14746 6649 19966 1 149.00000 418.400000
11503 6650 19966 1 149.00000 418.400000
13386 6651 13775 1 149.00000 418.400000
13386 6652 13852 1 149.00000 418.400000
13386 6653 15227 1 149.00000 418.400000
13386 6654 16033 1 149.00000 418.400000
13387 6655 13500 1 149.00000 418.400000
13387 6656 13707 1 149.00000 418.400000
13387 6657 14040 1 149.00000 418.400000
14731 6658 19969 1 149.00000 418.400000
13388 6659 16181 1 149.00000 418.400000
13388 6660 13631 1 149.00000 418.400000
13388 6661 14506 1 149.00000 418.400000
13389 6662 13865 1 149.00000 418.400000
13389 6663 14857 1 149.00000 418.400000
13390 6664 17512 1 149.00000 418.400000
13390 6665 14691 1 149.00000 418.400000
13391 6666 20194 1 149.00000 418.400000
13391 6667 15606 1 149.00000 418.400000
13392 6668 13768 1 149.00000 418.400000
13392 6669 14718 1 149.00000 418.400000
13392 6670 15791 1 149.00000 418.400000
13393 6671 14794 1 149.00000 418.400000
13393 6672 15061 1 149.00000 418.400000
13394 6673 16568 1 149.00000 418.400000
13394 6674 15843 1 149.00000 418.400000
13394 6675 14715 1 149.00000 418.400000
13395 6676 13519 1 149.00000 418.400000
13395 6677 16677 1 149.00000 418.400000
13395 6678 13547 1 149.00000 418.400000
13396 6679 16013 1 149.00000 418.400000
13396 6680 16127 1 149.00000 418.400000
13396 6681 15686 1 149.00000 418.400000
13396 6682 15120 1 149.00000 418.400000
13397 6683 13956 1 149.00000 418.400000
13398 6684 15872 1 149.00000 418.400000
13399 6685 15652 1 149.00000 418.400000
13399 6686 14359 1 149.00000 418.400000
13400 6687 13715 1 149.00000 418.400000
13401 6688 16582 1 149.00000 418.400000
13401 6689 14515 1 149.00000 418.400000
13401 6690 15053 1 149.00000 418.400000
13402 6691 13523 1 149.00000 418.400000
13402 6692 15572 1 149.00000 418.400000
13402 6693 16448 1 149.00000 418.400000
13402 6694 14920 1 149.00000 418.400000
13403 6695 20254 1 149.00000 418.400000
13403 6696 13813 1 149.00000 418.400000
13403 6697 13489 1 149.00000 418.400000
13403 6698 20836 1 149.00000 418.400000
13404 6699 15126 1 149.00000 418.400000
13404 6700 15782 1 149.00000 418.400000
13404 6701 14304 1 149.00000 418.400000
13404 6702 13982 1 149.00000 418.400000
13405 6703 14636 1 149.00000 418.400000
14636 6704 16595 1 149.00000 418.400000
13406 6705 15674 1 149.00000 418.400000
13406 6706 13710 1 149.00000 418.400000
13407 6707 14198 1 149.00000 418.400000
13407 6708 14476 1 149.00000 418.400000
13408 6709 14294 1 149.00000 418.400000
13408 6710 15575 1 149.00000 418.400000
13409 6711 16031 1 149.00000 418.400000
13410 6712 15500 1 149.00000 418.400000
13410 6713 14685 1 149.00000 418.400000
13410 6714 16688 1 149.00000 418.400000
12856 6715 13410 1 149.00000 418.400000
13411 6716 13758 1 149.00000 418.400000
13412 6717 14829 1 149.00000 418.400000
13412 6718 16123 1 149.00000 418.400000
13412 6719 14325 1 149.00000 418.400000
13412 6720 14032 1 149.00000 418.400000
13413 6721 20218 1 149.00000 418.400000
13413 6722 16104 1 149.00000 418.400000
13413 6723 14153 1 149.00000 418.400000
13414 6724 16035 1 149.00000 418.400000
13415 6725 14577 1 149.00000 418.400000
14673 6726 19972 1 149.00000 418.400000
13416 6727 15204 1 149.00000 418.400000
13416 6728 15407 1 149.00000 418.400000
13417 6729 15729 1 149.00000 418.400000
13417 6730 15142 1 149.00000 418.400000
13417 6731 16518 1 149.00000 418.400000
13418 6732 13529 1 149.00000 418.400000
13418 6733 15752 1 149.00000 418.400000
20410 6734 20743 1 149.00000 418.400000
16647 6735 20743 1 149.00000 418.400000
13419 6736 14690 1 149.00000 418.400000
11940 6737 16924 1 149.00000 418.400000
13420 6738 15528 1 149.00000 418.400000
13420 6739 14261 1 149.00000 418.400000
13420 6740 15141 1 149.00000 418.400000
17358 6741 19975 1 149.00000 418.400000
14075 6742 19975 1 149.00000 418.400000
13421 6743 14899 1 149.00000 418.400000
13421 6744 15842 1 149.00000 418.400000
13421 6745 15801 1 149.00000 418.400000
13422 6746 15042 1 149.00000 418.400000
13422 6747 13615 1 149.00000 418.400000
13423 6748 16395 1 149.00000 418.400000
13423 6749 13583 1 149.00000 418.400000
13423 6750 13898 1 149.00000 418.400000
13423 6751 16575 1 149.00000 418.400000
13424 6752 16682 1 149.00000 418.400000
13424 6753 13858 1 149.00000 418.400000
13424 6754 13669 1 149.00000 418.400000
13424 6755 13784 1 149.00000 418.400000
13425 6756 14782 1 149.00000 418.400000
13425 6757 14621 1 149.00000 418.400000
13426 6758 15455 1 149.00000 418.400000
13427 6759 14226 1 149.00000 418.400000
13427 6760 15926 1 149.00000 418.400000
13427 6761 13763 1 149.00000 418.400000
13666 6762 15549 1 149.00000 418.400000
15531 6763 15549 1 149.00000 418.400000
13428 6764 16644 1 149.00000 418.400000
13706 6765 15378 1 149.00000 418.400000
13429 6766 16333 1 149.00000 418.400000
13429 6767 15378 1 149.00000 418.400000
12429 6768 13430 1 149.00000 418.400000
13430 6769 14198 1 149.00000 418.400000
13430 6770 14544 1 149.00000 418.400000
13431 6771 15463 1 149.00000 418.400000
13431 6772 15852 1 149.00000 418.400000
13431 6773 15531 1 149.00000 418.400000
13432 6774 14458 1 149.00000 418.400000
13432 6775 16395 1 149.00000 418.400000
13432 6776 16458 1 149.00000 418.400000
13433 6777 14538 1 149.00000 418.400000
13295 6778 16522 1 149.00000 418.400000
13433 6779 14632 1 149.00000 418.400000
14327 6780 15868 1 149.00000 418.400000
13434 6781 14327 1 149.00000 418.400000
13434 6782 16372 1 149.00000 418.400000
13435 6783 15941 1 149.00000 418.400000
13435 6784 15962 1 149.00000 418.400000
12143 6785 15735 1 149.00000 418.400000
13436 6786 14914 1 149.00000 418.400000
15735 6787 16696 1 149.00000 418.400000
13437 6788 13904 1 149.00000 418.400000
13437 6789 13839 1 149.00000 418.400000
13437 6790 14758 1 149.00000 418.400000
13438 6791 13681 1 149.00000 418.400000
13438 6792 15263 1 149.00000 418.400000
13438 6793 14454 1 149.00000 418.400000
12457 6794 14885 1 149.00000 418.400000
13439 6795 15873 1 149.00000 418.400000
13440 6796 16565 1 149.00000 418.400000
13440 6797 14540 1 149.00000 418.400000
13441 6798 14937 1 149.00000 418.400000
13441 6799 16112 1 149.00000 418.400000
13441 6800 13930 1 149.00000 418.400000
13442 6801 16383 1 149.00000 418.400000
13442 6802 13461 1 149.00000 418.400000
13442 6803 15994 1 149.00000 418.400000
13443 6804 16538 1 149.00000 418.400000
13443 6805 16402 1 149.00000 418.400000
13443 6806 15637 1 149.00000 418.400000
13444 6807 15766 1 149.00000 418.400000
13444 6808 14002 1 149.00000 418.400000
13444 6809 16645 1 149.00000 418.400000
12955 6810 13562 1 149.00000 418.400000
13446 6811 16428 1 149.00000 418.400000
13447 6812 15992 1 149.00000 418.400000
13448 6813 14633 1 149.00000 418.400000
13448 6814 15285 1 149.00000 418.400000
12828 6815 13449 1 149.00000 418.400000
13449 6816 15662 1 149.00000 418.400000
13450 6817 15220 1 149.00000 418.400000
13450 6818 15604 1 149.00000 418.400000
13451 6819 15026 1 149.00000 418.400000
13111 6820 13451 1 149.00000 418.400000
13451 6821 16362 1 149.00000 418.400000
13354 6822 13451 1 149.00000 418.400000
13452 6823 16398 1 149.00000 418.400000
13452 6824 16253 1 149.00000 418.400000
13454 6825 14731 1 149.00000 418.400000
13454 6826 15790 1 149.00000 418.400000
13454 6827 20206 1 149.00000 418.400000
13455 6828 16070 1 149.00000 418.400000
13455 6829 16573 1 149.00000 418.400000
13455 6830 15574 1 149.00000 418.400000
13456 6831 13498 1 149.00000 418.400000
13456 6832 14240 1 149.00000 418.400000
13457 6833 15878 1 149.00000 418.400000
13457 6834 14113 1 149.00000 418.400000
13458 6835 17778 1 149.00000 418.400000
14702 6836 20275 1 149.00000 418.400000
13458 6837 14702 1 149.00000 418.400000
13459 6838 16648 1 149.00000 418.400000
13459 6839 14838 1 149.00000 418.400000
13460 6840 15016 1 149.00000 418.400000
13461 6841 14967 1 149.00000 418.400000
13461 6842 14954 1 149.00000 418.400000
13462 6843 20626 1 149.00000 418.400000
13462 6844 13750 1 149.00000 418.400000
13463 6845 14966 1 149.00000 418.400000
13463 6846 14627 1 149.00000 418.400000
13463 6847 15726 1 149.00000 418.400000
13463 6848 16155 1 149.00000 418.400000
13464 6849 15595 1 149.00000 418.400000
13464 6850 15084 1 149.00000 418.400000
13464 6851 13881 1 149.00000 418.400000
11635 6852 13465 1 149.00000 418.400000
12062 6853 13465 1 149.00000 418.400000
13466 6854 15547 1 149.00000 418.400000
13466 6855 15858 1 149.00000 418.400000
13467 6856 15874 1 149.00000 418.400000
13467 6857 14561 1 149.00000 418.400000
13467 6858 15493 1 149.00000 418.400000
13467 6859 15755 1 149.00000 418.400000
13468 6860 15813 1 149.00000 418.400000
12522 6861 16473 1 149.00000 418.400000
13468 6862 14736 1 149.00000 418.400000
13469 6863 16288 1 149.00000 418.400000
13470 6864 16041 1 149.00000 418.400000
13470 6865 15182 1 149.00000 418.400000
13470 6866 16401 1 149.00000 418.400000
14280 6867 16597 1 149.00000 418.400000
13471 6868 20431 1 149.00000 418.400000
13471 6869 14280 1 149.00000 418.400000
13472 6870 15074 1 149.00000 418.400000
13472 6871 14870 1 149.00000 418.400000
13473 6872 15956 1 149.00000 418.400000
13473 6873 14839 1 149.00000 418.400000
13473 6874 16241 1 149.00000 418.400000
13474 6875 14456 1 149.00000 418.400000
13474 6876 14216 1 149.00000 418.400000
13474 6877 16054 1 149.00000 418.400000
13475 6878 15030 1 149.00000 418.400000
13475 6879 15770 1 149.00000 418.400000
13476 6880 16607 1 149.00000 418.400000
13476 6881 15062 1 149.00000 418.400000
13476 6882 14041 1 149.00000 418.400000
12184 6883 13477 1 149.00000 418.400000
13477 6884 14423 1 149.00000 418.400000
13478 6885 15853 1 149.00000 418.400000
13478 6886 16386 1 149.00000 418.400000
13479 6887 14031 1 149.00000 418.400000
13480 6888 13828 1 149.00000 418.400000
13481 6889 20398 1 149.00000 418.400000
13481 6890 13995 1 149.00000 418.400000
13482 6891 15934 1 149.00000 418.400000
13482 6892 17344 1 149.00000 418.400000
13483 6893 14301 1 149.00000 418.400000
13483 6894 14865 1 149.00000 418.400000
13484 6895 14743 1 149.00000 418.400000
13484 6896 15428 1 149.00000 418.400000
15428 6897 15621 1 149.00000 418.400000
13484 6898 15662 1 149.00000 418.400000
13485 6899 20242 1 149.00000 418.400000
13485 6900 15765 1 149.00000 418.400000
19981 6901 20638 1 149.00000 418.400000
13486 6902 14872 1 149.00000 418.400000
13486 6903 14179 1 149.00000 418.400000
13486 6904 15196 1 149.00000 418.400000
13487 6905 13940 1 149.00000 418.400000
13488 6906 13658 1 149.00000 418.400000
13488 6907 15896 1 149.00000 418.400000
13488 6908 15809 1 149.00000 418.400000
13488 6909 20608 1 149.00000 418.400000
13489 6910 14271 1 149.00000 418.400000
13490 6911 15190 1 149.00000 418.400000
13490 6912 13708 1 149.00000 418.400000
13491 6913 20698 1 149.00000 418.400000
13491 6914 14928 1 149.00000 418.400000
13491 6915 20857 1 149.00000 418.400000
13492 6916 13706 1 149.00000 418.400000
13492 6917 14748 1 149.00000 418.400000
13493 6918 14459 1 149.00000 418.400000
13493 6919 15146 1 149.00000 418.400000
13493 6920 15254 1 149.00000 418.400000
16449 6921 19984 1 149.00000 418.400000
13494 6922 14008 1 149.00000 418.400000
13494 6923 14543 1 149.00000 418.400000
14297 6924 14543 1 149.00000 418.400000
13495 6925 13715 1 149.00000 418.400000
15052 6926 19987 1 149.00000 418.400000
13496 6927 15221 1 149.00000 418.400000
13496 6928 20515 1 149.00000 418.400000
13496 6929 15452 1 149.00000 418.400000
13497 6930 14097 1 149.00000 418.400000
19990 6931 20788 1 149.00000 418.400000
19990 6932 20245 1 149.00000 418.400000
13498 6933 14215 1 149.00000 418.400000
13498 6934 15567 1 149.00000 418.400000
13499 6935 14254 1 149.00000 418.400000
13499 6936 15192 1 149.00000 418.400000
13499 6937 15527 1 149.00000 418.400000
13500 6938 15530 1 149.00000 418.400000
13500 6939 17932 1 149.00000 418.400000
13500 6940 14155 1 149.00000 418.400000
13501 6941 15830 1 149.00000 418.400000
13501 6942 15774 1 149.00000 418.400000
13501 6943 13784 1 149.00000 418.400000
13502 6944 16121 1 149.00000 418.400000
13502 6945 14906 1 149.00000 418.400000
13503 6946 14294 1 149.00000 418.400000
13503 6947 16050 1 149.00000 418.400000
14578 6948 15043 1 149.00000 418.400000
15043 6949 15222 1 149.00000 418.400000
15043 6950 19993 1 149.00000 418.400000
13504 6951 15728 1 149.00000 418.400000
13504 6952 13749 1 149.00000 418.400000
13504 6953 15814 1 149.00000 418.400000
13504 6954 15727 1 149.00000 418.400000
13505 6955 16534 1 149.00000 418.400000
13505 6956 14951 1 149.00000 418.400000
13505 6957 13845 1 149.00000 418.400000
13506 6958 16097 1 149.00000 418.400000
12573 6959 16678 1 149.00000 418.400000
13507 6960 14441 1 149.00000 418.400000
13481 6961 13508 1 149.00000 418.400000
13509 6962 14872 1 149.00000 418.400000
13509 6963 13830 1 149.00000 418.400000
13830 6964 14626 1 149.00000 418.400000
13746 6965 15327 1 149.00000 418.400000
13510 6966 15131 1 149.00000 418.400000
13510 6967 15327 1 149.00000 418.400000
13511 6968 14987 1 149.00000 418.400000
14987 6969 15442 1 149.00000 418.400000
13512 6970 14939 1 149.00000 418.400000
12462 6971 13739 1 149.00000 418.400000
13513 6972 14620 1 149.00000 418.400000
13513 6973 14424 1 149.00000 418.400000
13513 6974 16035 1 149.00000 418.400000
13514 6975 15421 1 149.00000 418.400000
13514 6976 14738 1 149.00000 418.400000
13514 6977 13743 1 149.00000 418.400000
14844 6978 19996 1 149.00000 418.400000
13515 6979 16096 1 149.00000 418.400000
13515 6980 14619 1 149.00000 418.400000
13515 6981 15528 1 149.00000 418.400000
13516 6982 15145 1 149.00000 418.400000
13516 6983 15369 1 149.00000 418.400000
13517 6984 14667 1 149.00000 418.400000
13517 6985 15394 1 149.00000 418.400000
13517 6986 13854 1 149.00000 418.400000
13518 6987 20761 1 149.00000 418.400000
13518 6988 20602 1 149.00000 418.400000
13519 6989 13744 1 149.00000 418.400000
13519 6990 15138 1 149.00000 418.400000
13520 6991 15701 1 149.00000 418.400000
13520 6992 16340 1 149.00000 418.400000
13521 6993 16185 1 149.00000 418.400000
13521 6994 16434 1 149.00000 418.400000
13522 6995 14036 1 149.00000 418.400000
13522 6996 14623 1 149.00000 418.400000
13523 6997 20674 1 149.00000 418.400000
13524 6998 14158 1 149.00000 418.400000
13524 6999 13763 1 149.00000 418.400000
13525 7000 15863 1 149.00000 418.400000
13526 7001 13971 1 149.00000 418.400000
11604 7002 13527 1 149.00000 418.400000
13528 7003 15817 1 149.00000 418.400000
13528 7004 16311 1 149.00000 418.400000
13528 7005 15563 1 149.00000 418.400000
13529 7006 15599 1 149.00000 418.400000
13530 7007 15260 1 149.00000 418.400000
13530 7008 20839 1 149.00000 418.400000
13530 7009 14856 1 149.00000 418.400000
13531 7010 14490 1 149.00000 418.400000
13531 7011 15770 1 149.00000 418.400000
13531 7012 15047 1 149.00000 418.400000
13532 7013 15177 1 149.00000 418.400000
13532 7014 14506 1 149.00000 418.400000
13532 7015 16181 1 149.00000 418.400000
13532 7016 15744 1 149.00000 418.400000
13533 7017 15723 1 149.00000 418.400000
13533 7018 16501 1 149.00000 418.400000
13534 7019 14776 1 149.00000 418.400000
13534 7020 17218 1 149.00000 418.400000
13535 7021 16062 1 149.00000 418.400000
13535 7022 13681 1 149.00000 418.400000
13535 7023 16509 1 149.00000 418.400000
13536 7024 15846 1 149.00000 418.400000
13536 7025 14271 1 149.00000 418.400000
13536 7026 15693 1 149.00000 418.400000
13536 7027 16001 1 149.00000 418.400000
13537 7028 14031 1 149.00000 418.400000
13537 7029 15172 1 149.00000 418.400000
13537 7030 16458 1 149.00000 418.400000
13537 7031 13583 1 149.00000 418.400000
13538 7032 15900 1 149.00000 418.400000
13538 7033 16043 1 149.00000 418.400000
13538 7034 14610 1 149.00000 418.400000
13539 7035 14242 1 149.00000 418.400000
13539 7036 15362 1 149.00000 418.400000
13539 7037 20866 1 149.00000 418.400000
13540 7038 16293 1 149.00000 418.400000
13540 7039 15287 1 149.00000 418.400000
13540 7040 14552 1 149.00000 418.400000
13540 7041 16354 1 149.00000 418.400000
13541 7042 15469 1 149.00000 418.400000
13541 7043 15355 1 149.00000 418.400000
13542 7044 14564 1 149.00000 418.400000
13542 7045 14438 1 149.00000 418.400000
13542 7046 15377 1 149.00000 418.400000
13543 7047 16117 1 149.00000 418.400000
13543 7048 13939 1 149.00000 418.400000
13543 7049 14419 1 149.00000 418.400000
13543 7050 14944 1 149.00000 418.400000
13544 7051 15149 1 149.00000 418.400000
16157 7052 20005 1 149.00000 418.400000
13545 7053 14376 1 149.00000 418.400000
13545 7054 13818 1 149.00000 418.400000
13546 7055 16624 1 149.00000 418.400000
13547 7056 16645 1 149.00000 418.400000
13547 7057 14395 1 149.00000 418.400000
13548 7058 14154 1 149.00000 418.400000
13548 7059 14369 1 149.00000 418.400000
13548 7060 16173 1 149.00000 418.400000
13549 7061 14455 1 149.00000 418.400000
13549 7062 15347 1 149.00000 418.400000
14455 7063 15826 1 149.00000 418.400000
13549 7064 14350 1 149.00000 418.400000
13550 7065 15579 1 149.00000 418.400000
13550 7066 20047 1 149.00000 418.400000
13551 7067 14638 1 149.00000 418.400000
13551 7068 15865 1 149.00000 418.400000
13551 7069 15131 1 149.00000 418.400000
13551 7070 14450 1 149.00000 418.400000
13552 7071 15942 1 149.00000 418.400000
13552 7072 16460 1 149.00000 418.400000
13552 7073 17302 1 149.00000 418.400000
13553 7074 15116 1 149.00000 418.400000
13553 7075 14192 1 149.00000 418.400000
13553 7076 15846 1 149.00000 418.400000
13554 7077 14970 1 149.00000 418.400000
13554 7078 15533 1 149.00000 418.400000
13555 7079 16034 1 149.00000 418.400000
13555 7080 14727 1 149.00000 418.400000
13555 7081 15426 1 149.00000 418.400000
14727 7082 16225 1 149.00000 418.400000
13556 7083 14684 1 149.00000 418.400000
13556 7084 13719 1 149.00000 418.400000
12517 7085 13557 1 149.00000 418.400000
13557 7086 14995 1 149.00000 418.400000
13558 7087 14723 1 149.00000 418.400000
13558 7088 14285 1 149.00000 418.400000
13558 7089 14560 1 149.00000 418.400000
13559 7090 16113 1 149.00000 418.400000
13678 7091 16159 1 149.00000 418.400000
13559 7092 16159 1 149.00000 418.400000
13559 7093 13699 1 149.00000 418.400000
13560 7094 15787 1 149.00000 418.400000
13561 7095 16265 1 149.00000 418.400000
13561 7096 15905 1 149.00000 418.400000
13561 7097 16410 1 149.00000 418.400000
14731 7098 20008 1 149.00000 418.400000
13562 7099 20116 1 149.00000 418.400000
13562 7100 14726 1 149.00000 418.400000
13563 7101 15010 1 149.00000 418.400000
13563 7102 14790 1 149.00000 418.400000
13564 7103 13868 1 149.00000 418.400000
13564 7104 14279 1 149.00000 418.400000
13565 7105 16372 1 149.00000 418.400000
13565 7106 14542 1 149.00000 418.400000
13565 7107 15337 1 149.00000 418.400000
13566 7108 16165 1 149.00000 418.400000
13566 7109 15041 1 149.00000 418.400000
13566 7110 15212 1 149.00000 418.400000
13566 7111 16284 1 149.00000 418.400000
13567 7112 16669 1 149.00000 418.400000
13567 7113 17904 1 149.00000 418.400000
13567 7114 15042 1 149.00000 418.400000
13568 7115 15295 1 149.00000 418.400000
13568 7116 15978 1 149.00000 418.400000
13568 7117 15557 1 149.00000 418.400000
13569 7118 14806 1 149.00000 418.400000
13569 7119 15272 1 149.00000 418.400000
13569 7120 15075 1 149.00000 418.400000
13570 7121 15817 1 149.00000 418.400000
13570 7122 14055 1 149.00000 418.400000
13570 7123 13605 1 149.00000 418.400000
13571 7124 14778 1 149.00000 418.400000
13571 7125 15997 1 149.00000 418.400000
14778 7126 20395 1 149.00000 418.400000
13572 7127 20704 1 149.00000 418.400000
13572 7128 13759 1 149.00000 418.400000
13572 7129 13649 1 149.00000 418.400000
13572 7130 16213 1 149.00000 418.400000
13573 7131 16010 1 149.00000 418.400000
14893 7132 16010 1 149.00000 418.400000
13574 7133 14832 1 149.00000 418.400000
13574 7134 16537 1 149.00000 418.400000
13575 7135 13767 1 149.00000 418.400000
13575 7136 13905 1 149.00000 418.400000
13575 7137 15494 1 149.00000 418.400000
13576 7138 14967 1 149.00000 418.400000
13576 7139 14811 1 149.00000 418.400000
13576 7140 16127 1 149.00000 418.400000
20014 7141 20560 1 149.00000 418.400000
20014 7142 20332 1 149.00000 418.400000
13577 7143 13728 1 149.00000 418.400000
12963 7144 14524 1 149.00000 418.400000
13577 7145 15184 1 149.00000 418.400000
13578 7146 14811 1 149.00000 418.400000
13578 7147 15979 1 149.00000 418.400000
13578 7148 16101 1 149.00000 418.400000
13579 7149 15070 1 149.00000 418.400000
13579 7150 16540 1 149.00000 418.400000
13579 7151 13647 1 149.00000 418.400000
13580 7152 15210 1 149.00000 418.400000
14123 7153 20017 1 149.00000 418.400000
16464 7154 20017 1 149.00000 418.400000
13581 7155 16155 1 149.00000 418.400000
13581 7156 15363 1 149.00000 418.400000
13581 7157 15850 1 149.00000 418.400000
13582 7158 14600 1 149.00000 418.400000
13582 7159 14336 1 149.00000 418.400000
13582 7160 16118 1 149.00000 418.400000
13582 7161 15404 1 149.00000 418.400000
13583 7162 13883 1 149.00000 418.400000
13583 7163 16112 1 149.00000 418.400000
13584 7164 16035 1 149.00000 418.400000
13584 7165 14584 1 149.00000 418.400000
13584 7166 14513 1 149.00000 418.400000
13585 7167 15033 1 149.00000 418.400000
13586 7168 14739 1 149.00000 418.400000
13586 7169 13850 1 149.00000 418.400000
13586 7170 15424 1 149.00000 418.400000
13587 7171 15582 1 149.00000 418.400000
13588 7172 15548 1 149.00000 418.400000
13588 7173 13875 1 149.00000 418.400000
13588 7174 15920 1 149.00000 418.400000
13589 7175 16580 1 149.00000 418.400000
13589 7176 14968 1 149.00000 418.400000
11953 7177 13589 1 149.00000 418.400000
13590 7178 13859 1 149.00000 418.400000
13590 7179 15633 1 149.00000 418.400000
20020 7180 20338 1 149.00000 418.400000
13591 7181 13704 1 149.00000 418.400000
13591 7182 13946 1 149.00000 418.400000
13592 7183 15890 1 149.00000 418.400000
13593 7184 15083 1 149.00000 418.400000
13593 7185 14148 1 149.00000 418.400000
13594 7186 13857 1 149.00000 418.400000
13594 7187 15736 1 149.00000 418.400000
13594 7188 13972 1 149.00000 418.400000
13594 7189 13770 1 149.00000 418.400000
13595 7190 16295 1 149.00000 418.400000
13595 7191 14034 1 149.00000 418.400000
13595 7192 16408 1 149.00000 418.400000
13595 7193 13621 1 149.00000 418.400000
13097 7194 13596 1 149.00000 418.400000
13596 7195 15893 1 149.00000 418.400000
13597 7196 14736 1 149.00000 418.400000
13597 7197 16364 1 149.00000 418.400000
18130 7198 20023 1 149.00000 418.400000
13598 7199 16051 1 149.00000 418.400000
13598 7200 20368 1 149.00000 418.400000
13599 7201 13888 1 149.00000 418.400000
13599 7202 14474 1 149.00000 418.400000
13600 7203 15670 1 149.00000 418.400000
13600 7204 14776 1 149.00000 418.400000
13601 7205 15142 1 149.00000 418.400000
13601 7206 14491 1 149.00000 418.400000
13602 7207 15712 1 149.00000 418.400000
13602 7208 13934 1 149.00000 418.400000
13603 7209 20077 1 149.00000 418.400000
13605 7210 15604 1 149.00000 418.400000
13605 7211 16204 1 149.00000 418.400000
13605 7212 13801 1 149.00000 418.400000
13606 7213 14013 1 149.00000 418.400000
13607 7214 14372 1 149.00000 418.400000
13607 7215 14269 1 149.00000 418.400000
14372 7216 16415 1 149.00000 418.400000
13608 7217 20197 1 149.00000 418.400000
13609 7218 20257 1 149.00000 418.400000
13609 7219 14111 1 149.00000 418.400000
13609 7220 20650 1 149.00000 418.400000
13609 7221 15793 1 149.00000 418.400000
15997 7222 20026 1 149.00000 418.400000
13637 7223 20026 1 149.00000 418.400000
14326 7224 14409 1 149.00000 418.400000
13610 7225 14409 1 149.00000 418.400000
13610 7226 16505 1 149.00000 418.400000
13611 7227 14540 1 149.00000 418.400000
13612 7228 16015 1 149.00000 418.400000
13612 7229 16387 1 149.00000 418.400000
13612 7230 14926 1 149.00000 418.400000
13612 7231 13649 1 149.00000 418.400000
13613 7232 15046 1 149.00000 418.400000
13301 7233 13613 1 149.00000 418.400000
13613 7234 14691 1 149.00000 418.400000
13614 7235 14550 1 149.00000 418.400000
13614 7236 14927 1 149.00000 418.400000
15067 7237 16082 1 149.00000 418.400000
13615 7238 14849 1 149.00000 418.400000
13615 7239 13919 1 149.00000 418.400000
16215 7240 16627 1 149.00000 418.400000
13616 7241 16215 1 149.00000 418.400000
13616 7242 16659 1 149.00000 418.400000
13617 7243 14714 1 149.00000 418.400000
13617 7244 16342 1 149.00000 418.400000
13618 7245 16424 1 149.00000 418.400000
13618 7246 14509 1 149.00000 418.400000
13619 7247 13674 1 149.00000 418.400000
13619 7248 15316 1 149.00000 418.400000
13619 7249 13699 1 149.00000 418.400000
13619 7250 20488 1 149.00000 418.400000
13620 7251 14218 1 149.00000 418.400000
13999 7252 14218 1 149.00000 418.400000
13621 7253 13693 1 149.00000 418.400000
13622 7254 13982 1 149.00000 418.400000
13623 7255 14116 1 149.00000 418.400000
13623 7256 13824 1 149.00000 418.400000
16081 7257 20029 1 149.00000 418.400000
13624 7258 16585 1 149.00000 418.400000
13624 7259 15945 1 149.00000 418.400000
13625 7260 14787 1 149.00000 418.400000
13625 7261 15497 1 149.00000 418.400000
13626 7262 14890 1 149.00000 418.400000
13626 7263 16104 1 149.00000 418.400000
13626 7264 20719 1 149.00000 418.400000
12138 7265 13627 1 149.00000 418.400000
13627 7266 14410 1 149.00000 418.400000
13628 7267 15247 1 149.00000 418.400000
13629 7268 13636 1 149.00000 418.400000
14465 7269 15338 1 149.00000 418.400000
13631 7270 15338 1 149.00000 418.400000
13632 7271 13719 1 149.00000 418.400000
13632 7272 15473 1 149.00000 418.400000
13632 7273 14700 1 149.00000 418.400000
13632 7274 15542 1 149.00000 418.400000
13633 7275 14487 1 149.00000 418.400000
13633 7276 15864 1 149.00000 418.400000
14619 7277 16167 1 149.00000 418.400000
13634 7278 20380 1 149.00000 418.400000
13634 7279 16167 1 149.00000 418.400000
13634 7280 16419 1 149.00000 418.400000
13635 7281 15537 1 149.00000 418.400000
15181 7282 15537 1 149.00000 418.400000
13205 7283 13656 1 149.00000 418.400000
13636 7284 13663 1 149.00000 418.400000
13636 7285 15511 1 149.00000 418.400000
13636 7286 20260 1 149.00000 418.400000
13637 7287 20671 1 149.00000 418.400000
20296 7288 20671 1 149.00000 418.400000
13638 7289 15832 1 149.00000 418.400000
13638 7290 15250 1 149.00000 418.400000
15832 7291 16077 1 149.00000 418.400000
13639 7292 14557 1 149.00000 418.400000
13639 7293 15653 1 149.00000 418.400000
13639 7294 16190 1 149.00000 418.400000
13640 7295 14648 1 149.00000 418.400000
13640 7296 14855 1 149.00000 418.400000
13640 7297 14258 1 149.00000 418.400000
13642 7298 14166 1 149.00000 418.400000
13642 7299 14941 1 149.00000 418.400000
13642 7300 16271 1 149.00000 418.400000
13643 7301 20368 1 149.00000 418.400000
13643 7302 20248 1 149.00000 418.400000
13644 7303 15339 1 149.00000 418.400000
13644 7304 16627 1 149.00000 418.400000
13644 7305 15152 1 149.00000 418.400000
13645 7306 15426 1 149.00000 418.400000
13645 7307 14021 1 149.00000 418.400000
13284 7308 13645 1 149.00000 418.400000
13646 7309 20677 1 149.00000 418.400000
13646 7310 13703 1 149.00000 418.400000
13646 7311 20908 1 149.00000 418.400000
13646 7312 15535 1 149.00000 418.400000
13647 7313 15301 1 149.00000 418.400000
13647 7314 15311 1 149.00000 418.400000
13648 7315 14985 1 149.00000 418.400000
13648 7316 15455 1 149.00000 418.400000
13650 7317 14047 1 149.00000 418.400000
13650 7318 16141 1 149.00000 418.400000
11778 7319 16187 1 149.00000 418.400000
11778 7320 14595 1 149.00000 418.400000
13652 7321 14018 1 149.00000 418.400000
13652 7322 16512 1 149.00000 418.400000
13653 7323 15645 1 149.00000 418.400000
13653 7324 15636 1 149.00000 418.400000
14358 7325 15645 1 149.00000 418.400000
13848 7326 15486 1 149.00000 418.400000
13655 7327 14611 1 149.00000 418.400000
13655 7328 13848 1 149.00000 418.400000
13656 7329 15735 1 149.00000 418.400000
13657 7330 15113 1 149.00000 418.400000
13658 7331 16689 1 149.00000 418.400000
13658 7332 14675 1 149.00000 418.400000
13658 7333 14573 1 149.00000 418.400000
13659 7334 14498 1 149.00000 418.400000
13659 7335 16129 1 149.00000 418.400000
13659 7336 16531 1 149.00000 418.400000
13659 7337 15533 1 149.00000 418.400000
13660 7338 16405 1 149.00000 418.400000
13660 7339 14598 1 149.00000 418.400000
13660 7340 15174 1 149.00000 418.400000
16630 7341 20053 1 149.00000 418.400000
13661 7342 20053 1 149.00000 418.400000
13661 7343 20665 1 149.00000 418.400000
13661 7344 15585 1 149.00000 418.400000
13662 7345 16062 1 149.00000 418.400000
13662 7346 14837 1 149.00000 418.400000
13662 7347 16590 1 149.00000 418.400000
13663 7348 16655 1 149.00000 418.400000
13663 7349 16603 1 149.00000 418.400000
13663 7350 16156 1 149.00000 418.400000
13664 7351 13771 1 149.00000 418.400000
13664 7352 14555 1 149.00000 418.400000
13664 7353 16633 1 149.00000 418.400000
13665 7354 15277 1 149.00000 418.400000
13665 7355 15803 1 149.00000 418.400000
13665 7356 14424 1 149.00000 418.400000
13666 7357 16273 1 149.00000 418.400000
13428 7358 14924 1 149.00000 418.400000
13428 7359 13666 1 149.00000 418.400000
13667 7360 16453 1 149.00000 418.400000
13667 7361 14936 1 149.00000 418.400000
13667 7362 16152 1 149.00000 418.400000
13668 7363 20071 1 149.00000 418.400000
13668 7364 14012 1 149.00000 418.400000
13668 7365 20518 1 149.00000 418.400000
13669 7366 15695 1 149.00000 418.400000
13670 7367 13843 1 149.00000 418.400000
11452 7368 16444 1 149.00000 418.400000
13671 7369 14379 1 149.00000 418.400000
13672 7370 14067 1 149.00000 418.400000
11722 7371 14663 1 149.00000 418.400000
13672 7372 16033 1 149.00000 418.400000
11736 7373 13436 1 149.00000 418.400000
13673 7374 14778 1 149.00000 418.400000
14453 7375 20041 1 149.00000 418.400000
20041 7376 20605 1 149.00000 418.400000
13675 7377 15602 1 149.00000 418.400000
13675 7378 16561 1 149.00000 418.400000
13675 7379 14030 1 149.00000 418.400000
13675 7380 15390 1 149.00000 418.400000
13676 7381 14468 1 149.00000 418.400000
13676 7382 16532 1 149.00000 418.400000
13677 7383 15721 1 149.00000 418.400000
13679 7384 14663 1 149.00000 418.400000
13679 7385 15381 1 149.00000 418.400000
13679 7386 13871 1 149.00000 418.400000
13679 7387 15792 1 149.00000 418.400000
13680 7388 16232 1 149.00000 418.400000
13680 7389 14001 1 149.00000 418.400000
13681 7390 16067 1 149.00000 418.400000
13681 7391 15133 1 149.00000 418.400000
13682 7392 14574 1 149.00000 418.400000
13682 7393 14646 1 149.00000 418.400000
13684 7394 14260 1 149.00000 418.400000
13684 7395 15011 1 149.00000 418.400000
13684 7396 15790 1 149.00000 418.400000
13685 7397 14154 1 149.00000 418.400000
13685 7398 13790 1 149.00000 418.400000
13686 7399 14766 1 149.00000 418.400000
13686 7400 16658 1 149.00000 418.400000
13687 7401 14918 1 149.00000 418.400000
13687 7402 14359 1 149.00000 418.400000
13687 7403 13758 1 149.00000 418.400000
13687 7404 15652 1 149.00000 418.400000
13688 7405 16255 1 149.00000 418.400000
13688 7406 14256 1 149.00000 418.400000
13688 7407 15953 1 149.00000 418.400000
13689 7408 15870 1 149.00000 418.400000
12528 7409 13697 1 149.00000 418.400000
14625 7410 15870 1 149.00000 418.400000
13690 7411 16176 1 149.00000 418.400000
13690 7412 14329 1 149.00000 418.400000
13690 7413 14983 1 149.00000 418.400000
13691 7414 14308 1 149.00000 418.400000
13692 7415 14589 1 149.00000 418.400000
13692 7416 14858 1 149.00000 418.400000
13693 7417 16168 1 149.00000 418.400000
12980 7418 13694 1 149.00000 418.400000
13694 7419 13989 1 149.00000 418.400000
13694 7420 14497 1 149.00000 418.400000
13695 7421 15723 1 149.00000 418.400000
13695 7422 13962 1 149.00000 418.400000
13696 7423 16009 1 149.00000 418.400000
13697 7424 15156 1 149.00000 418.400000
13697 7425 16648 1 149.00000 418.400000
13697 7426 13909 1 149.00000 418.400000
13698 7427 17806 1 149.00000 418.400000
13698 7428 14130 1 149.00000 418.400000
13698 7429 15608 1 149.00000 418.400000
13699 7430 15525 1 149.00000 418.400000
12241 7431 15469 1 149.00000 418.400000
13699 7432 15469 1 149.00000 418.400000
13700 7433 14562 1 149.00000 418.400000
13701 7434 15601 1 149.00000 418.400000
13701 7435 15976 1 149.00000 418.400000
13701 7436 13735 1 149.00000 418.400000
13702 7437 15691 1 149.00000 418.400000
13702 7438 15309 1 149.00000 418.400000
13702 7439 16586 1 149.00000 418.400000
13703 7440 14246 1 149.00000 418.400000
13703 7441 14352 1 149.00000 418.400000
13704 7442 16381 1 149.00000 418.400000
13705 7443 15236 1 149.00000 418.400000
13705 7444 14701 1 149.00000 418.400000
13705 7445 14668 1 149.00000 418.400000
13429 7446 15071 1 149.00000 418.400000
13707 7447 16596 1 149.00000 418.400000
13707 7448 14598 1 149.00000 418.400000
13708 7449 14387 1 149.00000 418.400000
13708 7450 14331 1 149.00000 418.400000
12787 7451 14093 1 149.00000 418.400000
13709 7452 13984 1 149.00000 418.400000
13709 7453 13853 1 149.00000 418.400000
13710 7454 16684 1 149.00000 418.400000
13710 7455 15395 1 149.00000 418.400000
13710 7456 14688 1 149.00000 418.400000
13711 7457 20641 1 149.00000 418.400000
13711 7458 15886 1 149.00000 418.400000
13712 7459 15765 1 149.00000 418.400000
13712 7460 14764 1 149.00000 418.400000
13712 7461 15877 1 149.00000 418.400000
13713 7462 14855 1 149.00000 418.400000
13713 7463 16426 1 149.00000 418.400000
13714 7464 16342 1 149.00000 418.400000
13714 7465 14102 1 149.00000 418.400000
13714 7466 15293 1 149.00000 418.400000
13715 7467 14202 1 149.00000 418.400000
13715 7468 14699 1 149.00000 418.400000
13600 7469 13716 1 149.00000 418.400000
14336 7470 20047 1 149.00000 418.400000
13717 7471 16318 1 149.00000 418.400000
13718 7472 16178 1 149.00000 418.400000
13719 7473 16172 1 149.00000 418.400000
13720 7474 14909 1 149.00000 418.400000
13720 7475 15283 1 149.00000 418.400000
13720 7476 15144 1 149.00000 418.400000
13375 7477 13720 1 149.00000 418.400000
13721 7478 15325 1 149.00000 418.400000
13722 7479 13817 1 149.00000 418.400000
13722 7480 14164 1 149.00000 418.400000
13723 7481 14519 1 149.00000 418.400000
13723 7482 15676 1 149.00000 418.400000
13723 7483 13755 1 149.00000 418.400000
13724 7484 15321 1 149.00000 418.400000
14801 7485 20050 1 149.00000 418.400000
16069 7486 20050 1 149.00000 418.400000
13725 7487 14371 1 149.00000 418.400000
13725 7488 15391 1 149.00000 418.400000
13725 7489 14938 1 149.00000 418.400000
13726 7490 14766 1 149.00000 418.400000
13726 7491 13819 1 149.00000 418.400000
13726 7492 13851 1 149.00000 418.400000
13727 7493 15516 1 149.00000 418.400000
13727 7494 15480 1 149.00000 418.400000
13728 7495 14510 1 149.00000 418.400000
13728 7496 14300 1 149.00000 418.400000
13745 7497 20056 1 149.00000 418.400000
13729 7498 14475 1 149.00000 418.400000
13729 7499 15720 1 149.00000 418.400000
13729 7500 14033 1 149.00000 418.400000
13729 7501 14243 1 149.00000 418.400000
13730 7502 15439 1 149.00000 418.400000
13730 7503 14425 1 149.00000 418.400000
13730 7504 14419 1 149.00000 418.400000
13731 7505 15951 1 149.00000 418.400000
13494 7506 13731 1 149.00000 418.400000
14661 7507 15235 1 149.00000 418.400000
13732 7508 14661 1 149.00000 418.400000
13732 7509 15101 1 149.00000 418.400000
14389 7510 20062 1 149.00000 418.400000
13733 7511 14283 1 149.00000 418.400000
12211 7512 13733 1 149.00000 418.400000
14284 7513 16076 1 149.00000 418.400000
13951 7514 14284 1 149.00000 418.400000
13734 7515 15085 1 149.00000 418.400000
13735 7516 13918 1 149.00000 418.400000
13735 7517 16071 1 149.00000 418.400000
13736 7518 14475 1 149.00000 418.400000
13736 7519 15507 1 149.00000 418.400000
13737 7520 15591 1 149.00000 418.400000
13737 7521 15548 1 149.00000 418.400000
15548 7522 16383 1 149.00000 418.400000
13738 7523 16527 1 149.00000 418.400000
13738 7524 14957 1 149.00000 418.400000
13738 7525 14163 1 149.00000 418.400000
13739 7526 16269 1 149.00000 418.400000
13739 7527 15176 1 149.00000 418.400000
13086 7528 20065 1 149.00000 418.400000
14007 7529 20065 1 149.00000 418.400000
13740 7530 14976 1 149.00000 418.400000
13740 7531 16400 1 149.00000 418.400000
13740 7532 15524 1 149.00000 418.400000
13741 7533 13990 1 149.00000 418.400000
13741 7534 14776 1 149.00000 418.400000
13742 7535 16608 1 149.00000 418.400000
13743 7536 16306 1 149.00000 418.400000
13743 7537 16539 1 149.00000 418.400000
13744 7538 15631 1 149.00000 418.400000
13745 7539 16498 1 149.00000 418.400000
13745 7540 15386 1 149.00000 418.400000
13746 7541 16117 1 149.00000 418.400000
13746 7542 15690 1 149.00000 418.400000
13746 7543 14333 1 149.00000 418.400000
13747 7544 15922 1 149.00000 418.400000
13748 7545 16086 1 149.00000 418.400000
13748 7546 15058 1 149.00000 418.400000
13750 7547 13910 1 149.00000 418.400000
13751 7548 14328 1 149.00000 418.400000
13751 7549 13989 1 149.00000 418.400000
13751 7550 15380 1 149.00000 418.400000
13752 7551 20958 1 149.00000 418.400000
13752 7552 16675 1 149.00000 418.400000
13753 7553 15000 1 149.00000 418.400000
13753 7554 16644 1 149.00000 418.400000
13754 7555 14319 1 149.00000 418.400000
13755 7556 15095 1 149.00000 418.400000
13755 7557 14919 1 149.00000 418.400000
13755 7558 14396 1 149.00000 418.400000
14016 7559 20068 1 149.00000 418.400000
13756 7560 15660 1 149.00000 418.400000
13756 7561 16568 1 149.00000 418.400000
13756 7562 14854 1 149.00000 418.400000
13756 7563 13961 1 149.00000 418.400000
13757 7564 15270 1 149.00000 418.400000
13757 7565 13867 1 149.00000 418.400000
13758 7566 16029 1 149.00000 418.400000
13759 7567 14703 1 149.00000 418.400000
14703 7568 16373 1 149.00000 418.400000
13759 7569 14135 1 149.00000 418.400000
14282 7570 14765 1 149.00000 418.400000
13760 7571 14282 1 149.00000 418.400000
13760 7572 14568 1 149.00000 418.400000
13761 7573 14709 1 149.00000 418.400000
13761 7574 15420 1 149.00000 418.400000
13761 7575 16106 1 149.00000 418.400000
13764 7576 14382 1 149.00000 418.400000
13764 7577 15612 1 149.00000 418.400000
13765 7578 15038 1 149.00000 418.400000
13766 7579 14831 1 149.00000 418.400000
13766 7580 20134 1 149.00000 418.400000
13766 7581 15361 1 149.00000 418.400000
13767 7582 15297 1 149.00000 418.400000
13768 7583 16457 1 149.00000 418.400000
13769 7584 14396 1 149.00000 418.400000
13769 7585 15242 1 149.00000 418.400000
13770 7586 16174 1 149.00000 418.400000
13770 7587 16538 1 149.00000 418.400000
13771 7588 15874 1 149.00000 418.400000
13771 7589 14231 1 149.00000 418.400000
13771 7590 13868 1 149.00000 418.400000
13772 7591 14700 1 149.00000 418.400000
13772 7592 16400 1 149.00000 418.400000
13772 7593 15631 1 149.00000 418.400000
13773 7594 15208 1 149.00000 418.400000
13773 7595 14706 1 149.00000 418.400000
13773 7596 14846 1 149.00000 418.400000
13774 7597 13985 1 149.00000 418.400000
13774 7598 20993 1 149.00000 418.400000
13775 7599 16086 1 149.00000 418.400000
13775 7600 14136 1 149.00000 418.400000
13776 7601 13780 1 149.00000 418.400000
13776 7602 15658 1 149.00000 418.400000
14266 7603 15305 1 149.00000 418.400000
13777 7604 15237 1 149.00000 418.400000
13777 7605 15305 1 149.00000 418.400000
13777 7606 15127 1 149.00000 418.400000
13778 7607 15903 1 149.00000 418.400000
13779 7608 14576 1 149.00000 418.400000
13779 7609 15302 1 149.00000 418.400000
13780 7610 15565 1 149.00000 418.400000
13781 7611 14133 1 149.00000 418.400000
14249 7612 20680 1 149.00000 418.400000
13782 7613 20680 1 149.00000 418.400000
13782 7614 19402 1 149.00000 418.400000
13783 7615 15968 1 149.00000 418.400000
13783 7616 16670 1 149.00000 418.400000
13783 7617 15120 1 149.00000 418.400000
13785 7618 14155 1 149.00000 418.400000
13785 7619 14040 1 149.00000 418.400000
13785 7620 14692 1 149.00000 418.400000
13786 7621 16407 1 149.00000 418.400000
13786 7622 14645 1 149.00000 418.400000
13786 7623 15288 1 149.00000 418.400000
20074 7624 20443 1 149.00000 418.400000
16854 7625 20074 1 149.00000 418.400000
14963 7626 20074 1 149.00000 418.400000
20077 7627 20863 1 149.00000 418.400000
14823 7628 20077 1 149.00000 418.400000
13787 7629 15146 1 149.00000 418.400000
13787 7630 15589 1 149.00000 418.400000
13787 7631 16391 1 149.00000 418.400000
13788 7632 14810 1 149.00000 418.400000
13788 7633 15247 1 149.00000 418.400000
13788 7634 16113 1 149.00000 418.400000
13788 7635 15316 1 149.00000 418.400000
15587 7636 20083 1 149.00000 418.400000
13789 7637 14165 1 149.00000 418.400000
13789 7638 20803 1 149.00000 418.400000
13789 7639 16201 1 149.00000 418.400000
13790 7640 14649 1 149.00000 418.400000
13790 7641 14592 1 149.00000 418.400000
13791 7642 16146 1 149.00000 418.400000
13791 7643 16291 1 149.00000 418.400000
14518 7644 15881 1 149.00000 418.400000
13792 7645 15881 1 149.00000 418.400000
11990 7646 13792 1 149.00000 418.400000
13793 7647 15577 1 149.00000 418.400000
13793 7648 14027 1 149.00000 418.400000
13794 7649 16173 1 149.00000 418.400000
13794 7650 13872 1 149.00000 418.400000
13795 7651 14643 1 149.00000 418.400000
13795 7652 15429 1 149.00000 418.400000
13795 7653 14378 1 149.00000 418.400000
13796 7654 16563 1 149.00000 418.400000
13035 7655 15990 1 149.00000 418.400000
13797 7656 15332 1 149.00000 418.400000
13798 7657 20350 1 149.00000 418.400000
12613 7658 15144 1 149.00000 418.400000
13799 7659 14826 1 149.00000 418.400000
13799 7660 15745 1 149.00000 418.400000
20086 7661 20500 1 149.00000 418.400000
13903 7662 20086 1 149.00000 418.400000
11939 7663 20500 1 149.00000 418.400000
13800 7664 14671 1 149.00000 418.400000
14633 7665 20089 1 149.00000 418.400000
20089 7666 20182 1 149.00000 418.400000
13802 7667 15357 1 149.00000 418.400000
13803 7668 15765 1 149.00000 418.400000
11543 7669 14288 1 149.00000 418.400000
13156 7670 16265 1 149.00000 418.400000
13804 7671 16366 1 149.00000 418.400000
15087 7672 16366 1 149.00000 418.400000
13805 7673 15127 1 149.00000 418.400000
13046 7674 13806 1 149.00000 418.400000
13807 7675 15394 1 149.00000 418.400000
13807 7676 15774 1 149.00000 418.400000
13807 7677 15274 1 149.00000 418.400000
13808 7678 14931 1 149.00000 418.400000
13808 7679 16013 1 149.00000 418.400000
13808 7680 14915 1 149.00000 418.400000
13809 7681 15368 1 149.00000 418.400000
13809 7682 14554 1 149.00000 418.400000
13810 7683 14658 1 149.00000 418.400000
13810 7684 16545 1 149.00000 418.400000
13810 7685 15945 1 149.00000 418.400000
14850 7686 20092 1 149.00000 418.400000
14106 7687 20095 1 149.00000 418.400000
15482 7688 20095 1 149.00000 418.400000
13812 7689 15540 1 149.00000 418.400000
13812 7690 16392 1 149.00000 418.400000
13813 7691 15908 1 149.00000 418.400000
13813 7692 16321 1 149.00000 418.400000
14858 7693 15624 1 149.00000 418.400000
13814 7694 14139 1 149.00000 418.400000
13814 7695 14858 1 149.00000 418.400000
13814 7696 16240 1 149.00000 418.400000
13815 7697 16625 1 149.00000 418.400000
13815 7698 14674 1 149.00000 418.400000
14484 7699 16625 1 149.00000 418.400000
13816 7700 16451 1 149.00000 418.400000
13816 7701 15821 1 149.00000 418.400000
13817 7702 16005 1 149.00000 418.400000
13817 7703 14603 1 149.00000 418.400000
13818 7704 15375 1 149.00000 418.400000
13818 7705 15909 1 149.00000 418.400000
13819 7706 14268 1 149.00000 418.400000
13819 7707 14834 1 149.00000 418.400000
13820 7708 16301 1 149.00000 418.400000
13820 7709 15721 1 149.00000 418.400000
13820 7710 15324 1 149.00000 418.400000
20098 7711 20698 1 149.00000 418.400000
14477 7712 20098 1 149.00000 418.400000
13821 7713 15593 1 149.00000 418.400000
13821 7714 19999 1 149.00000 418.400000
13822 7715 16496 1 149.00000 418.400000
13822 7716 16245 1 149.00000 418.400000
13822 7717 14760 1 149.00000 418.400000
13823 7718 16589 1 149.00000 418.400000
13823 7719 15447 1 149.00000 418.400000
13823 7720 15771 1 149.00000 418.400000
13824 7721 14834 1 149.00000 418.400000
13825 7722 14071 1 149.00000 418.400000
13825 7723 16181 1 149.00000 418.400000
13825 7724 14481 1 149.00000 418.400000
13825 7725 15246 1 149.00000 418.400000
13826 7726 14671 1 149.00000 418.400000
13826 7727 15973 1 149.00000 418.400000
13826 7728 14650 1 149.00000 418.400000
13827 7729 16546 1 149.00000 418.400000
13827 7730 15140 1 149.00000 418.400000
13828 7731 14640 1 149.00000 418.400000
17148 7732 20101 1 149.00000 418.400000
20101 7733 20749 1 149.00000 418.400000
15728 7734 20101 1 149.00000 418.400000
13829 7735 16003 1 149.00000 418.400000
13829 7736 14872 1 149.00000 418.400000
13829 7737 14156 1 149.00000 418.400000
13830 7738 15033 1 149.00000 418.400000
13509 7739 14843 1 149.00000 418.400000
11631 7740 13830 1 149.00000 418.400000
13831 7741 20731 1 149.00000 418.400000
13831 7742 20413 1 149.00000 418.400000
13831 7743 14598 1 149.00000 418.400000
13831 7744 15770 1 149.00000 418.400000
13832 7745 16078 1 149.00000 418.400000
13833 7746 15434 1 149.00000 418.400000
13833 7747 14716 1 149.00000 418.400000
13833 7748 14501 1 149.00000 418.400000
13833 7749 15600 1 149.00000 418.400000
13835 7750 16033 1 149.00000 418.400000
13835 7751 15381 1 149.00000 418.400000
13836 7752 16092 1 149.00000 418.400000
13836 7753 15755 1 149.00000 418.400000
13836 7754 16036 1 149.00000 418.400000
13837 7755 16622 1 149.00000 418.400000
13837 7756 15387 1 149.00000 418.400000
13837 7757 16592 1 149.00000 418.400000
13838 7758 16047 1 149.00000 418.400000
12640 7759 16540 1 149.00000 418.400000
13839 7760 15817 1 149.00000 418.400000
12850 7761 16260 1 149.00000 418.400000
13841 7762 14012 1 149.00000 418.400000
13849 7763 14012 1 149.00000 418.400000
13841 7764 15996 1 149.00000 418.400000
11850 7765 16658 1 149.00000 418.400000
13842 7766 15308 1 149.00000 418.400000
13842 7767 14834 1 149.00000 418.400000
13843 7768 14965 1 149.00000 418.400000
15089 7769 20104 1 149.00000 418.400000
20104 7770 20278 1 149.00000 418.400000
13844 7771 16359 1 149.00000 418.400000
13844 7772 17120 1 149.00000 418.400000
11605 7773 13844 1 149.00000 418.400000
14682 7774 15814 1 149.00000 418.400000
13845 7775 14951 1 149.00000 418.400000
13845 7776 15814 1 149.00000 418.400000
13846 7777 13918 1 149.00000 418.400000
13847 7778 16481 1 149.00000 418.400000
13847 7779 14513 1 149.00000 418.400000
13848 7780 15298 1 149.00000 418.400000
13655 7781 15090 1 149.00000 418.400000
13848 7782 16486 1 149.00000 418.400000
13849 7783 19906 1 149.00000 418.400000
14644 7784 16387 1 149.00000 418.400000
13849 7785 14644 1 149.00000 418.400000
13850 7786 14480 1 149.00000 418.400000
13850 7787 15684 1 149.00000 418.400000
13851 7788 14902 1 149.00000 418.400000
13851 7789 16165 1 149.00000 418.400000
13851 7790 16658 1 149.00000 418.400000
13852 7791 15323 1 149.00000 418.400000
13853 7792 15669 1 149.00000 418.400000
13854 7793 15318 1 149.00000 418.400000
13854 7794 16645 1 149.00000 418.400000
13854 7795 14976 1 149.00000 418.400000
13855 7796 16327 1 149.00000 418.400000
13855 7797 14286 1 149.00000 418.400000
13857 7798 16277 1 149.00000 418.400000
13857 7799 14256 1 149.00000 418.400000
14054 7800 20107 1 149.00000 418.400000
13858 7801 15517 1 149.00000 418.400000
13858 7802 16297 1 149.00000 418.400000
13859 7803 14433 1 149.00000 418.400000
13860 7804 15443 1 149.00000 418.400000
20110 7805 20203 1 149.00000 418.400000
20110 7806 20764 1 149.00000 418.400000
13861 7807 20461 1 149.00000 418.400000
13862 7808 15124 1 149.00000 418.400000
13862 7809 14084 1 149.00000 418.400000
13862 7810 15054 1 149.00000 418.400000
13862 7811 15762 1 149.00000 418.400000
14133 7812 20113 1 149.00000 418.400000
20113 7813 20923 1 149.00000 418.400000
13863 7814 15877 1 149.00000 418.400000
13863 7815 13949 1 149.00000 418.400000
13864 7816 15923 1 149.00000 418.400000
13864 7817 15494 1 149.00000 418.400000
20191 7818 20725 1 149.00000 418.400000
15989 7819 20191 1 149.00000 418.400000
12431 7820 15375 1 149.00000 418.400000
13866 7821 15710 1 149.00000 418.400000
13866 7822 15350 1 149.00000 418.400000
13867 7823 14214 1 149.00000 418.400000
13867 7824 16628 1 149.00000 418.400000
13867 7825 16011 1 149.00000 418.400000
13869 7826 16256 1 149.00000 418.400000
13869 7827 16617 1 149.00000 418.400000
13870 7828 16407 1 149.00000 418.400000
13870 7829 16260 1 149.00000 418.400000
13871 7830 16693 1 149.00000 418.400000
13871 7831 15191 1 149.00000 418.400000
16452 7832 16672 1 149.00000 418.400000
13872 7833 16672 1 149.00000 418.400000
13873 7834 20452 1 149.00000 418.400000
13873 7835 15187 1 149.00000 418.400000
13873 7836 14866 1 149.00000 418.400000
13874 7837 14655 1 149.00000 418.400000
13874 7838 14876 1 149.00000 418.400000
13875 7839 14205 1 149.00000 418.400000
13876 7840 14676 1 149.00000 418.400000
13876 7841 13976 1 149.00000 418.400000
20116 7842 20332 1 149.00000 418.400000
13877 7843 20695 1 149.00000 418.400000
13877 7844 13903 1 149.00000 418.400000
13877 7845 16340 1 149.00000 418.400000
13878 7846 14882 1 149.00000 418.400000
13878 7847 13879 1 149.00000 418.400000
13879 7848 14752 1 149.00000 418.400000
13879 7849 15647 1 149.00000 418.400000
13880 7850 14787 1 149.00000 418.400000
15738 7851 20506 1 149.00000 418.400000
13880 7852 15738 1 149.00000 418.400000
13881 7853 16116 1 149.00000 418.400000
13882 7854 15412 1 149.00000 418.400000
13882 7855 13907 1 149.00000 418.400000
13883 7856 15761 1 149.00000 418.400000
13883 7857 14510 1 149.00000 418.400000
13883 7858 16233 1 149.00000 418.400000
14004 7859 20119 1 149.00000 418.400000
13884 7860 20167 1 149.00000 418.400000
13884 7861 20698 1 149.00000 418.400000
13885 7862 20395 1 149.00000 418.400000
13885 7863 20948 1 149.00000 418.400000
13885 7864 16655 1 149.00000 418.400000
13303 7865 13886 1 149.00000 418.400000
13886 7866 14660 1 149.00000 418.400000
13886 7867 14494 1 149.00000 418.400000
13886 7868 16611 1 149.00000 418.400000
13888 7869 16262 1 149.00000 418.400000
13888 7870 13935 1 149.00000 418.400000
13889 7871 15492 1 149.00000 418.400000
13889 7872 14622 1 149.00000 418.400000
13890 7873 15644 1 149.00000 418.400000
13890 7874 16186 1 149.00000 418.400000
13891 7875 14767 1 149.00000 418.400000
13891 7876 14196 1 149.00000 418.400000
13891 7877 20749 1 149.00000 418.400000
13458 7878 13892 1 149.00000 418.400000
13892 7879 15674 1 149.00000 418.400000
13892 7880 16332 1 149.00000 418.400000
13893 7881 16056 1 149.00000 418.400000
13893 7882 16353 1 149.00000 418.400000
13894 7883 15278 1 149.00000 418.400000
13894 7884 15700 1 149.00000 418.400000
13894 7885 13983 1 149.00000 418.400000
13895 7886 15909 1 149.00000 418.400000
13895 7887 15960 1 149.00000 418.400000
13895 7888 15226 1 149.00000 418.400000
13896 7889 16512 1 149.00000 418.400000
13896 7890 16115 1 149.00000 418.400000
13896 7891 14852 1 149.00000 418.400000
13897 7892 14345 1 149.00000 418.400000
13897 7893 15306 1 149.00000 418.400000
13897 7894 13916 1 149.00000 418.400000
13898 7895 16178 1 149.00000 418.400000
13898 7896 16233 1 149.00000 418.400000
12005 7897 13898 1 149.00000 418.400000
13899 7898 14493 1 149.00000 418.400000
13899 7899 14832 1 149.00000 418.400000
13899 7900 15694 1 149.00000 418.400000
13900 7901 14625 1 149.00000 418.400000
13901 7902 16417 1 149.00000 418.400000
13901 7903 14395 1 149.00000 418.400000
13902 7904 16278 1 149.00000 418.400000
13902 7905 14268 1 149.00000 418.400000
13904 7906 14750 1 149.00000 418.400000
13904 7907 14220 1 149.00000 418.400000
20122 7908 20848 1 149.00000 418.400000
13905 7909 20963 1 149.00000 418.400000
13905 7910 14044 1 149.00000 418.400000
13906 7911 16441 1 149.00000 418.400000
13906 7912 15128 1 149.00000 418.400000
13907 7913 14125 1 149.00000 418.400000
13907 7914 14916 1 149.00000 418.400000
13907 7915 16152 1 149.00000 418.400000
13908 7916 16309 1 149.00000 418.400000
13908 7917 16102 1 149.00000 418.400000
13909 7918 15417 1 149.00000 418.400000
13909 7919 14625 1 149.00000 418.400000
13909 7920 15720 1 149.00000 418.400000
13910 7921 15004 1 149.00000 418.400000
13910 7922 14377 1 149.00000 418.400000
13911 7923 15196 1 149.00000 418.400000
13911 7924 16175 1 149.00000 418.400000
13911 7925 13966 1 149.00000 418.400000
13912 7926 15592 1 149.00000 418.400000
13913 7927 16661 1 149.00000 418.400000
13913 7928 14447 1 149.00000 418.400000
13914 7929 16482 1 149.00000 418.400000
13914 7930 15389 1 149.00000 418.400000
13914 7931 13979 1 149.00000 418.400000
16103 7932 20125 1 149.00000 418.400000
17638 7933 20125 1 149.00000 418.400000
13915 7934 16349 1 149.00000 418.400000
13915 7935 15835 1 149.00000 418.400000
13915 7936 14437 1 149.00000 418.400000
13916 7937 15897 1 149.00000 418.400000
13916 7938 14299 1 149.00000 418.400000
13916 7939 14962 1 149.00000 418.400000
13917 7940 16585 1 149.00000 418.400000
13917 7941 14873 1 149.00000 418.400000
13918 7942 15399 1 149.00000 418.400000
13919 7943 14234 1 149.00000 418.400000
13919 7944 16006 1 149.00000 418.400000
14823 7945 20128 1 149.00000 418.400000
13920 7946 14516 1 149.00000 418.400000
13920 7947 15614 1 149.00000 418.400000
13920 7948 14102 1 149.00000 418.400000
13921 7949 16025 1 149.00000 418.400000
13922 7950 15230 1 149.00000 418.400000
13923 7951 16422 1 149.00000 418.400000
13923 7952 15291 1 149.00000 418.400000
13019 7953 13923 1 149.00000 418.400000
13924 7954 16521 1 149.00000 418.400000
13925 7955 16494 1 149.00000 418.400000
20131 7956 20686 1 149.00000 418.400000
13926 7957 16420 1 149.00000 418.400000
13926 7958 14393 1 149.00000 418.400000
13926 7959 15566 1 149.00000 418.400000
13927 7960 15241 1 149.00000 418.400000
13927 7961 16533 1 149.00000 418.400000
13928 7962 16612 1 149.00000 418.400000
13929 7963 15977 1 149.00000 418.400000
13929 7964 15711 1 149.00000 418.400000
13929 7965 16200 1 149.00000 418.400000
13929 7966 15596 1 149.00000 418.400000
13930 7967 15629 1 149.00000 418.400000
13930 7968 14135 1 149.00000 418.400000
13932 7969 15251 1 149.00000 418.400000
13932 7970 15298 1 149.00000 418.400000
13932 7971 15032 1 149.00000 418.400000
16517 7972 16554 1 149.00000 418.400000
14729 7973 16517 1 149.00000 418.400000
13933 7974 16517 1 149.00000 418.400000
13934 7975 15959 1 149.00000 418.400000
13934 7976 14804 1 149.00000 418.400000
13935 7977 14613 1 149.00000 418.400000
13936 7978 20839 1 149.00000 418.400000
13936 7979 15709 1 149.00000 418.400000
13936 7980 20215 1 149.00000 418.400000
13937 7981 17232 1 149.00000 418.400000
13938 7982 16294 1 149.00000 418.400000
13938 7983 15811 1 149.00000 418.400000
13939 7984 16618 1 149.00000 418.400000
13939 7985 14859 1 149.00000 418.400000
13940 7986 15075 1 149.00000 418.400000
13940 7987 15661 1 149.00000 418.400000
13940 7988 16576 1 149.00000 418.400000
13941 7989 14403 1 149.00000 418.400000
13941 7990 20854 1 149.00000 418.400000
13941 7991 20824 1 149.00000 418.400000
13942 7992 15436 1 149.00000 418.400000
13942 7993 14494 1 149.00000 418.400000
13943 7994 16026 1 149.00000 418.400000
13944 7995 14999 1 149.00000 418.400000
13944 7996 14936 1 149.00000 418.400000
13944 7997 15856 1 149.00000 418.400000
13945 7998 16086 1 149.00000 418.400000
13945 7999 14192 1 149.00000 418.400000
13945 8000 14878 1 149.00000 418.400000
13947 8001 14653 1 149.00000 418.400000
13947 8002 14694 1 149.00000 418.400000
13947 8003 15921 1 149.00000 418.400000
13948 8004 15053 1 149.00000 418.400000
13948 8005 15289 1 149.00000 418.400000
13948 8006 16143 1 149.00000 418.400000
13948 8007 14193 1 149.00000 418.400000
13949 8008 15765 1 149.00000 418.400000
13949 8009 14733 1 149.00000 418.400000
13950 8010 14114 1 149.00000 418.400000
13950 8011 20371 1 149.00000 418.400000
15919 8012 20137 1 149.00000 418.400000
16404 8013 20137 1 149.00000 418.400000
13734 8014 13951 1 149.00000 418.400000
13952 8015 16342 1 149.00000 418.400000
13952 8016 14417 1 149.00000 418.400000
13952 8017 16631 1 149.00000 418.400000
13952 8018 14901 1 149.00000 418.400000
13953 8019 15593 1 149.00000 418.400000
13953 8020 16608 1 149.00000 418.400000
13953 8021 14545 1 149.00000 418.400000
13248 8022 13953 1 149.00000 418.400000
13954 8023 15480 1 149.00000 418.400000
13954 8024 15023 1 149.00000 418.400000
13955 8025 16532 1 149.00000 418.400000
13955 8026 15995 1 149.00000 418.400000
13955 8027 15443 1 149.00000 418.400000
13956 8028 16378 1 149.00000 418.400000
13957 8029 14085 1 149.00000 418.400000
13957 8030 16636 1 149.00000 418.400000
13957 8031 14298 1 149.00000 418.400000
13957 8032 15902 1 149.00000 418.400000
13958 8033 14481 1 149.00000 418.400000
13958 8034 14516 1 149.00000 418.400000
13958 8035 14974 1 149.00000 418.400000
13959 8036 14604 1 149.00000 418.400000
13959 8037 15243 1 149.00000 418.400000
13960 8038 15794 1 149.00000 418.400000
13960 8039 15683 1 149.00000 418.400000
13961 8040 15420 1 149.00000 418.400000
13961 8041 14221 1 149.00000 418.400000
13962 8042 14065 1 149.00000 418.400000
15153 8043 20140 1 149.00000 418.400000
15153 8044 15680 1 149.00000 418.400000
20143 8045 20266 1 149.00000 418.400000
13963 8046 16492 1 149.00000 418.400000
13964 8047 15829 1 149.00000 418.400000
13964 8048 15833 1 149.00000 418.400000
13965 8049 15260 1 149.00000 418.400000
13965 8050 15944 1 149.00000 418.400000
13966 8051 14539 1 149.00000 418.400000
13966 8052 14018 1 149.00000 418.400000
13968 8053 15422 1 149.00000 418.400000
13968 8054 20644 1 149.00000 418.400000
13969 8055 15117 1 149.00000 418.400000
13969 8056 14547 1 149.00000 418.400000
11855 8057 13969 1 149.00000 418.400000
13970 8058 20404 1 149.00000 418.400000
13970 8059 15506 1 149.00000 418.400000
13971 8060 15500 1 149.00000 418.400000
13971 8061 14762 1 149.00000 418.400000
13972 8062 14928 1 149.00000 418.400000
13973 8063 15892 1 149.00000 418.400000
13974 8064 16160 1 149.00000 418.400000
13974 8065 16259 1 149.00000 418.400000
13974 8066 14540 1 149.00000 418.400000
20146 8067 20740 1 149.00000 418.400000
13975 8068 14213 1 149.00000 418.400000
13975 8069 15597 1 149.00000 418.400000
13976 8070 15205 1 149.00000 418.400000
13976 8071 14436 1 149.00000 418.400000
13977 8072 15591 1 149.00000 418.400000
13978 8073 16471 1 149.00000 418.400000
13979 8074 15211 1 149.00000 418.400000
13980 8075 14374 1 149.00000 418.400000
13980 8076 15097 1 149.00000 418.400000
13980 8077 15772 1 149.00000 418.400000
13981 8078 14174 1 149.00000 418.400000
13981 8079 15301 1 149.00000 418.400000
13981 8080 14985 1 149.00000 418.400000
20149 8081 20875 1 149.00000 418.400000
13982 8082 15553 1 149.00000 418.400000
13982 8083 15147 1 149.00000 418.400000
13622 8084 20296 1 149.00000 418.400000
13983 8085 15383 1 149.00000 418.400000
13983 8086 14840 1 149.00000 418.400000
13984 8087 15308 1 149.00000 418.400000
13984 8088 15253 1 149.00000 418.400000
14601 8089 20152 1 149.00000 418.400000
12720 8090 20152 1 149.00000 418.400000
20155 8091 20389 1 149.00000 418.400000
14920 8092 20155 1 149.00000 418.400000
20155 8093 20251 1 149.00000 418.400000
13985 8094 14345 1 149.00000 418.400000
13985 8095 17274 1 149.00000 418.400000
13986 8096 15855 1 149.00000 418.400000
13986 8097 20998 1 149.00000 418.400000
13987 8098 16169 1 149.00000 418.400000
15741 8099 16088 1 149.00000 418.400000
13987 8100 14202 1 149.00000 418.400000
13987 8101 16088 1 149.00000 418.400000
13988 8102 14960 1 149.00000 418.400000
13988 8103 16068 1 149.00000 418.400000
13988 8104 14097 1 149.00000 418.400000
14511 8105 15867 1 149.00000 418.400000
14511 8106 20158 1 149.00000 418.400000
13991 8107 15781 1 149.00000 418.400000
13992 8108 14900 1 149.00000 418.400000
13992 8109 16050 1 149.00000 418.400000
13992 8110 16508 1 149.00000 418.400000
13993 8111 20428 1 149.00000 418.400000
13993 8112 16046 1 149.00000 418.400000
13994 8113 15517 1 149.00000 418.400000
13994 8114 14002 1 149.00000 418.400000
12324 8115 15410 1 149.00000 418.400000
13995 8116 16550 1 149.00000 418.400000
13996 8117 15258 1 149.00000 418.400000
13996 8118 15505 1 149.00000 418.400000
13997 8119 16254 1 149.00000 418.400000
13997 8120 15924 1 149.00000 418.400000
13997 8121 16184 1 149.00000 418.400000
13607 8122 13998 1 149.00000 418.400000
13999 8123 16147 1 149.00000 418.400000
13999 8124 16318 1 149.00000 418.400000
14000 8125 14215 1 149.00000 418.400000
14000 8126 16220 1 149.00000 418.400000
14001 8127 16576 1 149.00000 418.400000
14001 8128 15514 1 149.00000 418.400000
14001 8129 14407 1 149.00000 418.400000
14002 8130 16297 1 149.00000 418.400000
14002 8131 14667 1 149.00000 418.400000
14003 8132 14744 1 149.00000 418.400000
14003 8133 16489 1 149.00000 418.400000
14004 8134 15150 1 149.00000 418.400000
14004 8135 15139 1 149.00000 418.400000
14005 8136 14030 1 149.00000 418.400000
14005 8137 14806 1 149.00000 418.400000
14005 8138 15789 1 149.00000 418.400000
14006 8139 16389 1 149.00000 418.400000
14006 8140 15660 1 149.00000 418.400000
14006 8141 15490 1 149.00000 418.400000
14007 8142 16075 1 149.00000 418.400000
14008 8143 15040 1 149.00000 418.400000
14008 8144 15068 1 149.00000 418.400000
14009 8145 16273 1 149.00000 418.400000
14010 8146 15029 1 149.00000 418.400000
14010 8147 16281 1 149.00000 418.400000
14461 8148 16099 1 149.00000 418.400000
14011 8149 16099 1 149.00000 418.400000
13841 8150 15859 1 149.00000 418.400000
14013 8151 14140 1 149.00000 418.400000
14013 8152 15664 1 149.00000 418.400000
14014 8153 15002 1 149.00000 418.400000
14015 8154 15201 1 149.00000 418.400000
14015 8155 15333 1 149.00000 418.400000
15201 8156 15657 1 149.00000 418.400000
14015 8157 14492 1 149.00000 418.400000
14016 8158 14933 1 149.00000 418.400000
14016 8159 16535 1 149.00000 418.400000
14017 8160 16692 1 149.00000 418.400000
11810 8161 14719 1 149.00000 418.400000
11810 8162 14017 1 149.00000 418.400000
14018 8163 14177 1 149.00000 418.400000
14018 8164 16024 1 149.00000 418.400000
14019 8165 15520 1 149.00000 418.400000
11803 8166 16343 1 149.00000 418.400000
14020 8167 16362 1 149.00000 418.400000
14021 8168 14588 1 149.00000 418.400000
14022 8169 15026 1 149.00000 418.400000
14022 8170 16341 1 149.00000 418.400000
14022 8171 14199 1 149.00000 418.400000
15374 8172 20161 1 149.00000 418.400000
16770 8173 20161 1 149.00000 418.400000
15780 8174 20161 1 149.00000 418.400000
14023 8175 14300 1 149.00000 418.400000
14023 8176 15184 1 149.00000 418.400000
14023 8177 15095 1 149.00000 418.400000
14023 8178 15017 1 149.00000 418.400000
14024 8179 15809 1 149.00000 418.400000
14024 8180 15030 1 149.00000 418.400000
14024 8181 14785 1 149.00000 418.400000
14024 8182 15397 1 149.00000 418.400000
14025 8183 16040 1 149.00000 418.400000
14025 8184 14803 1 149.00000 418.400000
14026 8185 15956 1 149.00000 418.400000
14027 8186 14087 1 149.00000 418.400000
14027 8187 16417 1 149.00000 418.400000
14027 8188 15653 1 149.00000 418.400000
14028 8189 15207 1 149.00000 418.400000
14028 8190 15024 1 149.00000 418.400000
14028 8191 15159 1 149.00000 418.400000
14029 8192 14581 1 149.00000 418.400000
14029 8193 14146 1 149.00000 418.400000
14029 8194 15093 1 149.00000 418.400000
14030 8195 15051 1 149.00000 418.400000
14030 8196 14426 1 149.00000 418.400000
14031 8197 15518 1 149.00000 418.400000
14352 8198 20164 1 149.00000 418.400000
14032 8199 14055 1 149.00000 418.400000
14032 8200 15220 1 149.00000 418.400000
14032 8201 16329 1 149.00000 418.400000
14033 8202 15441 1 149.00000 418.400000
14034 8203 14634 1 149.00000 418.400000
14034 8204 14582 1 149.00000 418.400000
14035 8205 16379 1 149.00000 418.400000
14035 8206 16589 1 149.00000 418.400000
14035 8207 15758 1 149.00000 418.400000
14036 8208 16159 1 149.00000 418.400000
14036 8209 16085 1 149.00000 418.400000
14037 8210 16578 1 149.00000 418.400000
12517 8211 14258 1 149.00000 418.400000
11508 8212 12789 1 149.00000 418.400000
14039 8213 20644 1 149.00000 418.400000
14040 8214 15675 1 149.00000 418.400000
14040 8215 14780 1 149.00000 418.400000
14589 8216 16601 1 149.00000 418.400000
14041 8217 14589 1 149.00000 418.400000
14042 8218 16463 1 149.00000 418.400000
14042 8219 14862 1 149.00000 418.400000
14043 8220 15750 1 149.00000 418.400000
14044 8221 15923 1 149.00000 418.400000
15775 8222 20167 1 149.00000 418.400000
14045 8223 15767 1 149.00000 418.400000
14045 8224 15310 1 149.00000 418.400000
14045 8225 16674 1 149.00000 418.400000
14046 8226 16272 1 149.00000 418.400000
14046 8227 14276 1 149.00000 418.400000
14046 8228 16304 1 149.00000 418.400000
14048 8229 15475 1 149.00000 418.400000
14048 8230 16633 1 149.00000 418.400000
14048 8231 14239 1 149.00000 418.400000
14048 8232 14746 1 149.00000 418.400000
14049 8233 16048 1 149.00000 418.400000
14049 8234 17792 1 149.00000 418.400000
14050 8235 14867 1 149.00000 418.400000
14050 8236 16244 1 149.00000 418.400000
20170 8237 20275 1 149.00000 418.400000
14051 8238 16583 1 149.00000 418.400000
14051 8239 15669 1 149.00000 418.400000
14818 8240 16476 1 149.00000 418.400000
14052 8241 15092 1 149.00000 418.400000
14052 8242 16476 1 149.00000 418.400000
14053 8243 15020 1 149.00000 418.400000
14053 8244 14214 1 149.00000 418.400000
14053 8245 15623 1 149.00000 418.400000
15017 8246 20173 1 149.00000 418.400000
14054 8247 15561 1 149.00000 418.400000
14055 8248 14406 1 149.00000 418.400000
14056 8249 15510 1 149.00000 418.400000
14056 8250 16202 1 149.00000 418.400000
14056 8251 15088 1 149.00000 418.400000
14056 8252 14432 1 149.00000 418.400000
14057 8253 15946 1 149.00000 418.400000
14057 8254 14534 1 149.00000 418.400000
14057 8255 16666 1 149.00000 418.400000
14058 8256 15636 1 149.00000 418.400000
14058 8257 14168 1 149.00000 418.400000
14058 8258 14503 1 149.00000 418.400000
11887 8259 15730 1 149.00000 418.400000
14060 8260 15534 1 149.00000 418.400000
14060 8261 15309 1 149.00000 418.400000
14061 8262 16052 1 149.00000 418.400000
14062 8263 14522 1 149.00000 418.400000
14062 8264 15691 1 149.00000 418.400000
15435 8265 20179 1 149.00000 418.400000
14063 8266 16095 1 149.00000 418.400000
14063 8267 16197 1 149.00000 418.400000
14063 8268 16684 1 149.00000 418.400000
14064 8269 15119 1 149.00000 418.400000
14064 8270 16220 1 149.00000 418.400000
14064 8271 14423 1 149.00000 418.400000
14065 8272 15901 1 149.00000 418.400000
14066 8273 16695 1 149.00000 418.400000
14067 8274 16162 1 149.00000 418.400000
14068 8275 20710 1 149.00000 418.400000
16094 8276 20185 1 149.00000 418.400000
13352 8277 14629 1 149.00000 418.400000
14069 8278 15396 1 149.00000 418.400000
13352 8279 15096 1 149.00000 418.400000
14070 8280 16371 1 149.00000 418.400000
14071 8281 16266 1 149.00000 418.400000
14071 8282 14425 1 149.00000 418.400000
14425 8283 14859 1 149.00000 418.400000
14072 8284 15874 1 149.00000 418.400000
14072 8285 14380 1 149.00000 418.400000
14072 8286 15113 1 149.00000 418.400000
14072 8287 14279 1 149.00000 418.400000
15192 8288 20188 1 149.00000 418.400000
16742 8289 20188 1 149.00000 418.400000
14073 8290 20908 1 149.00000 418.400000
14073 8291 16629 1 149.00000 418.400000
14074 8292 15574 1 149.00000 418.400000
14074 8293 14525 1 149.00000 418.400000
19678 8294 20527 1 149.00000 418.400000
14075 8295 16233 1 149.00000 418.400000
14075 8296 17246 1 149.00000 418.400000
14076 8297 14696 1 149.00000 418.400000
15966 8298 20194 1 149.00000 418.400000
14077 8299 15079 1 149.00000 418.400000
14077 8300 14719 1 149.00000 418.400000
14077 8301 15561 1 149.00000 418.400000
14078 8302 14968 1 149.00000 418.400000
14078 8303 16313 1 149.00000 418.400000
14078 8304 20761 1 149.00000 418.400000
14079 8305 15739 1 149.00000 418.400000
14079 8306 14742 1 149.00000 418.400000
14080 8307 14332 1 149.00000 418.400000
14080 8308 16378 1 149.00000 418.400000
14081 8309 15407 1 149.00000 418.400000
14081 8310 16536 1 149.00000 418.400000
14081 8311 16394 1 149.00000 418.400000
14082 8312 16669 1 149.00000 418.400000
14082 8313 15481 1 149.00000 418.400000
13098 8314 16392 1 149.00000 418.400000
14953 8315 15481 1 149.00000 418.400000
14083 8316 15872 1 149.00000 418.400000
14083 8317 15319 1 149.00000 418.400000
14083 8318 14203 1 149.00000 418.400000
14083 8319 16561 1 149.00000 418.400000
14084 8320 14576 1 149.00000 418.400000
14085 8321 16237 1 149.00000 418.400000
14085 8322 14476 1 149.00000 418.400000
14086 8323 14743 1 149.00000 418.400000
14086 8324 14711 1 149.00000 418.400000
14087 8325 15198 1 149.00000 418.400000
14087 8326 16408 1 149.00000 418.400000
14088 8327 14889 1 149.00000 418.400000
14088 8328 15887 1 149.00000 418.400000
14088 8329 15522 1 149.00000 418.400000
12241 8330 14088 1 149.00000 418.400000
14089 8331 17344 1 149.00000 418.400000
14089 8332 16541 1 149.00000 418.400000
14090 8333 16284 1 149.00000 418.400000
14090 8334 14382 1 149.00000 418.400000
14090 8335 16336 1 149.00000 418.400000
14091 8336 16666 1 149.00000 418.400000
14091 8337 15659 1 149.00000 418.400000
14091 8338 14195 1 149.00000 418.400000
14091 8339 15096 1 149.00000 418.400000
14092 8340 14679 1 149.00000 418.400000
14092 8341 15565 1 149.00000 418.400000
14093 8342 14992 1 149.00000 418.400000
14094 8343 14186 1 149.00000 418.400000
14094 8344 15892 1 149.00000 418.400000
14094 8345 15921 1 149.00000 418.400000
14095 8346 16341 1 149.00000 418.400000
14095 8347 16564 1 149.00000 418.400000
14096 8348 15514 1 149.00000 418.400000
14096 8349 15239 1 149.00000 418.400000
14096 8350 15527 1 149.00000 418.400000
14098 8351 15280 1 149.00000 418.400000
14098 8352 16339 1 149.00000 418.400000
14098 8353 14179 1 149.00000 418.400000
15536 8354 20197 1 149.00000 418.400000
14099 8355 15111 1 149.00000 418.400000
14099 8356 14649 1 149.00000 418.400000
14100 8357 14635 1 149.00000 418.400000
14100 8358 16325 1 149.00000 418.400000
14101 8359 15232 1 149.00000 418.400000
14101 8360 14447 1 149.00000 418.400000
14101 8361 20842 1 149.00000 418.400000
14102 8362 20440 1 149.00000 418.400000
14103 8363 17526 1 149.00000 418.400000
14103 8364 15684 1 149.00000 418.400000
14103 8365 16440 1 149.00000 418.400000
14104 8366 14493 1 149.00000 418.400000
14104 8367 14132 1 149.00000 418.400000
14105 8368 20356 1 149.00000 418.400000
14105 8369 14137 1 149.00000 418.400000
14105 8370 14521 1 149.00000 418.400000
20200 8371 20257 1 149.00000 418.400000
14106 8372 14958 1 149.00000 418.400000
16359 8373 20170 1 149.00000 418.400000
14107 8374 16261 1 149.00000 418.400000
14107 8375 20524 1 149.00000 418.400000
11870 8376 16105 1 149.00000 418.400000
14108 8377 14606 1 149.00000 418.400000
14109 8378 16131 1 149.00000 418.400000
14110 8379 15898 1 149.00000 418.400000
14110 8380 16437 1 149.00000 418.400000
14111 8381 14449 1 149.00000 418.400000
14112 8382 16652 1 149.00000 418.400000
11759 8383 14112 1 149.00000 418.400000
14113 8384 15001 1 149.00000 418.400000
14114 8385 14413 1 149.00000 418.400000
14115 8386 14235 1 149.00000 418.400000
14115 8387 16087 1 149.00000 418.400000
14115 8388 15311 1 149.00000 418.400000
14116 8389 20353 1 149.00000 418.400000
14117 8390 15222 1 149.00000 418.400000
14117 8391 15370 1 149.00000 418.400000
14118 8392 14661 1 149.00000 418.400000
14118 8393 15625 1 149.00000 418.400000
14119 8394 16640 1 149.00000 418.400000
14119 8395 14507 1 149.00000 418.400000
14119 8396 15072 1 149.00000 418.400000
14120 8397 14465 1 149.00000 418.400000
14120 8398 16472 1 149.00000 418.400000
14121 8399 15931 1 149.00000 418.400000
14121 8400 15271 1 149.00000 418.400000
14122 8401 16511 1 149.00000 418.400000
14122 8402 16140 1 149.00000 418.400000
14124 8403 16176 1 149.00000 418.400000
14796 8404 20203 1 149.00000 418.400000
17834 8405 20203 1 149.00000 418.400000
14125 8406 16651 1 149.00000 418.400000
14125 8407 14389 1 149.00000 418.400000
14126 8408 15453 1 149.00000 418.400000
14126 8409 15263 1 149.00000 418.400000
14126 8410 14674 1 149.00000 418.400000
14127 8411 15960 1 149.00000 418.400000
11607 8412 17988 1 149.00000 418.400000
14128 8413 20317 1 149.00000 418.400000
14128 8414 14196 1 149.00000 418.400000
14129 8415 15168 1 149.00000 418.400000
14129 8416 15751 1 149.00000 418.400000
14129 8417 15992 1 149.00000 418.400000
14130 8418 15402 1 149.00000 418.400000
14130 8419 14287 1 149.00000 418.400000
14130 8420 16340 1 149.00000 418.400000
12915 8421 15466 1 149.00000 418.400000
14131 8422 14761 1 149.00000 418.400000
14132 8423 15836 1 149.00000 418.400000
14132 8424 14472 1 149.00000 418.400000
14132 8425 15461 1 149.00000 418.400000
14888 8426 16438 1 149.00000 418.400000
14133 8427 16438 1 149.00000 418.400000
14681 8428 16438 1 149.00000 418.400000
16132 8429 16398 1 149.00000 418.400000
14134 8430 14871 1 149.00000 418.400000
14134 8431 16398 1 149.00000 418.400000
14135 8432 16395 1 149.00000 418.400000
14135 8433 15290 1 149.00000 418.400000
14136 8434 16343 1 149.00000 418.400000
14136 8435 15323 1 149.00000 418.400000
15467 8436 16343 1 149.00000 418.400000
15063 8437 15705 1 149.00000 418.400000
14137 8438 17204 1 149.00000 418.400000
14137 8439 15705 1 149.00000 418.400000
14138 8440 15859 1 149.00000 418.400000
14138 8441 14637 1 149.00000 418.400000
14139 8442 15416 1 149.00000 418.400000
14140 8443 14907 1 149.00000 418.400000
14141 8444 16320 1 149.00000 418.400000
14142 8445 14174 1 149.00000 418.400000
14142 8446 16235 1 149.00000 418.400000
14142 8447 14980 1 149.00000 418.400000
14143 8448 15284 1 149.00000 418.400000
14143 8449 15871 1 149.00000 418.400000
15871 8450 15993 1 149.00000 418.400000
14144 8451 16238 1 149.00000 418.400000
14144 8452 14605 1 149.00000 418.400000
14144 8453 15439 1 149.00000 418.400000
16238 8454 16290 1 149.00000 418.400000
14145 8455 15120 1 149.00000 418.400000
11667 8456 15611 1 149.00000 418.400000
14147 8457 15782 1 149.00000 418.400000
14147 8458 15286 1 149.00000 418.400000
16728 8459 20692 1 149.00000 418.400000
14148 8460 16446 1 149.00000 418.400000
14513 8461 16446 1 149.00000 418.400000
14149 8462 15372 1 149.00000 418.400000
14149 8463 14785 1 149.00000 418.400000
14149 8464 15315 1 149.00000 418.400000
14150 8465 14808 1 149.00000 418.400000
14150 8466 15649 1 149.00000 418.400000
14151 8467 16613 1 149.00000 418.400000
14152 8468 15290 1 149.00000 418.400000
13759 8469 14152 1 149.00000 418.400000
14152 8470 16213 1 149.00000 418.400000
14152 8471 15529 1 149.00000 418.400000
14153 8472 16133 1 149.00000 418.400000
16352 8473 20209 1 149.00000 418.400000
15297 8474 20209 1 149.00000 418.400000
14155 8475 15108 1 149.00000 418.400000
14156 8476 14248 1 149.00000 418.400000
14156 8477 16027 1 149.00000 418.400000
14157 8478 15151 1 149.00000 418.400000
14157 8479 16646 1 149.00000 418.400000
14157 8480 16627 1 149.00000 418.400000
14158 8481 14645 1 149.00000 418.400000
14158 8482 15498 1 149.00000 418.400000
14159 8483 20386 1 149.00000 418.400000
14160 8484 14245 1 149.00000 418.400000
14160 8485 15000 1 149.00000 418.400000
14161 8486 16216 1 149.00000 418.400000
14161 8487 14980 1 149.00000 418.400000
14161 8488 16494 1 149.00000 418.400000
14162 8489 15023 1 149.00000 418.400000
14162 8490 16163 1 149.00000 418.400000
14162 8491 14916 1 149.00000 418.400000
16037 8492 20212 1 149.00000 418.400000
14163 8493 20560 1 149.00000 418.400000
14163 8494 15060 1 149.00000 418.400000
14164 8495 16220 1 149.00000 418.400000
14164 8496 14900 1 149.00000 418.400000
15342 8497 17820 1 149.00000 418.400000
14165 8498 20635 1 149.00000 418.400000
14512 8499 15342 1 149.00000 418.400000
14165 8500 15342 1 149.00000 418.400000
14533 8501 20215 1 149.00000 418.400000
14166 8502 14822 1 149.00000 418.400000
14166 8503 14515 1 149.00000 418.400000
14166 8504 14265 1 149.00000 418.400000
12297 8505 15571 1 149.00000 418.400000
12297 8506 14183 1 149.00000 418.400000
14168 8507 15359 1 149.00000 418.400000
14169 8508 15601 1 149.00000 418.400000
14169 8509 16071 1 149.00000 418.400000
14169 8510 15532 1 149.00000 418.400000
20221 8511 20978 1 149.00000 418.400000
15728 8512 20221 1 149.00000 418.400000
14170 8513 15261 1 149.00000 418.400000
14171 8514 15789 1 149.00000 418.400000
14171 8515 14991 1 149.00000 418.400000
14171 8516 16561 1 149.00000 418.400000
14172 8517 16474 1 149.00000 418.400000
14173 8518 16681 1 149.00000 418.400000
14174 8519 15311 1 149.00000 418.400000
14175 8520 20958 1 149.00000 418.400000
14176 8521 14772 1 149.00000 418.400000
14176 8522 16137 1 149.00000 418.400000
14177 8523 15001 1 149.00000 418.400000
14177 8524 16676 1 149.00000 418.400000
11472 8525 14553 1 149.00000 418.400000
11472 8526 14829 1 149.00000 418.400000
11472 8527 14421 1 149.00000 418.400000
14179 8528 14248 1 149.00000 418.400000
14179 8529 14843 1 149.00000 418.400000
14180 8530 14453 1 149.00000 418.400000
14180 8531 15942 1 149.00000 418.400000
14181 8532 16405 1 149.00000 418.400000
14181 8533 15543 1 149.00000 418.400000
14181 8534 16490 1 149.00000 418.400000
14182 8535 16065 1 149.00000 418.400000
14182 8536 15421 1 149.00000 418.400000
14182 8537 16370 1 149.00000 418.400000
14183 8538 16298 1 149.00000 418.400000
14183 8539 14520 1 149.00000 418.400000
14184 8540 16248 1 149.00000 418.400000
14184 8541 15679 1 149.00000 418.400000
14184 8542 16569 1 149.00000 418.400000
14185 8543 14962 1 149.00000 418.400000
14185 8544 16079 1 149.00000 418.400000
14185 8545 14299 1 149.00000 418.400000
14186 8546 15428 1 149.00000 418.400000
14188 8547 15253 1 149.00000 418.400000
14188 8548 15669 1 149.00000 418.400000
14188 8549 14422 1 149.00000 418.400000
14189 8550 16019 1 149.00000 418.400000
14190 8551 14950 1 149.00000 418.400000
14190 8552 15278 1 149.00000 418.400000
14190 8553 14840 1 149.00000 418.400000
14192 8554 16598 1 149.00000 418.400000
14192 8555 14222 1 149.00000 418.400000
14193 8556 16468 1 149.00000 418.400000
14193 8557 16557 1 149.00000 418.400000
14194 8558 15111 1 149.00000 418.400000
14194 8559 16452 1 149.00000 418.400000
14195 8560 16074 1 149.00000 418.400000
14195 8561 16190 1 149.00000 418.400000
15647 8562 20227 1 149.00000 418.400000
14196 8563 16470 1 149.00000 418.400000
14197 8564 16472 1 149.00000 418.400000
14197 8565 15454 1 149.00000 418.400000
14198 8566 16195 1 149.00000 418.400000
14199 8567 15309 1 149.00000 418.400000
14200 8568 14754 1 149.00000 418.400000
14200 8569 15958 1 149.00000 418.400000
14201 8570 15368 1 149.00000 418.400000
14201 8571 16661 1 149.00000 418.400000
14201 8572 15893 1 149.00000 418.400000
14585 8573 20230 1 149.00000 418.400000
16144 8574 20230 1 149.00000 418.400000
14203 8575 15390 1 149.00000 418.400000
14204 8576 16465 1 149.00000 418.400000
14204 8577 15936 1 149.00000 418.400000
14204 8578 16499 1 149.00000 418.400000
14204 8579 14281 1 149.00000 418.400000
14205 8580 15833 1 149.00000 418.400000
11886 8581 14205 1 149.00000 418.400000
14206 8582 15399 1 149.00000 418.400000
14207 8583 16144 1 149.00000 418.400000
14207 8584 15670 1 149.00000 418.400000
11697 8585 14207 1 149.00000 418.400000
14208 8586 15175 1 149.00000 418.400000
14208 8587 15372 1 149.00000 418.400000
14209 8588 16206 1 149.00000 418.400000
14209 8589 15655 1 149.00000 418.400000
14210 8590 15742 1 149.00000 418.400000
14210 8591 15237 1 149.00000 418.400000
14210 8592 15585 1 149.00000 418.400000
12986 8593 14752 1 149.00000 418.400000
14211 8594 14250 1 149.00000 418.400000
14211 8595 16492 1 149.00000 418.400000
14212 8596 15798 1 149.00000 418.400000
14212 8597 15876 1 149.00000 418.400000
14212 8598 16203 1 149.00000 418.400000
14213 8599 15184 1 149.00000 418.400000
14213 8600 15645 1 149.00000 418.400000
14213 8601 14566 1 149.00000 418.400000
14214 8602 14897 1 149.00000 418.400000
14214 8603 16434 1 149.00000 418.400000
14216 8604 15255 1 149.00000 418.400000
14217 8605 16479 1 149.00000 418.400000
14217 8606 16274 1 149.00000 418.400000
14217 8607 16567 1 149.00000 418.400000
14217 8608 15970 1 149.00000 418.400000
14052 8609 14218 1 149.00000 418.400000
14219 8610 16267 1 149.00000 418.400000
14219 8611 16002 1 149.00000 418.400000
11935 8612 16300 1 149.00000 418.400000
14220 8613 16260 1 149.00000 418.400000
14220 8614 16002 1 149.00000 418.400000
14221 8615 15244 1 149.00000 418.400000
14221 8616 14693 1 149.00000 418.400000
17470 8617 20233 1 149.00000 418.400000
14856 8618 20233 1 149.00000 418.400000
14222 8619 20809 1 149.00000 418.400000
14222 8620 15161 1 149.00000 418.400000
20236 8621 20626 1 149.00000 418.400000
11593 8622 15010 1 149.00000 418.400000
14223 8623 14617 1 149.00000 418.400000
14223 8624 15712 1 149.00000 418.400000
14224 8625 16034 1 149.00000 418.400000
14225 8626 15196 1 149.00000 418.400000
14225 8627 16631 1 149.00000 418.400000
14225 8628 14248 1 149.00000 418.400000
14225 8629 15280 1 149.00000 418.400000
14226 8630 15980 1 149.00000 418.400000
14227 8631 14375 1 149.00000 418.400000
14227 8632 14701 1 149.00000 418.400000
14227 8633 15756 1 149.00000 418.400000
17778 8634 20239 1 149.00000 418.400000
16826 8635 20239 1 149.00000 418.400000
15674 8636 20239 1 149.00000 418.400000
15021 8637 15097 1 149.00000 418.400000
14836 8638 15097 1 149.00000 418.400000
14228 8639 15097 1 149.00000 418.400000
14229 8640 16121 1 149.00000 418.400000
14230 8641 15594 1 149.00000 418.400000
14230 8642 14335 1 149.00000 418.400000
14231 8643 15397 1 149.00000 418.400000
14231 8644 15622 1 149.00000 418.400000
14232 8645 15130 1 149.00000 418.400000
14232 8646 15142 1 149.00000 418.400000
16231 8647 20242 1 149.00000 418.400000
16258 8648 20242 1 149.00000 418.400000
14233 8649 15242 1 149.00000 418.400000
14233 8650 15830 1 149.00000 418.400000
14234 8651 15744 1 149.00000 418.400000
14235 8652 14647 1 149.00000 418.400000
14236 8653 16015 1 149.00000 418.400000
14236 8654 15272 1 149.00000 418.400000
14237 8655 15226 1 149.00000 418.400000
14237 8656 16246 1 149.00000 418.400000
14238 8657 15046 1 149.00000 418.400000
14238 8658 20374 1 149.00000 418.400000
14239 8659 15353 1 149.00000 418.400000
14240 8660 14646 1 149.00000 418.400000
14240 8661 15914 1 149.00000 418.400000
14241 8662 15168 1 149.00000 418.400000
14241 8663 16445 1 149.00000 418.400000
13121 8664 14241 1 149.00000 418.400000
14241 8665 14731 1 149.00000 418.400000
14333 8666 16423 1 149.00000 418.400000
14333 8667 15158 1 149.00000 418.400000
14242 8668 15488 1 149.00000 418.400000
14243 8669 15433 1 149.00000 418.400000
14244 8670 16528 1 149.00000 418.400000
14244 8671 16425 1 149.00000 418.400000
14246 8672 16630 1 149.00000 418.400000
14247 8673 15107 1 149.00000 418.400000
14247 8674 14313 1 149.00000 418.400000
11463 8675 14249 1 149.00000 418.400000
14249 8676 16403 1 149.00000 418.400000
14249 8677 15570 1 149.00000 418.400000
14250 8678 14886 1 149.00000 418.400000
15303 8679 15895 1 149.00000 418.400000
14251 8680 15895 1 149.00000 418.400000
14252 8681 15257 1 149.00000 418.400000
14252 8682 15356 1 149.00000 418.400000
14252 8683 15975 1 149.00000 418.400000
14252 8684 14753 1 149.00000 418.400000
14253 8685 15163 1 149.00000 418.400000
14254 8686 14867 1 149.00000 418.400000
14254 8687 16436 1 149.00000 418.400000
14255 8688 16656 1 149.00000 418.400000
14255 8689 15813 1 149.00000 418.400000
14256 8690 16087 1 149.00000 418.400000
14257 8691 16274 1 149.00000 418.400000
14257 8692 14773 1 149.00000 418.400000
14257 8693 16479 1 149.00000 418.400000
14257 8694 15651 1 149.00000 418.400000
14258 8695 14590 1 149.00000 418.400000
14259 8696 14981 1 149.00000 418.400000
14260 8697 16560 1 149.00000 418.400000
14261 8698 16096 1 149.00000 418.400000
14261 8699 14487 1 149.00000 418.400000
14262 8700 15980 1 149.00000 418.400000
14262 8701 14585 1 149.00000 418.400000
14263 8702 14884 1 149.00000 418.400000
14263 8703 14788 1 149.00000 418.400000
14264 8704 15618 1 149.00000 418.400000
14264 8705 15583 1 149.00000 418.400000
14265 8706 15936 1 149.00000 418.400000
14267 8707 15763 1 149.00000 418.400000
14267 8708 15800 1 149.00000 418.400000
14267 8709 15961 1 149.00000 418.400000
14268 8710 15698 1 149.00000 418.400000
14268 8711 14288 1 149.00000 418.400000
14269 8712 16245 1 149.00000 418.400000
14270 8713 15860 1 149.00000 418.400000
14270 8714 15320 1 149.00000 418.400000
14271 8715 16636 1 149.00000 418.400000
14272 8716 15953 1 149.00000 418.400000
14272 8717 15214 1 149.00000 418.400000
14272 8718 15699 1 149.00000 418.400000
14273 8719 15276 1 149.00000 418.400000
14273 8720 16397 1 149.00000 418.400000
14274 8721 14510 1 149.00000 418.400000
14274 8722 15336 1 149.00000 418.400000
14275 8723 15883 1 149.00000 418.400000
14275 8724 15121 1 149.00000 418.400000
14275 8725 17148 1 149.00000 418.400000
14276 8726 14711 1 149.00000 418.400000
14276 8727 15229 1 149.00000 418.400000
14277 8728 15766 1 149.00000 418.400000
11518 8729 14277 1 149.00000 418.400000
14277 8730 15659 1 149.00000 418.400000
14278 8731 16310 1 149.00000 418.400000
14278 8732 16207 1 149.00000 418.400000
14279 8733 14965 1 149.00000 418.400000
14280 8734 16414 1 149.00000 418.400000
13471 8735 16551 1 149.00000 418.400000
14281 8736 15856 1 149.00000 418.400000
14282 8737 14485 1 149.00000 418.400000
14283 8738 16496 1 149.00000 418.400000
14283 8739 16563 1 149.00000 418.400000
14283 8740 16045 1 149.00000 418.400000
14284 8741 15245 1 149.00000 418.400000
14285 8742 15710 1 149.00000 418.400000
14285 8743 15495 1 149.00000 418.400000
14286 8744 14730 1 149.00000 418.400000
14286 8745 16209 1 149.00000 418.400000
14287 8746 15777 1 149.00000 418.400000
14289 8747 14304 1 149.00000 418.400000
14289 8748 15179 1 149.00000 418.400000
14289 8749 15553 1 149.00000 418.400000
14290 8750 15792 1 149.00000 418.400000
14291 8751 15179 1 149.00000 418.400000
14292 8752 14295 1 149.00000 418.400000
14292 8753 14495 1 149.00000 418.400000
14293 8754 15376 1 149.00000 418.400000
14293 8755 14383 1 149.00000 418.400000
14293 8756 16192 1 149.00000 418.400000
14295 8757 15964 1 149.00000 418.400000
14296 8758 15433 1 149.00000 418.400000
14296 8759 15124 1 149.00000 418.400000
20245 8760 20806 1 149.00000 418.400000
15887 8761 20245 1 149.00000 418.400000
14298 8762 15693 1 149.00000 418.400000
14299 8763 15235 1 149.00000 418.400000
14300 8764 14305 1 149.00000 418.400000
14300 8765 14519 1 149.00000 418.400000
14301 8766 14722 1 149.00000 418.400000
14301 8767 16000 1 149.00000 418.400000
14302 8768 14795 1 149.00000 418.400000
14302 8769 15918 1 149.00000 418.400000
14303 8770 15407 1 149.00000 418.400000
14303 8771 15609 1 149.00000 418.400000
14305 8772 16413 1 149.00000 418.400000
14306 8773 16221 1 149.00000 418.400000
14306 8774 14697 1 149.00000 418.400000
14307 8775 15515 1 149.00000 418.400000
14307 8776 15241 1 149.00000 418.400000
14533 8777 20254 1 149.00000 418.400000
14308 8778 15371 1 149.00000 418.400000
14308 8779 14586 1 149.00000 418.400000
14309 8780 15924 1 149.00000 418.400000
14309 8781 15659 1 149.00000 418.400000
14309 8782 15066 1 149.00000 418.400000
14310 8783 16606 1 149.00000 418.400000
14310 8784 14724 1 149.00000 418.400000
14311 8785 17540 1 149.00000 418.400000
14312 8786 15259 1 149.00000 418.400000
14312 8787 15773 1 149.00000 418.400000
14313 8788 15036 1 149.00000 418.400000
14313 8789 15667 1 149.00000 418.400000
14314 8790 14930 1 149.00000 418.400000
14314 8791 15393 1 149.00000 418.400000
14314 8792 14769 1 149.00000 418.400000
14315 8793 14963 1 149.00000 418.400000
14315 8794 15747 1 149.00000 418.400000
14316 8795 14922 1 149.00000 418.400000
14317 8796 14570 1 149.00000 418.400000
14317 8797 14639 1 149.00000 418.400000
14318 8798 14995 1 149.00000 418.400000
14318 8799 20716 1 149.00000 418.400000
14319 8800 15732 1 149.00000 418.400000
13814 8801 14319 1 149.00000 418.400000
14319 8802 15062 1 149.00000 418.400000
14320 8803 16172 1 149.00000 418.400000
14320 8804 14323 1 149.00000 418.400000
14321 8805 14891 1 149.00000 418.400000
14321 8806 14446 1 149.00000 418.400000
14321 8807 16066 1 149.00000 418.400000
14322 8808 15346 1 149.00000 418.400000
14323 8809 16313 1 149.00000 418.400000
14323 8810 14684 1 149.00000 418.400000
14323 8811 15723 1 149.00000 418.400000
14324 8812 16304 1 149.00000 418.400000
15073 8813 20257 1 149.00000 418.400000
14325 8814 15081 1 149.00000 418.400000
12817 8815 20728 1 149.00000 418.400000
14326 8816 14938 1 149.00000 418.400000
14327 8817 16317 1 149.00000 418.400000
14328 8818 16056 1 149.00000 418.400000
14328 8819 16473 1 149.00000 418.400000
14329 8820 16348 1 149.00000 418.400000
14330 8821 16042 1 149.00000 418.400000
20260 8822 20674 1 149.00000 418.400000
14331 8823 14738 1 149.00000 418.400000
14331 8824 16128 1 149.00000 418.400000
14332 8825 15347 1 149.00000 418.400000
15865 8826 16423 1 149.00000 418.400000
14337 8827 14430 1 149.00000 418.400000
14337 8828 14972 1 149.00000 418.400000
14337 8829 20209 1 149.00000 418.400000
14338 8830 15892 1 149.00000 418.400000
14339 8831 16031 1 149.00000 418.400000
14339 8832 15744 1 149.00000 418.400000
14339 8833 15118 1 149.00000 418.400000
14339 8834 14824 1 149.00000 418.400000
14340 8835 14576 1 149.00000 418.400000
14341 8836 15603 1 149.00000 418.400000
14342 8837 15019 1 149.00000 418.400000
14343 8838 15137 1 149.00000 418.400000
14343 8839 15461 1 149.00000 418.400000
14343 8840 16002 1 149.00000 418.400000
14344 8841 21008 1 149.00000 418.400000
14344 8842 14697 1 149.00000 418.400000
14345 8843 16196 1 149.00000 418.400000
14345 8844 15344 1 149.00000 418.400000
14346 8845 16383 1 149.00000 418.400000
14346 8846 16364 1 149.00000 418.400000
14347 8847 15466 1 149.00000 418.400000
13218 8848 14932 1 149.00000 418.400000
14348 8849 15431 1 149.00000 418.400000
14349 8850 16615 1 149.00000 418.400000
20266 8851 20656 1 149.00000 418.400000
14351 8852 15028 1 149.00000 418.400000
14351 8853 15259 1 149.00000 418.400000
14351 8854 16370 1 149.00000 418.400000
13045 8855 16577 1 149.00000 418.400000
14353 8856 14780 1 149.00000 418.400000
14353 8857 14593 1 149.00000 418.400000
14354 8858 15929 1 149.00000 418.400000
14354 8859 15539 1 149.00000 418.400000
14354 8860 16376 1 149.00000 418.400000
14355 8861 16268 1 149.00000 418.400000
14355 8862 14763 1 149.00000 418.400000
14355 8863 15245 1 149.00000 418.400000
16338 8864 20269 1 149.00000 418.400000
20269 8865 20928 1 149.00000 418.400000
14356 8866 15001 1 149.00000 418.400000
14356 8867 16432 1 149.00000 418.400000
14357 8868 14592 1 149.00000 418.400000
11638 8869 15932 1 149.00000 418.400000
14358 8870 16328 1 149.00000 418.400000
14358 8871 14503 1 149.00000 418.400000
14360 8872 15241 1 149.00000 418.400000
14361 8873 15040 1 149.00000 418.400000
14361 8874 20617 1 149.00000 418.400000
14361 8875 20434 1 149.00000 418.400000
15002 8876 20272 1 149.00000 418.400000
14362 8877 15221 1 149.00000 418.400000
14363 8878 14745 1 149.00000 418.400000
14363 8879 17848 1 149.00000 418.400000
14364 8880 15280 1 149.00000 418.400000
14365 8881 15212 1 149.00000 418.400000
14365 8882 16275 1 149.00000 418.400000
14366 8883 15472 1 149.00000 418.400000
14367 8884 15844 1 149.00000 418.400000
14367 8885 15707 1 149.00000 418.400000
14368 8886 14670 1 149.00000 418.400000
14368 8887 15904 1 149.00000 418.400000
14370 8888 16141 1 149.00000 418.400000
14370 8889 16122 1 149.00000 418.400000
14370 8890 14584 1 149.00000 418.400000
14371 8891 14597 1 149.00000 418.400000
14371 8892 15603 1 149.00000 418.400000
13510 8893 14372 1 149.00000 418.400000
12256 8894 16102 1 149.00000 418.400000
14373 8895 16430 1 149.00000 418.400000
14374 8896 14970 1 149.00000 418.400000
14374 8897 14981 1 149.00000 418.400000
14374 8898 15208 1 149.00000 418.400000
14375 8899 14741 1 149.00000 418.400000
14376 8900 16429 1 149.00000 418.400000
14376 8901 15886 1 149.00000 418.400000
14377 8902 16137 1 149.00000 418.400000
14377 8903 16241 1 149.00000 418.400000
14378 8904 16495 1 149.00000 418.400000
14378 8905 16640 1 149.00000 418.400000
14378 8906 15216 1 149.00000 418.400000
14379 8907 16100 1 149.00000 418.400000
15140 8908 20275 1 149.00000 418.400000
14381 8909 15047 1 149.00000 418.400000
14381 8910 14780 1 149.00000 418.400000
14382 8911 15938 1 149.00000 418.400000
14382 8912 14880 1 149.00000 418.400000
14455 8913 20281 1 149.00000 418.400000
14383 8914 14775 1 149.00000 418.400000
14383 8915 14819 1 149.00000 418.400000
13341 8916 20284 1 149.00000 418.400000
14384 8917 15613 1 149.00000 418.400000
14385 8918 15029 1 149.00000 418.400000
14385 8919 14879 1 149.00000 418.400000
14385 8920 15383 1 149.00000 418.400000
14386 8921 16204 1 149.00000 418.400000
14386 8922 16242 1 149.00000 418.400000
20287 8923 20872 1 149.00000 418.400000
14388 8924 15291 1 149.00000 418.400000
14388 8925 16601 1 149.00000 418.400000
14388 8926 15202 1 149.00000 418.400000
14389 8927 16488 1 149.00000 418.400000
20290 8928 20482 1 149.00000 418.400000
14390 8929 16422 1 149.00000 418.400000
14391 8930 16621 1 149.00000 418.400000
14391 8931 16463 1 149.00000 418.400000
14391 8932 15876 1 149.00000 418.400000
14391 8933 16131 1 149.00000 418.400000
14392 8934 16294 1 149.00000 418.400000
14392 8935 15571 1 149.00000 418.400000
14393 8936 15099 1 149.00000 418.400000
14394 8937 15095 1 149.00000 418.400000
14394 8938 17666 1 149.00000 418.400000
13959 8939 14395 1 149.00000 418.400000
14396 8940 16413 1 149.00000 418.400000
14397 8941 14438 1 149.00000 418.400000
17372 8942 20293 1 149.00000 418.400000
14398 8943 16162 1 149.00000 418.400000
14398 8944 14950 1 149.00000 418.400000
14398 8945 16367 1 149.00000 418.400000
14398 8946 16596 1 149.00000 418.400000
14399 8947 16254 1 149.00000 418.400000
14399 8948 14621 1 149.00000 418.400000
14400 8949 16584 1 149.00000 418.400000
14400 8950 15364 1 149.00000 418.400000
14400 8951 15543 1 149.00000 418.400000
14400 8952 16642 1 149.00000 418.400000
14401 8953 15548 1 149.00000 418.400000
14402 8954 20809 1 149.00000 418.400000
14402 8955 15154 1 149.00000 418.400000
14402 8956 14888 1 149.00000 418.400000
14403 8957 14695 1 149.00000 418.400000
14403 8958 16687 1 149.00000 418.400000
14403 8959 15532 1 149.00000 418.400000
14405 8960 14408 1 149.00000 418.400000
20296 8961 20713 1 149.00000 418.400000
15409 8962 20299 1 149.00000 418.400000
14406 8963 16678 1 149.00000 418.400000
14407 8964 15537 1 149.00000 418.400000
14407 8965 16606 1 149.00000 418.400000
14407 8966 16396 1 149.00000 418.400000
14408 8967 15935 1 149.00000 418.400000
14409 8968 15751 1 149.00000 418.400000
14409 8969 15714 1 149.00000 418.400000
12273 8970 16268 1 149.00000 418.400000
14411 8971 16673 1 149.00000 418.400000
14411 8972 15478 1 149.00000 418.400000
14411 8973 14760 1 149.00000 418.400000
14847 8974 20302 1 149.00000 418.400000
16314 8975 20305 1 149.00000 418.400000
12193 8976 14613 1 149.00000 418.400000
14412 8977 16038 1 149.00000 418.400000
14412 8978 15082 1 149.00000 418.400000
14413 8979 16464 1 149.00000 418.400000
14413 8980 15007 1 149.00000 418.400000
14413 8981 15413 1 149.00000 418.400000
14414 8982 15772 1 149.00000 418.400000
14414 8983 15133 1 149.00000 418.400000
14415 8984 16425 1 149.00000 418.400000
14415 8985 20509 1 149.00000 418.400000
11765 8986 15319 1 149.00000 418.400000
14417 8987 16676 1 149.00000 418.400000
14417 8988 16175 1 149.00000 418.400000
14417 8989 14605 1 149.00000 418.400000
14418 8990 16213 1 149.00000 418.400000
14420 8991 15673 1 149.00000 418.400000
14420 8992 16218 1 149.00000 418.400000
14421 8993 16049 1 149.00000 418.400000
14421 8994 16520 1 149.00000 418.400000
14422 8995 15308 1 149.00000 418.400000
14424 8996 16558 1 149.00000 418.400000
14424 8997 14786 1 149.00000 418.400000
14071 8998 15838 1 149.00000 418.400000
14426 8999 15185 1 149.00000 418.400000
14426 9000 14757 1 149.00000 418.400000
12011 9001 16578 1 149.00000 418.400000
14427 9002 16380 1 149.00000 418.400000
14427 9003 15719 1 149.00000 418.400000
14427 9004 15867 1 149.00000 418.400000
14428 9005 15646 1 149.00000 418.400000
14429 9006 14758 1 149.00000 418.400000
14429 9007 16641 1 149.00000 418.400000
14429 9008 16462 1 149.00000 418.400000
14430 9009 16352 1 149.00000 418.400000
11939 9010 20308 1 149.00000 418.400000
20311 9011 20527 1 149.00000 418.400000
14563 9012 20311 1 149.00000 418.400000
14431 9013 16009 1 149.00000 418.400000
14431 9014 15522 1 149.00000 418.400000
14432 9015 14734 1 149.00000 418.400000
14734 9016 15317 1 149.00000 418.400000
14432 9017 16484 1 149.00000 418.400000
14433 9018 15827 1 149.00000 418.400000
14434 9019 14492 1 149.00000 418.400000
12137 9020 14435 1 149.00000 418.400000
14435 9021 16158 1 149.00000 418.400000
14436 9022 15366 1 149.00000 418.400000
14436 9023 16059 1 149.00000 418.400000
15213 9024 20314 1 149.00000 418.400000
20314 9025 20758 1 149.00000 418.400000
14437 9026 16055 1 149.00000 418.400000
14437 9027 15755 1 149.00000 418.400000
14437 9028 15588 1 149.00000 418.400000
14438 9029 15055 1 149.00000 418.400000
14438 9030 14819 1 149.00000 418.400000
14439 9031 15498 1 149.00000 418.400000
14439 9032 17106 1 149.00000 418.400000
13634 9033 14439 1 149.00000 418.400000
14440 9034 14764 1 149.00000 418.400000
15239 9035 16742 1 149.00000 418.400000
14442 9036 16194 1 149.00000 418.400000
14442 9037 14835 1 149.00000 418.400000
14443 9038 15695 1 149.00000 418.400000
14443 9039 15145 1 149.00000 418.400000
14444 9040 15463 1 149.00000 418.400000
15295 9041 15949 1 149.00000 418.400000
14444 9042 15949 1 149.00000 418.400000
14444 9043 15603 1 149.00000 418.400000
14445 9044 14875 1 149.00000 418.400000
14446 9045 15810 1 149.00000 418.400000
14447 9046 15172 1 149.00000 418.400000
14447 9047 15944 1 149.00000 418.400000
17792 9048 20317 1 149.00000 418.400000
14448 9049 15340 1 149.00000 418.400000
14448 9050 16269 1 149.00000 418.400000
14449 9051 14989 1 149.00000 418.400000
14449 9052 16609 1 149.00000 418.400000
14450 9053 15362 1 149.00000 418.400000
14451 9054 20356 1 149.00000 418.400000
14451 9055 16201 1 149.00000 418.400000
12710 9056 14453 1 149.00000 418.400000
14454 9057 14698 1 149.00000 418.400000
14454 9058 16385 1 149.00000 418.400000
14454 9059 14837 1 149.00000 418.400000
14455 9060 14476 1 149.00000 418.400000
13549 9061 15143 1 149.00000 418.400000
12552 9062 14456 1 149.00000 418.400000
14456 9063 14560 1 149.00000 418.400000
14456 9064 16299 1 149.00000 418.400000
14457 9065 14900 1 149.00000 418.400000
14458 9066 16021 1 149.00000 418.400000
15108 9067 16756 1 149.00000 418.400000
14459 9068 15392 1 149.00000 418.400000
14947 9069 15392 1 149.00000 418.400000
14460 9070 16595 1 149.00000 418.400000
14460 9071 15104 1 149.00000 418.400000
14461 9072 15510 1 149.00000 418.400000
12772 9073 15326 1 149.00000 418.400000
14462 9074 15971 1 149.00000 418.400000
14462 9075 15008 1 149.00000 418.400000
14463 9076 15465 1 149.00000 418.400000
14463 9077 15575 1 149.00000 418.400000
14463 9078 16650 1 149.00000 418.400000
14463 9079 16256 1 149.00000 418.400000
14464 9080 16694 1 149.00000 418.400000
14464 9081 14471 1 149.00000 418.400000
14978 9082 15910 1 149.00000 418.400000
14464 9083 15910 1 149.00000 418.400000
14465 9084 14506 1 149.00000 418.400000
13275 9085 14592 1 149.00000 418.400000
14467 9086 15256 1 149.00000 418.400000
14468 9087 15731 1 149.00000 418.400000
16546 9088 20320 1 149.00000 418.400000
15408 9089 20320 1 149.00000 418.400000
16882 9090 20320 1 149.00000 418.400000
14469 9091 20434 1 149.00000 418.400000
14469 9092 15132 1 149.00000 418.400000
14469 9093 14470 1 149.00000 418.400000
14470 9094 14669 1 149.00000 418.400000
14470 9095 16695 1 149.00000 418.400000
14471 9096 16370 1 149.00000 418.400000
14471 9097 15106 1 149.00000 418.400000
12065 9098 16770 1 149.00000 418.400000
14472 9099 16270 1 149.00000 418.400000
14472 9100 16442 1 149.00000 418.400000
14473 9101 16189 1 149.00000 418.400000
14473 9102 14677 1 149.00000 418.400000
15952 9103 20323 1 149.00000 418.400000
15930 9104 20323 1 149.00000 418.400000
14474 9105 15277 1 149.00000 418.400000
14474 9106 16306 1 149.00000 418.400000
14474 9107 14483 1 149.00000 418.400000
14475 9108 16179 1 149.00000 418.400000
14476 9109 16043 1 149.00000 418.400000
14477 9110 14504 1 149.00000 418.400000
16174 9111 20098 1 149.00000 418.400000
14477 9112 15736 1 149.00000 418.400000
14478 9113 16015 1 149.00000 418.400000
14479 9114 15185 1 149.00000 418.400000
14479 9115 15051 1 149.00000 418.400000
14479 9116 15491 1 149.00000 418.400000
14480 9117 16305 1 149.00000 418.400000
14480 9118 15430 1 149.00000 418.400000
14961 9119 15430 1 149.00000 418.400000
14480 9120 16149 1 149.00000 418.400000
14481 9121 16031 1 149.00000 418.400000
14481 9122 15965 1 149.00000 418.400000
14482 9123 16527 1 149.00000 418.400000
14482 9124 15482 1 149.00000 418.400000
14482 9125 16296 1 149.00000 418.400000
15922 9126 16296 1 149.00000 418.400000
14483 9127 16595 1 149.00000 418.400000
12919 9128 14483 1 149.00000 418.400000
14485 9129 14908 1 149.00000 418.400000
13559 9130 14486 1 149.00000 418.400000
14486 9131 14810 1 149.00000 418.400000
14486 9132 15355 1 149.00000 418.400000
14486 9133 16643 1 149.00000 418.400000
12349 9134 16176 1 149.00000 418.400000
14489 9135 16393 1 149.00000 418.400000
14489 9136 15487 1 149.00000 418.400000
14490 9137 14780 1 149.00000 418.400000
14490 9138 14598 1 149.00000 418.400000
16302 9139 20326 1 149.00000 418.400000
14789 9140 20326 1 149.00000 418.400000
14491 9141 16281 1 149.00000 418.400000
14492 9142 14975 1 149.00000 418.400000
20329 9143 20497 1 149.00000 418.400000
14739 9144 20329 1 149.00000 418.400000
14493 9145 15284 1 149.00000 418.400000
15768 9146 16442 1 149.00000 418.400000
14992 9147 15768 1 149.00000 418.400000
14495 9148 15768 1 149.00000 418.400000
14496 9149 16543 1 149.00000 418.400000
14496 9150 15840 1 149.00000 418.400000
14496 9151 14612 1 149.00000 418.400000
14497 9152 15069 1 149.00000 418.400000
14497 9153 15754 1 149.00000 418.400000
14497 9154 15801 1 149.00000 418.400000
14498 9155 16188 1 149.00000 418.400000
14499 9156 15778 1 149.00000 418.400000
14499 9157 16068 1 149.00000 418.400000
14500 9158 15823 1 149.00000 418.400000
12983 9159 14848 1 149.00000 418.400000
14501 9160 16082 1 149.00000 418.400000
14501 9161 15899 1 149.00000 418.400000
14501 9162 15599 1 149.00000 418.400000
14502 9163 14827 1 149.00000 418.400000
14502 9164 20928 1 149.00000 418.400000
14502 9165 16691 1 149.00000 418.400000
14503 9166 16588 1 149.00000 418.400000
14503 9167 15389 1 149.00000 418.400000
15837 9168 20335 1 149.00000 418.400000
14505 9169 15475 1 149.00000 418.400000
14507 9170 15335 1 149.00000 418.400000
14507 9171 16479 1 149.00000 418.400000
12662 9172 17932 1 149.00000 418.400000
14508 9173 15694 1 149.00000 418.400000
12015 9174 16574 1 149.00000 418.400000
15325 9175 15694 1 149.00000 418.400000
14509 9176 15170 1 149.00000 418.400000
14509 9177 16177 1 149.00000 418.400000
14510 9178 14937 1 149.00000 418.400000
14511 9179 15456 1 149.00000 418.400000
15365 9180 20158 1 149.00000 418.400000
14511 9181 16380 1 149.00000 418.400000
14512 9182 16109 1 149.00000 418.400000
14514 9183 20605 1 149.00000 418.400000
14514 9184 14741 1 149.00000 418.400000
14515 9185 16143 1 149.00000 418.400000
14517 9186 16507 1 149.00000 418.400000
14518 9187 14684 1 149.00000 418.400000
14519 9188 15336 1 149.00000 418.400000
17736 9189 20341 1 149.00000 418.400000
15225 9190 20341 1 149.00000 418.400000
20341 9191 20752 1 149.00000 418.400000
14520 9192 14963 1 149.00000 418.400000
16784 9193 17568 1 149.00000 418.400000
12701 9194 16798 1 149.00000 418.400000
14521 9195 16613 1 149.00000 418.400000
14522 9196 16102 1 149.00000 418.400000
14522 9197 15707 1 149.00000 418.400000
14523 9198 15558 1 149.00000 418.400000
14523 9199 16089 1 149.00000 418.400000
14523 9200 16090 1 149.00000 418.400000
14524 9201 15262 1 149.00000 418.400000
14524 9202 20785 1 149.00000 418.400000
14525 9203 16070 1 149.00000 418.400000
14525 9204 15388 1 149.00000 418.400000
14526 9205 16519 1 149.00000 418.400000
14526 9206 14810 1 149.00000 418.400000
14528 9207 16523 1 149.00000 418.400000
14528 9208 16192 1 149.00000 418.400000
14528 9209 15377 1 149.00000 418.400000
14529 9210 20629 1 149.00000 418.400000
14529 9211 16622 1 149.00000 418.400000
14529 9212 15598 1 149.00000 418.400000
14530 9213 14575 1 149.00000 418.400000
14531 9214 15197 1 149.00000 418.400000
14532 9215 15776 1 149.00000 418.400000
14621 9216 15950 1 149.00000 418.400000
14943 9217 16321 1 149.00000 418.400000
14533 9218 14943 1 149.00000 418.400000
14534 9219 14545 1 149.00000 418.400000
14535 9220 15240 1 149.00000 418.400000
14535 9221 16122 1 149.00000 418.400000
14536 9222 15380 1 149.00000 418.400000
14537 9223 14805 1 149.00000 418.400000
14537 9224 14895 1 149.00000 418.400000
14538 9225 15336 1 149.00000 418.400000
14539 9226 15477 1 149.00000 418.400000
14539 9227 14672 1 149.00000 418.400000
12486 9228 14540 1 149.00000 418.400000
14541 9229 15094 1 149.00000 418.400000
14541 9230 14703 1 149.00000 418.400000
14541 9231 16395 1 149.00000 418.400000
14544 9232 15905 1 149.00000 418.400000
14544 9233 15904 1 149.00000 418.400000
14546 9234 15529 1 149.00000 418.400000
14546 9235 14786 1 149.00000 418.400000
14547 9236 15915 1 149.00000 418.400000
14547 9237 14879 1 149.00000 418.400000
14548 9238 16419 1 149.00000 418.400000
14548 9239 14977 1 149.00000 418.400000
14549 9240 15310 1 149.00000 418.400000
14549 9241 14862 1 149.00000 418.400000
14549 9242 16241 1 149.00000 418.400000
14550 9243 16457 1 149.00000 418.400000
14550 9244 14602 1 149.00000 418.400000
14551 9245 15655 1 149.00000 418.400000
14551 9246 14853 1 149.00000 418.400000
14551 9247 20737 1 149.00000 418.400000
14552 9248 15788 1 149.00000 418.400000
14552 9249 14559 1 149.00000 418.400000
14552 9250 14669 1 149.00000 418.400000
14553 9251 14855 1 149.00000 418.400000
14553 9252 15618 1 149.00000 418.400000
14554 9253 16656 1 149.00000 418.400000
16361 9254 20347 1 149.00000 418.400000
14555 9255 15086 1 149.00000 418.400000
14555 9256 14704 1 149.00000 418.400000
14556 9257 16125 1 149.00000 418.400000
14556 9258 15824 1 149.00000 418.400000
14557 9259 15956 1 149.00000 418.400000
14557 9260 14839 1 149.00000 418.400000
14558 9261 14909 1 149.00000 418.400000
14558 9262 15283 1 149.00000 418.400000
16032 9263 16840 1 149.00000 418.400000
15082 9264 16840 1 149.00000 418.400000
14559 9265 16007 1 149.00000 418.400000
14561 9266 15839 1 149.00000 418.400000
14561 9267 15113 1 149.00000 418.400000
14561 9268 16349 1 149.00000 418.400000
14562 9269 15173 1 149.00000 418.400000
14563 9270 20386 1 149.00000 418.400000
15166 9271 20386 1 149.00000 418.400000
14564 9272 15833 1 149.00000 418.400000
14564 9273 15103 1 149.00000 418.400000
14564 9274 16523 1 149.00000 418.400000
14565 9275 15594 1 149.00000 418.400000
14566 9276 20689 1 149.00000 418.400000
14567 9277 15825 1 149.00000 418.400000
14568 9278 16663 1 149.00000 418.400000
14569 9279 16131 1 149.00000 418.400000
14569 9280 14582 1 149.00000 418.400000
14569 9281 16621 1 149.00000 418.400000
14570 9282 14677 1 149.00000 418.400000
12287 9283 15819 1 149.00000 418.400000
20350 9284 20476 1 149.00000 418.400000
14572 9285 16305 1 149.00000 418.400000
15919 9286 20353 1 149.00000 418.400000
14573 9287 15230 1 149.00000 418.400000
14573 9288 14789 1 149.00000 418.400000
14574 9289 15234 1 149.00000 418.400000
14574 9290 15796 1 149.00000 418.400000
14574 9291 16358 1 149.00000 418.400000
14575 9292 15328 1 149.00000 418.400000
14575 9293 16619 1 149.00000 418.400000
14577 9294 16129 1 149.00000 418.400000
14578 9295 16242 1 149.00000 418.400000
14578 9296 15922 1 149.00000 418.400000
14579 9297 16585 1 149.00000 418.400000
14579 9298 14831 1 149.00000 418.400000
14579 9299 14816 1 149.00000 418.400000
14580 9300 15969 1 149.00000 418.400000
14580 9301 15689 1 149.00000 418.400000
14581 9302 16026 1 149.00000 418.400000
14581 9303 15502 1 149.00000 418.400000
12399 9304 14582 1 149.00000 418.400000
14583 9305 15584 1 149.00000 418.400000
14583 9306 15806 1 149.00000 418.400000
14583 9307 14961 1 149.00000 418.400000
14584 9308 15507 1 149.00000 418.400000
14586 9309 16451 1 149.00000 418.400000
14587 9310 14854 1 149.00000 418.400000
14587 9311 15695 1 149.00000 418.400000
14588 9312 15458 1 149.00000 418.400000
14588 9313 16371 1 149.00000 418.400000
14588 9314 15102 1 149.00000 418.400000
14590 9315 15662 1 149.00000 418.400000
14590 9316 15322 1 149.00000 418.400000
14591 9317 16318 1 149.00000 418.400000
14594 9318 14753 1 149.00000 418.400000
14594 9319 16591 1 149.00000 418.400000
14594 9320 14993 1 149.00000 418.400000
14595 9321 15003 1 149.00000 418.400000
14595 9322 16624 1 149.00000 418.400000
14596 9323 15692 1 149.00000 418.400000
14597 9324 15677 1 149.00000 418.400000
14597 9325 15463 1 149.00000 418.400000
14599 9326 15778 1 149.00000 418.400000
14599 9327 15823 1 149.00000 418.400000
14600 9328 15750 1 149.00000 418.400000
12136 9329 12927 1 149.00000 418.400000
14601 9330 15467 1 149.00000 418.400000
14602 9331 15124 1 149.00000 418.400000
14602 9332 16298 1 149.00000 418.400000
14602 9333 15999 1 149.00000 418.400000
14603 9334 15504 1 149.00000 418.400000
13555 9335 14603 1 149.00000 418.400000
14604 9336 15251 1 149.00000 418.400000
14605 9337 15838 1 149.00000 418.400000
14605 9338 15293 1 149.00000 418.400000
14606 9339 16544 1 149.00000 418.400000
14607 9340 15681 1 149.00000 418.400000
14607 9341 16016 1 149.00000 418.400000
14608 9342 16339 1 149.00000 418.400000
14608 9343 15115 1 149.00000 418.400000
14609 9344 20653 1 149.00000 418.400000
14609 9345 16105 1 149.00000 418.400000
14610 9346 15400 1 149.00000 418.400000
14611 9347 15122 1 149.00000 418.400000
17820 9348 20356 1 149.00000 418.400000
14612 9349 15969 1 149.00000 418.400000
14613 9350 14931 1 149.00000 418.400000
14614 9351 14842 1 149.00000 418.400000
12596 9352 14614 1 149.00000 418.400000
14615 9353 16263 1 149.00000 418.400000
14616 9354 16436 1 149.00000 418.400000
14617 9355 15091 1 149.00000 418.400000
14617 9356 15815 1 149.00000 418.400000
14618 9357 15015 1 149.00000 418.400000
14619 9358 15986 1 149.00000 418.400000
14971 9359 15973 1 149.00000 418.400000
14619 9360 14971 1 149.00000 418.400000
14620 9361 15803 1 149.00000 418.400000
14532 9362 15950 1 149.00000 418.400000
14622 9363 16078 1 149.00000 418.400000
14622 9364 14686 1 149.00000 418.400000
14623 9365 15850 1 149.00000 418.400000
14623 9366 15186 1 149.00000 418.400000
14623 9367 16195 1 149.00000 418.400000
14624 9368 16505 1 149.00000 418.400000
14624 9369 16009 1 149.00000 418.400000
14625 9370 14885 1 149.00000 418.400000
14626 9371 15077 1 149.00000 418.400000
14626 9372 16123 1 149.00000 418.400000
14627 9373 16209 1 149.00000 418.400000
14628 9374 15083 1 149.00000 418.400000
16279 9375 16910 1 149.00000 418.400000
14629 9376 16330 1 149.00000 418.400000
14629 9377 15659 1 149.00000 418.400000
14630 9378 15642 1 149.00000 418.400000
14630 9379 14870 1 149.00000 418.400000
14631 9380 15360 1 149.00000 418.400000
14631 9381 16542 1 149.00000 418.400000
14632 9382 16327 1 149.00000 418.400000
14632 9383 14693 1 149.00000 418.400000
14254 9384 14633 1 149.00000 418.400000
14634 9385 16621 1 149.00000 418.400000
14634 9386 14905 1 149.00000 418.400000
14634 9387 16463 1 149.00000 418.400000
16219 9388 20362 1 149.00000 418.400000
14635 9389 15718 1 149.00000 418.400000
14635 9390 14720 1 149.00000 418.400000
14636 9391 15801 1 149.00000 418.400000
14637 9392 14913 1 149.00000 418.400000
14638 9393 14933 1 149.00000 418.400000
11508 9394 14638 1 149.00000 418.400000
14638 9395 20791 1 149.00000 418.400000
14639 9396 16315 1 149.00000 418.400000
14641 9397 15876 1 149.00000 418.400000
14641 9398 15072 1 149.00000 418.400000
14641 9399 16374 1 149.00000 418.400000
14642 9400 14720 1 149.00000 418.400000
14643 9401 14805 1 149.00000 418.400000
14644 9402 20953 1 149.00000 418.400000
14644 9403 14833 1 149.00000 418.400000
14645 9404 15382 1 149.00000 418.400000
16924 9405 20458 1 149.00000 418.400000
14648 9406 15428 1 149.00000 418.400000
14649 9407 15854 1 149.00000 418.400000
14649 9408 16349 1 149.00000 418.400000
14650 9409 16096 1 149.00000 418.400000
14651 9410 15764 1 149.00000 418.400000
14651 9411 16350 1 149.00000 418.400000
14652 9412 14677 1 149.00000 418.400000
14652 9413 15619 1 149.00000 418.400000
14653 9414 15628 1 149.00000 418.400000
14654 9415 15040 1 149.00000 418.400000
14654 9416 15788 1 149.00000 418.400000
14654 9417 15367 1 149.00000 418.400000
14654 9418 16695 1 149.00000 418.400000
14655 9419 14962 1 149.00000 418.400000
14656 9420 16372 1 149.00000 418.400000
13111 9421 14656 1 149.00000 418.400000
14656 9422 15407 1 149.00000 418.400000
14657 9423 14996 1 149.00000 418.400000
14657 9424 20482 1 149.00000 418.400000
14657 9425 15938 1 149.00000 418.400000
14658 9426 14724 1 149.00000 418.400000
14659 9427 15314 1 149.00000 418.400000
14660 9428 14885 1 149.00000 418.400000
14660 9429 16667 1 149.00000 418.400000
15056 9430 16938 1 149.00000 418.400000
14661 9431 16079 1 149.00000 418.400000
14662 9432 14740 1 149.00000 418.400000
14662 9433 15363 1 149.00000 418.400000
14663 9434 16654 1 149.00000 418.400000
14664 9435 16125 1 149.00000 418.400000
14664 9436 16625 1 149.00000 418.400000
14665 9437 14835 1 149.00000 418.400000
14667 9438 15189 1 149.00000 418.400000
14667 9439 16682 1 149.00000 418.400000
14668 9440 15389 1 149.00000 418.400000
14669 9441 20617 1 149.00000 418.400000
14670 9442 15550 1 149.00000 418.400000
14670 9443 16265 1 149.00000 418.400000
14671 9444 16199 1 149.00000 418.400000
14672 9445 15018 1 149.00000 418.400000
14672 9446 15618 1 149.00000 418.400000
14672 9447 15014 1 149.00000 418.400000
14673 9448 15911 1 149.00000 418.400000
14673 9449 15082 1 149.00000 418.400000
14673 9450 16262 1 149.00000 418.400000
14674 9451 16555 1 149.00000 418.400000
14126 9452 14698 1 149.00000 418.400000
14675 9453 15654 1 149.00000 418.400000
14675 9454 14785 1 149.00000 418.400000
14676 9455 15372 1 149.00000 418.400000
16572 9456 17498 1 149.00000 418.400000
14677 9457 15271 1 149.00000 418.400000
14678 9458 14809 1 149.00000 418.400000
14679 9459 15702 1 149.00000 418.400000
14679 9460 20491 1 149.00000 418.400000
14680 9461 16384 1 149.00000 418.400000
14680 9462 16173 1 149.00000 418.400000
14680 9463 15210 1 149.00000 418.400000
15089 9464 16952 1 149.00000 418.400000
12987 9465 14943 1 149.00000 418.400000
14681 9466 15154 1 149.00000 418.400000
14682 9467 15883 1 149.00000 418.400000
14682 9468 15022 1 149.00000 418.400000
12722 9469 14683 1 149.00000 418.400000
14683 9470 16229 1 149.00000 418.400000
14683 9471 15930 1 149.00000 418.400000
14685 9472 15876 1 149.00000 418.400000
14686 9473 14800 1 149.00000 418.400000
14686 9474 16394 1 149.00000 418.400000
14687 9475 16680 1 149.00000 418.400000
14687 9476 15269 1 149.00000 418.400000
14687 9477 15214 1 149.00000 418.400000
14688 9478 16197 1 149.00000 418.400000
14689 9479 20371 1 149.00000 418.400000
14689 9480 16073 1 149.00000 418.400000
14690 9481 15023 1 149.00000 418.400000
14691 9482 15614 1 149.00000 418.400000
14692 9483 15580 1 149.00000 418.400000
14693 9484 16619 1 149.00000 418.400000
14632 9485 14956 1 149.00000 418.400000
12535 9486 15415 1 149.00000 418.400000
14694 9487 14743 1 149.00000 418.400000
14695 9488 16534 1 149.00000 418.400000
14695 9489 15331 1 149.00000 418.400000
14696 9490 15149 1 149.00000 418.400000
14696 9491 14955 1 149.00000 418.400000
15173 9492 16980 1 149.00000 418.400000
14697 9493 15818 1 149.00000 418.400000
14698 9494 14825 1 149.00000 418.400000
14699 9495 15505 1 149.00000 418.400000
14700 9496 15090 1 149.00000 418.400000
14701 9497 15749 1 149.00000 418.400000
14701 9498 15211 1 149.00000 418.400000
14702 9499 15706 1 149.00000 418.400000
16136 9500 16994 1 149.00000 418.400000
14704 9501 14720 1 149.00000 418.400000
14704 9502 15175 1 149.00000 418.400000
14706 9503 16559 1 149.00000 418.400000
14707 9504 15703 1 149.00000 418.400000
16373 9505 20704 1 149.00000 418.400000
20365 9506 20704 1 149.00000 418.400000
14708 9507 15799 1 149.00000 418.400000
13673 9508 14708 1 149.00000 418.400000
14709 9509 15296 1 149.00000 418.400000
12692 9510 15832 1 149.00000 418.400000
14710 9511 14771 1 149.00000 418.400000
14710 9512 15718 1 149.00000 418.400000
14712 9513 14744 1 149.00000 418.400000
14712 9514 15244 1 149.00000 418.400000
14712 9515 15159 1 149.00000 418.400000
14712 9516 16619 1 149.00000 418.400000
12222 9517 15818 1 149.00000 418.400000
14714 9518 15965 1 149.00000 418.400000
14715 9519 14863 1 149.00000 418.400000
15300 9520 20368 1 149.00000 418.400000
14716 9521 14798 1 149.00000 418.400000
14717 9522 16692 1 149.00000 418.400000
14718 9523 16547 1 149.00000 418.400000
14718 9524 16490 1 149.00000 418.400000
14719 9525 15970 1 149.00000 418.400000
15432 9526 20371 1 149.00000 418.400000
14721 9527 15743 1 149.00000 418.400000
14721 9528 15976 1 149.00000 418.400000
14722 9529 14794 1 149.00000 418.400000
14722 9530 14870 1 149.00000 418.400000
14722 9531 15784 1 149.00000 418.400000
15400 9532 15900 1 149.00000 418.400000
14723 9533 15400 1 149.00000 418.400000
14723 9534 16643 1 149.00000 418.400000
14724 9535 15194 1 149.00000 418.400000
14725 9536 16171 1 149.00000 418.400000
14725 9537 15632 1 149.00000 418.400000
14726 9538 14908 1 149.00000 418.400000
14726 9539 16526 1 149.00000 418.400000
14727 9540 14854 1 149.00000 418.400000
14728 9541 20812 1 149.00000 418.400000
14728 9542 17218 1 149.00000 418.400000
14728 9543 16144 1 149.00000 418.400000
14728 9544 15136 1 149.00000 418.400000
14729 9545 15429 1 149.00000 418.400000
14730 9546 16522 1 149.00000 418.400000
15167 9547 17008 1 149.00000 418.400000
14850 9548 17008 1 149.00000 418.400000
20134 9549 20662 1 149.00000 418.400000
14732 9550 15446 1 149.00000 418.400000
14732 9551 15513 1 149.00000 418.400000
14733 9552 16247 1 149.00000 418.400000
14733 9553 16170 1 149.00000 418.400000
14733 9554 15256 1 149.00000 418.400000
14734 9555 15760 1 149.00000 418.400000
14735 9556 14814 1 149.00000 418.400000
14735 9557 20410 1 149.00000 418.400000
17526 9558 19618 1 149.00000 418.400000
14736 9559 15203 1 149.00000 418.400000
14736 9560 15857 1 149.00000 418.400000
14737 9561 20878 1 149.00000 418.400000
14737 9562 20548 1 149.00000 418.400000
15094 9563 17036 1 149.00000 418.400000
14738 9564 15106 1 149.00000 418.400000
14739 9565 16498 1 149.00000 418.400000
14739 9566 16316 1 149.00000 418.400000
14662 9567 15626 1 149.00000 418.400000
14073 9568 17050 1 149.00000 418.400000
14741 9569 15692 1 149.00000 418.400000
14741 9570 15231 1 149.00000 418.400000
14742 9571 15194 1 149.00000 418.400000
14744 9572 15329 1 149.00000 418.400000
14745 9573 16065 1 149.00000 418.400000
14746 9574 20608 1 149.00000 418.400000
14746 9575 20569 1 149.00000 418.400000
14747 9576 20821 1 149.00000 418.400000
14747 9577 16596 1 149.00000 418.400000
14748 9578 20827 1 149.00000 418.400000
14749 9579 15250 1 149.00000 418.400000
14750 9580 16641 1 149.00000 418.400000
14751 9581 20632 1 149.00000 418.400000
14751 9582 15939 1 149.00000 418.400000
14751 9583 20883 1 149.00000 418.400000
14754 9584 16427 1 149.00000 418.400000
14754 9585 15927 1 149.00000 418.400000
14755 9586 16467 1 149.00000 418.400000
14756 9587 16201 1 149.00000 418.400000
14757 9588 16388 1 149.00000 418.400000
14757 9589 16387 1 149.00000 418.400000
14757 9590 15602 1 149.00000 418.400000
14759 9591 15081 1 149.00000 418.400000
14759 9592 15136 1 149.00000 418.400000
14760 9593 15939 1 149.00000 418.400000
14760 9594 15806 1 149.00000 418.400000
14761 9595 16089 1 149.00000 418.400000
14761 9596 14838 1 149.00000 418.400000
15385 9597 16089 1 149.00000 418.400000
14762 9598 14860 1 149.00000 418.400000
14762 9599 16203 1 149.00000 418.400000
14763 9600 15943 1 149.00000 418.400000
14997 9601 20374 1 149.00000 418.400000
15437 9602 20374 1 149.00000 418.400000
14764 9603 15129 1 149.00000 418.400000
14765 9604 16154 1 149.00000 418.400000
14765 9605 14908 1 149.00000 418.400000
14766 9606 15919 1 149.00000 418.400000
14767 9607 15727 1 149.00000 418.400000
14767 9608 15998 1 149.00000 418.400000
14768 9609 16255 1 149.00000 418.400000
16255 9610 16277 1 149.00000 418.400000
16161 9611 16255 1 149.00000 418.400000
14769 9612 16337 1 149.00000 418.400000
14769 9613 15755 1 149.00000 418.400000
14770 9614 15451 1 149.00000 418.400000
14770 9615 15783 1 149.00000 418.400000
14772 9616 15767 1 149.00000 418.400000
14772 9617 16556 1 149.00000 418.400000
14773 9618 15946 1 149.00000 418.400000
14774 9619 15471 1 149.00000 418.400000
14775 9620 16589 1 149.00000 418.400000
15167 9621 19042 1 149.00000 418.400000
17078 9622 17554 1 149.00000 418.400000
14779 9623 16310 1 149.00000 418.400000
14779 9624 16292 1 149.00000 418.400000
14779 9625 16110 1 149.00000 418.400000
14781 9626 16341 1 149.00000 418.400000
14781 9627 15534 1 149.00000 418.400000
14781 9628 15566 1 149.00000 418.400000
14781 9629 14864 1 149.00000 418.400000
14782 9630 16254 1 149.00000 418.400000
14782 9631 15085 1 149.00000 418.400000
14783 9632 15824 1 149.00000 418.400000
15644 9633 15824 1 149.00000 418.400000
14783 9634 16625 1 149.00000 418.400000
14784 9635 15161 1 149.00000 418.400000
14784 9636 15233 1 149.00000 418.400000
14785 9637 15811 1 149.00000 418.400000
14786 9638 16541 1 149.00000 418.400000
14786 9639 16626 1 149.00000 418.400000
14787 9640 15332 1 149.00000 418.400000
14788 9641 15084 1 149.00000 418.400000
14789 9642 20569 1 149.00000 418.400000
14789 9643 17330 1 149.00000 418.400000
16443 9644 17092 1 149.00000 418.400000
17092 9645 20770 1 149.00000 418.400000
14790 9646 16133 1 149.00000 418.400000
14790 9647 15974 1 149.00000 418.400000
17386 9648 20380 1 149.00000 418.400000
14792 9649 15886 1 149.00000 418.400000
14792 9650 16136 1 149.00000 418.400000
14792 9651 16324 1 149.00000 418.400000
14793 9652 15752 1 149.00000 418.400000
15411 9653 20383 1 149.00000 418.400000
16023 9654 20389 1 149.00000 418.400000
15678 9655 15871 1 149.00000 418.400000
14796 9656 15871 1 149.00000 418.400000
14797 9657 15459 1 149.00000 418.400000
14798 9658 15706 1 149.00000 418.400000
14798 9659 15393 1 149.00000 418.400000
14798 9660 16332 1 149.00000 418.400000
14799 9661 15985 1 149.00000 418.400000
14799 9662 15213 1 149.00000 418.400000
14799 9663 14883 1 149.00000 418.400000
14800 9664 16180 1 149.00000 418.400000
14801 9665 20413 1 149.00000 418.400000
14801 9666 15174 1 149.00000 418.400000
14802 9667 16101 1 149.00000 418.400000
14802 9668 20779 1 149.00000 418.400000
14802 9669 14954 1 149.00000 418.400000
14802 9670 15780 1 149.00000 418.400000
14803 9671 14998 1 149.00000 418.400000
20299 9672 20392 1 149.00000 418.400000
16497 9673 20395 1 149.00000 418.400000
14804 9674 15089 1 149.00000 418.400000
14805 9675 16120 1 149.00000 418.400000
14806 9676 14945 1 149.00000 418.400000
14807 9677 15593 1 149.00000 418.400000
14807 9678 20533 1 149.00000 418.400000
14807 9679 20596 1 149.00000 418.400000
14808 9680 16528 1 149.00000 418.400000
14808 9681 15189 1 149.00000 418.400000
14808 9682 15318 1 149.00000 418.400000
14809 9683 16587 1 149.00000 418.400000
14810 9684 15193 1 149.00000 418.400000
14811 9685 15857 1 149.00000 418.400000
14811 9686 15606 1 149.00000 418.400000
15864 9687 16620 1 149.00000 418.400000
14812 9688 16620 1 149.00000 418.400000
14813 9689 16317 1 149.00000 418.400000
15906 9690 20398 1 149.00000 418.400000
14814 9691 20913 1 149.00000 418.400000
14815 9692 16267 1 149.00000 418.400000
14816 9693 16606 1 149.00000 418.400000
14817 9694 15026 1 149.00000 418.400000
14817 9695 15609 1 149.00000 418.400000
14818 9696 16585 1 149.00000 418.400000
14818 9697 15762 1 149.00000 418.400000
14819 9698 15213 1 149.00000 418.400000
14820 9699 15697 1 149.00000 418.400000
14820 9700 16324 1 149.00000 418.400000
14820 9701 20773 1 149.00000 418.400000
14821 9702 14839 1 149.00000 418.400000
14821 9703 15497 1 149.00000 418.400000
14821 9704 16074 1 149.00000 418.400000
14822 9705 16111 1 149.00000 418.400000
14822 9706 15994 1 149.00000 418.400000
14982 9707 16111 1 149.00000 418.400000
14823 9708 16013 1 149.00000 418.400000
11779 9709 14824 1 149.00000 418.400000
14825 9710 15820 1 149.00000 418.400000
14825 9711 15764 1 149.00000 418.400000
14826 9712 15212 1 149.00000 418.400000
14826 9713 15373 1 149.00000 418.400000
14827 9714 16042 1 149.00000 418.400000
14827 9715 15786 1 149.00000 418.400000
14828 9716 16667 1 149.00000 418.400000
14828 9717 15067 1 149.00000 418.400000
14829 9718 14835 1 149.00000 418.400000
14830 9719 15907 1 149.00000 418.400000
14830 9720 15369 1 149.00000 418.400000
14830 9721 15011 1 149.00000 418.400000
14832 9722 15325 1 149.00000 418.400000
14832 9723 16048 1 149.00000 418.400000
14834 9724 15919 1 149.00000 418.400000
14835 9725 15081 1 149.00000 418.400000
14836 9726 16125 1 149.00000 418.400000
11952 9727 20404 1 149.00000 418.400000
14837 9728 15820 1 149.00000 418.400000
15441 9729 15722 1 149.00000 418.400000
14838 9730 15722 1 149.00000 418.400000
14840 9731 15791 1 149.00000 418.400000
14841 9732 20620 1 149.00000 418.400000
14841 9733 16164 1 149.00000 418.400000
14841 9734 20686 1 149.00000 418.400000
14841 9735 16514 1 149.00000 418.400000
14842 9736 15114 1 149.00000 418.400000
14842 9737 15557 1 149.00000 418.400000
14842 9738 15603 1 149.00000 418.400000
14843 9739 15725 1 149.00000 418.400000
13086 9740 15955 1 149.00000 418.400000
14845 9741 15657 1 149.00000 418.400000
14846 9742 15476 1 149.00000 418.400000
14846 9743 15961 1 149.00000 418.400000
14847 9744 20737 1 149.00000 418.400000
14847 9745 16252 1 149.00000 418.400000
14848 9746 15705 1 149.00000 418.400000
14848 9747 15880 1 149.00000 418.400000
14849 9748 16600 1 149.00000 418.400000
14850 9749 16607 1 149.00000 418.400000
14850 9750 14958 1 149.00000 418.400000
14851 9751 20596 1 149.00000 418.400000
14851 9752 15737 1 149.00000 418.400000
14851 9753 15501 1 149.00000 418.400000
14852 9754 15223 1 149.00000 418.400000
14853 9755 14868 1 149.00000 418.400000
14853 9756 16206 1 149.00000 418.400000
14857 9757 15268 1 149.00000 418.400000
14857 9758 15139 1 149.00000 418.400000
14974 9759 15574 1 149.00000 418.400000
14859 9760 14974 1 149.00000 418.400000
14860 9761 14880 1 149.00000 418.400000
14861 9762 16493 1 149.00000 418.400000
14861 9763 15431 1 149.00000 418.400000
14887 9764 17134 1 149.00000 418.400000
17134 9765 17610 1 149.00000 418.400000
14862 9766 20626 1 149.00000 418.400000
14863 9767 15320 1 149.00000 418.400000
14863 9768 20563 1 149.00000 418.400000
14864 9769 14940 1 149.00000 418.400000
14864 9770 15655 1 149.00000 418.400000
14865 9771 16638 1 149.00000 418.400000
14865 9772 15941 1 149.00000 418.400000
14867 9773 15592 1 149.00000 418.400000
14868 9774 16046 1 149.00000 418.400000
14869 9775 15929 1 149.00000 418.400000
14870 9776 16591 1 149.00000 418.400000
14630 9777 15356 1 149.00000 418.400000
14871 9778 16094 1 149.00000 418.400000
14871 9779 15628 1 149.00000 418.400000
14872 9780 16334 1 149.00000 418.400000
14873 9781 16157 1 149.00000 418.400000
14873 9782 16476 1 149.00000 418.400000
14874 9783 16482 1 149.00000 418.400000
14874 9784 15013 1 149.00000 418.400000
14874 9785 15679 1 149.00000 418.400000
14875 9786 16122 1 149.00000 418.400000
14876 9787 14939 1 149.00000 418.400000
13342 9788 14876 1 149.00000 418.400000
14877 9789 15934 1 149.00000 418.400000
14878 9790 16343 1 149.00000 418.400000
14878 9791 15570 1 149.00000 418.400000
14878 9792 15058 1 149.00000 418.400000
14880 9793 16688 1 149.00000 418.400000
14881 9794 16147 1 149.00000 418.400000
14881 9795 15819 1 149.00000 418.400000
14882 9796 15215 1 149.00000 418.400000
11475 9797 14882 1 149.00000 418.400000
14884 9798 15419 1 149.00000 418.400000
14884 9799 15658 1 149.00000 418.400000
14886 9800 15163 1 149.00000 418.400000
14886 9801 15640 1 149.00000 418.400000
14887 9802 15265 1 149.00000 418.400000
14887 9803 20554 1 149.00000 418.400000
14889 9804 15769 1 149.00000 418.400000
14891 9805 15030 1 149.00000 418.400000
16665 9806 20413 1 149.00000 418.400000
14893 9807 20860 1 149.00000 418.400000
16404 9808 20416 1 149.00000 418.400000
14894 9809 14973 1 149.00000 418.400000
14894 9810 15595 1 149.00000 418.400000
14895 9811 14935 1 149.00000 418.400000
14895 9812 16602 1 149.00000 418.400000
14896 9813 14904 1 149.00000 418.400000
14896 9814 16522 1 149.00000 418.400000
14896 9815 15828 1 149.00000 418.400000
14897 9816 15020 1 149.00000 418.400000
13651 9817 14898 1 149.00000 418.400000
14898 9818 16297 1 149.00000 418.400000
14899 9819 15934 1 149.00000 418.400000
14899 9820 16093 1 149.00000 418.400000
14901 9821 15280 1 149.00000 418.400000
14902 9822 15041 1 149.00000 418.400000
14902 9823 20482 1 149.00000 418.400000
15192 9824 20419 1 149.00000 418.400000
16356 9825 17162 1 149.00000 418.400000
14904 9826 16323 1 149.00000 418.400000
14905 9827 16008 1 149.00000 418.400000
14905 9828 15437 1 149.00000 418.400000
14906 9829 15978 1 149.00000 418.400000
14906 9830 15266 1 149.00000 418.400000
14907 9831 16389 1 149.00000 418.400000
14907 9832 16005 1 149.00000 418.400000
14907 9833 16508 1 149.00000 418.400000
14908 9834 15785 1 149.00000 418.400000
14909 9835 20818 1 149.00000 418.400000
14910 9836 15072 1 149.00000 418.400000
13933 9837 14910 1 149.00000 418.400000
14910 9838 15429 1 149.00000 418.400000
13109 9839 14912 1 149.00000 418.400000
14912 9840 15521 1 149.00000 418.400000
14913 9841 15272 1 149.00000 418.400000
14913 9842 14991 1 149.00000 418.400000
14915 9843 15082 1 149.00000 418.400000
14915 9844 20863 1 149.00000 418.400000
14917 9845 16490 1 149.00000 418.400000
11682 9846 14917 1 149.00000 418.400000
11489 9847 14917 1 149.00000 418.400000
14918 9848 15206 1 149.00000 418.400000
14919 9849 15695 1 149.00000 418.400000
14919 9850 16568 1 149.00000 418.400000
14920 9851 15993 1 149.00000 418.400000
17890 9852 20425 1 149.00000 418.400000
16593 9853 20425 1 149.00000 418.400000
14921 9854 16654 1 149.00000 418.400000
14923 9855 16065 1 149.00000 418.400000
14923 9856 15028 1 149.00000 418.400000
14924 9857 16355 1 149.00000 418.400000
14925 9858 14972 1 149.00000 418.400000
14925 9859 18030 1 149.00000 418.400000
14926 9860 15789 1 149.00000 418.400000
14926 9861 15602 1 149.00000 418.400000
14927 9862 16294 1 149.00000 418.400000
14927 9863 16298 1 149.00000 418.400000
14928 9864 15093 1 149.00000 418.400000
14929 9865 15154 1 149.00000 418.400000
14929 9866 15846 1 149.00000 418.400000
14930 9867 15588 1 149.00000 418.400000
14930 9868 16546 1 149.00000 418.400000
14930 9869 15706 1 149.00000 418.400000
14931 9870 15120 1 149.00000 418.400000
14932 9871 16090 1 149.00000 418.400000
14932 9872 16257 1 149.00000 418.400000
14933 9873 15512 1 149.00000 418.400000
14933 9874 15091 1 149.00000 418.400000
14934 9875 16549 1 149.00000 418.400000
14934 9876 15875 1 149.00000 418.400000
14935 9877 20988 1 149.00000 418.400000
14935 9878 15615 1 149.00000 418.400000
14936 9879 15641 1 149.00000 418.400000
14937 9880 16575 1 149.00000 418.400000
14937 9881 15656 1 149.00000 418.400000
14938 9882 15685 1 149.00000 418.400000
14938 9883 15590 1 149.00000 418.400000
14939 9884 15088 1 149.00000 418.400000
14942 9885 16655 1 149.00000 418.400000
14945 9886 16652 1 149.00000 418.400000
13147 9887 15493 1 149.00000 418.400000
14947 9888 16224 1 149.00000 418.400000
13147 9889 14947 1 149.00000 418.400000
14948 9890 16317 1 149.00000 418.400000
14948 9891 16461 1 149.00000 418.400000
12950 9892 14948 1 149.00000 418.400000
14949 9893 15205 1 149.00000 418.400000
14949 9894 16090 1 149.00000 418.400000
14950 9895 16405 1 149.00000 418.400000
14951 9896 15331 1 149.00000 418.400000
14952 9897 16653 1 149.00000 418.400000
14952 9898 15441 1 149.00000 418.400000
14953 9899 17904 1 149.00000 418.400000
14955 9900 15528 1 149.00000 418.400000
14955 9901 15986 1 149.00000 418.400000
14955 9902 14977 1 149.00000 418.400000
20437 9903 20830 1 149.00000 418.400000
20437 9904 20521 1 149.00000 418.400000
15902 9905 20437 1 149.00000 418.400000
14956 9906 15369 1 149.00000 418.400000
14956 9907 16287 1 149.00000 418.400000
14957 9908 15425 1 149.00000 418.400000
14957 9909 15541 1 149.00000 418.400000
14958 9910 15252 1 149.00000 418.400000
14959 9911 15910 1 149.00000 418.400000
14960 9912 16469 1 149.00000 418.400000
14961 9913 16138 1 149.00000 418.400000
14964 9914 15807 1 149.00000 418.400000
14964 9915 15157 1 149.00000 418.400000
14965 9916 15146 1 149.00000 418.400000
14966 9917 16321 1 149.00000 418.400000
14966 9918 15186 1 149.00000 418.400000
14967 9919 15496 1 149.00000 418.400000
14967 9920 16101 1 149.00000 418.400000
14968 9921 16103 1 149.00000 418.400000
14328 9922 14969 1 149.00000 418.400000
12980 9923 16656 1 149.00000 418.400000
14970 9924 16559 1 149.00000 418.400000
14970 9925 15202 1 149.00000 418.400000
14971 9926 15615 1 149.00000 418.400000
14972 9927 20701 1 149.00000 418.400000
14973 9928 16236 1 149.00000 418.400000
14975 9929 15589 1 149.00000 418.400000
16157 9930 20443 1 149.00000 418.400000
14976 9931 16345 1 149.00000 418.400000
14976 9932 15631 1 149.00000 418.400000
16223 9933 20446 1 149.00000 418.400000
14977 9934 15288 1 149.00000 418.400000
14978 9935 15028 1 149.00000 418.400000
14979 9936 15748 1 149.00000 418.400000
14979 9937 15649 1 149.00000 418.400000
13648 9938 14980 1 149.00000 418.400000
12492 9939 14981 1 149.00000 418.400000
14259 9940 15291 1 149.00000 418.400000
14982 9941 16271 1 149.00000 418.400000
14982 9942 15069 1 149.00000 418.400000
14984 9943 15283 1 149.00000 418.400000
14985 9944 15760 1 149.00000 418.400000
14986 9945 16106 1 149.00000 418.400000
14986 9946 15420 1 149.00000 418.400000
14987 9947 15970 1 149.00000 418.400000
14987 9948 15445 1 149.00000 418.400000
15743 9949 20449 1 149.00000 418.400000
20449 9950 20722 1 149.00000 418.400000
14988 9951 15853 1 149.00000 418.400000
14988 9952 15758 1 149.00000 418.400000
14988 9953 15742 1 149.00000 418.400000
14988 9954 15844 1 149.00000 418.400000
11653 9955 15594 1 149.00000 418.400000
14991 9956 15075 1 149.00000 418.400000
14992 9957 15947 1 149.00000 418.400000
14993 9958 15914 1 149.00000 418.400000
14994 9959 16354 1 149.00000 418.400000
14994 9960 16442 1 149.00000 418.400000
14995 9961 15808 1 149.00000 418.400000
14996 9962 16336 1 149.00000 418.400000
14996 9963 15041 1 149.00000 418.400000
14997 9964 15708 1 149.00000 418.400000
20452 9965 20455 1 149.00000 418.400000
16410 9966 20452 1 149.00000 418.400000
14998 9967 15219 1 149.00000 418.400000
14999 9968 15294 1 149.00000 418.400000
14768 9969 14999 1 149.00000 418.400000
15000 9970 15531 1 149.00000 418.400000
15002 9971 20869 1 149.00000 418.400000
15002 9972 15292 1 149.00000 418.400000
15003 9973 15797 1 149.00000 418.400000
13880 9974 15004 1 149.00000 418.400000
15004 9975 15332 1 149.00000 418.400000
15005 9976 16021 1 149.00000 418.400000
15006 9977 15875 1 149.00000 418.400000
11760 9978 16431 1 149.00000 418.400000
13804 9979 15008 1 149.00000 418.400000
15008 9980 15178 1 149.00000 418.400000
13378 9981 15112 1 149.00000 418.400000
15010 9982 16344 1 149.00000 418.400000
15011 9983 15458 1 149.00000 418.400000
15012 9984 15799 1 149.00000 418.400000
15012 9985 15997 1 149.00000 418.400000
15013 9986 16628 1 149.00000 418.400000
15015 9987 15741 1 149.00000 418.400000
15016 9988 15471 1 149.00000 418.400000
15016 9989 15959 1 149.00000 418.400000
17232 9990 20671 1 149.00000 418.400000
15017 9991 17666 1 149.00000 418.400000
15017 9992 20689 1 149.00000 418.400000
15753 9993 20458 1 149.00000 418.400000
15569 9994 15916 1 149.00000 418.400000
15916 9995 20458 1 149.00000 418.400000
15018 9996 16115 1 149.00000 418.400000
15021 9997 15666 1 149.00000 418.400000
15021 9998 16028 1 149.00000 418.400000
12893 9999 15022 1 149.00000 418.400000
15022 10000 15109 1 149.00000 418.400000
15022 10001 15954 1 149.00000 418.400000
15024 10002 15605 1 149.00000 418.400000
15024 10003 15716 1 149.00000 418.400000
15024 10004 20827 1 149.00000 418.400000
15025 10005 16323 1 149.00000 418.400000
15025 10006 15450 1 149.00000 418.400000
15026 10007 16564 1 149.00000 418.400000
15027 10008 15551 1 149.00000 418.400000
15028 10009 15499 1 149.00000 418.400000
15029 10010 15117 1 149.00000 418.400000
15029 10011 16584 1 149.00000 418.400000
20461 10012 20494 1 149.00000 418.400000
15031 10013 16022 1 149.00000 418.400000
15031 10014 15586 1 149.00000 418.400000
15032 10015 15343 1 149.00000 418.400000
15033 10016 16123 1 149.00000 418.400000
15033 10017 16329 1 149.00000 418.400000
15034 10018 16106 1 149.00000 418.400000
15034 10019 15613 1 149.00000 418.400000
15034 10020 16054 1 149.00000 418.400000
15130 10021 20464 1 149.00000 418.400000
13296 10022 15035 1 149.00000 418.400000
15035 10023 16431 1 149.00000 418.400000
13296 10024 16583 1 149.00000 418.400000
15036 10025 15975 1 149.00000 418.400000
15037 10026 16348 1 149.00000 418.400000
15038 10027 15333 1 149.00000 418.400000
14127 10028 15038 1 149.00000 418.400000
15040 10029 15616 1 149.00000 418.400000
15042 10030 16285 1 149.00000 418.400000
15043 10031 15252 1 149.00000 418.400000
15482 10032 19993 1 149.00000 418.400000
15044 10033 17624 1 149.00000 418.400000
20467 10034 20551 1 149.00000 418.400000
15584 10035 20467 1 149.00000 418.400000
20467 10036 20869 1 149.00000 418.400000
15048 10037 16671 1 149.00000 418.400000
12629 10038 15048 1 149.00000 418.400000
15049 10039 16532 1 149.00000 418.400000
15050 10040 15236 1 149.00000 418.400000
15051 10041 16283 1 149.00000 418.400000
15052 10042 15972 1 149.00000 418.400000
15052 10043 16432 1 149.00000 418.400000
15054 10044 16476 1 149.00000 418.400000
15054 10045 15999 1 149.00000 418.400000
15055 10046 20767 1 149.00000 418.400000
15055 10047 20788 1 149.00000 418.400000
15056 10048 20518 1 149.00000 418.400000
15057 10049 20734 1 149.00000 418.400000
15057 10050 15700 1 149.00000 418.400000
15058 10051 15467 1 149.00000 418.400000
13196 10052 16602 1 149.00000 418.400000
15060 10053 21003 1 149.00000 418.400000
15061 10054 15227 1 149.00000 418.400000
13180 10055 15167 1 149.00000 418.400000
15063 10056 16613 1 149.00000 418.400000
15064 10057 16346 1 149.00000 418.400000
15064 10058 16011 1 149.00000 418.400000
15066 10059 16677 1 149.00000 418.400000
15066 10060 15891 1 149.00000 418.400000
15066 10061 16190 1 149.00000 418.400000
15599 10062 16518 1 149.00000 418.400000
14008 10063 17960 1 149.00000 418.400000
15068 10064 16207 1 149.00000 418.400000
15070 10065 16465 1 149.00000 418.400000
15070 10066 15856 1 149.00000 418.400000
15071 10067 16107 1 149.00000 418.400000
15530 10068 20470 1 149.00000 418.400000
12257 10069 20470 1 149.00000 418.400000
15075 10070 16232 1 149.00000 418.400000
15076 10071 15159 1 149.00000 418.400000
15077 10072 15413 1 149.00000 418.400000
15077 10073 16280 1 149.00000 418.400000
15078 10074 16030 1 149.00000 418.400000
13087 10075 16416 1 149.00000 418.400000
15079 10076 15556 1 149.00000 418.400000
15080 10077 16430 1 149.00000 418.400000
15080 10078 16480 1 149.00000 418.400000
15080 10079 16513 1 149.00000 418.400000
19951 10080 20695 1 149.00000 418.400000
15592 10081 20473 1 149.00000 418.400000
14628 10082 17722 1 149.00000 418.400000
17274 10083 20860 1 149.00000 418.400000
12976 10084 16010 1 149.00000 418.400000
16231 10085 20476 1 149.00000 418.400000
15299 10086 20476 1 149.00000 418.400000
15085 10087 20851 1 149.00000 418.400000
15086 10088 15223 1 149.00000 418.400000
15087 10089 15904 1 149.00000 418.400000
15088 10090 15326 1 149.00000 418.400000
15090 10091 16172 1 149.00000 418.400000
11735 10092 15090 1 149.00000 418.400000
15091 10093 16579 1 149.00000 418.400000
15091 10094 15131 1 149.00000 418.400000
15092 10095 16291 1 149.00000 418.400000
15092 10096 16318 1 149.00000 418.400000
15093 10097 15306 1 149.00000 418.400000
15098 10098 16418 1 149.00000 418.400000
15098 10099 15754 1 149.00000 418.400000
15098 10100 15801 1 149.00000 418.400000
15099 10101 16586 1 149.00000 418.400000
15100 10102 16542 1 149.00000 418.400000
15100 10103 16502 1 149.00000 418.400000
20479 10104 20536 1 149.00000 418.400000
15790 10105 18910 1 149.00000 418.400000
15103 10106 16566 1 149.00000 418.400000
15104 10107 16539 1 149.00000 418.400000
15105 10108 15726 1 149.00000 418.400000
15105 10109 16106 1 149.00000 418.400000
15106 10110 15125 1 149.00000 418.400000
15106 10111 15704 1 149.00000 418.400000
15107 10112 15209 1 149.00000 418.400000
15107 10113 16042 1 149.00000 418.400000
15108 10114 15127 1 149.00000 418.400000
15109 10115 16574 1 149.00000 418.400000
15109 10116 15162 1 149.00000 418.400000
15110 10117 16428 1 149.00000 418.400000
15110 10118 15126 1 149.00000 418.400000
14099 10119 16251 1 149.00000 418.400000
15112 10120 15155 1 149.00000 418.400000
15561 10121 20485 1 149.00000 418.400000
15114 10122 15677 1 149.00000 418.400000
15115 10123 15620 1 149.00000 418.400000
20488 10124 20918 1 149.00000 418.400000
15117 10125 15364 1 149.00000 418.400000
15117 10126 15681 1 149.00000 418.400000
15118 10127 16495 1 149.00000 418.400000
15119 10128 16050 1 149.00000 418.400000
15121 10129 15162 1 149.00000 418.400000
15121 10130 16048 1 149.00000 418.400000
15122 10131 15564 1 149.00000 418.400000
15123 10132 15682 1 149.00000 418.400000
15123 10133 15261 1 149.00000 418.400000
14229 10134 15123 1 149.00000 418.400000
15123 10135 15277 1 149.00000 418.400000
15124 10136 16146 1 149.00000 418.400000
15125 10137 15249 1 149.00000 418.400000
15126 10138 15940 1 149.00000 418.400000
15128 10139 15556 1 149.00000 418.400000
15129 10140 17750 1 149.00000 418.400000
15132 10141 16028 1 149.00000 418.400000
15133 10142 15560 1 149.00000 418.400000
16196 10143 17316 1 149.00000 418.400000
15134 10144 16186 1 149.00000 418.400000
15135 10145 15863 1 149.00000 418.400000
15135 10146 20713 1 149.00000 418.400000
15135 10147 15553 1 149.00000 418.400000
20491 10148 20875 1 149.00000 418.400000
20491 10149 20554 1 149.00000 418.400000
15438 10150 15947 1 149.00000 418.400000
15137 10151 15947 1 149.00000 418.400000
15138 10152 16645 1 149.00000 418.400000
15140 10153 15349 1 149.00000 418.400000
15140 10154 15706 1 149.00000 418.400000
15141 10155 15612 1 149.00000 418.400000
12853 10156 16554 1 149.00000 418.400000
15142 10157 16667 1 149.00000 418.400000
15143 10158 20830 1 149.00000 418.400000
15144 10159 15299 1 149.00000 418.400000
15145 10160 16287 1 149.00000 418.400000
15147 10161 15799 1 149.00000 418.400000
15147 10162 15286 1 149.00000 418.400000
15148 10163 16154 1 149.00000 418.400000
15148 10164 15313 1 149.00000 418.400000
20494 10165 20888 1 149.00000 418.400000
15150 10166 15446 1 149.00000 418.400000
15151 10167 15360 1 149.00000 418.400000
15152 10168 16659 1 149.00000 418.400000
15152 10169 16151 1 149.00000 418.400000
15154 10170 16351 1 149.00000 418.400000
15155 10171 15467 1 149.00000 418.400000
15156 10172 16446 1 149.00000 418.400000
15156 10173 15507 1 149.00000 418.400000
15157 10174 16663 1 149.00000 418.400000
15158 10175 15627 1 149.00000 418.400000
15158 10176 15254 1 149.00000 418.400000
15159 10177 16183 1 149.00000 418.400000
15160 10178 15853 1 149.00000 418.400000
15160 10179 15627 1 149.00000 418.400000
15160 10180 16660 1 149.00000 418.400000
15162 10181 15325 1 149.00000 418.400000
15162 10182 16191 1 149.00000 418.400000
15163 10183 16659 1 149.00000 418.400000
15163 10184 15890 1 149.00000 418.400000
16211 10185 20497 1 149.00000 418.400000
15164 10186 15620 1 149.00000 418.400000
15165 10187 16140 1 149.00000 418.400000
15165 10188 15552 1 149.00000 418.400000
15167 10189 15785 1 149.00000 418.400000
15168 10190 16263 1 149.00000 418.400000
15168 10191 16360 1 149.00000 418.400000
15169 10192 15847 1 149.00000 418.400000
13638 10193 15169 1 149.00000 418.400000
15170 10194 16314 1 149.00000 418.400000
12289 10195 16314 1 149.00000 418.400000
15171 10196 16674 1 149.00000 418.400000
15171 10197 20503 1 149.00000 418.400000
15172 10198 16369 1 149.00000 418.400000
15173 10199 16205 1 149.00000 418.400000
15174 10200 15791 1 149.00000 418.400000
15175 10201 15315 1 149.00000 418.400000
15175 10202 16689 1 149.00000 418.400000
15176 10203 15330 1 149.00000 418.400000
15177 10204 16120 1 149.00000 418.400000
15178 10205 16056 1 149.00000 418.400000
12100 10206 15180 1 149.00000 418.400000
15180 10207 15438 1 149.00000 418.400000
15180 10208 16169 1 149.00000 418.400000
15181 10209 15872 1 149.00000 418.400000
15181 10210 16232 1 149.00000 418.400000
15182 10211 15938 1 149.00000 418.400000
15182 10212 15877 1 149.00000 418.400000
20500 10213 20695 1 149.00000 418.400000
15183 10214 15339 1 149.00000 418.400000
15183 10215 16556 1 149.00000 418.400000
15184 10216 16328 1 149.00000 418.400000
15185 10217 16011 1 149.00000 418.400000
15186 10218 15671 1 149.00000 418.400000
15186 10219 16020 1 149.00000 418.400000
15187 10220 15414 1 149.00000 418.400000
15187 10221 20539 1 149.00000 418.400000
15187 10222 20973 1 149.00000 418.400000
15188 10223 16039 1 149.00000 418.400000
15189 10224 15748 1 149.00000 418.400000
15190 10225 16468 1 149.00000 418.400000
15190 10226 16670 1 149.00000 418.400000
15190 10227 16262 1 149.00000 418.400000
15191 10228 16333 1 149.00000 418.400000
16691 10229 20503 1 149.00000 418.400000
16243 10230 20506 1 149.00000 418.400000
15192 10231 15802 1 149.00000 418.400000
15193 10232 15350 1 149.00000 418.400000
15193 10233 15495 1 149.00000 418.400000
15194 10234 16576 1 149.00000 418.400000
15194 10235 16396 1 149.00000 418.400000
15195 10236 16202 1 149.00000 418.400000
15195 10237 15760 1 149.00000 418.400000
13344 10238 20509 1 149.00000 418.400000
11592 10239 20509 1 149.00000 418.400000
15197 10240 15903 1 149.00000 418.400000
15197 10241 15884 1 149.00000 418.400000
15198 10242 16029 1 149.00000 418.400000
15198 10243 15486 1 149.00000 418.400000
15199 10244 16692 1 149.00000 418.400000
15201 10245 16577 1 149.00000 418.400000
15202 10246 15632 1 149.00000 418.400000
15203 10247 15686 1 149.00000 418.400000
13737 10248 15204 1 149.00000 418.400000
15204 10249 16372 1 149.00000 418.400000
15205 10250 15345 1 149.00000 418.400000
15206 10251 15539 1 149.00000 418.400000
15206 10252 15486 1 149.00000 418.400000
15207 10253 15273 1 149.00000 418.400000
15207 10254 15329 1 149.00000 418.400000
15209 10255 16646 1 149.00000 418.400000
15210 10256 16672 1 149.00000 418.400000
15210 10257 15540 1 149.00000 418.400000
15212 10258 16658 1 149.00000 418.400000
14826 10259 15795 1 149.00000 418.400000
15214 10260 16161 1 149.00000 418.400000
15214 10261 16507 1 149.00000 418.400000
15215 10262 15509 1 149.00000 418.400000
15216 10263 15335 1 149.00000 418.400000
15216 10264 16441 1 149.00000 418.400000
15217 10265 15289 1 149.00000 418.400000
14921 10266 15218 1 149.00000 418.400000
15218 10267 15846 1 149.00000 418.400000
15219 10268 15815 1 149.00000 418.400000
15219 10269 15959 1 149.00000 418.400000
15221 10270 20536 1 149.00000 418.400000
15221 10271 15352 1 149.00000 418.400000
14117 10272 16583 1 149.00000 418.400000
15222 10273 16242 1 149.00000 418.400000
15225 10274 16657 1 149.00000 418.400000
11477 10275 16130 1 149.00000 418.400000
15576 10276 17372 1 149.00000 418.400000
15227 10277 15981 1 149.00000 418.400000
15227 10278 15364 1 149.00000 418.400000
15228 10279 16306 1 149.00000 418.400000
15228 10280 16668 1 149.00000 418.400000
15229 10281 15269 1 149.00000 418.400000
15231 10282 15942 1 149.00000 418.400000
15231 10283 15274 1 149.00000 418.400000
15232 10284 16458 1 149.00000 418.400000
12723 10285 16351 1 149.00000 418.400000
15234 10286 15848 1 149.00000 418.400000
15236 10287 16571 1 149.00000 418.400000
15237 10288 16386 1 149.00000 418.400000
15238 10289 15439 1 149.00000 418.400000
12019 10290 13120 1 149.00000 418.400000
15239 10291 15365 1 149.00000 418.400000
15242 10292 16687 1 149.00000 418.400000
15243 10293 15318 1 149.00000 418.400000
15243 10294 16345 1 149.00000 418.400000
15244 10295 15490 1 149.00000 418.400000
14141 10296 20518 1 149.00000 418.400000
15249 10297 16694 1 149.00000 418.400000
15249 10298 16668 1 149.00000 418.400000
15251 10299 16486 1 149.00000 418.400000
15255 10300 15862 1 149.00000 418.400000
15255 10301 16159 1 149.00000 418.400000
15671 10302 15862 1 149.00000 418.400000
15256 10303 16231 1 149.00000 418.400000
15257 10304 15479 1 149.00000 418.400000
15258 10305 16176 1 149.00000 418.400000
16251 10306 20557 1 149.00000 418.400000
17400 10307 20557 1 149.00000 418.400000
15260 10308 16209 1 149.00000 418.400000
15261 10309 16668 1 149.00000 418.400000
15261 10310 16306 1 149.00000 418.400000
15262 10311 15359 1 149.00000 418.400000
15262 10312 20590 1 149.00000 418.400000
15263 10313 16226 1 149.00000 418.400000
15508 10314 17414 1 149.00000 418.400000
14432 10315 15264 1 149.00000 418.400000
15264 10316 15510 1 149.00000 418.400000
15265 10317 16632 1 149.00000 418.400000
15267 10318 16177 1 149.00000 418.400000
15267 10319 16163 1 149.00000 418.400000
15267 10320 16004 1 149.00000 418.400000
15268 10321 15909 1 149.00000 418.400000
15268 10322 15672 1 149.00000 418.400000
15269 10323 15544 1 149.00000 418.400000
15272 10324 15789 1 149.00000 418.400000
15273 10325 15664 1 149.00000 418.400000
15273 10326 15716 1 149.00000 418.400000
15274 10327 15740 1 149.00000 418.400000
15275 10328 15589 1 149.00000 418.400000
17428 10329 20797 1 149.00000 418.400000
16378 10330 17442 1 149.00000 418.400000
15276 10331 15447 1 149.00000 418.400000
12412 10332 15276 1 149.00000 418.400000
15278 10333 16083 1 149.00000 418.400000
15279 10334 15976 1 149.00000 418.400000
15279 10335 15331 1 149.00000 418.400000
15281 10336 15602 1 149.00000 418.400000
15282 10337 15996 1 149.00000 418.400000
15282 10338 16156 1 149.00000 418.400000
15836 10339 16270 1 149.00000 418.400000
15284 10340 15836 1 149.00000 418.400000
15285 10341 15677 1 149.00000 418.400000
15286 10342 15562 1 149.00000 418.400000
15286 10343 16230 1 149.00000 418.400000
15287 10344 16695 1 149.00000 418.400000
15287 10345 15367 1 149.00000 418.400000
15288 10346 16167 1 149.00000 418.400000
15289 10347 16616 1 149.00000 418.400000
15290 10348 16021 1 149.00000 418.400000
15291 10349 15875 1 149.00000 418.400000
15292 10350 16673 1 149.00000 418.400000
15294 10351 16507 1 149.00000 418.400000
15294 10352 15641 1 149.00000 418.400000
15294 10353 16582 1 149.00000 418.400000
15295 10354 16273 1 149.00000 418.400000
15296 10355 20923 1 149.00000 418.400000
13119 10356 16578 1 149.00000 418.400000
15299 10357 16258 1 149.00000 418.400000
15300 10358 15357 1 149.00000 418.400000
15300 10359 16521 1 149.00000 418.400000
15302 10360 16685 1 149.00000 418.400000
15302 10361 15571 1 149.00000 418.400000
15302 10362 15717 1 149.00000 418.400000
15303 10363 16484 1 149.00000 418.400000
15303 10364 16164 1 149.00000 418.400000
15303 10365 16047 1 149.00000 418.400000
15304 10366 16366 1 149.00000 418.400000
15304 10367 16063 1 149.00000 418.400000
15305 10368 16594 1 149.00000 418.400000
15305 10369 15634 1 149.00000 418.400000
13985 10370 15306 1 149.00000 418.400000
15306 10371 20857 1 149.00000 418.400000
15307 10372 16160 1 149.00000 418.400000
15307 10373 15465 1 149.00000 418.400000
15307 10374 16617 1 149.00000 418.400000
15307 10375 16591 1 149.00000 418.400000
15310 10376 15963 1 149.00000 418.400000
15311 10377 16516 1 149.00000 418.400000
15312 10378 16248 1 149.00000 418.400000
15312 10379 16283 1 149.00000 418.400000
15312 10380 15491 1 149.00000 418.400000
15313 10381 15878 1 149.00000 418.400000
15313 10382 15541 1 149.00000 418.400000
15314 10383 15401 1 149.00000 418.400000
15315 10384 15622 1 149.00000 418.400000
15316 10385 20797 1 149.00000 418.400000
15316 10386 16519 1 149.00000 418.400000
15317 10387 16217 1 149.00000 418.400000
15317 10388 16047 1 149.00000 418.400000
15323 10389 16250 1 149.00000 418.400000
15323 10390 15898 1 149.00000 418.400000
15327 10391 16660 1 149.00000 418.400000
15328 10392 15828 1 149.00000 418.400000
15328 10393 16360 1 149.00000 418.400000
15328 10394 16445 1 149.00000 418.400000
15330 10395 16072 1 149.00000 418.400000
15333 10396 15683 1 149.00000 418.400000
17498 10397 20185 1 149.00000 418.400000
15334 10398 15460 1 149.00000 418.400000
15336 10399 15761 1 149.00000 418.400000
15337 10400 15780 1 149.00000 418.400000
13631 10401 16266 1 149.00000 418.400000
15339 10402 16691 1 149.00000 418.400000
15340 10403 15925 1 149.00000 418.400000
15340 10404 15793 1 149.00000 418.400000
15341 10405 15841 1 149.00000 418.400000
14168 10406 15341 1 149.00000 418.400000
14165 10407 15419 1 149.00000 418.400000
15343 10408 15354 1 149.00000 418.400000
15344 10409 17652 1 149.00000 418.400000
15345 10410 15349 1 149.00000 418.400000
15346 10411 16302 1 149.00000 418.400000
15347 10412 15673 1 149.00000 418.400000
15348 10413 20830 1 149.00000 418.400000
13782 10414 15348 1 149.00000 418.400000
15349 10415 16359 1 149.00000 418.400000
15351 10416 15913 1 149.00000 418.400000
15351 10417 15608 1 149.00000 418.400000
15352 10418 15635 1 149.00000 418.400000
15354 10419 16503 1 149.00000 418.400000
15354 10420 16486 1 149.00000 418.400000
15355 10421 15376 1 149.00000 418.400000
11690 10422 16249 1 149.00000 418.400000
15359 10423 15645 1 149.00000 418.400000
15361 10424 16352 1 149.00000 418.400000
15362 10425 20665 1 149.00000 418.400000
15363 10426 15971 1 149.00000 418.400000
15365 10427 16110 1 149.00000 418.400000
15366 10428 15434 1 149.00000 418.400000
15366 10429 16294 1 149.00000 418.400000
15367 10430 15546 1 149.00000 418.400000
15367 10431 15623 1 149.00000 418.400000
15368 10432 15559 1 149.00000 418.400000
15373 10433 17876 1 149.00000 418.400000
15375 10434 16102 1 149.00000 418.400000
16140 10435 20542 1 149.00000 418.400000
16535 10436 20542 1 149.00000 418.400000
15379 10437 15882 1 149.00000 418.400000
15379 10438 15399 1 149.00000 418.400000
15379 10439 20710 1 149.00000 418.400000
15379 10440 17736 1 149.00000 418.400000
20545 10441 20659 1 149.00000 418.400000
16174 10442 20545 1 149.00000 418.400000
15380 10443 15989 1 149.00000 418.400000
15381 10444 16083 1 149.00000 418.400000
15381 10445 16367 1 149.00000 418.400000
15382 10446 16551 1 149.00000 418.400000
15383 10447 15462 1 149.00000 418.400000
15384 10448 15786 1 149.00000 418.400000
15385 10449 16648 1 149.00000 418.400000
15385 10450 15753 1 149.00000 418.400000
15386 10451 15443 1 149.00000 418.400000
15386 10452 16198 1 149.00000 418.400000
15386 10453 15967 1 149.00000 418.400000
15388 10454 16563 1 149.00000 418.400000
15388 10455 16573 1 149.00000 418.400000
15390 10456 16011 1 149.00000 418.400000
15391 10457 20728 1 149.00000 418.400000
15392 10458 16173 1 149.00000 418.400000
14459 10459 15885 1 149.00000 418.400000
15393 10460 16092 1 149.00000 418.400000
15763 10461 20548 1 149.00000 418.400000
16186 10462 20548 1 149.00000 418.400000
20551 10463 20883 1 149.00000 418.400000
15395 10464 15899 1 149.00000 418.400000
15397 10465 16633 1 149.00000 418.400000
15398 10466 16142 1 149.00000 418.400000
14823 10467 15398 1 149.00000 418.400000
12456 10468 15399 1 149.00000 418.400000
15400 10469 16108 1 149.00000 418.400000
15402 10470 15852 1 149.00000 418.400000
13080 10471 15403 1 149.00000 418.400000
15403 10472 15794 1 149.00000 418.400000
15404 10473 16214 1 149.00000 418.400000
15404 10474 15745 1 149.00000 418.400000
15405 10475 16019 1 149.00000 418.400000
15406 10476 15607 1 149.00000 418.400000
15408 10477 15588 1 149.00000 418.400000
15410 10478 15524 1 149.00000 418.400000
15411 10479 15807 1 149.00000 418.400000
13484 10480 15415 1 149.00000 418.400000
15415 10481 16325 1 149.00000 418.400000
15416 10482 15468 1 149.00000 418.400000
15417 10483 16179 1 149.00000 418.400000
15418 10484 16134 1 149.00000 418.400000
15419 10485 15565 1 149.00000 418.400000
15420 10486 15490 1 149.00000 418.400000
15422 10487 15974 1 149.00000 418.400000
15422 10488 20719 1 149.00000 418.400000
14144 10489 15423 1 149.00000 418.400000
15423 10490 16175 1 149.00000 418.400000
15424 10491 15827 1 149.00000 418.400000
12549 10492 20554 1 149.00000 418.400000
15426 10493 15990 1 149.00000 418.400000
15429 10494 16061 1 149.00000 418.400000
15430 10495 16208 1 149.00000 418.400000
12062 10496 15431 1 149.00000 418.400000
15432 10497 16600 1 149.00000 418.400000
15433 10498 16179 1 149.00000 418.400000
15434 10499 15811 1 149.00000 418.400000
15435 10500 15848 1 149.00000 418.400000
15438 10501 16267 1 149.00000 418.400000
15442 10502 16363 1 149.00000 418.400000
15442 10503 16567 1 149.00000 418.400000
15444 10504 15983 1 149.00000 418.400000
15445 10505 16274 1 149.00000 418.400000
15445 10506 15501 1 149.00000 418.400000
15446 10507 15672 1 149.00000 418.400000
15448 10508 15523 1 149.00000 418.400000
15450 10509 16529 1 149.00000 418.400000
15450 10510 16522 1 149.00000 418.400000
15450 10511 15630 1 149.00000 418.400000
15452 10512 16433 1 149.00000 418.400000
13782 10513 20566 1 149.00000 418.400000
20152 10514 20566 1 149.00000 418.400000
15454 10515 15519 1 149.00000 418.400000
15454 10516 15481 1 149.00000 418.400000
15455 10517 15721 1 149.00000 418.400000
12684 10518 13426 1 149.00000 418.400000
15457 10519 15541 1 149.00000 418.400000
15458 10520 16183 1 149.00000 418.400000
14797 10521 15781 1 149.00000 418.400000
15460 10522 15590 1 149.00000 418.400000
15460 10523 16142 1 149.00000 418.400000
15462 10524 16281 1 149.00000 418.400000
15462 10525 16457 1 149.00000 418.400000
15463 10526 15549 1 149.00000 418.400000
15465 10527 16018 1 149.00000 418.400000
15466 10528 16304 1 149.00000 418.400000
15468 10529 16240 1 149.00000 418.400000
15469 10530 15522 1 149.00000 418.400000
12722 10531 16090 1 149.00000 418.400000
12722 10532 15952 1 149.00000 418.400000
15472 10533 16381 1 149.00000 418.400000
15473 10534 15881 1 149.00000 418.400000
15473 10535 16126 1 149.00000 418.400000
15474 10536 16077 1 149.00000 418.400000
15475 10537 16521 1 149.00000 418.400000
15476 10538 15582 1 149.00000 418.400000
15477 10539 15878 1 149.00000 418.400000
15478 10540 15584 1 149.00000 418.400000
15479 10541 15792 1 149.00000 418.400000
15479 10542 16455 1 149.00000 418.400000
15480 10543 16141 1 149.00000 418.400000
15481 10544 16285 1 149.00000 418.400000
15482 10545 21003 1 149.00000 418.400000
15483 10546 15809 1 149.00000 418.400000
15483 10547 15770 1 149.00000 418.400000
15484 10548 16567 1 149.00000 418.400000
15763 10549 17582 1 149.00000 418.400000
15485 10550 20983 1 149.00000 418.400000
15485 10551 20674 1 149.00000 418.400000
15485 10552 15572 1 149.00000 418.400000
15487 10553 16245 1 149.00000 418.400000
15488 10554 16630 1 149.00000 418.400000
15488 10555 20866 1 149.00000 418.400000
15489 10556 16464 1 149.00000 418.400000
15489 10557 16419 1 149.00000 418.400000
15489 10558 15498 1 149.00000 418.400000
15491 10559 16628 1 149.00000 418.400000
20572 10560 20614 1 149.00000 418.400000
16279 10561 20572 1 149.00000 418.400000
15492 10562 16379 1 149.00000 418.400000
15492 10563 16133 1 149.00000 418.400000
15492 10564 15844 1 149.00000 418.400000
15493 10565 16036 1 149.00000 418.400000
15494 10566 15527 1 149.00000 418.400000
17974 10567 20575 1 149.00000 418.400000
15495 10568 16333 1 149.00000 418.400000
15496 10569 20779 1 149.00000 418.400000
15496 10570 15966 1 149.00000 418.400000
15497 10571 15649 1 149.00000 418.400000
16381 10572 20581 1 149.00000 418.400000
15500 10573 16674 1 149.00000 418.400000
15501 10574 16363 1 149.00000 418.400000
15502 10575 15897 1 149.00000 418.400000
12950 10576 15502 1 149.00000 418.400000
15502 10577 16412 1 149.00000 418.400000
15504 10578 15748 1 149.00000 418.400000
15506 10579 16548 1 149.00000 418.400000
15506 10580 16388 1 149.00000 418.400000
15944 10581 20584 1 149.00000 418.400000
20584 10582 20839 1 149.00000 418.400000
15508 10583 16363 1 149.00000 418.400000
15509 10584 15741 1 149.00000 418.400000
15509 10585 15538 1 149.00000 418.400000
15510 10586 15587 1 149.00000 418.400000
15511 10587 20948 1 149.00000 418.400000
15512 10588 15815 1 149.00000 418.400000
15515 10589 16385 1 149.00000 418.400000
15517 10590 16622 1 149.00000 418.400000
15519 10591 15536 1 149.00000 418.400000
16057 10592 20587 1 149.00000 418.400000
16593 10593 20587 1 149.00000 418.400000
15520 10594 16250 1 149.00000 418.400000
15521 10595 16326 1 149.00000 418.400000
15522 10596 16566 1 149.00000 418.400000
15523 10597 15943 1 149.00000 418.400000
15524 10598 15687 1 149.00000 418.400000
15525 10599 16113 1 149.00000 418.400000
15526 10600 16620 1 149.00000 418.400000
15526 10601 16524 1 149.00000 418.400000
15529 10602 16605 1 149.00000 418.400000
15530 10603 20821 1 149.00000 418.400000
15530 10604 15580 1 149.00000 418.400000
15531 10605 15777 1 149.00000 418.400000
15532 10606 16592 1 149.00000 418.400000
16174 10607 20593 1 149.00000 418.400000
15535 10608 16290 1 149.00000 418.400000
15535 10609 16444 1 149.00000 418.400000
15536 10610 16452 1 149.00000 418.400000
15536 10611 16135 1 149.00000 418.400000
15538 10612 16105 1 149.00000 418.400000
15538 10613 16230 1 149.00000 418.400000
15540 10614 16618 1 149.00000 418.400000
15542 10615 16400 1 149.00000 418.400000
15544 10616 15699 1 149.00000 418.400000
15545 10617 15933 1 149.00000 418.400000
15545 10618 15702 1 149.00000 418.400000
15546 10619 16234 1 149.00000 418.400000
15550 10620 16353 1 149.00000 418.400000
15550 10621 15715 1 149.00000 418.400000
15551 10622 16091 1 149.00000 418.400000
15552 10623 16427 1 149.00000 418.400000
15552 10624 16511 1 149.00000 418.400000
13518 10625 15779 1 149.00000 418.400000
16647 10626 20602 1 149.00000 418.400000
15553 10627 15562 1 149.00000 418.400000
12917 10628 16428 1 149.00000 418.400000
15554 10629 15962 1 149.00000 418.400000
15554 10630 16264 1 149.00000 418.400000
15555 10631 16034 1 149.00000 418.400000
15559 10632 20872 1 149.00000 418.400000
15560 10633 15688 1 149.00000 418.400000
15562 10634 15696 1 149.00000 418.400000
15564 10635 16103 1 149.00000 418.400000
15564 10636 15988 1 149.00000 418.400000
15566 10637 16393 1 149.00000 418.400000
14176 10638 15567 1 149.00000 418.400000
15568 10639 16516 1 149.00000 418.400000
15568 10640 16026 1 149.00000 418.400000
15568 10641 16087 1 149.00000 418.400000
15568 10642 16277 1 149.00000 418.400000
15569 10643 16089 1 149.00000 418.400000
15570 10644 15902 1 149.00000 418.400000
15573 10645 16242 1 149.00000 418.400000
15573 10646 16382 1 149.00000 418.400000
15552 10647 15574 1 149.00000 418.400000
15575 10648 15593 1 149.00000 418.400000
12251 10649 15576 1 149.00000 418.400000
15577 10650 16408 1 149.00000 418.400000
15578 10651 16481 1 149.00000 418.400000
15578 10652 15661 1 149.00000 418.400000
15579 10653 16336 1 149.00000 418.400000
15580 10654 15675 1 149.00000 418.400000
15581 10655 16180 1 149.00000 418.400000
15581 10656 16104 1 149.00000 418.400000
15581 10657 15974 1 149.00000 418.400000
15582 10658 15855 1 149.00000 418.400000
15585 10659 15638 1 149.00000 418.400000
15586 10660 16244 1 149.00000 418.400000
15312 10661 15586 1 149.00000 418.400000
15587 10662 16091 1 149.00000 418.400000
15588 10663 16092 1 149.00000 418.400000
15589 10664 15657 1 149.00000 418.400000
15590 10665 15714 1 149.00000 418.400000
15592 10666 15701 1 149.00000 418.400000
15594 10667 15793 1 149.00000 418.400000
15596 10668 15609 1 149.00000 418.400000
15598 10669 16076 1 149.00000 418.400000
15598 10670 20851 1 149.00000 418.400000
15598 10671 20752 1 149.00000 418.400000
15067 10672 15599 1 149.00000 418.400000
15604 10673 15922 1 149.00000 418.400000
15605 10674 20656 1 149.00000 418.400000
15606 10675 15686 1 149.00000 418.400000
12191 10676 16066 1 149.00000 418.400000
14287 10677 15608 1 149.00000 418.400000
20611 10678 20746 1 149.00000 418.400000
16201 10679 20611 1 149.00000 418.400000
14817 10680 16513 1 149.00000 418.400000
12950 10681 15991 1 149.00000 418.400000
15612 10682 16284 1 149.00000 418.400000
15613 10683 16001 1 149.00000 418.400000
15614 10684 16435 1 149.00000 418.400000
16205 10685 20620 1 149.00000 418.400000
20620 10686 20740 1 149.00000 418.400000
15616 10687 15951 1 149.00000 418.400000
15617 10688 16651 1 149.00000 418.400000
15617 10689 16637 1 149.00000 418.400000
15617 10690 15730 1 149.00000 418.400000
15618 10691 16334 1 149.00000 418.400000
15619 10692 16079 1 149.00000 418.400000
15619 10693 16188 1 149.00000 418.400000
16064 10694 17652 1 149.00000 418.400000
15621 10695 16610 1 149.00000 418.400000
15622 10696 16337 1 149.00000 418.400000
15626 10697 16155 1 149.00000 418.400000
15158 10698 15885 1 149.00000 418.400000
15629 10699 16525 1 149.00000 418.400000
15629 10700 16273 1 149.00000 418.400000
15837 10701 17680 1 149.00000 418.400000
15632 10702 16236 1 149.00000 418.400000
15638 10703 16594 1 149.00000 418.400000
13616 10704 15640 1 149.00000 418.400000
20623 10705 20716 1 149.00000 418.400000
15642 10706 16455 1 149.00000 418.400000
15643 10707 16450 1 149.00000 418.400000
15643 10708 15849 1 149.00000 418.400000
15644 10709 16533 1 149.00000 418.400000
15646 10710 15842 1 149.00000 418.400000
15646 10711 20848 1 149.00000 418.400000
15648 10712 15964 1 149.00000 418.400000
15648 10713 16623 1 149.00000 418.400000
15650 10714 15941 1 149.00000 418.400000
15650 10715 16000 1 149.00000 418.400000
15652 10716 16408 1 149.00000 418.400000
15653 10717 16295 1 149.00000 418.400000
15654 10718 15896 1 149.00000 418.400000
15656 10719 16355 1 149.00000 418.400000
15657 10720 15810 1 149.00000 418.400000
15658 10721 16226 1 149.00000 418.400000
15663 10722 16265 1 149.00000 418.400000
15663 10723 15715 1 149.00000 418.400000
15667 10724 16083 1 149.00000 418.400000
15667 10725 15792 1 149.00000 418.400000
15669 10726 16347 1 149.00000 418.400000
14207 10727 16097 1 149.00000 418.400000
15670 10728 16210 1 149.00000 418.400000
15673 10729 16043 1 149.00000 418.400000
15675 10730 16162 1 149.00000 418.400000
15676 10731 15843 1 149.00000 418.400000
15677 10732 15978 1 149.00000 418.400000
15678 10733 16551 1 149.00000 418.400000
15678 10734 16500 1 149.00000 418.400000
15679 10735 16114 1 149.00000 418.400000
15680 10736 16058 1 149.00000 418.400000
14607 10737 15981 1 149.00000 418.400000
15681 10738 16095 1 149.00000 418.400000
15682 10739 16153 1 149.00000 418.400000
15685 10740 15751 1 149.00000 418.400000
15398 10741 15686 1 149.00000 418.400000
16592 10742 20629 1 149.00000 418.400000
16634 10743 20629 1 149.00000 418.400000
16045 10744 20632 1 149.00000 418.400000
15688 10745 16236 1 149.00000 418.400000
15688 10746 16226 1 149.00000 418.400000
20635 10747 20815 1 149.00000 418.400000
15689 10748 16668 1 149.00000 418.400000
15690 10749 15885 1 149.00000 418.400000
15691 10750 15712 1 149.00000 418.400000
15694 10751 16185 1 149.00000 418.400000
15697 10752 15746 1 149.00000 418.400000
15698 10753 15877 1 149.00000 418.400000
15698 10754 16401 1 149.00000 418.400000
14512 10755 15705 1 149.00000 418.400000
16158 10756 20638 1 149.00000 418.400000
16626 10757 20638 1 149.00000 418.400000
16136 10758 20641 1 149.00000 418.400000
15708 10759 15958 1 149.00000 418.400000
15711 10760 16249 1 149.00000 418.400000
15712 10761 16222 1 149.00000 418.400000
15713 10762 16374 1 149.00000 418.400000
15715 10763 16056 1 149.00000 418.400000
15719 10764 20794 1 149.00000 418.400000
15719 10765 15734 1 149.00000 418.400000
15719 10766 20818 1 149.00000 418.400000
15720 10767 15722 1 149.00000 418.400000
15721 10768 15880 1 149.00000 418.400000
15722 10769 16059 1 149.00000 418.400000
15724 10770 16180 1 149.00000 418.400000
15725 10771 15879 1 149.00000 418.400000
15726 10772 15908 1 149.00000 418.400000
15727 10773 15841 1 149.00000 418.400000
15728 10774 15883 1 149.00000 418.400000
15729 10775 16082 1 149.00000 418.400000
15730 10776 16488 1 149.00000 418.400000
15730 10777 16221 1 149.00000 418.400000
15732 10778 16240 1 149.00000 418.400000
15733 10779 15925 1 149.00000 418.400000
15733 10780 16072 1 149.00000 418.400000
15737 10781 16608 1 149.00000 418.400000
15740 10782 15749 1 149.00000 418.400000
15740 10783 15756 1 149.00000 418.400000
15743 10784 20978 1 149.00000 418.400000
15746 10785 15825 1 149.00000 418.400000
15746 10786 21018 1 149.00000 418.400000
15749 10787 15830 1 149.00000 418.400000
15754 10788 16467 1 149.00000 418.400000
15756 10789 16571 1 149.00000 418.400000
15757 10790 20800 1 149.00000 418.400000
15758 10791 16386 1 149.00000 418.400000
15759 10792 16564 1 149.00000 418.400000
14011 10793 15759 1 149.00000 418.400000
15760 10794 16235 1 149.00000 418.400000
16373 10795 17764 1 149.00000 418.400000
15761 10796 16529 1 149.00000 418.400000
15762 10797 15945 1 149.00000 418.400000
15762 10798 16291 1 149.00000 418.400000
15764 10799 16239 1 149.00000 418.400000
15767 10800 16691 1 149.00000 418.400000
15767 10801 15984 1 149.00000 418.400000
15769 10802 20668 1 149.00000 418.400000
15773 10803 16272 1 149.00000 418.400000
16655 10804 20653 1 149.00000 418.400000
15774 10805 16615 1 149.00000 418.400000
15776 10806 16044 1 149.00000 418.400000
15779 10807 16313 1 149.00000 418.400000
15780 10808 20993 1 149.00000 418.400000
15781 10809 16527 1 149.00000 418.400000
15781 10810 16214 1 149.00000 418.400000
15784 10811 16014 1 149.00000 418.400000
15786 10812 16556 1 149.00000 418.400000
15790 10813 15812 1 149.00000 418.400000
15955 10814 20659 1 149.00000 418.400000
15795 10815 17876 1 149.00000 418.400000
15796 10816 16098 1 149.00000 418.400000
15798 10817 16621 1 149.00000 418.400000
15798 10818 16374 1 149.00000 418.400000
14783 10819 15800 1 149.00000 418.400000
15802 10820 16110 1 149.00000 418.400000
20662 10821 20963 1 149.00000 418.400000
15361 10822 20662 1 149.00000 418.400000
15806 10823 16357 1 149.00000 418.400000
15806 10824 16045 1 149.00000 418.400000
15807 10825 16030 1 149.00000 418.400000
15808 10826 16229 1 149.00000 418.400000
15812 10827 16560 1 149.00000 418.400000
15887 10828 20668 1 149.00000 418.400000
15818 10829 18002 1 149.00000 418.400000
15821 10830 16640 1 149.00000 418.400000
15824 10831 16186 1 149.00000 418.400000
15825 10832 15939 1 149.00000 418.400000
15827 10833 16440 1 149.00000 418.400000
15829 10834 15979 1 149.00000 418.400000
11886 10835 15829 1 149.00000 418.400000
15831 10836 20542 1 149.00000 418.400000
15831 10837 16629 1 149.00000 418.400000
15832 10838 16094 1 149.00000 418.400000
13638 10839 15847 1 149.00000 418.400000
15834 10840 16312 1 149.00000 418.400000
15834 10841 20764 1 149.00000 418.400000
15835 10842 16036 1 149.00000 418.400000
13080 10843 15835 1 149.00000 418.400000
15838 10844 16450 1 149.00000 418.400000
15839 10845 16399 1 149.00000 418.400000
15839 10846 16331 1 149.00000 418.400000
15840 10847 16545 1 149.00000 418.400000
15842 10848 16552 1 149.00000 418.400000
15845 10849 16610 1 149.00000 418.400000
15851 10850 16523 1 149.00000 418.400000
15851 10851 16353 1 149.00000 418.400000
15855 10852 20913 1 149.00000 418.400000
15856 10853 16637 1 149.00000 418.400000
15857 10854 15920 1 149.00000 418.400000
15858 10855 15924 1 149.00000 418.400000
15860 10856 16187 1 149.00000 418.400000
15860 10857 16019 1 149.00000 418.400000
16302 10858 20683 1 149.00000 418.400000
15861 10859 15864 1 149.00000 418.400000
15862 10860 16020 1 149.00000 418.400000
15862 10861 16299 1 149.00000 418.400000
14242 10862 15865 1 149.00000 418.400000
15868 10863 15991 1 149.00000 418.400000
13689 10864 20692 1 149.00000 418.400000
15872 10865 15918 1 149.00000 418.400000
20689 10866 20755 1 149.00000 418.400000
15932 10867 20692 1 149.00000 418.400000
15916 10868 17862 1 149.00000 418.400000
16664 10869 17862 1 149.00000 418.400000
15875 10870 15917 1 149.00000 418.400000
15881 10871 16172 1 149.00000 418.400000
13792 10872 16486 1 149.00000 418.400000
15882 10873 16634 1 149.00000 418.400000
15882 10874 16071 1 149.00000 418.400000
15883 10875 15998 1 149.00000 418.400000
15884 10876 15951 1 149.00000 418.400000
15690 10877 16384 1 149.00000 418.400000
15889 10878 15995 1 149.00000 418.400000
15889 10879 16198 1 149.00000 418.400000
15890 10880 16617 1 149.00000 418.400000
15891 10881 16666 1 149.00000 418.400000
15894 10882 15901 1 149.00000 418.400000
15895 10883 16193 1 149.00000 418.400000
14251 10884 15937 1 149.00000 418.400000
15895 10885 16217 1 149.00000 418.400000
15896 10886 16665 1 149.00000 418.400000
16548 10887 20365 1 149.00000 418.400000
15902 10888 16598 1 149.00000 418.400000
15903 10889 15935 1 149.00000 418.400000
15904 10890 16195 1 149.00000 418.400000
15906 10891 16466 1 149.00000 418.400000
15907 10892 16445 1 149.00000 418.400000
15907 10893 16183 1 149.00000 418.400000
15907 10894 16619 1 149.00000 418.400000
15908 10895 16299 1 149.00000 418.400000
15911 10896 16670 1 149.00000 418.400000
15915 10897 16542 1 149.00000 418.400000
15917 10898 16361 1 149.00000 418.400000
15917 10899 16562 1 149.00000 418.400000
15918 10900 16022 1 149.00000 418.400000
15857 10901 16383 1 149.00000 418.400000
18130 10902 20779 1 149.00000 418.400000
15924 10903 15950 1 149.00000 418.400000
15926 10904 16311 1 149.00000 418.400000
15926 10905 16144 1 149.00000 418.400000
15927 10906 20776 1 149.00000 418.400000
15928 10907 16519 1 149.00000 418.400000
15929 10908 15967 1 149.00000 418.400000
15931 10909 16555 1 149.00000 418.400000
15931 10910 16447 1 149.00000 418.400000
20710 10911 20722 1 149.00000 418.400000
15932 10912 16648 1 149.00000 418.400000
12266 10913 16330 1 149.00000 418.400000
15935 10914 16482 1 149.00000 418.400000
15938 10915 16165 1 149.00000 418.400000
15939 10916 20773 1 149.00000 418.400000
12041 10917 15940 1 149.00000 418.400000
15943 10918 16316 1 149.00000 418.400000
15949 10919 16060 1 149.00000 418.400000
14532 10920 16330 1 149.00000 418.400000
15953 10921 16538 1 149.00000 418.400000
15953 10922 16402 1 149.00000 418.400000
20716 10923 20893 1 149.00000 418.400000
15959 10924 16222 1 149.00000 418.400000
15963 10925 16137 1 149.00000 418.400000
15966 10926 16127 1 149.00000 418.400000
15967 10927 16149 1 149.00000 418.400000
15968 10928 16127 1 149.00000 418.400000
15968 10929 16506 1 149.00000 418.400000
15969 10930 16153 1 149.00000 418.400000
15976 10931 16590 1 149.00000 418.400000
15980 10932 16456 1 149.00000 418.400000
15983 10933 16288 1 149.00000 418.400000
15986 10934 16679 1 149.00000 418.400000
15991 10935 16317 1 149.00000 418.400000
16000 10936 16160 1 149.00000 418.400000
16002 10937 16347 1 149.00000 418.400000
16003 10938 16553 1 149.00000 418.400000
16006 10939 16669 1 149.00000 418.400000
17988 10940 20749 1 149.00000 418.400000
16007 10941 16354 1 149.00000 418.400000
16449 10942 20728 1 149.00000 418.400000
16012 10943 16290 1 149.00000 418.400000
14073 10944 16012 1 149.00000 418.400000
16014 10945 16581 1 149.00000 418.400000
16015 10946 16213 1 149.00000 418.400000
16016 10947 16681 1 149.00000 418.400000
16017 10948 16290 1 149.00000 418.400000
18016 10949 20734 1 149.00000 418.400000
16139 10950 20734 1 149.00000 418.400000
16020 10951 16085 1 149.00000 418.400000
16020 10952 16155 1 149.00000 418.400000
16021 10953 16605 1 149.00000 418.400000
16024 10954 16432 1 149.00000 418.400000
16025 10955 16134 1 149.00000 418.400000
16027 10956 16073 1 149.00000 418.400000
18002 10957 21008 1 149.00000 418.400000
16035 10958 16212 1 149.00000 418.400000
16037 10959 16616 1 149.00000 418.400000
16037 10960 16506 1 149.00000 418.400000
16037 10961 16670 1 149.00000 418.400000
16038 10962 16128 1 149.00000 418.400000
16040 10963 16222 1 149.00000 418.400000
16062 10964 20746 1 149.00000 418.400000
16509 10965 20746 1 149.00000 418.400000
16041 10966 16165 1 149.00000 418.400000
16043 10967 16403 1 149.00000 418.400000
16044 10968 16297 1 149.00000 418.400000
16045 10969 16138 1 149.00000 418.400000
16046 10970 16099 1 149.00000 418.400000
16047 10971 16205 1 149.00000 418.400000
16048 10972 16470 1 149.00000 418.400000
16051 10973 16512 1 149.00000 418.400000
11956 10974 16416 1 149.00000 418.400000
16054 10975 16299 1 149.00000 418.400000
16057 10976 16280 1 149.00000 418.400000
16060 10977 16112 1 149.00000 418.400000
16060 10978 16529 1 149.00000 418.400000
16061 10979 16374 1 149.00000 418.400000
16150 10980 16409 1 149.00000 418.400000
16062 10981 16409 1 149.00000 418.400000
16063 10982 16080 1 149.00000 418.400000
16067 10983 16385 1 149.00000 418.400000
16067 10984 16504 1 149.00000 418.400000
16067 10985 16590 1 149.00000 418.400000
16068 10986 16462 1 149.00000 418.400000
16072 10987 16315 1 149.00000 418.400000
16634 10988 20752 1 149.00000 418.400000
16073 10989 16553 1 149.00000 418.400000
16078 10990 16394 1 149.00000 418.400000
16081 10991 16593 1 149.00000 418.400000
16092 10992 16433 1 149.00000 418.400000
16095 10993 16584 1 149.00000 418.400000
16097 10994 16311 1 149.00000 418.400000
20758 10995 20767 1 149.00000 418.400000
16107 10996 16693 1 149.00000 418.400000
16108 10997 16403 1 149.00000 418.400000
11843 10998 16114 1 149.00000 418.400000
16116 10999 16189 1 149.00000 418.400000
16116 11000 16308 1 149.00000 418.400000
16117 11001 16454 1 149.00000 418.400000
16117 11002 16384 1 149.00000 418.400000
16119 11003 16227 1 149.00000 418.400000
16119 11004 16197 1 149.00000 418.400000
16126 11005 16487 1 149.00000 418.400000
14331 11006 16262 1 149.00000 418.400000
16132 11007 16572 1 149.00000 418.400000
16132 11008 16253 1 149.00000 418.400000
16135 11009 16307 1 149.00000 418.400000
16142 11010 16505 1 149.00000 418.400000
16145 11011 16394 1 149.00000 418.400000
16148 11012 16184 1 149.00000 418.400000
16149 11013 16498 1 149.00000 418.400000
16150 11014 20803 1 149.00000 418.400000
16151 11015 16674 1 149.00000 418.400000
16152 11016 16637 1 149.00000 418.400000
15969 11017 16543 1 149.00000 418.400000
16154 11018 16526 1 149.00000 418.400000
16154 11019 16663 1 149.00000 418.400000
16162 11020 16250 1 149.00000 418.400000
16250 11021 16437 1 149.00000 418.400000
15170 11022 16163 1 149.00000 418.400000
16164 11023 16249 1 149.00000 418.400000
16170 11024 16627 1 149.00000 418.400000
16170 11025 16338 1 149.00000 418.400000
16171 11026 16462 1 149.00000 418.400000
16175 11027 16450 1 149.00000 418.400000
16177 11028 16304 1 149.00000 418.400000
16178 11029 20842 1 149.00000 418.400000
16178 11030 16458 1 149.00000 418.400000
16179 11031 16545 1 149.00000 418.400000
20770 11032 20973 1 149.00000 418.400000
16184 11033 16677 1 149.00000 418.400000
16192 11034 16397 1 149.00000 418.400000
16198 11035 16316 1 149.00000 418.400000
16200 11036 16683 1 149.00000 418.400000
16202 11037 16261 1 149.00000 418.400000
16204 11038 16260 1 149.00000 418.400000
16212 11039 16626 1 149.00000 418.400000
13243 11040 16219 1 149.00000 418.400000
16223 11041 16410 1 149.00000 418.400000
16223 11042 16443 1 149.00000 418.400000
16228 11043 16632 1 149.00000 418.400000
20848 11044 20903 1 149.00000 418.400000
16231 11045 16338 1 149.00000 418.400000
16234 11046 16442 1 149.00000 418.400000
16234 11047 16623 1 149.00000 418.400000
16236 11048 16559 1 149.00000 418.400000
16237 11049 20836 1 149.00000 418.400000
16239 11050 16289 1 149.00000 418.400000
16245 11051 16357 1 149.00000 418.400000
16251 11052 16307 1 149.00000 418.400000
16252 11053 16513 1 149.00000 418.400000
14768 11054 16516 1 149.00000 418.400000
14768 11055 16499 1 149.00000 418.400000
16256 11056 16608 1 149.00000 418.400000
16264 11057 16377 1 149.00000 418.400000
16266 11058 16618 1 149.00000 418.400000
16268 11059 16657 1 149.00000 418.400000
16269 11060 16461 1 149.00000 418.400000
16269 11061 16362 1 149.00000 418.400000
12241 11062 20918 1 149.00000 418.400000
16271 11063 16467 1 149.00000 418.400000
16276 11064 16602 1 149.00000 418.400000
16278 11065 16524 1 149.00000 418.400000
16280 11066 16553 1 149.00000 418.400000
12842 11067 16455 1 149.00000 418.400000
16283 11068 16652 1 149.00000 418.400000
16285 11069 16472 1 149.00000 418.400000
16286 11070 16483 1 149.00000 418.400000
16287 11071 16319 1 149.00000 418.400000
16145 11072 16288 1 149.00000 418.400000
16288 11073 16430 1 149.00000 418.400000
16293 11074 16422 1 149.00000 418.400000
16302 11075 20782 1 149.00000 418.400000
16300 11076 16500 1 149.00000 418.400000
16309 11077 16324 1 149.00000 418.400000
12149 11078 20788 1 149.00000 418.400000
16319 11079 16568 1 149.00000 418.400000
16319 11080 16327 1 149.00000 418.400000
16322 11081 20818 1 149.00000 418.400000
16326 11082 16527 1 149.00000 418.400000
16332 11083 16433 1 149.00000 418.400000
16340 11084 16569 1 149.00000 418.400000
16342 11085 16587 1 149.00000 418.400000
16346 11086 16388 1 149.00000 418.400000
16348 11087 16510 1 149.00000 418.400000
16353 11088 16662 1 149.00000 418.400000
16355 11089 16588 1 149.00000 418.400000
12861 11090 16355 1 149.00000 418.400000
16356 11091 16600 1 149.00000 418.400000
16456 11092 20933 1 149.00000 418.400000
16364 11093 16473 1 149.00000 418.400000
16379 11094 16612 1 149.00000 418.400000
16387 11095 16548 1 149.00000 418.400000
16392 11096 16563 1 149.00000 418.400000
16548 11097 20953 1 149.00000 418.400000
16405 11098 16437 1 149.00000 418.400000
16417 11099 16677 1 149.00000 418.400000
16418 11100 16552 1 149.00000 418.400000
16420 11101 16599 1 149.00000 418.400000
16420 11102 16480 1 149.00000 418.400000
16421 11103 16451 1 149.00000 418.400000
16422 11104 16439 1 149.00000 418.400000
16424 11105 16664 1 149.00000 418.400000
16425 11106 16460 1 149.00000 418.400000
16427 11107 16435 1 149.00000 418.400000
16434 11108 16623 1 149.00000 418.400000
16441 11109 16495 1 149.00000 418.400000
16443 11110 16475 1 149.00000 418.400000
16450 11111 16631 1 149.00000 418.400000
16455 11112 16654 1 149.00000 418.400000
16456 11113 16551 1 149.00000 418.400000
16457 11114 16547 1 149.00000 418.400000
16465 11115 16516 1 149.00000 418.400000
16636 11116 20836 1 149.00000 418.400000
16469 11117 16641 1 149.00000 418.400000
16474 11118 16659 1 149.00000 418.400000
16479 11119 16692 1 149.00000 418.400000
16480 11120 16586 1 149.00000 418.400000
16483 11121 16611 1 149.00000 418.400000
16499 11122 16582 1 149.00000 418.400000
16502 11123 16565 1 149.00000 418.400000
16515 11124 16599 1 149.00000 418.400000
16592 11125 20854 1 149.00000 418.400000
16535 11126 16579 1 149.00000 418.400000
16539 11127 16557 1 149.00000 418.400000
16541 11128 16635 1 149.00000 418.400000
16543 11129 16576 1 149.00000 418.400000
16550 11130 16569 1 149.00000 418.400000
16560 11131 16671 1 149.00000 418.400000
16571 11132 16671 1 149.00000 418.400000
16591 11133 16650 1 149.00000 418.400000
16602 11134 16679 1 149.00000 418.400000
16604 11135 16663 1 149.00000 418.400000
16633 11136 16689 1 149.00000 418.400000
16638 11137 21023 1 149.00000 418.400000
11427 11138 12163 1 149.00000 418.400000
11427 11139 11441 1 149.00000 418.400000
16488 11140 18058 1 149.00000 418.400000
11460 11141 15519 1 149.00000 418.400000
11475 11142 15757 1 149.00000 418.400000
11478 11143 12351 1 149.00000 418.400000
11515 11144 15042 1 149.00000 418.400000
11527 11145 16649 1 149.00000 418.400000
11530 11146 14238 1 149.00000 418.400000
11533 11147 15424 1 149.00000 418.400000
11537 11148 13267 1 149.00000 418.400000
11568 11149 12955 1 149.00000 418.400000
11607 11150 13970 1 149.00000 418.400000
11628 11151 13596 1 149.00000 418.400000
11638 11152 12547 1 149.00000 418.400000
16632 11153 18082 1 149.00000 418.400000
11561 11154 11730 1 149.00000 418.400000
11738 11155 14888 1 149.00000 418.400000
11776 11156 12782 1 149.00000 418.400000
11795 11157 12221 1 149.00000 418.400000
11804 11158 14883 1 149.00000 418.400000
11806 11159 13198 1 149.00000 418.400000
11812 11160 15101 1 149.00000 418.400000
11814 11161 14703 1 149.00000 418.400000
11537 11162 11831 1 149.00000 418.400000
11860 11163 16081 1 149.00000 418.400000
14814 11164 18118 1 149.00000 418.400000
11879 11165 14361 1 149.00000 418.400000
11887 11166 14389 1 149.00000 418.400000
11412 11167 11906 1 149.00000 418.400000
11922 11168 16158 1 149.00000 418.400000
11964 11169 13201 1 149.00000 418.400000
11651 11170 11979 1 149.00000 418.400000
11993 11171 15166 1 149.00000 418.400000
11814 11172 12005 1 149.00000 418.400000
12021 11173 14996 1 149.00000 418.400000
12031 11174 13000 1 149.00000 418.400000
12050 11175 14044 1 149.00000 418.400000
13849 11176 18154 1 149.00000 418.400000
12058 11177 12783 1 149.00000 418.400000
12094 11178 13485 1 149.00000 418.400000
12096 11179 15348 1 149.00000 418.400000
12105 11180 12231 1 149.00000 418.400000
12130 11181 16052 1 149.00000 418.400000
11812 11182 12142 1 149.00000 418.400000
12185 11183 12250 1 149.00000 418.400000
12210 11184 12894 1 149.00000 418.400000
12257 11185 15928 1 149.00000 418.400000
12267 11186 12786 1 149.00000 418.400000
11738 11187 12269 1 149.00000 418.400000
12825 11188 18214 1 149.00000 418.400000
15409 11189 18226 1 149.00000 418.400000
11887 11190 18238 1 149.00000 418.400000
15153 11191 18262 1 149.00000 418.400000
12131 11192 18274 1 149.00000 418.400000
14705 11193 18322 1 149.00000 418.400000
14054 11194 18346 1 149.00000 418.400000
15984 11195 18382 1 149.00000 418.400000
12430 11196 16578 1 149.00000 418.400000
14262 11197 18454 1 149.00000 418.400000
11441 11198 18526 1 149.00000 418.400000
14868 11199 18586 1 149.00000 418.400000
14972 11200 18598 1 149.00000 418.400000
12615 11201 15867 1 149.00000 418.400000
12642 11202 13413 1 149.00000 418.400000
12674 11203 15046 1 149.00000 418.400000
16132 11204 18646 1 149.00000 418.400000
13306 11205 18658 1 149.00000 418.400000
12373 11206 18670 1 149.00000 418.400000
11414 11207 12703 1 149.00000 418.400000
12337 11208 12705 1 149.00000 418.400000
14958 11209 18778 1 149.00000 418.400000
13435 11210 18790 1 149.00000 418.400000
12790 11211 13626 1 149.00000 418.400000
12135 11212 18826 1 149.00000 418.400000
12705 11213 12800 1 149.00000 418.400000
14678 11214 18850 1 149.00000 418.400000
12807 11215 16057 1 149.00000 418.400000
15448 11216 18862 1 149.00000 418.400000
16139 11217 18874 1 149.00000 418.400000
15217 11218 18886 1 149.00000 418.400000
16307 11219 18922 1 149.00000 418.400000
13643 11220 18934 1 149.00000 418.400000
12252 11221 12845 1 149.00000 418.400000
11426 11222 18982 1 149.00000 418.400000
13250 11223 18994 1 149.00000 418.400000
16432 11224 19066 1 149.00000 418.400000
14173 11225 19078 1 149.00000 418.400000
12922 11226 19090 1 149.00000 418.400000
15966 11227 19138 1 149.00000 418.400000
15007 11228 19150 1 149.00000 418.400000
15055 11229 19162 1 149.00000 418.400000
16227 11230 19174 1 149.00000 418.400000
15882 11231 19198 1 149.00000 418.400000
16614 11232 19210 1 149.00000 418.400000
11993 11233 19234 1 149.00000 418.400000
11530 11234 19246 1 149.00000 418.400000
11503 11235 12985 1 149.00000 418.400000
11410 11236 13017 1 149.00000 418.400000
15134 11237 19378 1 149.00000 418.400000
13078 11238 14278 1 149.00000 418.400000
12701 11239 19486 1 149.00000 418.400000
16475 11240 19534 1 149.00000 418.400000
15930 11241 19642 1 149.00000 418.400000
14566 11242 19654 1 149.00000 418.400000
11925 11243 19666 1 149.00000 418.400000
13586 11244 19762 1 149.00000 418.400000
16647 11245 19810 1 149.00000 418.400000
12264 11246 19822 1 149.00000 418.400000
13290 11247 19846 1 149.00000 418.400000
13292 11248 16416 1 149.00000 418.400000
12790 11249 19894 1 149.00000 418.400000
12576 11250 19918 1 149.00000 418.400000
11967 11251 19945 1 149.00000 418.400000
11760 11252 19954 1 149.00000 418.400000
13877 11253 19960 1 149.00000 418.400000
14615 11254 19969 1 149.00000 418.400000
11861 11255 13415 1 149.00000 418.400000
14387 11256 19972 1 149.00000 418.400000
15639 11257 19981 1 149.00000 418.400000
14903 11258 19984 1 149.00000 418.400000
11806 11259 19996 1 149.00000 418.400000
12800 11260 20002 1 149.00000 418.400000
12026 11261 13550 1 149.00000 418.400000
11527 11262 20011 1 149.00000 418.400000
13415 11263 13587 1 149.00000 418.400000
13587 11264 18430 1 149.00000 418.400000
12185 11265 20020 1 149.00000 418.400000
12436 11266 20032 1 149.00000 418.400000
14451 11267 20038 1 149.00000 418.400000
11494 11268 13683 1 149.00000 418.400000
13686 11269 14902 1 149.00000 418.400000
13686 11270 18442 1 149.00000 418.400000
14418 11271 20044 1 149.00000 418.400000
12674 11272 20047 1 149.00000 418.400000
14428 11273 20062 1 149.00000 418.400000
15955 11274 20065 1 149.00000 418.400000
12789 11275 20068 1 149.00000 418.400000
14012 11276 20071 1 149.00000 418.400000
14007 11277 20080 1 149.00000 418.400000
11687 11278 20083 1 149.00000 418.400000
14297 11279 20086 1 149.00000 418.400000
12267 11280 13800 1 149.00000 418.400000
13297 11281 20092 1 149.00000 418.400000
15405 11282 20113 1 149.00000 418.400000
13608 11283 20119 1 149.00000 418.400000
12817 11284 20128 1 149.00000 418.400000
12615 11285 20134 1 149.00000 418.400000
14766 11286 20137 1 149.00000 418.400000
15680 11287 20140 1 149.00000 418.400000
15173 11288 20146 1 149.00000 418.400000
14246 11289 20164 1 149.00000 418.400000
12976 11290 20167 1 149.00000 418.400000
12845 11291 20176 1 149.00000 418.400000
12289 11292 14059 1 149.00000 418.400000
15848 11293 20179 1 149.00000 418.400000
16077 11294 20185 1 149.00000 418.400000
12646 11295 20188 1 149.00000 418.400000
12142 11296 20200 1 149.00000 418.400000
15812 11297 20206 1 149.00000 418.400000
15709 11298 20215 1 149.00000 418.400000
16375 11299 20224 1 149.00000 418.400000
14187 11300 15060 1 149.00000 418.400000
11566 11301 14189 1 149.00000 418.400000
12435 11302 20227 1 149.00000 418.400000
11446 11303 20233 1 149.00000 418.400000
11972 11304 20236 1 149.00000 418.400000
14352 11305 20248 1 149.00000 418.400000
11870 11306 20251 1 149.00000 418.400000
14061 11307 14330 1 149.00000 418.400000
13629 11308 20260 1 149.00000 418.400000
14334 11309 14809 1 149.00000 418.400000
14562 11310 20263 1 149.00000 418.400000
12052 11311 20266 1 149.00000 418.400000
12924 11312 14350 1 149.00000 418.400000
14334 11313 14356 1 149.00000 418.400000
14356 11314 19987 1 149.00000 418.400000
14111 11315 20278 1 149.00000 418.400000
12574 11316 20284 1 149.00000 418.400000
15129 11317 20290 1 149.00000 418.400000
14175 11318 20299 1 149.00000 418.400000
13157 11319 20302 1 149.00000 418.400000
11417 11320 13254 1 149.00000 418.400000
11433 11321 13425 1 149.00000 418.400000
11442 11322 13508 1 149.00000 418.400000
11460 11323 16135 1 149.00000 418.400000
11468 11324 15370 1 149.00000 418.400000
11471 11325 12688 1 149.00000 418.400000
11473 11326 14315 1 149.00000 418.400000
11474 11327 15787 1 149.00000 418.400000
11475 11328 13800 1 149.00000 418.400000
11478 11329 12210 1 149.00000 418.400000
11483 11330 13526 1 149.00000 418.400000
11486 11331 13567 1 149.00000 418.400000
11508 11332 12903 1 149.00000 418.400000
11515 11333 15556 1 149.00000 418.400000
11521 11334 12554 1 149.00000 418.400000
11533 11335 15547 1 149.00000 418.400000
11548 11336 12352 1 149.00000 418.400000
11549 11337 14014 1 149.00000 418.400000
11560 11338 15834 1 149.00000 418.400000
11568 11339 13452 1 149.00000 418.400000
11573 11340 12793 1 149.00000 418.400000
11578 11341 12807 1 149.00000 418.400000
11592 11342 13344 1 149.00000 418.400000
11594 11343 14189 1 149.00000 418.400000
11606 11344 15747 1 149.00000 418.400000
11607 11345 14833 1 149.00000 418.400000
11623 11346 12293 1 149.00000 418.400000
11625 11347 12975 1 149.00000 418.400000
11627 11348 16206 1 149.00000 418.400000
11628 11349 13017 1 149.00000 418.400000
11638 11350 15753 1 149.00000 418.400000
11674 11351 12703 1 149.00000 418.400000
11689 11352 16411 1 149.00000 418.400000
11692 11353 15511 1 149.00000 418.400000
11711 11354 12150 1 149.00000 418.400000
11730 11355 14187 1 149.00000 418.400000
11743 11356 12219 1 149.00000 418.400000
11747 11357 12633 1 149.00000 418.400000
11772 11358 13321 1 149.00000 418.400000
11776 11359 15961 1 149.00000 418.400000
11786 11360 14363 1 149.00000 418.400000
11788 11361 15752 1 149.00000 418.400000
11793 11362 12391 1 149.00000 418.400000
11795 11363 12128 1 149.00000 418.400000
11804 11364 12642 1 149.00000 418.400000
11808 11365 12985 1 149.00000 418.400000
11831 11366 13492 1 149.00000 418.400000
11856 11367 15058 1 149.00000 418.400000
11860 11368 16285 1 149.00000 418.400000
11871 11369 15299 1 149.00000 418.400000
11879 11370 13683 1 149.00000 418.400000
11882 11371 14866 1 149.00000 418.400000
11885 11372 16320 1 149.00000 418.400000
11890 11373 13671 1 149.00000 418.400000
11892 11374 13078 1 149.00000 418.400000
11897 11375 11964 1 149.00000 418.400000
11906 11376 14362 1 149.00000 418.400000
11921 11377 13292 1 149.00000 418.400000
11922 11378 14089 1 149.00000 418.400000
11929 11379 14059 1 149.00000 418.400000
11931 11380 15132 1 149.00000 418.400000
11971 11381 13216 1 149.00000 418.400000
11973 11382 13384 1 149.00000 418.400000
11979 11383 12811 1 149.00000 418.400000
11989 11384 13225 1 149.00000 418.400000
12005 11385 13718 1 149.00000 418.400000
12009 11386 14105 1 149.00000 418.400000
12010 11387 12048 1 149.00000 418.400000
12011 11388 12430 1 149.00000 418.400000
12021 11389 13550 1 149.00000 418.400000
12031 11390 15703 1 149.00000 418.400000
12049 11391 14892 1 149.00000 418.400000
12050 11392 13119 1 149.00000 418.400000
12058 11393 15516 1 149.00000 418.400000
12086 11394 15437 1 149.00000 418.400000
12087 11395 15906 1 149.00000 418.400000
12092 11396 16581 1 149.00000 418.400000
12094 11397 12726 1 149.00000 418.400000
12096 11398 14350 1 149.00000 418.400000
12102 11399 12402 1 149.00000 418.400000
12105 11400 13534 1 149.00000 418.400000
12107 11401 16301 1 149.00000 418.400000
12121 11402 15769 1 149.00000 418.400000
12130 11403 14330 1 149.00000 418.400000
12172 11404 15958 1 149.00000 418.400000
12239 11405 16008 1 149.00000 418.400000
12251 11406 12934 1 149.00000 418.400000
12257 11407 13359 1 149.00000 418.400000
12269 11408 13164 1 149.00000 418.400000
1 11409 2 1 109.50000 418.400000
1 11409 3 1 109.50000 418.400000
1 11409 4 1 109.50000 418.400000
2 11409 3 1 109.50000 418.400000
2 11409 4 1 109.50000 418.400000
3 11409 4 1 109.50000 418.400000
5 11410 6 1 109.50000 418.400000
5 11410 3184 1 109.50000 418.400000
5 11410 11236 1 109.50000 418.400000
6 11410 3184 1 109.50000 418.400000
6 11410 11236 1 109.50000 418.400000
3184 11410 11236 1 109.50000 418.400000
7 11411 8 1 109.50000 418.400000
7 11411 9 1 109.50000 418.400000
7 11411 10 1 109.50000 418.400000
8 11411 9 1 109.50000 418.400000
8 11411 10 1 109.50000 418.400000
9 11411 10 1 109.50000 418.400000
11 11412 12 1 109.50000 418.400000
11 11412 13 1 109.50000 418.400000
11 11412 11167 1 109.50000 418.400000
12 11412 13 1 109.50000 418.400000
12 11412 11167 1 109.50000 418.400000
13 11412 11167 1 109.50000 418.400000
14 11413 15 1 109.50000 418.400000
14 11413 16 1 109.50000 418.400000
14 11413 17 1 109.50000 418.400000
15 11413 16 1 109.50000 418.400000
15 11413 17 1 109.50000 418.400000
16 11413 17 1 109.50000 418.400000
19 11414 20 1 109.50000 418.400000
19 11414 21 1 109.50000 418.400000
19 11414 11207 1 109.50000 418.400000
20 11414 21 1 109.50000 418.400000
20 11414 11207 1 109.50000 418.400000
21 11414 11207 1 109.50000 418.400000
22 11415 23 1 109.50000 418.400000
22 11415 24 1 109.50000 418.400000
22 11415 25 1 109.50000 418.400000
23 11415 24 1 109.50000 418.400000
23 11415 25 1 109.50000 418.400000
24 11415 25 1 109.50000 418.400000
26 11416 27 1 109.50000 418.400000
26 11416 28 1 109.50000 418.400000
26 11416 29 1 109.50000 418.400000
27 11416 28 1 109.50000 418.400000
27 11416 29 1 109.50000 418.400000
28 11416 29 1 109.50000 418.400000
30 11417 31 1 109.50000 418.400000
30 11417 32 1 109.50000 418.400000
30 11417 11320 1 109.50000 418.400000
31 11417 32 1 109.50000 418.400000
31 11417 11320 1 109.50000 418.400000
32 11417 11320 1 109.50000 418.400000
33 11418 34 1 109.50000 418.400000
33 11418 35 1 109.50000 418.400000
33 11418 36 1 109.50000 418.400000
34 11418 35 1 109.50000 418.400000
34 11418 36 1 109.50000 418.400000
35 11418 36 1 109.50000 418.400000
37 11419 38 1 109.50000 418.400000
37 11419 39 1 109.50000 418.400000
37 11419 40 1 109.50000 418.400000
38 11419 39 1 109.50000 418.400000
38 11419 40 1 109.50000 418.400000
39 11419 40 1 109.50000 418.400000
41 11420 42 1 109.50000 418.400000
41 11420 43 1 109.50000 418.400000
41 11420 44 1 109.50000 418.400000
42 11420 43 1 109.50000 418.400000
42 11420 44 1 109.50000 418.400000
43 11420 44 1 109.50000 418.400000
45 11421 46 1 109.50000 418.400000
45 11421 47 1 109.50000 418.400000
45 11421 48 1 109.50000 418.400000
46 11421 47 1 109.50000 418.400000
46 11421 48 1 109.50000 418.400000
47 11421 48 1 109.50000 418.400000
49 11422 50 1 109.50000 418.400000
49 11422 51 1 109.50000 418.400000
49 11422 52 1 109.50000 418.400000
50 11422 51 1 109.50000 418.400000
50 11422 52 1 109.50000 418.400000
51 11422 52 1 109.50000 418.400000
53 11423 54 1 109.50000 418.400000
53 11423 55 1 109.50000 418.400000
53 11423 56 1 109.50000 418.400000
54 11423 55 1 109.50000 418.400000
54 11423 56 1 109.50000 418.400000
55 11423 56 1 109.50000 418.400000
57 11424 58 1 109.50000 418.400000
57 11424 59 1 109.50000 418.400000
57 11424 60 1 109.50000 418.400000
58 11424 59 1 109.50000 418.400000
58 11424 60 1 109.50000 418.400000
59 11424 60 1 109.50000 418.400000
61 11425 62 1 109.50000 418.400000
61 11425 63 1 109.50000 418.400000
61 11425 64 1 109.50000 418.400000
62 11425 63 1 109.50000 418.400000
62 11425 64 1 109.50000 418.400000
63 11425 64 1 109.50000 418.400000
65 11426 66 1 109.50000 418.400000
65 11426 67 1 109.50000 418.400000
65 11426 11222 1 109.50000 418.400000
66 11426 67 1 109.50000 418.400000
66 11426 11222 1 109.50000 418.400000
67 11426 11222 1 109.50000 418.400000
68 11427 69 1 109.50000 418.400000
68 11427 11138 1 109.50000 418.400000
68 11427 11139 1 109.50000 418.400000
69 11427 11138 1 109.50000 418.400000
69 11427 11139 1 109.50000 418.400000
11138 11427 11139 1 109.50000 418.400000
70 11428 71 1 109.50000 418.400000
70 11428 72 1 109.50000 418.400000
70 11428 73 1 109.50000 418.400000
71 11428 72 1 109.50000 418.400000
71 11428 73 1 109.50000 418.400000
72 11428 73 1 109.50000 418.400000
74 11429 75 1 109.50000 418.400000
74 11429 76 1 109.50000 418.400000
74 11429 77 1 109.50000 418.400000
75 11429 76 1 109.50000 418.400000
75 11429 77 1 109.50000 418.400000
76 11429 77 1 109.50000 418.400000
78 11430 79 1 109.50000 418.400000
78 11430 80 1 109.50000 418.400000
78 11430 81 1 109.50000 418.400000
79 11430 80 1 109.50000 418.400000
79 11430 81 1 109.50000 418.400000
80 11430 81 1 109.50000 418.400000
82 11431 83 1 109.50000 418.400000
82 11431 84 1 109.50000 418.400000
82 11431 85 1 109.50000 418.400000
83 11431 84 1 109.50000 418.400000
83 11431 85 1 109.50000 418.400000
84 11431 85 1 109.50000 418.400000
87 11432 88 1 109.50000 418.400000
87 11432 89 1 109.50000 418.400000
87 11432 5157 1 109.50000 418.400000
88 11432 89 1 109.50000 418.400000
88 11432 5157 1 109.50000 418.400000
89 11432 5157 1 109.50000 418.400000
90 11433 91 1 109.50000 418.400000
90 11433 92 1 109.50000 418.400000
90 11433 11321 1 109.50000 418.400000
91 11433 92 1 109.50000 418.400000
91 11433 11321 1 109.50000 418.400000
92 11433 11321 1 109.50000 418.400000
93 11434 94 1 109.50000 418.400000
93 11434 95 1 109.50000 418.400000
93 11434 96 1 109.50000 418.400000
94 11434 95 1 109.50000 418.400000
94 11434 96 1 109.50000 418.400000
95 11434 96 1 109.50000 418.400000
97 11435 98 1 109.50000 418.400000
97 11435 99 1 109.50000 418.400000
97 11435 100 1 109.50000 418.400000
98 11435 99 1 109.50000 418.400000
98 11435 100 1 109.50000 418.400000
99 11435 100 1 109.50000 418.400000
101 11436 102 1 109.50000 418.400000
101 11436 103 1 109.50000 418.400000
101 11436 104 1 109.50000 418.400000
102 11436 103 1 109.50000 418.400000
102 11436 104 1 109.50000 418.400000
103 11436 104 1 109.50000 418.400000
105 11437 106 1 109.50000 418.400000
105 11437 107 1 109.50000 418.400000
105 11437 108 1 109.50000 418.400000
106 11437 107 1 109.50000 418.400000
106 11437 108 1 109.50000 418.400000
107 11437 108 1 109.50000 418.400000
109 11438 110 1 109.50000 418.400000
109 11438 111 1 109.50000 418.400000
109 11438 112 1 109.50000 418.400000
110 11438 111 1 109.50000 418.400000
110 11438 112 1 109.50000 418.400000
111 11438 112 1 109.50000 418.400000
113 11439 114 1 109.50000 418.400000
113 11439 115 1 109.50000 418.400000
113 11439 116 1 109.50000 418.400000
114 11439 115 1 109.50000 418.400000
114 11439 116 1 109.50000 418.400000
115 11439 116 1 109.50000 418.400000
117 11440 118 1 109.50000 418.400000
117 11440 119 1 109.50000 418.400000
117 11440 120 1 109.50000 418.400000
118 11440 119 1 109.50000 418.400000
118 11440 120 1 109.50000 418.400000
119 11440 120 1 109.50000 418.400000
121 11441 122 1 109.50000 418.400000
121 11441 11139 1 109.50000 418.400000
121 11441 11198 1 109.50000 418.400000
122 11441 11139 1 109.50000 418.400000
122 11441 11198 1 109.50000 418.400000
11139 11441 11198 1 109.50000 418.400000
123 11442 124 1 109.50000 418.400000
123 11442 125 1 109.50000 418.400000
123 11442 11322 1 109.50000 418.400000
124 11442 125 1 109.50000 418.400000
124 11442 11322 1 109.50000 418.400000
125 11442 11322 1 109.50000 418.400000
126 11443 127 1 109.50000 418.400000
126 11443 128 1 109.50000 418.400000
126 11443 129 1 109.50000 418.400000
127 11443 128 1 109.50000 418.400000
127 11443 129 1 109.50000 418.400000
128 11443 129 1 109.50000 418.400000
130 11444 131 1 109.50000 418.400000
130 11444 132 1 109.50000 418.400000
130 11444 133 1 109.50000 418.400000
131 11444 132 1 109.50000 418.400000
131 11444 133 1 109.50000 418.400000
132 11444 133 1 109.50000 418.400000
127 11445 134 1 109.50000 418.400000
127 11445 135 1 109.50000 418.400000
127 11445 136 1 109.50000 418.400000
134 11445 135 1 109.50000 418.400000
134 11445 136 1 109.50000 418.400000
135 11445 136 1 109.50000 418.400000
137 11446 138 1 109.50000 418.400000
137 11446 139 1 109.50000 418.400000
137 11446 11303 1 109.50000 418.400000
138 11446 139 1 109.50000 418.400000
138 11446 11303 1 109.50000 418.400000
139 11446 11303 1 109.50000 418.400000
140 11447 141 1 109.50000 418.400000
140 11447 142 1 109.50000 418.400000
140 11447 143 1 109.50000 418.400000
141 11447 142 1 109.50000 418.400000
141 11447 143 1 109.50000 418.400000
142 11447 143 1 109.50000 418.400000
144 11448 145 1 109.50000 418.400000
144 11448 146 1 109.50000 418.400000
144 11448 147 1 109.50000 418.400000
145 11448 146 1 109.50000 418.400000
145 11448 147 1 109.50000 418.400000
146 11448 147 1 109.50000 418.400000
149 11449 150 1 109.50000 418.400000
149 11449 151 1 109.50000 418.400000
149 11449 3054 1 109.50000 418.400000
150 11449 151 1 109.50000 418.400000
150 11449 3054 1 109.50000 418.400000
151 11449 3054 1 109.50000 418.400000
152 11450 153 1 109.50000 418.400000
152 11450 154 1 109.50000 418.400000
152 11450 155 1 109.50000 418.400000
153 11450 154 1 109.50000 418.400000
153 11450 155 1 109.50000 418.400000
154 11450 155 1 109.50000 418.400000
14 11451 156 1 109.50000 418.400000
14 11451 157 1 109.50000 418.400000
14 11451 158 1 109.50000 418.400000
156 11451 157 1 109.50000 418.400000
156 11451 158 1 109.50000 418.400000
157 11451 158 1 109.50000 418.400000
160 11452 161 1 109.50000 418.400000
160 11452 162 1 109.50000 418.400000
160 11452 7368 1 109.50000 418.400000
161 11452 162 1 109.50000 418.400000
161 11452 7368 1 109.50000 418.400000
162 11452 7368 1 109.50000 418.400000
163 11453 164 1 109.50000 418.400000
163 11453 165 1 109.50000 418.400000
163 11453 166 1 109.50000 418.400000
164 11453 165 1 109.50000 418.400000
164 11453 166 1 109.50000 418.400000
165 11453 166 1 109.50000 418.400000
63 11454 167 1 109.50000 418.400000
63 11454 168 1 109.50000 418.400000
63 11454 169 1 109.50000 418.400000
167 11454 168 1 109.50000 418.400000
167 11454 169 1 109.50000 418.400000
168 11454 169 1 109.50000 418.400000
170 11455 171 1 109.50000 418.400000
170 11455 172 1 109.50000 418.400000
170 11455 173 1 109.50000 418.400000
171 11455 172 1 109.50000 418.400000
171 11455 173 1 109.50000 418.400000
172 11455 173 1 109.50000 418.400000
174 11456 175 1 109.50000 418.400000
174 11456 176 1 109.50000 418.400000
174 11456 177 1 109.50000 418.400000
175 11456 176 1 109.50000 418.400000
175 11456 177 1 109.50000 418.400000
176 11456 177 1 109.50000 418.400000
180 11457 181 1 109.50000 418.400000
180 11457 182 1 109.50000 418.400000
180 11457 183 1 109.50000 418.400000
181 11457 182 1 109.50000 418.400000
181 11457 183 1 109.50000 418.400000
182 11457 183 1 109.50000 418.400000
184 11458 185 1 109.50000 418.400000
184 11458 186 1 109.50000 418.400000
184 11458 187 1 109.50000 418.400000
185 11458 186 1 109.50000 418.400000
185 11458 187 1 109.50000 418.400000
186 11458 187 1 109.50000 418.400000
188 11459 189 1 109.50000 418.400000
188 11459 190 1 109.50000 418.400000
188 11459 191 1 109.50000 418.400000
189 11459 190 1 109.50000 418.400000
189 11459 191 1 109.50000 418.400000
190 11459 191 1 109.50000 418.400000
192 11460 1858 1 109.50000 418.400000
192 11460 11141 1 109.50000 418.400000
192 11460 11323 1 109.50000 418.400000
1858 11460 11141 1 109.50000 418.400000
1858 11460 11323 1 109.50000 418.400000
11141 11460 11323 1 109.50000 418.400000
193 11461 194 1 109.50000 418.400000
193 11461 195 1 109.50000 418.400000
193 11461 196 1 109.50000 418.400000
194 11461 195 1 109.50000 418.400000
194 11461 196 1 109.50000 418.400000
195 11461 196 1 109.50000 418.400000
197 11462 198 1 109.50000 418.400000
197 11462 199 1 109.50000 418.400000
197 11462 200 1 109.50000 418.400000
198 11462 199 1 109.50000 418.400000
198 11462 200 1 109.50000 418.400000
199 11462 200 1 109.50000 418.400000
201 11463 202 1 109.50000 418.400000
201 11463 203 1 109.50000 418.400000
201 11463 8675 1 109.50000 418.400000
202 11463 203 1 109.50000 418.400000
202 11463 8675 1 109.50000 418.400000
203 11463 8675 1 109.50000 418.400000
206 11464 207 1 109.50000 418.400000
206 11464 208 1 109.50000 418.400000
206 11464 2442 1 109.50000 418.400000
207 11464 208 1 109.50000 418.400000
207 11464 2442 1 109.50000 418.400000
208 11464 2442 1 109.50000 418.400000
209 11465 210 1 109.50000 418.400000
209 11465 211 1 109.50000 418.400000
209 11465 212 1 109.50000 418.400000
210 11465 211 1 109.50000 418.400000
210 11465 212 1 109.50000 418.400000
211 11465 212 1 109.50000 418.400000
214 11466 215 1 109.50000 418.400000
214 11466 216 1 109.50000 418.400000
214 11466 1197 1 109.50000 418.400000
215 11466 216 1 109.50000 418.400000
215 11466 1197 1 109.50000 418.400000
216 11466 1197 1 109.50000 418.400000
217 11467 218 1 109.50000 418.400000
217 11467 219 1 109.50000 418.400000
217 11467 220 1 109.50000 418.400000
218 11467 219 1 109.50000 418.400000
218 11467 220 1 109.50000 418.400000
219 11467 220 1 109.50000 418.400000
221 11468 222 1 109.50000 418.400000
221 11468 223 1 109.50000 418.400000
221 11468 11324 1 109.50000 418.400000
222 11468 223 1 109.50000 418.400000
222 11468 11324 1 109.50000 418.400000
223 11468 11324 1 109.50000 418.400000
224 11469 225 1 109.50000 418.400000
224 11469 226 1 109.50000 418.400000
224 11469 227 1 109.50000 418.400000
225 11469 226 1 109.50000 418.400000
225 11469 227 1 109.50000 418.400000
226 11469 227 1 109.50000 418.400000
228 11470 229 1 109.50000 418.400000
228 11470 230 1 109.50000 418.400000
228 11470 231 1 109.50000 418.400000
229 11470 230 1 109.50000 418.400000
229 11470 231 1 109.50000 418.400000
230 11470 231 1 109.50000 418.400000
232 11471 233 1 109.50000 418.400000
232 11471 234 1 109.50000 418.400000
232 11471 11325 1 109.50000 418.400000
233 11471 234 1 109.50000 418.400000
233 11471 11325 1 109.50000 418.400000
234 11471 11325 1 109.50000 418.400000
237 11472 8525 1 109.50000 418.400000
237 11472 8526 1 109.50000 418.400000
237 11472 8527 1 109.50000 418.400000
8525 11472 8526 1 109.50000 418.400000
8525 11472 8527 1 109.50000 418.400000
8526 11472 8527 1 109.50000 418.400000
239 11473 240 1 109.50000 418.400000
239 11473 241 1 109.50000 418.400000
239 11473 11326 1 109.50000 418.400000
240 11473 241 1 109.50000 418.400000
240 11473 11326 1 109.50000 418.400000
241 11473 11326 1 109.50000 418.400000
242 11474 243 1 109.50000 418.400000
242 11474 244 1 109.50000 418.400000
242 11474 11327 1 109.50000 418.400000
243 11474 244 1 109.50000 418.400000
243 11474 11327 1 109.50000 418.400000
244 11474 11327 1 109.50000 418.400000
245 11475 9797 1 109.50000 418.400000
245 11475 11142 1 109.50000 418.400000
245 11475 11328 1 109.50000 418.400000
9797 11475 11142 1 109.50000 418.400000
9797 11475 11328 1 109.50000 418.400000
11142 11475 11328 1 109.50000 418.400000
246 11476 247 1 109.50000 418.400000
246 11476 248 1 109.50000 418.400000
246 11476 249 1 109.50000 418.400000
247 11476 248 1 109.50000 418.400000
247 11476 249 1 109.50000 418.400000
248 11476 249 1 109.50000 418.400000
251 11477 252 1 109.50000 418.400000
251 11477 253 1 109.50000 418.400000
251 11477 10275 1 109.50000 418.400000
252 11477 253 1 109.50000 418.400000
252 11477 10275 1 109.50000 418.400000
253 11477 10275 1 109.50000 418.400000
254 11478 255 1 109.50000 418.400000
254 11478 11143 1 109.50000 418.400000
254 11478 11329 1 109.50000 418.400000
255 11478 11143 1 109.50000 418.400000
255 11478 11329 1 109.50000 418.400000
11143 11478 11329 1 109.50000 418.400000
256 11479 257 1 109.50000 418.400000
256 11479 258 1 109.50000 418.400000
256 11479 259 1 109.50000 418.400000
257 11479 258 1 109.50000 418.400000
257 11479 259 1 109.50000 418.400000
258 11479 259 1 109.50000 418.400000
260 11480 261 1 109.50000 418.400000
260 11480 262 1 109.50000 418.400000
260 11480 263 1 109.50000 418.400000
261 11480 262 1 109.50000 418.400000
261 11480 263 1 109.50000 418.400000
262 11480 263 1 109.50000 418.400000
264 11481 265 1 109.50000 418.400000
264 11481 266 1 109.50000 418.400000
264 11481 267 1 109.50000 418.400000
265 11481 266 1 109.50000 418.400000
265 11481 267 1 109.50000 418.400000
266 11481 267 1 109.50000 418.400000
268 11482 269 1 109.50000 418.400000
268 11482 270 1 109.50000 418.400000
268 11482 271 1 109.50000 418.400000
269 11482 270 1 109.50000 418.400000
269 11482 271 1 109.50000 418.400000
270 11482 271 1 109.50000 418.400000
272 11483 273 1 109.50000 418.400000
272 11483 274 1 109.50000 418.400000
272 11483 11330 1 109.50000 418.400000
273 11483 274 1 109.50000 418.400000
273 11483 11330 1 109.50000 418.400000
274 11483 11330 1 109.50000 418.400000
275 11484 276 1 109.50000 418.400000
275 11484 277 1 109.50000 418.400000
275 11484 278 1 109.50000 418.400000
276 11484 277 1 109.50000 418.400000
276 11484 278 1 109.50000 418.400000
277 11484 278 1 109.50000 418.400000
279 11485 280 1 109.50000 418.400000
279 11485 281 1 109.50000 418.400000
279 11485 282 1 109.50000 418.400000
280 11485 281 1 109.50000 418.400000
280 11485 282 1 109.50000 418.400000
281 11485 282 1 109.50000 418.400000
283 11486 284 1 109.50000 418.400000
283 11486 285 1 109.50000 418.400000
283 11486 11331 1 109.50000 418.400000
284 11486 285 1 109.50000 418.400000
284 11486 11331 1 109.50000 418.400000
285 11486 11331 1 109.50000 418.400000
286 11487 287 1 109.50000 418.400000
286 11487 288 1 109.50000 418.400000
286 11487 289 1 109.50000 418.400000
287 11487 288 1 109.50000 418.400000
287 11487 289 1 109.50000 418.400000
288 11487 289 1 109.50000 418.400000
290 11488 291 1 109.50000 418.400000
290 11488 292 1 109.50000 418.400000
290 11488 1212 1 109.50000 418.400000
291 11488 292 1 109.50000 418.400000
291 11488 1212 1 109.50000 418.400000
292 11488 1212 1 109.50000 418.400000
294 11489 295 1 109.50000 418.400000
294 11489 296 1 109.50000 418.400000
294 11489 9847 1 109.50000 418.400000
295 11489 296 1 109.50000 418.400000
295 11489 9847 1 109.50000 418.400000
296 11489 9847 1 109.50000 418.400000
298 11490 299 1 109.50000 418.400000
298 11490 300 1 109.50000 418.400000
298 11490 301 1 109.50000 418.400000
299 11490 300 1 109.50000 418.400000
299 11490 301 1 109.50000 418.400000
300 11490 301 1 109.50000 418.400000
302 11491 303 1 109.50000 418.400000
302 11491 304 1 109.50000 418.400000
302 11491 305 1 109.50000 418.400000
303 11491 304 1 109.50000 418.400000
303 11491 305 1 109.50000 418.400000
304 11491 305 1 109.50000 418.400000
306 11492 307 1 109.50000 418.400000
306 11492 308 1 109.50000 418.400000
306 11492 309 1 109.50000 418.400000
307 11492 308 1 109.50000 418.400000
307 11492 309 1 109.50000 418.400000
308 11492 309 1 109.50000 418.400000
310 11493 311 1 109.50000 418.400000
310 11493 312 1 109.50000 418.400000
310 11493 313 1 109.50000 418.400000
311 11493 312 1 109.50000 418.400000
311 11493 313 1 109.50000 418.400000
312 11493 313 1 109.50000 418.400000
263 11494 314 1 109.50000 418.400000
263 11494 315 1 109.50000 418.400000
263 11494 11268 1 109.50000 418.400000
314 11494 315 1 109.50000 418.400000
314 11494 11268 1 109.50000 418.400000
315 11494 11268 1 109.50000 418.400000
316 11495 317 1 109.50000 418.400000
316 11495 318 1 109.50000 418.400000
316 11495 319 1 109.50000 418.400000
317 11495 318 1 109.50000 418.400000
317 11495 319 1 109.50000 418.400000
318 11495 319 1 109.50000 418.400000
289 11496 321 1 109.50000 418.400000
289 11496 322 1 109.50000 418.400000
289 11496 323 1 109.50000 418.400000
321 11496 322 1 109.50000 418.400000
321 11496 323 1 109.50000 418.400000
322 11496 323 1 109.50000 418.400000
324 11497 325 1 109.50000 418.400000
324 11497 326 1 109.50000 418.400000
324 11497 327 1 109.50000 418.400000
325 11497 326 1 109.50000 418.400000
325 11497 327 1 109.50000 418.400000
326 11497 327 1 109.50000 418.400000
328 11498 329 1 109.50000 418.400000
328 11498 330 1 109.50000 418.400000
328 11498 331 1 109.50000 418.400000
329 11498 330 1 109.50000 418.400000
329 11498 331 1 109.50000 418.400000
330 11498 331 1 109.50000 418.400000
332 11499 333 1 109.50000 418.400000
332 11499 334 1 109.50000 418.400000
332 11499 335 1 109.50000 418.400000
333 11499 334 1 109.50000 418.400000
333 11499 335 1 109.50000 418.400000
334 11499 335 1 109.50000 418.400000
338 11500 770 1 109.50000 418.400000
338 11500 5300 1 109.50000 418.400000
338 11500 5799 1 109.50000 418.400000
770 11500 5300 1 109.50000 418.400000
770 11500 5799 1 109.50000 418.400000
5300 11500 5799 1 109.50000 418.400000
340 11501 341 1 109.50000 418.400000
340 11501 342 1 109.50000 418.400000
340 11501 343 1 109.50000 418.400000
341 11501 342 1 109.50000 418.400000
341 11501 343 1 109.50000 418.400000
342 11501 343 1 109.50000 418.400000
344 11502 345 1 109.50000 418.400000
344 11502 346 1 109.50000 418.400000
344 11502 347 1 109.50000 418.400000
345 11502 346 1 109.50000 418.400000
345 11502 347 1 109.50000 418.400000
346 11502 347 1 109.50000 418.400000
350 11503 351 1 109.50000 418.400000
350 11503 6650 1 109.50000 418.400000
350 11503 11235 1 109.50000 418.400000
351 11503 6650 1 109.50000 418.400000
351 11503 11235 1 109.50000 418.400000
6650 11503 11235 1 109.50000 418.400000
352 11504 353 1 109.50000 418.400000
352 11504 354 1 109.50000 418.400000
352 11504 355 1 109.50000 418.400000
353 11504 354 1 109.50000 418.400000
353 11504 355 1 109.50000 418.400000
354 11504 355 1 109.50000 418.400000
356 11505 357 1 109.50000 418.400000
356 11505 358 1 109.50000 418.400000
356 11505 359 1 109.50000 418.400000
357 11505 358 1 109.50000 418.400000
357 11505 359 1 109.50000 418.400000
358 11505 359 1 109.50000 418.400000
360 11506 361 1 109.50000 418.400000
360 11506 362 1 109.50000 418.400000
360 11506 363 1 109.50000 418.400000
361 11506 362 1 109.50000 418.400000
361 11506 363 1 109.50000 418.400000
362 11506 363 1 109.50000 418.400000
364 11507 365 1 109.50000 418.400000
364 11507 366 1 109.50000 418.400000
364 11507 367 1 109.50000 418.400000
365 11507 366 1 109.50000 418.400000
365 11507 367 1 109.50000 418.400000
366 11507 367 1 109.50000 418.400000
369 11508 8212 1 109.50000 418.400000
369 11508 9394 1 109.50000 418.400000
369 11508 11332 1 109.50000 418.400000
8212 11508 9394 1 109.50000 418.400000
8212 11508 11332 1 109.50000 418.400000
9394 11508 11332 1 109.50000 418.400000
372 11509 374 1 109.50000 418.400000
372 11509 2432 1 109.50000 418.400000
372 11509 6266 1 109.50000 418.400000
374 11509 2432 1 109.50000 418.400000
374 11509 6266 1 109.50000 418.400000
2432 11509 6266 1 109.50000 418.400000
377 11510 378 1 109.50000 418.400000
377 11510 1946 1 109.50000 418.400000
377 11510 1948 1 109.50000 418.400000
378 11510 1946 1 109.50000 418.400000
378 11510 1948 1 109.50000 418.400000
1946 11510 1948 1 109.50000 418.400000
379 11511 380 1 109.50000 418.400000
379 11511 381 1 109.50000 418.400000
379 11511 382 1 109.50000 418.400000
380 11511 381 1 109.50000 418.400000
380 11511 382 1 109.50000 418.400000
381 11511 382 1 109.50000 418.400000
383 11512 384 1 109.50000 418.400000
383 11512 385 1 109.50000 418.400000
383 11512 386 1 109.50000 418.400000
384 11512 385 1 109.50000 418.400000
384 11512 386 1 109.50000 418.400000
385 11512 386 1 109.50000 418.400000
387 11513 388 1 109.50000 418.400000
387 11513 389 1 109.50000 418.400000
387 11513 390 1 109.50000 418.400000
388 11513 389 1 109.50000 418.400000
388 11513 390 1 109.50000 418.400000
389 11513 390 1 109.50000 418.400000
391 11514 392 1 109.50000 418.400000
391 11514 393 1 109.50000 418.400000
391 11514 394 1 109.50000 418.400000
392 11514 393 1 109.50000 418.400000
392 11514 394 1 109.50000 418.400000
393 11514 394 1 109.50000 418.400000
395 11515 396 1 109.50000 418.400000
395 11515 11144 1 109.50000 418.400000
395 11515 11333 1 109.50000 418.400000
396 11515 11144 1 109.50000 418.400000
396 11515 11333 1 109.50000 418.400000
11144 11515 11333 1 109.50000 418.400000
397 11516 399 1 109.50000 418.400000
397 11516 400 1 109.50000 418.400000
397 11516 4444 1 109.50000 418.400000
399 11516 400 1 109.50000 418.400000
399 11516 4444 1 109.50000 418.400000
400 11516 4444 1 109.50000 418.400000
401 11517 402 1 109.50000 418.400000
401 11517 403 1 109.50000 418.400000
401 11517 404 1 109.50000 418.400000
402 11517 403 1 109.50000 418.400000
402 11517 404 1 109.50000 418.400000
403 11517 404 1 109.50000 418.400000
405 11518 406 1 109.50000 418.400000
405 11518 408 1 109.50000 418.400000
405 11518 8729 1 109.50000 418.400000
406 11518 408 1 109.50000 418.400000
406 11518 8729 1 109.50000 418.400000
408 11518 8729 1 109.50000 418.400000
409 11519 410 1 109.50000 418.400000
409 11519 411 1 109.50000 418.400000
409 11519 412 1 109.50000 418.400000
410 11519 411 1 109.50000 418.400000
410 11519 412 1 109.50000 418.400000
411 11519 412 1 109.50000 418.400000
413 11520 414 1 109.50000 418.400000
413 11520 415 1 109.50000 418.400000
413 11520 416 1 109.50000 418.400000
414 11520 415 1 109.50000 418.400000
414 11520 416 1 109.50000 418.400000
415 11520 416 1 109.50000 418.400000
417 11521 418 1 109.50000 418.400000
417 11521 419 1 109.50000 418.400000
417 11521 11334 1 109.50000 418.400000
418 11521 419 1 109.50000 418.400000
418 11521 11334 1 109.50000 418.400000
419 11521 11334 1 109.50000 418.400000
420 11522 421 1 109.50000 418.400000
420 11522 422 1 109.50000 418.400000
420 11522 423 1 109.50000 418.400000
421 11522 422 1 109.50000 418.400000
421 11522 423 1 109.50000 418.400000
422 11522 423 1 109.50000 418.400000
271 11523 424 1 109.50000 418.400000
271 11523 425 1 109.50000 418.400000
271 11523 426 1 109.50000 418.400000
424 11523 425 1 109.50000 418.400000
424 11523 426 1 109.50000 418.400000
425 11523 426 1 109.50000 418.400000
427 11524 428 1 109.50000 418.400000
427 11524 429 1 109.50000 418.400000
427 11524 430 1 109.50000 418.400000
428 11524 429 1 109.50000 418.400000
428 11524 430 1 109.50000 418.400000
429 11524 430 1 109.50000 418.400000
431 11525 432 1 109.50000 418.400000
431 11525 433 1 109.50000 418.400000
431 11525 434 1 109.50000 418.400000
432 11525 433 1 109.50000 418.400000
432 11525 434 1 109.50000 418.400000
433 11525 434 1 109.50000 418.400000
436 11526 437 1 109.50000 418.400000
436 11526 438 1 109.50000 418.400000
436 11526 2817 1 109.50000 418.400000
437 11526 438 1 109.50000 418.400000
437 11526 2817 1 109.50000 418.400000
438 11526 2817 1 109.50000 418.400000
439 11527 440 1 109.50000 418.400000
439 11527 11145 1 109.50000 418.400000
439 11527 11262 1 109.50000 418.400000
440 11527 11145 1 109.50000 418.400000
440 11527 11262 1 109.50000 418.400000
11145 11527 11262 1 109.50000 418.400000
441 11528 442 1 109.50000 418.400000
441 11528 443 1 109.50000 418.400000
441 11528 444 1 109.50000 418.400000
442 11528 443 1 109.50000 418.400000
442 11528 444 1 109.50000 418.400000
443 11528 444 1 109.50000 418.400000
445 11529 446 1 109.50000 418.400000
445 11529 447 1 109.50000 418.400000
445 11529 448 1 109.50000 418.400000
446 11529 447 1 109.50000 418.400000
446 11529 448 1 109.50000 418.400000
447 11529 448 1 109.50000 418.400000
449 11530 450 1 109.50000 418.400000
449 11530 11146 1 109.50000 418.400000
449 11530 11234 1 109.50000 418.400000
450 11530 11146 1 109.50000 418.400000
450 11530 11234 1 109.50000 418.400000
11146 11530 11234 1 109.50000 418.400000
451 11531 452 1 109.50000 418.400000
451 11531 453 1 109.50000 418.400000
451 11531 454 1 109.50000 418.400000
452 11531 453 1 109.50000 418.400000
452 11531 454 1 109.50000 418.400000
453 11531 454 1 109.50000 418.400000
455 11532 456 1 109.50000 418.400000
455 11532 457 1 109.50000 418.400000
455 11532 458 1 109.50000 418.400000
456 11532 457 1 109.50000 418.400000
456 11532 458 1 109.50000 418.400000
457 11532 458 1 109.50000 418.400000
459 11533 460 1 109.50000 418.400000
459 11533 11147 1 109.50000 418.400000
459 11533 11335 1 109.50000 418.400000
460 11533 11147 1 109.50000 418.400000
460 11533 11335 1 109.50000 418.400000
11147 11533 11335 1 109.50000 418.400000
461 11534 462 1 109.50000 418.400000
461 11534 463 1 109.50000 418.400000
461 11534 464 1 109.50000 418.400000
462 11534 463 1 109.50000 418.400000
462 11534 464 1 109.50000 418.400000
463 11534 464 1 109.50000 418.400000
465 11535 466 1 109.50000 418.400000
465 11535 467 1 109.50000 418.400000
465 11535 468 1 109.50000 418.400000
466 11535 467 1 109.50000 418.400000
466 11535 468 1 109.50000 418.400000
467 11535 468 1 109.50000 418.400000
469 11536 470 1 109.50000 418.400000
469 11536 471 1 109.50000 418.400000
469 11536 472 1 109.50000 418.400000
470 11536 471 1 109.50000 418.400000
470 11536 472 1 109.50000 418.400000
471 11536 472 1 109.50000 418.400000
473 11537 474 1 109.50000 418.400000
473 11537 11148 1 109.50000 418.400000
473 11537 11162 1 109.50000 418.400000
474 11537 11148 1 109.50000 418.400000
474 11537 11162 1 109.50000 418.400000
11148 11537 11162 1 109.50000 418.400000
475 11538 476 1 109.50000 418.400000
475 11538 477 1 109.50000 418.400000
475 11538 478 1 109.50000 418.400000
476 11538 477 1 109.50000 418.400000
476 11538 478 1 109.50000 418.400000
477 11538 478 1 109.50000 418.400000
479 11539 482 1 109.50000 418.400000
479 11539 4167 1 109.50000 418.400000
479 11539 4168 1 109.50000 418.400000
482 11539 4167 1 109.50000 418.400000
482 11539 4168 1 109.50000 418.400000
4167 11539 4168 1 109.50000 418.400000
483 11540 484 1 109.50000 418.400000
483 11540 485 1 109.50000 418.400000
483 11540 486 1 109.50000 418.400000
484 11540 485 1 109.50000 418.400000
484 11540 486 1 109.50000 418.400000
485 11540 486 1 109.50000 418.400000
487 11541 488 1 109.50000 418.400000
487 11541 489 1 109.50000 418.400000
487 11541 490 1 109.50000 418.400000
488 11541 489 1 109.50000 418.400000
488 11541 490 1 109.50000 418.400000
489 11541 490 1 109.50000 418.400000
491 11542 492 1 109.50000 418.400000
491 11542 493 1 109.50000 418.400000
491 11542 494 1 109.50000 418.400000
492 11542 493 1 109.50000 418.400000
492 11542 494 1 109.50000 418.400000
493 11542 494 1 109.50000 418.400000
496 11543 497 1 109.50000 418.400000
496 11543 498 1 109.50000 418.400000
496 11543 7669 1 109.50000 418.400000
497 11543 498 1 109.50000 418.400000
497 11543 7669 1 109.50000 418.400000
498 11543 7669 1 109.50000 418.400000
500 11544 501 1 109.50000 418.400000
500 11544 502 1 109.50000 418.400000
500 11544 503 1 109.50000 418.400000
501 11544 502 1 109.50000 418.400000
501 11544 503 1 109.50000 418.400000
502 11544 503 1 109.50000 418.400000
504 11545 505 1 109.50000 418.400000
504 11545 506 1 109.50000 418.400000
504 11545 507 1 109.50000 418.400000
505 11545 506 1 109.50000 418.400000
505 11545 507 1 109.50000 418.400000
506 11545 507 1 109.50000 418.400000
508 11546 509 1 109.50000 418.400000
508 11546 510 1 109.50000 418.400000
508 11546 511 1 109.50000 418.400000
509 11546 510 1 109.50000 418.400000
509 11546 511 1 109.50000 418.400000
510 11546 511 1 109.50000 418.400000
123 11547 512 1 109.50000 418.400000
123 11547 513 1 109.50000 418.400000
123 11547 514 1 109.50000 418.400000
512 11547 513 1 109.50000 418.400000
512 11547 514 1 109.50000 418.400000
513 11547 514 1 109.50000 418.400000
515 11548 516 1 109.50000 418.400000
515 11548 517 1 109.50000 418.400000
515 11548 11336 1 109.50000 418.400000
516 11548 517 1 109.50000 418.400000
516 11548 11336 1 109.50000 418.400000
517 11548 11336 1 109.50000 418.400000
518 11549 519 1 109.50000 418.400000
518 11549 520 1 109.50000 418.400000
518 11549 11337 1 109.50000 418.400000
519 11549 520 1 109.50000 418.400000
519 11549 11337 1 109.50000 418.400000
520 11549 11337 1 109.50000 418.400000
521 11550 522 1 109.50000 418.400000
521 11550 524 1 109.50000 418.400000
521 11550 4624 1 109.50000 418.400000
522 11550 524 1 109.50000 418.400000
522 11550 4624 1 109.50000 418.400000
524 11550 4624 1 109.50000 418.400000
525 11551 526 1 109.50000 418.400000
525 11551 527 1 109.50000 418.400000
525 11551 528 1 109.50000 418.400000
526 11551 527 1 109.50000 418.400000
526 11551 528 1 109.50000 418.400000
527 11551 528 1 109.50000 418.400000
529 11552 530 1 109.50000 418.400000
529 11552 531 1 109.50000 418.400000
529 11552 532 1 109.50000 418.400000
530 11552 531 1 109.50000 418.400000
530 11552 532 1 109.50000 418.400000
531 11552 532 1 109.50000 418.400000
503 11553 533 1 109.50000 418.400000
503 11553 534 1 109.50000 418.400000
503 11553 535 1 109.50000 418.400000
533 11553 534 1 109.50000 418.400000
533 11553 535 1 109.50000 418.400000
534 11553 535 1 109.50000 418.400000
5 11554 536 1 109.50000 418.400000
5 11554 537 1 109.50000 418.400000
5 11554 538 1 109.50000 418.400000
536 11554 537 1 109.50000 418.400000
536 11554 538 1 109.50000 418.400000
537 11554 538 1 109.50000 418.400000
539 11555 540 1 109.50000 418.400000
539 11555 541 1 109.50000 418.400000
539 11555 542 1 109.50000 418.400000
540 11555 541 1 109.50000 418.400000
540 11555 542 1 109.50000 418.400000
541 11555 542 1 109.50000 418.400000
545 11556 1597 1 109.50000 418.400000
545 11556 4639 1 109.50000 418.400000
545 11556 4640 1 109.50000 418.400000
1597 11556 4639 1 109.50000 418.400000
1597 11556 4640 1 109.50000 418.400000
4639 11556 4640 1 109.50000 418.400000
249 11557 426 1 109.50000 418.400000
249 11557 546 1 109.50000 418.400000
249 11557 547 1 109.50000 418.400000
426 11557 546 1 109.50000 418.400000
426 11557 547 1 109.50000 418.400000
546 11557 547 1 109.50000 418.400000
548 11558 549 1 109.50000 418.400000
548 11558 550 1 109.50000 418.400000
548 11558 551 1 109.50000 418.400000
549 11558 550 1 109.50000 418.400000
549 11558 551 1 109.50000 418.400000
550 11558 551 1 109.50000 418.400000
552 11559 553 1 109.50000 418.400000
552 11559 554 1 109.50000 418.400000
552 11559 1131 1 109.50000 418.400000
553 11559 554 1 109.50000 418.400000
553 11559 1131 1 109.50000 418.400000
554 11559 1131 1 109.50000 418.400000
556 11560 557 1 109.50000 418.400000
556 11560 558 1 109.50000 418.400000
556 11560 11338 1 109.50000 418.400000
557 11560 558 1 109.50000 418.400000
557 11560 11338 1 109.50000 418.400000
558 11560 11338 1 109.50000 418.400000
559 11561 560 1 109.50000 418.400000
559 11561 561 1 109.50000 418.400000
559 11561 11154 1 109.50000 418.400000
560 11561 561 1 109.50000 418.400000
560 11561 11154 1 109.50000 418.400000
561 11561 11154 1 109.50000 418.400000
562 11562 563 1 109.50000 418.400000
562 11562 564 1 109.50000 418.400000
562 11562 565 1 109.50000 418.400000
563 11562 564 1 109.50000 418.400000
563 11562 565 1 109.50000 418.400000
564 11562 565 1 109.50000 418.400000
566 11563 567 1 109.50000 418.400000
566 11563 568 1 109.50000 418.400000
566 11563 569 1 109.50000 418.400000
567 11563 568 1 109.50000 418.400000
567 11563 569 1 109.50000 418.400000
568 11563 569 1 109.50000 418.400000
570 11564 571 1 109.50000 418.400000
570 11564 572 1 109.50000 418.400000
570 11564 573 1 109.50000 418.400000
571 11564 572 1 109.50000 418.400000
571 11564 573 1 109.50000 418.400000
572 11564 573 1 109.50000 418.400000
574 11565 575 1 109.50000 418.400000
574 11565 576 1 109.50000 418.400000
574 11565 577 1 109.50000 418.400000
575 11565 576 1 109.50000 418.400000
575 11565 577 1 109.50000 418.400000
576 11565 577 1 109.50000 418.400000
137 11566 578 1 109.50000 418.400000
137 11566 579 1 109.50000 418.400000
137 11566 11301 1 109.50000 418.400000
578 11566 579 1 109.50000 418.400000
578 11566 11301 1 109.50000 418.400000
579 11566 11301 1 109.50000 418.400000
347 11567 580 1 109.50000 418.400000
347 11567 581 1 109.50000 418.400000
347 11567 582 1 109.50000 418.400000
580 11567 581 1 109.50000 418.400000
580 11567 582 1 109.50000 418.400000
581 11567 582 1 109.50000 418.400000
583 11568 584 1 109.50000 418.400000
583 11568 11149 1 109.50000 418.400000
583 11568 11339 1 109.50000 418.400000
584 11568 11149 1 109.50000 418.400000
584 11568 11339 1 109.50000 418.400000
11149 11568 11339 1 109.50000 418.400000
585 11569 586 1 109.50000 418.400000
585 11569 587 1 109.50000 418.400000
585 11569 588 1 109.50000 418.400000
586 11569 587 1 109.50000 418.400000
586 11569 588 1 109.50000 418.400000
587 11569 588 1 109.50000 418.400000
589 11570 590 1 109.50000 418.400000
589 11570 591 1 109.50000 418.400000
589 11570 592 1 109.50000 418.400000
590 11570 591 1 109.50000 418.400000
590 11570 592 1 109.50000 418.400000
591 11570 592 1 109.50000 418.400000
593 11571 594 1 109.50000 418.400000
593 11571 595 1 109.50000 418.400000
593 11571 596 1 109.50000 418.400000
594 11571 595 1 109.50000 418.400000
594 11571 596 1 109.50000 418.400000
595 11571 596 1 109.50000 418.400000
597 11572 598 1 109.50000 418.400000
597 11572 599 1 109.50000 418.400000
597 11572 600 1 109.50000 418.400000
598 11572 599 1 109.50000 418.400000
598 11572 600 1 109.50000 418.400000
599 11572 600 1 109.50000 418.400000
601 11573 602 1 109.50000 418.400000
601 11573 603 1 109.50000 418.400000
601 11573 11340 1 109.50000 418.400000
602 11573 603 1 109.50000 418.400000
602 11573 11340 1 109.50000 418.400000
603 11573 11340 1 109.50000 418.400000
604 11574 605 1 109.50000 418.400000
604 11574 606 1 109.50000 418.400000
604 11574 607 1 109.50000 418.400000
605 11574 606 1 109.50000 418.400000
605 11574 607 1 109.50000 418.400000
606 11574 607 1 109.50000 418.400000
606 11575 608 1 109.50000 418.400000
606 11575 609 1 109.50000 418.400000
606 11575 610 1 109.50000 418.400000
608 11575 609 1 109.50000 418.400000
608 11575 610 1 109.50000 418.400000
609 11575 610 1 109.50000 418.400000
611 11576 612 1 109.50000 418.400000
611 11576 613 1 109.50000 418.400000
611 11576 614 1 109.50000 418.400000
612 11576 613 1 109.50000 418.400000
612 11576 614 1 109.50000 418.400000
613 11576 614 1 109.50000 418.400000
615 11577 616 1 109.50000 418.400000
615 11577 617 1 109.50000 418.400000
615 11577 618 1 109.50000 418.400000
616 11577 617 1 109.50000 418.400000
616 11577 618 1 109.50000 418.400000
617 11577 618 1 109.50000 418.400000
619 11578 620 1 109.50000 418.400000
619 11578 621 1 109.50000 418.400000
619 11578 11341 1 109.50000 418.400000
620 11578 621 1 109.50000 418.400000
620 11578 11341 1 109.50000 418.400000
621 11578 11341 1 109.50000 418.400000
622 11579 623 1 109.50000 418.400000
622 11579 624 1 109.50000 418.400000
622 11579 625 1 109.50000 418.400000
623 11579 624 1 109.50000 418.400000
623 11579 625 1 109.50000 418.400000
624 11579 625 1 109.50000 418.400000
375 11580 626 1 109.50000 418.400000
375 11580 627 1 109.50000 418.400000
375 11580 628 1 109.50000 418.400000
626 11580 627 1 109.50000 418.400000
626 11580 628 1 109.50000 418.400000
627 11580 628 1 109.50000 418.400000
292 11581 629 1 109.50000 418.400000
292 11581 630 1 109.50000 418.400000
292 11581 631 1 109.50000 418.400000
629 11581 630 1 109.50000 418.400000
629 11581 631 1 109.50000 418.400000
630 11581 631 1 109.50000 418.400000
632 11582 633 1 109.50000 418.400000
632 11582 634 1 109.50000 418.400000
632 11582 635 1 109.50000 418.400000
633 11582 634 1 109.50000 418.400000
633 11582 635 1 109.50000 418.400000
634 11582 635 1 109.50000 418.400000
636 11583 637 1 109.50000 418.400000
636 11583 638 1 109.50000 418.400000
636 11583 639 1 109.50000 418.400000
637 11583 638 1 109.50000 418.400000
637 11583 639 1 109.50000 418.400000
638 11583 639 1 109.50000 418.400000
640 11584 641 1 109.50000 418.400000
640 11584 642 1 109.50000 418.400000
640 11584 643 1 109.50000 418.400000
641 11584 642 1 109.50000 418.400000
641 11584 643 1 109.50000 418.400000
642 11584 643 1 109.50000 418.400000
445 11585 644 1 109.50000 418.400000
445 11585 645 1 109.50000 418.400000
445 11585 646 1 109.50000 418.400000
644 11585 645 1 109.50000 418.400000
644 11585 646 1 109.50000 418.400000
645 11585 646 1 109.50000 418.400000
647 11586 648 1 109.50000 418.400000
647 11586 649 1 109.50000 418.400000
647 11586 650 1 109.50000 418.400000
648 11586 649 1 109.50000 418.400000
648 11586 650 1 109.50000 418.400000
649 11586 650 1 109.50000 418.400000
651 11587 652 1 109.50000 418.400000
651 11587 653 1 109.50000 418.400000
651 11587 654 1 109.50000 418.400000
652 11587 653 1 109.50000 418.400000
652 11587 654 1 109.50000 418.400000
653 11587 654 1 109.50000 418.400000
388 11588 629 1 109.50000 418.400000
388 11588 655 1 109.50000 418.400000
388 11588 656 1 109.50000 418.400000
629 11588 655 1 109.50000 418.400000
629 11588 656 1 109.50000 418.400000
655 11588 656 1 109.50000 418.400000
657 11589 658 1 109.50000 418.400000
657 11589 659 1 109.50000 418.400000
657 11589 4295 1 109.50000 418.400000
658 11589 659 1 109.50000 418.400000
658 11589 4295 1 109.50000 418.400000
659 11589 4295 1 109.50000 418.400000
661 11590 662 1 109.50000 418.400000
661 11590 664 1 109.50000 418.400000
661 11590 6555 1 109.50000 418.400000
662 11590 664 1 109.50000 418.400000
662 11590 6555 1 109.50000 418.400000
664 11590 6555 1 109.50000 418.400000
665 11591 667 1 109.50000 418.400000
665 11591 668 1 109.50000 418.400000
665 11591 3695 1 109.50000 418.400000
667 11591 668 1 109.50000 418.400000
667 11591 3695 1 109.50000 418.400000
668 11591 3695 1 109.50000 418.400000
669 11592 670 1 109.50000 418.400000
669 11592 10239 1 109.50000 418.400000
669 11592 11342 1 109.50000 418.400000
670 11592 10239 1 109.50000 418.400000
670 11592 11342 1 109.50000 418.400000
10239 11592 11342 1 109.50000 418.400000
671 11593 672 1 109.50000 418.400000
671 11593 674 1 109.50000 418.400000
671 11593 8622 1 109.50000 418.400000
672 11593 674 1 109.50000 418.400000
672 11593 8622 1 109.50000 418.400000
674 11593 8622 1 109.50000 418.400000
675 11594 676 1 109.50000 418.400000
675 11594 677 1 109.50000 418.400000
675 11594 11343 1 109.50000 418.400000
676 11594 677 1 109.50000 418.400000
676 11594 11343 1 109.50000 418.400000
677 11594 11343 1 109.50000 418.400000
678 11595 679 1 109.50000 418.400000
678 11595 680 1 109.50000 418.400000
678 11595 850 1 109.50000 418.400000
679 11595 680 1 109.50000 418.400000
679 11595 850 1 109.50000 418.400000
680 11595 850 1 109.50000 418.400000
682 11596 684 1 109.50000 418.400000
682 11596 685 1 109.50000 418.400000
682 11596 760 1 109.50000 418.400000
684 11596 685 1 109.50000 418.400000
684 11596 760 1 109.50000 418.400000
685 11596 760 1 109.50000 418.400000
686 11597 687 1 109.50000 418.400000
686 11597 688 1 109.50000 418.400000
686 11597 689 1 109.50000 418.400000
687 11597 688 1 109.50000 418.400000
687 11597 689 1 109.50000 418.400000
688 11597 689 1 109.50000 418.400000
401 11598 690 1 109.50000 418.400000
401 11598 692 1 109.50000 418.400000
401 11598 1749 1 109.50000 418.400000
690 11598 692 1 109.50000 418.400000
690 11598 1749 1 109.50000 418.400000
692 11598 1749 1 109.50000 418.400000
693 11599 694 1 109.50000 418.400000
693 11599 695 1 109.50000 418.400000
693 11599 696 1 109.50000 418.400000
694 11599 695 1 109.50000 418.400000
694 11599 696 1 109.50000 418.400000
695 11599 696 1 109.50000 418.400000
697 11600 698 1 109.50000 418.400000
697 11600 699 1 109.50000 418.400000
697 11600 700 1 109.50000 418.400000
698 11600 699 1 109.50000 418.400000
698 11600 700 1 109.50000 418.400000
699 11600 700 1 109.50000 418.400000
176 11601 701 1 109.50000 418.400000
176 11601 702 1 109.50000 418.400000
176 11601 703 1 109.50000 418.400000
701 11601 702 1 109.50000 418.400000
701 11601 703 1 109.50000 418.400000
702 11601 703 1 109.50000 418.400000
704 11602 705 1 109.50000 418.400000
704 11602 706 1 109.50000 418.400000
704 11602 707 1 109.50000 418.400000
705 11602 706 1 109.50000 418.400000
705 11602 707 1 109.50000 418.400000
706 11602 707 1 109.50000 418.400000
708 11603 709 1 109.50000 418.400000
708 11603 710 1 109.50000 418.400000
708 11603 711 1 109.50000 418.400000
709 11603 710 1 109.50000 418.400000
709 11603 711 1 109.50000 418.400000
710 11603 711 1 109.50000 418.400000
712 11604 713 1 109.50000 418.400000
712 11604 714 1 109.50000 418.400000
712 11604 7002 1 109.50000 418.400000
713 11604 714 1 109.50000 418.400000
713 11604 7002 1 109.50000 418.400000
714 11604 7002 1 109.50000 418.400000
717 11605 718 1 109.50000 418.400000
717 11605 3464 1 109.50000 418.400000
717 11605 7773 1 109.50000 418.400000
718 11605 3464 1 109.50000 418.400000
718 11605 7773 1 109.50000 418.400000
3464 11605 7773 1 109.50000 418.400000
719 11606 720 1 109.50000 418.400000
719 11606 721 1 109.50000 418.400000
719 11606 11344 1 109.50000 418.400000
720 11606 721 1 109.50000 418.400000
720 11606 11344 1 109.50000 418.400000
721 11606 11344 1 109.50000 418.400000
722 11607 8412 1 109.50000 418.400000
722 11607 11150 1 109.50000 418.400000
722 11607 11345 1 109.50000 418.400000
8412 11607 11150 1 109.50000 418.400000
8412 11607 11345 1 109.50000 418.400000
11150 11607 11345 1 109.50000 418.400000
725 11608 726 1 109.50000 418.400000
725 11608 727 1 109.50000 418.400000
725 11608 728 1 109.50000 418.400000
726 11608 727 1 109.50000 418.400000
726 11608 728 1 109.50000 418.400000
727 11608 728 1 109.50000 418.400000
729 11609 730 1 109.50000 418.400000
729 11609 731 1 109.50000 418.400000
729 11609 732 1 109.50000 418.400000
730 11609 731 1 109.50000 418.400000
730 11609 732 1 109.50000 418.400000
731 11609 732 1 109.50000 418.400000
733 11610 734 1 109.50000 418.400000
733 11610 735 1 109.50000 418.400000
733 11610 736 1 109.50000 418.400000
734 11610 735 1 109.50000 418.400000
734 11610 736 1 109.50000 418.400000
735 11610 736 1 109.50000 418.400000
737 11611 738 1 109.50000 418.400000
737 11611 739 1 109.50000 418.400000
737 11611 740 1 109.50000 418.400000
738 11611 739 1 109.50000 418.400000
738 11611 740 1 109.50000 418.400000
739 11611 740 1 109.50000 418.400000
741 11612 742 1 109.50000 418.400000
741 11612 743 1 109.50000 418.400000
741 11612 744 1 109.50000 418.400000
742 11612 743 1 109.50000 418.400000
742 11612 744 1 109.50000 418.400000
743 11612 744 1 109.50000 418.400000
745 11613 746 1 109.50000 418.400000
745 11613 747 1 109.50000 418.400000
745 11613 748 1 109.50000 418.400000
746 11613 747 1 109.50000 418.400000
746 11613 748 1 109.50000 418.400000
747 11613 748 1 109.50000 418.400000
749 11614 750 1 109.50000 418.400000
749 11614 751 1 109.50000 418.400000
749 11614 752 1 109.50000 418.400000
750 11614 751 1 109.50000 418.400000
750 11614 752 1 109.50000 418.400000
751 11614 752 1 109.50000 418.400000
753 11615 754 1 109.50000 418.400000
753 11615 755 1 109.50000 418.400000
753 11615 756 1 109.50000 418.400000
754 11615 755 1 109.50000 418.400000
754 11615 756 1 109.50000 418.400000
755 11615 756 1 109.50000 418.400000
757 11616 758 1 109.50000 418.400000
757 11616 759 1 109.50000 418.400000
757 11616 760 1 109.50000 418.400000
758 11616 759 1 109.50000 418.400000
758 11616 760 1 109.50000 418.400000
759 11616 760 1 109.50000 418.400000
761 11617 762 1 109.50000 418.400000
761 11617 763 1 109.50000 418.400000
761 11617 764 1 109.50000 418.400000
762 11617 763 1 109.50000 418.400000
762 11617 764 1 109.50000 418.400000
763 11617 764 1 109.50000 418.400000
765 11618 766 1 109.50000 418.400000
765 11618 767 1 109.50000 418.400000
765 11618 768 1 109.50000 418.400000
766 11618 767 1 109.50000 418.400000
766 11618 768 1 109.50000 418.400000
767 11618 768 1 109.50000 418.400000
769 11619 770 1 109.50000 418.400000
769 11619 771 1 109.50000 418.400000
769 11619 772 1 109.50000 418.400000
770 11619 771 1 109.50000 418.400000
770 11619 772 1 109.50000 418.400000
771 11619 772 1 109.50000 418.400000
65 11620 773 1 109.50000 418.400000
65 11620 774 1 109.50000 418.400000
65 11620 775 1 109.50000 418.400000
773 11620 774 1 109.50000 418.400000
773 11620 775 1 109.50000 418.400000
774 11620 775 1 109.50000 418.400000
362 11621 776 1 109.50000 418.400000
362 11621 777 1 109.50000 418.400000
362 11621 2574 1 109.50000 418.400000
776 11621 777 1 109.50000 418.400000
776 11621 2574 1 109.50000 418.400000
777 11621 2574 1 109.50000 418.400000
779 11622 780 1 109.50000 418.400000
779 11622 781 1 109.50000 418.400000
779 11622 782 1 109.50000 418.400000
780 11622 781 1 109.50000 418.400000
780 11622 782 1 109.50000 418.400000
781 11622 782 1 109.50000 418.400000
783 11623 784 1 109.50000 418.400000
783 11623 785 1 109.50000 418.400000
783 11623 11346 1 109.50000 418.400000
784 11623 785 1 109.50000 418.400000
784 11623 11346 1 109.50000 418.400000
785 11623 11346 1 109.50000 418.400000
786 11624 787 1 109.50000 418.400000
786 11624 788 1 109.50000 418.400000
786 11624 789 1 109.50000 418.400000
787 11624 788 1 109.50000 418.400000
787 11624 789 1 109.50000 418.400000
788 11624 789 1 109.50000 418.400000
790 11625 791 1 109.50000 418.400000
790 11625 792 1 109.50000 418.400000
790 11625 11347 1 109.50000 418.400000
791 11625 792 1 109.50000 418.400000
791 11625 11347 1 109.50000 418.400000
792 11625 11347 1 109.50000 418.400000
599 11626 794 1 109.50000 418.400000
599 11626 795 1 109.50000 418.400000
599 11626 796 1 109.50000 418.400000
794 11626 795 1 109.50000 418.400000
794 11626 796 1 109.50000 418.400000
795 11626 796 1 109.50000 418.400000
797 11627 798 1 109.50000 418.400000
797 11627 799 1 109.50000 418.400000
797 11627 11348 1 109.50000 418.400000
798 11627 799 1 109.50000 418.400000
798 11627 11348 1 109.50000 418.400000
799 11627 11348 1 109.50000 418.400000
800 11628 801 1 109.50000 418.400000
800 11628 11151 1 109.50000 418.400000
800 11628 11349 1 109.50000 418.400000
801 11628 11151 1 109.50000 418.400000
801 11628 11349 1 109.50000 418.400000
11151 11628 11349 1 109.50000 418.400000
802 11629 803 1 109.50000 418.400000
802 11629 804 1 109.50000 418.400000
802 11629 805 1 109.50000 418.400000
803 11629 804 1 109.50000 418.400000
803 11629 805 1 109.50000 418.400000
804 11629 805 1 109.50000 418.400000
806 11630 807 1 109.50000 418.400000
806 11630 808 1 109.50000 418.400000
806 11630 2074 1 109.50000 418.400000
807 11630 808 1 109.50000 418.400000
807 11630 2074 1 109.50000 418.400000
808 11630 2074 1 109.50000 418.400000
813 11631 843 1 109.50000 418.400000
813 11631 5920 1 109.50000 418.400000
813 11631 7740 1 109.50000 418.400000
843 11631 5920 1 109.50000 418.400000
843 11631 7740 1 109.50000 418.400000
5920 11631 7740 1 109.50000 418.400000
814 11632 815 1 109.50000 418.400000
814 11632 816 1 109.50000 418.400000
814 11632 817 1 109.50000 418.400000
815 11632 816 1 109.50000 418.400000
815 11632 817 1 109.50000 418.400000
816 11632 817 1 109.50000 418.400000
818 11633 819 1 109.50000 418.400000
818 11633 820 1 109.50000 418.400000
818 11633 821 1 109.50000 418.400000
819 11633 820 1 109.50000 418.400000
819 11633 821 1 109.50000 418.400000
820 11633 821 1 109.50000 418.400000
404 11634 822 1 109.50000 418.400000
404 11634 823 1 109.50000 418.400000
404 11634 824 1 109.50000 418.400000
822 11634 823 1 109.50000 418.400000
822 11634 824 1 109.50000 418.400000
823 11634 824 1 109.50000 418.400000
825 11635 827 1 109.50000 418.400000
825 11635 828 1 109.50000 418.400000
825 11635 6852 1 109.50000 418.400000
827 11635 828 1 109.50000 418.400000
827 11635 6852 1 109.50000 418.400000
828 11635 6852 1 109.50000 418.400000
829 11636 830 1 109.50000 418.400000
829 11636 831 1 109.50000 418.400000
829 11636 832 1 109.50000 418.400000
830 11636 831 1 109.50000 418.400000
830 11636 832 1 109.50000 418.400000
831 11636 832 1 109.50000 418.400000
833 11637 834 1 109.50000 418.400000
833 11637 835 1 109.50000 418.400000
833 11637 836 1 109.50000 418.400000
834 11637 835 1 109.50000 418.400000
834 11637 836 1 109.50000 418.400000
835 11637 836 1 109.50000 418.400000
840 11638 8869 1 109.50000 418.400000
840 11638 11152 1 109.50000 418.400000
840 11638 11350 1 109.50000 418.400000
8869 11638 11152 1 109.50000 418.400000
8869 11638 11350 1 109.50000 418.400000
11152 11638 11350 1 109.50000 418.400000
841 11639 842 1 109.50000 418.400000
841 11639 843 1 109.50000 418.400000
841 11639 844 1 109.50000 418.400000
842 11639 843 1 109.50000 418.400000
842 11639 844 1 109.50000 418.400000
843 11639 844 1 109.50000 418.400000
430 11640 846 1 109.50000 418.400000
430 11640 847 1 109.50000 418.400000
430 11640 848 1 109.50000 418.400000
846 11640 847 1 109.50000 418.400000
846 11640 848 1 109.50000 418.400000
847 11640 848 1 109.50000 418.400000
678 11641 681 1 109.50000 418.400000
678 11641 849 1 109.50000 418.400000
678 11641 851 1 109.50000 418.400000
681 11641 849 1 109.50000 418.400000
681 11641 851 1 109.50000 418.400000
849 11641 851 1 109.50000 418.400000
852 11642 853 1 109.50000 418.400000
852 11642 854 1 109.50000 418.400000
852 11642 855 1 109.50000 418.400000
853 11642 854 1 109.50000 418.400000
853 11642 855 1 109.50000 418.400000
854 11642 855 1 109.50000 418.400000
856 11643 857 1 109.50000 418.400000
856 11643 858 1 109.50000 418.400000
856 11643 859 1 109.50000 418.400000
857 11643 858 1 109.50000 418.400000
857 11643 859 1 109.50000 418.400000
858 11643 859 1 109.50000 418.400000
860 11644 861 1 109.50000 418.400000
860 11644 862 1 109.50000 418.400000
860 11644 863 1 109.50000 418.400000
861 11644 862 1 109.50000 418.400000
861 11644 863 1 109.50000 418.400000
862 11644 863 1 109.50000 418.400000
864 11645 865 1 109.50000 418.400000
864 11645 867 1 109.50000 418.400000
864 11645 986 1 109.50000 418.400000
865 11645 867 1 109.50000 418.400000
865 11645 986 1 109.50000 418.400000
867 11645 986 1 109.50000 418.400000
723 11646 868 1 109.50000 418.400000
723 11646 869 1 109.50000 418.400000
723 11646 870 1 109.50000 418.400000
868 11646 869 1 109.50000 418.400000
868 11646 870 1 109.50000 418.400000
869 11646 870 1 109.50000 418.400000
871 11647 872 1 109.50000 418.400000
871 11647 873 1 109.50000 418.400000
871 11647 874 1 109.50000 418.400000
872 11647 873 1 109.50000 418.400000
872 11647 874 1 109.50000 418.400000
873 11647 874 1 109.50000 418.400000
875 11648 876 1 109.50000 418.400000
875 11648 877 1 109.50000 418.400000
875 11648 878 1 109.50000 418.400000
876 11648 877 1 109.50000 418.400000
876 11648 878 1 109.50000 418.400000
877 11648 878 1 109.50000 418.400000
879 11649 880 1 109.50000 418.400000
879 11649 881 1 109.50000 418.400000
879 11649 882 1 109.50000 418.400000
880 11649 881 1 109.50000 418.400000
880 11649 882 1 109.50000 418.400000
881 11649 882 1 109.50000 418.400000
883 11650 884 1 109.50000 418.400000
883 11650 885 1 109.50000 418.400000
883 11650 886 1 109.50000 418.400000
884 11650 885 1 109.50000 418.400000
884 11650 886 1 109.50000 418.400000
885 11650 886 1 109.50000 418.400000
887 11651 888 1 109.50000 418.400000
887 11651 889 1 109.50000 418.400000
887 11651 11170 1 109.50000 418.400000
888 11651 889 1 109.50000 418.400000
888 11651 11170 1 109.50000 418.400000
889 11651 11170 1 109.50000 418.400000
890 11652 891 1 109.50000 418.400000
890 11652 892 1 109.50000 418.400000
890 11652 893 1 109.50000 418.400000
891 11652 892 1 109.50000 418.400000
891 11652 893 1 109.50000 418.400000
892 11652 893 1 109.50000 418.400000
894 11653 1220 1 109.50000 418.400000
894 11653 4030 1 109.50000 418.400000
894 11653 9955 1 109.50000 418.400000
1220 11653 4030 1 109.50000 418.400000
1220 11653 9955 1 109.50000 418.400000
4030 11653 9955 1 109.50000 418.400000
898 11654 899 1 109.50000 418.400000
898 11654 900 1 109.50000 418.400000
898 11654 901 1 109.50000 418.400000
899 11654 900 1 109.50000 418.400000
899 11654 901 1 109.50000 418.400000
900 11654 901 1 109.50000 418.400000
904 11655 1030 1 109.50000 418.400000
904 11655 4463 1 109.50000 418.400000
904 11655 5476 1 109.50000 418.400000
1030 11655 4463 1 109.50000 418.400000
1030 11655 5476 1 109.50000 418.400000
4463 11655 5476 1 109.50000 418.400000
907 11656 908 1 109.50000 418.400000
907 11656 909 1 109.50000 418.400000
907 11656 5450 1 109.50000 418.400000
908 11656 909 1 109.50000 418.400000
908 11656 5450 1 109.50000 418.400000
909 11656 5450 1 109.50000 418.400000
910 11657 911 1 109.50000 418.400000
910 11657 912 1 109.50000 418.400000
910 11657 913 1 109.50000 418.400000
911 11657 912 1 109.50000 418.400000
911 11657 913 1 109.50000 418.400000
912 11657 913 1 109.50000 418.400000
914 11658 915 1 109.50000 418.400000
914 11658 916 1 109.50000 418.400000
914 11658 917 1 109.50000 418.400000
915 11658 916 1 109.50000 418.400000
915 11658 917 1 109.50000 418.400000
916 11658 917 1 109.50000 418.400000
488 11659 918 1 109.50000 418.400000
488 11659 919 1 109.50000 418.400000
488 11659 920 1 109.50000 418.400000
918 11659 919 1 109.50000 418.400000
918 11659 920 1 109.50000 418.400000
919 11659 920 1 109.50000 418.400000
921 11660 922 1 109.50000 418.400000
921 11660 923 1 109.50000 418.400000
921 11660 924 1 109.50000 418.400000
922 11660 923 1 109.50000 418.400000
922 11660 924 1 109.50000 418.400000
923 11660 924 1 109.50000 418.400000
925 11661 926 1 109.50000 418.400000
925 11661 927 1 109.50000 418.400000
925 11661 928 1 109.50000 418.400000
926 11661 927 1 109.50000 418.400000
926 11661 928 1 109.50000 418.400000
927 11661 928 1 109.50000 418.400000
929 11662 930 1 109.50000 418.400000
929 11662 931 1 109.50000 418.400000
929 11662 932 1 109.50000 418.400000
930 11662 931 1 109.50000 418.400000
930 11662 932 1 109.50000 418.400000
931 11662 932 1 109.50000 418.400000
933 11663 934 1 109.50000 418.400000
933 11663 935 1 109.50000 418.400000
933 11663 936 1 109.50000 418.400000
934 11663 935 1 109.50000 418.400000
934 11663 936 1 109.50000 418.400000
935 11663 936 1 109.50000 418.400000
937 11664 938 1 109.50000 418.400000
937 11664 939 1 109.50000 418.400000
937 11664 940 1 109.50000 418.400000
938 11664 939 1 109.50000 418.400000
938 11664 940 1 109.50000 418.400000
939 11664 940 1 109.50000 418.400000
941 11665 942 1 109.50000 418.400000
941 11665 943 1 109.50000 418.400000
941 11665 944 1 109.50000 418.400000
942 11665 943 1 109.50000 418.400000
942 11665 944 1 109.50000 418.400000
943 11665 944 1 109.50000 418.400000
945 11666 946 1 109.50000 418.400000
945 11666 947 1 109.50000 418.400000
945 11666 948 1 109.50000 418.400000
946 11666 947 1 109.50000 418.400000
946 11666 948 1 109.50000 418.400000
947 11666 948 1 109.50000 418.400000
950 11667 951 1 109.50000 418.400000
950 11667 952 1 109.50000 418.400000
950 11667 8456 1 109.50000 418.400000
951 11667 952 1 109.50000 418.400000
951 11667 8456 1 109.50000 418.400000
952 11667 8456 1 109.50000 418.400000
953 11668 954 1 109.50000 418.400000
953 11668 955 1 109.50000 418.400000
953 11668 956 1 109.50000 418.400000
954 11668 955 1 109.50000 418.400000
954 11668 956 1 109.50000 418.400000
955 11668 956 1 109.50000 418.400000
957 11669 958 1 109.50000 418.400000
957 11669 1203 1 109.50000 418.400000
957 11669 3770 1 109.50000 418.400000
958 11669 1203 1 109.50000 418.400000
958 11669 3770 1 109.50000 418.400000
1203 11669 3770 1 109.50000 418.400000
925 11670 961 1 109.50000 418.400000
925 11670 962 1 109.50000 418.400000
925 11670 963 1 109.50000 418.400000
961 11670 962 1 109.50000 418.400000
961 11670 963 1 109.50000 418.400000
962 11670 963 1 109.50000 418.400000
966 11671 967 1 109.50000 418.400000
966 11671 968 1 109.50000 418.400000
966 11671 969 1 109.50000 418.400000
967 11671 968 1 109.50000 418.400000
967 11671 969 1 109.50000 418.400000
968 11671 969 1 109.50000 418.400000
970 11672 971 1 109.50000 418.400000
970 11672 972 1 109.50000 418.400000
970 11672 973 1 109.50000 418.400000
971 11672 972 1 109.50000 418.400000
971 11672 973 1 109.50000 418.400000
972 11672 973 1 109.50000 418.400000
974 11673 975 1 109.50000 418.400000
974 11673 976 1 109.50000 418.400000
974 11673 977 1 109.50000 418.400000
975 11673 976 1 109.50000 418.400000
975 11673 977 1 109.50000 418.400000
976 11673 977 1 109.50000 418.400000
978 11674 979 1 109.50000 418.400000
978 11674 980 1 109.50000 418.400000
978 11674 11351 1 109.50000 418.400000
979 11674 980 1 109.50000 418.400000
979 11674 11351 1 109.50000 418.400000
980 11674 11351 1 109.50000 418.400000
981 11675 983 1 109.50000 418.400000
981 11675 984 1 109.50000 418.400000
981 11675 5879 1 109.50000 418.400000
983 11675 984 1 109.50000 418.400000
983 11675 5879 1 109.50000 418.400000
984 11675 5879 1 109.50000 418.400000
865 11676 866 1 109.50000 418.400000
865 11676 987 1 109.50000 418.400000
865 11676 988 1 109.50000 418.400000
866 11676 987 1 109.50000 418.400000
866 11676 988 1 109.50000 418.400000
987 11676 988 1 109.50000 418.400000
989 11677 990 1 109.50000 418.400000
989 11677 991 1 109.50000 418.400000
989 11677 992 1 109.50000 418.400000
990 11677 991 1 109.50000 418.400000
990 11677 992 1 109.50000 418.400000
991 11677 992 1 109.50000 418.400000
331 11678 993 1 109.50000 418.400000
331 11678 994 1 109.50000 418.400000
331 11678 995 1 109.50000 418.400000
993 11678 994 1 109.50000 418.400000
993 11678 995 1 109.50000 418.400000
994 11678 995 1 109.50000 418.400000
996 11679 997 1 109.50000 418.400000
996 11679 998 1 109.50000 418.400000
996 11679 999 1 109.50000 418.400000
997 11679 998 1 109.50000 418.400000
997 11679 999 1 109.50000 418.400000
998 11679 999 1 109.50000 418.400000
1000 11680 1001 1 109.50000 418.400000
1000 11680 1002 1 109.50000 418.400000
1000 11680 1003 1 109.50000 418.400000
1001 11680 1002 1 109.50000 418.400000
1001 11680 1003 1 109.50000 418.400000
1002 11680 1003 1 109.50000 418.400000
1004 11681 1005 1 109.50000 418.400000
1004 11681 1006 1 109.50000 418.400000
1004 11681 1007 1 109.50000 418.400000
1005 11681 1006 1 109.50000 418.400000
1005 11681 1007 1 109.50000 418.400000
1006 11681 1007 1 109.50000 418.400000
1008 11682 1009 1 109.50000 418.400000
1008 11682 1011 1 109.50000 418.400000
1008 11682 9846 1 109.50000 418.400000
1009 11682 1011 1 109.50000 418.400000
1009 11682 9846 1 109.50000 418.400000
1011 11682 9846 1 109.50000 418.400000
1012 11683 1013 1 109.50000 418.400000
1012 11683 1014 1 109.50000 418.400000
1012 11683 1015 1 109.50000 418.400000
1013 11683 1014 1 109.50000 418.400000
1013 11683 1015 1 109.50000 418.400000
1014 11683 1015 1 109.50000 418.400000
1016 11684 1017 1 109.50000 418.400000
1016 11684 1018 1 109.50000 418.400000
1016 11684 1019 1 109.50000 418.400000
1017 11684 1018 1 109.50000 418.400000
1017 11684 1019 1 109.50000 418.400000
1018 11684 1019 1 109.50000 418.400000
953 11685 1020 1 109.50000 418.400000
953 11685 1021 1 109.50000 418.400000
953 11685 1022 1 109.50000 418.400000
1020 11685 1021 1 109.50000 418.400000
1020 11685 1022 1 109.50000 418.400000
1021 11685 1022 1 109.50000 418.400000
1023 11686 1024 1 109.50000 418.400000
1023 11686 1025 1 109.50000 418.400000
1023 11686 1026 1 109.50000 418.400000
1024 11686 1025 1 109.50000 418.400000
1024 11686 1026 1 109.50000 418.400000
1025 11686 1026 1 109.50000 418.400000
1027 11687 1028 1 109.50000 418.400000
1027 11687 1029 1 109.50000 418.400000
1027 11687 11278 1 109.50000 418.400000
1028 11687 1029 1 109.50000 418.400000
1028 11687 11278 1 109.50000 418.400000
1029 11687 11278 1 109.50000 418.400000
1030 11688 1031 1 109.50000 418.400000
1030 11688 1032 1 109.50000 418.400000
1030 11688 1033 1 109.50000 418.400000
1031 11688 1032 1 109.50000 418.400000
1031 11688 1033 1 109.50000 418.400000
1032 11688 1033 1 109.50000 418.400000
1034 11689 1035 1 109.50000 418.400000
1034 11689 5178 1 109.50000 418.400000
1034 11689 11352 1 109.50000 418.400000
1035 11689 5178 1 109.50000 418.400000
1035 11689 11352 1 109.50000 418.400000
5178 11689 11352 1 109.50000 418.400000
1039 11690 1312 1 109.50000 418.400000
1039 11690 2942 1 109.50000 418.400000
1039 11690 10422 1 109.50000 418.400000
1312 11690 2942 1 109.50000 418.400000
1312 11690 10422 1 109.50000 418.400000
2942 11690 10422 1 109.50000 418.400000
869 11691 1040 1 109.50000 418.400000
869 11691 1041 1 109.50000 418.400000
869 11691 1042 1 109.50000 418.400000
1040 11691 1041 1 109.50000 418.400000
1040 11691 1042 1 109.50000 418.400000
1041 11691 1042 1 109.50000 418.400000
1042 11692 1043 1 109.50000 418.400000
1042 11692 1044 1 109.50000 418.400000
1042 11692 11353 1 109.50000 418.400000
1043 11692 1044 1 109.50000 418.400000
1043 11692 11353 1 109.50000 418.400000
1044 11692 11353 1 109.50000 418.400000
1045 11693 1046 1 109.50000 418.400000
1045 11693 1047 1 109.50000 418.400000
1045 11693 1048 1 109.50000 418.400000
1046 11693 1047 1 109.50000 418.400000
1046 11693 1048 1 109.50000 418.400000
1047 11693 1048 1 109.50000 418.400000
398 11694 1049 1 109.50000 418.400000
398 11694 1050 1 109.50000 418.400000
398 11694 1051 1 109.50000 418.400000
1049 11694 1050 1 109.50000 418.400000
1049 11694 1051 1 109.50000 418.400000
1050 11694 1051 1 109.50000 418.400000
1052 11695 1053 1 109.50000 418.400000
1052 11695 1054 1 109.50000 418.400000
1052 11695 1055 1 109.50000 418.400000
1053 11695 1054 1 109.50000 418.400000
1053 11695 1055 1 109.50000 418.400000
1054 11695 1055 1 109.50000 418.400000
1056 11696 1057 1 109.50000 418.400000
1056 11696 1058 1 109.50000 418.400000
1056 11696 1059 1 109.50000 418.400000
1057 11696 1058 1 109.50000 418.400000
1057 11696 1059 1 109.50000 418.400000
1058 11696 1059 1 109.50000 418.400000
856 11697 1060 1 109.50000 418.400000
856 11697 1061 1 109.50000 418.400000
856 11697 8585 1 109.50000 418.400000
1060 11697 1061 1 109.50000 418.400000
1060 11697 8585 1 109.50000 418.400000
1061 11697 8585 1 109.50000 418.400000
1064 11698 6547 1 109.50000 418.400000
1064 11698 6548 1 109.50000 418.400000
1064 11698 6549 1 109.50000 418.400000
6547 11698 6548 1 109.50000 418.400000
6547 11698 6549 1 109.50000 418.400000
6548 11698 6549 1 109.50000 418.400000
1066 11699 1067 1 109.50000 418.400000
1066 11699 1068 1 109.50000 418.400000
1066 11699 1069 1 109.50000 418.400000
1067 11699 1068 1 109.50000 418.400000
1067 11699 1069 1 109.50000 418.400000
1068 11699 1069 1 109.50000 418.400000
570 11700 1070 1 109.50000 418.400000
570 11700 1071 1 109.50000 418.400000
570 11700 1072 1 109.50000 418.400000
1070 11700 1071 1 109.50000 418.400000
1070 11700 1072 1 109.50000 418.400000
1071 11700 1072 1 109.50000 418.400000
1073 11701 1074 1 109.50000 418.400000
1073 11701 1075 1 109.50000 418.400000
1073 11701 1076 1 109.50000 418.400000
1074 11701 1075 1 109.50000 418.400000
1074 11701 1076 1 109.50000 418.400000
1075 11701 1076 1 109.50000 418.400000
1077 11702 1078 1 109.50000 418.400000
1077 11702 1079 1 109.50000 418.400000
1077 11702 1080 1 109.50000 418.400000
1078 11702 1079 1 109.50000 418.400000
1078 11702 1080 1 109.50000 418.400000
1079 11702 1080 1 109.50000 418.400000
1081 11703 1082 1 109.50000 418.400000
1081 11703 1083 1 109.50000 418.400000
1081 11703 1084 1 109.50000 418.400000
1082 11703 1083 1 109.50000 418.400000
1082 11703 1084 1 109.50000 418.400000
1083 11703 1084 1 109.50000 418.400000
1085 11704 1086 1 109.50000 418.400000
1085 11704 1087 1 109.50000 418.400000
1085 11704 1088 1 109.50000 418.400000
1086 11704 1087 1 109.50000 418.400000
1086 11704 1088 1 109.50000 418.400000
1087 11704 1088 1 109.50000 418.400000
1089 11705 1090 1 109.50000 418.400000
1089 11705 1091 1 109.50000 418.400000
1089 11705 1092 1 109.50000 418.400000
1090 11705 1091 1 109.50000 418.400000
1090 11705 1092 1 109.50000 418.400000
1091 11705 1092 1 109.50000 418.400000
609 11706 1093 1 109.50000 418.400000
609 11706 1094 1 109.50000 418.400000
609 11706 1095 1 109.50000 418.400000
1093 11706 1094 1 109.50000 418.400000
1093 11706 1095 1 109.50000 418.400000
1094 11706 1095 1 109.50000 418.400000
1096 11707 1097 1 109.50000 418.400000
1096 11707 1098 1 109.50000 418.400000
1096 11707 1099 1 109.50000 418.400000
1097 11707 1098 1 109.50000 418.400000
1097 11707 1099 1 109.50000 418.400000
1098 11707 1099 1 109.50000 418.400000
1100 11708 1101 1 109.50000 418.400000
1100 11708 1102 1 109.50000 418.400000
1100 11708 1103 1 109.50000 418.400000
1101 11708 1102 1 109.50000 418.400000
1101 11708 1103 1 109.50000 418.400000
1102 11708 1103 1 109.50000 418.400000
101 11709 1104 1 109.50000 418.400000
101 11709 1105 1 109.50000 418.400000
101 11709 1106 1 109.50000 418.400000
1104 11709 1105 1 109.50000 418.400000
1104 11709 1106 1 109.50000 418.400000
1105 11709 1106 1 109.50000 418.400000
1107 11710 1647 1 109.50000 418.400000
1107 11710 1649 1 109.50000 418.400000
1107 11710 3057 1 109.50000 418.400000
1647 11710 1649 1 109.50000 418.400000
1647 11710 3057 1 109.50000 418.400000
1649 11710 3057 1 109.50000 418.400000
1110 11711 1111 1 109.50000 418.400000
1110 11711 1112 1 109.50000 418.400000
1110 11711 11354 1 109.50000 418.400000
1111 11711 1112 1 109.50000 418.400000
1111 11711 11354 1 109.50000 418.400000
1112 11711 11354 1 109.50000 418.400000
1113 11712 1115 1 109.50000 418.400000
1113 11712 1116 1 109.50000 418.400000
1113 11712 4528 1 109.50000 418.400000
1115 11712 1116 1 109.50000 418.400000
1115 11712 4528 1 109.50000 418.400000
1116 11712 4528 1 109.50000 418.400000
1117 11713 1118 1 109.50000 418.400000
1117 11713 1119 1 109.50000 418.400000
1117 11713 1120 1 109.50000 418.400000
1118 11713 1119 1 109.50000 418.400000
1118 11713 1120 1 109.50000 418.400000
1119 11713 1120 1 109.50000 418.400000
1121 11714 1122 1 109.50000 418.400000
1121 11714 1123 1 109.50000 418.400000
1121 11714 1124 1 109.50000 418.400000
1122 11714 1123 1 109.50000 418.400000
1122 11714 1124 1 109.50000 418.400000
1123 11714 1124 1 109.50000 418.400000
1008 11715 1125 1 109.50000 418.400000
1008 11715 1126 1 109.50000 418.400000
1008 11715 1127 1 109.50000 418.400000
1125 11715 1126 1 109.50000 418.400000
1125 11715 1127 1 109.50000 418.400000
1126 11715 1127 1 109.50000 418.400000
758 11716 992 1 109.50000 418.400000
758 11716 1128 1 109.50000 418.400000
758 11716 1129 1 109.50000 418.400000
992 11716 1128 1 109.50000 418.400000
992 11716 1129 1 109.50000 418.400000
1128 11716 1129 1 109.50000 418.400000
553 11717 555 1 109.50000 418.400000
553 11717 1130 1 109.50000 418.400000
553 11717 1132 1 109.50000 418.400000
555 11717 1130 1 109.50000 418.400000
555 11717 1132 1 109.50000 418.400000
1130 11717 1132 1 109.50000 418.400000
1133 11718 1134 1 109.50000 418.400000
1133 11718 1135 1 109.50000 418.400000
1133 11718 1136 1 109.50000 418.400000
1134 11718 1135 1 109.50000 418.400000
1134 11718 1136 1 109.50000 418.400000
1135 11718 1136 1 109.50000 418.400000
1138 11719 1139 1 109.50000 418.400000
1138 11719 1140 1 109.50000 418.400000
1138 11719 1141 1 109.50000 418.400000
1139 11719 1140 1 109.50000 418.400000
1139 11719 1141 1 109.50000 418.400000
1140 11719 1141 1 109.50000 418.400000
1142 11720 1143 1 109.50000 418.400000
1142 11720 1144 1 109.50000 418.400000
1142 11720 1145 1 109.50000 418.400000
1143 11720 1144 1 109.50000 418.400000
1143 11720 1145 1 109.50000 418.400000
1144 11720 1145 1 109.50000 418.400000
1146 11721 1147 1 109.50000 418.400000
1146 11721 1148 1 109.50000 418.400000
1146 11721 1149 1 109.50000 418.400000
1147 11721 1148 1 109.50000 418.400000
1147 11721 1149 1 109.50000 418.400000
1148 11721 1149 1 109.50000 418.400000
151 11722 1150 1 109.50000 418.400000
151 11722 1152 1 109.50000 418.400000
151 11722 7371 1 109.50000 418.400000
1150 11722 1152 1 109.50000 418.400000
1150 11722 7371 1 109.50000 418.400000
1152 11722 7371 1 109.50000 418.400000
1153 11723 1154 1 109.50000 418.400000
1153 11723 1155 1 109.50000 418.400000
1153 11723 1156 1 109.50000 418.400000
1154 11723 1155 1 109.50000 418.400000
1154 11723 1156 1 109.50000 418.400000
1155 11723 1156 1 109.50000 418.400000
941 11724 1157 1 109.50000 418.400000
941 11724 1158 1 109.50000 418.400000
941 11724 1159 1 109.50000 418.400000
1157 11724 1158 1 109.50000 418.400000
1157 11724 1159 1 109.50000 418.400000
1158 11724 1159 1 109.50000 418.400000
1161 11725 1162 1 109.50000 418.400000
1161 11725 6020 1 109.50000 418.400000
1161 11725 6021 1 109.50000 418.400000
1162 11725 6020 1 109.50000 418.400000
1162 11725 6021 1 109.50000 418.400000
6020 11725 6021 1 109.50000 418.400000
1164 11726 1165 1 109.50000 418.400000
1164 11726 1166 1 109.50000 418.400000
1164 11726 1167 1 109.50000 418.400000
1165 11726 1166 1 109.50000 418.400000
1165 11726 1167 1 109.50000 418.400000
1166 11726 1167 1 109.50000 418.400000
1168 11727 1169 1 109.50000 418.400000
1168 11727 1170 1 109.50000 418.400000
1168 11727 1171 1 109.50000 418.400000
1169 11727 1170 1 109.50000 418.400000
1169 11727 1171 1 109.50000 418.400000
1170 11727 1171 1 109.50000 418.400000
1172 11728 1173 1 109.50000 418.400000
1172 11728 1174 1 109.50000 418.400000
1172 11728 1175 1 109.50000 418.400000
1173 11728 1174 1 109.50000 418.400000
1173 11728 1175 1 109.50000 418.400000
1174 11728 1175 1 109.50000 418.400000
531 11729 1176 1 109.50000 418.400000
531 11729 1177 1 109.50000 418.400000
531 11729 1178 1 109.50000 418.400000
1176 11729 1177 1 109.50000 418.400000
1176 11729 1178 1 109.50000 418.400000
1177 11729 1178 1 109.50000 418.400000
1179 11730 1180 1 109.50000 418.400000
1179 11730 11154 1 109.50000 418.400000
1179 11730 11355 1 109.50000 418.400000
1180 11730 11154 1 109.50000 418.400000
1180 11730 11355 1 109.50000 418.400000
11154 11730 11355 1 109.50000 418.400000
1181 11731 1182 1 109.50000 418.400000
1181 11731 1183 1 109.50000 418.400000
1181 11731 1184 1 109.50000 418.400000
1182 11731 1183 1 109.50000 418.400000
1182 11731 1184 1 109.50000 418.400000
1183 11731 1184 1 109.50000 418.400000
1185 11732 1186 1 109.50000 418.400000
1185 11732 1187 1 109.50000 418.400000
1185 11732 1188 1 109.50000 418.400000
1186 11732 1187 1 109.50000 418.400000
1186 11732 1188 1 109.50000 418.400000
1187 11732 1188 1 109.50000 418.400000
1189 11733 1190 1 109.50000 418.400000
1189 11733 1191 1 109.50000 418.400000
1189 11733 5161 1 109.50000 418.400000
1190 11733 1191 1 109.50000 418.400000
1190 11733 5161 1 109.50000 418.400000
1191 11733 5161 1 109.50000 418.400000
1193 11734 1194 1 109.50000 418.400000
1193 11734 1195 1 109.50000 418.400000
1193 11734 1196 1 109.50000 418.400000
1194 11734 1195 1 109.50000 418.400000
1194 11734 1196 1 109.50000 418.400000
1195 11734 1196 1 109.50000 418.400000
1143 11735 1197 1 109.50000 418.400000
1143 11735 1198 1 109.50000 418.400000
1143 11735 10092 1 109.50000 418.400000
1197 11735 1198 1 109.50000 418.400000
1197 11735 10092 1 109.50000 418.400000
1198 11735 10092 1 109.50000 418.400000
1200 11736 1201 1 109.50000 418.400000
1200 11736 1202 1 109.50000 418.400000
1200 11736 7373 1 109.50000 418.400000
1201 11736 1202 1 109.50000 418.400000
1201 11736 7373 1 109.50000 418.400000
1202 11736 7373 1 109.50000 418.400000
957 11737 959 1 109.50000 418.400000
957 11737 1204 1 109.50000 418.400000
957 11737 1205 1 109.50000 418.400000
959 11737 1204 1 109.50000 418.400000
959 11737 1205 1 109.50000 418.400000
1204 11737 1205 1 109.50000 418.400000
1206 11738 1207 1 109.50000 418.400000
1206 11738 11155 1 109.50000 418.400000
1206 11738 11187 1 109.50000 418.400000
1207 11738 11155 1 109.50000 418.400000
1207 11738 11187 1 109.50000 418.400000
11155 11738 11187 1 109.50000 418.400000
316 11739 1208 1 109.50000 418.400000
316 11739 1209 1 109.50000 418.400000
316 11739 1210 1 109.50000 418.400000
1208 11739 1209 1 109.50000 418.400000
1208 11739 1210 1 109.50000 418.400000
1209 11739 1210 1 109.50000 418.400000
1211 11740 1212 1 109.50000 418.400000
1211 11740 1213 1 109.50000 418.400000
1211 11740 1214 1 109.50000 418.400000
1212 11740 1213 1 109.50000 418.400000
1212 11740 1214 1 109.50000 418.400000
1213 11740 1214 1 109.50000 418.400000
1215 11741 1216 1 109.50000 418.400000
1215 11741 1217 1 109.50000 418.400000
1215 11741 1218 1 109.50000 418.400000
1216 11741 1217 1 109.50000 418.400000
1216 11741 1218 1 109.50000 418.400000
1217 11741 1218 1 109.50000 418.400000
894 11742 896 1 109.50000 418.400000
894 11742 1219 1 109.50000 418.400000
894 11742 1221 1 109.50000 418.400000
896 11742 1219 1 109.50000 418.400000
896 11742 1221 1 109.50000 418.400000
1219 11742 1221 1 109.50000 418.400000
1222 11743 1223 1 109.50000 418.400000
1222 11743 1224 1 109.50000 418.400000
1222 11743 11356 1 109.50000 418.400000
1223 11743 1224 1 109.50000 418.400000
1223 11743 11356 1 109.50000 418.400000
1224 11743 11356 1 109.50000 418.400000
1225 11744 1226 1 109.50000 418.400000
1225 11744 1227 1 109.50000 418.400000
1225 11744 1228 1 109.50000 418.400000
1226 11744 1227 1 109.50000 418.400000
1226 11744 1228 1 109.50000 418.400000
1227 11744 1228 1 109.50000 418.400000
1229 11745 1230 1 109.50000 418.400000
1229 11745 1231 1 109.50000 418.400000
1229 11745 1232 1 109.50000 418.400000
1230 11745 1231 1 109.50000 418.400000
1230 11745 1232 1 109.50000 418.400000
1231 11745 1232 1 109.50000 418.400000
1233 11746 1234 1 109.50000 418.400000
1233 11746 1235 1 109.50000 418.400000
1233 11746 1236 1 109.50000 418.400000
1234 11746 1235 1 109.50000 418.400000
1234 11746 1236 1 109.50000 418.400000
1235 11746 1236 1 109.50000 418.400000
1237 11747 1238 1 109.50000 418.400000
1237 11747 1239 1 109.50000 418.400000
1237 11747 11357 1 109.50000 418.400000
1238 11747 1239 1 109.50000 418.400000
1238 11747 11357 1 109.50000 418.400000
1239 11747 11357 1 109.50000 418.400000
687 11748 1240 1 109.50000 418.400000
687 11748 1241 1 109.50000 418.400000
687 11748 1242 1 109.50000 418.400000
1240 11748 1241 1 109.50000 418.400000
1240 11748 1242 1 109.50000 418.400000
1241 11748 1242 1 109.50000 418.400000
390 11749 1243 1 109.50000 418.400000
390 11749 1244 1 109.50000 418.400000
390 11749 1245 1 109.50000 418.400000
1243 11749 1244 1 109.50000 418.400000
1243 11749 1245 1 109.50000 418.400000
1244 11749 1245 1 109.50000 418.400000
1246 11750 1247 1 109.50000 418.400000
1246 11750 1248 1 109.50000 418.400000
1246 11750 1249 1 109.50000 418.400000
1247 11750 1248 1 109.50000 418.400000
1247 11750 1249 1 109.50000 418.400000
1248 11750 1249 1 109.50000 418.400000
1250 11751 1251 1 109.50000 418.400000
1250 11751 1252 1 109.50000 418.400000
1250 11751 1253 1 109.50000 418.400000
1251 11751 1252 1 109.50000 418.400000
1251 11751 1253 1 109.50000 418.400000
1252 11751 1253 1 109.50000 418.400000
1254 11752 1255 1 109.50000 418.400000
1254 11752 1256 1 109.50000 418.400000
1254 11752 1257 1 109.50000 418.400000
1255 11752 1256 1 109.50000 418.400000
1255 11752 1257 1 109.50000 418.400000
1256 11752 1257 1 109.50000 418.400000
1259 11753 1260 1 109.50000 418.400000
1259 11753 1261 1 109.50000 418.400000
1259 11753 1262 1 109.50000 418.400000
1260 11753 1261 1 109.50000 418.400000
1260 11753 1262 1 109.50000 418.400000
1261 11753 1262 1 109.50000 418.400000
160 11754 1263 1 109.50000 418.400000
160 11754 1264 1 109.50000 418.400000
160 11754 1265 1 109.50000 418.400000
1263 11754 1264 1 109.50000 418.400000
1263 11754 1265 1 109.50000 418.400000
1264 11754 1265 1 109.50000 418.400000
1266 11755 1267 1 109.50000 418.400000
1266 11755 1268 1 109.50000 418.400000
1266 11755 1269 1 109.50000 418.400000
1267 11755 1268 1 109.50000 418.400000
1267 11755 1269 1 109.50000 418.400000
1268 11755 1269 1 109.50000 418.400000
1270 11756 1271 1 109.50000 418.400000
1270 11756 1272 1 109.50000 418.400000
1270 11756 1273 1 109.50000 418.400000
1271 11756 1272 1 109.50000 418.400000
1271 11756 1273 1 109.50000 418.400000
1272 11756 1273 1 109.50000 418.400000
1274 11757 1275 1 109.50000 418.400000
1274 11757 1276 1 109.50000 418.400000
1274 11757 1277 1 109.50000 418.400000
1275 11757 1276 1 109.50000 418.400000
1275 11757 1277 1 109.50000 418.400000
1276 11757 1277 1 109.50000 418.400000
1278 11758 1279 1 109.50000 418.400000
1278 11758 1280 1 109.50000 418.400000
1278 11758 1281 1 109.50000 418.400000
1279 11758 1280 1 109.50000 418.400000
1279 11758 1281 1 109.50000 418.400000
1280 11758 1281 1 109.50000 418.400000
1282 11759 1283 1 109.50000 418.400000
1282 11759 1285 1 109.50000 418.400000
1282 11759 8383 1 109.50000 418.400000
1283 11759 1285 1 109.50000 418.400000
1283 11759 8383 1 109.50000 418.400000
1285 11759 8383 1 109.50000 418.400000
1286 11760 1288 1 109.50000 418.400000
1286 11760 9978 1 109.50000 418.400000
1286 11760 11252 1 109.50000 418.400000
1288 11760 9978 1 109.50000 418.400000
1288 11760 11252 1 109.50000 418.400000
9978 11760 11252 1 109.50000 418.400000
949 11761 1289 1 109.50000 418.400000
949 11761 1290 1 109.50000 418.400000
949 11761 1291 1 109.50000 418.400000
1289 11761 1290 1 109.50000 418.400000
1289 11761 1291 1 109.50000 418.400000
1290 11761 1291 1 109.50000 418.400000
1292 11762 1293 1 109.50000 418.400000
1292 11762 1294 1 109.50000 418.400000
1292 11762 1295 1 109.50000 418.400000
1293 11762 1294 1 109.50000 418.400000
1293 11762 1295 1 109.50000 418.400000
1294 11762 1295 1 109.50000 418.400000
668 11763 1296 1 109.50000 418.400000
668 11763 1297 1 109.50000 418.400000
668 11763 1298 1 109.50000 418.400000
1296 11763 1297 1 109.50000 418.400000
1296 11763 1298 1 109.50000 418.400000
1297 11763 1298 1 109.50000 418.400000
1299 11764 1300 1 109.50000 418.400000
1299 11764 1301 1 109.50000 418.400000
1299 11764 1302 1 109.50000 418.400000
1300 11764 1301 1 109.50000 418.400000
1300 11764 1302 1 109.50000 418.400000
1301 11764 1302 1 109.50000 418.400000
1303 11765 1305 1 109.50000 418.400000
1303 11765 1306 1 109.50000 418.400000
1303 11765 8986 1 109.50000 418.400000
1305 11765 1306 1 109.50000 418.400000
1305 11765 8986 1 109.50000 418.400000
1306 11765 8986 1 109.50000 418.400000
1047 11766 1307 1 109.50000 418.400000
1047 11766 1308 1 109.50000 418.400000
1047 11766 1309 1 109.50000 418.400000
1307 11766 1308 1 109.50000 418.400000
1307 11766 1309 1 109.50000 418.400000
1308 11766 1309 1 109.50000 418.400000
1225 11767 1310 1 109.50000 418.400000
1225 11767 1311 1 109.50000 418.400000
1225 11767 1312 1 109.50000 418.400000
1310 11767 1311 1 109.50000 418.400000
1310 11767 1312 1 109.50000 418.400000
1311 11767 1312 1 109.50000 418.400000
1313 11768 1314 1 109.50000 418.400000
1313 11768 1315 1 109.50000 418.400000
1313 11768 1316 1 109.50000 418.400000
1314 11768 1315 1 109.50000 418.400000
1314 11768 1316 1 109.50000 418.400000
1315 11768 1316 1 109.50000 418.400000
1317 11769 1318 1 109.50000 418.400000
1317 11769 1319 1 109.50000 418.400000
1317 11769 1320 1 109.50000 418.400000
1318 11769 1319 1 109.50000 418.400000
1318 11769 1320 1 109.50000 418.400000
1319 11769 1320 1 109.50000 418.400000
1321 11770 1322 1 109.50000 418.400000
1321 11770 1323 1 109.50000 418.400000
1321 11770 1324 1 109.50000 418.400000
1322 11770 1323 1 109.50000 418.400000
1322 11770 1324 1 109.50000 418.400000
1323 11770 1324 1 109.50000 418.400000
1325 11771 1326 1 109.50000 418.400000
1325 11771 1327 1 109.50000 418.400000
1325 11771 1328 1 109.50000 418.400000
1326 11771 1327 1 109.50000 418.400000
1326 11771 1328 1 109.50000 418.400000
1327 11771 1328 1 109.50000 418.400000
1329 11772 1331 1 109.50000 418.400000
1329 11772 2429 1 109.50000 418.400000
1329 11772 11358 1 109.50000 418.400000
1331 11772 2429 1 109.50000 418.400000
1331 11772 11358 1 109.50000 418.400000
2429 11772 11358 1 109.50000 418.400000
1332 11773 1333 1 109.50000 418.400000
1332 11773 1334 1 109.50000 418.400000
1332 11773 1335 1 109.50000 418.400000
1333 11773 1334 1 109.50000 418.400000
1333 11773 1335 1 109.50000 418.400000
1334 11773 1335 1 109.50000 418.400000
1336 11774 1337 1 109.50000 418.400000
1336 11774 1338 1 109.50000 418.400000
1336 11774 1339 1 109.50000 418.400000
1337 11774 1338 1 109.50000 418.400000
1337 11774 1339 1 109.50000 418.400000
1338 11774 1339 1 109.50000 418.400000
311 11775 1340 1 109.50000 418.400000
311 11775 1341 1 109.50000 418.400000
311 11775 1342 1 109.50000 418.400000
1340 11775 1341 1 109.50000 418.400000
1340 11775 1342 1 109.50000 418.400000
1341 11775 1342 1 109.50000 418.400000
1343 11776 1344 1 109.50000 418.400000
1343 11776 11156 1 109.50000 418.400000
1343 11776 11359 1 109.50000 418.400000
1344 11776 11156 1 109.50000 418.400000
1344 11776 11359 1 109.50000 418.400000
11156 11776 11359 1 109.50000 418.400000
1345 11777 1346 1 109.50000 418.400000
1345 11777 1347 1 109.50000 418.400000
1345 11777 1348 1 109.50000 418.400000
1346 11777 1347 1 109.50000 418.400000
1346 11777 1348 1 109.50000 418.400000
1347 11777 1348 1 109.50000 418.400000
1351 11778 5197 1 109.50000 418.400000
1351 11778 7319 1 109.50000 418.400000
1351 11778 7320 1 109.50000 418.400000
5197 11778 7319 1 109.50000 418.400000
5197 11778 7320 1 109.50000 418.400000
7319 11778 7320 1 109.50000 418.400000
1353 11779 1355 1 109.50000 418.400000
1353 11779 1356 1 109.50000 418.400000
1353 11779 9709 1 109.50000 418.400000
1355 11779 1356 1 109.50000 418.400000
1355 11779 9709 1 109.50000 418.400000
1356 11779 9709 1 109.50000 418.400000
1358 11780 1360 1 109.50000 418.400000
1358 11780 3234 1 109.50000 418.400000
1358 11780 3235 1 109.50000 418.400000
1360 11780 3234 1 109.50000 418.400000
1360 11780 3235 1 109.50000 418.400000
3234 11780 3235 1 109.50000 418.400000
1361 11781 1362 1 109.50000 418.400000
1361 11781 1363 1 109.50000 418.400000
1361 11781 1364 1 109.50000 418.400000
1362 11781 1363 1 109.50000 418.400000
1362 11781 1364 1 109.50000 418.400000
1363 11781 1364 1 109.50000 418.400000
1365 11782 1366 1 109.50000 418.400000
1365 11782 1367 1 109.50000 418.400000
1365 11782 1368 1 109.50000 418.400000
1366 11782 1367 1 109.50000 418.400000
1366 11782 1368 1 109.50000 418.400000
1367 11782 1368 1 109.50000 418.400000
1369 11783 1370 1 109.50000 418.400000
1369 11783 1371 1 109.50000 418.400000
1369 11783 1372 1 109.50000 418.400000
1370 11783 1371 1 109.50000 418.400000
1370 11783 1372 1 109.50000 418.400000
1371 11783 1372 1 109.50000 418.400000
4 11784 1373 1 109.50000 418.400000
4 11784 1374 1 109.50000 418.400000
4 11784 1375 1 109.50000 418.400000
1373 11784 1374 1 109.50000 418.400000
1373 11784 1375 1 109.50000 418.400000
1374 11784 1375 1 109.50000 418.400000
1376 11785 1377 1 109.50000 418.400000
1376 11785 1378 1 109.50000 418.400000
1376 11785 1379 1 109.50000 418.400000
1377 11785 1378 1 109.50000 418.400000
1377 11785 1379 1 109.50000 418.400000
1378 11785 1379 1 109.50000 418.400000
1380 11786 1381 1 109.50000 418.400000
1380 11786 1382 1 109.50000 418.400000
1380 11786 11360 1 109.50000 418.400000
1381 11786 1382 1 109.50000 418.400000
1381 11786 11360 1 109.50000 418.400000
1382 11786 11360 1 109.50000 418.400000
1383 11787 1384 1 109.50000 418.400000
1383 11787 1385 1 109.50000 418.400000
1383 11787 1386 1 109.50000 418.400000
1384 11787 1385 1 109.50000 418.400000
1384 11787 1386 1 109.50000 418.400000
1385 11787 1386 1 109.50000 418.400000
1387 11788 1388 1 109.50000 418.400000
1387 11788 1389 1 109.50000 418.400000
1387 11788 11361 1 109.50000 418.400000
1388 11788 1389 1 109.50000 418.400000
1388 11788 11361 1 109.50000 418.400000
1389 11788 11361 1 109.50000 418.400000
1390 11789 1391 1 109.50000 418.400000
1390 11789 1392 1 109.50000 418.400000
1390 11789 1393 1 109.50000 418.400000
1391 11789 1392 1 109.50000 418.400000
1391 11789 1393 1 109.50000 418.400000
1392 11789 1393 1 109.50000 418.400000
1394 11790 1395 1 109.50000 418.400000
1394 11790 1396 1 109.50000 418.400000
1394 11790 1397 1 109.50000 418.400000
1395 11790 1396 1 109.50000 418.400000
1395 11790 1397 1 109.50000 418.400000
1396 11790 1397 1 109.50000 418.400000
1398 11791 1399 1 109.50000 418.400000
1398 11791 1400 1 109.50000 418.400000
1398 11791 1401 1 109.50000 418.400000
1399 11791 1400 1 109.50000 418.400000
1399 11791 1401 1 109.50000 418.400000
1400 11791 1401 1 109.50000 418.400000
1402 11792 1404 1 109.50000 418.400000
1402 11792 1405 1 109.50000 418.400000
1402 11792 3796 1 109.50000 418.400000
1404 11792 1405 1 109.50000 418.400000
1404 11792 3796 1 109.50000 418.400000
1405 11792 3796 1 109.50000 418.400000
1406 11793 1407 1 109.50000 418.400000
1406 11793 1408 1 109.50000 418.400000
1406 11793 11362 1 109.50000 418.400000
1407 11793 1408 1 109.50000 418.400000
1407 11793 11362 1 109.50000 418.400000
1408 11793 11362 1 109.50000 418.400000
1410 11794 1411 1 109.50000 418.400000
1410 11794 1412 1 109.50000 418.400000
1410 11794 5204 1 109.50000 418.400000
1411 11794 1412 1 109.50000 418.400000
1411 11794 5204 1 109.50000 418.400000
1412 11794 5204 1 109.50000 418.400000
1413 11795 1414 1 109.50000 418.400000
1413 11795 11157 1 109.50000 418.400000
1413 11795 11363 1 109.50000 418.400000
1414 11795 11157 1 109.50000 418.400000
1414 11795 11363 1 109.50000 418.400000
11157 11795 11363 1 109.50000 418.400000
1218 11796 1415 1 109.50000 418.400000
1218 11796 1416 1 109.50000 418.400000
1218 11796 1417 1 109.50000 418.400000
1415 11796 1416 1 109.50000 418.400000
1415 11796 1417 1 109.50000 418.400000
1416 11796 1417 1 109.50000 418.400000
1418 11797 1419 1 109.50000 418.400000
1418 11797 1420 1 109.50000 418.400000
1418 11797 1421 1 109.50000 418.400000
1419 11797 1420 1 109.50000 418.400000
1419 11797 1421 1 109.50000 418.400000
1420 11797 1421 1 109.50000 418.400000
1422 11798 1423 1 109.50000 418.400000
1422 11798 1424 1 109.50000 418.400000
1422 11798 1425 1 109.50000 418.400000
1423 11798 1424 1 109.50000 418.400000
1423 11798 1425 1 109.50000 418.400000
1424 11798 1425 1 109.50000 418.400000
1426 11799 1427 1 109.50000 418.400000
1426 11799 1428 1 109.50000 418.400000
1426 11799 1429 1 109.50000 418.400000
1427 11799 1428 1 109.50000 418.400000
1427 11799 1429 1 109.50000 418.400000
1428 11799 1429 1 109.50000 418.400000
984 11800 1430 1 109.50000 418.400000
984 11800 1431 1 109.50000 418.400000
984 11800 1432 1 109.50000 418.400000
1430 11800 1431 1 109.50000 418.400000
1430 11800 1432 1 109.50000 418.400000
1431 11800 1432 1 109.50000 418.400000
339 11801 1433 1 109.50000 418.400000
339 11801 1434 1 109.50000 418.400000
339 11801 1435 1 109.50000 418.400000
1433 11801 1434 1 109.50000 418.400000
1433 11801 1435 1 109.50000 418.400000
1434 11801 1435 1 109.50000 418.400000
1436 11802 1437 1 109.50000 418.400000
1436 11802 1438 1 109.50000 418.400000
1436 11802 1439 1 109.50000 418.400000
1437 11802 1438 1 109.50000 418.400000
1437 11802 1439 1 109.50000 418.400000
1438 11802 1439 1 109.50000 418.400000
1440 11803 1441 1 109.50000 418.400000
1440 11803 1442 1 109.50000 418.400000
1440 11803 8166 1 109.50000 418.400000
1441 11803 1442 1 109.50000 418.400000
1441 11803 8166 1 109.50000 418.400000
1442 11803 8166 1 109.50000 418.400000
1443 11804 1444 1 109.50000 418.400000
1443 11804 11158 1 109.50000 418.400000
1443 11804 11364 1 109.50000 418.400000
1444 11804 11158 1 109.50000 418.400000
1444 11804 11364 1 109.50000 418.400000
11158 11804 11364 1 109.50000 418.400000
1445 11805 1446 1 109.50000 418.400000
1445 11805 1447 1 109.50000 418.400000
1445 11805 1448 1 109.50000 418.400000
1446 11805 1447 1 109.50000 418.400000
1446 11805 1448 1 109.50000 418.400000
1447 11805 1448 1 109.50000 418.400000
1449 11806 1450 1 109.50000 418.400000
1449 11806 11159 1 109.50000 418.400000
1449 11806 11259 1 109.50000 418.400000
1450 11806 11159 1 109.50000 418.400000
1450 11806 11259 1 109.50000 418.400000
11159 11806 11259 1 109.50000 418.400000
129 11807 1451 1 109.50000 418.400000
129 11807 1452 1 109.50000 418.400000
129 11807 1453 1 109.50000 418.400000
1451 11807 1452 1 109.50000 418.400000
1451 11807 1453 1 109.50000 418.400000
1452 11807 1453 1 109.50000 418.400000
1454 11808 1455 1 109.50000 418.400000
1454 11808 1456 1 109.50000 418.400000
1454 11808 11365 1 109.50000 418.400000
1455 11808 1456 1 109.50000 418.400000
1455 11808 11365 1 109.50000 418.400000
1456 11808 11365 1 109.50000 418.400000
1256 11809 1457 1 109.50000 418.400000
1256 11809 1458 1 109.50000 418.400000
1256 11809 1459 1 109.50000 418.400000
1457 11809 1458 1 109.50000 418.400000
1457 11809 1459 1 109.50000 418.400000
1458 11809 1459 1 109.50000 418.400000
1461 11810 1462 1 109.50000 418.400000
1461 11810 8161 1 109.50000 418.400000
1461 11810 8162 1 109.50000 418.400000
1462 11810 8161 1 109.50000 418.400000
1462 11810 8162 1 109.50000 418.400000
8161 11810 8162 1 109.50000 418.400000
1464 11811 1465 1 109.50000 418.400000
1464 11811 1466 1 109.50000 418.400000
1464 11811 1467 1 109.50000 418.400000
1465 11811 1466 1 109.50000 418.400000
1465 11811 1467 1 109.50000 418.400000
1466 11811 1467 1 109.50000 418.400000
1470 11812 1471 1 109.50000 418.400000
1470 11812 11160 1 109.50000 418.400000
1470 11812 11182 1 109.50000 418.400000
1471 11812 11160 1 109.50000 418.400000
1471 11812 11182 1 109.50000 418.400000
11160 11812 11182 1 109.50000 418.400000
1472 11813 1473 1 109.50000 418.400000
1472 11813 1474 1 109.50000 418.400000
1472 11813 1475 1 109.50000 418.400000
1473 11813 1474 1 109.50000 418.400000
1473 11813 1475 1 109.50000 418.400000
1474 11813 1475 1 109.50000 418.400000
1476 11814 1477 1 109.50000 418.400000
1476 11814 11161 1 109.50000 418.400000
1476 11814 11172 1 109.50000 418.400000
1477 11814 11161 1 109.50000 418.400000
1477 11814 11172 1 109.50000 418.400000
11161 11814 11172 1 109.50000 418.400000
1478 11815 1479 1 109.50000 418.400000
1478 11815 1480 1 109.50000 418.400000
1478 11815 1481 1 109.50000 418.400000
1479 11815 1480 1 109.50000 418.400000
1479 11815 1481 1 109.50000 418.400000
1480 11815 1481 1 109.50000 418.400000
1482 11816 1483 1 109.50000 418.400000
1482 11816 1484 1 109.50000 418.400000
1482 11816 1485 1 109.50000 418.400000
1483 11816 1484 1 109.50000 418.400000
1483 11816 1485 1 109.50000 418.400000
1484 11816 1485 1 109.50000 418.400000
1486 11817 1487 1 109.50000 418.400000
1486 11817 1488 1 109.50000 418.400000
1486 11817 1489 1 109.50000 418.400000
1487 11817 1488 1 109.50000 418.400000
1487 11817 1489 1 109.50000 418.400000
1488 11817 1489 1 109.50000 418.400000
1490 11818 1491 1 109.50000 418.400000
1490 11818 1492 1 109.50000 418.400000
1490 11818 1493 1 109.50000 418.400000
1491 11818 1492 1 109.50000 418.400000
1491 11818 1493 1 109.50000 418.400000
1492 11818 1493 1 109.50000 418.400000
1494 11819 1495 1 109.50000 418.400000
1494 11819 1496 1 109.50000 418.400000
1494 11819 1497 1 109.50000 418.400000
1495 11819 1496 1 109.50000 418.400000
1495 11819 1497 1 109.50000 418.400000
1496 11819 1497 1 109.50000 418.400000
1498 11820 1500 1 109.50000 418.400000
1498 11820 1501 1 109.50000 418.400000
1498 11820 3617 1 109.50000 418.400000
1500 11820 1501 1 109.50000 418.400000
1500 11820 3617 1 109.50000 418.400000
1501 11820 3617 1 109.50000 418.400000
1502 11821 1503 1 109.50000 418.400000
1502 11821 1504 1 109.50000 418.400000
1502 11821 1505 1 109.50000 418.400000
1503 11821 1504 1 109.50000 418.400000
1503 11821 1505 1 109.50000 418.400000
1504 11821 1505 1 109.50000 418.400000
1506 11822 1507 1 109.50000 418.400000
1506 11822 1508 1 109.50000 418.400000
1506 11822 1509 1 109.50000 418.400000
1507 11822 1508 1 109.50000 418.400000
1507 11822 1509 1 109.50000 418.400000
1508 11822 1509 1 109.50000 418.400000
1510 11823 1511 1 109.50000 418.400000
1510 11823 1512 1 109.50000 418.400000
1510 11823 1513 1 109.50000 418.400000
1511 11823 1512 1 109.50000 418.400000
1511 11823 1513 1 109.50000 418.400000
1512 11823 1513 1 109.50000 418.400000
1514 11824 1515 1 109.50000 418.400000
1514 11824 1516 1 109.50000 418.400000
1514 11824 1517 1 109.50000 418.400000
1515 11824 1516 1 109.50000 418.400000
1515 11824 1517 1 109.50000 418.400000
1516 11824 1517 1 109.50000 418.400000
1518 11825 1519 1 109.50000 418.400000
1518 11825 1520 1 109.50000 418.400000
1518 11825 1521 1 109.50000 418.400000
1519 11825 1520 1 109.50000 418.400000
1519 11825 1521 1 109.50000 418.400000
1520 11825 1521 1 109.50000 418.400000
1522 11826 1523 1 109.50000 418.400000
1522 11826 1524 1 109.50000 418.400000
1522 11826 1525 1 109.50000 418.400000
1523 11826 1524 1 109.50000 418.400000
1523 11826 1525 1 109.50000 418.400000
1524 11826 1525 1 109.50000 418.400000
1526 11827 1527 1 109.50000 418.400000
1526 11827 1528 1 109.50000 418.400000
1526 11827 1529 1 109.50000 418.400000
1527 11827 1528 1 109.50000 418.400000
1527 11827 1529 1 109.50000 418.400000
1528 11827 1529 1 109.50000 418.400000
1530 11828 1531 1 109.50000 418.400000
1530 11828 1532 1 109.50000 418.400000
1530 11828 1533 1 109.50000 418.400000
1531 11828 1532 1 109.50000 418.400000
1531 11828 1533 1 109.50000 418.400000
1532 11828 1533 1 109.50000 418.400000
1534 11829 1535 1 109.50000 418.400000
1534 11829 1536 1 109.50000 418.400000
1534 11829 1537 1 109.50000 418.400000
1535 11829 1536 1 109.50000 418.400000
1535 11829 1537 1 109.50000 418.400000
1536 11829 1537 1 109.50000 418.400000
1308 11830 1538 1 109.50000 418.400000
1308 11830 1539 1 109.50000 418.400000
1308 11830 1540 1 109.50000 418.400000
1538 11830 1539 1 109.50000 418.400000
1538 11830 1540 1 109.50000 418.400000
1539 11830 1540 1 109.50000 418.400000
1541 11831 1542 1 109.50000 418.400000
1541 11831 11162 1 109.50000 418.400000
1541 11831 11366 1 109.50000 418.400000
1542 11831 11162 1 109.50000 418.400000
1542 11831 11366 1 109.50000 418.400000
11162 11831 11366 1 109.50000 418.400000
1543 11832 1544 1 109.50000 418.400000
1543 11832 1545 1 109.50000 418.400000
1543 11832 1546 1 109.50000 418.400000
1544 11832 1545 1 109.50000 418.400000
1544 11832 1546 1 109.50000 418.400000
1545 11832 1546 1 109.50000 418.400000
1547 11833 1548 1 109.50000 418.400000
1547 11833 1549 1 109.50000 418.400000
1547 11833 1550 1 109.50000 418.400000
1548 11833 1549 1 109.50000 418.400000
1548 11833 1550 1 109.50000 418.400000
1549 11833 1550 1 109.50000 418.400000
1551 11834 1552 1 109.50000 418.400000
1551 11834 1553 1 109.50000 418.400000
1551 11834 1554 1 109.50000 418.400000
1552 11834 1553 1 109.50000 418.400000
1552 11834 1554 1 109.50000 418.400000
1553 11834 1554 1 109.50000 418.400000
1555 11835 1556 1 109.50000 418.400000
1555 11835 1557 1 109.50000 418.400000
1555 11835 1558 1 109.50000 418.400000
1556 11835 1557 1 109.50000 418.400000
1556 11835 1558 1 109.50000 418.400000
1557 11835 1558 1 109.50000 418.400000
1559 11836 1560 1 109.50000 418.400000
1559 11836 1561 1 109.50000 418.400000
1559 11836 1562 1 109.50000 418.400000
1560 11836 1561 1 109.50000 418.400000
1560 11836 1562 1 109.50000 418.400000
1561 11836 1562 1 109.50000 418.400000
1563 11837 1564 1 109.50000 418.400000
1563 11837 1565 1 109.50000 418.400000
1563 11837 1566 1 109.50000 418.400000
1564 11837 1565 1 109.50000 418.400000
1564 11837 1566 1 109.50000 418.400000
1565 11837 1566 1 109.50000 418.400000
1567 11838 1569 1 109.50000 418.400000
1567 11838 1570 1 109.50000 418.400000
1567 11838 3972 1 109.50000 418.400000
1569 11838 1570 1 109.50000 418.400000
1569 11838 3972 1 109.50000 418.400000
1570 11838 3972 1 109.50000 418.400000
1571 11839 1572 1 109.50000 418.400000
1571 11839 1573 1 109.50000 418.400000
1571 11839 1574 1 109.50000 418.400000
1572 11839 1573 1 109.50000 418.400000
1572 11839 1574 1 109.50000 418.400000
1573 11839 1574 1 109.50000 418.400000
1116 11840 1575 1 109.50000 418.400000
1116 11840 1577 1 109.50000 418.400000
1116 11840 1578 1 109.50000 418.400000
1575 11840 1577 1 109.50000 418.400000
1575 11840 1578 1 109.50000 418.400000
1577 11840 1578 1 109.50000 418.400000
1579 11841 1580 1 109.50000 418.400000
1579 11841 1581 1 109.50000 418.400000
1579 11841 1582 1 109.50000 418.400000
1580 11841 1581 1 109.50000 418.400000
1580 11841 1582 1 109.50000 418.400000
1581 11841 1582 1 109.50000 418.400000
208 11842 1583 1 109.50000 418.400000
208 11842 1584 1 109.50000 418.400000
208 11842 1585 1 109.50000 418.400000
1583 11842 1584 1 109.50000 418.400000
1583 11842 1585 1 109.50000 418.400000
1584 11842 1585 1 109.50000 418.400000
1052 11843 1586 1 109.50000 418.400000
1052 11843 1587 1 109.50000 418.400000
1052 11843 10998 1 109.50000 418.400000
1586 11843 1587 1 109.50000 418.400000
1586 11843 10998 1 109.50000 418.400000
1587 11843 10998 1 109.50000 418.400000
1589 11844 1590 1 109.50000 418.400000
1589 11844 1591 1 109.50000 418.400000
1589 11844 1592 1 109.50000 418.400000
1590 11844 1591 1 109.50000 418.400000
1590 11844 1592 1 109.50000 418.400000
1591 11844 1592 1 109.50000 418.400000
9 11845 1593 1 109.50000 418.400000
9 11845 1594 1 109.50000 418.400000
9 11845 1595 1 109.50000 418.400000
1593 11845 1594 1 109.50000 418.400000
1593 11845 1595 1 109.50000 418.400000
1594 11845 1595 1 109.50000 418.400000
226 11846 1596 1 109.50000 418.400000
226 11846 1597 1 109.50000 418.400000
226 11846 1598 1 109.50000 418.400000
1596 11846 1597 1 109.50000 418.400000
1596 11846 1598 1 109.50000 418.400000
1597 11846 1598 1 109.50000 418.400000
946 11847 1599 1 109.50000 418.400000
946 11847 1600 1 109.50000 418.400000
946 11847 1601 1 109.50000 418.400000
1599 11847 1600 1 109.50000 418.400000
1599 11847 1601 1 109.50000 418.400000
1600 11847 1601 1 109.50000 418.400000
113 11848 1602 1 109.50000 418.400000
113 11848 1603 1 109.50000 418.400000
113 11848 1604 1 109.50000 418.400000
1602 11848 1603 1 109.50000 418.400000
1602 11848 1604 1 109.50000 418.400000
1603 11848 1604 1 109.50000 418.400000
1605 11849 1606 1 109.50000 418.400000
1605 11849 1607 1 109.50000 418.400000
1605 11849 1608 1 109.50000 418.400000
1606 11849 1607 1 109.50000 418.400000
1606 11849 1608 1 109.50000 418.400000
1607 11849 1608 1 109.50000 418.400000
1609 11850 1610 1 109.50000 418.400000
1609 11850 1611 1 109.50000 418.400000
1609 11850 7765 1 109.50000 418.400000
1610 11850 1611 1 109.50000 418.400000
1610 11850 7765 1 109.50000 418.400000
1611 11850 7765 1 109.50000 418.400000
1187 11851 1613 1 109.50000 418.400000
1187 11851 1614 1 109.50000 418.400000
1187 11851 1615 1 109.50000 418.400000
1613 11851 1614 1 109.50000 418.400000
1613 11851 1615 1 109.50000 418.400000
1614 11851 1615 1 109.50000 418.400000
345 11852 1616 1 109.50000 418.400000
345 11852 1617 1 109.50000 418.400000
345 11852 1618 1 109.50000 418.400000
1616 11852 1617 1 109.50000 418.400000
1616 11852 1618 1 109.50000 418.400000
1617 11852 1618 1 109.50000 418.400000
1620 11853 1621 1 109.50000 418.400000
1620 11853 1622 1 109.50000 418.400000
1620 11853 2338 1 109.50000 418.400000
1621 11853 1622 1 109.50000 418.400000
1621 11853 2338 1 109.50000 418.400000
1622 11853 2338 1 109.50000 418.400000
1626 11854 1627 1 109.50000 418.400000
1626 11854 1628 1 109.50000 418.400000
1626 11854 1629 1 109.50000 418.400000
1627 11854 1628 1 109.50000 418.400000
1627 11854 1629 1 109.50000 418.400000
1628 11854 1629 1 109.50000 418.400000
1630 11855 1631 1 109.50000 418.400000
1630 11855 1632 1 109.50000 418.400000
1630 11855 8057 1 109.50000 418.400000
1631 11855 1632 1 109.50000 418.400000
1631 11855 8057 1 109.50000 418.400000
1632 11855 8057 1 109.50000 418.400000
1634 11856 1635 1 109.50000 418.400000
1634 11856 1636 1 109.50000 418.400000
1634 11856 11367 1 109.50000 418.400000
1635 11856 1636 1 109.50000 418.400000
1635 11856 11367 1 109.50000 418.400000
1636 11856 11367 1 109.50000 418.400000
1637 11857 1638 1 109.50000 418.400000
1637 11857 1639 1 109.50000 418.400000
1637 11857 1640 1 109.50000 418.400000
1638 11857 1639 1 109.50000 418.400000
1638 11857 1640 1 109.50000 418.400000
1639 11857 1640 1 109.50000 418.400000
79 11858 1641 1 109.50000 418.400000
79 11858 1642 1 109.50000 418.400000
79 11858 1643 1 109.50000 418.400000
1641 11858 1642 1 109.50000 418.400000
1641 11858 1643 1 109.50000 418.400000
1642 11858 1643 1 109.50000 418.400000
328 11859 995 1 109.50000 418.400000
328 11859 3056 1 109.50000 418.400000
328 11859 3577 1 109.50000 418.400000
995 11859 3056 1 109.50000 418.400000
995 11859 3577 1 109.50000 418.400000
3056 11859 3577 1 109.50000 418.400000
1650 11860 1651 1 109.50000 418.400000
1650 11860 11163 1 109.50000 418.400000
1650 11860 11368 1 109.50000 418.400000
1651 11860 11163 1 109.50000 418.400000
1651 11860 11368 1 109.50000 418.400000
11163 11860 11368 1 109.50000 418.400000
1652 11861 1653 1 109.50000 418.400000
1652 11861 1654 1 109.50000 418.400000
1652 11861 11255 1 109.50000 418.400000
1653 11861 1654 1 109.50000 418.400000
1653 11861 11255 1 109.50000 418.400000
1654 11861 11255 1 109.50000 418.400000
1656 11862 1657 1 109.50000 418.400000
1656 11862 1658 1 109.50000 418.400000
1656 11862 1659 1 109.50000 418.400000
1657 11862 1658 1 109.50000 418.400000
1657 11862 1659 1 109.50000 418.400000
1658 11862 1659 1 109.50000 418.400000
1660 11863 1661 1 109.50000 418.400000
1660 11863 1662 1 109.50000 418.400000
1660 11863 1663 1 109.50000 418.400000
1661 11863 1662 1 109.50000 418.400000
1661 11863 1663 1 109.50000 418.400000
1662 11863 1663 1 109.50000 418.400000
1664 11864 1665 1 109.50000 418.400000
1664 11864 1666 1 109.50000 418.400000
1664 11864 1667 1 109.50000 418.400000
1665 11864 1666 1 109.50000 418.400000
1665 11864 1667 1 109.50000 418.400000
1666 11864 1667 1 109.50000 418.400000
1668 11865 1669 1 109.50000 418.400000
1668 11865 1670 1 109.50000 418.400000
1668 11865 1671 1 109.50000 418.400000
1669 11865 1670 1 109.50000 418.400000
1669 11865 1671 1 109.50000 418.400000
1670 11865 1671 1 109.50000 418.400000
646 11866 1619 1 109.50000 418.400000
646 11866 1672 1 109.50000 418.400000
646 11866 1673 1 109.50000 418.400000
1619 11866 1672 1 109.50000 418.400000
1619 11866 1673 1 109.50000 418.400000
1672 11866 1673 1 109.50000 418.400000
1674 11867 1675 1 109.50000 418.400000
1674 11867 1676 1 109.50000 418.400000
1674 11867 1677 1 109.50000 418.400000
1675 11867 1676 1 109.50000 418.400000
1675 11867 1677 1 109.50000 418.400000
1676 11867 1677 1 109.50000 418.400000
153 11868 1678 1 109.50000 418.400000
153 11868 1679 1 109.50000 418.400000
153 11868 1680 1 109.50000 418.400000
1678 11868 1679 1 109.50000 418.400000
1678 11868 1680 1 109.50000 418.400000
1679 11868 1680 1 109.50000 418.400000
1344 11869 1681 1 109.50000 418.400000
1344 11869 1682 1 109.50000 418.400000
1344 11869 1683 1 109.50000 418.400000
1681 11869 1682 1 109.50000 418.400000
1681 11869 1683 1 109.50000 418.400000
1682 11869 1683 1 109.50000 418.400000
1687 11870 1688 1 109.50000 418.400000
1687 11870 8376 1 109.50000 418.400000
1687 11870 11306 1 109.50000 418.400000
1688 11870 8376 1 109.50000 418.400000
1688 11870 11306 1 109.50000 418.400000
8376 11870 11306 1 109.50000 418.400000
1689 11871 1690 1 109.50000 418.400000
1689 11871 1691 1 109.50000 418.400000
1689 11871 11369 1 109.50000 418.400000
1690 11871 1691 1 109.50000 418.400000
1690 11871 11369 1 109.50000 418.400000
1691 11871 11369 1 109.50000 418.400000
1692 11872 1693 1 109.50000 418.400000
1692 11872 1694 1 109.50000 418.400000
1692 11872 1695 1 109.50000 418.400000
1693 11872 1694 1 109.50000 418.400000
1693 11872 1695 1 109.50000 418.400000
1694 11872 1695 1 109.50000 418.400000
1697 11873 1698 1 109.50000 418.400000
1697 11873 1699 1 109.50000 418.400000
1697 11873 4081 1 109.50000 418.400000
1698 11873 1699 1 109.50000 418.400000
1698 11873 4081 1 109.50000 418.400000
1699 11873 4081 1 109.50000 418.400000
1700 11874 1701 1 109.50000 418.400000
1700 11874 1702 1 109.50000 418.400000
1700 11874 1703 1 109.50000 418.400000
1701 11874 1702 1 109.50000 418.400000
1701 11874 1703 1 109.50000 418.400000
1702 11874 1703 1 109.50000 418.400000
1704 11875 1705 1 109.50000 418.400000
1704 11875 1706 1 109.50000 418.400000
1704 11875 1707 1 109.50000 418.400000
1705 11875 1706 1 109.50000 418.400000
1705 11875 1707 1 109.50000 418.400000
1706 11875 1707 1 109.50000 418.400000
811 11876 1708 1 109.50000 418.400000
811 11876 1709 1 109.50000 418.400000
811 11876 1710 1 109.50000 418.400000
1708 11876 1709 1 109.50000 418.400000
1708 11876 1710 1 109.50000 418.400000
1709 11876 1710 1 109.50000 418.400000
250 11877 1711 1 109.50000 418.400000
250 11877 1713 1 109.50000 418.400000
250 11877 1714 1 109.50000 418.400000
1711 11877 1713 1 109.50000 418.400000
1711 11877 1714 1 109.50000 418.400000
1713 11877 1714 1 109.50000 418.400000
560 11878 1715 1 109.50000 418.400000
560 11878 1716 1 109.50000 418.400000
560 11878 1717 1 109.50000 418.400000
1715 11878 1716 1 109.50000 418.400000
1715 11878 1717 1 109.50000 418.400000
1716 11878 1717 1 109.50000 418.400000
374 11879 1718 1 109.50000 418.400000
374 11879 11165 1 109.50000 418.400000
374 11879 11370 1 109.50000 418.400000
1718 11879 11165 1 109.50000 418.400000
1718 11879 11370 1 109.50000 418.400000
11165 11879 11370 1 109.50000 418.400000
1719 11880 1722 1 109.50000 418.400000
1719 11880 5451 1 109.50000 418.400000
1719 11880 5452 1 109.50000 418.400000
1722 11880 5451 1 109.50000 418.400000
1722 11880 5452 1 109.50000 418.400000
5451 11880 5452 1 109.50000 418.400000
1723 11881 1724 1 109.50000 418.400000
1723 11881 1725 1 109.50000 418.400000
1723 11881 1726 1 109.50000 418.400000
1724 11881 1725 1 109.50000 418.400000
1724 11881 1726 1 109.50000 418.400000
1725 11881 1726 1 109.50000 418.400000
1036 11882 1073 1 109.50000 418.400000
1036 11882 1727 1 109.50000 418.400000
1036 11882 11371 1 109.50000 418.400000
1073 11882 1727 1 109.50000 418.400000
1073 11882 11371 1 109.50000 418.400000
1727 11882 11371 1 109.50000 418.400000
973 11883 1728 1 109.50000 418.400000
973 11883 1729 1 109.50000 418.400000
973 11883 1730 1 109.50000 418.400000
1728 11883 1729 1 109.50000 418.400000
1728 11883 1730 1 109.50000 418.400000
1729 11883 1730 1 109.50000 418.400000
1731 11884 1732 1 109.50000 418.400000
1731 11884 1733 1 109.50000 418.400000
1731 11884 1734 1 109.50000 418.400000
1732 11884 1733 1 109.50000 418.400000
1732 11884 1734 1 109.50000 418.400000
1733 11884 1734 1 109.50000 418.400000
1735 11885 1736 1 109.50000 418.400000
1735 11885 1737 1 109.50000 418.400000
1735 11885 11372 1 109.50000 418.400000
1736 11885 1737 1 109.50000 418.400000
1736 11885 11372 1 109.50000 418.400000
1737 11885 11372 1 109.50000 418.400000
1738 11886 1739 1 109.50000 418.400000
1738 11886 8581 1 109.50000 418.400000
1738 11886 10835 1 109.50000 418.400000
1739 11886 8581 1 109.50000 418.400000
1739 11886 10835 1 109.50000 418.400000
8581 11886 10835 1 109.50000 418.400000
1742 11887 8259 1 109.50000 418.400000
1742 11887 11166 1 109.50000 418.400000
1742 11887 11190 1 109.50000 418.400000
8259 11887 11166 1 109.50000 418.400000
8259 11887 11190 1 109.50000 418.400000
11166 11887 11190 1 109.50000 418.400000
1743 11888 1744 1 109.50000 418.400000
1743 11888 1745 1 109.50000 418.400000
1743 11888 1746 1 109.50000 418.400000
1744 11888 1745 1 109.50000 418.400000
1744 11888 1746 1 109.50000 418.400000
1745 11888 1746 1 109.50000 418.400000
691 11889 692 1 109.50000 418.400000
691 11889 1747 1 109.50000 418.400000
691 11889 1748 1 109.50000 418.400000
692 11889 1747 1 109.50000 418.400000
692 11889 1748 1 109.50000 418.400000
1747 11889 1748 1 109.50000 418.400000
1751 11890 1752 1 109.50000 418.400000
1751 11890 1753 1 109.50000 418.400000
1751 11890 11373 1 109.50000 418.400000
1752 11890 1753 1 109.50000 418.400000
1752 11890 11373 1 109.50000 418.400000
1753 11890 11373 1 109.50000 418.400000
1754 11891 1755 1 109.50000 418.400000
1754 11891 1756 1 109.50000 418.400000
1754 11891 1757 1 109.50000 418.400000
1755 11891 1756 1 109.50000 418.400000
1755 11891 1757 1 109.50000 418.400000
1756 11891 1757 1 109.50000 418.400000
1758 11892 1759 1 109.50000 418.400000
1758 11892 1760 1 109.50000 418.400000
1758 11892 11374 1 109.50000 418.400000
1759 11892 1760 1 109.50000 418.400000
1759 11892 11374 1 109.50000 418.400000
1760 11892 11374 1 109.50000 418.400000
1299 11893 1761 1 109.50000 418.400000
1299 11893 1762 1 109.50000 418.400000
1299 11893 1763 1 109.50000 418.400000
1761 11893 1762 1 109.50000 418.400000
1761 11893 1763 1 109.50000 418.400000
1762 11893 1763 1 109.50000 418.400000
1764 11894 1765 1 109.50000 418.400000
1764 11894 1766 1 109.50000 418.400000
1764 11894 1767 1 109.50000 418.400000
1765 11894 1766 1 109.50000 418.400000
1765 11894 1767 1 109.50000 418.400000
1766 11894 1767 1 109.50000 418.400000
1768 11895 1769 1 109.50000 418.400000
1768 11895 1770 1 109.50000 418.400000
1768 11895 1771 1 109.50000 418.400000
1769 11895 1770 1 109.50000 418.400000
1769 11895 1771 1 109.50000 418.400000
1770 11895 1771 1 109.50000 418.400000
1772 11896 1773 1 109.50000 418.400000
1772 11896 1774 1 109.50000 418.400000
1772 11896 1775 1 109.50000 418.400000
1773 11896 1774 1 109.50000 418.400000
1773 11896 1775 1 109.50000 418.400000
1774 11896 1775 1 109.50000 418.400000
1258 11897 1776 1 109.50000 418.400000
1258 11897 1777 1 109.50000 418.400000
1258 11897 11375 1 109.50000 418.400000
1776 11897 1777 1 109.50000 418.400000
1776 11897 11375 1 109.50000 418.400000
1777 11897 11375 1 109.50000 418.400000
1601 11898 1778 1 109.50000 418.400000
1601 11898 1779 1 109.50000 418.400000
1601 11898 1780 1 109.50000 418.400000
1778 11898 1779 1 109.50000 418.400000
1778 11898 1780 1 109.50000 418.400000
1779 11898 1780 1 109.50000 418.400000
1781 11899 1782 1 109.50000 418.400000
1781 11899 1783 1 109.50000 418.400000
1781 11899 1784 1 109.50000 418.400000
1782 11899 1783 1 109.50000 418.400000
1782 11899 1784 1 109.50000 418.400000
1783 11899 1784 1 109.50000 418.400000
640 11900 1785 1 109.50000 418.400000
640 11900 1786 1 109.50000 418.400000
640 11900 1787 1 109.50000 418.400000
1785 11900 1786 1 109.50000 418.400000
1785 11900 1787 1 109.50000 418.400000
1786 11900 1787 1 109.50000 418.400000
1788 11901 1789 1 109.50000 418.400000
1788 11901 1790 1 109.50000 418.400000
1788 11901 1791 1 109.50000 418.400000
1789 11901 1790 1 109.50000 418.400000
1789 11901 1791 1 109.50000 418.400000
1790 11901 1791 1 109.50000 418.400000
1056 11902 1792 1 109.50000 418.400000
1056 11902 1793 1 109.50000 418.400000
1056 11902 1794 1 109.50000 418.400000
1792 11902 1793 1 109.50000 418.400000
1792 11902 1794 1 109.50000 418.400000
1793 11902 1794 1 109.50000 418.400000
1795 11903 1796 1 109.50000 418.400000
1795 11903 1797 1 109.50000 418.400000
1795 11903 1798 1 109.50000 418.400000
1796 11903 1797 1 109.50000 418.400000
1796 11903 1798 1 109.50000 418.400000
1797 11903 1798 1 109.50000 418.400000
1799 11904 1800 1 109.50000 418.400000
1799 11904 1801 1 109.50000 418.400000
1799 11904 1802 1 109.50000 418.400000
1800 11904 1801 1 109.50000 418.400000
1800 11904 1802 1 109.50000 418.400000
1801 11904 1802 1 109.50000 418.400000
1803 11905 1804 1 109.50000 418.400000
1803 11905 1805 1 109.50000 418.400000
1803 11905 1806 1 109.50000 418.400000
1804 11905 1805 1 109.50000 418.400000
1804 11905 1806 1 109.50000 418.400000
1805 11905 1806 1 109.50000 418.400000
1807 11906 1808 1 109.50000 418.400000
1807 11906 11167 1 109.50000 418.400000
1807 11906 11376 1 109.50000 418.400000
1808 11906 11167 1 109.50000 418.400000
1808 11906 11376 1 109.50000 418.400000
11167 11906 11376 1 109.50000 418.400000
1141 11907 1809 1 109.50000 418.400000
1141 11907 1810 1 109.50000 418.400000
1141 11907 1811 1 109.50000 418.400000
1809 11907 1810 1 109.50000 418.400000
1809 11907 1811 1 109.50000 418.400000
1810 11907 1811 1 109.50000 418.400000
1567 11908 1812 1 109.50000 418.400000
1567 11908 1813 1 109.50000 418.400000
1567 11908 1814 1 109.50000 418.400000
1812 11908 1813 1 109.50000 418.400000
1812 11908 1814 1 109.50000 418.400000
1813 11908 1814 1 109.50000 418.400000
1815 11909 1816 1 109.50000 418.400000
1815 11909 1817 1 109.50000 418.400000
1815 11909 1818 1 109.50000 418.400000
1816 11909 1817 1 109.50000 418.400000
1816 11909 1818 1 109.50000 418.400000
1817 11909 1818 1 109.50000 418.400000
59 11910 1819 1 109.50000 418.400000
59 11910 1820 1 109.50000 418.400000
59 11910 1821 1 109.50000 418.400000
1819 11910 1820 1 109.50000 418.400000
1819 11910 1821 1 109.50000 418.400000
1820 11910 1821 1 109.50000 418.400000
118 11911 1822 1 109.50000 418.400000
118 11911 1823 1 109.50000 418.400000
118 11911 1824 1 109.50000 418.400000
1822 11911 1823 1 109.50000 418.400000
1822 11911 1824 1 109.50000 418.400000
1823 11911 1824 1 109.50000 418.400000
1825 11912 1826 1 109.50000 418.400000
1825 11912 1827 1 109.50000 418.400000
1825 11912 1828 1 109.50000 418.400000
1826 11912 1827 1 109.50000 418.400000
1826 11912 1828 1 109.50000 418.400000
1827 11912 1828 1 109.50000 418.400000
1832 11913 1833 1 109.50000 418.400000
1832 11913 1834 1 109.50000 418.400000
1832 11913 1835 1 109.50000 418.400000
1833 11913 1834 1 109.50000 418.400000
1833 11913 1835 1 109.50000 418.400000
1834 11913 1835 1 109.50000 418.400000
116 11914 1836 1 109.50000 418.400000
116 11914 1837 1 109.50000 418.400000
116 11914 1838 1 109.50000 418.400000
1836 11914 1837 1 109.50000 418.400000
1836 11914 1838 1 109.50000 418.400000
1837 11914 1838 1 109.50000 418.400000
1839 11915 1840 1 109.50000 418.400000
1839 11915 1841 1 109.50000 418.400000
1839 11915 1842 1 109.50000 418.400000
1840 11915 1841 1 109.50000 418.400000
1840 11915 1842 1 109.50000 418.400000
1841 11915 1842 1 109.50000 418.400000
1843 11916 1844 1 109.50000 418.400000
1843 11916 1845 1 109.50000 418.400000
1843 11916 1846 1 109.50000 418.400000
1844 11916 1845 1 109.50000 418.400000
1844 11916 1846 1 109.50000 418.400000
1845 11916 1846 1 109.50000 418.400000
1847 11917 1848 1 109.50000 418.400000
1847 11917 1849 1 109.50000 418.400000
1847 11917 1850 1 109.50000 418.400000
1848 11917 1849 1 109.50000 418.400000
1848 11917 1850 1 109.50000 418.400000
1849 11917 1850 1 109.50000 418.400000
1851 11918 1852 1 109.50000 418.400000
1851 11918 1853 1 109.50000 418.400000
1851 11918 1854 1 109.50000 418.400000
1852 11918 1853 1 109.50000 418.400000
1852 11918 1854 1 109.50000 418.400000
1853 11918 1854 1 109.50000 418.400000
126 11919 1855 1 109.50000 418.400000
126 11919 1856 1 109.50000 418.400000
126 11919 1857 1 109.50000 418.400000
1855 11919 1856 1 109.50000 418.400000
1855 11919 1857 1 109.50000 418.400000
1856 11919 1857 1 109.50000 418.400000
1859 11920 1860 1 109.50000 418.400000
1859 11920 1861 1 109.50000 418.400000
1859 11920 1862 1 109.50000 418.400000
1860 11920 1861 1 109.50000 418.400000
1860 11920 1862 1 109.50000 418.400000
1861 11920 1862 1 109.50000 418.400000
1863 11921 1864 1 109.50000 418.400000
1863 11921 1865 1 109.50000 418.400000
1863 11921 11377 1 109.50000 418.400000
1864 11921 1865 1 109.50000 418.400000
1864 11921 11377 1 109.50000 418.400000
1865 11921 11377 1 109.50000 418.400000
1866 11922 1867 1 109.50000 418.400000
1866 11922 11168 1 109.50000 418.400000
1866 11922 11378 1 109.50000 418.400000
1867 11922 11168 1 109.50000 418.400000
1867 11922 11378 1 109.50000 418.400000
11168 11922 11378 1 109.50000 418.400000
1868 11923 1869 1 109.50000 418.400000
1868 11923 1870 1 109.50000 418.400000
1868 11923 1871 1 109.50000 418.400000
1869 11923 1870 1 109.50000 418.400000
1869 11923 1871 1 109.50000 418.400000
1870 11923 1871 1 109.50000 418.400000
1872 11924 1873 1 109.50000 418.400000
1872 11924 1874 1 109.50000 418.400000
1872 11924 1875 1 109.50000 418.400000
1873 11924 1874 1 109.50000 418.400000
1873 11924 1875 1 109.50000 418.400000
1874 11924 1875 1 109.50000 418.400000
1876 11925 1877 1 109.50000 418.400000
1876 11925 1878 1 109.50000 418.400000
1876 11925 11243 1 109.50000 418.400000
1877 11925 1878 1 109.50000 418.400000
1877 11925 11243 1 109.50000 418.400000
1878 11925 11243 1 109.50000 418.400000
1879 11926 1880 1 109.50000 418.400000
1879 11926 1881 1 109.50000 418.400000
1879 11926 1882 1 109.50000 418.400000
1880 11926 1881 1 109.50000 418.400000
1880 11926 1882 1 109.50000 418.400000
1881 11926 1882 1 109.50000 418.400000
128 11927 1883 1 109.50000 418.400000
128 11927 1884 1 109.50000 418.400000
128 11927 1885 1 109.50000 418.400000
1883 11927 1884 1 109.50000 418.400000
1883 11927 1885 1 109.50000 418.400000
1884 11927 1885 1 109.50000 418.400000
1247 11928 1886 1 109.50000 418.400000
1247 11928 1887 1 109.50000 418.400000
1247 11928 1888 1 109.50000 418.400000
1886 11928 1887 1 109.50000 418.400000
1886 11928 1888 1 109.50000 418.400000
1887 11928 1888 1 109.50000 418.400000
1889 11929 1890 1 109.50000 418.400000
1889 11929 1891 1 109.50000 418.400000
1889 11929 11379 1 109.50000 418.400000
1890 11929 1891 1 109.50000 418.400000
1890 11929 11379 1 109.50000 418.400000
1891 11929 11379 1 109.50000 418.400000
1892 11930 1893 1 109.50000 418.400000
1892 11930 1895 1 109.50000 418.400000
1892 11930 6178 1 109.50000 418.400000
1893 11930 1895 1 109.50000 418.400000
1893 11930 6178 1 109.50000 418.400000
1895 11930 6178 1 109.50000 418.400000
1896 11931 1897 1 109.50000 418.400000
1896 11931 3832 1 109.50000 418.400000
1896 11931 11380 1 109.50000 418.400000
1897 11931 3832 1 109.50000 418.400000
1897 11931 11380 1 109.50000 418.400000
3832 11931 11380 1 109.50000 418.400000
1898 11932 1899 1 109.50000 418.400000
1898 11932 1900 1 109.50000 418.400000
1898 11932 1901 1 109.50000 418.400000
1899 11932 1900 1 109.50000 418.400000
1899 11932 1901 1 109.50000 418.400000
1900 11932 1901 1 109.50000 418.400000
155 11933 1903 1 109.50000 418.400000
155 11933 1905 1 109.50000 418.400000
155 11933 5359 1 109.50000 418.400000
1903 11933 1905 1 109.50000 418.400000
1903 11933 5359 1 109.50000 418.400000
1905 11933 5359 1 109.50000 418.400000
1906 11934 1907 1 109.50000 418.400000
1906 11934 1908 1 109.50000 418.400000
1906 11934 1909 1 109.50000 418.400000
1907 11934 1908 1 109.50000 418.400000
1907 11934 1909 1 109.50000 418.400000
1908 11934 1909 1 109.50000 418.400000
1910 11935 1911 1 109.50000 418.400000
1910 11935 1913 1 109.50000 418.400000
1910 11935 8612 1 109.50000 418.400000
1911 11935 1913 1 109.50000 418.400000
1911 11935 8612 1 109.50000 418.400000
1913 11935 8612 1 109.50000 418.400000
1914 11936 1915 1 109.50000 418.400000
1914 11936 1916 1 109.50000 418.400000
1914 11936 1917 1 109.50000 418.400000
1915 11936 1916 1 109.50000 418.400000
1915 11936 1917 1 109.50000 418.400000
1916 11936 1917 1 109.50000 418.400000
396 11937 1416 1 109.50000 418.400000
396 11937 1918 1 109.50000 418.400000
396 11937 1919 1 109.50000 418.400000
1416 11937 1918 1 109.50000 418.400000
1416 11937 1919 1 109.50000 418.400000
1918 11937 1919 1 109.50000 418.400000
1920 11938 1921 1 109.50000 418.400000
1920 11938 1922 1 109.50000 418.400000
1920 11938 1923 1 109.50000 418.400000
1921 11938 1922 1 109.50000 418.400000
1921 11938 1923 1 109.50000 418.400000
1922 11938 1923 1 109.50000 418.400000
1925 11939 1926 1 109.50000 418.400000
1925 11939 7663 1 109.50000 418.400000
1925 11939 9010 1 109.50000 418.400000
1926 11939 7663 1 109.50000 418.400000
1926 11939 9010 1 109.50000 418.400000
7663 11939 9010 1 109.50000 418.400000
1929 11940 1931 1 109.50000 418.400000
1929 11940 5694 1 109.50000 418.400000
1929 11940 6737 1 109.50000 418.400000
1931 11940 5694 1 109.50000 418.400000
1931 11940 6737 1 109.50000 418.400000
5694 11940 6737 1 109.50000 418.400000
1932 11941 1933 1 109.50000 418.400000
1932 11941 1934 1 109.50000 418.400000
1932 11941 1935 1 109.50000 418.400000
1933 11941 1934 1 109.50000 418.400000
1933 11941 1935 1 109.50000 418.400000
1934 11941 1935 1 109.50000 418.400000
1364 11942 1936 1 109.50000 418.400000
1364 11942 1937 1 109.50000 418.400000
1364 11942 1938 1 109.50000 418.400000
1936 11942 1937 1 109.50000 418.400000
1936 11942 1938 1 109.50000 418.400000
1937 11942 1938 1 109.50000 418.400000
924 11943 1940 1 109.50000 418.400000
924 11943 1941 1 109.50000 418.400000
924 11943 1942 1 109.50000 418.400000
1940 11943 1941 1 109.50000 418.400000
1940 11943 1942 1 109.50000 418.400000
1941 11943 1942 1 109.50000 418.400000
1943 11944 1944 1 109.50000 418.400000
1943 11944 1945 1 109.50000 418.400000
1943 11944 5107 1 109.50000 418.400000
1944 11944 1945 1 109.50000 418.400000
1944 11944 5107 1 109.50000 418.400000
1945 11944 5107 1 109.50000 418.400000
375 11945 376 1 109.50000 418.400000
375 11945 378 1 109.50000 418.400000
375 11945 1947 1 109.50000 418.400000
376 11945 378 1 109.50000 418.400000
376 11945 1947 1 109.50000 418.400000
378 11945 1947 1 109.50000 418.400000
143 11946 1949 1 109.50000 418.400000
143 11946 1950 1 109.50000 418.400000
143 11946 1951 1 109.50000 418.400000
1949 11946 1950 1 109.50000 418.400000
1949 11946 1951 1 109.50000 418.400000
1950 11946 1951 1 109.50000 418.400000
1952 11947 1953 1 109.50000 418.400000
1952 11947 1954 1 109.50000 418.400000
1952 11947 1955 1 109.50000 418.400000
1953 11947 1954 1 109.50000 418.400000
1953 11947 1955 1 109.50000 418.400000
1954 11947 1955 1 109.50000 418.400000
1956 11948 1957 1 109.50000 418.400000
1956 11948 1958 1 109.50000 418.400000
1956 11948 1959 1 109.50000 418.400000
1957 11948 1958 1 109.50000 418.400000
1957 11948 1959 1 109.50000 418.400000
1958 11948 1959 1 109.50000 418.400000
1960 11949 1961 1 109.50000 418.400000
1960 11949 1962 1 109.50000 418.400000
1960 11949 1963 1 109.50000 418.400000
1961 11949 1962 1 109.50000 418.400000
1961 11949 1963 1 109.50000 418.400000
1962 11949 1963 1 109.50000 418.400000
1964 11950 1965 1 109.50000 418.400000
1964 11950 1966 1 109.50000 418.400000
1964 11950 1967 1 109.50000 418.400000
1965 11950 1966 1 109.50000 418.400000
1965 11950 1967 1 109.50000 418.400000
1966 11950 1967 1 109.50000 418.400000
677 11951 1968 1 109.50000 418.400000
677 11951 1969 1 109.50000 418.400000
677 11951 1970 1 109.50000 418.400000
1968 11951 1969 1 109.50000 418.400000
1968 11951 1970 1 109.50000 418.400000
1969 11951 1970 1 109.50000 418.400000
1971 11952 1972 1 109.50000 418.400000
1971 11952 1973 1 109.50000 418.400000
1971 11952 9727 1 109.50000 418.400000
1972 11952 1973 1 109.50000 418.400000
1972 11952 9727 1 109.50000 418.400000
1973 11952 9727 1 109.50000 418.400000
1976 11953 1977 1 109.50000 418.400000
1976 11953 1978 1 109.50000 418.400000
1976 11953 7177 1 109.50000 418.400000
1977 11953 1978 1 109.50000 418.400000
1977 11953 7177 1 109.50000 418.400000
1978 11953 7177 1 109.50000 418.400000
1979 11954 1980 1 109.50000 418.400000
1979 11954 1981 1 109.50000 418.400000
1979 11954 1982 1 109.50000 418.400000
1980 11954 1981 1 109.50000 418.400000
1980 11954 1982 1 109.50000 418.400000
1981 11954 1982 1 109.50000 418.400000
1983 11955 1984 1 109.50000 418.400000
1983 11955 1985 1 109.50000 418.400000
1983 11955 1986 1 109.50000 418.400000
1984 11955 1985 1 109.50000 418.400000
1984 11955 1986 1 109.50000 418.400000
1985 11955 1986 1 109.50000 418.400000
1987 11956 1988 1 109.50000 418.400000
1987 11956 1990 1 109.50000 418.400000
1987 11956 10974 1 109.50000 418.400000
1988 11956 1990 1 109.50000 418.400000
1988 11956 10974 1 109.50000 418.400000
1990 11956 10974 1 109.50000 418.400000
1991 11957 1992 1 109.50000 418.400000
1991 11957 1993 1 109.50000 418.400000
1991 11957 1994 1 109.50000 418.400000
1992 11957 1993 1 109.50000 418.400000
1992 11957 1994 1 109.50000 418.400000
1993 11957 1994 1 109.50000 418.400000
1995 11958 1996 1 109.50000 418.400000
1995 11958 1997 1 109.50000 418.400000
1995 11958 1998 1 109.50000 418.400000
1996 11958 1997 1 109.50000 418.400000
1996 11958 1998 1 109.50000 418.400000
1997 11958 1998 1 109.50000 418.400000
1999 11959 2000 1 109.50000 418.400000
1999 11959 2001 1 109.50000 418.400000
1999 11959 2002 1 109.50000 418.400000
2000 11959 2001 1 109.50000 418.400000
2000 11959 2002 1 109.50000 418.400000
2001 11959 2002 1 109.50000 418.400000
501 11960 2003 1 109.50000 418.400000
501 11960 2004 1 109.50000 418.400000
501 11960 2005 1 109.50000 418.400000
2003 11960 2004 1 109.50000 418.400000
2003 11960 2005 1 109.50000 418.400000
2004 11960 2005 1 109.50000 418.400000
1873 11961 2006 1 109.50000 418.400000
1873 11961 2007 1 109.50000 418.400000
1873 11961 2008 1 109.50000 418.400000
2006 11961 2007 1 109.50000 418.400000
2006 11961 2008 1 109.50000 418.400000
2007 11961 2008 1 109.50000 418.400000
2010 11962 2011 1 109.50000 418.400000
2010 11962 2012 1 109.50000 418.400000
2010 11962 2013 1 109.50000 418.400000
2011 11962 2012 1 109.50000 418.400000
2011 11962 2013 1 109.50000 418.400000
2012 11962 2013 1 109.50000 418.400000
2014 11963 2015 1 109.50000 418.400000
2014 11963 2016 1 109.50000 418.400000
2014 11963 2017 1 109.50000 418.400000
2015 11963 2016 1 109.50000 418.400000
2015 11963 2017 1 109.50000 418.400000
2016 11963 2017 1 109.50000 418.400000
2018 11964 2019 1 109.50000 418.400000
2018 11964 11169 1 109.50000 418.400000
2018 11964 11375 1 109.50000 418.400000
2019 11964 11169 1 109.50000 418.400000
2019 11964 11375 1 109.50000 418.400000
11169 11964 11375 1 109.50000 418.400000
1343 11965 2020 1 109.50000 418.400000
1343 11965 2021 1 109.50000 418.400000
1343 11965 2022 1 109.50000 418.400000
2020 11965 2021 1 109.50000 418.400000
2020 11965 2022 1 109.50000 418.400000
2021 11965 2022 1 109.50000 418.400000
2023 11966 2024 1 109.50000 418.400000
2023 11966 2025 1 109.50000 418.400000
2023 11966 2026 1 109.50000 418.400000
2024 11966 2025 1 109.50000 418.400000
2024 11966 2026 1 109.50000 418.400000
2025 11966 2026 1 109.50000 418.400000
255 11967 2027 1 109.50000 418.400000
255 11967 2028 1 109.50000 418.400000
255 11967 11251 1 109.50000 418.400000
2027 11967 2028 1 109.50000 418.400000
2027 11967 11251 1 109.50000 418.400000
2028 11967 11251 1 109.50000 418.400000
2029 11968 2030 1 109.50000 418.400000
2029 11968 2031 1 109.50000 418.400000
2029 11968 2032 1 109.50000 418.400000
2030 11968 2031 1 109.50000 418.400000
2030 11968 2032 1 109.50000 418.400000
2031 11968 2032 1 109.50000 418.400000
2033 11969 2034 1 109.50000 418.400000
2033 11969 2035 1 109.50000 418.400000
2033 11969 2036 1 109.50000 418.400000
2034 11969 2035 1 109.50000 418.400000
2034 11969 2036 1 109.50000 418.400000
2035 11969 2036 1 109.50000 418.400000
2037 11970 2038 1 109.50000 418.400000
2037 11970 2039 1 109.50000 418.400000
2037 11970 2040 1 109.50000 418.400000
2038 11970 2039 1 109.50000 418.400000
2038 11970 2040 1 109.50000 418.400000
2039 11970 2040 1 109.50000 418.400000
1372 11971 2041 1 109.50000 418.400000
1372 11971 2042 1 109.50000 418.400000
1372 11971 11381 1 109.50000 418.400000
2041 11971 2042 1 109.50000 418.400000
2041 11971 11381 1 109.50000 418.400000
2042 11971 11381 1 109.50000 418.400000
2043 11972 2044 1 109.50000 418.400000
2043 11972 2045 1 109.50000 418.400000
2043 11972 11304 1 109.50000 418.400000
2044 11972 2045 1 109.50000 418.400000
2044 11972 11304 1 109.50000 418.400000
2045 11972 11304 1 109.50000 418.400000
2046 11973 2047 1 109.50000 418.400000
2046 11973 2048 1 109.50000 418.400000
2046 11973 11382 1 109.50000 418.400000
2047 11973 2048 1 109.50000 418.400000
2047 11973 11382 1 109.50000 418.400000
2048 11973 11382 1 109.50000 418.400000
2049 11974 2050 1 109.50000 418.400000
2049 11974 2051 1 109.50000 418.400000
2049 11974 2052 1 109.50000 418.400000
2050 11974 2051 1 109.50000 418.400000
2050 11974 2052 1 109.50000 418.400000
2051 11974 2052 1 109.50000 418.400000
290 11975 293 1 109.50000 418.400000
290 11975 2053 1 109.50000 418.400000
290 11975 2054 1 109.50000 418.400000
293 11975 2053 1 109.50000 418.400000
293 11975 2054 1 109.50000 418.400000
2053 11975 2054 1 109.50000 418.400000
2055 11976 2056 1 109.50000 418.400000
2055 11976 2057 1 109.50000 418.400000
2055 11976 2058 1 109.50000 418.400000
2056 11976 2057 1 109.50000 418.400000
2056 11976 2058 1 109.50000 418.400000
2057 11976 2058 1 109.50000 418.400000
393 11977 2059 1 109.50000 418.400000
393 11977 2060 1 109.50000 418.400000
393 11977 2061 1 109.50000 418.400000
2059 11977 2060 1 109.50000 418.400000
2059 11977 2061 1 109.50000 418.400000
2060 11977 2061 1 109.50000 418.400000
2062 11978 2063 1 109.50000 418.400000
2062 11978 2064 1 109.50000 418.400000
2062 11978 2065 1 109.50000 418.400000
2063 11978 2064 1 109.50000 418.400000
2063 11978 2065 1 109.50000 418.400000
2064 11978 2065 1 109.50000 418.400000
1986 11979 2066 1 109.50000 418.400000
1986 11979 11170 1 109.50000 418.400000
1986 11979 11383 1 109.50000 418.400000
2066 11979 11170 1 109.50000 418.400000
2066 11979 11383 1 109.50000 418.400000
11170 11979 11383 1 109.50000 418.400000
1813 11980 2067 1 109.50000 418.400000
1813 11980 2068 1 109.50000 418.400000
1813 11980 2069 1 109.50000 418.400000
2067 11980 2068 1 109.50000 418.400000
2067 11980 2069 1 109.50000 418.400000
2068 11980 2069 1 109.50000 418.400000
971 11981 2053 1 109.50000 418.400000
971 11981 2070 1 109.50000 418.400000
971 11981 2071 1 109.50000 418.400000
2053 11981 2070 1 109.50000 418.400000
2053 11981 2071 1 109.50000 418.400000
2070 11981 2071 1 109.50000 418.400000
806 11982 809 1 109.50000 418.400000
806 11982 2072 1 109.50000 418.400000
806 11982 2073 1 109.50000 418.400000
809 11982 2072 1 109.50000 418.400000
809 11982 2073 1 109.50000 418.400000
2072 11982 2073 1 109.50000 418.400000
2075 11983 2076 1 109.50000 418.400000
2075 11983 2077 1 109.50000 418.400000
2075 11983 2078 1 109.50000 418.400000
2076 11983 2077 1 109.50000 418.400000
2076 11983 2078 1 109.50000 418.400000
2077 11983 2078 1 109.50000 418.400000
456 11984 2079 1 109.50000 418.400000
456 11984 2080 1 109.50000 418.400000
456 11984 2081 1 109.50000 418.400000
2079 11984 2080 1 109.50000 418.400000
2079 11984 2081 1 109.50000 418.400000
2080 11984 2081 1 109.50000 418.400000
254 11985 1979 1 109.50000 418.400000
254 11985 2082 1 109.50000 418.400000
254 11985 2083 1 109.50000 418.400000
1979 11985 2082 1 109.50000 418.400000
1979 11985 2083 1 109.50000 418.400000
2082 11985 2083 1 109.50000 418.400000
2084 11986 2085 1 109.50000 418.400000
2084 11986 2086 1 109.50000 418.400000
2084 11986 2087 1 109.50000 418.400000
2085 11986 2086 1 109.50000 418.400000
2085 11986 2087 1 109.50000 418.400000
2086 11986 2087 1 109.50000 418.400000
2088 11987 2089 1 109.50000 418.400000
2088 11987 2090 1 109.50000 418.400000
2088 11987 2091 1 109.50000 418.400000
2089 11987 2090 1 109.50000 418.400000
2089 11987 2091 1 109.50000 418.400000
2090 11987 2091 1 109.50000 418.400000
2092 11988 2093 1 109.50000 418.400000
2092 11988 2094 1 109.50000 418.400000
2092 11988 2095 1 109.50000 418.400000
2093 11988 2094 1 109.50000 418.400000
2093 11988 2095 1 109.50000 418.400000
2094 11988 2095 1 109.50000 418.400000
741 11989 2096 1 109.50000 418.400000
741 11989 2097 1 109.50000 418.400000
741 11989 11384 1 109.50000 418.400000
2096 11989 2097 1 109.50000 418.400000
2096 11989 11384 1 109.50000 418.400000
2097 11989 11384 1 109.50000 418.400000
854 11990 2098 1 109.50000 418.400000
854 11990 2100 1 109.50000 418.400000
854 11990 7646 1 109.50000 418.400000
2098 11990 2100 1 109.50000 418.400000
2098 11990 7646 1 109.50000 418.400000
2100 11990 7646 1 109.50000 418.400000
1854 11991 2101 1 109.50000 418.400000
1854 11991 2102 1 109.50000 418.400000
1854 11991 2103 1 109.50000 418.400000
2101 11991 2102 1 109.50000 418.400000
2101 11991 2103 1 109.50000 418.400000
2102 11991 2103 1 109.50000 418.400000
1016 11992 2104 1 109.50000 418.400000
1016 11992 2105 1 109.50000 418.400000
1016 11992 2106 1 109.50000 418.400000
2104 11992 2105 1 109.50000 418.400000
2104 11992 2106 1 109.50000 418.400000
2105 11992 2106 1 109.50000 418.400000
2107 11993 2108 1 109.50000 418.400000
2107 11993 11171 1 109.50000 418.400000
2107 11993 11233 1 109.50000 418.400000
2108 11993 11171 1 109.50000 418.400000
2108 11993 11233 1 109.50000 418.400000
11171 11993 11233 1 109.50000 418.400000
2109 11994 2110 1 109.50000 418.400000
2109 11994 2111 1 109.50000 418.400000
2109 11994 2112 1 109.50000 418.400000
2110 11994 2111 1 109.50000 418.400000
2110 11994 2112 1 109.50000 418.400000
2111 11994 2112 1 109.50000 418.400000
2113 11995 2114 1 109.50000 418.400000
2113 11995 2115 1 109.50000 418.400000
2113 11995 2116 1 109.50000 418.400000
2114 11995 2115 1 109.50000 418.400000
2114 11995 2116 1 109.50000 418.400000
2115 11995 2116 1 109.50000 418.400000
2118 11996 2119 1 109.50000 418.400000
2118 11996 2120 1 109.50000 418.400000
2118 11996 3655 1 109.50000 418.400000
2119 11996 2120 1 109.50000 418.400000
2119 11996 3655 1 109.50000 418.400000
2120 11996 3655 1 109.50000 418.400000
2121 11997 2122 1 109.50000 418.400000
2121 11997 2123 1 109.50000 418.400000
2121 11997 2124 1 109.50000 418.400000
2122 11997 2123 1 109.50000 418.400000
2122 11997 2124 1 109.50000 418.400000
2123 11997 2124 1 109.50000 418.400000
528 11998 1346 1 109.50000 418.400000
528 11998 2125 1 109.50000 418.400000
528 11998 2126 1 109.50000 418.400000
1346 11998 2125 1 109.50000 418.400000
1346 11998 2126 1 109.50000 418.400000
2125 11998 2126 1 109.50000 418.400000
2127 11999 2128 1 109.50000 418.400000
2127 11999 2129 1 109.50000 418.400000
2127 11999 2130 1 109.50000 418.400000
2128 11999 2129 1 109.50000 418.400000
2128 11999 2130 1 109.50000 418.400000
2129 11999 2130 1 109.50000 418.400000
1195 12000 1940 1 109.50000 418.400000
1195 12000 2131 1 109.50000 418.400000
1195 12000 2132 1 109.50000 418.400000
1940 12000 2131 1 109.50000 418.400000
1940 12000 2132 1 109.50000 418.400000
2131 12000 2132 1 109.50000 418.400000
2133 12001 2134 1 109.50000 418.400000
2133 12001 2135 1 109.50000 418.400000
2133 12001 2136 1 109.50000 418.400000
2134 12001 2135 1 109.50000 418.400000
2134 12001 2136 1 109.50000 418.400000
2135 12001 2136 1 109.50000 418.400000
985 12002 2137 1 109.50000 418.400000
985 12002 2138 1 109.50000 418.400000
985 12002 2139 1 109.50000 418.400000
2137 12002 2138 1 109.50000 418.400000
2137 12002 2139 1 109.50000 418.400000
2138 12002 2139 1 109.50000 418.400000
2140 12003 2141 1 109.50000 418.400000
2140 12003 2142 1 109.50000 418.400000
2140 12003 2143 1 109.50000 418.400000
2141 12003 2142 1 109.50000 418.400000
2141 12003 2143 1 109.50000 418.400000
2142 12003 2143 1 109.50000 418.400000
2144 12004 2145 1 109.50000 418.400000
2144 12004 2146 1 109.50000 418.400000
2144 12004 2147 1 109.50000 418.400000
2145 12004 2146 1 109.50000 418.400000
2145 12004 2147 1 109.50000 418.400000
2146 12004 2147 1 109.50000 418.400000
2148 12005 7897 1 109.50000 418.400000
2148 12005 11172 1 109.50000 418.400000
2148 12005 11385 1 109.50000 418.400000
7897 12005 11172 1 109.50000 418.400000
7897 12005 11385 1 109.50000 418.400000
11172 12005 11385 1 109.50000 418.400000
1625 12006 2149 1 109.50000 418.400000
1625 12006 2150 1 109.50000 418.400000
1625 12006 2151 1 109.50000 418.400000
2149 12006 2150 1 109.50000 418.400000
2149 12006 2151 1 109.50000 418.400000
2150 12006 2151 1 109.50000 418.400000
2152 12007 2153 1 109.50000 418.400000
2152 12007 2154 1 109.50000 418.400000
2152 12007 2155 1 109.50000 418.400000
2153 12007 2154 1 109.50000 418.400000
2153 12007 2155 1 109.50000 418.400000
2154 12007 2155 1 109.50000 418.400000
927 12008 2156 1 109.50000 418.400000
927 12008 2157 1 109.50000 418.400000
927 12008 2158 1 109.50000 418.400000
2156 12008 2157 1 109.50000 418.400000
2156 12008 2158 1 109.50000 418.400000
2157 12008 2158 1 109.50000 418.400000
1566 12009 2159 1 109.50000 418.400000
1566 12009 2160 1 109.50000 418.400000
1566 12009 11386 1 109.50000 418.400000
2159 12009 2160 1 109.50000 418.400000
2159 12009 11386 1 109.50000 418.400000
2160 12009 11386 1 109.50000 418.400000
2161 12010 2162 1 109.50000 418.400000
2161 12010 2164 1 109.50000 418.400000
2161 12010 11387 1 109.50000 418.400000
2162 12010 2164 1 109.50000 418.400000
2162 12010 11387 1 109.50000 418.400000
2164 12010 11387 1 109.50000 418.400000
2165 12011 2166 1 109.50000 418.400000
2165 12011 9001 1 109.50000 418.400000
2165 12011 11388 1 109.50000 418.400000
2166 12011 9001 1 109.50000 418.400000
2166 12011 11388 1 109.50000 418.400000
9001 12011 11388 1 109.50000 418.400000
2167 12012 2168 1 109.50000 418.400000
2167 12012 2169 1 109.50000 418.400000
2167 12012 2170 1 109.50000 418.400000
2168 12012 2169 1 109.50000 418.400000
2168 12012 2170 1 109.50000 418.400000
2169 12012 2170 1 109.50000 418.400000
2171 12013 2172 1 109.50000 418.400000
2171 12013 2173 1 109.50000 418.400000
2171 12013 2174 1 109.50000 418.400000
2172 12013 2173 1 109.50000 418.400000
2172 12013 2174 1 109.50000 418.400000
2173 12013 2174 1 109.50000 418.400000
2175 12014 2177 1 109.50000 418.400000
2175 12014 2178 1 109.50000 418.400000
2175 12014 5138 1 109.50000 418.400000
2177 12014 2178 1 109.50000 418.400000
2177 12014 5138 1 109.50000 418.400000
2178 12014 5138 1 109.50000 418.400000
656 12015 2179 1 109.50000 418.400000
656 12015 2180 1 109.50000 418.400000
656 12015 9174 1 109.50000 418.400000
2179 12015 2180 1 109.50000 418.400000
2179 12015 9174 1 109.50000 418.400000
2180 12015 9174 1 109.50000 418.400000
2101 12016 2181 1 109.50000 418.400000
2101 12016 2182 1 109.50000 418.400000
2101 12016 2183 1 109.50000 418.400000
2181 12016 2182 1 109.50000 418.400000
2181 12016 2183 1 109.50000 418.400000
2182 12016 2183 1 109.50000 418.400000
2184 12017 2185 1 109.50000 418.400000
2184 12017 2186 1 109.50000 418.400000
2184 12017 2187 1 109.50000 418.400000
2185 12017 2186 1 109.50000 418.400000
2185 12017 2187 1 109.50000 418.400000
2186 12017 2187 1 109.50000 418.400000
2188 12018 2189 1 109.50000 418.400000
2188 12018 2190 1 109.50000 418.400000
2188 12018 2191 1 109.50000 418.400000
2189 12018 2190 1 109.50000 418.400000
2189 12018 2191 1 109.50000 418.400000
2190 12018 2191 1 109.50000 418.400000
2192 12019 2193 1 109.50000 418.400000
2192 12019 2195 1 109.50000 418.400000
2192 12019 10290 1 109.50000 418.400000
2193 12019 2195 1 109.50000 418.400000
2193 12019 10290 1 109.50000 418.400000
2195 12019 10290 1 109.50000 418.400000
2196 12020 2197 1 109.50000 418.400000
2196 12020 2198 1 109.50000 418.400000
2196 12020 2199 1 109.50000 418.400000
2197 12020 2198 1 109.50000 418.400000
2197 12020 2199 1 109.50000 418.400000
2198 12020 2199 1 109.50000 418.400000
2200 12021 2201 1 109.50000 418.400000
2200 12021 11173 1 109.50000 418.400000
2200 12021 11389 1 109.50000 418.400000
2201 12021 11173 1 109.50000 418.400000
2201 12021 11389 1 109.50000 418.400000
11173 12021 11389 1 109.50000 418.400000
2202 12022 2203 1 109.50000 418.400000
2202 12022 2204 1 109.50000 418.400000
2202 12022 2205 1 109.50000 418.400000
2203 12022 2204 1 109.50000 418.400000
2203 12022 2205 1 109.50000 418.400000
2204 12022 2205 1 109.50000 418.400000
1988 12023 2206 1 109.50000 418.400000
1988 12023 2207 1 109.50000 418.400000
1988 12023 2208 1 109.50000 418.400000
2206 12023 2207 1 109.50000 418.400000
2206 12023 2208 1 109.50000 418.400000
2207 12023 2208 1 109.50000 418.400000
1698 12024 2209 1 109.50000 418.400000
1698 12024 2210 1 109.50000 418.400000
1698 12024 2211 1 109.50000 418.400000
2209 12024 2210 1 109.50000 418.400000
2209 12024 2211 1 109.50000 418.400000
2210 12024 2211 1 109.50000 418.400000
2212 12025 2213 1 109.50000 418.400000
2212 12025 2214 1 109.50000 418.400000
2212 12025 2215 1 109.50000 418.400000
2213 12025 2214 1 109.50000 418.400000
2213 12025 2215 1 109.50000 418.400000
2214 12025 2215 1 109.50000 418.400000
450 12026 2216 1 109.50000 418.400000
450 12026 2217 1 109.50000 418.400000
450 12026 11261 1 109.50000 418.400000
2216 12026 2217 1 109.50000 418.400000
2216 12026 11261 1 109.50000 418.400000
2217 12026 11261 1 109.50000 418.400000
2218 12027 2219 1 109.50000 418.400000
2218 12027 2220 1 109.50000 418.400000
2218 12027 2221 1 109.50000 418.400000
2219 12027 2220 1 109.50000 418.400000
2219 12027 2221 1 109.50000 418.400000
2220 12027 2221 1 109.50000 418.400000
2222 12028 2223 1 109.50000 418.400000
2222 12028 2224 1 109.50000 418.400000
2222 12028 2225 1 109.50000 418.400000
2223 12028 2224 1 109.50000 418.400000
2223 12028 2225 1 109.50000 418.400000
2224 12028 2225 1 109.50000 418.400000
2226 12029 2227 1 109.50000 418.400000
2226 12029 2228 1 109.50000 418.400000
2226 12029 2229 1 109.50000 418.400000
2227 12029 2228 1 109.50000 418.400000
2227 12029 2229 1 109.50000 418.400000
2228 12029 2229 1 109.50000 418.400000
2208 12030 2230 1 109.50000 418.400000
2208 12030 2231 1 109.50000 418.400000
2208 12030 2232 1 109.50000 418.400000
2230 12030 2231 1 109.50000 418.400000
2230 12030 2232 1 109.50000 418.400000
2231 12030 2232 1 109.50000 418.400000
2233 12031 2234 1 109.50000 418.400000
2233 12031 11174 1 109.50000 418.400000
2233 12031 11390 1 109.50000 418.400000
2234 12031 11174 1 109.50000 418.400000
2234 12031 11390 1 109.50000 418.400000
11174 12031 11390 1 109.50000 418.400000
2235 12032 2236 1 109.50000 418.400000
2235 12032 2237 1 109.50000 418.400000
2235 12032 2238 1 109.50000 418.400000
2236 12032 2237 1 109.50000 418.400000
2236 12032 2238 1 109.50000 418.400000
2237 12032 2238 1 109.50000 418.400000
1654 12033 2239 1 109.50000 418.400000
1654 12033 2240 1 109.50000 418.400000
1654 12033 2241 1 109.50000 418.400000
2239 12033 2240 1 109.50000 418.400000
2239 12033 2241 1 109.50000 418.400000
2240 12033 2241 1 109.50000 418.400000
2242 12034 2243 1 109.50000 418.400000
2242 12034 2244 1 109.50000 418.400000
2242 12034 2245 1 109.50000 418.400000
2243 12034 2244 1 109.50000 418.400000
2243 12034 2245 1 109.50000 418.400000
2244 12034 2245 1 109.50000 418.400000
2246 12035 2247 1 109.50000 418.400000
2246 12035 2248 1 109.50000 418.400000
2246 12035 2249 1 109.50000 418.400000
2247 12035 2248 1 109.50000 418.400000
2247 12035 2249 1 109.50000 418.400000
2248 12035 2249 1 109.50000 418.400000
1501 12036 2250 1 109.50000 418.400000
1501 12036 2251 1 109.50000 418.400000
1501 12036 2252 1 109.50000 418.400000
2250 12036 2251 1 109.50000 418.400000
2250 12036 2252 1 109.50000 418.400000
2251 12036 2252 1 109.50000 418.400000
2253 12037 2254 1 109.50000 418.400000
2253 12037 2255 1 109.50000 418.400000
2253 12037 2256 1 109.50000 418.400000
2254 12037 2255 1 109.50000 418.400000
2254 12037 2256 1 109.50000 418.400000
2255 12037 2256 1 109.50000 418.400000
2257 12038 2258 1 109.50000 418.400000
2257 12038 2259 1 109.50000 418.400000
2257 12038 2260 1 109.50000 418.400000
2258 12038 2259 1 109.50000 418.400000
2258 12038 2260 1 109.50000 418.400000
2259 12038 2260 1 109.50000 418.400000
2261 12039 2262 1 109.50000 418.400000
2261 12039 2263 1 109.50000 418.400000
2261 12039 2264 1 109.50000 418.400000
2262 12039 2263 1 109.50000 418.400000
2262 12039 2264 1 109.50000 418.400000
2263 12039 2264 1 109.50000 418.400000
2265 12040 2266 1 109.50000 418.400000
2265 12040 2267 1 109.50000 418.400000
2265 12040 2268 1 109.50000 418.400000
2266 12040 2267 1 109.50000 418.400000
2266 12040 2268 1 109.50000 418.400000
2267 12040 2268 1 109.50000 418.400000
2270 12041 2271 1 109.50000 418.400000
2270 12041 2272 1 109.50000 418.400000
2270 12041 10917 1 109.50000 418.400000
2271 12041 2272 1 109.50000 418.400000
2271 12041 10917 1 109.50000 418.400000
2272 12041 10917 1 109.50000 418.400000
2070 12042 2273 1 109.50000 418.400000
2070 12042 2274 1 109.50000 418.400000
2070 12042 2275 1 109.50000 418.400000
2273 12042 2274 1 109.50000 418.400000
2273 12042 2275 1 109.50000 418.400000
2274 12042 2275 1 109.50000 418.400000
2276 12043 2277 1 109.50000 418.400000
2276 12043 2278 1 109.50000 418.400000
2276 12043 2279 1 109.50000 418.400000
2277 12043 2278 1 109.50000 418.400000
2277 12043 2279 1 109.50000 418.400000
2278 12043 2279 1 109.50000 418.400000
2280 12044 2281 1 109.50000 418.400000
2280 12044 2282 1 109.50000 418.400000
2280 12044 2283 1 109.50000 418.400000
2281 12044 2282 1 109.50000 418.400000
2281 12044 2283 1 109.50000 418.400000
2282 12044 2283 1 109.50000 418.400000
2284 12045 2285 1 109.50000 418.400000
2284 12045 2286 1 109.50000 418.400000
2284 12045 2287 1 109.50000 418.400000
2285 12045 2286 1 109.50000 418.400000
2285 12045 2287 1 109.50000 418.400000
2286 12045 2287 1 109.50000 418.400000
1158 12046 2288 1 109.50000 418.400000
1158 12046 2289 1 109.50000 418.400000
1158 12046 2290 1 109.50000 418.400000
2288 12046 2289 1 109.50000 418.400000
2288 12046 2290 1 109.50000 418.400000
2289 12046 2290 1 109.50000 418.400000
2291 12047 2292 1 109.50000 418.400000
2291 12047 2293 1 109.50000 418.400000
2291 12047 2294 1 109.50000 418.400000
2292 12047 2293 1 109.50000 418.400000
2292 12047 2294 1 109.50000 418.400000
2293 12047 2294 1 109.50000 418.400000
377 12048 1381 1 109.50000 418.400000
377 12048 2295 1 109.50000 418.400000
377 12048 11387 1 109.50000 418.400000
1381 12048 2295 1 109.50000 418.400000
1381 12048 11387 1 109.50000 418.400000
2295 12048 11387 1 109.50000 418.400000
2296 12049 2297 1 109.50000 418.400000
2296 12049 2298 1 109.50000 418.400000
2296 12049 11391 1 109.50000 418.400000
2297 12049 2298 1 109.50000 418.400000
2297 12049 11391 1 109.50000 418.400000
2298 12049 11391 1 109.50000 418.400000
845 12050 2299 1 109.50000 418.400000
845 12050 11175 1 109.50000 418.400000
845 12050 11392 1 109.50000 418.400000
2299 12050 11175 1 109.50000 418.400000
2299 12050 11392 1 109.50000 418.400000
11175 12050 11392 1 109.50000 418.400000
2300 12051 2301 1 109.50000 418.400000
2300 12051 2302 1 109.50000 418.400000
2300 12051 2303 1 109.50000 418.400000
2301 12051 2302 1 109.50000 418.400000
2301 12051 2303 1 109.50000 418.400000
2302 12051 2303 1 109.50000 418.400000
142 12052 696 1 109.50000 418.400000
142 12052 2304 1 109.50000 418.400000
142 12052 11311 1 109.50000 418.400000
696 12052 2304 1 109.50000 418.400000
696 12052 11311 1 109.50000 418.400000
2304 12052 11311 1 109.50000 418.400000
2305 12053 2306 1 109.50000 418.400000
2305 12053 2307 1 109.50000 418.400000
2305 12053 2308 1 109.50000 418.400000
2306 12053 2307 1 109.50000 418.400000
2306 12053 2308 1 109.50000 418.400000
2307 12053 2308 1 109.50000 418.400000
2309 12054 2310 1 109.50000 418.400000
2309 12054 2311 1 109.50000 418.400000
2309 12054 2312 1 109.50000 418.400000
2310 12054 2311 1 109.50000 418.400000
2310 12054 2312 1 109.50000 418.400000
2311 12054 2312 1 109.50000 418.400000
2313 12055 2314 1 109.50000 418.400000
2313 12055 2315 1 109.50000 418.400000
2313 12055 2316 1 109.50000 418.400000
2314 12055 2315 1 109.50000 418.400000
2314 12055 2316 1 109.50000 418.400000
2315 12055 2316 1 109.50000 418.400000
2317 12056 2318 1 109.50000 418.400000
2317 12056 2319 1 109.50000 418.400000
2317 12056 2320 1 109.50000 418.400000
2318 12056 2319 1 109.50000 418.400000
2318 12056 2320 1 109.50000 418.400000
2319 12056 2320 1 109.50000 418.400000
1548 12057 2321 1 109.50000 418.400000
1548 12057 2322 1 109.50000 418.400000
1548 12057 2323 1 109.50000 418.400000
2321 12057 2322 1 109.50000 418.400000
2321 12057 2323 1 109.50000 418.400000
2322 12057 2323 1 109.50000 418.400000
2324 12058 2325 1 109.50000 418.400000
2324 12058 11177 1 109.50000 418.400000
2324 12058 11393 1 109.50000 418.400000
2325 12058 11177 1 109.50000 418.400000
2325 12058 11393 1 109.50000 418.400000
11177 12058 11393 1 109.50000 418.400000
2326 12059 2327 1 109.50000 418.400000
2326 12059 2328 1 109.50000 418.400000
2326 12059 2329 1 109.50000 418.400000
2327 12059 2328 1 109.50000 418.400000
2327 12059 2329 1 109.50000 418.400000
2328 12059 2329 1 109.50000 418.400000
581 12060 2330 1 109.50000 418.400000
581 12060 2331 1 109.50000 418.400000
581 12060 5410 1 109.50000 418.400000
2330 12060 2331 1 109.50000 418.400000
2330 12060 5410 1 109.50000 418.400000
2331 12060 5410 1 109.50000 418.400000
2333 12061 2334 1 109.50000 418.400000
2333 12061 2335 1 109.50000 418.400000
2333 12061 2336 1 109.50000 418.400000
2334 12061 2335 1 109.50000 418.400000
2334 12061 2336 1 109.50000 418.400000
2335 12061 2336 1 109.50000 418.400000
2338 12062 2340 1 109.50000 418.400000
2338 12062 6853 1 109.50000 418.400000
2338 12062 10496 1 109.50000 418.400000
2340 12062 6853 1 109.50000 418.400000
2340 12062 10496 1 109.50000 418.400000
6853 12062 10496 1 109.50000 418.400000
1128 12063 2341 1 109.50000 418.400000
1128 12063 2343 1 109.50000 418.400000
1128 12063 4533 1 109.50000 418.400000
2341 12063 2343 1 109.50000 418.400000
2341 12063 4533 1 109.50000 418.400000
2343 12063 4533 1 109.50000 418.400000
2344 12064 2345 1 109.50000 418.400000
2344 12064 2346 1 109.50000 418.400000
2344 12064 2347 1 109.50000 418.400000
2345 12064 2346 1 109.50000 418.400000
2345 12064 2347 1 109.50000 418.400000
2346 12064 2347 1 109.50000 418.400000
2133 12065 2348 1 109.50000 418.400000
2133 12065 2349 1 109.50000 418.400000
2133 12065 9098 1 109.50000 418.400000
2348 12065 2349 1 109.50000 418.400000
2348 12065 9098 1 109.50000 418.400000
2349 12065 9098 1 109.50000 418.400000
1930 12066 2350 1 109.50000 418.400000
1930 12066 2351 1 109.50000 418.400000
1930 12066 2353 1 109.50000 418.400000
2350 12066 2351 1 109.50000 418.400000
2350 12066 2353 1 109.50000 418.400000
2351 12066 2353 1 109.50000 418.400000
2354 12067 2355 1 109.50000 418.400000
2354 12067 2356 1 109.50000 418.400000
2354 12067 2357 1 109.50000 418.400000
2355 12067 2356 1 109.50000 418.400000
2355 12067 2357 1 109.50000 418.400000
2356 12067 2357 1 109.50000 418.400000
2358 12068 2359 1 109.50000 418.400000
2358 12068 2360 1 109.50000 418.400000
2358 12068 2361 1 109.50000 418.400000
2359 12068 2360 1 109.50000 418.400000
2359 12068 2361 1 109.50000 418.400000
2360 12068 2361 1 109.50000 418.400000
2362 12069 2363 1 109.50000 418.400000
2362 12069 2364 1 109.50000 418.400000
2362 12069 2365 1 109.50000 418.400000
2363 12069 2364 1 109.50000 418.400000
2363 12069 2365 1 109.50000 418.400000
2364 12069 2365 1 109.50000 418.400000
2366 12070 2367 1 109.50000 418.400000
2366 12070 2368 1 109.50000 418.400000
2366 12070 2369 1 109.50000 418.400000
2367 12070 2368 1 109.50000 418.400000
2367 12070 2369 1 109.50000 418.400000
2368 12070 2369 1 109.50000 418.400000
2370 12071 2371 1 109.50000 418.400000
2370 12071 2372 1 109.50000 418.400000
2370 12071 2373 1 109.50000 418.400000
2371 12071 2372 1 109.50000 418.400000
2371 12071 2373 1 109.50000 418.400000
2372 12071 2373 1 109.50000 418.400000
2374 12072 2375 1 109.50000 418.400000
2374 12072 2376 1 109.50000 418.400000
2374 12072 2377 1 109.50000 418.400000
2375 12072 2376 1 109.50000 418.400000
2375 12072 2377 1 109.50000 418.400000
2376 12072 2377 1 109.50000 418.400000
2378 12073 2379 1 109.50000 418.400000
2378 12073 2380 1 109.50000 418.400000
2378 12073 2381 1 109.50000 418.400000
2379 12073 2380 1 109.50000 418.400000
2379 12073 2381 1 109.50000 418.400000
2380 12073 2381 1 109.50000 418.400000
2382 12074 2383 1 109.50000 418.400000
2382 12074 2384 1 109.50000 418.400000
2382 12074 2385 1 109.50000 418.400000
2383 12074 2384 1 109.50000 418.400000
2383 12074 2385 1 109.50000 418.400000
2384 12074 2385 1 109.50000 418.400000
2386 12075 2387 1 109.50000 418.400000
2386 12075 2388 1 109.50000 418.400000
2386 12075 2389 1 109.50000 418.400000
2387 12075 2388 1 109.50000 418.400000
2387 12075 2389 1 109.50000 418.400000
2388 12075 2389 1 109.50000 418.400000
2390 12076 2391 1 109.50000 418.400000
2390 12076 2392 1 109.50000 418.400000
2390 12076 2393 1 109.50000 418.400000
2391 12076 2392 1 109.50000 418.400000
2391 12076 2393 1 109.50000 418.400000
2392 12076 2393 1 109.50000 418.400000
2378 12077 2394 1 109.50000 418.400000
2378 12077 2395 1 109.50000 418.400000
2378 12077 2396 1 109.50000 418.400000
2394 12077 2395 1 109.50000 418.400000
2394 12077 2396 1 109.50000 418.400000
2395 12077 2396 1 109.50000 418.400000
2398 12078 2399 1 109.50000 418.400000
2398 12078 2400 1 109.50000 418.400000
2398 12078 4067 1 109.50000 418.400000
2399 12078 2400 1 109.50000 418.400000
2399 12078 4067 1 109.50000 418.400000
2400 12078 4067 1 109.50000 418.400000
2402 12079 2403 1 109.50000 418.400000
2402 12079 2404 1 109.50000 418.400000
2402 12079 2405 1 109.50000 418.400000
2403 12079 2404 1 109.50000 418.400000
2403 12079 2405 1 109.50000 418.400000
2404 12079 2405 1 109.50000 418.400000
2406 12080 2407 1 109.50000 418.400000
2406 12080 2408 1 109.50000 418.400000
2406 12080 2409 1 109.50000 418.400000
2407 12080 2408 1 109.50000 418.400000
2407 12080 2409 1 109.50000 418.400000
2408 12080 2409 1 109.50000 418.400000
487 12081 2410 1 109.50000 418.400000
487 12081 2411 1 109.50000 418.400000
487 12081 2412 1 109.50000 418.400000
2410 12081 2411 1 109.50000 418.400000
2410 12081 2412 1 109.50000 418.400000
2411 12081 2412 1 109.50000 418.400000
2413 12082 2414 1 109.50000 418.400000
2413 12082 2415 1 109.50000 418.400000
2413 12082 2416 1 109.50000 418.400000
2414 12082 2415 1 109.50000 418.400000
2414 12082 2416 1 109.50000 418.400000
2415 12082 2416 1 109.50000 418.400000
2417 12083 2418 1 109.50000 418.400000
2417 12083 2419 1 109.50000 418.400000
2417 12083 2420 1 109.50000 418.400000
2418 12083 2419 1 109.50000 418.400000
2418 12083 2420 1 109.50000 418.400000
2419 12083 2420 1 109.50000 418.400000
2421 12084 2422 1 109.50000 418.400000
2421 12084 2423 1 109.50000 418.400000
2421 12084 2424 1 109.50000 418.400000
2422 12084 2423 1 109.50000 418.400000
2422 12084 2424 1 109.50000 418.400000
2423 12084 2424 1 109.50000 418.400000
2425 12085 2426 1 109.50000 418.400000
2425 12085 2427 1 109.50000 418.400000
2425 12085 2428 1 109.50000 418.400000
2426 12085 2427 1 109.50000 418.400000
2426 12085 2428 1 109.50000 418.400000
2427 12085 2428 1 109.50000 418.400000
1022 12086 2429 1 109.50000 418.400000
1022 12086 2430 1 109.50000 418.400000
1022 12086 11394 1 109.50000 418.400000
2429 12086 2430 1 109.50000 418.400000
2429 12086 11394 1 109.50000 418.400000
2430 12086 11394 1 109.50000 418.400000
260 12087 2431 1 109.50000 418.400000
260 12087 2433 1 109.50000 418.400000
260 12087 11395 1 109.50000 418.400000
2431 12087 2433 1 109.50000 418.400000
2431 12087 11395 1 109.50000 418.400000
2433 12087 11395 1 109.50000 418.400000
2434 12088 2435 1 109.50000 418.400000
2434 12088 2436 1 109.50000 418.400000
2434 12088 2437 1 109.50000 418.400000
2435 12088 2436 1 109.50000 418.400000
2435 12088 2437 1 109.50000 418.400000
2436 12088 2437 1 109.50000 418.400000
2438 12089 2439 1 109.50000 418.400000
2438 12089 2440 1 109.50000 418.400000
2438 12089 2441 1 109.50000 418.400000
2439 12089 2440 1 109.50000 418.400000
2439 12089 2441 1 109.50000 418.400000
2440 12089 2441 1 109.50000 418.400000
2442 12090 2443 1 109.50000 418.400000
2442 12090 2444 1 109.50000 418.400000
2442 12090 2445 1 109.50000 418.400000
2443 12090 2444 1 109.50000 418.400000
2443 12090 2445 1 109.50000 418.400000
2444 12090 2445 1 109.50000 418.400000
2446 12091 2447 1 109.50000 418.400000
2446 12091 2448 1 109.50000 418.400000
2446 12091 2449 1 109.50000 418.400000
2447 12091 2448 1 109.50000 418.400000
2447 12091 2449 1 109.50000 418.400000
2448 12091 2449 1 109.50000 418.400000
2450 12092 2451 1 109.50000 418.400000
2450 12092 2452 1 109.50000 418.400000
2450 12092 11396 1 109.50000 418.400000
2451 12092 2452 1 109.50000 418.400000
2451 12092 11396 1 109.50000 418.400000
2452 12092 11396 1 109.50000 418.400000
1576 12093 2453 1 109.50000 418.400000
1576 12093 2454 1 109.50000 418.400000
1576 12093 2455 1 109.50000 418.400000
2453 12093 2454 1 109.50000 418.400000
2453 12093 2455 1 109.50000 418.400000
2454 12093 2455 1 109.50000 418.400000
2456 12094 2457 1 109.50000 418.400000
2456 12094 11178 1 109.50000 418.400000
2456 12094 11397 1 109.50000 418.400000
2457 12094 11178 1 109.50000 418.400000
2457 12094 11397 1 109.50000 418.400000
11178 12094 11397 1 109.50000 418.400000
2458 12095 2459 1 109.50000 418.400000
2458 12095 2460 1 109.50000 418.400000
2458 12095 2461 1 109.50000 418.400000
2459 12095 2460 1 109.50000 418.400000
2459 12095 2461 1 109.50000 418.400000
2460 12095 2461 1 109.50000 418.400000
2462 12096 2463 1 109.50000 418.400000
2462 12096 11179 1 109.50000 418.400000
2462 12096 11398 1 109.50000 418.400000
2463 12096 11179 1 109.50000 418.400000
2463 12096 11398 1 109.50000 418.400000
11179 12096 11398 1 109.50000 418.400000
2464 12097 2465 1 109.50000 418.400000
2464 12097 2466 1 109.50000 418.400000
2464 12097 2467 1 109.50000 418.400000
2465 12097 2466 1 109.50000 418.400000
2465 12097 2467 1 109.50000 418.400000
2466 12097 2467 1 109.50000 418.400000
2468 12098 2469 1 109.50000 418.400000
2468 12098 2470 1 109.50000 418.400000
2468 12098 2471 1 109.50000 418.400000
2469 12098 2470 1 109.50000 418.400000
2469 12098 2471 1 109.50000 418.400000
2470 12098 2471 1 109.50000 418.400000
2472 12099 2473 1 109.50000 418.400000
2472 12099 2474 1 109.50000 418.400000
2472 12099 2475 1 109.50000 418.400000
2473 12099 2474 1 109.50000 418.400000
2473 12099 2475 1 109.50000 418.400000
2474 12099 2475 1 109.50000 418.400000
2476 12100 2477 1 109.50000 418.400000
2476 12100 2478 1 109.50000 418.400000
2476 12100 10206 1 109.50000 418.400000
2477 12100 2478 1 109.50000 418.400000
2477 12100 10206 1 109.50000 418.400000
2478 12100 10206 1 109.50000 418.400000
280 12101 2480 1 109.50000 418.400000
280 12101 2481 1 109.50000 418.400000
280 12101 2482 1 109.50000 418.400000
2480 12101 2481 1 109.50000 418.400000
2480 12101 2482 1 109.50000 418.400000
2481 12101 2482 1 109.50000 418.400000
2483 12102 2484 1 109.50000 418.400000
2483 12102 2485 1 109.50000 418.400000
2483 12102 11399 1 109.50000 418.400000
2484 12102 2485 1 109.50000 418.400000
2484 12102 11399 1 109.50000 418.400000
2485 12102 11399 1 109.50000 418.400000
2486 12103 2487 1 109.50000 418.400000
2486 12103 2488 1 109.50000 418.400000
2486 12103 2489 1 109.50000 418.400000
2487 12103 2488 1 109.50000 418.400000
2487 12103 2489 1 109.50000 418.400000
2488 12103 2489 1 109.50000 418.400000
2496 12104 2497 1 109.50000 418.400000
2496 12104 2498 1 109.50000 418.400000
2496 12104 2499 1 109.50000 418.400000
2497 12104 2498 1 109.50000 418.400000
2497 12104 2499 1 109.50000 418.400000
2498 12104 2499 1 109.50000 418.400000
2500 12105 2501 1 109.50000 418.400000
2500 12105 11180 1 109.50000 418.400000
2500 12105 11400 1 109.50000 418.400000
2501 12105 11180 1 109.50000 418.400000
2501 12105 11400 1 109.50000 418.400000
11180 12105 11400 1 109.50000 418.400000
1324 12106 2502 1 109.50000 418.400000
1324 12106 2503 1 109.50000 418.400000
1324 12106 2504 1 109.50000 418.400000
2502 12106 2503 1 109.50000 418.400000
2502 12106 2504 1 109.50000 418.400000
2503 12106 2504 1 109.50000 418.400000
2505 12107 2506 1 109.50000 418.400000
2505 12107 5440 1 109.50000 418.400000
2505 12107 11401 1 109.50000 418.400000
2506 12107 5440 1 109.50000 418.400000
2506 12107 11401 1 109.50000 418.400000
5440 12107 11401 1 109.50000 418.400000
2508 12108 2509 1 109.50000 418.400000
2508 12108 2510 1 109.50000 418.400000
2508 12108 2511 1 109.50000 418.400000
2509 12108 2510 1 109.50000 418.400000
2509 12108 2511 1 109.50000 418.400000
2510 12108 2511 1 109.50000 418.400000
2512 12109 2513 1 109.50000 418.400000
2512 12109 2514 1 109.50000 418.400000
2512 12109 2515 1 109.50000 418.400000
2513 12109 2514 1 109.50000 418.400000
2513 12109 2515 1 109.50000 418.400000
2514 12109 2515 1 109.50000 418.400000
2516 12110 2517 1 109.50000 418.400000
2516 12110 2518 1 109.50000 418.400000
2516 12110 2519 1 109.50000 418.400000
2517 12110 2518 1 109.50000 418.400000
2517 12110 2519 1 109.50000 418.400000
2518 12110 2519 1 109.50000 418.400000
2520 12111 2521 1 109.50000 418.400000
2520 12111 2522 1 109.50000 418.400000
2520 12111 2523 1 109.50000 418.400000
2521 12111 2522 1 109.50000 418.400000
2521 12111 2523 1 109.50000 418.400000
2522 12111 2523 1 109.50000 418.400000
2524 12112 2525 1 109.50000 418.400000
2524 12112 2526 1 109.50000 418.400000
2524 12112 2527 1 109.50000 418.400000
2525 12112 2526 1 109.50000 418.400000
2525 12112 2527 1 109.50000 418.400000
2526 12112 2527 1 109.50000 418.400000
2528 12113 2529 1 109.50000 418.400000
2528 12113 2530 1 109.50000 418.400000
2528 12113 2531 1 109.50000 418.400000
2529 12113 2530 1 109.50000 418.400000
2529 12113 2531 1 109.50000 418.400000
2530 12113 2531 1 109.50000 418.400000
2532 12114 2533 1 109.50000 418.400000
2532 12114 2534 1 109.50000 418.400000
2532 12114 2535 1 109.50000 418.400000
2533 12114 2534 1 109.50000 418.400000
2533 12114 2535 1 109.50000 418.400000
2534 12114 2535 1 109.50000 418.400000
2468 12115 2536 1 109.50000 418.400000
2468 12115 2537 1 109.50000 418.400000
2468 12115 2538 1 109.50000 418.400000
2536 12115 2537 1 109.50000 418.400000
2536 12115 2538 1 109.50000 418.400000
2537 12115 2538 1 109.50000 418.400000
2328 12116 2539 1 109.50000 418.400000
2328 12116 2540 1 109.50000 418.400000
2328 12116 2541 1 109.50000 418.400000
2539 12116 2540 1 109.50000 418.400000
2539 12116 2541 1 109.50000 418.400000
2540 12116 2541 1 109.50000 418.400000
230 12117 2542 1 109.50000 418.400000
230 12117 2543 1 109.50000 418.400000
230 12117 2544 1 109.50000 418.400000
2542 12117 2543 1 109.50000 418.400000
2542 12117 2544 1 109.50000 418.400000
2543 12117 2544 1 109.50000 418.400000
2545 12118 2546 1 109.50000 418.400000
2545 12118 2547 1 109.50000 418.400000
2545 12118 2548 1 109.50000 418.400000
2546 12118 2547 1 109.50000 418.400000
2546 12118 2548 1 109.50000 418.400000
2547 12118 2548 1 109.50000 418.400000
2549 12119 2550 1 109.50000 418.400000
2549 12119 2551 1 109.50000 418.400000
2549 12119 2552 1 109.50000 418.400000
2550 12119 2551 1 109.50000 418.400000
2550 12119 2552 1 109.50000 418.400000
2551 12119 2552 1 109.50000 418.400000
2553 12120 2554 1 109.50000 418.400000
2553 12120 2555 1 109.50000 418.400000
2553 12120 2556 1 109.50000 418.400000
2554 12120 2555 1 109.50000 418.400000
2554 12120 2556 1 109.50000 418.400000
2555 12120 2556 1 109.50000 418.400000
2558 12121 2559 1 109.50000 418.400000
2558 12121 2560 1 109.50000 418.400000
2558 12121 11402 1 109.50000 418.400000
2559 12121 2560 1 109.50000 418.400000
2559 12121 11402 1 109.50000 418.400000
2560 12121 11402 1 109.50000 418.400000
1964 12122 2561 1 109.50000 418.400000
1964 12122 2562 1 109.50000 418.400000
1964 12122 2563 1 109.50000 418.400000
2561 12122 2562 1 109.50000 418.400000
2561 12122 2563 1 109.50000 418.400000
2562 12122 2563 1 109.50000 418.400000
690 12123 2564 1 109.50000 418.400000
690 12123 2565 1 109.50000 418.400000
690 12123 2566 1 109.50000 418.400000
2564 12123 2565 1 109.50000 418.400000
2564 12123 2566 1 109.50000 418.400000
2565 12123 2566 1 109.50000 418.400000
2567 12124 2568 1 109.50000 418.400000
2567 12124 2569 1 109.50000 418.400000
2567 12124 2570 1 109.50000 418.400000
2568 12124 2569 1 109.50000 418.400000
2568 12124 2570 1 109.50000 418.400000
2569 12124 2570 1 109.50000 418.400000
2400 12125 2571 1 109.50000 418.400000
2400 12125 2572 1 109.50000 418.400000
2400 12125 3759 1 109.50000 418.400000
2571 12125 2572 1 109.50000 418.400000
2571 12125 3759 1 109.50000 418.400000
2572 12125 3759 1 109.50000 418.400000
2574 12126 2575 1 109.50000 418.400000
2574 12126 2576 1 109.50000 418.400000
2574 12126 2577 1 109.50000 418.400000
2575 12126 2576 1 109.50000 418.400000
2575 12126 2577 1 109.50000 418.400000
2576 12126 2577 1 109.50000 418.400000
1898 12127 2578 1 109.50000 418.400000
1898 12127 2579 1 109.50000 418.400000
1898 12127 2580 1 109.50000 418.400000
2578 12127 2579 1 109.50000 418.400000
2578 12127 2580 1 109.50000 418.400000
2579 12127 2580 1 109.50000 418.400000
1325 12128 2581 1 109.50000 418.400000
1325 12128 2582 1 109.50000 418.400000
1325 12128 11363 1 109.50000 418.400000
2581 12128 2582 1 109.50000 418.400000
2581 12128 11363 1 109.50000 418.400000
2582 12128 11363 1 109.50000 418.400000
2584 12129 2585 1 109.50000 418.400000
2584 12129 2586 1 109.50000 418.400000
2584 12129 6496 1 109.50000 418.400000
2585 12129 2586 1 109.50000 418.400000
2585 12129 6496 1 109.50000 418.400000
2586 12129 6496 1 109.50000 418.400000
2587 12130 2588 1 109.50000 418.400000
2587 12130 11181 1 109.50000 418.400000
2587 12130 11403 1 109.50000 418.400000
2588 12130 11181 1 109.50000 418.400000
2588 12130 11403 1 109.50000 418.400000
11181 12130 11403 1 109.50000 418.400000
2589 12131 2590 1 109.50000 418.400000
2589 12131 2591 1 109.50000 418.400000
2589 12131 11192 1 109.50000 418.400000
2590 12131 2591 1 109.50000 418.400000
2590 12131 11192 1 109.50000 418.400000
2591 12131 11192 1 109.50000 418.400000
847 12132 2592 1 109.50000 418.400000
847 12132 2593 1 109.50000 418.400000
847 12132 2594 1 109.50000 418.400000
2592 12132 2593 1 109.50000 418.400000
2592 12132 2594 1 109.50000 418.400000
2593 12132 2594 1 109.50000 418.400000
628 12133 2595 1 109.50000 418.400000
628 12133 2596 1 109.50000 418.400000
628 12133 2597 1 109.50000 418.400000
2595 12133 2596 1 109.50000 418.400000
2595 12133 2597 1 109.50000 418.400000
2596 12133 2597 1 109.50000 418.400000
2598 12134 2599 1 109.50000 418.400000
2598 12134 2600 1 109.50000 418.400000
2598 12134 2601 1 109.50000 418.400000
2599 12134 2600 1 109.50000 418.400000
2599 12134 2601 1 109.50000 418.400000
2600 12134 2601 1 109.50000 418.400000
895 12135 2602 1 109.50000 418.400000
895 12135 2603 1 109.50000 418.400000
895 12135 11212 1 109.50000 418.400000
2602 12135 2603 1 109.50000 418.400000
2602 12135 11212 1 109.50000 418.400000
2603 12135 11212 1 109.50000 418.400000
2604 12136 2989 1 109.50000 418.400000
2604 12136 2990 1 109.50000 418.400000
2604 12136 9329 1 109.50000 418.400000
2989 12136 2990 1 109.50000 418.400000
2989 12136 9329 1 109.50000 418.400000
2990 12136 9329 1 109.50000 418.400000
2606 12137 2608 1 109.50000 418.400000
2606 12137 2609 1 109.50000 418.400000
2606 12137 9020 1 109.50000 418.400000
2608 12137 2609 1 109.50000 418.400000
2608 12137 9020 1 109.50000 418.400000
2609 12137 9020 1 109.50000 418.400000
2610 12138 2611 1 109.50000 418.400000
2610 12138 2612 1 109.50000 418.400000
2610 12138 7265 1 109.50000 418.400000
2611 12138 2612 1 109.50000 418.400000
2611 12138 7265 1 109.50000 418.400000
2612 12138 7265 1 109.50000 418.400000
1298 12139 2613 1 109.50000 418.400000
1298 12139 2614 1 109.50000 418.400000
1298 12139 2615 1 109.50000 418.400000
2613 12139 2614 1 109.50000 418.400000
2613 12139 2615 1 109.50000 418.400000
2614 12139 2615 1 109.50000 418.400000
1313 12140 2616 1 109.50000 418.400000
1313 12140 2617 1 109.50000 418.400000
1313 12140 2618 1 109.50000 418.400000
2616 12140 2617 1 109.50000 418.400000
2616 12140 2618 1 109.50000 418.400000
2617 12140 2618 1 109.50000 418.400000
2619 12141 2620 1 109.50000 418.400000
2619 12141 2621 1 109.50000 418.400000
2619 12141 2622 1 109.50000 418.400000
2620 12141 2621 1 109.50000 418.400000
2620 12141 2622 1 109.50000 418.400000
2621 12141 2622 1 109.50000 418.400000
2623 12142 2624 1 109.50000 418.400000
2623 12142 11182 1 109.50000 418.400000
2623 12142 11296 1 109.50000 418.400000
2624 12142 11182 1 109.50000 418.400000
2624 12142 11296 1 109.50000 418.400000
11182 12142 11296 1 109.50000 418.400000
2626 12143 2627 1 109.50000 418.400000
2626 12143 2628 1 109.50000 418.400000
2626 12143 6785 1 109.50000 418.400000
2627 12143 2628 1 109.50000 418.400000
2627 12143 6785 1 109.50000 418.400000
2628 12143 6785 1 109.50000 418.400000
2496 12144 2629 1 109.50000 418.400000
2496 12144 2630 1 109.50000 418.400000
2496 12144 2631 1 109.50000 418.400000
2629 12144 2630 1 109.50000 418.400000
2629 12144 2631 1 109.50000 418.400000
2630 12144 2631 1 109.50000 418.400000
2632 12145 2633 1 109.50000 418.400000
2632 12145 2634 1 109.50000 418.400000
2632 12145 2635 1 109.50000 418.400000
2633 12145 2634 1 109.50000 418.400000
2633 12145 2635 1 109.50000 418.400000
2634 12145 2635 1 109.50000 418.400000
2636 12146 2637 1 109.50000 418.400000
2636 12146 2638 1 109.50000 418.400000
2636 12146 2639 1 109.50000 418.400000
2637 12146 2638 1 109.50000 418.400000
2637 12146 2639 1 109.50000 418.400000
2638 12146 2639 1 109.50000 418.400000
2640 12147 2641 1 109.50000 418.400000
2640 12147 2642 1 109.50000 418.400000
2640 12147 2643 1 109.50000 418.400000
2641 12147 2642 1 109.50000 418.400000
2641 12147 2643 1 109.50000 418.400000
2642 12147 2643 1 109.50000 418.400000
1434 12148 2644 1 109.50000 418.400000
1434 12148 2645 1 109.50000 418.400000
1434 12148 2646 1 109.50000 418.400000
2644 12148 2645 1 109.50000 418.400000
2644 12148 2646 1 109.50000 418.400000
2645 12148 2646 1 109.50000 418.400000
2647 12149 2648 1 109.50000 418.400000
2647 12149 2650 1 109.50000 418.400000
2647 12149 11078 1 109.50000 418.400000
2648 12149 2650 1 109.50000 418.400000
2648 12149 11078 1 109.50000 418.400000
2650 12149 11078 1 109.50000 418.400000
2651 12150 2652 1 109.50000 418.400000
2651 12150 2653 1 109.50000 418.400000
2651 12150 11354 1 109.50000 418.400000
2652 12150 2653 1 109.50000 418.400000
2652 12150 11354 1 109.50000 418.400000
2653 12150 11354 1 109.50000 418.400000
2654 12151 2655 1 109.50000 418.400000
2654 12151 2656 1 109.50000 418.400000
2654 12151 2657 1 109.50000 418.400000
2655 12151 2656 1 109.50000 418.400000
2655 12151 2657 1 109.50000 418.400000
2656 12151 2657 1 109.50000 418.400000
875 12152 1005 1 109.50000 418.400000
875 12152 2658 1 109.50000 418.400000
875 12152 2659 1 109.50000 418.400000
1005 12152 2658 1 109.50000 418.400000
1005 12152 2659 1 109.50000 418.400000
2658 12152 2659 1 109.50000 418.400000
2660 12153 2661 1 109.50000 418.400000
2660 12153 2662 1 109.50000 418.400000
2660 12153 2663 1 109.50000 418.400000
2661 12153 2662 1 109.50000 418.400000
2661 12153 2663 1 109.50000 418.400000
2662 12153 2663 1 109.50000 418.400000
756 12154 1161 1 109.50000 418.400000
756 12154 2664 1 109.50000 418.400000
756 12154 2665 1 109.50000 418.400000
1161 12154 2664 1 109.50000 418.400000
1161 12154 2665 1 109.50000 418.400000
2664 12154 2665 1 109.50000 418.400000
695 12155 769 1 109.50000 418.400000
695 12155 2666 1 109.50000 418.400000
695 12155 2667 1 109.50000 418.400000
769 12155 2666 1 109.50000 418.400000
769 12155 2667 1 109.50000 418.400000
2666 12155 2667 1 109.50000 418.400000
2668 12156 2669 1 109.50000 418.400000
2668 12156 2670 1 109.50000 418.400000
2668 12156 2671 1 109.50000 418.400000
2669 12156 2670 1 109.50000 418.400000
2669 12156 2671 1 109.50000 418.400000
2670 12156 2671 1 109.50000 418.400000
2672 12157 2673 1 109.50000 418.400000
2672 12157 2674 1 109.50000 418.400000
2672 12157 2675 1 109.50000 418.400000
2673 12157 2674 1 109.50000 418.400000
2673 12157 2675 1 109.50000 418.400000
2674 12157 2675 1 109.50000 418.400000
2676 12158 2677 1 109.50000 418.400000
2676 12158 2678 1 109.50000 418.400000
2676 12158 2679 1 109.50000 418.400000
2677 12158 2678 1 109.50000 418.400000
2677 12158 2679 1 109.50000 418.400000
2678 12158 2679 1 109.50000 418.400000
2680 12159 2681 1 109.50000 418.400000
2680 12159 2682 1 109.50000 418.400000
2680 12159 3309 1 109.50000 418.400000
2681 12159 2682 1 109.50000 418.400000
2681 12159 3309 1 109.50000 418.400000
2682 12159 3309 1 109.50000 418.400000
2684 12160 2685 1 109.50000 418.400000
2684 12160 2686 1 109.50000 418.400000
2684 12160 2687 1 109.50000 418.400000
2685 12160 2686 1 109.50000 418.400000
2685 12160 2687 1 109.50000 418.400000
2686 12160 2687 1 109.50000 418.400000
2688 12161 2689 1 109.50000 418.400000
2688 12161 2690 1 109.50000 418.400000
2688 12161 2691 1 109.50000 418.400000
2689 12161 2690 1 109.50000 418.400000
2689 12161 2691 1 109.50000 418.400000
2690 12161 2691 1 109.50000 418.400000
2692 12162 2693 1 109.50000 418.400000
2692 12162 2694 1 109.50000 418.400000
2692 12162 2695 1 109.50000 418.400000
2693 12162 2694 1 109.50000 418.400000
2693 12162 2695 1 109.50000 418.400000
2694 12162 2695 1 109.50000 418.400000
2696 12163 2697 1 109.50000 418.400000
2696 12163 2698 1 109.50000 418.400000
2696 12163 11138 1 109.50000 418.400000
2697 12163 2698 1 109.50000 418.400000
2697 12163 11138 1 109.50000 418.400000
2698 12163 11138 1 109.50000 418.400000
2583 12164 2699 1 109.50000 418.400000
2583 12164 2700 1 109.50000 418.400000
2583 12164 2701 1 109.50000 418.400000
2699 12164 2700 1 109.50000 418.400000
2699 12164 2701 1 109.50000 418.400000
2700 12164 2701 1 109.50000 418.400000
2702 12165 2703 1 109.50000 418.400000
2702 12165 2704 1 109.50000 418.400000
2702 12165 2705 1 109.50000 418.400000
2703 12165 2704 1 109.50000 418.400000
2703 12165 2705 1 109.50000 418.400000
2704 12165 2705 1 109.50000 418.400000
2428 12166 2706 1 109.50000 418.400000
2428 12166 2707 1 109.50000 418.400000
2428 12166 2708 1 109.50000 418.400000
2706 12166 2707 1 109.50000 418.400000
2706 12166 2708 1 109.50000 418.400000
2707 12166 2708 1 109.50000 418.400000
2709 12167 2710 1 109.50000 418.400000
2709 12167 2711 1 109.50000 418.400000
2709 12167 2712 1 109.50000 418.400000
2710 12167 2711 1 109.50000 418.400000
2710 12167 2712 1 109.50000 418.400000
2711 12167 2712 1 109.50000 418.400000
2713 12168 2714 1 109.50000 418.400000
2713 12168 2715 1 109.50000 418.400000
2713 12168 2716 1 109.50000 418.400000
2714 12168 2715 1 109.50000 418.400000
2714 12168 2716 1 109.50000 418.400000
2715 12168 2716 1 109.50000 418.400000
2717 12169 2718 1 109.50000 418.400000
2717 12169 2719 1 109.50000 418.400000
2717 12169 2720 1 109.50000 418.400000
2718 12169 2719 1 109.50000 418.400000
2718 12169 2720 1 109.50000 418.400000
2719 12169 2720 1 109.50000 418.400000
2721 12170 2722 1 109.50000 418.400000
2721 12170 2723 1 109.50000 418.400000
2721 12170 2724 1 109.50000 418.400000
2722 12170 2723 1 109.50000 418.400000
2722 12170 2724 1 109.50000 418.400000
2723 12170 2724 1 109.50000 418.400000
2725 12171 2726 1 109.50000 418.400000
2725 12171 2727 1 109.50000 418.400000
2725 12171 2728 1 109.50000 418.400000
2726 12171 2727 1 109.50000 418.400000
2726 12171 2728 1 109.50000 418.400000
2727 12171 2728 1 109.50000 418.400000
2729 12172 2730 1 109.50000 418.400000
2729 12172 2731 1 109.50000 418.400000
2729 12172 11404 1 109.50000 418.400000
2730 12172 2731 1 109.50000 418.400000
2730 12172 11404 1 109.50000 418.400000
2731 12172 11404 1 109.50000 418.400000
828 12173 2732 1 109.50000 418.400000
828 12173 2733 1 109.50000 418.400000
828 12173 2734 1 109.50000 418.400000
2732 12173 2733 1 109.50000 418.400000
2732 12173 2734 1 109.50000 418.400000
2733 12173 2734 1 109.50000 418.400000
982 12174 2735 1 109.50000 418.400000
982 12174 2736 1 109.50000 418.400000
982 12174 2737 1 109.50000 418.400000
2735 12174 2736 1 109.50000 418.400000
2735 12174 2737 1 109.50000 418.400000
2736 12174 2737 1 109.50000 418.400000
2738 12175 2739 1 109.50000 418.400000
2738 12175 2740 1 109.50000 418.400000
2738 12175 2741 1 109.50000 418.400000
2739 12175 2740 1 109.50000 418.400000
2739 12175 2741 1 109.50000 418.400000
2740 12175 2741 1 109.50000 418.400000
2742 12176 2743 1 109.50000 418.400000
2742 12176 2744 1 109.50000 418.400000
2742 12176 2745 1 109.50000 418.400000
2743 12176 2744 1 109.50000 418.400000
2743 12176 2745 1 109.50000 418.400000
2744 12176 2745 1 109.50000 418.400000
1520 12177 2746 1 109.50000 418.400000
1520 12177 2747 1 109.50000 418.400000
1520 12177 2748 1 109.50000 418.400000
2746 12177 2747 1 109.50000 418.400000
2746 12177 2748 1 109.50000 418.400000
2747 12177 2748 1 109.50000 418.400000
2749 12178 2750 1 109.50000 418.400000
2749 12178 2751 1 109.50000 418.400000
2749 12178 2752 1 109.50000 418.400000
2750 12178 2751 1 109.50000 418.400000
2750 12178 2752 1 109.50000 418.400000
2751 12178 2752 1 109.50000 418.400000
2753 12179 2755 1 109.50000 418.400000
2753 12179 2756 1 109.50000 418.400000
2753 12179 5577 1 109.50000 418.400000
2755 12179 2756 1 109.50000 418.400000
2755 12179 5577 1 109.50000 418.400000
2756 12179 5577 1 109.50000 418.400000
2757 12180 2758 1 109.50000 418.400000
2757 12180 2759 1 109.50000 418.400000
2757 12180 2760 1 109.50000 418.400000
2758 12180 2759 1 109.50000 418.400000
2758 12180 2760 1 109.50000 418.400000
2759 12180 2760 1 109.50000 418.400000
1819 12181 2761 1 109.50000 418.400000
1819 12181 2762 1 109.50000 418.400000
1819 12181 2763 1 109.50000 418.400000
2761 12181 2762 1 109.50000 418.400000
2761 12181 2763 1 109.50000 418.400000
2762 12181 2763 1 109.50000 418.400000
2764 12182 2765 1 109.50000 418.400000
2764 12182 2766 1 109.50000 418.400000
2764 12182 2767 1 109.50000 418.400000
2765 12182 2766 1 109.50000 418.400000
2765 12182 2767 1 109.50000 418.400000
2766 12182 2767 1 109.50000 418.400000
171 12183 2768 1 109.50000 418.400000
171 12183 2769 1 109.50000 418.400000
171 12183 2770 1 109.50000 418.400000
2768 12183 2769 1 109.50000 418.400000
2768 12183 2770 1 109.50000 418.400000
2769 12183 2770 1 109.50000 418.400000
2771 12184 2773 1 109.50000 418.400000
2771 12184 2774 1 109.50000 418.400000
2771 12184 6883 1 109.50000 418.400000
2773 12184 2774 1 109.50000 418.400000
2773 12184 6883 1 109.50000 418.400000
2774 12184 6883 1 109.50000 418.400000
2775 12185 2776 1 109.50000 418.400000
2775 12185 11183 1 109.50000 418.400000
2775 12185 11265 1 109.50000 418.400000
2776 12185 11183 1 109.50000 418.400000
2776 12185 11265 1 109.50000 418.400000
11183 12185 11265 1 109.50000 418.400000
734 12186 2777 1 109.50000 418.400000
734 12186 2778 1 109.50000 418.400000
734 12186 2779 1 109.50000 418.400000
2777 12186 2778 1 109.50000 418.400000
2777 12186 2779 1 109.50000 418.400000
2778 12186 2779 1 109.50000 418.400000
2780 12187 2781 1 109.50000 418.400000
2780 12187 2782 1 109.50000 418.400000
2780 12187 2783 1 109.50000 418.400000
2781 12187 2782 1 109.50000 418.400000
2781 12187 2783 1 109.50000 418.400000
2782 12187 2783 1 109.50000 418.400000
2784 12188 2785 1 109.50000 418.400000
2784 12188 2786 1 109.50000 418.400000
2784 12188 2787 1 109.50000 418.400000
2785 12188 2786 1 109.50000 418.400000
2785 12188 2787 1 109.50000 418.400000
2786 12188 2787 1 109.50000 418.400000
911 12189 2788 1 109.50000 418.400000
911 12189 2789 1 109.50000 418.400000
911 12189 2790 1 109.50000 418.400000
2788 12189 2789 1 109.50000 418.400000
2788 12189 2790 1 109.50000 418.400000
2789 12189 2790 1 109.50000 418.400000
301 12190 2791 1 109.50000 418.400000
301 12190 2792 1 109.50000 418.400000
301 12190 4806 1 109.50000 418.400000
2791 12190 2792 1 109.50000 418.400000
2791 12190 4806 1 109.50000 418.400000
2792 12190 4806 1 109.50000 418.400000
2794 12191 2795 1 109.50000 418.400000
2794 12191 2796 1 109.50000 418.400000
2794 12191 10676 1 109.50000 418.400000
2795 12191 2796 1 109.50000 418.400000
2795 12191 10676 1 109.50000 418.400000
2796 12191 10676 1 109.50000 418.400000
191 12192 322 1 109.50000 418.400000
191 12192 2798 1 109.50000 418.400000
191 12192 2799 1 109.50000 418.400000
322 12192 2798 1 109.50000 418.400000
322 12192 2799 1 109.50000 418.400000
2798 12192 2799 1 109.50000 418.400000
699 12193 2800 1 109.50000 418.400000
699 12193 2801 1 109.50000 418.400000
699 12193 8976 1 109.50000 418.400000
2800 12193 2801 1 109.50000 418.400000
2800 12193 8976 1 109.50000 418.400000
2801 12193 8976 1 109.50000 418.400000
2058 12194 2803 1 109.50000 418.400000
2058 12194 2804 1 109.50000 418.400000
2058 12194 2805 1 109.50000 418.400000
2803 12194 2804 1 109.50000 418.400000
2803 12194 2805 1 109.50000 418.400000
2804 12194 2805 1 109.50000 418.400000
2806 12195 2807 1 109.50000 418.400000
2806 12195 2808 1 109.50000 418.400000
2806 12195 2809 1 109.50000 418.400000
2807 12195 2808 1 109.50000 418.400000
2807 12195 2809 1 109.50000 418.400000
2808 12195 2809 1 109.50000 418.400000
2810 12196 2811 1 109.50000 418.400000
2810 12196 2812 1 109.50000 418.400000
2810 12196 2813 1 109.50000 418.400000
2811 12196 2812 1 109.50000 418.400000
2811 12196 2813 1 109.50000 418.400000
2812 12196 2813 1 109.50000 418.400000
435 12197 436 1 109.50000 418.400000
435 12197 2814 1 109.50000 418.400000
435 12197 2816 1 109.50000 418.400000
436 12197 2814 1 109.50000 418.400000
436 12197 2816 1 109.50000 418.400000
2814 12197 2816 1 109.50000 418.400000
2818 12198 2819 1 109.50000 418.400000
2818 12198 2820 1 109.50000 418.400000
2818 12198 2821 1 109.50000 418.400000
2819 12198 2820 1 109.50000 418.400000
2819 12198 2821 1 109.50000 418.400000
2820 12198 2821 1 109.50000 418.400000
1494 12199 2822 1 109.50000 418.400000
1494 12199 2823 1 109.50000 418.400000
1494 12199 2824 1 109.50000 418.400000
2822 12199 2823 1 109.50000 418.400000
2822 12199 2824 1 109.50000 418.400000
2823 12199 2824 1 109.50000 418.400000
2825 12200 2826 1 109.50000 418.400000
2825 12200 2827 1 109.50000 418.400000
2825 12200 2828 1 109.50000 418.400000
2826 12200 2827 1 109.50000 418.400000
2826 12200 2828 1 109.50000 418.400000
2827 12200 2828 1 109.50000 418.400000
1803 12201 2829 1 109.50000 418.400000
1803 12201 2830 1 109.50000 418.400000
1803 12201 2831 1 109.50000 418.400000
2829 12201 2830 1 109.50000 418.400000
2829 12201 2831 1 109.50000 418.400000
2830 12201 2831 1 109.50000 418.400000
1186 12202 1994 1 109.50000 418.400000
1186 12202 2832 1 109.50000 418.400000
1186 12202 2833 1 109.50000 418.400000
1994 12202 2832 1 109.50000 418.400000
1994 12202 2833 1 109.50000 418.400000
2832 12202 2833 1 109.50000 418.400000
635 12203 2834 1 109.50000 418.400000
635 12203 2835 1 109.50000 418.400000
635 12203 2836 1 109.50000 418.400000
2834 12203 2835 1 109.50000 418.400000
2834 12203 2836 1 109.50000 418.400000
2835 12203 2836 1 109.50000 418.400000
1027 12204 2837 1 109.50000 418.400000
1027 12204 2838 1 109.50000 418.400000
1027 12204 2839 1 109.50000 418.400000
2837 12204 2838 1 109.50000 418.400000
2837 12204 2839 1 109.50000 418.400000
2838 12204 2839 1 109.50000 418.400000
2840 12205 2841 1 109.50000 418.400000
2840 12205 2842 1 109.50000 418.400000
2840 12205 2843 1 109.50000 418.400000
2841 12205 2842 1 109.50000 418.400000
2841 12205 2843 1 109.50000 418.400000
2842 12205 2843 1 109.50000 418.400000
2844 12206 2845 1 109.50000 418.400000
2844 12206 2846 1 109.50000 418.400000
2844 12206 2847 1 109.50000 418.400000
2845 12206 2846 1 109.50000 418.400000
2845 12206 2847 1 109.50000 418.400000
2846 12206 2847 1 109.50000 418.400000
300 12207 2848 1 109.50000 418.400000
300 12207 2849 1 109.50000 418.400000
300 12207 2850 1 109.50000 418.400000
2848 12207 2849 1 109.50000 418.400000
2848 12207 2850 1 109.50000 418.400000
2849 12207 2850 1 109.50000 418.400000
1763 12208 2851 1 109.50000 418.400000
1763 12208 2852 1 109.50000 418.400000
1763 12208 2853 1 109.50000 418.400000
2851 12208 2852 1 109.50000 418.400000
2851 12208 2853 1 109.50000 418.400000
2852 12208 2853 1 109.50000 418.400000
105 12209 2854 1 109.50000 418.400000
105 12209 2855 1 109.50000 418.400000
105 12209 2856 1 109.50000 418.400000
2854 12209 2855 1 109.50000 418.400000
2854 12209 2856 1 109.50000 418.400000
2855 12209 2856 1 109.50000 418.400000
1216 12210 2857 1 109.50000 418.400000
1216 12210 11184 1 109.50000 418.400000
1216 12210 11329 1 109.50000 418.400000
2857 12210 11184 1 109.50000 418.400000
2857 12210 11329 1 109.50000 418.400000
11184 12210 11329 1 109.50000 418.400000
2858 12211 2859 1 109.50000 418.400000
2858 12211 2860 1 109.50000 418.400000
2858 12211 7512 1 109.50000 418.400000
2859 12211 2860 1 109.50000 418.400000
2859 12211 7512 1 109.50000 418.400000
2860 12211 7512 1 109.50000 418.400000
261 12212 470 1 109.50000 418.400000
261 12212 2862 1 109.50000 418.400000
261 12212 2863 1 109.50000 418.400000
470 12212 2862 1 109.50000 418.400000
470 12212 2863 1 109.50000 418.400000
2862 12212 2863 1 109.50000 418.400000
2550 12213 2864 1 109.50000 418.400000
2550 12213 2865 1 109.50000 418.400000
2550 12213 4860 1 109.50000 418.400000
2864 12213 2865 1 109.50000 418.400000
2864 12213 4860 1 109.50000 418.400000
2865 12213 4860 1 109.50000 418.400000
2867 12214 2868 1 109.50000 418.400000
2867 12214 2869 1 109.50000 418.400000
2867 12214 2870 1 109.50000 418.400000
2868 12214 2869 1 109.50000 418.400000
2868 12214 2870 1 109.50000 418.400000
2869 12214 2870 1 109.50000 418.400000
1142 12215 2871 1 109.50000 418.400000
1142 12215 2872 1 109.50000 418.400000
1142 12215 2873 1 109.50000 418.400000
2871 12215 2872 1 109.50000 418.400000
2871 12215 2873 1 109.50000 418.400000
2872 12215 2873 1 109.50000 418.400000
1206 12216 2874 1 109.50000 418.400000
1206 12216 2875 1 109.50000 418.400000
1206 12216 2876 1 109.50000 418.400000
2874 12216 2875 1 109.50000 418.400000
2874 12216 2876 1 109.50000 418.400000
2875 12216 2876 1 109.50000 418.400000
2040 12217 2877 1 109.50000 418.400000
2040 12217 2878 1 109.50000 418.400000
2040 12217 2879 1 109.50000 418.400000
2877 12217 2878 1 109.50000 418.400000
2877 12217 2879 1 109.50000 418.400000
2878 12217 2879 1 109.50000 418.400000
2880 12218 2881 1 109.50000 418.400000
2880 12218 2882 1 109.50000 418.400000
2880 12218 2883 1 109.50000 418.400000
2881 12218 2882 1 109.50000 418.400000
2881 12218 2883 1 109.50000 418.400000
2882 12218 2883 1 109.50000 418.400000
2559 12219 2884 1 109.50000 418.400000
2559 12219 2885 1 109.50000 418.400000
2559 12219 11356 1 109.50000 418.400000
2884 12219 2885 1 109.50000 418.400000
2884 12219 11356 1 109.50000 418.400000
2885 12219 11356 1 109.50000 418.400000
1937 12220 2886 1 109.50000 418.400000
1937 12220 2887 1 109.50000 418.400000
1937 12220 2888 1 109.50000 418.400000
2886 12220 2887 1 109.50000 418.400000
2886 12220 2888 1 109.50000 418.400000
2887 12220 2888 1 109.50000 418.400000
2889 12221 2890 1 109.50000 418.400000
2889 12221 2891 1 109.50000 418.400000
2889 12221 11157 1 109.50000 418.400000
2890 12221 2891 1 109.50000 418.400000
2890 12221 11157 1 109.50000 418.400000
2891 12221 11157 1 109.50000 418.400000
2892 12222 2893 1 109.50000 418.400000
2892 12222 2895 1 109.50000 418.400000
2892 12222 9517 1 109.50000 418.400000
2893 12222 2895 1 109.50000 418.400000
2893 12222 9517 1 109.50000 418.400000
2895 12222 9517 1 109.50000 418.400000
2896 12223 2897 1 109.50000 418.400000
2896 12223 2898 1 109.50000 418.400000
2896 12223 2899 1 109.50000 418.400000
2897 12223 2898 1 109.50000 418.400000
2897 12223 2899 1 109.50000 418.400000
2898 12223 2899 1 109.50000 418.400000
1810 12224 2900 1 109.50000 418.400000
1810 12224 2901 1 109.50000 418.400000
1810 12224 2902 1 109.50000 418.400000
2900 12224 2901 1 109.50000 418.400000
2900 12224 2902 1 109.50000 418.400000
2901 12224 2902 1 109.50000 418.400000
156 12225 2903 1 109.50000 418.400000
156 12225 2904 1 109.50000 418.400000
156 12225 2905 1 109.50000 418.400000
2903 12225 2904 1 109.50000 418.400000
2903 12225 2905 1 109.50000 418.400000
2904 12225 2905 1 109.50000 418.400000
580 12226 906 1 109.50000 418.400000
580 12226 2906 1 109.50000 418.400000
580 12226 2908 1 109.50000 418.400000
906 12226 2906 1 109.50000 418.400000
906 12226 2908 1 109.50000 418.400000
2906 12226 2908 1 109.50000 418.400000
334 12227 2909 1 109.50000 418.400000
334 12227 2910 1 109.50000 418.400000
334 12227 2911 1 109.50000 418.400000
2909 12227 2910 1 109.50000 418.400000
2909 12227 2911 1 109.50000 418.400000
2910 12227 2911 1 109.50000 418.400000
2770 12228 2912 1 109.50000 418.400000
2770 12228 2913 1 109.50000 418.400000
2770 12228 2914 1 109.50000 418.400000
2912 12228 2913 1 109.50000 418.400000
2912 12228 2914 1 109.50000 418.400000
2913 12228 2914 1 109.50000 418.400000
2915 12229 2916 1 109.50000 418.400000
2915 12229 2917 1 109.50000 418.400000
2915 12229 3432 1 109.50000 418.400000
2916 12229 2917 1 109.50000 418.400000
2916 12229 3432 1 109.50000 418.400000
2917 12229 3432 1 109.50000 418.400000
2834 12230 2918 1 109.50000 418.400000
2834 12230 2919 1 109.50000 418.400000
2834 12230 2920 1 109.50000 418.400000
2918 12230 2919 1 109.50000 418.400000
2918 12230 2920 1 109.50000 418.400000
2919 12230 2920 1 109.50000 418.400000
2506 12231 2921 1 109.50000 418.400000
2506 12231 2922 1 109.50000 418.400000
2506 12231 11180 1 109.50000 418.400000
2921 12231 2922 1 109.50000 418.400000
2921 12231 11180 1 109.50000 418.400000
2922 12231 11180 1 109.50000 418.400000
566 12232 1468 1 109.50000 418.400000
566 12232 1470 1 109.50000 418.400000
566 12232 2623 1 109.50000 418.400000
1468 12232 1470 1 109.50000 418.400000
1468 12232 2623 1 109.50000 418.400000
1470 12232 2623 1 109.50000 418.400000
2923 12233 2924 1 109.50000 418.400000
2923 12233 2925 1 109.50000 418.400000
2923 12233 2926 1 109.50000 418.400000
2924 12233 2925 1 109.50000 418.400000
2924 12233 2926 1 109.50000 418.400000
2925 12233 2926 1 109.50000 418.400000
2927 12234 2928 1 109.50000 418.400000
2927 12234 2929 1 109.50000 418.400000
2927 12234 2930 1 109.50000 418.400000
2928 12234 2929 1 109.50000 418.400000
2928 12234 2930 1 109.50000 418.400000
2929 12234 2930 1 109.50000 418.400000
2003 12235 2931 1 109.50000 418.400000
2003 12235 2932 1 109.50000 418.400000
2003 12235 2933 1 109.50000 418.400000
2931 12235 2932 1 109.50000 418.400000
2931 12235 2933 1 109.50000 418.400000
2932 12235 2933 1 109.50000 418.400000
876 12236 2934 1 109.50000 418.400000
876 12236 2935 1 109.50000 418.400000
876 12236 2936 1 109.50000 418.400000
2934 12236 2935 1 109.50000 418.400000
2934 12236 2936 1 109.50000 418.400000
2935 12236 2936 1 109.50000 418.400000
655 12237 2937 1 109.50000 418.400000
655 12237 2938 1 109.50000 418.400000
655 12237 2939 1 109.50000 418.400000
2937 12237 2938 1 109.50000 418.400000
2937 12237 2939 1 109.50000 418.400000
2938 12237 2939 1 109.50000 418.400000
2940 12238 2941 1 109.50000 418.400000
2940 12238 2942 1 109.50000 418.400000
2940 12238 6129 1 109.50000 418.400000
2941 12238 2942 1 109.50000 418.400000
2941 12238 6129 1 109.50000 418.400000
2942 12238 6129 1 109.50000 418.400000
2944 12239 2945 1 109.50000 418.400000
2944 12239 2946 1 109.50000 418.400000
2944 12239 11405 1 109.50000 418.400000
2945 12239 2946 1 109.50000 418.400000
2945 12239 11405 1 109.50000 418.400000
2946 12239 11405 1 109.50000 418.400000
2947 12240 2948 1 109.50000 418.400000
2947 12240 2949 1 109.50000 418.400000
2947 12240 2950 1 109.50000 418.400000
2948 12240 2949 1 109.50000 418.400000
2948 12240 2950 1 109.50000 418.400000
2949 12240 2950 1 109.50000 418.400000
2953 12241 7431 1 109.50000 418.400000
2953 12241 8330 1 109.50000 418.400000
2953 12241 11062 1 109.50000 418.400000
7431 12241 8330 1 109.50000 418.400000
7431 12241 11062 1 109.50000 418.400000
8330 12241 11062 1 109.50000 418.400000
2269 12242 2955 1 109.50000 418.400000
2269 12242 2956 1 109.50000 418.400000
2269 12242 2957 1 109.50000 418.400000
2955 12242 2956 1 109.50000 418.400000
2955 12242 2957 1 109.50000 418.400000
2956 12242 2957 1 109.50000 418.400000
2958 12243 2959 1 109.50000 418.400000
2958 12243 2960 1 109.50000 418.400000
2958 12243 2961 1 109.50000 418.400000
2959 12243 2960 1 109.50000 418.400000
2959 12243 2961 1 109.50000 418.400000
2960 12243 2961 1 109.50000 418.400000
2962 12244 2963 1 109.50000 418.400000
2962 12244 2964 1 109.50000 418.400000
2962 12244 2965 1 109.50000 418.400000
2963 12244 2964 1 109.50000 418.400000
2963 12244 2965 1 109.50000 418.400000
2964 12244 2965 1 109.50000 418.400000
2966 12245 2967 1 109.50000 418.400000
2966 12245 2968 1 109.50000 418.400000
2966 12245 2969 1 109.50000 418.400000
2967 12245 2968 1 109.50000 418.400000
2967 12245 2969 1 109.50000 418.400000
2968 12245 2969 1 109.50000 418.400000
2970 12246 2971 1 109.50000 418.400000
2970 12246 2973 1 109.50000 418.400000
2970 12246 4010 1 109.50000 418.400000
2971 12246 2973 1 109.50000 418.400000
2971 12246 4010 1 109.50000 418.400000
2973 12246 4010 1 109.50000 418.400000
2974 12247 2975 1 109.50000 418.400000
2974 12247 2976 1 109.50000 418.400000
2974 12247 2977 1 109.50000 418.400000
2975 12247 2976 1 109.50000 418.400000
2975 12247 2977 1 109.50000 418.400000
2976 12247 2977 1 109.50000 418.400000
2978 12248 2979 1 109.50000 418.400000
2978 12248 2980 1 109.50000 418.400000
2978 12248 2981 1 109.50000 418.400000
2979 12248 2980 1 109.50000 418.400000
2979 12248 2981 1 109.50000 418.400000
2980 12248 2981 1 109.50000 418.400000
2982 12249 2983 1 109.50000 418.400000
2982 12249 2984 1 109.50000 418.400000
2982 12249 2985 1 109.50000 418.400000
2983 12249 2984 1 109.50000 418.400000
2983 12249 2985 1 109.50000 418.400000
2984 12249 2985 1 109.50000 418.400000
2986 12250 2987 1 109.50000 418.400000
2986 12250 2988 1 109.50000 418.400000
2986 12250 11183 1 109.50000 418.400000
2987 12250 2988 1 109.50000 418.400000
2987 12250 11183 1 109.50000 418.400000
2988 12250 11183 1 109.50000 418.400000
2139 12251 2995 1 109.50000 418.400000
2139 12251 10649 1 109.50000 418.400000
2139 12251 11406 1 109.50000 418.400000
2995 12251 10649 1 109.50000 418.400000
2995 12251 11406 1 109.50000 418.400000
10649 12251 11406 1 109.50000 418.400000
1583 12252 2996 1 109.50000 418.400000
1583 12252 2997 1 109.50000 418.400000
1583 12252 11221 1 109.50000 418.400000
2996 12252 2997 1 109.50000 418.400000
2996 12252 11221 1 109.50000 418.400000
2997 12252 11221 1 109.50000 418.400000
2998 12253 2999 1 109.50000 418.400000
2998 12253 3000 1 109.50000 418.400000
2998 12253 3001 1 109.50000 418.400000
2999 12253 3000 1 109.50000 418.400000
2999 12253 3001 1 109.50000 418.400000
3000 12253 3001 1 109.50000 418.400000
902 12254 2488 1 109.50000 418.400000
902 12254 3002 1 109.50000 418.400000
902 12254 3003 1 109.50000 418.400000
2488 12254 3002 1 109.50000 418.400000
2488 12254 3003 1 109.50000 418.400000
3002 12254 3003 1 109.50000 418.400000
1373 12255 3004 1 109.50000 418.400000
1373 12255 3005 1 109.50000 418.400000
1373 12255 3006 1 109.50000 418.400000
3004 12255 3005 1 109.50000 418.400000
3004 12255 3006 1 109.50000 418.400000
3005 12255 3006 1 109.50000 418.400000
3007 12256 3009 1 109.50000 418.400000
3007 12256 3010 1 109.50000 418.400000
3007 12256 8894 1 109.50000 418.400000
3009 12256 3010 1 109.50000 418.400000
3009 12256 8894 1 109.50000 418.400000
3010 12256 8894 1 109.50000 418.400000
3490 12257 10069 1 109.50000 418.400000
3490 12257 11185 1 109.50000 418.400000
3490 12257 11407 1 109.50000 418.400000
10069 12257 11185 1 109.50000 418.400000
10069 12257 11407 1 109.50000 418.400000
11185 12257 11407 1 109.50000 418.400000
3011 12258 3012 1 109.50000 418.400000
3011 12258 3013 1 109.50000 418.400000
3011 12258 3014 1 109.50000 418.400000
3012 12258 3013 1 109.50000 418.400000
3012 12258 3014 1 109.50000 418.400000
3013 12258 3014 1 109.50000 418.400000
2504 12259 3015 1 109.50000 418.400000
2504 12259 3016 1 109.50000 418.400000
2504 12259 3017 1 109.50000 418.400000
3015 12259 3016 1 109.50000 418.400000
3015 12259 3017 1 109.50000 418.400000
3016 12259 3017 1 109.50000 418.400000
3018 12260 3019 1 109.50000 418.400000
3018 12260 3020 1 109.50000 418.400000
3018 12260 3021 1 109.50000 418.400000
3019 12260 3020 1 109.50000 418.400000
3019 12260 3021 1 109.50000 418.400000
3020 12260 3021 1 109.50000 418.400000
2117 12261 3022 1 109.50000 418.400000
2117 12261 3023 1 109.50000 418.400000
2117 12261 3024 1 109.50000 418.400000
3022 12261 3023 1 109.50000 418.400000
3022 12261 3024 1 109.50000 418.400000
3023 12261 3024 1 109.50000 418.400000
3025 12262 3026 1 109.50000 418.400000
3025 12262 3027 1 109.50000 418.400000
3025 12262 3028 1 109.50000 418.400000
3026 12262 3027 1 109.50000 418.400000
3026 12262 3028 1 109.50000 418.400000
3027 12262 3028 1 109.50000 418.400000
3029 12263 3030 1 109.50000 418.400000
3029 12263 3031 1 109.50000 418.400000
3029 12263 3032 1 109.50000 418.400000
3030 12263 3031 1 109.50000 418.400000
3030 12263 3032 1 109.50000 418.400000
3031 12263 3032 1 109.50000 418.400000
3033 12264 3034 1 109.50000 418.400000
3033 12264 3035 1 109.50000 418.400000
3033 12264 11246 1 109.50000 418.400000
3034 12264 3035 1 109.50000 418.400000
3034 12264 11246 1 109.50000 418.400000
3035 12264 11246 1 109.50000 418.400000
2597 12265 3036 1 109.50000 418.400000
2597 12265 3037 1 109.50000 418.400000
2597 12265 3038 1 109.50000 418.400000
3036 12265 3037 1 109.50000 418.400000
3036 12265 3038 1 109.50000 418.400000
3037 12265 3038 1 109.50000 418.400000
3039 12266 3040 1 109.50000 418.400000
3039 12266 3041 1 109.50000 418.400000
3039 12266 10913 1 109.50000 418.400000
3040 12266 3041 1 109.50000 418.400000
3040 12266 10913 1 109.50000 418.400000
3041 12266 10913 1 109.50000 418.400000
2027 12267 3042 1 109.50000 418.400000
2027 12267 11186 1 109.50000 418.400000
2027 12267 11280 1 109.50000 418.400000
3042 12267 11186 1 109.50000 418.400000
3042 12267 11280 1 109.50000 418.400000
11186 12267 11280 1 109.50000 418.400000
3043 12268 3044 1 109.50000 418.400000
3043 12268 3045 1 109.50000 418.400000
3043 12268 5380 1 109.50000 418.400000
3044 12268 3045 1 109.50000 418.400000
3044 12268 5380 1 109.50000 418.400000
3045 12268 5380 1 109.50000 418.400000
3047 12269 3048 1 109.50000 418.400000
3047 12269 11187 1 109.50000 418.400000
3047 12269 11408 1 109.50000 418.400000
3048 12269 11187 1 109.50000 418.400000
3048 12269 11408 1 109.50000 418.400000
11187 12269 11408 1 109.50000 418.400000
3049 12270 3050 1 109.50000 418.400000
3049 12270 3051 1 109.50000 418.400000
3049 12270 3052 1 109.50000 418.400000
3050 12270 3051 1 109.50000 418.400000
3050 12270 3052 1 109.50000 418.400000
3051 12270 3052 1 109.50000 418.400000
303 12271 3053 1 109.50000 418.400000
303 12271 3054 1 109.50000 418.400000
303 12271 3055 1 109.50000 418.400000
3053 12271 3054 1 109.50000 418.400000
3053 12271 3055 1 109.50000 418.400000
3054 12271 3055 1 109.50000 418.400000
918 12272 1107 1 109.50000 418.400000
918 12272 1108 1 109.50000 418.400000
918 12272 1109 1 109.50000 418.400000
1107 12272 1108 1 109.50000 418.400000
1107 12272 1109 1 109.50000 418.400000
1108 12272 1109 1 109.50000 418.400000
3058 12273 3059 1 109.50000 418.400000
3058 12273 3060 1 109.50000 418.400000
3058 12273 8970 1 109.50000 418.400000
3059 12273 3060 1 109.50000 418.400000
3059 12273 8970 1 109.50000 418.400000
3060 12273 8970 1 109.50000 418.400000
637 12274 1730 1 109.50000 418.400000
637 12274 3061 1 109.50000 418.400000
637 12274 3062 1 109.50000 418.400000
1730 12274 3061 1 109.50000 418.400000
1730 12274 3062 1 109.50000 418.400000
3061 12274 3062 1 109.50000 418.400000
3063 12275 3064 1 109.50000 418.400000
3063 12275 3065 1 109.50000 418.400000
3063 12275 3066 1 109.50000 418.400000
3064 12275 3065 1 109.50000 418.400000
3064 12275 3066 1 109.50000 418.400000
3065 12275 3066 1 109.50000 418.400000
533 12276 3067 1 109.50000 418.400000
533 12276 3068 1 109.50000 418.400000
533 12276 3069 1 109.50000 418.400000
3067 12276 3068 1 109.50000 418.400000
3067 12276 3069 1 109.50000 418.400000
3068 12276 3069 1 109.50000 418.400000
3070 12277 3071 1 109.50000 418.400000
3070 12277 3072 1 109.50000 418.400000
3070 12277 3073 1 109.50000 418.400000
3071 12277 3072 1 109.50000 418.400000
3071 12277 3073 1 109.50000 418.400000
3072 12277 3073 1 109.50000 418.400000
1917 12278 3074 1 109.50000 418.400000
1917 12278 3075 1 109.50000 418.400000
1917 12278 3076 1 109.50000 418.400000
3074 12278 3075 1 109.50000 418.400000
3074 12278 3076 1 109.50000 418.400000
3075 12278 3076 1 109.50000 418.400000
2675 12279 3077 1 109.50000 418.400000
2675 12279 3078 1 109.50000 418.400000
2675 12279 3079 1 109.50000 418.400000
3077 12279 3078 1 109.50000 418.400000
3077 12279 3079 1 109.50000 418.400000
3078 12279 3079 1 109.50000 418.400000
1316 12280 2055 1 109.50000 418.400000
1316 12280 3080 1 109.50000 418.400000
1316 12280 3081 1 109.50000 418.400000
2055 12280 3080 1 109.50000 418.400000
2055 12280 3081 1 109.50000 418.400000
3080 12280 3081 1 109.50000 418.400000
1484 12281 2302 1 109.50000 418.400000
1484 12281 3082 1 109.50000 418.400000
1484 12281 3083 1 109.50000 418.400000
2302 12281 3082 1 109.50000 418.400000
2302 12281 3083 1 109.50000 418.400000
3082 12281 3083 1 109.50000 418.400000
2060 12282 3085 1 109.50000 418.400000
2060 12282 3086 1 109.50000 418.400000
2060 12282 5909 1 109.50000 418.400000
3085 12282 3086 1 109.50000 418.400000
3085 12282 5909 1 109.50000 418.400000
3086 12282 5909 1 109.50000 418.400000
1956 12283 3087 1 109.50000 418.400000
1956 12283 3088 1 109.50000 418.400000
1956 12283 3089 1 109.50000 418.400000
3087 12283 3088 1 109.50000 418.400000
3087 12283 3089 1 109.50000 418.400000
3088 12283 3089 1 109.50000 418.400000
3090 12284 3091 1 109.50000 418.400000
3090 12284 3092 1 109.50000 418.400000
3090 12284 3093 1 109.50000 418.400000
3091 12284 3092 1 109.50000 418.400000
3091 12284 3093 1 109.50000 418.400000
3092 12284 3093 1 109.50000 418.400000
1279 12285 3094 1 109.50000 418.400000
1279 12285 3095 1 109.50000 418.400000
1279 12285 3096 1 109.50000 418.400000
3094 12285 3095 1 109.50000 418.400000
3094 12285 3096 1 109.50000 418.400000
3095 12285 3096 1 109.50000 418.400000
277 12286 3097 1 109.50000 418.400000
277 12286 3098 1 109.50000 418.400000
277 12286 3099 1 109.50000 418.400000
3097 12286 3098 1 109.50000 418.400000
3097 12286 3099 1 109.50000 418.400000
3098 12286 3099 1 109.50000 418.400000
64 12287 3100 1 109.50000 418.400000
64 12287 3101 1 109.50000 418.400000
64 12287 9283 1 109.50000 418.400000
3100 12287 3101 1 109.50000 418.400000
3100 12287 9283 1 109.50000 418.400000
3101 12287 9283 1 109.50000 418.400000
2272 12288 2878 1 109.50000 418.400000
2272 12288 3102 1 109.50000 418.400000
2272 12288 3103 1 109.50000 418.400000
2878 12288 3102 1 109.50000 418.400000
2878 12288 3103 1 109.50000 418.400000
3102 12288 3103 1 109.50000 418.400000
440 12289 3109 1 109.50000 418.400000
440 12289 10195 1 109.50000 418.400000
440 12289 11292 1 109.50000 418.400000
3109 12289 10195 1 109.50000 418.400000
3109 12289 11292 1 109.50000 418.400000
10195 12289 11292 1 109.50000 418.400000
1366 12290 3110 1 109.50000 418.400000
1366 12290 3111 1 109.50000 418.400000
1366 12290 3112 1 109.50000 418.400000
3110 12290 3111 1 109.50000 418.400000
3110 12290 3112 1 109.50000 418.400000
3111 12290 3112 1 109.50000 418.400000
3113 12291 3114 1 109.50000 418.400000
3113 12291 3115 1 109.50000 418.400000
3113 12291 3116 1 109.50000 418.400000
3114 12291 3115 1 109.50000 418.400000
3114 12291 3116 1 109.50000 418.400000
3115 12291 3116 1 109.50000 418.400000
2659 12292 2935 1 109.50000 418.400000
2659 12292 3117 1 109.50000 418.400000
2659 12292 3118 1 109.50000 418.400000
2935 12292 3117 1 109.50000 418.400000
2935 12292 3118 1 109.50000 418.400000
3117 12292 3118 1 109.50000 418.400000
3119 12293 3120 1 109.50000 418.400000
3119 12293 3121 1 109.50000 418.400000
3119 12293 11346 1 109.50000 418.400000
3120 12293 3121 1 109.50000 418.400000
3120 12293 11346 1 109.50000 418.400000
3121 12293 11346 1 109.50000 418.400000
3122 12294 3123 1 109.50000 418.400000
3122 12294 3124 1 109.50000 418.400000
3122 12294 3125 1 109.50000 418.400000
3123 12294 3124 1 109.50000 418.400000
3123 12294 3125 1 109.50000 418.400000
3124 12294 3125 1 109.50000 418.400000
3126 12295 3127 1 109.50000 418.400000
3126 12295 3128 1 109.50000 418.400000
3126 12295 3129 1 109.50000 418.400000
3127 12295 3128 1 109.50000 418.400000
3127 12295 3129 1 109.50000 418.400000
3128 12295 3129 1 109.50000 418.400000
1909 12296 3130 1 109.50000 418.400000
1909 12296 3131 1 109.50000 418.400000
1909 12296 3132 1 109.50000 418.400000
3130 12296 3131 1 109.50000 418.400000
3130 12296 3132 1 109.50000 418.400000
3131 12296 3132 1 109.50000 418.400000
3134 12297 3136 1 109.50000 418.400000
3134 12297 8505 1 109.50000 418.400000
3134 12297 8506 1 109.50000 418.400000
3136 12297 8505 1 109.50000 418.400000
3136 12297 8506 1 109.50000 418.400000
8505 12297 8506 1 109.50000 418.400000
900 12298 3137 1 109.50000 418.400000
900 12298 3138 1 109.50000 418.400000
900 12298 3139 1 109.50000 418.400000
3137 12298 3138 1 109.50000 418.400000
3137 12298 3139 1 109.50000 418.400000
3138 12298 3139 1 109.50000 418.400000
3140 12299 3141 1 109.50000 418.400000
3140 12299 3142 1 109.50000 418.400000
3140 12299 3143 1 109.50000 418.400000
3141 12299 3142 1 109.50000 418.400000
3141 12299 3143 1 109.50000 418.400000
3142 12299 3143 1 109.50000 418.400000
2294 12300 3144 1 109.50000 418.400000
2294 12300 3145 1 109.50000 418.400000
2294 12300 3146 1 109.50000 418.400000
3144 12300 3145 1 109.50000 418.400000
3144 12300 3146 1 109.50000 418.400000
3145 12300 3146 1 109.50000 418.400000
3150 12301 3151 1 109.50000 418.400000
3150 12301 3152 1 109.50000 418.400000
3150 12301 3153 1 109.50000 418.400000
3151 12301 3152 1 109.50000 418.400000
3151 12301 3153 1 109.50000 418.400000
3152 12301 3153 1 109.50000 418.400000
2396 12302 3154 1 109.50000 418.400000
2396 12302 3155 1 109.50000 418.400000
2396 12302 3156 1 109.50000 418.400000
3154 12302 3155 1 109.50000 418.400000
3154 12302 3156 1 109.50000 418.400000
3155 12302 3156 1 109.50000 418.400000
3157 12303 3158 1 109.50000 418.400000
3157 12303 3159 1 109.50000 418.400000
3157 12303 3160 1 109.50000 418.400000
3158 12303 3159 1 109.50000 418.400000
3158 12303 3160 1 109.50000 418.400000
3159 12303 3160 1 109.50000 418.400000
2404 12304 3162 1 109.50000 418.400000
2404 12304 3163 1 109.50000 418.400000
2404 12304 3164 1 109.50000 418.400000
3162 12304 3163 1 109.50000 418.400000
3162 12304 3164 1 109.50000 418.400000
3163 12304 3164 1 109.50000 418.400000
3165 12305 3166 1 109.50000 418.400000
3165 12305 3167 1 109.50000 418.400000
3165 12305 3168 1 109.50000 418.400000
3166 12305 3167 1 109.50000 418.400000
3166 12305 3168 1 109.50000 418.400000
3167 12305 3168 1 109.50000 418.400000
3169 12306 3170 1 109.50000 418.400000
3169 12306 3171 1 109.50000 418.400000
3169 12306 3172 1 109.50000 418.400000
3170 12306 3171 1 109.50000 418.400000
3170 12306 3172 1 109.50000 418.400000
3171 12306 3172 1 109.50000 418.400000
3173 12307 3174 1 109.50000 418.400000
3173 12307 3175 1 109.50000 418.400000
3173 12307 3176 1 109.50000 418.400000
3174 12307 3175 1 109.50000 418.400000
3174 12307 3176 1 109.50000 418.400000
3175 12307 3176 1 109.50000 418.400000
3177 12308 3178 1 109.50000 418.400000
3177 12308 3179 1 109.50000 418.400000
3177 12308 3180 1 109.50000 418.400000
3178 12308 3179 1 109.50000 418.400000
3178 12308 3180 1 109.50000 418.400000
3179 12308 3180 1 109.50000 418.400000
52 12309 3181 1 109.50000 418.400000
52 12309 3182 1 109.50000 418.400000
52 12309 3183 1 109.50000 418.400000
3181 12309 3182 1 109.50000 418.400000
3181 12309 3183 1 109.50000 418.400000
3182 12309 3183 1 109.50000 418.400000
593 12310 3185 1 109.50000 418.400000
593 12310 3186 1 109.50000 418.400000
593 12310 3187 1 109.50000 418.400000
3185 12310 3186 1 109.50000 418.400000
3185 12310 3187 1 109.50000 418.400000
3186 12310 3187 1 109.50000 418.400000
3190 12311 3191 1 109.50000 418.400000
3190 12311 3192 1 109.50000 418.400000
3190 12311 3193 1 109.50000 418.400000
3191 12311 3192 1 109.50000 418.400000
3191 12311 3193 1 109.50000 418.400000
3192 12311 3193 1 109.50000 418.400000
1028 12312 3194 1 109.50000 418.400000
1028 12312 3195 1 109.50000 418.400000
1028 12312 3197 1 109.50000 418.400000
3194 12312 3195 1 109.50000 418.400000
3194 12312 3197 1 109.50000 418.400000
3195 12312 3197 1 109.50000 418.400000
3198 12313 3199 1 109.50000 418.400000
3198 12313 3200 1 109.50000 418.400000
3198 12313 3201 1 109.50000 418.400000
3199 12313 3200 1 109.50000 418.400000
3199 12313 3201 1 109.50000 418.400000
3200 12313 3201 1 109.50000 418.400000
3202 12314 3203 1 109.50000 418.400000
3202 12314 3204 1 109.50000 418.400000
3202 12314 3205 1 109.50000 418.400000
3203 12314 3204 1 109.50000 418.400000
3203 12314 3205 1 109.50000 418.400000
3204 12314 3205 1 109.50000 418.400000
2022 12315 3206 1 109.50000 418.400000
2022 12315 3207 1 109.50000 418.400000
2022 12315 3208 1 109.50000 418.400000
3206 12315 3207 1 109.50000 418.400000
3206 12315 3208 1 109.50000 418.400000
3207 12315 3208 1 109.50000 418.400000
3209 12316 3210 1 109.50000 418.400000
3209 12316 3211 1 109.50000 418.400000
3209 12316 3212 1 109.50000 418.400000
3210 12316 3211 1 109.50000 418.400000
3210 12316 3212 1 109.50000 418.400000
3211 12316 3212 1 109.50000 418.400000
2880 12317 3213 1 109.50000 418.400000
2880 12317 3215 1 109.50000 418.400000
2880 12317 3450 1 109.50000 418.400000
3213 12317 3215 1 109.50000 418.400000
3213 12317 3450 1 109.50000 418.400000
3215 12317 3450 1 109.50000 418.400000
1602 12318 3216 1 109.50000 418.400000
1602 12318 3217 1 109.50000 418.400000
1602 12318 3218 1 109.50000 418.400000
3216 12318 3217 1 109.50000 418.400000
3216 12318 3218 1 109.50000 418.400000
3217 12318 3218 1 109.50000 418.400000
3219 12319 3220 1 109.50000 418.400000
3219 12319 3221 1 109.50000 418.400000
3219 12319 3222 1 109.50000 418.400000
3220 12319 3221 1 109.50000 418.400000
3220 12319 3222 1 109.50000 418.400000
3221 12319 3222 1 109.50000 418.400000
3225 12320 3226 1 109.50000 418.400000
3225 12320 3227 1 109.50000 418.400000
3225 12320 3228 1 109.50000 418.400000
3226 12320 3227 1 109.50000 418.400000
3226 12320 3228 1 109.50000 418.400000
3227 12320 3228 1 109.50000 418.400000
3229 12321 3230 1 109.50000 418.400000
3229 12321 3231 1 109.50000 418.400000
3229 12321 3232 1 109.50000 418.400000
3230 12321 3231 1 109.50000 418.400000
3230 12321 3232 1 109.50000 418.400000
3231 12321 3232 1 109.50000 418.400000
1357 12322 1359 1 109.50000 418.400000
1357 12322 1360 1 109.50000 418.400000
1357 12322 3233 1 109.50000 418.400000
1359 12322 1360 1 109.50000 418.400000
1359 12322 3233 1 109.50000 418.400000
1360 12322 3233 1 109.50000 418.400000
3236 12323 3237 1 109.50000 418.400000
3236 12323 3238 1 109.50000 418.400000
3236 12323 3239 1 109.50000 418.400000
3237 12323 3238 1 109.50000 418.400000
3237 12323 3239 1 109.50000 418.400000
3238 12323 3239 1 109.50000 418.400000
3240 12324 3241 1 109.50000 418.400000
3240 12324 3242 1 109.50000 418.400000
3240 12324 8115 1 109.50000 418.400000
3241 12324 3242 1 109.50000 418.400000
3241 12324 8115 1 109.50000 418.400000
3242 12324 8115 1 109.50000 418.400000
3093 12325 3243 1 109.50000 418.400000
3093 12325 3244 1 109.50000 418.400000
3093 12325 3245 1 109.50000 418.400000
3243 12325 3244 1 109.50000 418.400000
3243 12325 3245 1 109.50000 418.400000
3244 12325 3245 1 109.50000 418.400000
3246 12326 3247 1 109.50000 418.400000
3246 12326 3248 1 109.50000 418.400000
3246 12326 3249 1 109.50000 418.400000
3247 12326 3248 1 109.50000 418.400000
3247 12326 3249 1 109.50000 418.400000
3248 12326 3249 1 109.50000 418.400000
1492 12327 3250 1 109.50000 418.400000
1492 12327 3251 1 109.50000 418.400000
1492 12327 3252 1 109.50000 418.400000
3250 12327 3251 1 109.50000 418.400000
3250 12327 3252 1 109.50000 418.400000
3251 12327 3252 1 109.50000 418.400000
139 12328 3253 1 109.50000 418.400000
139 12328 3254 1 109.50000 418.400000
139 12328 3255 1 109.50000 418.400000
3253 12328 3254 1 109.50000 418.400000
3253 12328 3255 1 109.50000 418.400000
3254 12328 3255 1 109.50000 418.400000
3256 12329 3257 1 109.50000 418.400000
3256 12329 3258 1 109.50000 418.400000
3256 12329 3259 1 109.50000 418.400000
3257 12329 3258 1 109.50000 418.400000
3257 12329 3259 1 109.50000 418.400000
3258 12329 3259 1 109.50000 418.400000
3260 12330 3261 1 109.50000 418.400000
3260 12330 3262 1 109.50000 418.400000
3260 12330 3263 1 109.50000 418.400000
3261 12330 3262 1 109.50000 418.400000
3261 12330 3263 1 109.50000 418.400000
3262 12330 3263 1 109.50000 418.400000
2707 12331 3217 1 109.50000 418.400000
2707 12331 3222 1 109.50000 418.400000
2707 12331 3264 1 109.50000 418.400000
3217 12331 3222 1 109.50000 418.400000
3217 12331 3264 1 109.50000 418.400000
3222 12331 3264 1 109.50000 418.400000
3265 12332 3266 1 109.50000 418.400000
3265 12332 3267 1 109.50000 418.400000
3265 12332 3268 1 109.50000 418.400000
3266 12332 3267 1 109.50000 418.400000
3266 12332 3268 1 109.50000 418.400000
3267 12332 3268 1 109.50000 418.400000
3269 12333 3270 1 109.50000 418.400000
3269 12333 3271 1 109.50000 418.400000
3269 12333 3272 1 109.50000 418.400000
3270 12333 3271 1 109.50000 418.400000
3270 12333 3272 1 109.50000 418.400000
3271 12333 3272 1 109.50000 418.400000
3273 12334 3274 1 109.50000 418.400000
3273 12334 3275 1 109.50000 418.400000
3273 12334 3276 1 109.50000 418.400000
3274 12334 3275 1 109.50000 418.400000
3274 12334 3276 1 109.50000 418.400000
3275 12334 3276 1 109.50000 418.400000
983 12335 2334 1 109.50000 418.400000
983 12335 3277 1 109.50000 418.400000
983 12335 3278 1 109.50000 418.400000
2334 12335 3277 1 109.50000 418.400000
2334 12335 3278 1 109.50000 418.400000
3277 12335 3278 1 109.50000 418.400000
1301 12336 3279 1 109.50000 418.400000
1301 12336 3280 1 109.50000 418.400000
1301 12336 3281 1 109.50000 418.400000
3279 12336 3280 1 109.50000 418.400000
3279 12336 3281 1 109.50000 418.400000
3280 12336 3281 1 109.50000 418.400000
146 12337 3282 1 109.50000 418.400000
146 12337 3283 1 109.50000 418.400000
146 12337 11208 1 109.50000 418.400000
3282 12337 3283 1 109.50000 418.400000
3282 12337 11208 1 109.50000 418.400000
3283 12337 11208 1 109.50000 418.400000
1671 12338 1764 1 109.50000 418.400000
1671 12338 3286 1 109.50000 418.400000
1671 12338 3287 1 109.50000 418.400000
1764 12338 3286 1 109.50000 418.400000
1764 12338 3287 1 109.50000 418.400000
3286 12338 3287 1 109.50000 418.400000
1409 12339 3288 1 109.50000 418.400000
1409 12339 3289 1 109.50000 418.400000
1409 12339 3290 1 109.50000 418.400000
3288 12339 3289 1 109.50000 418.400000
3288 12339 3290 1 109.50000 418.400000
3289 12339 3290 1 109.50000 418.400000
3292 12340 3293 1 109.50000 418.400000
3292 12340 3294 1 109.50000 418.400000
3292 12340 5550 1 109.50000 418.400000
3293 12340 3294 1 109.50000 418.400000
3293 12340 5550 1 109.50000 418.400000
3294 12340 5550 1 109.50000 418.400000
3167 12341 3295 1 109.50000 418.400000
3167 12341 3296 1 109.50000 418.400000
3167 12341 3297 1 109.50000 418.400000
3295 12341 3296 1 109.50000 418.400000
3295 12341 3297 1 109.50000 418.400000
3296 12341 3297 1 109.50000 418.400000
3299 12342 3300 1 109.50000 418.400000
3299 12342 3301 1 109.50000 418.400000
3299 12342 6492 1 109.50000 418.400000
3300 12342 3301 1 109.50000 418.400000
3300 12342 6492 1 109.50000 418.400000
3301 12342 6492 1 109.50000 418.400000
3305 12343 3306 1 109.50000 418.400000
3305 12343 3307 1 109.50000 418.400000
3305 12343 3308 1 109.50000 418.400000
3306 12343 3307 1 109.50000 418.400000
3306 12343 3308 1 109.50000 418.400000
3307 12343 3308 1 109.50000 418.400000
3309 12344 3310 1 109.50000 418.400000
3309 12344 3311 1 109.50000 418.400000
3309 12344 3312 1 109.50000 418.400000
3310 12344 3311 1 109.50000 418.400000
3310 12344 3312 1 109.50000 418.400000
3311 12344 3312 1 109.50000 418.400000
3313 12345 3314 1 109.50000 418.400000
3313 12345 3315 1 109.50000 418.400000
3313 12345 3316 1 109.50000 418.400000
3314 12345 3315 1 109.50000 418.400000
3314 12345 3316 1 109.50000 418.400000
3315 12345 3316 1 109.50000 418.400000
333 12346 3317 1 109.50000 418.400000
333 12346 3318 1 109.50000 418.400000
333 12346 3319 1 109.50000 418.400000
3317 12346 3318 1 109.50000 418.400000
3317 12346 3319 1 109.50000 418.400000
3318 12346 3319 1 109.50000 418.400000
3152 12347 3320 1 109.50000 418.400000
3152 12347 3321 1 109.50000 418.400000
3152 12347 3322 1 109.50000 418.400000
3320 12347 3321 1 109.50000 418.400000
3320 12347 3322 1 109.50000 418.400000
3321 12347 3322 1 109.50000 418.400000
291 12348 972 1 109.50000 418.400000
291 12348 3323 1 109.50000 418.400000
291 12348 3324 1 109.50000 418.400000
972 12348 3323 1 109.50000 418.400000
972 12348 3324 1 109.50000 418.400000
3323 12348 3324 1 109.50000 418.400000
3325 12349 3326 1 109.50000 418.400000
3325 12349 3327 1 109.50000 418.400000
3325 12349 9134 1 109.50000 418.400000
3326 12349 3327 1 109.50000 418.400000
3326 12349 9134 1 109.50000 418.400000
3327 12349 9134 1 109.50000 418.400000
3329 12350 3330 1 109.50000 418.400000
3329 12350 3331 1 109.50000 418.400000
3329 12350 3332 1 109.50000 418.400000
3330 12350 3331 1 109.50000 418.400000
3330 12350 3332 1 109.50000 418.400000
3331 12350 3332 1 109.50000 418.400000
1980 12351 3336 1 109.50000 418.400000
1980 12351 3337 1 109.50000 418.400000
1980 12351 11143 1 109.50000 418.400000
3336 12351 3337 1 109.50000 418.400000
3336 12351 11143 1 109.50000 418.400000
3337 12351 11143 1 109.50000 418.400000
801 12352 3338 1 109.50000 418.400000
801 12352 3339 1 109.50000 418.400000
801 12352 11336 1 109.50000 418.400000
3338 12352 3339 1 109.50000 418.400000
3338 12352 11336 1 109.50000 418.400000
3339 12352 11336 1 109.50000 418.400000
3340 12353 3341 1 109.50000 418.400000
3340 12353 3342 1 109.50000 418.400000
3340 12353 3343 1 109.50000 418.400000
3341 12353 3342 1 109.50000 418.400000
3341 12353 3343 1 109.50000 418.400000
3342 12353 3343 1 109.50000 418.400000
3344 12354 3345 1 109.50000 418.400000
3344 12354 3346 1 109.50000 418.400000
3344 12354 3347 1 109.50000 418.400000
3345 12354 3346 1 109.50000 418.400000
3345 12354 3347 1 109.50000 418.400000
3346 12354 3347 1 109.50000 418.400000
1502 12355 3348 1 109.50000 418.400000
1502 12355 3349 1 109.50000 418.400000
1502 12355 3350 1 109.50000 418.400000
3348 12355 3349 1 109.50000 418.400000
3348 12355 3350 1 109.50000 418.400000
3349 12355 3350 1 109.50000 418.400000
2919 12356 3354 1 109.50000 418.400000
2919 12356 3355 1 109.50000 418.400000
2919 12356 3356 1 109.50000 418.400000
3354 12356 3355 1 109.50000 418.400000
3354 12356 3356 1 109.50000 418.400000
3355 12356 3356 1 109.50000 418.400000
3358 12357 3359 1 109.50000 418.400000
3358 12357 3360 1 109.50000 418.400000
3358 12357 3739 1 109.50000 418.400000
3359 12357 3360 1 109.50000 418.400000
3359 12357 3739 1 109.50000 418.400000
3360 12357 3739 1 109.50000 418.400000
3038 12358 3361 1 109.50000 418.400000
3038 12358 3362 1 109.50000 418.400000
3038 12358 3363 1 109.50000 418.400000
3361 12358 3362 1 109.50000 418.400000
3361 12358 3363 1 109.50000 418.400000
3362 12358 3363 1 109.50000 418.400000
1406 12359 3364 1 109.50000 418.400000
1406 12359 3365 1 109.50000 418.400000
1406 12359 3367 1 109.50000 418.400000
3364 12359 3365 1 109.50000 418.400000
3364 12359 3367 1 109.50000 418.400000
3365 12359 3367 1 109.50000 418.400000
1574 12360 3368 1 109.50000 418.400000
1574 12360 3369 1 109.50000 418.400000
1574 12360 3370 1 109.50000 418.400000
3368 12360 3369 1 109.50000 418.400000
3368 12360 3370 1 109.50000 418.400000
3369 12360 3370 1 109.50000 418.400000
3372 12361 3373 1 109.50000 418.400000
3372 12361 3374 1 109.50000 418.400000
3372 12361 3375 1 109.50000 418.400000
3373 12361 3374 1 109.50000 418.400000
3373 12361 3375 1 109.50000 418.400000
3374 12361 3375 1 109.50000 418.400000
3381 12362 3382 1 109.50000 418.400000
3381 12362 3383 1 109.50000 418.400000
3381 12362 3384 1 109.50000 418.400000
3382 12362 3383 1 109.50000 418.400000
3382 12362 3384 1 109.50000 418.400000
3383 12362 3384 1 109.50000 418.400000
3388 12363 3389 1 109.50000 418.400000
3388 12363 3390 1 109.50000 418.400000
3388 12363 3391 1 109.50000 418.400000
3389 12363 3390 1 109.50000 418.400000
3389 12363 3391 1 109.50000 418.400000
3390 12363 3391 1 109.50000 418.400000
3392 12364 3393 1 109.50000 418.400000
3392 12364 3394 1 109.50000 418.400000
3392 12364 3395 1 109.50000 418.400000
3393 12364 3394 1 109.50000 418.400000
3393 12364 3395 1 109.50000 418.400000
3394 12364 3395 1 109.50000 418.400000
513 12365 3396 1 109.50000 418.400000
513 12365 3397 1 109.50000 418.400000
513 12365 3398 1 109.50000 418.400000
3396 12365 3397 1 109.50000 418.400000
3396 12365 3398 1 109.50000 418.400000
3397 12365 3398 1 109.50000 418.400000
588 12366 3399 1 109.50000 418.400000
588 12366 3400 1 109.50000 418.400000
588 12366 3401 1 109.50000 418.400000
3399 12366 3400 1 109.50000 418.400000
3399 12366 3401 1 109.50000 418.400000
3400 12366 3401 1 109.50000 418.400000
3402 12367 3403 1 109.50000 418.400000
3402 12367 3404 1 109.50000 418.400000
3402 12367 3405 1 109.50000 418.400000
3403 12367 3404 1 109.50000 418.400000
3403 12367 3405 1 109.50000 418.400000
3404 12367 3405 1 109.50000 418.400000
26 12368 2286 1 109.50000 418.400000
26 12368 3213 1 109.50000 418.400000
26 12368 3406 1 109.50000 418.400000
2286 12368 3213 1 109.50000 418.400000
2286 12368 3406 1 109.50000 418.400000
3213 12368 3406 1 109.50000 418.400000
524 12369 3408 1 109.50000 418.400000
524 12369 3409 1 109.50000 418.400000
524 12369 4419 1 109.50000 418.400000
3408 12369 3409 1 109.50000 418.400000
3408 12369 4419 1 109.50000 418.400000
3409 12369 4419 1 109.50000 418.400000
3410 12370 3411 1 109.50000 418.400000
3410 12370 3412 1 109.50000 418.400000
3410 12370 3413 1 109.50000 418.400000
3411 12370 3412 1 109.50000 418.400000
3411 12370 3413 1 109.50000 418.400000
3412 12370 3413 1 109.50000 418.400000
1284 12371 3414 1 109.50000 418.400000
1284 12371 3416 1 109.50000 418.400000
1284 12371 5927 1 109.50000 418.400000
3414 12371 3416 1 109.50000 418.400000
3414 12371 5927 1 109.50000 418.400000
3416 12371 5927 1 109.50000 418.400000
3420 12372 3421 1 109.50000 418.400000
3420 12372 3422 1 109.50000 418.400000
3420 12372 3423 1 109.50000 418.400000
3421 12372 3422 1 109.50000 418.400000
3421 12372 3423 1 109.50000 418.400000
3422 12372 3423 1 109.50000 418.400000
11 12373 3424 1 109.50000 418.400000
11 12373 3425 1 109.50000 418.400000
11 12373 11206 1 109.50000 418.400000
3424 12373 3425 1 109.50000 418.400000
3424 12373 11206 1 109.50000 418.400000
3425 12373 11206 1 109.50000 418.400000
3426 12374 3427 1 109.50000 418.400000
3426 12374 3428 1 109.50000 418.400000
3426 12374 3429 1 109.50000 418.400000
3427 12374 3428 1 109.50000 418.400000
3427 12374 3429 1 109.50000 418.400000
3428 12374 3429 1 109.50000 418.400000
3023 12375 3132 1 109.50000 418.400000
3023 12375 3432 1 109.50000 418.400000
3023 12375 3433 1 109.50000 418.400000
3132 12375 3432 1 109.50000 418.400000
3132 12375 3433 1 109.50000 418.400000
3432 12375 3433 1 109.50000 418.400000
3435 12376 3436 1 109.50000 418.400000
3435 12376 3437 1 109.50000 418.400000
3435 12376 3438 1 109.50000 418.400000
3436 12376 3437 1 109.50000 418.400000
3436 12376 3438 1 109.50000 418.400000
3437 12376 3438 1 109.50000 418.400000
3439 12377 3440 1 109.50000 418.400000
3439 12377 3441 1 109.50000 418.400000
3439 12377 3442 1 109.50000 418.400000
3440 12377 3441 1 109.50000 418.400000
3440 12377 3442 1 109.50000 418.400000
3441 12377 3442 1 109.50000 418.400000
2513 12378 2832 1 109.50000 418.400000
2513 12378 3374 1 109.50000 418.400000
2513 12378 3443 1 109.50000 418.400000
2832 12378 3374 1 109.50000 418.400000
2832 12378 3443 1 109.50000 418.400000
3374 12378 3443 1 109.50000 418.400000
3444 12379 3445 1 109.50000 418.400000
3444 12379 3446 1 109.50000 418.400000
3444 12379 3447 1 109.50000 418.400000
3445 12379 3446 1 109.50000 418.400000
3445 12379 3447 1 109.50000 418.400000
3446 12379 3447 1 109.50000 418.400000
3448 12380 3449 1 109.50000 418.400000
3448 12380 3450 1 109.50000 418.400000
3448 12380 3451 1 109.50000 418.400000
3449 12380 3450 1 109.50000 418.400000
3449 12380 3451 1 109.50000 418.400000
3450 12380 3451 1 109.50000 418.400000
56 12381 2671 1 109.50000 418.400000
56 12381 3452 1 109.50000 418.400000
56 12381 3453 1 109.50000 418.400000
2671 12381 3452 1 109.50000 418.400000
2671 12381 3453 1 109.50000 418.400000
3452 12381 3453 1 109.50000 418.400000
1571 12382 3454 1 109.50000 418.400000
1571 12382 3455 1 109.50000 418.400000
1571 12382 3456 1 109.50000 418.400000
3454 12382 3455 1 109.50000 418.400000
3454 12382 3456 1 109.50000 418.400000
3455 12382 3456 1 109.50000 418.400000
1439 12383 1472 1 109.50000 418.400000
1439 12383 3457 1 109.50000 418.400000
1439 12383 3459 1 109.50000 418.400000
1472 12383 3457 1 109.50000 418.400000
1472 12383 3459 1 109.50000 418.400000
3457 12383 3459 1 109.50000 418.400000
3460 12384 3461 1 109.50000 418.400000
3460 12384 3462 1 109.50000 418.400000
3460 12384 3463 1 109.50000 418.400000
3461 12384 3462 1 109.50000 418.400000
3461 12384 3463 1 109.50000 418.400000
3462 12384 3463 1 109.50000 418.400000
3464 12385 3465 1 109.50000 418.400000
3464 12385 3466 1 109.50000 418.400000
3464 12385 3467 1 109.50000 418.400000
3465 12385 3466 1 109.50000 418.400000
3465 12385 3467 1 109.50000 418.400000
3466 12385 3467 1 109.50000 418.400000
2460 12386 3468 1 109.50000 418.400000
2460 12386 3469 1 109.50000 418.400000
2460 12386 3470 1 109.50000 418.400000
3468 12386 3469 1 109.50000 418.400000
3468 12386 3470 1 109.50000 418.400000
3469 12386 3470 1 109.50000 418.400000
3471 12387 3472 1 109.50000 418.400000
3471 12387 3473 1 109.50000 418.400000
3471 12387 3474 1 109.50000 418.400000
3472 12387 3473 1 109.50000 418.400000
3472 12387 3474 1 109.50000 418.400000
3473 12387 3474 1 109.50000 418.400000
2365 12388 3434 1 109.50000 418.400000
2365 12388 3475 1 109.50000 418.400000
2365 12388 3476 1 109.50000 418.400000
3434 12388 3475 1 109.50000 418.400000
3434 12388 3476 1 109.50000 418.400000
3475 12388 3476 1 109.50000 418.400000
3480 12389 3481 1 109.50000 418.400000
3480 12389 3482 1 109.50000 418.400000
3480 12389 3483 1 109.50000 418.400000
3481 12389 3482 1 109.50000 418.400000
3481 12389 3483 1 109.50000 418.400000
3482 12389 3483 1 109.50000 418.400000
784 12390 2738 1 109.50000 418.400000
784 12390 3484 1 109.50000 418.400000
784 12390 3485 1 109.50000 418.400000
2738 12390 3484 1 109.50000 418.400000
2738 12390 3485 1 109.50000 418.400000
3484 12390 3485 1 109.50000 418.400000
3486 12391 3487 1 109.50000 418.400000
3486 12391 3488 1 109.50000 418.400000
3486 12391 11362 1 109.50000 418.400000
3487 12391 3488 1 109.50000 418.400000
3487 12391 11362 1 109.50000 418.400000
3488 12391 11362 1 109.50000 418.400000
729 12392 3489 1 109.50000 418.400000
729 12392 3490 1 109.50000 418.400000
729 12392 3491 1 109.50000 418.400000
3489 12392 3490 1 109.50000 418.400000
3489 12392 3491 1 109.50000 418.400000
3490 12392 3491 1 109.50000 418.400000
3495 12393 3496 1 109.50000 418.400000
3495 12393 3497 1 109.50000 418.400000
3495 12393 3498 1 109.50000 418.400000
3496 12393 3497 1 109.50000 418.400000
3496 12393 3498 1 109.50000 418.400000
3497 12393 3498 1 109.50000 418.400000
3499 12394 3500 1 109.50000 418.400000
3499 12394 3501 1 109.50000 418.400000
3499 12394 3502 1 109.50000 418.400000
3500 12394 3501 1 109.50000 418.400000
3500 12394 3502 1 109.50000 418.400000
3501 12394 3502 1 109.50000 418.400000
1565 12395 3503 1 109.50000 418.400000
1565 12395 3504 1 109.50000 418.400000
1565 12395 3505 1 109.50000 418.400000
3503 12395 3504 1 109.50000 418.400000
3503 12395 3505 1 109.50000 418.400000
3504 12395 3505 1 109.50000 418.400000
3506 12396 3507 1 109.50000 418.400000
3506 12396 3508 1 109.50000 418.400000
3506 12396 3509 1 109.50000 418.400000
3507 12396 3508 1 109.50000 418.400000
3507 12396 3509 1 109.50000 418.400000
3508 12396 3509 1 109.50000 418.400000
3510 12397 3511 1 109.50000 418.400000
3510 12397 3512 1 109.50000 418.400000
3510 12397 3513 1 109.50000 418.400000
3511 12397 3512 1 109.50000 418.400000
3511 12397 3513 1 109.50000 418.400000
3512 12397 3513 1 109.50000 418.400000
3214 12398 3215 1 109.50000 418.400000
3214 12398 3514 1 109.50000 418.400000
3214 12398 3515 1 109.50000 418.400000
3215 12398 3514 1 109.50000 418.400000
3215 12398 3515 1 109.50000 418.400000
3514 12398 3515 1 109.50000 418.400000
267 12399 3516 1 109.50000 418.400000
267 12399 3517 1 109.50000 418.400000
267 12399 9304 1 109.50000 418.400000
3516 12399 3517 1 109.50000 418.400000
3516 12399 9304 1 109.50000 418.400000
3517 12399 9304 1 109.50000 418.400000
903 12400 3518 1 109.50000 418.400000
903 12400 3519 1 109.50000 418.400000
903 12400 3520 1 109.50000 418.400000
3518 12400 3519 1 109.50000 418.400000
3518 12400 3520 1 109.50000 418.400000
3519 12400 3520 1 109.50000 418.400000
3521 12401 3522 1 109.50000 418.400000
3521 12401 3523 1 109.50000 418.400000
3521 12401 3524 1 109.50000 418.400000
3522 12401 3523 1 109.50000 418.400000
3522 12401 3524 1 109.50000 418.400000
3523 12401 3524 1 109.50000 418.400000
3525 12402 3526 1 109.50000 418.400000
3525 12402 3527 1 109.50000 418.400000
3525 12402 11399 1 109.50000 418.400000
3526 12402 3527 1 109.50000 418.400000
3526 12402 11399 1 109.50000 418.400000
3527 12402 11399 1 109.50000 418.400000
219 12403 3528 1 109.50000 418.400000
219 12403 3529 1 109.50000 418.400000
219 12403 3530 1 109.50000 418.400000
3528 12403 3529 1 109.50000 418.400000
3528 12403 3530 1 109.50000 418.400000
3529 12403 3530 1 109.50000 418.400000
3531 12404 3532 1 109.50000 418.400000
3531 12404 3533 1 109.50000 418.400000
3531 12404 3534 1 109.50000 418.400000
3532 12404 3533 1 109.50000 418.400000
3532 12404 3534 1 109.50000 418.400000
3533 12404 3534 1 109.50000 418.400000
720 12405 3535 1 109.50000 418.400000
720 12405 3536 1 109.50000 418.400000
720 12405 3537 1 109.50000 418.400000
3535 12405 3536 1 109.50000 418.400000
3535 12405 3537 1 109.50000 418.400000
3536 12405 3537 1 109.50000 418.400000
3538 12406 3539 1 109.50000 418.400000
3538 12406 3540 1 109.50000 418.400000
3538 12406 3541 1 109.50000 418.400000
3539 12406 3540 1 109.50000 418.400000
3539 12406 3541 1 109.50000 418.400000
3540 12406 3541 1 109.50000 418.400000
3542 12407 3543 1 109.50000 418.400000
3542 12407 3544 1 109.50000 418.400000
3542 12407 3545 1 109.50000 418.400000
3543 12407 3544 1 109.50000 418.400000
3543 12407 3545 1 109.50000 418.400000
3544 12407 3545 1 109.50000 418.400000
1743 12408 3546 1 109.50000 418.400000
1743 12408 3547 1 109.50000 418.400000
1743 12408 3548 1 109.50000 418.400000
3546 12408 3547 1 109.50000 418.400000
3546 12408 3548 1 109.50000 418.400000
3547 12408 3548 1 109.50000 418.400000
3549 12409 3550 1 109.50000 418.400000
3549 12409 3551 1 109.50000 418.400000
3549 12409 3552 1 109.50000 418.400000
3550 12409 3551 1 109.50000 418.400000
3550 12409 3552 1 109.50000 418.400000
3551 12409 3552 1 109.50000 418.400000
1886 12410 2850 1 109.50000 418.400000
1886 12410 3553 1 109.50000 418.400000
1886 12410 3554 1 109.50000 418.400000
2850 12410 3553 1 109.50000 418.400000
2850 12410 3554 1 109.50000 418.400000
3553 12410 3554 1 109.50000 418.400000
3555 12411 3556 1 109.50000 418.400000
3555 12411 3557 1 109.50000 418.400000
3555 12411 3558 1 109.50000 418.400000
3556 12411 3557 1 109.50000 418.400000
3556 12411 3558 1 109.50000 418.400000
3557 12411 3558 1 109.50000 418.400000
3563 12412 3564 1 109.50000 418.400000
3563 12412 6283 1 109.50000 418.400000
3563 12412 10332 1 109.50000 418.400000
3564 12412 6283 1 109.50000 418.400000
3564 12412 10332 1 109.50000 418.400000
6283 12412 10332 1 109.50000 418.400000
3571 12413 3572 1 109.50000 418.400000
3571 12413 3573 1 109.50000 418.400000
3571 12413 3574 1 109.50000 418.400000
3572 12413 3573 1 109.50000 418.400000
3572 12413 3574 1 109.50000 418.400000
3573 12413 3574 1 109.50000 418.400000
745 12414 3455 1 109.50000 418.400000
745 12414 3575 1 109.50000 418.400000
745 12414 3576 1 109.50000 418.400000
3455 12414 3575 1 109.50000 418.400000
3455 12414 3576 1 109.50000 418.400000
3575 12414 3576 1 109.50000 418.400000
1648 12415 1649 1 109.50000 418.400000
1648 12415 3578 1 109.50000 418.400000
1648 12415 3579 1 109.50000 418.400000
1649 12415 3578 1 109.50000 418.400000
1649 12415 3579 1 109.50000 418.400000
3578 12415 3579 1 109.50000 418.400000
3002 12416 3580 1 109.50000 418.400000
3002 12416 3581 1 109.50000 418.400000
3002 12416 3582 1 109.50000 418.400000
3580 12416 3581 1 109.50000 418.400000
3580 12416 3582 1 109.50000 418.400000
3581 12416 3582 1 109.50000 418.400000
755 12417 2127 1 109.50000 418.400000
755 12417 3436 1 109.50000 418.400000
755 12417 3583 1 109.50000 418.400000
2127 12417 3436 1 109.50000 418.400000
2127 12417 3583 1 109.50000 418.400000
3436 12417 3583 1 109.50000 418.400000
286 12418 3584 1 109.50000 418.400000
286 12418 3585 1 109.50000 418.400000
286 12418 3586 1 109.50000 418.400000
3584 12418 3585 1 109.50000 418.400000
3584 12418 3586 1 109.50000 418.400000
3585 12418 3586 1 109.50000 418.400000
3588 12419 3589 1 109.50000 418.400000
3588 12419 3590 1 109.50000 418.400000
3588 12419 5393 1 109.50000 418.400000
3589 12419 3590 1 109.50000 418.400000
3589 12419 5393 1 109.50000 418.400000
3590 12419 5393 1 109.50000 418.400000
3591 12420 3592 1 109.50000 418.400000
3591 12420 3593 1 109.50000 418.400000
3591 12420 3594 1 109.50000 418.400000
3592 12420 3593 1 109.50000 418.400000
3592 12420 3594 1 109.50000 418.400000
3593 12420 3594 1 109.50000 418.400000
2446 12421 3595 1 109.50000 418.400000
2446 12421 3596 1 109.50000 418.400000
2446 12421 3597 1 109.50000 418.400000
3595 12421 3596 1 109.50000 418.400000
3595 12421 3597 1 109.50000 418.400000
3596 12421 3597 1 109.50000 418.400000
644 12422 3598 1 109.50000 418.400000
644 12422 3599 1 109.50000 418.400000
644 12422 3600 1 109.50000 418.400000
3598 12422 3599 1 109.50000 418.400000
3598 12422 3600 1 109.50000 418.400000
3599 12422 3600 1 109.50000 418.400000
612 12423 3602 1 109.50000 418.400000
612 12423 3603 1 109.50000 418.400000
612 12423 3604 1 109.50000 418.400000
3602 12423 3603 1 109.50000 418.400000
3602 12423 3604 1 109.50000 418.400000
3603 12423 3604 1 109.50000 418.400000
3605 12424 3606 1 109.50000 418.400000
3605 12424 3607 1 109.50000 418.400000
3605 12424 3608 1 109.50000 418.400000
3606 12424 3607 1 109.50000 418.400000
3606 12424 3608 1 109.50000 418.400000
3607 12424 3608 1 109.50000 418.400000
3609 12425 3610 1 109.50000 418.400000
3609 12425 3611 1 109.50000 418.400000
3609 12425 3612 1 109.50000 418.400000
3610 12425 3611 1 109.50000 418.400000
3610 12425 3612 1 109.50000 418.400000
3611 12425 3612 1 109.50000 418.400000
3613 12426 3614 1 109.50000 418.400000
3613 12426 3615 1 109.50000 418.400000
3613 12426 3616 1 109.50000 418.400000
3614 12426 3615 1 109.50000 418.400000
3614 12426 3616 1 109.50000 418.400000
3615 12426 3616 1 109.50000 418.400000
1499 12427 1500 1 109.50000 418.400000
1499 12427 3618 1 109.50000 418.400000
1499 12427 3619 1 109.50000 418.400000
1500 12427 3618 1 109.50000 418.400000
1500 12427 3619 1 109.50000 418.400000
3618 12427 3619 1 109.50000 418.400000
855 12428 3620 1 109.50000 418.400000
855 12428 3621 1 109.50000 418.400000
855 12428 3622 1 109.50000 418.400000
3620 12428 3621 1 109.50000 418.400000
3620 12428 3622 1 109.50000 418.400000
3621 12428 3622 1 109.50000 418.400000
3623 12429 3624 1 109.50000 418.400000
3623 12429 3626 1 109.50000 418.400000
3623 12429 6768 1 109.50000 418.400000
3624 12429 3626 1 109.50000 418.400000
3624 12429 6768 1 109.50000 418.400000
3626 12429 6768 1 109.50000 418.400000
1939 12430 3627 1 109.50000 418.400000
1939 12430 11196 1 109.50000 418.400000
1939 12430 11388 1 109.50000 418.400000
3627 12430 11196 1 109.50000 418.400000
3627 12430 11388 1 109.50000 418.400000
11196 12430 11388 1 109.50000 418.400000
543 12431 3629 1 109.50000 418.400000
543 12431 3631 1 109.50000 418.400000
543 12431 7820 1 109.50000 418.400000
3629 12431 3631 1 109.50000 418.400000
3629 12431 7820 1 109.50000 418.400000
3631 12431 7820 1 109.50000 418.400000
669 12432 3632 1 109.50000 418.400000
669 12432 3633 1 109.50000 418.400000
669 12432 3634 1 109.50000 418.400000
3632 12432 3633 1 109.50000 418.400000
3632 12432 3634 1 109.50000 418.400000
3633 12432 3634 1 109.50000 418.400000
641 12433 1555 1 109.50000 418.400000
641 12433 3636 1 109.50000 418.400000
641 12433 3637 1 109.50000 418.400000
1555 12433 3636 1 109.50000 418.400000
1555 12433 3637 1 109.50000 418.400000
3636 12433 3637 1 109.50000 418.400000
3638 12434 3639 1 109.50000 418.400000
3638 12434 3640 1 109.50000 418.400000
3638 12434 3641 1 109.50000 418.400000
3639 12434 3640 1 109.50000 418.400000
3639 12434 3641 1 109.50000 418.400000
3640 12434 3641 1 109.50000 418.400000
1118 12435 3642 1 109.50000 418.400000
1118 12435 3643 1 109.50000 418.400000
1118 12435 11302 1 109.50000 418.400000
3642 12435 3643 1 109.50000 418.400000
3642 12435 11302 1 109.50000 418.400000
3643 12435 11302 1 109.50000 418.400000
2584 12436 3644 1 109.50000 418.400000
2584 12436 3645 1 109.50000 418.400000
2584 12436 11266 1 109.50000 418.400000
3644 12436 3645 1 109.50000 418.400000
3644 12436 11266 1 109.50000 418.400000
3645 12436 11266 1 109.50000 418.400000
1766 12437 3646 1 109.50000 418.400000
1766 12437 3647 1 109.50000 418.400000
1766 12437 3648 1 109.50000 418.400000
3646 12437 3647 1 109.50000 418.400000
3646 12437 3648 1 109.50000 418.400000
3647 12437 3648 1 109.50000 418.400000
2436 12438 3259 1 109.50000 418.400000
2436 12438 3649 1 109.50000 418.400000
2436 12438 3650 1 109.50000 418.400000
3259 12438 3649 1 109.50000 418.400000
3259 12438 3650 1 109.50000 418.400000
3649 12438 3650 1 109.50000 418.400000
2845 12439 3651 1 109.50000 418.400000
2845 12439 3652 1 109.50000 418.400000
2845 12439 3653 1 109.50000 418.400000
3651 12439 3652 1 109.50000 418.400000
3651 12439 3653 1 109.50000 418.400000
3652 12439 3653 1 109.50000 418.400000
3654 12440 3656 1 109.50000 418.400000
3654 12440 3657 1 109.50000 418.400000
3654 12440 4332 1 109.50000 418.400000
3656 12440 3657 1 109.50000 418.400000
3656 12440 4332 1 109.50000 418.400000
3657 12440 4332 1 109.50000 418.400000
1744 12441 3658 1 109.50000 418.400000
1744 12441 3659 1 109.50000 418.400000
1744 12441 3660 1 109.50000 418.400000
3658 12441 3659 1 109.50000 418.400000
3658 12441 3660 1 109.50000 418.400000
3659 12441 3660 1 109.50000 418.400000
3032 12442 3661 1 109.50000 418.400000
3032 12442 3662 1 109.50000 418.400000
3032 12442 3663 1 109.50000 418.400000
3661 12442 3662 1 109.50000 418.400000
3661 12442 3663 1 109.50000 418.400000
3662 12442 3663 1 109.50000 418.400000
3664 12443 3665 1 109.50000 418.400000
3664 12443 3666 1 109.50000 418.400000
3664 12443 3667 1 109.50000 418.400000
3665 12443 3666 1 109.50000 418.400000
3665 12443 3667 1 109.50000 418.400000
3666 12443 3667 1 109.50000 418.400000
3668 12444 3669 1 109.50000 418.400000
3668 12444 3670 1 109.50000 418.400000
3668 12444 3671 1 109.50000 418.400000
3669 12444 3670 1 109.50000 418.400000
3669 12444 3671 1 109.50000 418.400000
3670 12444 3671 1 109.50000 418.400000
3672 12445 3673 1 109.50000 418.400000
3672 12445 3674 1 109.50000 418.400000
3672 12445 3675 1 109.50000 418.400000
3673 12445 3674 1 109.50000 418.400000
3673 12445 3675 1 109.50000 418.400000
3674 12445 3675 1 109.50000 418.400000
2216 12446 3678 1 109.50000 418.400000
2216 12446 3679 1 109.50000 418.400000
2216 12446 3680 1 109.50000 418.400000
3678 12446 3679 1 109.50000 418.400000
3678 12446 3680 1 109.50000 418.400000
3679 12446 3680 1 109.50000 418.400000
1802 12447 3274 1 109.50000 418.400000
1802 12447 3681 1 109.50000 418.400000
1802 12447 3682 1 109.50000 418.400000
3274 12447 3681 1 109.50000 418.400000
3274 12447 3682 1 109.50000 418.400000
3681 12447 3682 1 109.50000 418.400000
822 12448 3683 1 109.50000 418.400000
822 12448 3684 1 109.50000 418.400000
822 12448 3685 1 109.50000 418.400000
3683 12448 3684 1 109.50000 418.400000
3683 12448 3685 1 109.50000 418.400000
3684 12448 3685 1 109.50000 418.400000
2082 12449 2857 1 109.50000 418.400000
2082 12449 3686 1 109.50000 418.400000
2082 12449 3687 1 109.50000 418.400000
2857 12449 3686 1 109.50000 418.400000
2857 12449 3687 1 109.50000 418.400000
3686 12449 3687 1 109.50000 418.400000
2088 12450 3688 1 109.50000 418.400000
2088 12450 3689 1 109.50000 418.400000
2088 12450 3690 1 109.50000 418.400000
3688 12450 3689 1 109.50000 418.400000
3688 12450 3690 1 109.50000 418.400000
3689 12450 3690 1 109.50000 418.400000
1845 12451 3691 1 109.50000 418.400000
1845 12451 3692 1 109.50000 418.400000
1845 12451 3693 1 109.50000 418.400000
3691 12451 3692 1 109.50000 418.400000
3691 12451 3693 1 109.50000 418.400000
3692 12451 3693 1 109.50000 418.400000
3694 12452 3695 1 109.50000 418.400000
3694 12452 3696 1 109.50000 418.400000
3694 12452 3697 1 109.50000 418.400000
3695 12452 3696 1 109.50000 418.400000
3695 12452 3697 1 109.50000 418.400000
3696 12452 3697 1 109.50000 418.400000
3698 12453 3699 1 109.50000 418.400000
3698 12453 3700 1 109.50000 418.400000
3698 12453 3701 1 109.50000 418.400000
3699 12453 3700 1 109.50000 418.400000
3699 12453 3701 1 109.50000 418.400000
3700 12453 3701 1 109.50000 418.400000
950 12454 1396 1 109.50000 418.400000
950 12454 3702 1 109.50000 418.400000
950 12454 3703 1 109.50000 418.400000
1396 12454 3702 1 109.50000 418.400000
1396 12454 3703 1 109.50000 418.400000
3702 12454 3703 1 109.50000 418.400000
3704 12455 3705 1 109.50000 418.400000
3704 12455 3706 1 109.50000 418.400000
3704 12455 3707 1 109.50000 418.400000
3705 12455 3706 1 109.50000 418.400000
3705 12455 3707 1 109.50000 418.400000
3706 12455 3707 1 109.50000 418.400000
3709 12456 3710 1 109.50000 418.400000
3709 12456 3711 1 109.50000 418.400000
3709 12456 10468 1 109.50000 418.400000
3710 12456 3711 1 109.50000 418.400000
3710 12456 10468 1 109.50000 418.400000
3711 12456 10468 1 109.50000 418.400000
3712 12457 3713 1 109.50000 418.400000
3712 12457 3715 1 109.50000 418.400000
3712 12457 6794 1 109.50000 418.400000
3713 12457 3715 1 109.50000 418.400000
3713 12457 6794 1 109.50000 418.400000
3715 12457 6794 1 109.50000 418.400000
3716 12458 3717 1 109.50000 418.400000
3716 12458 3718 1 109.50000 418.400000
3716 12458 3719 1 109.50000 418.400000
3717 12458 3718 1 109.50000 418.400000
3717 12458 3719 1 109.50000 418.400000
3718 12458 3719 1 109.50000 418.400000
1004 12459 3720 1 109.50000 418.400000
1004 12459 3721 1 109.50000 418.400000
1004 12459 3722 1 109.50000 418.400000
3720 12459 3721 1 109.50000 418.400000
3720 12459 3722 1 109.50000 418.400000
3721 12459 3722 1 109.50000 418.400000
673 12460 3723 1 109.50000 418.400000
673 12460 3724 1 109.50000 418.400000
673 12460 3725 1 109.50000 418.400000
3723 12460 3724 1 109.50000 418.400000
3723 12460 3725 1 109.50000 418.400000
3724 12460 3725 1 109.50000 418.400000
2064 12461 2697 1 109.50000 418.400000
2064 12461 3726 1 109.50000 418.400000
2064 12461 3727 1 109.50000 418.400000
2697 12461 3726 1 109.50000 418.400000
2697 12461 3727 1 109.50000 418.400000
3726 12461 3727 1 109.50000 418.400000
3728 12462 3730 1 109.50000 418.400000
3728 12462 3731 1 109.50000 418.400000
3728 12462 6971 1 109.50000 418.400000
3730 12462 3731 1 109.50000 418.400000
3730 12462 6971 1 109.50000 418.400000
3731 12462 6971 1 109.50000 418.400000
3732 12463 3733 1 109.50000 418.400000
3732 12463 3734 1 109.50000 418.400000
3732 12463 3735 1 109.50000 418.400000
3733 12463 3734 1 109.50000 418.400000
3733 12463 3735 1 109.50000 418.400000
3734 12463 3735 1 109.50000 418.400000
18 12464 3738 1 109.50000 418.400000
18 12464 3739 1 109.50000 418.400000
18 12464 3740 1 109.50000 418.400000
3738 12464 3739 1 109.50000 418.400000
3738 12464 3740 1 109.50000 418.400000
3739 12464 3740 1 109.50000 418.400000
3741 12465 3742 1 109.50000 418.400000
3741 12465 3743 1 109.50000 418.400000
3741 12465 3744 1 109.50000 418.400000
3742 12465 3743 1 109.50000 418.400000
3742 12465 3744 1 109.50000 418.400000
3743 12465 3744 1 109.50000 418.400000
3745 12466 3746 1 109.50000 418.400000
3745 12466 3747 1 109.50000 418.400000
3745 12466 3748 1 109.50000 418.400000
3746 12466 3747 1 109.50000 418.400000
3746 12466 3748 1 109.50000 418.400000
3747 12466 3748 1 109.50000 418.400000
1265 12467 3477 1 109.50000 418.400000
1265 12467 3749 1 109.50000 418.400000
1265 12467 3750 1 109.50000 418.400000
3477 12467 3749 1 109.50000 418.400000
3477 12467 3750 1 109.50000 418.400000
3749 12467 3750 1 109.50000 418.400000
3751 12468 3752 1 109.50000 418.400000
3751 12468 3753 1 109.50000 418.400000
3751 12468 3754 1 109.50000 418.400000
3752 12468 3753 1 109.50000 418.400000
3752 12468 3754 1 109.50000 418.400000
3753 12468 3754 1 109.50000 418.400000
3755 12469 3756 1 109.50000 418.400000
3755 12469 3757 1 109.50000 418.400000
3755 12469 3758 1 109.50000 418.400000
3756 12469 3757 1 109.50000 418.400000
3756 12469 3758 1 109.50000 418.400000
3757 12469 3758 1 109.50000 418.400000
2572 12470 2573 1 109.50000 418.400000
2572 12470 3760 1 109.50000 418.400000
2572 12470 3761 1 109.50000 418.400000
2573 12470 3760 1 109.50000 418.400000
2573 12470 3761 1 109.50000 418.400000
3760 12470 3761 1 109.50000 418.400000
2524 12471 3315 1 109.50000 418.400000
2524 12471 3762 1 109.50000 418.400000
2524 12471 3763 1 109.50000 418.400000
3315 12471 3762 1 109.50000 418.400000
3315 12471 3763 1 109.50000 418.400000
3762 12471 3763 1 109.50000 418.400000
1134 12472 1152 1 109.50000 418.400000
1134 12472 3764 1 109.50000 418.400000
1134 12472 3765 1 109.50000 418.400000
1152 12472 3764 1 109.50000 418.400000
1152 12472 3765 1 109.50000 418.400000
3764 12472 3765 1 109.50000 418.400000
3766 12473 3767 1 109.50000 418.400000
3766 12473 3768 1 109.50000 418.400000
3766 12473 3769 1 109.50000 418.400000
3767 12473 3768 1 109.50000 418.400000
3767 12473 3769 1 109.50000 418.400000
3768 12473 3769 1 109.50000 418.400000
958 12474 960 1 109.50000 418.400000
958 12474 2190 1 109.50000 418.400000
958 12474 2818 1 109.50000 418.400000
960 12474 2190 1 109.50000 418.400000
960 12474 2818 1 109.50000 418.400000
2190 12474 2818 1 109.50000 418.400000
1069 12475 3773 1 109.50000 418.400000
1069 12475 3774 1 109.50000 418.400000
1069 12475 3775 1 109.50000 418.400000
3773 12475 3774 1 109.50000 418.400000
3773 12475 3775 1 109.50000 418.400000
3774 12475 3775 1 109.50000 418.400000
3776 12476 3777 1 109.50000 418.400000
3776 12476 3778 1 109.50000 418.400000
3776 12476 3779 1 109.50000 418.400000
3777 12476 3778 1 109.50000 418.400000
3777 12476 3779 1 109.50000 418.400000
3778 12476 3779 1 109.50000 418.400000
3780 12477 3781 1 109.50000 418.400000
3780 12477 3782 1 109.50000 418.400000
3780 12477 3783 1 109.50000 418.400000
3781 12477 3782 1 109.50000 418.400000
3781 12477 3783 1 109.50000 418.400000
3782 12477 3783 1 109.50000 418.400000
2972 12478 3784 1 109.50000 418.400000
2972 12478 3785 1 109.50000 418.400000
2972 12478 3786 1 109.50000 418.400000
3784 12478 3785 1 109.50000 418.400000
3784 12478 3786 1 109.50000 418.400000
3785 12478 3786 1 109.50000 418.400000
3787 12479 3788 1 109.50000 418.400000
3787 12479 3789 1 109.50000 418.400000
3787 12479 3805 1 109.50000 418.400000
3788 12479 3789 1 109.50000 418.400000
3788 12479 3805 1 109.50000 418.400000
3789 12479 3805 1 109.50000 418.400000
2268 12480 3790 1 109.50000 418.400000
2268 12480 3791 1 109.50000 418.400000
2268 12480 3792 1 109.50000 418.400000
3790 12480 3791 1 109.50000 418.400000
3790 12480 3792 1 109.50000 418.400000
3791 12480 3792 1 109.50000 418.400000
3793 12481 3794 1 109.50000 418.400000
3793 12481 3795 1 109.50000 418.400000
3793 12481 3796 1 109.50000 418.400000
3794 12481 3795 1 109.50000 418.400000
3794 12481 3796 1 109.50000 418.400000
3795 12481 3796 1 109.50000 418.400000
3797 12482 3798 1 109.50000 418.400000
3797 12482 3799 1 109.50000 418.400000
3797 12482 3800 1 109.50000 418.400000
3798 12482 3799 1 109.50000 418.400000
3798 12482 3800 1 109.50000 418.400000
3799 12482 3800 1 109.50000 418.400000
3801 12483 3802 1 109.50000 418.400000
3801 12483 3803 1 109.50000 418.400000
3801 12483 3804 1 109.50000 418.400000
3802 12483 3803 1 109.50000 418.400000
3802 12483 3804 1 109.50000 418.400000
3803 12483 3804 1 109.50000 418.400000
3196 12484 3788 1 109.50000 418.400000
3196 12484 3806 1 109.50000 418.400000
3196 12484 3807 1 109.50000 418.400000
3788 12484 3806 1 109.50000 418.400000
3788 12484 3807 1 109.50000 418.400000
3806 12484 3807 1 109.50000 418.400000
3808 12485 3809 1 109.50000 418.400000
3808 12485 3810 1 109.50000 418.400000
3808 12485 3811 1 109.50000 418.400000
3809 12485 3810 1 109.50000 418.400000
3809 12485 3811 1 109.50000 418.400000
3810 12485 3811 1 109.50000 418.400000
3813 12486 3814 1 109.50000 418.400000
3813 12486 3815 1 109.50000 418.400000
3813 12486 9228 1 109.50000 418.400000
3814 12486 3815 1 109.50000 418.400000
3814 12486 9228 1 109.50000 418.400000
3815 12486 9228 1 109.50000 418.400000
1627 12487 3816 1 109.50000 418.400000
1627 12487 3817 1 109.50000 418.400000
1627 12487 3818 1 109.50000 418.400000
3816 12487 3817 1 109.50000 418.400000
3816 12487 3818 1 109.50000 418.400000
3817 12487 3818 1 109.50000 418.400000
3819 12488 3820 1 109.50000 418.400000
3819 12488 3821 1 109.50000 418.400000
3819 12488 3822 1 109.50000 418.400000
3820 12488 3821 1 109.50000 418.400000
3820 12488 3822 1 109.50000 418.400000
3821 12488 3822 1 109.50000 418.400000
2479 12489 3823 1 109.50000 418.400000
2479 12489 3824 1 109.50000 418.400000
2479 12489 3825 1 109.50000 418.400000
3823 12489 3824 1 109.50000 418.400000
3823 12489 3825 1 109.50000 418.400000
3824 12489 3825 1 109.50000 418.400000
591 12490 3826 1 109.50000 418.400000
591 12490 3827 1 109.50000 418.400000
591 12490 3828 1 109.50000 418.400000
3826 12490 3827 1 109.50000 418.400000
3826 12490 3828 1 109.50000 418.400000
3827 12490 3828 1 109.50000 418.400000
2974 12491 3829 1 109.50000 418.400000
2974 12491 3830 1 109.50000 418.400000
2974 12491 3831 1 109.50000 418.400000
3829 12491 3830 1 109.50000 418.400000
3829 12491 3831 1 109.50000 418.400000
3830 12491 3831 1 109.50000 418.400000
3832 12492 3834 1 109.50000 418.400000
3832 12492 4789 1 109.50000 418.400000
3832 12492 9939 1 109.50000 418.400000
3834 12492 4789 1 109.50000 418.400000
3834 12492 9939 1 109.50000 418.400000
4789 12492 9939 1 109.50000 418.400000
2723 12493 3835 1 109.50000 418.400000
2723 12493 3836 1 109.50000 418.400000
2723 12493 3837 1 109.50000 418.400000
3835 12493 3836 1 109.50000 418.400000
3835 12493 3837 1 109.50000 418.400000
3836 12493 3837 1 109.50000 418.400000
3838 12494 3839 1 109.50000 418.400000
3838 12494 3840 1 109.50000 418.400000
3838 12494 3841 1 109.50000 418.400000
3839 12494 3840 1 109.50000 418.400000
3839 12494 3841 1 109.50000 418.400000
3840 12494 3841 1 109.50000 418.400000
3063 12495 3842 1 109.50000 418.400000
3063 12495 3843 1 109.50000 418.400000
3063 12495 3844 1 109.50000 418.400000
3842 12495 3843 1 109.50000 418.400000
3842 12495 3844 1 109.50000 418.400000
3843 12495 3844 1 109.50000 418.400000
3845 12496 3846 1 109.50000 418.400000
3845 12496 3847 1 109.50000 418.400000
3845 12496 3848 1 109.50000 418.400000
3846 12496 3847 1 109.50000 418.400000
3846 12496 3848 1 109.50000 418.400000
3847 12496 3848 1 109.50000 418.400000
1588 12497 3849 1 109.50000 418.400000
1588 12497 3850 1 109.50000 418.400000
1588 12497 3851 1 109.50000 418.400000
3849 12497 3850 1 109.50000 418.400000
3849 12497 3851 1 109.50000 418.400000
3850 12497 3851 1 109.50000 418.400000
1659 12498 3852 1 109.50000 418.400000
1659 12498 3853 1 109.50000 418.400000
1659 12498 3854 1 109.50000 418.400000
3852 12498 3853 1 109.50000 418.400000
3852 12498 3854 1 109.50000 418.400000
3853 12498 3854 1 109.50000 418.400000
3855 12499 3856 1 109.50000 418.400000
3855 12499 3857 1 109.50000 418.400000
3855 12499 3858 1 109.50000 418.400000
3856 12499 3857 1 109.50000 418.400000
3856 12499 3858 1 109.50000 418.400000
3857 12499 3858 1 109.50000 418.400000
3859 12500 3860 1 109.50000 418.400000
3859 12500 3861 1 109.50000 418.400000
3859 12500 3862 1 109.50000 418.400000
3860 12500 3861 1 109.50000 418.400000
3860 12500 3862 1 109.50000 418.400000
3861 12500 3862 1 109.50000 418.400000
3863 12501 3864 1 109.50000 418.400000
3863 12501 3865 1 109.50000 418.400000
3863 12501 3866 1 109.50000 418.400000
3864 12501 3865 1 109.50000 418.400000
3864 12501 3866 1 109.50000 418.400000
3865 12501 3866 1 109.50000 418.400000
1608 12502 2333 1 109.50000 418.400000
1608 12502 3867 1 109.50000 418.400000
1608 12502 3868 1 109.50000 418.400000
2333 12502 3867 1 109.50000 418.400000
2333 12502 3868 1 109.50000 418.400000
3867 12502 3868 1 109.50000 418.400000
739 12503 1767 1 109.50000 418.400000
739 12503 3563 1 109.50000 418.400000
739 12503 3869 1 109.50000 418.400000
1767 12503 3563 1 109.50000 418.400000
1767 12503 3869 1 109.50000 418.400000
3563 12503 3869 1 109.50000 418.400000
3805 12504 3870 1 109.50000 418.400000
3805 12504 3871 1 109.50000 418.400000
3805 12504 3872 1 109.50000 418.400000
3870 12504 3871 1 109.50000 418.400000
3870 12504 3872 1 109.50000 418.400000
3871 12504 3872 1 109.50000 418.400000
3873 12505 3874 1 109.50000 418.400000
3873 12505 3875 1 109.50000 418.400000
3873 12505 3876 1 109.50000 418.400000
3874 12505 3875 1 109.50000 418.400000
3874 12505 3876 1 109.50000 418.400000
3875 12505 3876 1 109.50000 418.400000
3882 12506 3883 1 109.50000 418.400000
3882 12506 3884 1 109.50000 418.400000
3882 12506 3885 1 109.50000 418.400000
3883 12506 3884 1 109.50000 418.400000
3883 12506 3885 1 109.50000 418.400000
3884 12506 3885 1 109.50000 418.400000
200 12507 3886 1 109.50000 418.400000
200 12507 3887 1 109.50000 418.400000
200 12507 3888 1 109.50000 418.400000
3886 12507 3887 1 109.50000 418.400000
3886 12507 3888 1 109.50000 418.400000
3887 12507 3888 1 109.50000 418.400000
738 12508 3889 1 109.50000 418.400000
738 12508 3890 1 109.50000 418.400000
738 12508 3891 1 109.50000 418.400000
3889 12508 3890 1 109.50000 418.400000
3889 12508 3891 1 109.50000 418.400000
3890 12508 3891 1 109.50000 418.400000
3250 12509 3892 1 109.50000 418.400000
3250 12509 3893 1 109.50000 418.400000
3250 12509 3894 1 109.50000 418.400000
3892 12509 3893 1 109.50000 418.400000
3892 12509 3894 1 109.50000 418.400000
3893 12509 3894 1 109.50000 418.400000
3895 12510 3896 1 109.50000 418.400000
3895 12510 3897 1 109.50000 418.400000
3895 12510 3898 1 109.50000 418.400000
3896 12510 3897 1 109.50000 418.400000
3896 12510 3898 1 109.50000 418.400000
3897 12510 3898 1 109.50000 418.400000
457 12511 3899 1 109.50000 418.400000
457 12511 3900 1 109.50000 418.400000
457 12511 3901 1 109.50000 418.400000
3899 12511 3900 1 109.50000 418.400000
3899 12511 3901 1 109.50000 418.400000
3900 12511 3901 1 109.50000 418.400000
3902 12512 3903 1 109.50000 418.400000
3902 12512 3904 1 109.50000 418.400000
3902 12512 3905 1 109.50000 418.400000
3903 12512 3904 1 109.50000 418.400000
3903 12512 3905 1 109.50000 418.400000
3904 12512 3905 1 109.50000 418.400000
3906 12513 3907 1 109.50000 418.400000
3906 12513 3908 1 109.50000 418.400000
3906 12513 3909 1 109.50000 418.400000
3907 12513 3908 1 109.50000 418.400000
3907 12513 3909 1 109.50000 418.400000
3908 12513 3909 1 109.50000 418.400000
3600 12514 3910 1 109.50000 418.400000
3600 12514 3911 1 109.50000 418.400000
3600 12514 3912 1 109.50000 418.400000
3910 12514 3911 1 109.50000 418.400000
3910 12514 3912 1 109.50000 418.400000
3911 12514 3912 1 109.50000 418.400000
370 12515 3754 1 109.50000 418.400000
370 12515 3913 1 109.50000 418.400000
370 12515 3914 1 109.50000 418.400000
3754 12515 3913 1 109.50000 418.400000
3754 12515 3914 1 109.50000 418.400000
3913 12515 3914 1 109.50000 418.400000
3915 12516 3916 1 109.50000 418.400000
3915 12516 3917 1 109.50000 418.400000
3915 12516 3918 1 109.50000 418.400000
3916 12516 3917 1 109.50000 418.400000
3916 12516 3918 1 109.50000 418.400000
3917 12516 3918 1 109.50000 418.400000
3920 12517 3921 1 109.50000 418.400000
3920 12517 7085 1 109.50000 418.400000
3920 12517 8211 1 109.50000 418.400000
3921 12517 7085 1 109.50000 418.400000
3921 12517 8211 1 109.50000 418.400000
7085 12517 8211 1 109.50000 418.400000
537 12518 727 1 109.50000 418.400000
537 12518 2894 1 109.50000 418.400000
537 12518 3923 1 109.50000 418.400000
727 12518 2894 1 109.50000 418.400000
727 12518 3923 1 109.50000 418.400000
2894 12518 3923 1 109.50000 418.400000
3706 12519 3924 1 109.50000 418.400000
3706 12519 3925 1 109.50000 418.400000
3706 12519 3926 1 109.50000 418.400000
3924 12519 3925 1 109.50000 418.400000
3924 12519 3926 1 109.50000 418.400000
3925 12519 3926 1 109.50000 418.400000
563 12520 2993 1 109.50000 418.400000
563 12520 3927 1 109.50000 418.400000
563 12520 3928 1 109.50000 418.400000
2993 12520 3927 1 109.50000 418.400000
2993 12520 3928 1 109.50000 418.400000
3927 12520 3928 1 109.50000 418.400000
3931 12521 3932 1 109.50000 418.400000
3931 12521 3933 1 109.50000 418.400000
3931 12521 3934 1 109.50000 418.400000
3932 12521 3933 1 109.50000 418.400000
3932 12521 3934 1 109.50000 418.400000
3933 12521 3934 1 109.50000 418.400000
1741 12522 3937 1 109.50000 418.400000
1741 12522 3938 1 109.50000 418.400000
1741 12522 6861 1 109.50000 418.400000
3937 12522 3938 1 109.50000 418.400000
3937 12522 6861 1 109.50000 418.400000
3938 12522 6861 1 109.50000 418.400000
3939 12523 3940 1 109.50000 418.400000
3939 12523 3941 1 109.50000 418.400000
3939 12523 3942 1 109.50000 418.400000
3940 12523 3941 1 109.50000 418.400000
3940 12523 3942 1 109.50000 418.400000
3941 12523 3942 1 109.50000 418.400000
3279 12524 3943 1 109.50000 418.400000
3279 12524 3944 1 109.50000 418.400000
3279 12524 3945 1 109.50000 418.400000
3943 12524 3944 1 109.50000 418.400000
3943 12524 3945 1 109.50000 418.400000
3944 12524 3945 1 109.50000 418.400000
1423 12525 1957 1 109.50000 418.400000
1423 12525 3249 1 109.50000 418.400000
1423 12525 3946 1 109.50000 418.400000
1957 12525 3249 1 109.50000 418.400000
1957 12525 3946 1 109.50000 418.400000
3249 12525 3946 1 109.50000 418.400000
103 12526 3947 1 109.50000 418.400000
103 12526 3948 1 109.50000 418.400000
103 12526 3949 1 109.50000 418.400000
3947 12526 3948 1 109.50000 418.400000
3947 12526 3949 1 109.50000 418.400000
3948 12526 3949 1 109.50000 418.400000
3950 12527 3951 1 109.50000 418.400000
3950 12527 3952 1 109.50000 418.400000
3950 12527 3953 1 109.50000 418.400000
3951 12527 3952 1 109.50000 418.400000
3951 12527 3953 1 109.50000 418.400000
3952 12527 3953 1 109.50000 418.400000
3954 12528 3955 1 109.50000 418.400000
3954 12528 3957 1 109.50000 418.400000
3954 12528 7409 1 109.50000 418.400000
3955 12528 3957 1 109.50000 418.400000
3955 12528 7409 1 109.50000 418.400000
3957 12528 7409 1 109.50000 418.400000
2526 12529 3670 1 109.50000 418.400000
2526 12529 3958 1 109.50000 418.400000
2526 12529 3959 1 109.50000 418.400000
3670 12529 3958 1 109.50000 418.400000
3670 12529 3959 1 109.50000 418.400000
3958 12529 3959 1 109.50000 418.400000
882 12530 1547 1 109.50000 418.400000
882 12530 3960 1 109.50000 418.400000
882 12530 3961 1 109.50000 418.400000
1547 12530 3960 1 109.50000 418.400000
1547 12530 3961 1 109.50000 418.400000
3960 12530 3961 1 109.50000 418.400000
3962 12531 3963 1 109.50000 418.400000
3962 12531 3964 1 109.50000 418.400000
3962 12531 3965 1 109.50000 418.400000
3963 12531 3964 1 109.50000 418.400000
3963 12531 3965 1 109.50000 418.400000
3964 12531 3965 1 109.50000 418.400000
3966 12532 3967 1 109.50000 418.400000
3966 12532 3968 1 109.50000 418.400000
3966 12532 3969 1 109.50000 418.400000
3967 12532 3968 1 109.50000 418.400000
3967 12532 3969 1 109.50000 418.400000
3968 12532 3969 1 109.50000 418.400000
1568 12533 1569 1 109.50000 418.400000
1568 12533 3970 1 109.50000 418.400000
1568 12533 3971 1 109.50000 418.400000
1569 12533 3970 1 109.50000 418.400000
1569 12533 3971 1 109.50000 418.400000
3970 12533 3971 1 109.50000 418.400000
3973 12534 3974 1 109.50000 418.400000
3973 12534 3975 1 109.50000 418.400000
3973 12534 3976 1 109.50000 418.400000
3974 12534 3975 1 109.50000 418.400000
3974 12534 3976 1 109.50000 418.400000
3975 12534 3976 1 109.50000 418.400000
634 12535 3977 1 109.50000 418.400000
634 12535 3978 1 109.50000 418.400000
634 12535 9486 1 109.50000 418.400000
3977 12535 3978 1 109.50000 418.400000
3977 12535 9486 1 109.50000 418.400000
3978 12535 9486 1 109.50000 418.400000
1345 12536 3979 1 109.50000 418.400000
1345 12536 3980 1 109.50000 418.400000
1345 12536 3981 1 109.50000 418.400000
3979 12536 3980 1 109.50000 418.400000
3979 12536 3981 1 109.50000 418.400000
3980 12536 3981 1 109.50000 418.400000
3905 12537 3982 1 109.50000 418.400000
3905 12537 3983 1 109.50000 418.400000
3905 12537 3984 1 109.50000 418.400000
3982 12537 3983 1 109.50000 418.400000
3982 12537 3984 1 109.50000 418.400000
3983 12537 3984 1 109.50000 418.400000
3985 12538 3986 1 109.50000 418.400000
3985 12538 3987 1 109.50000 418.400000
3985 12538 3988 1 109.50000 418.400000
3986 12538 3987 1 109.50000 418.400000
3986 12538 3988 1 109.50000 418.400000
3987 12538 3988 1 109.50000 418.400000
3989 12539 3990 1 109.50000 418.400000
3989 12539 3991 1 109.50000 418.400000
3989 12539 3992 1 109.50000 418.400000
3990 12539 3991 1 109.50000 418.400000
3990 12539 3992 1 109.50000 418.400000
3991 12539 3992 1 109.50000 418.400000
3993 12540 3994 1 109.50000 418.400000
3993 12540 3995 1 109.50000 418.400000
3993 12540 3996 1 109.50000 418.400000
3994 12540 3995 1 109.50000 418.400000
3994 12540 3996 1 109.50000 418.400000
3995 12540 3996 1 109.50000 418.400000
2075 12541 3997 1 109.50000 418.400000
2075 12541 3998 1 109.50000 418.400000
2075 12541 3999 1 109.50000 418.400000
3997 12541 3998 1 109.50000 418.400000
3997 12541 3999 1 109.50000 418.400000
3998 12541 3999 1 109.50000 418.400000
1019 12542 4000 1 109.50000 418.400000
1019 12542 4001 1 109.50000 418.400000
1019 12542 4002 1 109.50000 418.400000
4000 12542 4001 1 109.50000 418.400000
4000 12542 4002 1 109.50000 418.400000
4001 12542 4002 1 109.50000 418.400000
577 12543 1841 1 109.50000 418.400000
577 12543 4003 1 109.50000 418.400000
577 12543 4004 1 109.50000 418.400000
1841 12543 4003 1 109.50000 418.400000
1841 12543 4004 1 109.50000 418.400000
4003 12543 4004 1 109.50000 418.400000
4005 12544 4006 1 109.50000 418.400000
4005 12544 4007 1 109.50000 418.400000
4005 12544 4008 1 109.50000 418.400000
4006 12544 4007 1 109.50000 418.400000
4006 12544 4008 1 109.50000 418.400000
4007 12544 4008 1 109.50000 418.400000
1273 12545 4009 1 109.50000 418.400000
1273 12545 4010 1 109.50000 418.400000
1273 12545 4011 1 109.50000 418.400000
4009 12545 4010 1 109.50000 418.400000
4009 12545 4011 1 109.50000 418.400000
4010 12545 4011 1 109.50000 418.400000
1773 12546 3971 1 109.50000 418.400000
1773 12546 4012 1 109.50000 418.400000
1773 12546 4013 1 109.50000 418.400000
3971 12546 4012 1 109.50000 418.400000
3971 12546 4013 1 109.50000 418.400000
4012 12546 4013 1 109.50000 418.400000
4014 12547 4015 1 109.50000 418.400000
4014 12547 4016 1 109.50000 418.400000
4014 12547 11152 1 109.50000 418.400000
4015 12547 4016 1 109.50000 418.400000
4015 12547 11152 1 109.50000 418.400000
4016 12547 11152 1 109.50000 418.400000
2531 12548 4019 1 109.50000 418.400000
2531 12548 4020 1 109.50000 418.400000
2531 12548 4021 1 109.50000 418.400000
4019 12548 4020 1 109.50000 418.400000
4019 12548 4021 1 109.50000 418.400000
4020 12548 4021 1 109.50000 418.400000
4023 12549 4024 1 109.50000 418.400000
4023 12549 4025 1 109.50000 418.400000
4023 12549 10492 1 109.50000 418.400000
4024 12549 4025 1 109.50000 418.400000
4024 12549 10492 1 109.50000 418.400000
4025 12549 10492 1 109.50000 418.400000
3308 12550 4026 1 109.50000 418.400000
3308 12550 6468 1 109.50000 418.400000
3308 12550 6470 1 109.50000 418.400000
4026 12550 6468 1 109.50000 418.400000
4026 12550 6470 1 109.50000 418.400000
6468 12550 6470 1 109.50000 418.400000
895 12551 897 1 109.50000 418.400000
895 12551 4031 1 109.50000 418.400000
895 12551 4032 1 109.50000 418.400000
897 12551 4031 1 109.50000 418.400000
897 12551 4032 1 109.50000 418.400000
4031 12551 4032 1 109.50000 418.400000
4035 12552 4037 1 109.50000 418.400000
4035 12552 4038 1 109.50000 418.400000
4035 12552 9062 1 109.50000 418.400000
4037 12552 4038 1 109.50000 418.400000
4037 12552 9062 1 109.50000 418.400000
4038 12552 9062 1 109.50000 418.400000
10 12553 507 1 109.50000 418.400000
10 12553 4039 1 109.50000 418.400000
10 12553 4040 1 109.50000 418.400000
507 12553 4039 1 109.50000 418.400000
507 12553 4040 1 109.50000 418.400000
4039 12553 4040 1 109.50000 418.400000
1170 12554 4041 1 109.50000 418.400000
1170 12554 4042 1 109.50000 418.400000
1170 12554 11334 1 109.50000 418.400000
4041 12554 4042 1 109.50000 418.400000
4041 12554 11334 1 109.50000 418.400000
4042 12554 11334 1 109.50000 418.400000
1708 12555 4043 1 109.50000 418.400000
1708 12555 4044 1 109.50000 418.400000
1708 12555 4045 1 109.50000 418.400000
4043 12555 4044 1 109.50000 418.400000
4043 12555 4045 1 109.50000 418.400000
4044 12555 4045 1 109.50000 418.400000
3026 12556 4046 1 109.50000 418.400000
3026 12556 4047 1 109.50000 418.400000
3026 12556 4048 1 109.50000 418.400000
4046 12556 4047 1 109.50000 418.400000
4046 12556 4048 1 109.50000 418.400000
4047 12556 4048 1 109.50000 418.400000
4049 12557 4050 1 109.50000 418.400000
4049 12557 4051 1 109.50000 418.400000
4049 12557 4052 1 109.50000 418.400000
4050 12557 4051 1 109.50000 418.400000
4050 12557 4052 1 109.50000 418.400000
4051 12557 4052 1 109.50000 418.400000
62 12558 4053 1 109.50000 418.400000
62 12558 4054 1 109.50000 418.400000
62 12558 4055 1 109.50000 418.400000
4053 12558 4054 1 109.50000 418.400000
4053 12558 4055 1 109.50000 418.400000
4054 12558 4055 1 109.50000 418.400000
2032 12559 4056 1 109.50000 418.400000
2032 12559 4057 1 109.50000 418.400000
2032 12559 4058 1 109.50000 418.400000
4056 12559 4057 1 109.50000 418.400000
4056 12559 4058 1 109.50000 418.400000
4057 12559 4058 1 109.50000 418.400000
78 12560 4059 1 109.50000 418.400000
78 12560 4060 1 109.50000 418.400000
78 12560 4061 1 109.50000 418.400000
4059 12560 4060 1 109.50000 418.400000
4059 12560 4061 1 109.50000 418.400000
4060 12560 4061 1 109.50000 418.400000
4062 12561 4063 1 109.50000 418.400000
4062 12561 4064 1 109.50000 418.400000
4062 12561 4065 1 109.50000 418.400000
4063 12561 4064 1 109.50000 418.400000
4063 12561 4065 1 109.50000 418.400000
4064 12561 4065 1 109.50000 418.400000
3193 12562 4066 1 109.50000 418.400000
3193 12562 4068 1 109.50000 418.400000
3193 12562 5893 1 109.50000 418.400000
4066 12562 4068 1 109.50000 418.400000
4066 12562 5893 1 109.50000 418.400000
4068 12562 5893 1 109.50000 418.400000
2941 12563 2943 1 109.50000 418.400000
2941 12563 3652 1 109.50000 418.400000
2941 12563 4069 1 109.50000 418.400000
2943 12563 3652 1 109.50000 418.400000
2943 12563 4069 1 109.50000 418.400000
3652 12563 4069 1 109.50000 418.400000
4070 12564 4071 1 109.50000 418.400000
4070 12564 4072 1 109.50000 418.400000
4070 12564 4073 1 109.50000 418.400000
4071 12564 4072 1 109.50000 418.400000
4071 12564 4073 1 109.50000 418.400000
4072 12564 4073 1 109.50000 418.400000
2715 12565 4074 1 109.50000 418.400000
2715 12565 4075 1 109.50000 418.400000
2715 12565 4076 1 109.50000 418.400000
4074 12565 4075 1 109.50000 418.400000
4074 12565 4076 1 109.50000 418.400000
4075 12565 4076 1 109.50000 418.400000
4077 12566 4078 1 109.50000 418.400000
4077 12566 4079 1 109.50000 418.400000
4077 12566 4080 1 109.50000 418.400000
4078 12566 4079 1 109.50000 418.400000
4078 12566 4080 1 109.50000 418.400000
4079 12566 4080 1 109.50000 418.400000
1696 12567 1697 1 109.50000 418.400000
1696 12567 4082 1 109.50000 418.400000
1696 12567 4083 1 109.50000 418.400000
1697 12567 4082 1 109.50000 418.400000
1697 12567 4083 1 109.50000 418.400000
4082 12567 4083 1 109.50000 418.400000
2233 12568 2342 1 109.50000 418.400000
2233 12568 4084 1 109.50000 418.400000
2233 12568 4085 1 109.50000 418.400000
2342 12568 4084 1 109.50000 418.400000
2342 12568 4085 1 109.50000 418.400000
4084 12568 4085 1 109.50000 418.400000
1331 12569 4086 1 109.50000 418.400000
1331 12569 4087 1 109.50000 418.400000
1331 12569 4088 1 109.50000 418.400000
4086 12569 4087 1 109.50000 418.400000
4086 12569 4088 1 109.50000 418.400000
4087 12569 4088 1 109.50000 418.400000
3360 12570 4089 1 109.50000 418.400000
3360 12570 4090 1 109.50000 418.400000
3360 12570 4091 1 109.50000 418.400000
4089 12570 4090 1 109.50000 418.400000
4089 12570 4091 1 109.50000 418.400000
4090 12570 4091 1 109.50000 418.400000
4092 12571 4093 1 109.50000 418.400000
4092 12571 4094 1 109.50000 418.400000
4092 12571 4095 1 109.50000 418.400000
4093 12571 4094 1 109.50000 418.400000
4093 12571 4095 1 109.50000 418.400000
4094 12571 4095 1 109.50000 418.400000
4096 12572 4097 1 109.50000 418.400000
4096 12572 4098 1 109.50000 418.400000
4096 12572 4099 1 109.50000 418.400000
4097 12572 4098 1 109.50000 418.400000
4097 12572 4099 1 109.50000 418.400000
4098 12572 4099 1 109.50000 418.400000
409 12573 1379 1 109.50000 418.400000
409 12573 4100 1 109.50000 418.400000
409 12573 6959 1 109.50000 418.400000
1379 12573 4100 1 109.50000 418.400000
1379 12573 6959 1 109.50000 418.400000
4100 12573 6959 1 109.50000 418.400000
168 12574 4102 1 109.50000 418.400000
168 12574 4103 1 109.50000 418.400000
168 12574 11316 1 109.50000 418.400000
4102 12574 4103 1 109.50000 418.400000
4102 12574 11316 1 109.50000 418.400000
4103 12574 11316 1 109.50000 418.400000
4044 12575 4104 1 109.50000 418.400000
4044 12575 4105 1 109.50000 418.400000
4044 12575 4106 1 109.50000 418.400000
4104 12575 4105 1 109.50000 418.400000
4104 12575 4106 1 109.50000 418.400000
4105 12575 4106 1 109.50000 418.400000
4108 12576 4109 1 109.50000 418.400000
4108 12576 4110 1 109.50000 418.400000
4108 12576 11250 1 109.50000 418.400000
4109 12576 4110 1 109.50000 418.400000
4109 12576 11250 1 109.50000 418.400000
4110 12576 11250 1 109.50000 418.400000
1252 12577 1278 1 109.50000 418.400000
1252 12577 4112 1 109.50000 418.400000
1252 12577 4113 1 109.50000 418.400000
1278 12577 4112 1 109.50000 418.400000
1278 12577 4113 1 109.50000 418.400000
4112 12577 4113 1 109.50000 418.400000
4114 12578 4115 1 109.50000 418.400000
4114 12578 4116 1 109.50000 418.400000
4114 12578 4117 1 109.50000 418.400000
4115 12578 4116 1 109.50000 418.400000
4115 12578 4117 1 109.50000 418.400000
4116 12578 4117 1 109.50000 418.400000
1469 12579 1471 1 109.50000 418.400000
1469 12579 4118 1 109.50000 418.400000
1469 12579 4119 1 109.50000 418.400000
1471 12579 4118 1 109.50000 418.400000
1471 12579 4119 1 109.50000 418.400000
4118 12579 4119 1 109.50000 418.400000
4120 12580 4121 1 109.50000 418.400000
4120 12580 4122 1 109.50000 418.400000
4120 12580 4123 1 109.50000 418.400000
4121 12580 4122 1 109.50000 418.400000
4121 12580 4123 1 109.50000 418.400000
4122 12580 4123 1 109.50000 418.400000
4124 12581 4125 1 109.50000 418.400000
4124 12581 4126 1 109.50000 418.400000
4124 12581 4127 1 109.50000 418.400000
4125 12581 4126 1 109.50000 418.400000
4125 12581 4127 1 109.50000 418.400000
4126 12581 4127 1 109.50000 418.400000
1086 12582 1586 1 109.50000 418.400000
1086 12582 4128 1 109.50000 418.400000
1086 12582 4129 1 109.50000 418.400000
1586 12582 4128 1 109.50000 418.400000
1586 12582 4129 1 109.50000 418.400000
4128 12582 4129 1 109.50000 418.400000
1214 12583 2757 1 109.50000 418.400000
1214 12583 4130 1 109.50000 418.400000
1214 12583 4131 1 109.50000 418.400000
2757 12583 4130 1 109.50000 418.400000
2757 12583 4131 1 109.50000 418.400000
4130 12583 4131 1 109.50000 418.400000
1809 12584 4132 1 109.50000 418.400000
1809 12584 4133 1 109.50000 418.400000
1809 12584 4134 1 109.50000 418.400000
4132 12584 4133 1 109.50000 418.400000
4132 12584 4134 1 109.50000 418.400000
4133 12584 4134 1 109.50000 418.400000
3168 12585 4135 1 109.50000 418.400000
3168 12585 4136 1 109.50000 418.400000
3168 12585 4137 1 109.50000 418.400000
4135 12585 4136 1 109.50000 418.400000
4135 12585 4137 1 109.50000 418.400000
4136 12585 4137 1 109.50000 418.400000
196 12586 4138 1 109.50000 418.400000
196 12586 4139 1 109.50000 418.400000
196 12586 4140 1 109.50000 418.400000
4138 12586 4139 1 109.50000 418.400000
4138 12586 4140 1 109.50000 418.400000
4139 12586 4140 1 109.50000 418.400000
4141 12587 4142 1 109.50000 418.400000
4141 12587 4143 1 109.50000 418.400000
4141 12587 4144 1 109.50000 418.400000
4142 12587 4143 1 109.50000 418.400000
4142 12587 4144 1 109.50000 418.400000
4143 12587 4144 1 109.50000 418.400000
4145 12588 4146 1 109.50000 418.400000
4145 12588 4147 1 109.50000 418.400000
4145 12588 4148 1 109.50000 418.400000
4146 12588 4147 1 109.50000 418.400000
4146 12588 4148 1 109.50000 418.400000
4147 12588 4148 1 109.50000 418.400000
2453 12589 3542 1 109.50000 418.400000
2453 12589 4149 1 109.50000 418.400000
2453 12589 4150 1 109.50000 418.400000
3542 12589 4149 1 109.50000 418.400000
3542 12589 4150 1 109.50000 418.400000
4149 12589 4150 1 109.50000 418.400000
781 12590 4151 1 109.50000 418.400000
781 12590 4152 1 109.50000 418.400000
781 12590 4153 1 109.50000 418.400000
4151 12590 4152 1 109.50000 418.400000
4151 12590 4153 1 109.50000 418.400000
4152 12590 4153 1 109.50000 418.400000
4154 12591 4155 1 109.50000 418.400000
4154 12591 4156 1 109.50000 418.400000
4154 12591 4157 1 109.50000 418.400000
4155 12591 4156 1 109.50000 418.400000
4155 12591 4157 1 109.50000 418.400000
4156 12591 4157 1 109.50000 418.400000
1882 12592 3232 1 109.50000 418.400000
1882 12592 4158 1 109.50000 418.400000
1882 12592 4159 1 109.50000 418.400000
3232 12592 4158 1 109.50000 418.400000
3232 12592 4159 1 109.50000 418.400000
4158 12592 4159 1 109.50000 418.400000
2309 12593 4160 1 109.50000 418.400000
2309 12593 4161 1 109.50000 418.400000
2309 12593 4162 1 109.50000 418.400000
4160 12593 4161 1 109.50000 418.400000
4160 12593 4162 1 109.50000 418.400000
4161 12593 4162 1 109.50000 418.400000
4163 12594 4164 1 109.50000 418.400000
4163 12594 4165 1 109.50000 418.400000
4163 12594 4166 1 109.50000 418.400000
4164 12594 4165 1 109.50000 418.400000
4164 12594 4166 1 109.50000 418.400000
4165 12594 4166 1 109.50000 418.400000
547 12595 4169 1 109.50000 418.400000
547 12595 4170 1 109.50000 418.400000
547 12595 4171 1 109.50000 418.400000
4169 12595 4170 1 109.50000 418.400000
4169 12595 4171 1 109.50000 418.400000
4170 12595 4171 1 109.50000 418.400000
4173 12596 4174 1 109.50000 418.400000
4173 12596 4175 1 109.50000 418.400000
4173 12596 9352 1 109.50000 418.400000
4174 12596 4175 1 109.50000 418.400000
4174 12596 9352 1 109.50000 418.400000
4175 12596 9352 1 109.50000 418.400000
2241 12597 4176 1 109.50000 418.400000
2241 12597 4177 1 109.50000 418.400000
2241 12597 4178 1 109.50000 418.400000
4176 12597 4177 1 109.50000 418.400000
4176 12597 4178 1 109.50000 418.400000
4177 12597 4178 1 109.50000 418.400000
4179 12598 4180 1 109.50000 418.400000
4179 12598 4181 1 109.50000 418.400000
4179 12598 4625 1 109.50000 418.400000
4180 12598 4181 1 109.50000 418.400000
4180 12598 4625 1 109.50000 418.400000
4181 12598 4625 1 109.50000 418.400000
2590 12599 3284 1 109.50000 418.400000
2590 12599 4182 1 109.50000 418.400000
2590 12599 4183 1 109.50000 418.400000
3284 12599 4182 1 109.50000 418.400000
3284 12599 4183 1 109.50000 418.400000
4182 12599 4183 1 109.50000 418.400000
204 12600 2463 1 109.50000 418.400000
204 12600 4184 1 109.50000 418.400000
204 12600 4185 1 109.50000 418.400000
2463 12600 4184 1 109.50000 418.400000
2463 12600 4185 1 109.50000 418.400000
4184 12600 4185 1 109.50000 418.400000
4175 12601 4186 1 109.50000 418.400000
4175 12601 4187 1 109.50000 418.400000
4175 12601 4188 1 109.50000 418.400000
4186 12601 4187 1 109.50000 418.400000
4186 12601 4188 1 109.50000 418.400000
4187 12601 4188 1 109.50000 418.400000
3234 12602 3364 1 109.50000 418.400000
3234 12602 4189 1 109.50000 418.400000
3234 12602 4190 1 109.50000 418.400000
3364 12602 4189 1 109.50000 418.400000
3364 12602 4190 1 109.50000 418.400000
4189 12602 4190 1 109.50000 418.400000
3599 12603 4191 1 109.50000 418.400000
3599 12603 4192 1 109.50000 418.400000
3599 12603 4193 1 109.50000 418.400000
4191 12603 4192 1 109.50000 418.400000
4191 12603 4193 1 109.50000 418.400000
4192 12603 4193 1 109.50000 418.400000
4065 12604 4194 1 109.50000 418.400000
4065 12604 4195 1 109.50000 418.400000
4065 12604 4196 1 109.50000 418.400000
4194 12604 4195 1 109.50000 418.400000
4194 12604 4196 1 109.50000 418.400000
4195 12604 4196 1 109.50000 418.400000
4197 12605 4198 1 109.50000 418.400000
4197 12605 4199 1 109.50000 418.400000
4197 12605 4200 1 109.50000 418.400000
4198 12605 4199 1 109.50000 418.400000
4198 12605 4200 1 109.50000 418.400000
4199 12605 4200 1 109.50000 418.400000
4201 12606 4202 1 109.50000 418.400000
4201 12606 4203 1 109.50000 418.400000
4201 12606 4204 1 109.50000 418.400000
4202 12606 4203 1 109.50000 418.400000
4202 12606 4204 1 109.50000 418.400000
4203 12606 4204 1 109.50000 418.400000
1223 12607 4205 1 109.50000 418.400000
1223 12607 4206 1 109.50000 418.400000
1223 12607 4207 1 109.50000 418.400000
4205 12607 4206 1 109.50000 418.400000
4205 12607 4207 1 109.50000 418.400000
4206 12607 4207 1 109.50000 418.400000
4210 12608 4211 1 109.50000 418.400000
4210 12608 4212 1 109.50000 418.400000
4210 12608 6234 1 109.50000 418.400000
4211 12608 4212 1 109.50000 418.400000
4211 12608 6234 1 109.50000 418.400000
4212 12608 6234 1 109.50000 418.400000
4213 12609 4214 1 109.50000 418.400000
4213 12609 4215 1 109.50000 418.400000
4213 12609 4216 1 109.50000 418.400000
4214 12609 4215 1 109.50000 418.400000
4214 12609 4216 1 109.50000 418.400000
4215 12609 4216 1 109.50000 418.400000
4217 12610 4218 1 109.50000 418.400000
4217 12610 4219 1 109.50000 418.400000
4217 12610 4220 1 109.50000 418.400000
4218 12610 4219 1 109.50000 418.400000
4218 12610 4220 1 109.50000 418.400000
4219 12610 4220 1 109.50000 418.400000
4221 12611 4222 1 109.50000 418.400000
4221 12611 4223 1 109.50000 418.400000
4221 12611 4224 1 109.50000 418.400000
4222 12611 4223 1 109.50000 418.400000
4222 12611 4224 1 109.50000 418.400000
4223 12611 4224 1 109.50000 418.400000
4225 12612 4226 1 109.50000 418.400000
4225 12612 4227 1 109.50000 418.400000
4225 12612 4228 1 109.50000 418.400000
4226 12612 4227 1 109.50000 418.400000
4226 12612 4228 1 109.50000 418.400000
4227 12612 4228 1 109.50000 418.400000
4229 12613 4230 1 109.50000 418.400000
4229 12613 4231 1 109.50000 418.400000
4229 12613 7658 1 109.50000 418.400000
4230 12613 4231 1 109.50000 418.400000
4230 12613 7658 1 109.50000 418.400000
4231 12613 7658 1 109.50000 418.400000
4232 12614 4233 1 109.50000 418.400000
4232 12614 4234 1 109.50000 418.400000
4232 12614 4235 1 109.50000 418.400000
4233 12614 4234 1 109.50000 418.400000
4233 12614 4235 1 109.50000 418.400000
4234 12614 4235 1 109.50000 418.400000
1699 12615 4236 1 109.50000 418.400000
1699 12615 11201 1 109.50000 418.400000
1699 12615 11285 1 109.50000 418.400000
4236 12615 11201 1 109.50000 418.400000
4236 12615 11285 1 109.50000 418.400000
11201 12615 11285 1 109.50000 418.400000
4237 12616 4238 1 109.50000 418.400000
4237 12616 4239 1 109.50000 418.400000
4237 12616 4240 1 109.50000 418.400000
4238 12616 4239 1 109.50000 418.400000
4238 12616 4240 1 109.50000 418.400000
4239 12616 4240 1 109.50000 418.400000
4244 12617 4245 1 109.50000 418.400000
4244 12617 4246 1 109.50000 418.400000
4244 12617 4247 1 109.50000 418.400000
4245 12617 4246 1 109.50000 418.400000
4245 12617 4247 1 109.50000 418.400000
4246 12617 4247 1 109.50000 418.400000
4248 12618 4249 1 109.50000 418.400000
4248 12618 4250 1 109.50000 418.400000
4248 12618 4251 1 109.50000 418.400000
4249 12618 4250 1 109.50000 418.400000
4249 12618 4251 1 109.50000 418.400000
4250 12618 4251 1 109.50000 418.400000
704 12619 4252 1 109.50000 418.400000
704 12619 4253 1 109.50000 418.400000
704 12619 4254 1 109.50000 418.400000
4252 12619 4253 1 109.50000 418.400000
4252 12619 4254 1 109.50000 418.400000
4253 12619 4254 1 109.50000 418.400000
4255 12620 4256 1 109.50000 418.400000
4255 12620 4257 1 109.50000 418.400000
4255 12620 4258 1 109.50000 418.400000
4256 12620 4257 1 109.50000 418.400000
4256 12620 4258 1 109.50000 418.400000
4257 12620 4258 1 109.50000 418.400000
1848 12621 4259 1 109.50000 418.400000
1848 12621 4260 1 109.50000 418.400000
1848 12621 4261 1 109.50000 418.400000
4259 12621 4260 1 109.50000 418.400000
4259 12621 4261 1 109.50000 418.400000
4260 12621 4261 1 109.50000 418.400000
4262 12622 4263 1 109.50000 418.400000
4262 12622 4264 1 109.50000 418.400000
4262 12622 4265 1 109.50000 418.400000
4263 12622 4264 1 109.50000 418.400000
4263 12622 4265 1 109.50000 418.400000
4264 12622 4265 1 109.50000 418.400000
4266 12623 4267 1 109.50000 418.400000
4266 12623 4268 1 109.50000 418.400000
4266 12623 4269 1 109.50000 418.400000
4267 12623 4268 1 109.50000 418.400000
4267 12623 4269 1 109.50000 418.400000
4268 12623 4269 1 109.50000 418.400000
3108 12624 3893 1 109.50000 418.400000
3108 12624 4270 1 109.50000 418.400000
3108 12624 4271 1 109.50000 418.400000
3893 12624 4270 1 109.50000 418.400000
3893 12624 4271 1 109.50000 418.400000
4270 12624 4271 1 109.50000 418.400000
4272 12625 4273 1 109.50000 418.400000
4272 12625 4274 1 109.50000 418.400000
4272 12625 4275 1 109.50000 418.400000
4273 12625 4274 1 109.50000 418.400000
4273 12625 4275 1 109.50000 418.400000
4274 12625 4275 1 109.50000 418.400000
1460 12626 3687 1 109.50000 418.400000
1460 12626 4276 1 109.50000 418.400000
1460 12626 4277 1 109.50000 418.400000
3687 12626 4276 1 109.50000 418.400000
3687 12626 4277 1 109.50000 418.400000
4276 12626 4277 1 109.50000 418.400000
4278 12627 4279 1 109.50000 418.400000
4278 12627 4280 1 109.50000 418.400000
4278 12627 4281 1 109.50000 418.400000
4279 12627 4280 1 109.50000 418.400000
4279 12627 4281 1 109.50000 418.400000
4280 12627 4281 1 109.50000 418.400000
363 12628 1544 1 109.50000 418.400000
363 12628 4282 1 109.50000 418.400000
363 12628 4283 1 109.50000 418.400000
1544 12628 4282 1 109.50000 418.400000
1544 12628 4283 1 109.50000 418.400000
4282 12628 4283 1 109.50000 418.400000
3396 12629 4284 1 109.50000 418.400000
3396 12629 4286 1 109.50000 418.400000
3396 12629 10038 1 109.50000 418.400000
4284 12629 4286 1 109.50000 418.400000
4284 12629 10038 1 109.50000 418.400000
4286 12629 10038 1 109.50000 418.400000
4272 12630 4287 1 109.50000 418.400000
4272 12630 4288 1 109.50000 418.400000
4272 12630 4289 1 109.50000 418.400000
4287 12630 4288 1 109.50000 418.400000
4287 12630 4289 1 109.50000 418.400000
4288 12630 4289 1 109.50000 418.400000
4290 12631 4291 1 109.50000 418.400000
4290 12631 4292 1 109.50000 418.400000
4290 12631 4293 1 109.50000 418.400000
4291 12631 4292 1 109.50000 418.400000
4291 12631 4293 1 109.50000 418.400000
4292 12631 4293 1 109.50000 418.400000
658 12632 660 1 109.50000 418.400000
658 12632 4294 1 109.50000 418.400000
658 12632 4296 1 109.50000 418.400000
660 12632 4294 1 109.50000 418.400000
660 12632 4296 1 109.50000 418.400000
4294 12632 4296 1 109.50000 418.400000
4075 12633 4297 1 109.50000 418.400000
4075 12633 4298 1 109.50000 418.400000
4075 12633 11357 1 109.50000 418.400000
4297 12633 4298 1 109.50000 418.400000
4297 12633 11357 1 109.50000 418.400000
4298 12633 11357 1 109.50000 418.400000
3164 12634 4299 1 109.50000 418.400000
3164 12634 4300 1 109.50000 418.400000
3164 12634 4301 1 109.50000 418.400000
4299 12634 4300 1 109.50000 418.400000
4299 12634 4301 1 109.50000 418.400000
4300 12634 4301 1 109.50000 418.400000
559 12635 4302 1 109.50000 418.400000
559 12635 4304 1 109.50000 418.400000
559 12635 4560 1 109.50000 418.400000
4302 12635 4304 1 109.50000 418.400000
4302 12635 4560 1 109.50000 418.400000
4304 12635 4560 1 109.50000 418.400000
4305 12636 4306 1 109.50000 418.400000
4305 12636 4307 1 109.50000 418.400000
4305 12636 4308 1 109.50000 418.400000
4306 12636 4307 1 109.50000 418.400000
4306 12636 4308 1 109.50000 418.400000
4307 12636 4308 1 109.50000 418.400000
2836 12637 4309 1 109.50000 418.400000
2836 12637 4310 1 109.50000 418.400000
2836 12637 4311 1 109.50000 418.400000
4309 12637 4310 1 109.50000 418.400000
4309 12637 4311 1 109.50000 418.400000
4310 12637 4311 1 109.50000 418.400000
17 12638 4137 1 109.50000 418.400000
17 12638 4312 1 109.50000 418.400000
17 12638 4313 1 109.50000 418.400000
4137 12638 4312 1 109.50000 418.400000
4137 12638 4313 1 109.50000 418.400000
4312 12638 4313 1 109.50000 418.400000
740 12639 4314 1 109.50000 418.400000
740 12639 4315 1 109.50000 418.400000
740 12639 4316 1 109.50000 418.400000
4314 12639 4315 1 109.50000 418.400000
4314 12639 4316 1 109.50000 418.400000
4315 12639 4316 1 109.50000 418.400000
4317 12640 4318 1 109.50000 418.400000
4317 12640 4319 1 109.50000 418.400000
4317 12640 7759 1 109.50000 418.400000
4318 12640 4319 1 109.50000 418.400000
4318 12640 7759 1 109.50000 418.400000
4319 12640 7759 1 109.50000 418.400000
4321 12641 4322 1 109.50000 418.400000
4321 12641 4323 1 109.50000 418.400000
4321 12641 4324 1 109.50000 418.400000
4322 12641 4323 1 109.50000 418.400000
4322 12641 4324 1 109.50000 418.400000
4323 12641 4324 1 109.50000 418.400000
4325 12642 4326 1 109.50000 418.400000
4325 12642 11202 1 109.50000 418.400000
4325 12642 11364 1 109.50000 418.400000
4326 12642 11202 1 109.50000 418.400000
4326 12642 11364 1 109.50000 418.400000
11202 12642 11364 1 109.50000 418.400000
4327 12643 4328 1 109.50000 418.400000
4327 12643 4329 1 109.50000 418.400000
4327 12643 4330 1 109.50000 418.400000
4328 12643 4329 1 109.50000 418.400000
4328 12643 4330 1 109.50000 418.400000
4329 12643 4330 1 109.50000 418.400000
4331 12644 4332 1 109.50000 418.400000
4331 12644 4333 1 109.50000 418.400000
4331 12644 4334 1 109.50000 418.400000
4332 12644 4333 1 109.50000 418.400000
4332 12644 4334 1 109.50000 418.400000
4333 12644 4334 1 109.50000 418.400000
3556 12645 4335 1 109.50000 418.400000
3556 12645 4336 1 109.50000 418.400000
3556 12645 4337 1 109.50000 418.400000
4335 12645 4336 1 109.50000 418.400000
4335 12645 4337 1 109.50000 418.400000
4336 12645 4337 1 109.50000 418.400000
4338 12646 4339 1 109.50000 418.400000
4338 12646 4340 1 109.50000 418.400000
4338 12646 11295 1 109.50000 418.400000
4339 12646 4340 1 109.50000 418.400000
4339 12646 11295 1 109.50000 418.400000
4340 12646 11295 1 109.50000 418.400000
4341 12647 4342 1 109.50000 418.400000
4341 12647 4343 1 109.50000 418.400000
4341 12647 4344 1 109.50000 418.400000
4342 12647 4343 1 109.50000 418.400000
4342 12647 4344 1 109.50000 418.400000
4343 12647 4344 1 109.50000 418.400000
4345 12648 4346 1 109.50000 418.400000
4345 12648 4347 1 109.50000 418.400000
4345 12648 4348 1 109.50000 418.400000
4346 12648 4347 1 109.50000 418.400000
4346 12648 4348 1 109.50000 418.400000
4347 12648 4348 1 109.50000 418.400000
4349 12649 4350 1 109.50000 418.400000
4349 12649 4351 1 109.50000 418.400000
4349 12649 4352 1 109.50000 418.400000
4350 12649 4351 1 109.50000 418.400000
4350 12649 4352 1 109.50000 418.400000
4351 12649 4352 1 109.50000 418.400000
4353 12650 4354 1 109.50000 418.400000
4353 12650 4355 1 109.50000 418.400000
4353 12650 4356 1 109.50000 418.400000
4354 12650 4355 1 109.50000 418.400000
4354 12650 4356 1 109.50000 418.400000
4355 12650 4356 1 109.50000 418.400000
4357 12651 4358 1 109.50000 418.400000
4357 12651 4359 1 109.50000 418.400000
4357 12651 4360 1 109.50000 418.400000
4358 12651 4359 1 109.50000 418.400000
4358 12651 4360 1 109.50000 418.400000
4359 12651 4360 1 109.50000 418.400000
4361 12652 4362 1 109.50000 418.400000
4361 12652 4363 1 109.50000 418.400000
4361 12652 4364 1 109.50000 418.400000
4362 12652 4363 1 109.50000 418.400000
4362 12652 4364 1 109.50000 418.400000
4363 12652 4364 1 109.50000 418.400000
4365 12653 4366 1 109.50000 418.400000
4365 12653 4367 1 109.50000 418.400000
4365 12653 4368 1 109.50000 418.400000
4366 12653 4367 1 109.50000 418.400000
4366 12653 4368 1 109.50000 418.400000
4367 12653 4368 1 109.50000 418.400000
757 12654 4369 1 109.50000 418.400000
757 12654 4370 1 109.50000 418.400000
757 12654 4371 1 109.50000 418.400000
4369 12654 4370 1 109.50000 418.400000
4369 12654 4371 1 109.50000 418.400000
4370 12654 4371 1 109.50000 418.400000
114 12655 4143 1 109.50000 418.400000
114 12655 4372 1 109.50000 418.400000
114 12655 4373 1 109.50000 418.400000
4143 12655 4372 1 109.50000 418.400000
4143 12655 4373 1 109.50000 418.400000
4372 12655 4373 1 109.50000 418.400000
3088 12656 3574 1 109.50000 418.400000
3088 12656 4375 1 109.50000 418.400000
3088 12656 4376 1 109.50000 418.400000
3574 12656 4375 1 109.50000 418.400000
3574 12656 4376 1 109.50000 418.400000
4375 12656 4376 1 109.50000 418.400000
675 12657 4377 1 109.50000 418.400000
675 12657 4378 1 109.50000 418.400000
675 12657 4379 1 109.50000 418.400000
4377 12657 4378 1 109.50000 418.400000
4377 12657 4379 1 109.50000 418.400000
4378 12657 4379 1 109.50000 418.400000
999 12658 3664 1 109.50000 418.400000
999 12658 4380 1 109.50000 418.400000
999 12658 4381 1 109.50000 418.400000
3664 12658 4380 1 109.50000 418.400000
3664 12658 4381 1 109.50000 418.400000
4380 12658 4381 1 109.50000 418.400000
4089 12659 4382 1 109.50000 418.400000
4089 12659 4383 1 109.50000 418.400000
4089 12659 4384 1 109.50000 418.400000
4382 12659 4383 1 109.50000 418.400000
4382 12659 4384 1 109.50000 418.400000
4383 12659 4384 1 109.50000 418.400000
4385 12660 4386 1 109.50000 418.400000
4385 12660 4387 1 109.50000 418.400000
4385 12660 4388 1 109.50000 418.400000
4386 12660 4387 1 109.50000 418.400000
4386 12660 4388 1 109.50000 418.400000
4387 12660 4388 1 109.50000 418.400000
664 12661 2529 1 109.50000 418.400000
664 12661 4389 1 109.50000 418.400000
664 12661 4390 1 109.50000 418.400000
2529 12661 4389 1 109.50000 418.400000
2529 12661 4390 1 109.50000 418.400000
4389 12661 4390 1 109.50000 418.400000
1338 12662 4391 1 109.50000 418.400000
1338 12662 4393 1 109.50000 418.400000
1338 12662 9172 1 109.50000 418.400000
4391 12662 4393 1 109.50000 418.400000
4391 12662 9172 1 109.50000 418.400000
4393 12662 9172 1 109.50000 418.400000
4394 12663 4395 1 109.50000 418.400000
4394 12663 4396 1 109.50000 418.400000
4394 12663 4397 1 109.50000 418.400000
4395 12663 4396 1 109.50000 418.400000
4395 12663 4397 1 109.50000 418.400000
4396 12663 4397 1 109.50000 418.400000
2778 12664 4401 1 109.50000 418.400000
2778 12664 4402 1 109.50000 418.400000
2778 12664 4403 1 109.50000 418.400000
4401 12664 4402 1 109.50000 418.400000
4401 12664 4403 1 109.50000 418.400000
4402 12664 4403 1 109.50000 418.400000
4245 12665 4404 1 109.50000 418.400000
4245 12665 4405 1 109.50000 418.400000
4245 12665 4406 1 109.50000 418.400000
4404 12665 4405 1 109.50000 418.400000
4404 12665 4406 1 109.50000 418.400000
4405 12665 4406 1 109.50000 418.400000
571 12666 4407 1 109.50000 418.400000
571 12666 4408 1 109.50000 418.400000
571 12666 4409 1 109.50000 418.400000
4407 12666 4408 1 109.50000 418.400000
4407 12666 4409 1 109.50000 418.400000
4408 12666 4409 1 109.50000 418.400000
1203 12667 4410 1 109.50000 418.400000
1203 12667 4411 1 109.50000 418.400000
1203 12667 4412 1 109.50000 418.400000
4410 12667 4411 1 109.50000 418.400000
4410 12667 4412 1 109.50000 418.400000
4411 12667 4412 1 109.50000 418.400000
4413 12668 4414 1 109.50000 418.400000
4413 12668 4415 1 109.50000 418.400000
4413 12668 4416 1 109.50000 418.400000
4414 12668 4415 1 109.50000 418.400000
4414 12668 4416 1 109.50000 418.400000
4415 12668 4416 1 109.50000 418.400000
3407 12669 3408 1 109.50000 418.400000
3407 12669 4417 1 109.50000 418.400000
3407 12669 4418 1 109.50000 418.400000
3408 12669 4417 1 109.50000 418.400000
3408 12669 4418 1 109.50000 418.400000
4417 12669 4418 1 109.50000 418.400000
3798 12670 4420 1 109.50000 418.400000
3798 12670 4421 1 109.50000 418.400000
3798 12670 4422 1 109.50000 418.400000
4420 12670 4421 1 109.50000 418.400000
4420 12670 4422 1 109.50000 418.400000
4421 12670 4422 1 109.50000 418.400000
2375 12671 4309 1 109.50000 418.400000
2375 12671 4423 1 109.50000 418.400000
2375 12671 4424 1 109.50000 418.400000
4309 12671 4423 1 109.50000 418.400000
4309 12671 4424 1 109.50000 418.400000
4423 12671 4424 1 109.50000 418.400000
1861 12672 4425 1 109.50000 418.400000
1861 12672 4426 1 109.50000 418.400000
1861 12672 4427 1 109.50000 418.400000
4425 12672 4426 1 109.50000 418.400000
4425 12672 4427 1 109.50000 418.400000
4426 12672 4427 1 109.50000 418.400000
4428 12673 4429 1 109.50000 418.400000
4428 12673 4430 1 109.50000 418.400000
4428 12673 4431 1 109.50000 418.400000
4429 12673 4430 1 109.50000 418.400000
4429 12673 4431 1 109.50000 418.400000
4430 12673 4431 1 109.50000 418.400000
2217 12674 4435 1 109.50000 418.400000
2217 12674 11203 1 109.50000 418.400000
2217 12674 11272 1 109.50000 418.400000
4435 12674 11203 1 109.50000 418.400000
4435 12674 11272 1 109.50000 418.400000
11203 12674 11272 1 109.50000 418.400000
4436 12675 4437 1 109.50000 418.400000
4436 12675 4438 1 109.50000 418.400000
4436 12675 4439 1 109.50000 418.400000
4437 12675 4438 1 109.50000 418.400000
4437 12675 4439 1 109.50000 418.400000
4438 12675 4439 1 109.50000 418.400000
1833 12676 3721 1 109.50000 418.400000
1833 12676 4440 1 109.50000 418.400000
1833 12676 4441 1 109.50000 418.400000
3721 12676 4440 1 109.50000 418.400000
3721 12676 4441 1 109.50000 418.400000
4440 12676 4441 1 109.50000 418.400000
4442 12677 4443 1 109.50000 418.400000
4442 12677 4444 1 109.50000 418.400000
4442 12677 4445 1 109.50000 418.400000
4443 12677 4444 1 109.50000 418.400000
4443 12677 4445 1 109.50000 418.400000
4444 12677 4445 1 109.50000 418.400000
4446 12678 4447 1 109.50000 418.400000
4446 12678 4448 1 109.50000 418.400000
4446 12678 4449 1 109.50000 418.400000
4447 12678 4448 1 109.50000 418.400000
4447 12678 4449 1 109.50000 418.400000
4448 12678 4449 1 109.50000 418.400000
2184 12679 4450 1 109.50000 418.400000
2184 12679 4451 1 109.50000 418.400000
2184 12679 4452 1 109.50000 418.400000
4450 12679 4451 1 109.50000 418.400000
4450 12679 4452 1 109.50000 418.400000
4451 12679 4452 1 109.50000 418.400000
2483 12680 4453 1 109.50000 418.400000
2483 12680 4454 1 109.50000 418.400000
2483 12680 4455 1 109.50000 418.400000
4453 12680 4454 1 109.50000 418.400000
4453 12680 4455 1 109.50000 418.400000
4454 12680 4455 1 109.50000 418.400000
1015 12681 4456 1 109.50000 418.400000
1015 12681 4457 1 109.50000 418.400000
1015 12681 4458 1 109.50000 418.400000
4456 12681 4457 1 109.50000 418.400000
4456 12681 4458 1 109.50000 418.400000
4457 12681 4458 1 109.50000 418.400000
1055 12682 4285 1 109.50000 418.400000
1055 12682 4459 1 109.50000 418.400000
1055 12682 4460 1 109.50000 418.400000
4285 12682 4459 1 109.50000 418.400000
4285 12682 4460 1 109.50000 418.400000
4459 12682 4460 1 109.50000 418.400000
2487 12683 4461 1 109.50000 418.400000
2487 12683 4462 1 109.50000 418.400000
2487 12683 4463 1 109.50000 418.400000
4461 12683 4462 1 109.50000 418.400000
4461 12683 4463 1 109.50000 418.400000
4462 12683 4463 1 109.50000 418.400000
3350 12684 4464 1 109.50000 418.400000
3350 12684 4465 1 109.50000 418.400000
3350 12684 10518 1 109.50000 418.400000
4464 12684 4465 1 109.50000 418.400000
4464 12684 10518 1 109.50000 418.400000
4465 12684 10518 1 109.50000 418.400000
3271 12685 4466 1 109.50000 418.400000
3271 12685 4467 1 109.50000 418.400000
3271 12685 4468 1 109.50000 418.400000
4466 12685 4467 1 109.50000 418.400000
4466 12685 4468 1 109.50000 418.400000
4467 12685 4468 1 109.50000 418.400000
4469 12686 4470 1 109.50000 418.400000
4469 12686 4471 1 109.50000 418.400000
4469 12686 4472 1 109.50000 418.400000
4470 12686 4471 1 109.50000 418.400000
4470 12686 4472 1 109.50000 418.400000
4471 12686 4472 1 109.50000 418.400000
310 12687 4473 1 109.50000 418.400000
310 12687 4474 1 109.50000 418.400000
310 12687 4475 1 109.50000 418.400000
4473 12687 4474 1 109.50000 418.400000
4473 12687 4475 1 109.50000 418.400000
4474 12687 4475 1 109.50000 418.400000
4476 12688 4477 1 109.50000 418.400000
4476 12688 4478 1 109.50000 418.400000
4476 12688 11325 1 109.50000 418.400000
4477 12688 4478 1 109.50000 418.400000
4477 12688 11325 1 109.50000 418.400000
4478 12688 11325 1 109.50000 418.400000
4482 12689 4483 1 109.50000 418.400000
4482 12689 4484 1 109.50000 418.400000
4482 12689 4485 1 109.50000 418.400000
4483 12689 4484 1 109.50000 418.400000
4483 12689 4485 1 109.50000 418.400000
4484 12689 4485 1 109.50000 418.400000
4486 12690 4487 1 109.50000 418.400000
4486 12690 4488 1 109.50000 418.400000
4486 12690 4489 1 109.50000 418.400000
4487 12690 4488 1 109.50000 418.400000
4487 12690 4489 1 109.50000 418.400000
4488 12690 4489 1 109.50000 418.400000
4490 12691 4491 1 109.50000 418.400000
4490 12691 4492 1 109.50000 418.400000
4490 12691 4493 1 109.50000 418.400000
4491 12691 4492 1 109.50000 418.400000
4491 12691 4493 1 109.50000 418.400000
4492 12691 4493 1 109.50000 418.400000
4494 12692 4496 1 109.50000 418.400000
4494 12692 4497 1 109.50000 418.400000
4494 12692 9510 1 109.50000 418.400000
4496 12692 4497 1 109.50000 418.400000
4496 12692 9510 1 109.50000 418.400000
4497 12692 9510 1 109.50000 418.400000
893 12693 4498 1 109.50000 418.400000
893 12693 4499 1 109.50000 418.400000
893 12693 4500 1 109.50000 418.400000
4498 12693 4499 1 109.50000 418.400000
4498 12693 4500 1 109.50000 418.400000
4499 12693 4500 1 109.50000 418.400000
2160 12694 4501 1 109.50000 418.400000
2160 12694 4502 1 109.50000 418.400000
2160 12694 4503 1 109.50000 418.400000
4501 12694 4502 1 109.50000 418.400000
4501 12694 4503 1 109.50000 418.400000
4502 12694 4503 1 109.50000 418.400000
3266 12695 4504 1 109.50000 418.400000
3266 12695 4505 1 109.50000 418.400000
3266 12695 4506 1 109.50000 418.400000
4504 12695 4505 1 109.50000 418.400000
4504 12695 4506 1 109.50000 418.400000
4505 12695 4506 1 109.50000 418.400000
2879 12696 3961 1 109.50000 418.400000
2879 12696 4507 1 109.50000 418.400000
2879 12696 4508 1 109.50000 418.400000
3961 12696 4507 1 109.50000 418.400000
3961 12696 4508 1 109.50000 418.400000
4507 12696 4508 1 109.50000 418.400000
4518 12697 4519 1 109.50000 418.400000
4518 12697 4520 1 109.50000 418.400000
4518 12697 4521 1 109.50000 418.400000
4519 12697 4520 1 109.50000 418.400000
4519 12697 4521 1 109.50000 418.400000
4520 12697 4521 1 109.50000 418.400000
529 12698 2344 1 109.50000 418.400000
529 12698 4522 1 109.50000 418.400000
529 12698 4523 1 109.50000 418.400000
2344 12698 4522 1 109.50000 418.400000
2344 12698 4523 1 109.50000 418.400000
4522 12698 4523 1 109.50000 418.400000
2214 12699 3701 1 109.50000 418.400000
2214 12699 4524 1 109.50000 418.400000
2214 12699 4525 1 109.50000 418.400000
3701 12699 4524 1 109.50000 418.400000
3701 12699 4525 1 109.50000 418.400000
4524 12699 4525 1 109.50000 418.400000
4526 12700 4527 1 109.50000 418.400000
4526 12700 4528 1 109.50000 418.400000
4526 12700 4529 1 109.50000 418.400000
4527 12700 4528 1 109.50000 418.400000
4527 12700 4529 1 109.50000 418.400000
4528 12700 4529 1 109.50000 418.400000
796 12701 4530 1 109.50000 418.400000
796 12701 9194 1 109.50000 418.400000
796 12701 11239 1 109.50000 418.400000
4530 12701 9194 1 109.50000 418.400000
4530 12701 11239 1 109.50000 418.400000
9194 12701 11239 1 109.50000 418.400000
4371 12702 4531 1 109.50000 418.400000
4371 12702 4532 1 109.50000 418.400000
4371 12702 4533 1 109.50000 418.400000
4531 12702 4532 1 109.50000 418.400000
4531 12702 4533 1 109.50000 418.400000
4532 12702 4533 1 109.50000 418.400000
4534 12703 4535 1 109.50000 418.400000
4534 12703 11207 1 109.50000 418.400000
4534 12703 11351 1 109.50000 418.400000
4535 12703 11207 1 109.50000 418.400000
4535 12703 11351 1 109.50000 418.400000
11207 12703 11351 1 109.50000 418.400000
12 12704 4536 1 109.50000 418.400000
12 12704 4537 1 109.50000 418.400000
12 12704 4538 1 109.50000 418.400000
4536 12704 4537 1 109.50000 418.400000
4536 12704 4538 1 109.50000 418.400000
4537 12704 4538 1 109.50000 418.400000
147 12705 4539 1 109.50000 418.400000
147 12705 11208 1 109.50000 418.400000
147 12705 11213 1 109.50000 418.400000
4539 12705 11208 1 109.50000 418.400000
4539 12705 11213 1 109.50000 418.400000
11208 12705 11213 1 109.50000 418.400000
3231 12706 4540 1 109.50000 418.400000
3231 12706 4541 1 109.50000 418.400000
3231 12706 4542 1 109.50000 418.400000
4540 12706 4541 1 109.50000 418.400000
4540 12706 4542 1 109.50000 418.400000
4541 12706 4542 1 109.50000 418.400000
3759 12707 4543 1 109.50000 418.400000
3759 12707 4544 1 109.50000 418.400000
3759 12707 4545 1 109.50000 418.400000
4543 12707 4544 1 109.50000 418.400000
4543 12707 4545 1 109.50000 418.400000
4544 12707 4545 1 109.50000 418.400000
4546 12708 4547 1 109.50000 418.400000
4546 12708 4548 1 109.50000 418.400000
4546 12708 4549 1 109.50000 418.400000
4547 12708 4548 1 109.50000 418.400000
4547 12708 4549 1 109.50000 418.400000
4548 12708 4549 1 109.50000 418.400000
2289 12709 4550 1 109.50000 418.400000
2289 12709 4551 1 109.50000 418.400000
2289 12709 4552 1 109.50000 418.400000
4550 12709 4551 1 109.50000 418.400000
4550 12709 4552 1 109.50000 418.400000
4551 12709 4552 1 109.50000 418.400000
4554 12710 4555 1 109.50000 418.400000
4554 12710 4556 1 109.50000 418.400000
4554 12710 9056 1 109.50000 418.400000
4555 12710 4556 1 109.50000 418.400000
4555 12710 9056 1 109.50000 418.400000
4556 12710 9056 1 109.50000 418.400000
2614 12711 4557 1 109.50000 418.400000
2614 12711 4558 1 109.50000 418.400000
2614 12711 4559 1 109.50000 418.400000
4557 12711 4558 1 109.50000 418.400000
4557 12711 4559 1 109.50000 418.400000
4558 12711 4559 1 109.50000 418.400000
4302 12712 4303 1 109.50000 418.400000
4302 12712 4561 1 109.50000 418.400000
4302 12712 4562 1 109.50000 418.400000
4303 12712 4561 1 109.50000 418.400000
4303 12712 4562 1 109.50000 418.400000
4561 12712 4562 1 109.50000 418.400000
394 12713 4462 1 109.50000 418.400000
394 12713 4563 1 109.50000 418.400000
394 12713 4564 1 109.50000 418.400000
4462 12713 4563 1 109.50000 418.400000
4462 12713 4564 1 109.50000 418.400000
4563 12713 4564 1 109.50000 418.400000
415 12714 3031 1 109.50000 418.400000
415 12714 4565 1 109.50000 418.400000
415 12714 4566 1 109.50000 418.400000
3031 12714 4565 1 109.50000 418.400000
3031 12714 4566 1 109.50000 418.400000
4565 12714 4566 1 109.50000 418.400000
754 12715 2128 1 109.50000 418.400000
754 12715 2917 1 109.50000 418.400000
754 12715 4567 1 109.50000 418.400000
2128 12715 2917 1 109.50000 418.400000
2128 12715 4567 1 109.50000 418.400000
2917 12715 4567 1 109.50000 418.400000
4568 12716 4569 1 109.50000 418.400000
4568 12716 4570 1 109.50000 418.400000
4568 12716 4571 1 109.50000 418.400000
4569 12716 4570 1 109.50000 418.400000
4569 12716 4571 1 109.50000 418.400000
4570 12716 4571 1 109.50000 418.400000
3517 12717 4572 1 109.50000 418.400000
3517 12717 4573 1 109.50000 418.400000
3517 12717 4574 1 109.50000 418.400000
4572 12717 4573 1 109.50000 418.400000
4572 12717 4574 1 109.50000 418.400000
4573 12717 4574 1 109.50000 418.400000
4575 12718 4576 1 109.50000 418.400000
4575 12718 4577 1 109.50000 418.400000
4575 12718 4578 1 109.50000 418.400000
4576 12718 4577 1 109.50000 418.400000
4576 12718 4578 1 109.50000 418.400000
4577 12718 4578 1 109.50000 418.400000
4579 12719 4580 1 109.50000 418.400000
4579 12719 4581 1 109.50000 418.400000
4579 12719 4582 1 109.50000 418.400000
4580 12719 4581 1 109.50000 418.400000
4580 12719 4582 1 109.50000 418.400000
4581 12719 4582 1 109.50000 418.400000
2219 12720 3346 1 109.50000 418.400000
2219 12720 4583 1 109.50000 418.400000
2219 12720 8090 1 109.50000 418.400000
3346 12720 4583 1 109.50000 418.400000
3346 12720 8090 1 109.50000 418.400000
4583 12720 8090 1 109.50000 418.400000
2454 12721 2843 1 109.50000 418.400000
2454 12721 4364 1 109.50000 418.400000
2454 12721 4585 1 109.50000 418.400000
2843 12721 4364 1 109.50000 418.400000
2843 12721 4585 1 109.50000 418.400000
4364 12721 4585 1 109.50000 418.400000
4591 12722 9469 1 109.50000 418.400000
4591 12722 10531 1 109.50000 418.400000
4591 12722 10532 1 109.50000 418.400000
9469 12722 10531 1 109.50000 418.400000
9469 12722 10532 1 109.50000 418.400000
10531 12722 10532 1 109.50000 418.400000
2864 12723 4594 1 109.50000 418.400000
2864 12723 4595 1 109.50000 418.400000
2864 12723 10285 1 109.50000 418.400000
4594 12723 4595 1 109.50000 418.400000
4594 12723 10285 1 109.50000 418.400000
4595 12723 10285 1 109.50000 418.400000
120 12724 4596 1 109.50000 418.400000
120 12724 4597 1 109.50000 418.400000
120 12724 4598 1 109.50000 418.400000
4596 12724 4597 1 109.50000 418.400000
4596 12724 4598 1 109.50000 418.400000
4597 12724 4598 1 109.50000 418.400000
4599 12725 4600 1 109.50000 418.400000
4599 12725 4601 1 109.50000 418.400000
4599 12725 4602 1 109.50000 418.400000
4600 12725 4601 1 109.50000 418.400000
4600 12725 4602 1 109.50000 418.400000
4601 12725 4602 1 109.50000 418.400000
3219 12726 4603 1 109.50000 418.400000
3219 12726 4604 1 109.50000 418.400000
3219 12726 11397 1 109.50000 418.400000
4603 12726 4604 1 109.50000 418.400000
4603 12726 11397 1 109.50000 418.400000
4604 12726 11397 1 109.50000 418.400000
399 12727 1946 1 109.50000 418.400000
399 12727 4605 1 109.50000 418.400000
399 12727 4606 1 109.50000 418.400000
1946 12727 4605 1 109.50000 418.400000
1946 12727 4606 1 109.50000 418.400000
4605 12727 4606 1 109.50000 418.400000
4609 12728 4610 1 109.50000 418.400000
4609 12728 4611 1 109.50000 418.400000
4609 12728 4612 1 109.50000 418.400000
4610 12728 4611 1 109.50000 418.400000
4610 12728 4612 1 109.50000 418.400000
4611 12728 4612 1 109.50000 418.400000
4613 12729 4614 1 109.50000 418.400000
4613 12729 4615 1 109.50000 418.400000
4613 12729 4616 1 109.50000 418.400000
4614 12729 4615 1 109.50000 418.400000
4614 12729 4616 1 109.50000 418.400000
4615 12729 4616 1 109.50000 418.400000
140 12730 4617 1 109.50000 418.400000
140 12730 4618 1 109.50000 418.400000
140 12730 4619 1 109.50000 418.400000
4617 12730 4618 1 109.50000 418.400000
4617 12730 4619 1 109.50000 418.400000
4618 12730 4619 1 109.50000 418.400000
2542 12731 4620 1 109.50000 418.400000
2542 12731 4621 1 109.50000 418.400000
2542 12731 4622 1 109.50000 418.400000
4620 12731 4621 1 109.50000 418.400000
4620 12731 4622 1 109.50000 418.400000
4621 12731 4622 1 109.50000 418.400000
753 12732 4179 1 109.50000 418.400000
753 12732 4626 1 109.50000 418.400000
753 12732 4627 1 109.50000 418.400000
4179 12732 4626 1 109.50000 418.400000
4179 12732 4627 1 109.50000 418.400000
4626 12732 4627 1 109.50000 418.400000
1393 12733 4420 1 109.50000 418.400000
1393 12733 4628 1 109.50000 418.400000
1393 12733 4629 1 109.50000 418.400000
4420 12733 4628 1 109.50000 418.400000
4420 12733 4629 1 109.50000 418.400000
4628 12733 4629 1 109.50000 418.400000
4630 12734 4631 1 109.50000 418.400000
4630 12734 4632 1 109.50000 418.400000
4630 12734 4633 1 109.50000 418.400000
4631 12734 4632 1 109.50000 418.400000
4631 12734 4633 1 109.50000 418.400000
4632 12734 4633 1 109.50000 418.400000
1847 12735 3783 1 109.50000 418.400000
1847 12735 4634 1 109.50000 418.400000
1847 12735 4635 1 109.50000 418.400000
3783 12735 4634 1 109.50000 418.400000
3783 12735 4635 1 109.50000 418.400000
4634 12735 4635 1 109.50000 418.400000
186 12736 543 1 109.50000 418.400000
186 12736 544 1 109.50000 418.400000
186 12736 545 1 109.50000 418.400000
543 12736 544 1 109.50000 418.400000
543 12736 545 1 109.50000 418.400000
544 12736 545 1 109.50000 418.400000
4641 12737 4642 1 109.50000 418.400000
4641 12737 4643 1 109.50000 418.400000
4641 12737 4644 1 109.50000 418.400000
4642 12737 4643 1 109.50000 418.400000
4642 12737 4644 1 109.50000 418.400000
4643 12737 4644 1 109.50000 418.400000
1801 12738 4645 1 109.50000 418.400000
1801 12738 4646 1 109.50000 418.400000
1801 12738 4647 1 109.50000 418.400000
4645 12738 4646 1 109.50000 418.400000
4645 12738 4647 1 109.50000 418.400000
4646 12738 4647 1 109.50000 418.400000
3623 12739 4648 1 109.50000 418.400000
3623 12739 4649 1 109.50000 418.400000
3623 12739 4650 1 109.50000 418.400000
4648 12739 4649 1 109.50000 418.400000
4648 12739 4650 1 109.50000 418.400000
4649 12739 4650 1 109.50000 418.400000
4046 12740 4651 1 109.50000 418.400000
4046 12740 4652 1 109.50000 418.400000
4046 12740 4653 1 109.50000 418.400000
4651 12740 4652 1 109.50000 418.400000
4651 12740 4653 1 109.50000 418.400000
4652 12740 4653 1 109.50000 418.400000
4654 12741 4655 1 109.50000 418.400000
4654 12741 4656 1 109.50000 418.400000
4654 12741 4657 1 109.50000 418.400000
4655 12741 4656 1 109.50000 418.400000
4655 12741 4657 1 109.50000 418.400000
4656 12741 4657 1 109.50000 418.400000
2561 12742 2745 1 109.50000 418.400000
2561 12742 4658 1 109.50000 418.400000
2561 12742 4659 1 109.50000 418.400000
2745 12742 4658 1 109.50000 418.400000
2745 12742 4659 1 109.50000 418.400000
4658 12742 4659 1 109.50000 418.400000
4660 12743 4661 1 109.50000 418.400000
4660 12743 4662 1 109.50000 418.400000
4660 12743 4663 1 109.50000 418.400000
4661 12743 4662 1 109.50000 418.400000
4661 12743 4663 1 109.50000 418.400000
4662 12743 4663 1 109.50000 418.400000
3758 12744 4664 1 109.50000 418.400000
3758 12744 4665 1 109.50000 418.400000
3758 12744 4666 1 109.50000 418.400000
4664 12744 4665 1 109.50000 418.400000
4664 12744 4666 1 109.50000 418.400000
4665 12744 4666 1 109.50000 418.400000
4667 12745 4668 1 109.50000 418.400000
4667 12745 4669 1 109.50000 418.400000
4667 12745 4670 1 109.50000 418.400000
4668 12745 4669 1 109.50000 418.400000
4668 12745 4670 1 109.50000 418.400000
4669 12745 4670 1 109.50000 418.400000
4422 12746 4671 1 109.50000 418.400000
4422 12746 4672 1 109.50000 418.400000
4422 12746 4673 1 109.50000 418.400000
4671 12746 4672 1 109.50000 418.400000
4671 12746 4673 1 109.50000 418.400000
4672 12746 4673 1 109.50000 418.400000
4674 12747 4675 1 109.50000 418.400000
4674 12747 4677 1 109.50000 418.400000
4674 12747 6369 1 109.50000 418.400000
4675 12747 4677 1 109.50000 418.400000
4675 12747 6369 1 109.50000 418.400000
4677 12747 6369 1 109.50000 418.400000
4678 12748 4679 1 109.50000 418.400000
4678 12748 4680 1 109.50000 418.400000
4678 12748 4681 1 109.50000 418.400000
4679 12748 4680 1 109.50000 418.400000
4679 12748 4681 1 109.50000 418.400000
4680 12748 4681 1 109.50000 418.400000
96 12749 2613 1 109.50000 418.400000
96 12749 4682 1 109.50000 418.400000
96 12749 4683 1 109.50000 418.400000
2613 12749 4682 1 109.50000 418.400000
2613 12749 4683 1 109.50000 418.400000
4682 12749 4683 1 109.50000 418.400000
4684 12750 4685 1 109.50000 418.400000
4684 12750 4686 1 109.50000 418.400000
4684 12750 4687 1 109.50000 418.400000
4685 12750 4686 1 109.50000 418.400000
4685 12750 4687 1 109.50000 418.400000
4686 12750 4687 1 109.50000 418.400000
2685 12751 4688 1 109.50000 418.400000
2685 12751 4689 1 109.50000 418.400000
2685 12751 4690 1 109.50000 418.400000
4688 12751 4689 1 109.50000 418.400000
4688 12751 4690 1 109.50000 418.400000
4689 12751 4690 1 109.50000 418.400000
3592 12752 4649 1 109.50000 418.400000
3592 12752 4694 1 109.50000 418.400000
3592 12752 4695 1 109.50000 418.400000
4649 12752 4694 1 109.50000 418.400000
4649 12752 4695 1 109.50000 418.400000
4694 12752 4695 1 109.50000 418.400000
623 12753 2273 1 109.50000 418.400000
623 12753 4696 1 109.50000 418.400000
623 12753 4697 1 109.50000 418.400000
2273 12753 4696 1 109.50000 418.400000
2273 12753 4697 1 109.50000 418.400000
4696 12753 4697 1 109.50000 418.400000
1474 12754 2833 1 109.50000 418.400000
1474 12754 4698 1 109.50000 418.400000
1474 12754 4699 1 109.50000 418.400000
2833 12754 4698 1 109.50000 418.400000
2833 12754 4699 1 109.50000 418.400000
4698 12754 4699 1 109.50000 418.400000
4262 12755 4702 1 109.50000 418.400000
4262 12755 4703 1 109.50000 418.400000
4262 12755 4704 1 109.50000 418.400000
4702 12755 4703 1 109.50000 418.400000
4702 12755 4704 1 109.50000 418.400000
4703 12755 4704 1 109.50000 418.400000
1082 12756 4705 1 109.50000 418.400000
1082 12756 4706 1 109.50000 418.400000
1082 12756 4707 1 109.50000 418.400000
4705 12756 4706 1 109.50000 418.400000
4705 12756 4707 1 109.50000 418.400000
4706 12756 4707 1 109.50000 418.400000
2497 12757 4708 1 109.50000 418.400000
2497 12757 4709 1 109.50000 418.400000
2497 12757 4710 1 109.50000 418.400000
4708 12757 4709 1 109.50000 418.400000
4708 12757 4710 1 109.50000 418.400000
4709 12757 4710 1 109.50000 418.400000
4711 12758 4712 1 109.50000 418.400000
4711 12758 4713 1 109.50000 418.400000
4711 12758 4714 1 109.50000 418.400000
4712 12758 4713 1 109.50000 418.400000
4712 12758 4714 1 109.50000 418.400000
4713 12758 4714 1 109.50000 418.400000
2594 12759 4083 1 109.50000 418.400000
2594 12759 4715 1 109.50000 418.400000
2594 12759 4716 1 109.50000 418.400000
4083 12759 4715 1 109.50000 418.400000
4083 12759 4716 1 109.50000 418.400000
4715 12759 4716 1 109.50000 418.400000
4717 12760 4718 1 109.50000 418.400000
4717 12760 4719 1 109.50000 418.400000
4717 12760 4720 1 109.50000 418.400000
4718 12760 4719 1 109.50000 418.400000
4718 12760 4720 1 109.50000 418.400000
4719 12760 4720 1 109.50000 418.400000
4721 12761 4722 1 109.50000 418.400000
4721 12761 4723 1 109.50000 418.400000
4721 12761 4724 1 109.50000 418.400000
4722 12761 4723 1 109.50000 418.400000
4722 12761 4724 1 109.50000 418.400000
4723 12761 4724 1 109.50000 418.400000
4725 12762 4726 1 109.50000 418.400000
4725 12762 4727 1 109.50000 418.400000
4725 12762 4728 1 109.50000 418.400000
4726 12762 4727 1 109.50000 418.400000
4726 12762 4728 1 109.50000 418.400000
4727 12762 4728 1 109.50000 418.400000
4557 12763 4729 1 109.50000 418.400000
4557 12763 4730 1 109.50000 418.400000
4557 12763 4731 1 109.50000 418.400000
4729 12763 4730 1 109.50000 418.400000
4729 12763 4731 1 109.50000 418.400000
4730 12763 4731 1 109.50000 418.400000
4732 12764 4733 1 109.50000 418.400000
4732 12764 4734 1 109.50000 418.400000
4732 12764 4735 1 109.50000 418.400000
4733 12764 4734 1 109.50000 418.400000
4733 12764 4735 1 109.50000 418.400000
4734 12764 4735 1 109.50000 418.400000
4738 12765 4739 1 109.50000 418.400000
4738 12765 4740 1 109.50000 418.400000
4738 12765 4741 1 109.50000 418.400000
4739 12765 4740 1 109.50000 418.400000
4739 12765 4741 1 109.50000 418.400000
4740 12765 4741 1 109.50000 418.400000
3547 12766 4742 1 109.50000 418.400000
3547 12766 4743 1 109.50000 418.400000
3547 12766 4744 1 109.50000 418.400000
4742 12766 4743 1 109.50000 418.400000
4742 12766 4744 1 109.50000 418.400000
4743 12766 4744 1 109.50000 418.400000
2565 12767 4144 1 109.50000 418.400000
2565 12767 4745 1 109.50000 418.400000
2565 12767 4746 1 109.50000 418.400000
4144 12767 4745 1 109.50000 418.400000
4144 12767 4746 1 109.50000 418.400000
4745 12767 4746 1 109.50000 418.400000
4112 12768 4747 1 109.50000 418.400000
4112 12768 4748 1 109.50000 418.400000
4112 12768 4749 1 109.50000 418.400000
4747 12768 4748 1 109.50000 418.400000
4747 12768 4749 1 109.50000 418.400000
4748 12768 4749 1 109.50000 418.400000
1616 12769 1815 1 109.50000 418.400000
1616 12769 4750 1 109.50000 418.400000
1616 12769 4751 1 109.50000 418.400000
1815 12769 4750 1 109.50000 418.400000
1815 12769 4751 1 109.50000 418.400000
4750 12769 4751 1 109.50000 418.400000
4723 12770 4752 1 109.50000 418.400000
4723 12770 4753 1 109.50000 418.400000
4723 12770 4754 1 109.50000 418.400000
4752 12770 4753 1 109.50000 418.400000
4752 12770 4754 1 109.50000 418.400000
4753 12770 4754 1 109.50000 418.400000
54 12771 4756 1 109.50000 418.400000
54 12771 4757 1 109.50000 418.400000
54 12771 4758 1 109.50000 418.400000
4756 12771 4757 1 109.50000 418.400000
4756 12771 4758 1 109.50000 418.400000
4757 12771 4758 1 109.50000 418.400000
4288 12772 4759 1 109.50000 418.400000
4288 12772 4761 1 109.50000 418.400000
4288 12772 9073 1 109.50000 418.400000
4759 12772 4761 1 109.50000 418.400000
4759 12772 9073 1 109.50000 418.400000
4761 12772 9073 1 109.50000 418.400000
4713 12773 4762 1 109.50000 418.400000
4713 12773 4763 1 109.50000 418.400000
4713 12773 4764 1 109.50000 418.400000
4762 12773 4763 1 109.50000 418.400000
4762 12773 4764 1 109.50000 418.400000
4763 12773 4764 1 109.50000 418.400000
1679 12774 2482 1 109.50000 418.400000
1679 12774 4133 1 109.50000 418.400000
1679 12774 4765 1 109.50000 418.400000
2482 12774 4133 1 109.50000 418.400000
2482 12774 4765 1 109.50000 418.400000
4133 12774 4765 1 109.50000 418.400000
4606 12775 4766 1 109.50000 418.400000
4606 12775 4767 1 109.50000 418.400000
4606 12775 4768 1 109.50000 418.400000
4766 12775 4767 1 109.50000 418.400000
4766 12775 4768 1 109.50000 418.400000
4767 12775 4768 1 109.50000 418.400000
1665 12776 2646 1 109.50000 418.400000
1665 12776 4769 1 109.50000 418.400000
1665 12776 4770 1 109.50000 418.400000
2646 12776 4769 1 109.50000 418.400000
2646 12776 4770 1 109.50000 418.400000
4769 12776 4770 1 109.50000 418.400000
4773 12777 4774 1 109.50000 418.400000
4773 12777 4775 1 109.50000 418.400000
4773 12777 4776 1 109.50000 418.400000
4774 12777 4775 1 109.50000 418.400000
4774 12777 4776 1 109.50000 418.400000
4775 12777 4776 1 109.50000 418.400000
4777 12778 4778 1 109.50000 418.400000
4777 12778 4779 1 109.50000 418.400000
4777 12778 4780 1 109.50000 418.400000
4778 12778 4779 1 109.50000 418.400000
4778 12778 4780 1 109.50000 418.400000
4779 12778 4780 1 109.50000 418.400000
3001 12779 4072 1 109.50000 418.400000
3001 12779 4781 1 109.50000 418.400000
3001 12779 4782 1 109.50000 418.400000
4072 12779 4781 1 109.50000 418.400000
4072 12779 4782 1 109.50000 418.400000
4781 12779 4782 1 109.50000 418.400000
797 12780 4322 1 109.50000 418.400000
797 12780 4784 1 109.50000 418.400000
797 12780 4785 1 109.50000 418.400000
4322 12780 4784 1 109.50000 418.400000
4322 12780 4785 1 109.50000 418.400000
4784 12780 4785 1 109.50000 418.400000
379 12781 4786 1 109.50000 418.400000
379 12781 4787 1 109.50000 418.400000
379 12781 4788 1 109.50000 418.400000
4786 12781 4787 1 109.50000 418.400000
4786 12781 4788 1 109.50000 418.400000
4787 12781 4788 1 109.50000 418.400000
2021 12782 4789 1 109.50000 418.400000
2021 12782 6116 1 109.50000 418.400000
2021 12782 11156 1 109.50000 418.400000
4789 12782 6116 1 109.50000 418.400000
4789 12782 11156 1 109.50000 418.400000
6116 12782 11156 1 109.50000 418.400000
4790 12783 4791 1 109.50000 418.400000
4790 12783 4792 1 109.50000 418.400000
4790 12783 11177 1 109.50000 418.400000
4791 12783 4792 1 109.50000 418.400000
4791 12783 11177 1 109.50000 418.400000
4792 12783 11177 1 109.50000 418.400000
2971 12784 2972 1 109.50000 418.400000
2971 12784 4793 1 109.50000 418.400000
2971 12784 4794 1 109.50000 418.400000
2972 12784 4793 1 109.50000 418.400000
2972 12784 4794 1 109.50000 418.400000
4793 12784 4794 1 109.50000 418.400000
4796 12785 4797 1 109.50000 418.400000
4796 12785 4798 1 109.50000 418.400000
4796 12785 4799 1 109.50000 418.400000
4797 12785 4798 1 109.50000 418.400000
4797 12785 4799 1 109.50000 418.400000
4798 12785 4799 1 109.50000 418.400000
2732 12786 3337 1 109.50000 418.400000
2732 12786 4800 1 109.50000 418.400000
2732 12786 11186 1 109.50000 418.400000
3337 12786 4800 1 109.50000 418.400000
3337 12786 11186 1 109.50000 418.400000
4800 12786 11186 1 109.50000 418.400000
4801 12787 4803 1 109.50000 418.400000
4801 12787 6161 1 109.50000 418.400000
4801 12787 7451 1 109.50000 418.400000
4803 12787 6161 1 109.50000 418.400000
4803 12787 7451 1 109.50000 418.400000
6161 12787 7451 1 109.50000 418.400000
2791 12788 2793 1 109.50000 418.400000
2791 12788 4804 1 109.50000 418.400000
2791 12788 4805 1 109.50000 418.400000
2793 12788 4804 1 109.50000 418.400000
2793 12788 4805 1 109.50000 418.400000
4804 12788 4805 1 109.50000 418.400000
4810 12789 4812 1 109.50000 418.400000
4810 12789 8212 1 109.50000 418.400000
4810 12789 11275 1 109.50000 418.400000
4812 12789 8212 1 109.50000 418.400000
4812 12789 11275 1 109.50000 418.400000
8212 12789 11275 1 109.50000 418.400000
4815 12790 4816 1 109.50000 418.400000
4815 12790 11211 1 109.50000 418.400000
4815 12790 11249 1 109.50000 418.400000
4816 12790 11211 1 109.50000 418.400000
4816 12790 11249 1 109.50000 418.400000
11211 12790 11249 1 109.50000 418.400000
3725 12791 4818 1 109.50000 418.400000
3725 12791 4819 1 109.50000 418.400000
3725 12791 4820 1 109.50000 418.400000
4818 12791 4819 1 109.50000 418.400000
4818 12791 4820 1 109.50000 418.400000
4819 12791 4820 1 109.50000 418.400000
4821 12792 4822 1 109.50000 418.400000
4821 12792 4823 1 109.50000 418.400000
4821 12792 4824 1 109.50000 418.400000
4822 12792 4823 1 109.50000 418.400000
4822 12792 4824 1 109.50000 418.400000
4823 12792 4824 1 109.50000 418.400000
4825 12793 4826 1 109.50000 418.400000
4825 12793 4827 1 109.50000 418.400000
4825 12793 11340 1 109.50000 418.400000
4826 12793 4827 1 109.50000 418.400000
4826 12793 11340 1 109.50000 418.400000
4827 12793 11340 1 109.50000 418.400000
1424 12794 4828 1 109.50000 418.400000
1424 12794 4829 1 109.50000 418.400000
1424 12794 4830 1 109.50000 418.400000
4828 12794 4829 1 109.50000 418.400000
4828 12794 4830 1 109.50000 418.400000
4829 12794 4830 1 109.50000 418.400000
4831 12795 4832 1 109.50000 418.400000
4831 12795 4833 1 109.50000 418.400000
4831 12795 4834 1 109.50000 418.400000
4832 12795 4833 1 109.50000 418.400000
4832 12795 4834 1 109.50000 418.400000
4833 12795 4834 1 109.50000 418.400000
39 12796 4835 1 109.50000 418.400000
39 12796 4836 1 109.50000 418.400000
39 12796 4837 1 109.50000 418.400000
4835 12796 4836 1 109.50000 418.400000
4835 12796 4837 1 109.50000 418.400000
4836 12796 4837 1 109.50000 418.400000
955 12797 4838 1 109.50000 418.400000
955 12797 4839 1 109.50000 418.400000
955 12797 4840 1 109.50000 418.400000
4838 12797 4839 1 109.50000 418.400000
4838 12797 4840 1 109.50000 418.400000
4839 12797 4840 1 109.50000 418.400000
4841 12798 4842 1 109.50000 418.400000
4841 12798 4843 1 109.50000 418.400000
4841 12798 4844 1 109.50000 418.400000
4842 12798 4843 1 109.50000 418.400000
4842 12798 4844 1 109.50000 418.400000
4843 12798 4844 1 109.50000 418.400000
3912 12799 4845 1 109.50000 418.400000
3912 12799 4846 1 109.50000 418.400000
3912 12799 4847 1 109.50000 418.400000
4845 12799 4846 1 109.50000 418.400000
4845 12799 4847 1 109.50000 418.400000
4846 12799 4847 1 109.50000 418.400000
145 12800 4849 1 109.50000 418.400000
145 12800 11213 1 109.50000 418.400000
145 12800 11260 1 109.50000 418.400000
4849 12800 11213 1 109.50000 418.400000
4849 12800 11260 1 109.50000 418.400000
11213 12800 11260 1 109.50000 418.400000
340 12801 4850 1 109.50000 418.400000
340 12801 4851 1 109.50000 418.400000
340 12801 4852 1 109.50000 418.400000
4850 12801 4851 1 109.50000 418.400000
4850 12801 4852 1 109.50000 418.400000
4851 12801 4852 1 109.50000 418.400000
4392 12802 4853 1 109.50000 418.400000
4392 12802 4854 1 109.50000 418.400000
4392 12802 4855 1 109.50000 418.400000
4853 12802 4854 1 109.50000 418.400000
4853 12802 4855 1 109.50000 418.400000
4854 12802 4855 1 109.50000 418.400000
2447 12803 3909 1 109.50000 418.400000
2447 12803 4856 1 109.50000 418.400000
2447 12803 4857 1 109.50000 418.400000
3909 12803 4856 1 109.50000 418.400000
3909 12803 4857 1 109.50000 418.400000
4856 12803 4857 1 109.50000 418.400000
2865 12804 2866 1 109.50000 418.400000
2865 12804 4858 1 109.50000 418.400000
2865 12804 4859 1 109.50000 418.400000
2866 12804 4858 1 109.50000 418.400000
2866 12804 4859 1 109.50000 418.400000
4858 12804 4859 1 109.50000 418.400000
4863 12805 4864 1 109.50000 418.400000
4863 12805 4865 1 109.50000 418.400000
4863 12805 4866 1 109.50000 418.400000
4864 12805 4865 1 109.50000 418.400000
4864 12805 4866 1 109.50000 418.400000
4865 12805 4866 1 109.50000 418.400000
2320 12806 4867 1 109.50000 418.400000
2320 12806 4868 1 109.50000 418.400000
2320 12806 4869 1 109.50000 418.400000
4867 12806 4868 1 109.50000 418.400000
4867 12806 4869 1 109.50000 418.400000
4868 12806 4869 1 109.50000 418.400000
4870 12807 4871 1 109.50000 418.400000
4870 12807 11215 1 109.50000 418.400000
4870 12807 11341 1 109.50000 418.400000
4871 12807 11215 1 109.50000 418.400000
4871 12807 11341 1 109.50000 418.400000
11215 12807 11341 1 109.50000 418.400000
841 12808 2752 1 109.50000 418.400000
841 12808 3015 1 109.50000 418.400000
841 12808 4872 1 109.50000 418.400000
2752 12808 3015 1 109.50000 418.400000
2752 12808 4872 1 109.50000 418.400000
3015 12808 4872 1 109.50000 418.400000
3810 12809 4873 1 109.50000 418.400000
3810 12809 4874 1 109.50000 418.400000
3810 12809 4875 1 109.50000 418.400000
4873 12809 4874 1 109.50000 418.400000
4873 12809 4875 1 109.50000 418.400000
4874 12809 4875 1 109.50000 418.400000
1451 12810 4876 1 109.50000 418.400000
1451 12810 4877 1 109.50000 418.400000
1451 12810 4878 1 109.50000 418.400000
4876 12810 4877 1 109.50000 418.400000
4876 12810 4878 1 109.50000 418.400000
4877 12810 4878 1 109.50000 418.400000
523 12811 889 1 109.50000 418.400000
523 12811 4879 1 109.50000 418.400000
523 12811 11383 1 109.50000 418.400000
889 12811 4879 1 109.50000 418.400000
889 12811 11383 1 109.50000 418.400000
4879 12811 11383 1 109.50000 418.400000
161 12812 4880 1 109.50000 418.400000
161 12812 4881 1 109.50000 418.400000
161 12812 4882 1 109.50000 418.400000
4880 12812 4881 1 109.50000 418.400000
4880 12812 4882 1 109.50000 418.400000
4881 12812 4882 1 109.50000 418.400000
4722 12813 4883 1 109.50000 418.400000
4722 12813 4884 1 109.50000 418.400000
4722 12813 4885 1 109.50000 418.400000
4883 12813 4884 1 109.50000 418.400000
4883 12813 4885 1 109.50000 418.400000
4884 12813 4885 1 109.50000 418.400000
4887 12814 4888 1 109.50000 418.400000
4887 12814 4889 1 109.50000 418.400000
4887 12814 4890 1 109.50000 418.400000
4888 12814 4889 1 109.50000 418.400000
4888 12814 4890 1 109.50000 418.400000
4889 12814 4890 1 109.50000 418.400000
2426 12815 4891 1 109.50000 418.400000
2426 12815 4892 1 109.50000 418.400000
2426 12815 4893 1 109.50000 418.400000
4891 12815 4892 1 109.50000 418.400000
4891 12815 4893 1 109.50000 418.400000
4892 12815 4893 1 109.50000 418.400000
732 12816 2676 1 109.50000 418.400000
732 12816 4897 1 109.50000 418.400000
732 12816 4898 1 109.50000 418.400000
2676 12816 4897 1 109.50000 418.400000
2676 12816 4898 1 109.50000 418.400000
4897 12816 4898 1 109.50000 418.400000
4900 12817 4901 1 109.50000 418.400000
4900 12817 8815 1 109.50000 418.400000
4900 12817 11284 1 109.50000 418.400000
4901 12817 8815 1 109.50000 418.400000
4901 12817 11284 1 109.50000 418.400000
8815 12817 11284 1 109.50000 418.400000
4902 12818 4903 1 109.50000 418.400000
4902 12818 4904 1 109.50000 418.400000
4902 12818 4905 1 109.50000 418.400000
4903 12818 4904 1 109.50000 418.400000
4903 12818 4905 1 109.50000 418.400000
4904 12818 4905 1 109.50000 418.400000
4906 12819 4907 1 109.50000 418.400000
4906 12819 4908 1 109.50000 418.400000
4906 12819 4909 1 109.50000 418.400000
4907 12819 4908 1 109.50000 418.400000
4907 12819 4909 1 109.50000 418.400000
4908 12819 4909 1 109.50000 418.400000
4910 12820 4911 1 109.50000 418.400000
4910 12820 4912 1 109.50000 418.400000
4910 12820 4913 1 109.50000 418.400000
4911 12820 4912 1 109.50000 418.400000
4911 12820 4913 1 109.50000 418.400000
4912 12820 4913 1 109.50000 418.400000
4914 12821 4915 1 109.50000 418.400000
4914 12821 4916 1 109.50000 418.400000
4914 12821 4917 1 109.50000 418.400000
4915 12821 4916 1 109.50000 418.400000
4915 12821 4917 1 109.50000 418.400000
4916 12821 4917 1 109.50000 418.400000
4918 12822 4919 1 109.50000 418.400000
4918 12822 4920 1 109.50000 418.400000
4918 12822 4921 1 109.50000 418.400000
4919 12822 4920 1 109.50000 418.400000
4919 12822 4921 1 109.50000 418.400000
4920 12822 4921 1 109.50000 418.400000
1302 12823 4923 1 109.50000 418.400000
1302 12823 4924 1 109.50000 418.400000
1302 12823 4925 1 109.50000 418.400000
4923 12823 4924 1 109.50000 418.400000
4923 12823 4925 1 109.50000 418.400000
4924 12823 4925 1 109.50000 418.400000
4458 12824 4926 1 109.50000 418.400000
4458 12824 4927 1 109.50000 418.400000
4458 12824 4928 1 109.50000 418.400000
4926 12824 4927 1 109.50000 418.400000
4926 12824 4928 1 109.50000 418.400000
4927 12824 4928 1 109.50000 418.400000
4617 12825 4929 1 109.50000 418.400000
4617 12825 4930 1 109.50000 418.400000
4617 12825 11188 1 109.50000 418.400000
4929 12825 4930 1 109.50000 418.400000
4929 12825 11188 1 109.50000 418.400000
4930 12825 11188 1 109.50000 418.400000
960 12826 2203 1 109.50000 418.400000
960 12826 4194 1 109.50000 418.400000
960 12826 4931 1 109.50000 418.400000
2203 12826 4194 1 109.50000 418.400000
2203 12826 4931 1 109.50000 418.400000
4194 12826 4931 1 109.50000 418.400000
4933 12827 4934 1 109.50000 418.400000
4933 12827 4935 1 109.50000 418.400000
4933 12827 4936 1 109.50000 418.400000
4934 12827 4935 1 109.50000 418.400000
4934 12827 4936 1 109.50000 418.400000
4935 12827 4936 1 109.50000 418.400000
4941 12828 4942 1 109.50000 418.400000
4941 12828 4943 1 109.50000 418.400000
4941 12828 6815 1 109.50000 418.400000
4942 12828 4943 1 109.50000 418.400000
4942 12828 6815 1 109.50000 418.400000
4943 12828 6815 1 109.50000 418.400000
3850 12829 4944 1 109.50000 418.400000
3850 12829 4945 1 109.50000 418.400000
3850 12829 4946 1 109.50000 418.400000
4944 12829 4945 1 109.50000 418.400000
4944 12829 4946 1 109.50000 418.400000
4945 12829 4946 1 109.50000 418.400000
4744 12830 4947 1 109.50000 418.400000
4744 12830 4948 1 109.50000 418.400000
4744 12830 4949 1 109.50000 418.400000
4947 12830 4948 1 109.50000 418.400000
4947 12830 4949 1 109.50000 418.400000
4948 12830 4949 1 109.50000 418.400000
4950 12831 4951 1 109.50000 418.400000
4950 12831 4952 1 109.50000 418.400000
4950 12831 4953 1 109.50000 418.400000
4951 12831 4952 1 109.50000 418.400000
4951 12831 4953 1 109.50000 418.400000
4952 12831 4953 1 109.50000 418.400000
180 12832 4954 1 109.50000 418.400000
180 12832 4955 1 109.50000 418.400000
180 12832 4956 1 109.50000 418.400000
4954 12832 4955 1 109.50000 418.400000
4954 12832 4956 1 109.50000 418.400000
4955 12832 4956 1 109.50000 418.400000
4957 12833 4958 1 109.50000 418.400000
4957 12833 4959 1 109.50000 418.400000
4957 12833 4960 1 109.50000 418.400000
4958 12833 4959 1 109.50000 418.400000
4958 12833 4960 1 109.50000 418.400000
4959 12833 4960 1 109.50000 418.400000
1777 12834 1943 1 109.50000 418.400000
1777 12834 4962 1 109.50000 418.400000
1777 12834 4963 1 109.50000 418.400000
1943 12834 4962 1 109.50000 418.400000
1943 12834 4963 1 109.50000 418.400000
4962 12834 4963 1 109.50000 418.400000
4780 12835 4964 1 109.50000 418.400000
4780 12835 4965 1 109.50000 418.400000
4780 12835 4966 1 109.50000 418.400000
4964 12835 4965 1 109.50000 418.400000
4964 12835 4966 1 109.50000 418.400000
4965 12835 4966 1 109.50000 418.400000
2296 12836 3299 1 109.50000 418.400000
2296 12836 4967 1 109.50000 418.400000
2296 12836 4968 1 109.50000 418.400000
3299 12836 4967 1 109.50000 418.400000
3299 12836 4968 1 109.50000 418.400000
4967 12836 4968 1 109.50000 418.400000
3679 12837 4969 1 109.50000 418.400000
3679 12837 4970 1 109.50000 418.400000
3679 12837 4971 1 109.50000 418.400000
4969 12837 4970 1 109.50000 418.400000
4969 12837 4971 1 109.50000 418.400000
4970 12837 4971 1 109.50000 418.400000
4972 12838 4973 1 109.50000 418.400000
4972 12838 4974 1 109.50000 418.400000
4972 12838 4975 1 109.50000 418.400000
4973 12838 4974 1 109.50000 418.400000
4973 12838 4975 1 109.50000 418.400000
4974 12838 4975 1 109.50000 418.400000
4244 12839 4976 1 109.50000 418.400000
4244 12839 4977 1 109.50000 418.400000
4244 12839 4978 1 109.50000 418.400000
4976 12839 4977 1 109.50000 418.400000
4976 12839 4978 1 109.50000 418.400000
4977 12839 4978 1 109.50000 418.400000
610 12840 1099 1 109.50000 418.400000
610 12840 4979 1 109.50000 418.400000
610 12840 4980 1 109.50000 418.400000
1099 12840 4979 1 109.50000 418.400000
1099 12840 4980 1 109.50000 418.400000
4979 12840 4980 1 109.50000 418.400000
4600 12841 4983 1 109.50000 418.400000
4600 12841 4984 1 109.50000 418.400000
4600 12841 4985 1 109.50000 418.400000
4983 12841 4984 1 109.50000 418.400000
4983 12841 4985 1 109.50000 418.400000
4984 12841 4985 1 109.50000 418.400000
4986 12842 4987 1 109.50000 418.400000
4986 12842 4988 1 109.50000 418.400000
4986 12842 11067 1 109.50000 418.400000
4987 12842 4988 1 109.50000 418.400000
4987 12842 11067 1 109.50000 418.400000
4988 12842 11067 1 109.50000 418.400000
2405 12843 3614 1 109.50000 418.400000
2405 12843 4381 1 109.50000 418.400000
2405 12843 4989 1 109.50000 418.400000
3614 12843 4381 1 109.50000 418.400000
3614 12843 4989 1 109.50000 418.400000
4381 12843 4989 1 109.50000 418.400000
366 12844 709 1 109.50000 418.400000
366 12844 4992 1 109.50000 418.400000
366 12844 4993 1 109.50000 418.400000
709 12844 4992 1 109.50000 418.400000
709 12844 4993 1 109.50000 418.400000
4992 12844 4993 1 109.50000 418.400000
4996 12845 4997 1 109.50000 418.400000
4996 12845 11221 1 109.50000 418.400000
4996 12845 11291 1 109.50000 418.400000
4997 12845 11221 1 109.50000 418.400000
4997 12845 11291 1 109.50000 418.400000
11221 12845 11291 1 109.50000 418.400000
4998 12846 4999 1 109.50000 418.400000
4998 12846 5000 1 109.50000 418.400000
4998 12846 5001 1 109.50000 418.400000
4999 12846 5000 1 109.50000 418.400000
4999 12846 5001 1 109.50000 418.400000
5000 12846 5001 1 109.50000 418.400000
4232 12847 5002 1 109.50000 418.400000
4232 12847 5003 1 109.50000 418.400000
4232 12847 5004 1 109.50000 418.400000
5002 12847 5003 1 109.50000 418.400000
5002 12847 5004 1 109.50000 418.400000
5003 12847 5004 1 109.50000 418.400000
3383 12848 5005 1 109.50000 418.400000
3383 12848 5006 1 109.50000 418.400000
3383 12848 5007 1 109.50000 418.400000
5005 12848 5006 1 109.50000 418.400000
5005 12848 5007 1 109.50000 418.400000
5006 12848 5007 1 109.50000 418.400000
1849 12849 2202 1 109.50000 418.400000
1849 12849 5008 1 109.50000 418.400000
1849 12849 5009 1 109.50000 418.400000
2202 12849 5008 1 109.50000 418.400000
2202 12849 5009 1 109.50000 418.400000
5008 12849 5009 1 109.50000 418.400000
5010 12850 5013 1 109.50000 418.400000
5010 12850 5858 1 109.50000 418.400000
5010 12850 7761 1 109.50000 418.400000
5013 12850 5858 1 109.50000 418.400000
5013 12850 7761 1 109.50000 418.400000
5858 12850 7761 1 109.50000 418.400000
5014 12851 5015 1 109.50000 418.400000
5014 12851 5016 1 109.50000 418.400000
5014 12851 5017 1 109.50000 418.400000
5015 12851 5016 1 109.50000 418.400000
5015 12851 5017 1 109.50000 418.400000
5016 12851 5017 1 109.50000 418.400000
1642 12852 5018 1 109.50000 418.400000
1642 12852 5019 1 109.50000 418.400000
1642 12852 5020 1 109.50000 418.400000
5018 12852 5019 1 109.50000 418.400000
5018 12852 5020 1 109.50000 418.400000
5019 12852 5020 1 109.50000 418.400000
2123 12853 3310 1 109.50000 418.400000
2123 12853 5021 1 109.50000 418.400000
2123 12853 10156 1 109.50000 418.400000
3310 12853 5021 1 109.50000 418.400000
3310 12853 10156 1 109.50000 418.400000
5021 12853 10156 1 109.50000 418.400000
5022 12854 5023 1 109.50000 418.400000
5022 12854 5024 1 109.50000 418.400000
5022 12854 5025 1 109.50000 418.400000
5023 12854 5024 1 109.50000 418.400000
5023 12854 5025 1 109.50000 418.400000
5024 12854 5025 1 109.50000 418.400000
2883 12855 3713 1 109.50000 418.400000
2883 12855 5026 1 109.50000 418.400000
2883 12855 5027 1 109.50000 418.400000
3713 12855 5026 1 109.50000 418.400000
3713 12855 5027 1 109.50000 418.400000
5026 12855 5027 1 109.50000 418.400000
446 12856 4191 1 109.50000 418.400000
446 12856 5029 1 109.50000 418.400000
446 12856 6715 1 109.50000 418.400000
4191 12856 5029 1 109.50000 418.400000
4191 12856 6715 1 109.50000 418.400000
5029 12856 6715 1 109.50000 418.400000
5032 12857 5033 1 109.50000 418.400000
5032 12857 5034 1 109.50000 418.400000
5032 12857 5035 1 109.50000 418.400000
5033 12857 5034 1 109.50000 418.400000
5033 12857 5035 1 109.50000 418.400000
5034 12857 5035 1 109.50000 418.400000
431 12858 3753 1 109.50000 418.400000
431 12858 5036 1 109.50000 418.400000
431 12858 5037 1 109.50000 418.400000
3753 12858 5036 1 109.50000 418.400000
3753 12858 5037 1 109.50000 418.400000
5036 12858 5037 1 109.50000 418.400000
5039 12859 5040 1 109.50000 418.400000
5039 12859 5041 1 109.50000 418.400000
5039 12859 5042 1 109.50000 418.400000
5040 12859 5041 1 109.50000 418.400000
5040 12859 5042 1 109.50000 418.400000
5041 12859 5042 1 109.50000 418.400000
4571 12860 5045 1 109.50000 418.400000
4571 12860 5046 1 109.50000 418.400000
4571 12860 5047 1 109.50000 418.400000
5045 12860 5046 1 109.50000 418.400000
5045 12860 5047 1 109.50000 418.400000
5046 12860 5047 1 109.50000 418.400000
5048 12861 5050 1 109.50000 418.400000
5048 12861 5051 1 109.50000 418.400000
5048 12861 11090 1 109.50000 418.400000
5050 12861 5051 1 109.50000 418.400000
5050 12861 11090 1 109.50000 418.400000
5051 12861 11090 1 109.50000 418.400000
2601 12862 4876 1 109.50000 418.400000
2601 12862 5052 1 109.50000 418.400000
2601 12862 5053 1 109.50000 418.400000
4876 12862 5052 1 109.50000 418.400000
4876 12862 5053 1 109.50000 418.400000
5052 12862 5053 1 109.50000 418.400000
4182 12863 5056 1 109.50000 418.400000
4182 12863 5057 1 109.50000 418.400000
4182 12863 5058 1 109.50000 418.400000
5056 12863 5057 1 109.50000 418.400000
5056 12863 5058 1 109.50000 418.400000
5057 12863 5058 1 109.50000 418.400000
1660 12864 4690 1 109.50000 418.400000
1660 12864 5060 1 109.50000 418.400000
1660 12864 5061 1 109.50000 418.400000
4690 12864 5060 1 109.50000 418.400000
4690 12864 5061 1 109.50000 418.400000
5060 12864 5061 1 109.50000 418.400000
1139 12865 5062 1 109.50000 418.400000
1139 12865 5063 1 109.50000 418.400000
1139 12865 5064 1 109.50000 418.400000
5062 12865 5063 1 109.50000 418.400000
5062 12865 5064 1 109.50000 418.400000
5063 12865 5064 1 109.50000 418.400000
647 12866 5065 1 109.50000 418.400000
647 12866 5066 1 109.50000 418.400000
647 12866 5067 1 109.50000 418.400000
5065 12866 5066 1 109.50000 418.400000
5065 12866 5067 1 109.50000 418.400000
5066 12866 5067 1 109.50000 418.400000
3535 12867 5068 1 109.50000 418.400000
3535 12867 5069 1 109.50000 418.400000
3535 12867 5070 1 109.50000 418.400000
5068 12867 5069 1 109.50000 418.400000
5068 12867 5070 1 109.50000 418.400000
5069 12867 5070 1 109.50000 418.400000
4545 12868 5071 1 109.50000 418.400000
4545 12868 5072 1 109.50000 418.400000
4545 12868 5073 1 109.50000 418.400000
5071 12868 5072 1 109.50000 418.400000
5071 12868 5073 1 109.50000 418.400000
5072 12868 5073 1 109.50000 418.400000
5074 12869 5075 1 109.50000 418.400000
5074 12869 5076 1 109.50000 418.400000
5074 12869 5077 1 109.50000 418.400000
5075 12869 5076 1 109.50000 418.400000
5075 12869 5077 1 109.50000 418.400000
5076 12869 5077 1 109.50000 418.400000
2142 12870 5078 1 109.50000 418.400000
2142 12870 5079 1 109.50000 418.400000
2142 12870 5080 1 109.50000 418.400000
5078 12870 5079 1 109.50000 418.400000
5078 12870 5080 1 109.50000 418.400000
5079 12870 5080 1 109.50000 418.400000
376 12871 2161 1 109.50000 418.400000
376 12871 5081 1 109.50000 418.400000
376 12871 5082 1 109.50000 418.400000
2161 12871 5081 1 109.50000 418.400000
2161 12871 5082 1 109.50000 418.400000
5081 12871 5082 1 109.50000 418.400000
35 12872 425 1 109.50000 418.400000
35 12872 5083 1 109.50000 418.400000
35 12872 5084 1 109.50000 418.400000
425 12872 5083 1 109.50000 418.400000
425 12872 5084 1 109.50000 418.400000
5083 12872 5084 1 109.50000 418.400000
4222 12873 5085 1 109.50000 418.400000
4222 12873 5086 1 109.50000 418.400000
4222 12873 5087 1 109.50000 418.400000
5085 12873 5086 1 109.50000 418.400000
5085 12873 5087 1 109.50000 418.400000
5086 12873 5087 1 109.50000 418.400000
5088 12874 5089 1 109.50000 418.400000
5088 12874 5090 1 109.50000 418.400000
5088 12874 5091 1 109.50000 418.400000
5089 12874 5090 1 109.50000 418.400000
5089 12874 5091 1 109.50000 418.400000
5090 12874 5091 1 109.50000 418.400000
5092 12875 5093 1 109.50000 418.400000
5092 12875 5094 1 109.50000 418.400000
5092 12875 5095 1 109.50000 418.400000
5093 12875 5094 1 109.50000 418.400000
5093 12875 5095 1 109.50000 418.400000
5094 12875 5095 1 109.50000 418.400000
5096 12876 5097 1 109.50000 418.400000
5096 12876 5098 1 109.50000 418.400000
5096 12876 5099 1 109.50000 418.400000
5097 12876 5098 1 109.50000 418.400000
5097 12876 5099 1 109.50000 418.400000
5098 12876 5099 1 109.50000 418.400000
5100 12877 5101 1 109.50000 418.400000
5100 12877 5102 1 109.50000 418.400000
5100 12877 5103 1 109.50000 418.400000
5101 12877 5102 1 109.50000 418.400000
5101 12877 5103 1 109.50000 418.400000
5102 12877 5103 1 109.50000 418.400000
2997 12878 4997 1 109.50000 418.400000
2997 12878 5106 1 109.50000 418.400000
2997 12878 5107 1 109.50000 418.400000
4997 12878 5106 1 109.50000 418.400000
4997 12878 5107 1 109.50000 418.400000
5106 12878 5107 1 109.50000 418.400000
5108 12879 5109 1 109.50000 418.400000
5108 12879 5110 1 109.50000 418.400000
5108 12879 5111 1 109.50000 418.400000
5109 12879 5110 1 109.50000 418.400000
5109 12879 5111 1 109.50000 418.400000
5110 12879 5111 1 109.50000 418.400000
5112 12880 5113 1 109.50000 418.400000
5112 12880 5114 1 109.50000 418.400000
5112 12880 6356 1 109.50000 418.400000
5113 12880 5114 1 109.50000 418.400000
5113 12880 6356 1 109.50000 418.400000
5114 12880 6356 1 109.50000 418.400000
2175 12881 4734 1 109.50000 418.400000
2175 12881 5116 1 109.50000 418.400000
2175 12881 5117 1 109.50000 418.400000
4734 12881 5116 1 109.50000 418.400000
4734 12881 5117 1 109.50000 418.400000
5116 12881 5117 1 109.50000 418.400000
5118 12882 5119 1 109.50000 418.400000
5118 12882 5120 1 109.50000 418.400000
5118 12882 5121 1 109.50000 418.400000
5119 12882 5120 1 109.50000 418.400000
5119 12882 5121 1 109.50000 418.400000
5120 12882 5121 1 109.50000 418.400000
360 12883 5122 1 109.50000 418.400000
360 12883 5123 1 109.50000 418.400000
360 12883 5124 1 109.50000 418.400000
5122 12883 5123 1 109.50000 418.400000
5122 12883 5124 1 109.50000 418.400000
5123 12883 5124 1 109.50000 418.400000
2806 12884 5123 1 109.50000 418.400000
2806 12884 5125 1 109.50000 418.400000
2806 12884 5126 1 109.50000 418.400000
5123 12884 5125 1 109.50000 418.400000
5123 12884 5126 1 109.50000 418.400000
5125 12884 5126 1 109.50000 418.400000
1653 12885 5127 1 109.50000 418.400000
1653 12885 5128 1 109.50000 418.400000
1653 12885 5129 1 109.50000 418.400000
5127 12885 5128 1 109.50000 418.400000
5127 12885 5129 1 109.50000 418.400000
5128 12885 5129 1 109.50000 418.400000
2109 12886 4061 1 109.50000 418.400000
2109 12886 5133 1 109.50000 418.400000
2109 12886 5134 1 109.50000 418.400000
4061 12886 5133 1 109.50000 418.400000
4061 12886 5134 1 109.50000 418.400000
5133 12886 5134 1 109.50000 418.400000
5137 12887 5138 1 109.50000 418.400000
5137 12887 5139 1 109.50000 418.400000
5137 12887 5140 1 109.50000 418.400000
5138 12887 5139 1 109.50000 418.400000
5138 12887 5140 1 109.50000 418.400000
5139 12887 5140 1 109.50000 418.400000
5144 12888 5145 1 109.50000 418.400000
5144 12888 5146 1 109.50000 418.400000
5144 12888 5147 1 109.50000 418.400000
5145 12888 5146 1 109.50000 418.400000
5145 12888 5147 1 109.50000 418.400000
5146 12888 5147 1 109.50000 418.400000
1770 12889 5148 1 109.50000 418.400000
1770 12889 5149 1 109.50000 418.400000
1770 12889 5150 1 109.50000 418.400000
5148 12889 5149 1 109.50000 418.400000
5148 12889 5150 1 109.50000 418.400000
5149 12889 5150 1 109.50000 418.400000
3180 12890 5151 1 109.50000 418.400000
3180 12890 5152 1 109.50000 418.400000
3180 12890 5153 1 109.50000 418.400000
5151 12890 5152 1 109.50000 418.400000
5151 12890 5153 1 109.50000 418.400000
5152 12890 5153 1 109.50000 418.400000
700 12891 5154 1 109.50000 418.400000
700 12891 5155 1 109.50000 418.400000
700 12891 5156 1 109.50000 418.400000
5154 12891 5155 1 109.50000 418.400000
5154 12891 5156 1 109.50000 418.400000
5155 12891 5156 1 109.50000 418.400000
5157 12892 5158 1 109.50000 418.400000
5157 12892 5159 1 109.50000 418.400000
5157 12892 5160 1 109.50000 418.400000
5158 12892 5159 1 109.50000 418.400000
5158 12892 5160 1 109.50000 418.400000
5159 12892 5160 1 109.50000 418.400000
293 12893 2937 1 109.50000 418.400000
293 12893 5162 1 109.50000 418.400000
293 12893 9999 1 109.50000 418.400000
2937 12893 5162 1 109.50000 418.400000
2937 12893 9999 1 109.50000 418.400000
5162 12893 9999 1 109.50000 418.400000
3686 12894 5163 1 109.50000 418.400000
3686 12894 5164 1 109.50000 418.400000
3686 12894 11184 1 109.50000 418.400000
5163 12894 5164 1 109.50000 418.400000
5163 12894 11184 1 109.50000 418.400000
5164 12894 11184 1 109.50000 418.400000
342 12895 4193 1 109.50000 418.400000
342 12895 5165 1 109.50000 418.400000
342 12895 5166 1 109.50000 418.400000
4193 12895 5165 1 109.50000 418.400000
4193 12895 5166 1 109.50000 418.400000
5165 12895 5166 1 109.50000 418.400000
1978 12896 2985 1 109.50000 418.400000
1978 12896 5167 1 109.50000 418.400000
1978 12896 5168 1 109.50000 418.400000
2985 12896 5167 1 109.50000 418.400000
2985 12896 5168 1 109.50000 418.400000
5167 12896 5168 1 109.50000 418.400000
1205 12897 3777 1 109.50000 418.400000
1205 12897 5169 1 109.50000 418.400000
1205 12897 5170 1 109.50000 418.400000
3777 12897 5169 1 109.50000 418.400000
3777 12897 5170 1 109.50000 418.400000
5169 12897 5170 1 109.50000 418.400000
2994 12898 3386 1 109.50000 418.400000
2994 12898 3688 1 109.50000 418.400000
2994 12898 5171 1 109.50000 418.400000
3386 12898 3688 1 109.50000 418.400000
3386 12898 5171 1 109.50000 418.400000
3688 12898 5171 1 109.50000 418.400000
5175 12899 5176 1 109.50000 418.400000
5175 12899 5177 1 109.50000 418.400000
5175 12899 5178 1 109.50000 418.400000
5176 12899 5177 1 109.50000 418.400000
5176 12899 5178 1 109.50000 418.400000
5177 12899 5178 1 109.50000 418.400000
3095 12900 5179 1 109.50000 418.400000
3095 12900 5180 1 109.50000 418.400000
3095 12900 5181 1 109.50000 418.400000
5179 12900 5180 1 109.50000 418.400000
5179 12900 5181 1 109.50000 418.400000
5180 12900 5181 1 109.50000 418.400000
2852 12901 5182 1 109.50000 418.400000
2852 12901 5183 1 109.50000 418.400000
2852 12901 5184 1 109.50000 418.400000
5182 12901 5183 1 109.50000 418.400000
5182 12901 5184 1 109.50000 418.400000
5183 12901 5184 1 109.50000 418.400000
5185 12902 5186 1 109.50000 418.400000
5185 12902 5187 1 109.50000 418.400000
5185 12902 5745 1 109.50000 418.400000
5186 12902 5187 1 109.50000 418.400000
5186 12902 5745 1 109.50000 418.400000
5187 12902 5745 1 109.50000 418.400000
3751 12903 5188 1 109.50000 418.400000
3751 12903 5189 1 109.50000 418.400000
3751 12903 11332 1 109.50000 418.400000
5188 12903 5189 1 109.50000 418.400000
5188 12903 11332 1 109.50000 418.400000
5189 12903 11332 1 109.50000 418.400000
2188 12904 3950 1 109.50000 418.400000
2188 12904 5008 1 109.50000 418.400000
2188 12904 5190 1 109.50000 418.400000
3950 12904 5008 1 109.50000 418.400000
3950 12904 5190 1 109.50000 418.400000
5008 12904 5190 1 109.50000 418.400000
4022 12905 5191 1 109.50000 418.400000
4022 12905 5192 1 109.50000 418.400000
4022 12905 5193 1 109.50000 418.400000
5191 12905 5192 1 109.50000 418.400000
5191 12905 5193 1 109.50000 418.400000
5192 12905 5193 1 109.50000 418.400000
2592 12906 5194 1 109.50000 418.400000
2592 12906 5195 1 109.50000 418.400000
2592 12906 5196 1 109.50000 418.400000
5194 12906 5195 1 109.50000 418.400000
5194 12906 5196 1 109.50000 418.400000
5195 12906 5196 1 109.50000 418.400000
4821 12907 5197 1 109.50000 418.400000
4821 12907 5198 1 109.50000 418.400000
4821 12907 5199 1 109.50000 418.400000
5197 12907 5198 1 109.50000 418.400000
5197 12907 5199 1 109.50000 418.400000
5198 12907 5199 1 109.50000 418.400000
987 12908 5200 1 109.50000 418.400000
987 12908 5201 1 109.50000 418.400000
987 12908 5202 1 109.50000 418.400000
5200 12908 5201 1 109.50000 418.400000
5200 12908 5202 1 109.50000 418.400000
5201 12908 5202 1 109.50000 418.400000
5203 12909 5204 1 109.50000 418.400000
5203 12909 5205 1 109.50000 418.400000
5203 12909 6479 1 109.50000 418.400000
5204 12909 5205 1 109.50000 418.400000
5204 12909 6479 1 109.50000 418.400000
5205 12909 6479 1 109.50000 418.400000
5206 12910 5208 1 109.50000 418.400000
5206 12910 5209 1 109.50000 418.400000
5206 12910 5955 1 109.50000 418.400000
5208 12910 5209 1 109.50000 418.400000
5208 12910 5955 1 109.50000 418.400000
5209 12910 5955 1 109.50000 418.400000
5210 12911 5211 1 109.50000 418.400000
5210 12911 5212 1 109.50000 418.400000
5210 12911 5213 1 109.50000 418.400000
5211 12911 5212 1 109.50000 418.400000
5211 12911 5213 1 109.50000 418.400000
5212 12911 5213 1 109.50000 418.400000
2023 12912 5214 1 109.50000 418.400000
2023 12912 5215 1 109.50000 418.400000
2023 12912 5216 1 109.50000 418.400000
5214 12912 5215 1 109.50000 418.400000
5214 12912 5216 1 109.50000 418.400000
5215 12912 5216 1 109.50000 418.400000
5217 12913 5218 1 109.50000 418.400000
5217 12913 5219 1 109.50000 418.400000
5217 12913 5220 1 109.50000 418.400000
5218 12913 5219 1 109.50000 418.400000
5218 12913 5220 1 109.50000 418.400000
5219 12913 5220 1 109.50000 418.400000
1204 12914 1782 1 109.50000 418.400000
1204 12914 3778 1 109.50000 418.400000
1204 12914 5222 1 109.50000 418.400000
1782 12914 3778 1 109.50000 418.400000
1782 12914 5222 1 109.50000 418.400000
3778 12914 5222 1 109.50000 418.400000
5224 12915 5225 1 109.50000 418.400000
5224 12915 5226 1 109.50000 418.400000
5224 12915 8421 1 109.50000 418.400000
5225 12915 5226 1 109.50000 418.400000
5225 12915 8421 1 109.50000 418.400000
5226 12915 8421 1 109.50000 418.400000
5227 12916 5228 1 109.50000 418.400000
5227 12916 5229 1 109.50000 418.400000
5227 12916 5230 1 109.50000 418.400000
5228 12916 5229 1 109.50000 418.400000
5228 12916 5230 1 109.50000 418.400000
5229 12916 5230 1 109.50000 418.400000
317 12917 5232 1 109.50000 418.400000
317 12917 5233 1 109.50000 418.400000
317 12917 10628 1 109.50000 418.400000
5232 12917 5233 1 109.50000 418.400000
5232 12917 10628 1 109.50000 418.400000
5233 12917 10628 1 109.50000 418.400000
1258 12918 3717 1 109.50000 418.400000
1258 12918 5236 1 109.50000 418.400000
1258 12918 5237 1 109.50000 418.400000
3717 12918 5236 1 109.50000 418.400000
3717 12918 5237 1 109.50000 418.400000
5236 12918 5237 1 109.50000 418.400000
5238 12919 5240 1 109.50000 418.400000
5238 12919 5241 1 109.50000 418.400000
5238 12919 9128 1 109.50000 418.400000
5240 12919 5241 1 109.50000 418.400000
5240 12919 9128 1 109.50000 418.400000
5241 12919 9128 1 109.50000 418.400000
5242 12920 5243 1 109.50000 418.400000
5242 12920 5244 1 109.50000 418.400000
5242 12920 5245 1 109.50000 418.400000
5243 12920 5244 1 109.50000 418.400000
5243 12920 5245 1 109.50000 418.400000
5244 12920 5245 1 109.50000 418.400000
1497 12921 5246 1 109.50000 418.400000
1497 12921 5247 1 109.50000 418.400000
1497 12921 5248 1 109.50000 418.400000
5246 12921 5247 1 109.50000 418.400000
5246 12921 5248 1 109.50000 418.400000
5247 12921 5248 1 109.50000 418.400000
5249 12922 5250 1 109.50000 418.400000
5249 12922 5251 1 109.50000 418.400000
5249 12922 11226 1 109.50000 418.400000
5250 12922 5251 1 109.50000 418.400000
5250 12922 11226 1 109.50000 418.400000
5251 12922 11226 1 109.50000 418.400000
5253 12923 5254 1 109.50000 418.400000
5253 12923 5255 1 109.50000 418.400000
5253 12923 6222 1 109.50000 418.400000
5254 12923 5255 1 109.50000 418.400000
5254 12923 6222 1 109.50000 418.400000
5255 12923 6222 1 109.50000 418.400000
3625 12924 5256 1 109.50000 418.400000
3625 12924 5257 1 109.50000 418.400000
3625 12924 11312 1 109.50000 418.400000
5256 12924 5257 1 109.50000 418.400000
5256 12924 11312 1 109.50000 418.400000
5257 12924 11312 1 109.50000 418.400000
3632 12925 4521 1 109.50000 418.400000
3632 12925 5258 1 109.50000 418.400000
3632 12925 5259 1 109.50000 418.400000
4521 12925 5258 1 109.50000 418.400000
4521 12925 5259 1 109.50000 418.400000
5258 12925 5259 1 109.50000 418.400000
561 12926 5262 1 109.50000 418.400000
561 12926 5263 1 109.50000 418.400000
561 12926 5264 1 109.50000 418.400000
5262 12926 5263 1 109.50000 418.400000
5262 12926 5264 1 109.50000 418.400000
5263 12926 5264 1 109.50000 418.400000
1242 12927 5265 1 109.50000 418.400000
1242 12927 5266 1 109.50000 418.400000
1242 12927 9329 1 109.50000 418.400000
5265 12927 5266 1 109.50000 418.400000
5265 12927 9329 1 109.50000 418.400000
5266 12927 9329 1 109.50000 418.400000
5267 12928 5268 1 109.50000 418.400000
5267 12928 5269 1 109.50000 418.400000
5267 12928 5270 1 109.50000 418.400000
5268 12928 5269 1 109.50000 418.400000
5268 12928 5270 1 109.50000 418.400000
5269 12928 5270 1 109.50000 418.400000
1309 12929 5271 1 109.50000 418.400000
1309 12929 5272 1 109.50000 418.400000
1309 12929 5273 1 109.50000 418.400000
5271 12929 5272 1 109.50000 418.400000
5271 12929 5273 1 109.50000 418.400000
5272 12929 5273 1 109.50000 418.400000
848 12930 5274 1 109.50000 418.400000
848 12930 5275 1 109.50000 418.400000
848 12930 5276 1 109.50000 418.400000
5274 12930 5275 1 109.50000 418.400000
5274 12930 5276 1 109.50000 418.400000
5275 12930 5276 1 109.50000 418.400000
5277 12931 5278 1 109.50000 418.400000
5277 12931 5279 1 109.50000 418.400000
5277 12931 5280 1 109.50000 418.400000
5278 12931 5279 1 109.50000 418.400000
5278 12931 5280 1 109.50000 418.400000
5279 12931 5280 1 109.50000 418.400000
5281 12932 5282 1 109.50000 418.400000
5281 12932 5283 1 109.50000 418.400000
5281 12932 5284 1 109.50000 418.400000
5282 12932 5283 1 109.50000 418.400000
5282 12932 5284 1 109.50000 418.400000
5283 12932 5284 1 109.50000 418.400000
432 12933 674 1 109.50000 418.400000
432 12933 5285 1 109.50000 418.400000
432 12933 5286 1 109.50000 418.400000
674 12933 5285 1 109.50000 418.400000
674 12933 5286 1 109.50000 418.400000
5285 12933 5286 1 109.50000 418.400000
5171 12934 5287 1 109.50000 418.400000
5171 12934 5288 1 109.50000 418.400000
5171 12934 11406 1 109.50000 418.400000
5287 12934 5288 1 109.50000 418.400000
5287 12934 11406 1 109.50000 418.400000
5288 12934 11406 1 109.50000 418.400000
2789 12935 5289 1 109.50000 418.400000
2789 12935 5290 1 109.50000 418.400000
2789 12935 5291 1 109.50000 418.400000
5289 12935 5290 1 109.50000 418.400000
5289 12935 5291 1 109.50000 418.400000
5290 12935 5291 1 109.50000 418.400000
861 12936 5292 1 109.50000 418.400000
861 12936 5293 1 109.50000 418.400000
861 12936 5294 1 109.50000 418.400000
5292 12936 5293 1 109.50000 418.400000
5292 12936 5294 1 109.50000 418.400000
5293 12936 5294 1 109.50000 418.400000
25 12937 5295 1 109.50000 418.400000
25 12937 5296 1 109.50000 418.400000
25 12937 5297 1 109.50000 418.400000
5295 12937 5296 1 109.50000 418.400000
5295 12937 5297 1 109.50000 418.400000
5296 12937 5297 1 109.50000 418.400000
336 12938 5300 1 109.50000 418.400000
336 12938 5301 1 109.50000 418.400000
336 12938 5302 1 109.50000 418.400000
5300 12938 5301 1 109.50000 418.400000
5300 12938 5302 1 109.50000 418.400000
5301 12938 5302 1 109.50000 418.400000
1174 12939 1666 1 109.50000 418.400000
1174 12939 5303 1 109.50000 418.400000
1174 12939 5304 1 109.50000 418.400000
1666 12939 5303 1 109.50000 418.400000
1666 12939 5304 1 109.50000 418.400000
5303 12939 5304 1 109.50000 418.400000
804 12940 5305 1 109.50000 418.400000
804 12940 5306 1 109.50000 418.400000
804 12940 5307 1 109.50000 418.400000
5305 12940 5306 1 109.50000 418.400000
5305 12940 5307 1 109.50000 418.400000
5306 12940 5307 1 109.50000 418.400000
5308 12941 5309 1 109.50000 418.400000
5308 12941 5310 1 109.50000 418.400000
5308 12941 5311 1 109.50000 418.400000
5309 12941 5310 1 109.50000 418.400000
5309 12941 5311 1 109.50000 418.400000
5310 12941 5311 1 109.50000 418.400000
608 12942 1963 1 109.50000 418.400000
608 12942 4210 1 109.50000 418.400000
608 12942 5312 1 109.50000 418.400000
1963 12942 4210 1 109.50000 418.400000
1963 12942 5312 1 109.50000 418.400000
4210 12942 5312 1 109.50000 418.400000
5313 12943 5314 1 109.50000 418.400000
5313 12943 5315 1 109.50000 418.400000
5313 12943 5316 1 109.50000 418.400000
5314 12943 5315 1 109.50000 418.400000
5314 12943 5316 1 109.50000 418.400000
5315 12943 5316 1 109.50000 418.400000
5317 12944 5318 1 109.50000 418.400000
5317 12944 5319 1 109.50000 418.400000
5317 12944 5320 1 109.50000 418.400000
5318 12944 5319 1 109.50000 418.400000
5318 12944 5320 1 109.50000 418.400000
5319 12944 5320 1 109.50000 418.400000
1196 12945 5321 1 109.50000 418.400000
1196 12945 5322 1 109.50000 418.400000
1196 12945 5323 1 109.50000 418.400000
5321 12945 5322 1 109.50000 418.400000
5321 12945 5323 1 109.50000 418.400000
5322 12945 5323 1 109.50000 418.400000
2764 12946 5326 1 109.50000 418.400000
2764 12946 5327 1 109.50000 418.400000
2764 12946 5328 1 109.50000 418.400000
5326 12946 5327 1 109.50000 418.400000
5326 12946 5328 1 109.50000 418.400000
5327 12946 5328 1 109.50000 418.400000
1792 12947 4654 1 109.50000 418.400000
1792 12947 5158 1 109.50000 418.400000
1792 12947 5329 1 109.50000 418.400000
4654 12947 5158 1 109.50000 418.400000
4654 12947 5329 1 109.50000 418.400000
5158 12947 5329 1 109.50000 418.400000
1317 12948 5330 1 109.50000 418.400000
1317 12948 5331 1 109.50000 418.400000
1317 12948 5332 1 109.50000 418.400000
5330 12948 5331 1 109.50000 418.400000
5330 12948 5332 1 109.50000 418.400000
5331 12948 5332 1 109.50000 418.400000
3331 12949 4327 1 109.50000 418.400000
3331 12949 5333 1 109.50000 418.400000
3331 12949 5334 1 109.50000 418.400000
4327 12949 5333 1 109.50000 418.400000
4327 12949 5334 1 109.50000 418.400000
5333 12949 5334 1 109.50000 418.400000
5336 12950 9892 1 109.50000 418.400000
5336 12950 10576 1 109.50000 418.400000
5336 12950 10681 1 109.50000 418.400000
9892 12950 10576 1 109.50000 418.400000
9892 12950 10681 1 109.50000 418.400000
10576 12950 10681 1 109.50000 418.400000
5308 12951 5339 1 109.50000 418.400000
5308 12951 5340 1 109.50000 418.400000
5308 12951 5341 1 109.50000 418.400000
5339 12951 5340 1 109.50000 418.400000
5339 12951 5341 1 109.50000 418.400000
5340 12951 5341 1 109.50000 418.400000
268 12952 1769 1 109.50000 418.400000
268 12952 5342 1 109.50000 418.400000
268 12952 5343 1 109.50000 418.400000
1769 12952 5342 1 109.50000 418.400000
1769 12952 5343 1 109.50000 418.400000
5342 12952 5343 1 109.50000 418.400000
454 12953 5345 1 109.50000 418.400000
454 12953 5346 1 109.50000 418.400000
454 12953 5347 1 109.50000 418.400000
5345 12953 5346 1 109.50000 418.400000
5345 12953 5347 1 109.50000 418.400000
5346 12953 5347 1 109.50000 418.400000
3794 12954 5348 1 109.50000 418.400000
3794 12954 5349 1 109.50000 418.400000
3794 12954 5350 1 109.50000 418.400000
5348 12954 5349 1 109.50000 418.400000
5348 12954 5350 1 109.50000 418.400000
5349 12954 5350 1 109.50000 418.400000
2025 12955 5351 1 109.50000 418.400000
2025 12955 6810 1 109.50000 418.400000
2025 12955 11149 1 109.50000 418.400000
5351 12955 6810 1 109.50000 418.400000
5351 12955 11149 1 109.50000 418.400000
6810 12955 11149 1 109.50000 418.400000
4901 12956 5155 1 109.50000 418.400000
4901 12956 5354 1 109.50000 418.400000
4901 12956 5355 1 109.50000 418.400000
5155 12956 5354 1 109.50000 418.400000
5155 12956 5355 1 109.50000 418.400000
5354 12956 5355 1 109.50000 418.400000
5357 12957 5358 1 109.50000 418.400000
5357 12957 5359 1 109.50000 418.400000
5357 12957 5360 1 109.50000 418.400000
5358 12957 5359 1 109.50000 418.400000
5358 12957 5360 1 109.50000 418.400000
5359 12957 5360 1 109.50000 418.400000
2087 12958 5361 1 109.50000 418.400000
2087 12958 5362 1 109.50000 418.400000
2087 12958 5363 1 109.50000 418.400000
5361 12958 5362 1 109.50000 418.400000
5361 12958 5363 1 109.50000 418.400000
5362 12958 5363 1 109.50000 418.400000
130 12959 1376 1 109.50000 418.400000
130 12959 5364 1 109.50000 418.400000
130 12959 5365 1 109.50000 418.400000
1376 12959 5364 1 109.50000 418.400000
1376 12959 5365 1 109.50000 418.400000
5364 12959 5365 1 109.50000 418.400000
4024 12960 5366 1 109.50000 418.400000
4024 12960 5367 1 109.50000 418.400000
4024 12960 5368 1 109.50000 418.400000
5366 12960 5367 1 109.50000 418.400000
5366 12960 5368 1 109.50000 418.400000
5367 12960 5368 1 109.50000 418.400000
3416 12961 5369 1 109.50000 418.400000
3416 12961 5370 1 109.50000 418.400000
3416 12961 5371 1 109.50000 418.400000
5369 12961 5370 1 109.50000 418.400000
5369 12961 5371 1 109.50000 418.400000
5370 12961 5371 1 109.50000 418.400000
1613 12962 2514 1 109.50000 418.400000
1613 12962 3459 1 109.50000 418.400000
1613 12962 5372 1 109.50000 418.400000
2514 12962 3459 1 109.50000 418.400000
2514 12962 5372 1 109.50000 418.400000
3459 12962 5372 1 109.50000 418.400000
5377 12963 5378 1 109.50000 418.400000
5377 12963 5419 1 109.50000 418.400000
5377 12963 7144 1 109.50000 418.400000
5378 12963 5419 1 109.50000 418.400000
5378 12963 7144 1 109.50000 418.400000
5419 12963 7144 1 109.50000 418.400000
2851 12964 4924 1 109.50000 418.400000
2851 12964 5379 1 109.50000 418.400000
2851 12964 5380 1 109.50000 418.400000
4924 12964 5379 1 109.50000 418.400000
4924 12964 5380 1 109.50000 418.400000
5379 12964 5380 1 109.50000 418.400000
858 12965 871 1 109.50000 418.400000
858 12965 966 1 109.50000 418.400000
858 12965 5381 1 109.50000 418.400000
871 12965 966 1 109.50000 418.400000
871 12965 5381 1 109.50000 418.400000
966 12965 5381 1 109.50000 418.400000
1147 12966 5382 1 109.50000 418.400000
1147 12966 5383 1 109.50000 418.400000
1147 12966 5384 1 109.50000 418.400000
5382 12966 5383 1 109.50000 418.400000
5382 12966 5384 1 109.50000 418.400000
5383 12966 5384 1 109.50000 418.400000
5181 12967 5385 1 109.50000 418.400000
5181 12967 5386 1 109.50000 418.400000
5181 12967 5387 1 109.50000 418.400000
5385 12967 5386 1 109.50000 418.400000
5385 12967 5387 1 109.50000 418.400000
5386 12967 5387 1 109.50000 418.400000
3806 12968 5388 1 109.50000 418.400000
3806 12968 5389 1 109.50000 418.400000
3806 12968 5390 1 109.50000 418.400000
5388 12968 5389 1 109.50000 418.400000
5388 12968 5390 1 109.50000 418.400000
5389 12968 5390 1 109.50000 418.400000
5395 12969 5396 1 109.50000 418.400000
5395 12969 5397 1 109.50000 418.400000
5395 12969 5398 1 109.50000 418.400000
5396 12969 5397 1 109.50000 418.400000
5396 12969 5398 1 109.50000 418.400000
5397 12969 5398 1 109.50000 418.400000
5399 12970 5400 1 109.50000 418.400000
5399 12970 5401 1 109.50000 418.400000
5399 12970 5402 1 109.50000 418.400000
5400 12970 5401 1 109.50000 418.400000
5400 12970 5402 1 109.50000 418.400000
5401 12970 5402 1 109.50000 418.400000
5276 12971 5403 1 109.50000 418.400000
5276 12971 5404 1 109.50000 418.400000
5276 12971 5405 1 109.50000 418.400000
5403 12971 5404 1 109.50000 418.400000
5403 12971 5405 1 109.50000 418.400000
5404 12971 5405 1 109.50000 418.400000
4678 12972 5406 1 109.50000 418.400000
4678 12972 5407 1 109.50000 418.400000
4678 12972 5408 1 109.50000 418.400000
5406 12972 5407 1 109.50000 418.400000
5406 12972 5408 1 109.50000 418.400000
5407 12972 5408 1 109.50000 418.400000
315 12973 1617 1 109.50000 418.400000
315 12973 5409 1 109.50000 418.400000
315 12973 5410 1 109.50000 418.400000
1617 12973 5409 1 109.50000 418.400000
1617 12973 5410 1 109.50000 418.400000
5409 12973 5410 1 109.50000 418.400000
2695 12974 5124 1 109.50000 418.400000
2695 12974 5411 1 109.50000 418.400000
2695 12974 5412 1 109.50000 418.400000
5124 12974 5411 1 109.50000 418.400000
5124 12974 5412 1 109.50000 418.400000
5411 12974 5412 1 109.50000 418.400000
2234 12975 5413 1 109.50000 418.400000
2234 12975 5414 1 109.50000 418.400000
2234 12975 11347 1 109.50000 418.400000
5413 12975 5414 1 109.50000 418.400000
5413 12975 11347 1 109.50000 418.400000
5414 12975 11347 1 109.50000 418.400000
5415 12976 5416 1 109.50000 418.400000
5415 12976 10084 1 109.50000 418.400000
5415 12976 11290 1 109.50000 418.400000
5416 12976 10084 1 109.50000 418.400000
5416 12976 11290 1 109.50000 418.400000
10084 12976 11290 1 109.50000 418.400000
5370 12977 5417 1 109.50000 418.400000
5370 12977 5418 1 109.50000 418.400000
5370 12977 5419 1 109.50000 418.400000
5417 12977 5418 1 109.50000 418.400000
5417 12977 5419 1 109.50000 418.400000
5418 12977 5419 1 109.50000 418.400000
5420 12978 5421 1 109.50000 418.400000
5420 12978 5422 1 109.50000 418.400000
5420 12978 5423 1 109.50000 418.400000
5421 12978 5422 1 109.50000 418.400000
5421 12978 5423 1 109.50000 418.400000
5422 12978 5423 1 109.50000 418.400000
2388 12979 5424 1 109.50000 418.400000
2388 12979 5425 1 109.50000 418.400000
2388 12979 5426 1 109.50000 418.400000
5424 12979 5425 1 109.50000 418.400000
5424 12979 5426 1 109.50000 418.400000
5425 12979 5426 1 109.50000 418.400000
5429 12980 5430 1 109.50000 418.400000
5429 12980 7418 1 109.50000 418.400000
5429 12980 9923 1 109.50000 418.400000
5430 12980 7418 1 109.50000 418.400000
5430 12980 9923 1 109.50000 418.400000
7418 12980 9923 1 109.50000 418.400000
3245 12981 5431 1 109.50000 418.400000
3245 12981 5432 1 109.50000 418.400000
3245 12981 5433 1 109.50000 418.400000
5431 12981 5432 1 109.50000 418.400000
5431 12981 5433 1 109.50000 418.400000
5432 12981 5433 1 109.50000 418.400000
3037 12982 5434 1 109.50000 418.400000
3037 12982 5435 1 109.50000 418.400000
3037 12982 5436 1 109.50000 418.400000
5434 12982 5435 1 109.50000 418.400000
5434 12982 5436 1 109.50000 418.400000
5435 12982 5436 1 109.50000 418.400000
5437 12983 5438 1 109.50000 418.400000
5437 12983 5439 1 109.50000 418.400000
5437 12983 9159 1 109.50000 418.400000
5438 12983 5439 1 109.50000 418.400000
5438 12983 9159 1 109.50000 418.400000
5439 12983 9159 1 109.50000 418.400000
1129 12984 5441 1 109.50000 418.400000
1129 12984 5442 1 109.50000 418.400000
1129 12984 5443 1 109.50000 418.400000
5441 12984 5442 1 109.50000 418.400000
5441 12984 5443 1 109.50000 418.400000
5442 12984 5443 1 109.50000 418.400000
348 12985 5444 1 109.50000 418.400000
348 12985 11235 1 109.50000 418.400000
348 12985 11365 1 109.50000 418.400000
5444 12985 11235 1 109.50000 418.400000
5444 12985 11365 1 109.50000 418.400000
11235 12985 11365 1 109.50000 418.400000
2527 12986 5446 1 109.50000 418.400000
2527 12986 5447 1 109.50000 418.400000
2527 12986 8593 1 109.50000 418.400000
5446 12986 5447 1 109.50000 418.400000
5446 12986 8593 1 109.50000 418.400000
5447 12986 8593 1 109.50000 418.400000
5318 12987 5448 1 109.50000 418.400000
5318 12987 5449 1 109.50000 418.400000
5318 12987 9465 1 109.50000 418.400000
5448 12987 5449 1 109.50000 418.400000
5448 12987 9465 1 109.50000 418.400000
5449 12987 9465 1 109.50000 418.400000
1720 12988 1721 1 109.50000 418.400000
1720 12988 1722 1 109.50000 418.400000
1720 12988 5450 1 109.50000 418.400000
1721 12988 1722 1 109.50000 418.400000
1721 12988 5450 1 109.50000 418.400000
1722 12988 5450 1 109.50000 418.400000
484 12989 5453 1 109.50000 418.400000
484 12989 5454 1 109.50000 418.400000
484 12989 5455 1 109.50000 418.400000
5453 12989 5454 1 109.50000 418.400000
5453 12989 5455 1 109.50000 418.400000
5454 12989 5455 1 109.50000 418.400000
5456 12990 5457 1 109.50000 418.400000
5456 12990 5458 1 109.50000 418.400000
5456 12990 5459 1 109.50000 418.400000
5457 12990 5458 1 109.50000 418.400000
5457 12990 5459 1 109.50000 418.400000
5458 12990 5459 1 109.50000 418.400000
5460 12991 5461 1 109.50000 418.400000
5460 12991 5462 1 109.50000 418.400000
5460 12991 5463 1 109.50000 418.400000
5461 12991 5462 1 109.50000 418.400000
5461 12991 5463 1 109.50000 418.400000
5462 12991 5463 1 109.50000 418.400000
246 12992 682 1 109.50000 418.400000
246 12992 3393 1 109.50000 418.400000
246 12992 3439 1 109.50000 418.400000
682 12992 3393 1 109.50000 418.400000
682 12992 3439 1 109.50000 418.400000
3393 12992 3439 1 109.50000 418.400000
4891 12993 5404 1 109.50000 418.400000
4891 12993 5465 1 109.50000 418.400000
4891 12993 5466 1 109.50000 418.400000
5404 12993 5465 1 109.50000 418.400000
5404 12993 5466 1 109.50000 418.400000
5465 12993 5466 1 109.50000 418.400000
2670 12994 4756 1 109.50000 418.400000
2670 12994 5470 1 109.50000 418.400000
2670 12994 5471 1 109.50000 418.400000
4756 12994 5470 1 109.50000 418.400000
4756 12994 5471 1 109.50000 418.400000
5470 12994 5471 1 109.50000 418.400000
542 12995 2211 1 109.50000 418.400000
542 12995 5474 1 109.50000 418.400000
542 12995 5475 1 109.50000 418.400000
2211 12995 5474 1 109.50000 418.400000
2211 12995 5475 1 109.50000 418.400000
5474 12995 5475 1 109.50000 418.400000
902 12996 903 1 109.50000 418.400000
902 12996 904 1 109.50000 418.400000
902 12996 905 1 109.50000 418.400000
903 12996 904 1 109.50000 418.400000
903 12996 905 1 109.50000 418.400000
904 12996 905 1 109.50000 418.400000
2356 12997 3115 1 109.50000 418.400000
2356 12997 5477 1 109.50000 418.400000
2356 12997 5478 1 109.50000 418.400000
3115 12997 5477 1 109.50000 418.400000
3115 12997 5478 1 109.50000 418.400000
5477 12997 5478 1 109.50000 418.400000
5479 12998 5480 1 109.50000 418.400000
5479 12998 5481 1 109.50000 418.400000
5479 12998 5482 1 109.50000 418.400000
5480 12998 5481 1 109.50000 418.400000
5480 12998 5482 1 109.50000 418.400000
5481 12998 5482 1 109.50000 418.400000
3743 12999 5483 1 109.50000 418.400000
3743 12999 5484 1 109.50000 418.400000
3743 12999 5485 1 109.50000 418.400000
5483 12999 5484 1 109.50000 418.400000
5483 12999 5485 1 109.50000 418.400000
5484 12999 5485 1 109.50000 418.400000
4085 13000 5486 1 109.50000 418.400000
4085 13000 5487 1 109.50000 418.400000
4085 13000 11174 1 109.50000 418.400000
5486 13000 5487 1 109.50000 418.400000
5486 13000 11174 1 109.50000 418.400000
5487 13000 11174 1 109.50000 418.400000
1791 13001 5488 1 109.50000 418.400000
1791 13001 5489 1 109.50000 418.400000
1791 13001 5490 1 109.50000 418.400000
5488 13001 5489 1 109.50000 418.400000
5488 13001 5490 1 109.50000 418.400000
5489 13001 5490 1 109.50000 418.400000
1779 13002 5491 1 109.50000 418.400000
1779 13002 5492 1 109.50000 418.400000
1779 13002 5493 1 109.50000 418.400000
5491 13002 5492 1 109.50000 418.400000
5491 13002 5493 1 109.50000 418.400000
5492 13002 5493 1 109.50000 418.400000
2236 13003 2625 1 109.50000 418.400000
2236 13003 5494 1 109.50000 418.400000
2236 13003 5495 1 109.50000 418.400000
2625 13003 5494 1 109.50000 418.400000
2625 13003 5495 1 109.50000 418.400000
5494 13003 5495 1 109.50000 418.400000
4459 13004 4750 1 109.50000 418.400000
4459 13004 5499 1 109.50000 418.400000
4459 13004 5500 1 109.50000 418.400000
4750 13004 5499 1 109.50000 418.400000
4750 13004 5500 1 109.50000 418.400000
5499 13004 5500 1 109.50000 418.400000
3448 13005 5504 1 109.50000 418.400000
3448 13005 5505 1 109.50000 418.400000
3448 13005 5506 1 109.50000 418.400000
5504 13005 5505 1 109.50000 418.400000
5504 13005 5506 1 109.50000 418.400000
5505 13005 5506 1 109.50000 418.400000
5357 13006 5507 1 109.50000 418.400000
5357 13006 5508 1 109.50000 418.400000
5357 13006 5509 1 109.50000 418.400000
5507 13006 5508 1 109.50000 418.400000
5507 13006 5509 1 109.50000 418.400000
5508 13006 5509 1 109.50000 418.400000
3575 13007 3876 1 109.50000 418.400000
3575 13007 5510 1 109.50000 418.400000
3575 13007 5511 1 109.50000 418.400000
3876 13007 5510 1 109.50000 418.400000
3876 13007 5511 1 109.50000 418.400000
5510 13007 5511 1 109.50000 418.400000
5512 13008 5513 1 109.50000 418.400000
5512 13008 5514 1 109.50000 418.400000
5512 13008 5515 1 109.50000 418.400000
5513 13008 5514 1 109.50000 418.400000
5513 13008 5515 1 109.50000 418.400000
5514 13008 5515 1 109.50000 418.400000
1677 13009 5517 1 109.50000 418.400000
1677 13009 5518 1 109.50000 418.400000
1677 13009 5519 1 109.50000 418.400000
5517 13009 5518 1 109.50000 418.400000
5517 13009 5519 1 109.50000 418.400000
5518 13009 5519 1 109.50000 418.400000
5156 13010 5520 1 109.50000 418.400000
5156 13010 5521 1 109.50000 418.400000
5156 13010 5522 1 109.50000 418.400000
5520 13010 5521 1 109.50000 418.400000
5520 13010 5522 1 109.50000 418.400000
5521 13010 5522 1 109.50000 418.400000
546 13011 3176 1 109.50000 418.400000
546 13011 5523 1 109.50000 418.400000
546 13011 5524 1 109.50000 418.400000
3176 13011 5523 1 109.50000 418.400000
3176 13011 5524 1 109.50000 418.400000
5523 13011 5524 1 109.50000 418.400000
1062 13012 1503 1 109.50000 418.400000
1062 13012 5439 1 109.50000 418.400000
1062 13012 5525 1 109.50000 418.400000
1503 13012 5439 1 109.50000 418.400000
1503 13012 5525 1 109.50000 418.400000
5439 13012 5525 1 109.50000 418.400000
5528 13013 5529 1 109.50000 418.400000
5528 13013 5530 1 109.50000 418.400000
5528 13013 5531 1 109.50000 418.400000
5529 13013 5530 1 109.50000 418.400000
5529 13013 5531 1 109.50000 418.400000
5530 13013 5531 1 109.50000 418.400000
4774 13014 5532 1 109.50000 418.400000
4774 13014 5533 1 109.50000 418.400000
4774 13014 5534 1 109.50000 418.400000
5532 13014 5533 1 109.50000 418.400000
5532 13014 5534 1 109.50000 418.400000
5533 13014 5534 1 109.50000 418.400000
2244 13015 2872 1 109.50000 418.400000
2244 13015 5535 1 109.50000 418.400000
2244 13015 5536 1 109.50000 418.400000
2872 13015 5535 1 109.50000 418.400000
2872 13015 5536 1 109.50000 418.400000
5535 13015 5536 1 109.50000 418.400000
2081 13016 5537 1 109.50000 418.400000
2081 13016 5538 1 109.50000 418.400000
2081 13016 5539 1 109.50000 418.400000
5537 13016 5538 1 109.50000 418.400000
5537 13016 5539 1 109.50000 418.400000
5538 13016 5539 1 109.50000 418.400000
5540 13017 5541 1 109.50000 418.400000
5540 13017 11236 1 109.50000 418.400000
5540 13017 11349 1 109.50000 418.400000
5541 13017 11236 1 109.50000 418.400000
5541 13017 11349 1 109.50000 418.400000
11236 13017 11349 1 109.50000 418.400000
1863 13018 2232 1 109.50000 418.400000
1863 13018 5542 1 109.50000 418.400000
1863 13018 5543 1 109.50000 418.400000
2232 13018 5542 1 109.50000 418.400000
2232 13018 5543 1 109.50000 418.400000
5542 13018 5543 1 109.50000 418.400000
5544 13019 5546 1 109.50000 418.400000
5544 13019 5547 1 109.50000 418.400000
5544 13019 7953 1 109.50000 418.400000
5546 13019 5547 1 109.50000 418.400000
5546 13019 7953 1 109.50000 418.400000
5547 13019 7953 1 109.50000 418.400000
3291 13020 3293 1 109.50000 418.400000
3291 13020 5548 1 109.50000 418.400000
3291 13020 5549 1 109.50000 418.400000
3293 13020 5548 1 109.50000 418.400000
3293 13020 5549 1 109.50000 418.400000
5548 13020 5549 1 109.50000 418.400000
5553 13021 5554 1 109.50000 418.400000
5553 13021 5555 1 109.50000 418.400000
5553 13021 5556 1 109.50000 418.400000
5554 13021 5555 1 109.50000 418.400000
5554 13021 5556 1 109.50000 418.400000
5555 13021 5556 1 109.50000 418.400000
1251 13022 5557 1 109.50000 418.400000
1251 13022 5558 1 109.50000 418.400000
1251 13022 5559 1 109.50000 418.400000
5557 13022 5558 1 109.50000 418.400000
5557 13022 5559 1 109.50000 418.400000
5558 13022 5559 1 109.50000 418.400000
2475 13023 3749 1 109.50000 418.400000
2475 13023 5560 1 109.50000 418.400000
2475 13023 5561 1 109.50000 418.400000
3749 13023 5560 1 109.50000 418.400000
3749 13023 5561 1 109.50000 418.400000
5560 13023 5561 1 109.50000 418.400000
2257 13024 5562 1 109.50000 418.400000
2257 13024 5563 1 109.50000 418.400000
2257 13024 5564 1 109.50000 418.400000
5562 13024 5563 1 109.50000 418.400000
5562 13024 5564 1 109.50000 418.400000
5563 13024 5564 1 109.50000 418.400000
3056 13025 5565 1 109.50000 418.400000
3056 13025 5566 1 109.50000 418.400000
3056 13025 5567 1 109.50000 418.400000
5565 13025 5566 1 109.50000 418.400000
5565 13025 5567 1 109.50000 418.400000
5566 13025 5567 1 109.50000 418.400000
1427 13026 5568 1 109.50000 418.400000
1427 13026 5569 1 109.50000 418.400000
1427 13026 5570 1 109.50000 418.400000
5568 13026 5569 1 109.50000 418.400000
5568 13026 5570 1 109.50000 418.400000
5569 13026 5570 1 109.50000 418.400000
2577 13027 3565 1 109.50000 418.400000
2577 13027 3648 1 109.50000 418.400000
2577 13027 5571 1 109.50000 418.400000
3565 13027 3648 1 109.50000 418.400000
3565 13027 5571 1 109.50000 418.400000
3648 13027 5571 1 109.50000 418.400000
1611 13028 5574 1 109.50000 418.400000
1611 13028 5575 1 109.50000 418.400000
1611 13028 5576 1 109.50000 418.400000
5574 13028 5575 1 109.50000 418.400000
5574 13028 5576 1 109.50000 418.400000
5575 13028 5576 1 109.50000 418.400000
4927 13029 5582 1 109.50000 418.400000
4927 13029 5583 1 109.50000 418.400000
4927 13029 5584 1 109.50000 418.400000
5582 13029 5583 1 109.50000 418.400000
5582 13029 5584 1 109.50000 418.400000
5583 13029 5584 1 109.50000 418.400000
3186 13030 4354 1 109.50000 418.400000
3186 13030 5585 1 109.50000 418.400000
3186 13030 5586 1 109.50000 418.400000
4354 13030 5585 1 109.50000 418.400000
4354 13030 5586 1 109.50000 418.400000
5585 13030 5586 1 109.50000 418.400000
5587 13031 5588 1 109.50000 418.400000
5587 13031 5589 1 109.50000 418.400000
5587 13031 5590 1 109.50000 418.400000
5588 13031 5589 1 109.50000 418.400000
5588 13031 5590 1 109.50000 418.400000
5589 13031 5590 1 109.50000 418.400000
4079 13032 5591 1 109.50000 418.400000
4079 13032 5592 1 109.50000 418.400000
4079 13032 5593 1 109.50000 418.400000
5591 13032 5592 1 109.50000 418.400000
5591 13032 5593 1 109.50000 418.400000
5592 13032 5593 1 109.50000 418.400000
5594 13033 5595 1 109.50000 418.400000
5594 13033 5596 1 109.50000 418.400000
5594 13033 5597 1 109.50000 418.400000
5595 13033 5596 1 109.50000 418.400000
5595 13033 5597 1 109.50000 418.400000
5596 13033 5597 1 109.50000 418.400000
1426 13034 5598 1 109.50000 418.400000
1426 13034 5599 1 109.50000 418.400000
1426 13034 5820 1 109.50000 418.400000
5598 13034 5599 1 109.50000 418.400000
5598 13034 5820 1 109.50000 418.400000
5599 13034 5820 1 109.50000 418.400000
2277 13035 5600 1 109.50000 418.400000
2277 13035 5601 1 109.50000 418.400000
2277 13035 7655 1 109.50000 418.400000
5600 13035 5601 1 109.50000 418.400000
5600 13035 7655 1 109.50000 418.400000
5601 13035 7655 1 109.50000 418.400000
248 13036 5602 1 109.50000 418.400000
248 13036 5603 1 109.50000 418.400000
248 13036 5604 1 109.50000 418.400000
5602 13036 5603 1 109.50000 418.400000
5602 13036 5604 1 109.50000 418.400000
5603 13036 5604 1 109.50000 418.400000
5605 13037 5606 1 109.50000 418.400000
5605 13037 5607 1 109.50000 418.400000
5605 13037 5608 1 109.50000 418.400000
5606 13037 5607 1 109.50000 418.400000
5606 13037 5608 1 109.50000 418.400000
5607 13037 5608 1 109.50000 418.400000
1514 13038 5609 1 109.50000 418.400000
1514 13038 5610 1 109.50000 418.400000
1514 13038 5611 1 109.50000 418.400000
5609 13038 5610 1 109.50000 418.400000
5609 13038 5611 1 109.50000 418.400000
5610 13038 5611 1 109.50000 418.400000
5063 13039 5612 1 109.50000 418.400000
5063 13039 5613 1 109.50000 418.400000
5063 13039 5614 1 109.50000 418.400000
5612 13039 5613 1 109.50000 418.400000
5612 13039 5614 1 109.50000 418.400000
5613 13039 5614 1 109.50000 418.400000
5570 13040 5615 1 109.50000 418.400000
5570 13040 5616 1 109.50000 418.400000
5570 13040 5617 1 109.50000 418.400000
5615 13040 5616 1 109.50000 418.400000
5615 13040 5617 1 109.50000 418.400000
5616 13040 5617 1 109.50000 418.400000
5618 13041 5619 1 109.50000 418.400000
5618 13041 5620 1 109.50000 418.400000
5618 13041 5621 1 109.50000 418.400000
5619 13041 5620 1 109.50000 418.400000
5619 13041 5621 1 109.50000 418.400000
5620 13041 5621 1 109.50000 418.400000
5622 13042 5623 1 109.50000 418.400000
5622 13042 5624 1 109.50000 418.400000
5622 13042 5625 1 109.50000 418.400000
5623 13042 5624 1 109.50000 418.400000
5623 13042 5625 1 109.50000 418.400000
5624 13042 5625 1 109.50000 418.400000
759 13043 3440 1 109.50000 418.400000
759 13043 3917 1 109.50000 418.400000
759 13043 5626 1 109.50000 418.400000
3440 13043 3917 1 109.50000 418.400000
3440 13043 5626 1 109.50000 418.400000
3917 13043 5626 1 109.50000 418.400000
1793 13044 3733 1 109.50000 418.400000
1793 13044 5627 1 109.50000 418.400000
1793 13044 5628 1 109.50000 418.400000
3733 13044 5627 1 109.50000 418.400000
3733 13044 5628 1 109.50000 418.400000
5627 13044 5628 1 109.50000 418.400000
1448 13045 4596 1 109.50000 418.400000
1448 13045 5629 1 109.50000 418.400000
1448 13045 8855 1 109.50000 418.400000
4596 13045 5629 1 109.50000 418.400000
4596 13045 8855 1 109.50000 418.400000
5629 13045 8855 1 109.50000 418.400000
5631 13046 5633 1 109.50000 418.400000
5631 13046 5634 1 109.50000 418.400000
5631 13046 7674 1 109.50000 418.400000
5633 13046 5634 1 109.50000 418.400000
5633 13046 7674 1 109.50000 418.400000
5634 13046 7674 1 109.50000 418.400000
5635 13047 5636 1 109.50000 418.400000
5635 13047 5637 1 109.50000 418.400000
5635 13047 5638 1 109.50000 418.400000
5636 13047 5637 1 109.50000 418.400000
5636 13047 5638 1 109.50000 418.400000
5637 13047 5638 1 109.50000 418.400000
4764 13048 5639 1 109.50000 418.400000
4764 13048 5640 1 109.50000 418.400000
4764 13048 5641 1 109.50000 418.400000
5639 13048 5640 1 109.50000 418.400000
5639 13048 5641 1 109.50000 418.400000
5640 13048 5641 1 109.50000 418.400000
5642 13049 5643 1 109.50000 418.400000
5642 13049 5644 1 109.50000 418.400000
5642 13049 5645 1 109.50000 418.400000
5643 13049 5644 1 109.50000 418.400000
5643 13049 5645 1 109.50000 418.400000
5644 13049 5645 1 109.50000 418.400000
2210 13050 5646 1 109.50000 418.400000
2210 13050 5647 1 109.50000 418.400000
2210 13050 5648 1 109.50000 418.400000
5646 13050 5647 1 109.50000 418.400000
5646 13050 5648 1 109.50000 418.400000
5647 13050 5648 1 109.50000 418.400000
5649 13051 5650 1 109.50000 418.400000
5649 13051 5651 1 109.50000 418.400000
5649 13051 5652 1 109.50000 418.400000
5650 13051 5651 1 109.50000 418.400000
5650 13051 5652 1 109.50000 418.400000
5651 13051 5652 1 109.50000 418.400000
1837 13052 3842 1 109.50000 418.400000
1837 13052 5654 1 109.50000 418.400000
1837 13052 5655 1 109.50000 418.400000
3842 13052 5654 1 109.50000 418.400000
3842 13052 5655 1 109.50000 418.400000
5654 13052 5655 1 109.50000 418.400000
5656 13053 5657 1 109.50000 418.400000
5656 13053 5658 1 109.50000 418.400000
5656 13053 5659 1 109.50000 418.400000
5657 13053 5658 1 109.50000 418.400000
5657 13053 5659 1 109.50000 418.400000
5658 13053 5659 1 109.50000 418.400000
4787 13054 5661 1 109.50000 418.400000
4787 13054 5662 1 109.50000 418.400000
4787 13054 5663 1 109.50000 418.400000
5661 13054 5662 1 109.50000 418.400000
5661 13054 5663 1 109.50000 418.400000
5662 13054 5663 1 109.50000 418.400000
1816 13055 5664 1 109.50000 418.400000
1816 13055 5665 1 109.50000 418.400000
1816 13055 5666 1 109.50000 418.400000
5664 13055 5665 1 109.50000 418.400000
5664 13055 5666 1 109.50000 418.400000
5665 13055 5666 1 109.50000 418.400000
3091 13056 5667 1 109.50000 418.400000
3091 13056 5668 1 109.50000 418.400000
3091 13056 5669 1 109.50000 418.400000
5667 13056 5668 1 109.50000 418.400000
5667 13056 5669 1 109.50000 418.400000
5668 13056 5669 1 109.50000 418.400000
5670 13057 5671 1 109.50000 418.400000
5670 13057 5672 1 109.50000 418.400000
5670 13057 5673 1 109.50000 418.400000
5671 13057 5672 1 109.50000 418.400000
5671 13057 5673 1 109.50000 418.400000
5672 13057 5673 1 109.50000 418.400000
5674 13058 5675 1 109.50000 418.400000
5674 13058 5676 1 109.50000 418.400000
5674 13058 5677 1 109.50000 418.400000
5675 13058 5676 1 109.50000 418.400000
5675 13058 5677 1 109.50000 418.400000
5676 13058 5677 1 109.50000 418.400000
3103 13059 5678 1 109.50000 418.400000
3103 13059 5679 1 109.50000 418.400000
3103 13059 5680 1 109.50000 418.400000
5678 13059 5679 1 109.50000 418.400000
5678 13059 5680 1 109.50000 418.400000
5679 13059 5680 1 109.50000 418.400000
2882 13060 3828 1 109.50000 418.400000
2882 13060 5681 1 109.50000 418.400000
2882 13060 5682 1 109.50000 418.400000
3828 13060 5681 1 109.50000 418.400000
3828 13060 5682 1 109.50000 418.400000
5681 13060 5682 1 109.50000 418.400000
483 13061 5683 1 109.50000 418.400000
483 13061 5684 1 109.50000 418.400000
483 13061 5685 1 109.50000 418.400000
5683 13061 5684 1 109.50000 418.400000
5683 13061 5685 1 109.50000 418.400000
5684 13061 5685 1 109.50000 418.400000
1903 13062 5686 1 109.50000 418.400000
1903 13062 5687 1 109.50000 418.400000
1903 13062 5688 1 109.50000 418.400000
5686 13062 5687 1 109.50000 418.400000
5686 13062 5688 1 109.50000 418.400000
5687 13062 5688 1 109.50000 418.400000
5205 13063 5521 1 109.50000 418.400000
5205 13063 5689 1 109.50000 418.400000
5205 13063 5690 1 109.50000 418.400000
5521 13063 5689 1 109.50000 418.400000
5521 13063 5690 1 109.50000 418.400000
5689 13063 5690 1 109.50000 418.400000
5396 13064 5691 1 109.50000 418.400000
5396 13064 5692 1 109.50000 418.400000
5396 13064 5693 1 109.50000 418.400000
5691 13064 5692 1 109.50000 418.400000
5691 13064 5693 1 109.50000 418.400000
5692 13064 5693 1 109.50000 418.400000
1928 13065 1931 1 109.50000 418.400000
1928 13065 2350 1 109.50000 418.400000
1928 13065 2352 1 109.50000 418.400000
1931 13065 2350 1 109.50000 418.400000
1931 13065 2352 1 109.50000 418.400000
2350 13065 2352 1 109.50000 418.400000
5696 13066 5697 1 109.50000 418.400000
5696 13066 5698 1 109.50000 418.400000
5696 13066 5699 1 109.50000 418.400000
5697 13066 5698 1 109.50000 418.400000
5697 13066 5699 1 109.50000 418.400000
5698 13066 5699 1 109.50000 418.400000
5317 13067 5700 1 109.50000 418.400000
5317 13067 5701 1 109.50000 418.400000
5317 13067 5702 1 109.50000 418.400000
5700 13067 5701 1 109.50000 418.400000
5700 13067 5702 1 109.50000 418.400000
5701 13067 5702 1 109.50000 418.400000
5214 13068 5703 1 109.50000 418.400000
5214 13068 5704 1 109.50000 418.400000
5214 13068 5705 1 109.50000 418.400000
5703 13068 5704 1 109.50000 418.400000
5703 13068 5705 1 109.50000 418.400000
5704 13068 5705 1 109.50000 418.400000
701 13069 5707 1 109.50000 418.400000
701 13069 5708 1 109.50000 418.400000
701 13069 5844 1 109.50000 418.400000
5707 13069 5708 1 109.50000 418.400000
5707 13069 5844 1 109.50000 418.400000
5708 13069 5844 1 109.50000 418.400000
3253 13070 4928 1 109.50000 418.400000
3253 13070 5709 1 109.50000 418.400000
3253 13070 5710 1 109.50000 418.400000
4928 13070 5709 1 109.50000 418.400000
4928 13070 5710 1 109.50000 418.400000
5709 13070 5710 1 109.50000 418.400000
1399 13071 1539 1 109.50000 418.400000
1399 13071 5711 1 109.50000 418.400000
1399 13071 5712 1 109.50000 418.400000
1539 13071 5711 1 109.50000 418.400000
1539 13071 5712 1 109.50000 418.400000
5711 13071 5712 1 109.50000 418.400000
5718 13072 5719 1 109.50000 418.400000
5718 13072 5720 1 109.50000 418.400000
5718 13072 5721 1 109.50000 418.400000
5719 13072 5720 1 109.50000 418.400000
5719 13072 5721 1 109.50000 418.400000
5720 13072 5721 1 109.50000 418.400000
2011 13073 5722 1 109.50000 418.400000
2011 13073 5723 1 109.50000 418.400000
2011 13073 5724 1 109.50000 418.400000
5722 13073 5723 1 109.50000 418.400000
5722 13073 5724 1 109.50000 418.400000
5723 13073 5724 1 109.50000 418.400000
3045 13074 5728 1 109.50000 418.400000
3045 13074 5729 1 109.50000 418.400000
3045 13074 5730 1 109.50000 418.400000
5728 13074 5729 1 109.50000 418.400000
5728 13074 5730 1 109.50000 418.400000
5729 13074 5730 1 109.50000 418.400000
269 13075 3175 1 109.50000 418.400000
269 13075 5731 1 109.50000 418.400000
269 13075 5732 1 109.50000 418.400000
3175 13075 5731 1 109.50000 418.400000
3175 13075 5732 1 109.50000 418.400000
5731 13075 5732 1 109.50000 418.400000
728 13076 2417 1 109.50000 418.400000
728 13076 5733 1 109.50000 418.400000
728 13076 5734 1 109.50000 418.400000
2417 13076 5733 1 109.50000 418.400000
2417 13076 5734 1 109.50000 418.400000
5733 13076 5734 1 109.50000 418.400000
1496 13077 4013 1 109.50000 418.400000
1496 13077 5735 1 109.50000 418.400000
1496 13077 5736 1 109.50000 418.400000
4013 13077 5735 1 109.50000 418.400000
4013 13077 5736 1 109.50000 418.400000
5735 13077 5736 1 109.50000 418.400000
4338 13078 5737 1 109.50000 418.400000
4338 13078 11238 1 109.50000 418.400000
4338 13078 11374 1 109.50000 418.400000
5737 13078 11238 1 109.50000 418.400000
5737 13078 11374 1 109.50000 418.400000
11238 13078 11374 1 109.50000 418.400000
5738 13079 5739 1 109.50000 418.400000
5738 13079 5740 1 109.50000 418.400000
5738 13079 5741 1 109.50000 418.400000
5739 13079 5740 1 109.50000 418.400000
5739 13079 5741 1 109.50000 418.400000
5740 13079 5741 1 109.50000 418.400000
5742 13080 5743 1 109.50000 418.400000
5742 13080 10471 1 109.50000 418.400000
5742 13080 10843 1 109.50000 418.400000
5743 13080 10471 1 109.50000 418.400000
5743 13080 10843 1 109.50000 418.400000
10471 13080 10843 1 109.50000 418.400000
98 13081 2069 1 109.50000 418.400000
98 13081 5745 1 109.50000 418.400000
98 13081 5746 1 109.50000 418.400000
2069 13081 5745 1 109.50000 418.400000
2069 13081 5746 1 109.50000 418.400000
5745 13081 5746 1 109.50000 418.400000
2114 13082 5384 1 109.50000 418.400000
2114 13082 5747 1 109.50000 418.400000
2114 13082 5748 1 109.50000 418.400000
5384 13082 5747 1 109.50000 418.400000
5384 13082 5748 1 109.50000 418.400000
5747 13082 5748 1 109.50000 418.400000
2251 13083 3619 1 109.50000 418.400000
2251 13083 5749 1 109.50000 418.400000
2251 13083 5750 1 109.50000 418.400000
3619 13083 5749 1 109.50000 418.400000
3619 13083 5750 1 109.50000 418.400000
5749 13083 5750 1 109.50000 418.400000
389 13084 5753 1 109.50000 418.400000
389 13084 5754 1 109.50000 418.400000
389 13084 5755 1 109.50000 418.400000
5753 13084 5754 1 109.50000 418.400000
5753 13084 5755 1 109.50000 418.400000
5754 13084 5755 1 109.50000 418.400000
3267 13085 5756 1 109.50000 418.400000
3267 13085 5757 1 109.50000 418.400000
3267 13085 5758 1 109.50000 418.400000
5756 13085 5757 1 109.50000 418.400000
5756 13085 5758 1 109.50000 418.400000
5757 13085 5758 1 109.50000 418.400000
3171 13086 5759 1 109.50000 418.400000
3171 13086 7528 1 109.50000 418.400000
3171 13086 9740 1 109.50000 418.400000
5759 13086 7528 1 109.50000 418.400000
5759 13086 9740 1 109.50000 418.400000
7528 13086 9740 1 109.50000 418.400000
5761 13087 5762 1 109.50000 418.400000
5761 13087 5763 1 109.50000 418.400000
5761 13087 10075 1 109.50000 418.400000
5762 13087 5763 1 109.50000 418.400000
5762 13087 10075 1 109.50000 418.400000
5763 13087 10075 1 109.50000 418.400000
1983 13088 3789 1 109.50000 418.400000
1983 13088 5765 1 109.50000 418.400000
1983 13088 5766 1 109.50000 418.400000
3789 13088 5765 1 109.50000 418.400000
3789 13088 5766 1 109.50000 418.400000
5765 13088 5766 1 109.50000 418.400000
5767 13089 5768 1 109.50000 418.400000
5767 13089 5769 1 109.50000 418.400000
5767 13089 5770 1 109.50000 418.400000
5768 13089 5769 1 109.50000 418.400000
5768 13089 5770 1 109.50000 418.400000
5769 13089 5770 1 109.50000 418.400000
923 13090 2932 1 109.50000 418.400000
923 13090 4429 1 109.50000 418.400000
923 13090 5771 1 109.50000 418.400000
2932 13090 4429 1 109.50000 418.400000
2932 13090 5771 1 109.50000 418.400000
4429 13090 5771 1 109.50000 418.400000
2802 13091 4638 1 109.50000 418.400000
2802 13091 5772 1 109.50000 418.400000
2802 13091 5773 1 109.50000 418.400000
4638 13091 5772 1 109.50000 418.400000
4638 13091 5773 1 109.50000 418.400000
5772 13091 5773 1 109.50000 418.400000
1747 13092 5777 1 109.50000 418.400000
1747 13092 5778 1 109.50000 418.400000
1747 13092 5779 1 109.50000 418.400000
5777 13092 5778 1 109.50000 418.400000
5777 13092 5779 1 109.50000 418.400000
5778 13092 5779 1 109.50000 418.400000
5677 13093 5780 1 109.50000 418.400000
5677 13093 5781 1 109.50000 418.400000
5677 13093 5782 1 109.50000 418.400000
5780 13093 5781 1 109.50000 418.400000
5780 13093 5782 1 109.50000 418.400000
5781 13093 5782 1 109.50000 418.400000
209 13094 5783 1 109.50000 418.400000
209 13094 5784 1 109.50000 418.400000
209 13094 5785 1 109.50000 418.400000
5783 13094 5784 1 109.50000 418.400000
5783 13094 5785 1 109.50000 418.400000
5784 13094 5785 1 109.50000 418.400000
3172 13095 3246 1 109.50000 418.400000
3172 13095 4829 1 109.50000 418.400000
3172 13095 5786 1 109.50000 418.400000
3246 13095 4829 1 109.50000 418.400000
3246 13095 5786 1 109.50000 418.400000
4829 13095 5786 1 109.50000 418.400000
5787 13096 5788 1 109.50000 418.400000
5787 13096 5789 1 109.50000 418.400000
5787 13096 5790 1 109.50000 418.400000
5788 13096 5789 1 109.50000 418.400000
5788 13096 5790 1 109.50000 418.400000
5789 13096 5790 1 109.50000 418.400000
4449 13097 5792 1 109.50000 418.400000
4449 13097 5793 1 109.50000 418.400000
4449 13097 7194 1 109.50000 418.400000
5792 13097 5793 1 109.50000 418.400000
5792 13097 7194 1 109.50000 418.400000
5793 13097 7194 1 109.50000 418.400000
5795 13098 5796 1 109.50000 418.400000
5795 13098 5797 1 109.50000 418.400000
5795 13098 8314 1 109.50000 418.400000
5796 13098 5797 1 109.50000 418.400000
5796 13098 8314 1 109.50000 418.400000
5797 13098 8314 1 109.50000 418.400000
5798 13099 5799 1 109.50000 418.400000
5798 13099 5800 1 109.50000 418.400000
5798 13099 5801 1 109.50000 418.400000
5799 13099 5800 1 109.50000 418.400000
5799 13099 5801 1 109.50000 418.400000
5800 13099 5801 1 109.50000 418.400000
193 13100 691 1 109.50000 418.400000
193 13100 2842 1 109.50000 418.400000
193 13100 5802 1 109.50000 418.400000
691 13100 2842 1 109.50000 418.400000
691 13100 5802 1 109.50000 418.400000
2842 13100 5802 1 109.50000 418.400000
2480 13101 5803 1 109.50000 418.400000
2480 13101 5804 1 109.50000 418.400000
2480 13101 5805 1 109.50000 418.400000
5803 13101 5804 1 109.50000 418.400000
5803 13101 5805 1 109.50000 418.400000
5804 13101 5805 1 109.50000 418.400000
5806 13102 5807 1 109.50000 418.400000
5806 13102 5808 1 109.50000 418.400000
5806 13102 5809 1 109.50000 418.400000
5807 13102 5808 1 109.50000 418.400000
5807 13102 5809 1 109.50000 418.400000
5808 13102 5809 1 109.50000 418.400000
3520 13103 3877 1 109.50000 418.400000
3520 13103 5810 1 109.50000 418.400000
3520 13103 5811 1 109.50000 418.400000
3877 13103 5810 1 109.50000 418.400000
3877 13103 5811 1 109.50000 418.400000
5810 13103 5811 1 109.50000 418.400000
3593 13104 5812 1 109.50000 418.400000
3593 13104 5813 1 109.50000 418.400000
3593 13104 5814 1 109.50000 418.400000
5812 13104 5813 1 109.50000 418.400000
5812 13104 5814 1 109.50000 418.400000
5813 13104 5814 1 109.50000 418.400000
4670 13105 5815 1 109.50000 418.400000
4670 13105 5816 1 109.50000 418.400000
4670 13105 5817 1 109.50000 418.400000
5815 13105 5816 1 109.50000 418.400000
5815 13105 5817 1 109.50000 418.400000
5816 13105 5817 1 109.50000 418.400000
1852 13106 3074 1 109.50000 418.400000
1852 13106 5818 1 109.50000 418.400000
1852 13106 5819 1 109.50000 418.400000
3074 13106 5818 1 109.50000 418.400000
3074 13106 5819 1 109.50000 418.400000
5818 13106 5819 1 109.50000 418.400000
535 13107 4291 1 109.50000 418.400000
535 13107 5599 1 109.50000 418.400000
535 13107 5821 1 109.50000 418.400000
4291 13107 5599 1 109.50000 418.400000
4291 13107 5821 1 109.50000 418.400000
5599 13107 5821 1 109.50000 418.400000
2793 13108 3802 1 109.50000 418.400000
2793 13108 5822 1 109.50000 418.400000
2793 13108 5823 1 109.50000 418.400000
3802 13108 5822 1 109.50000 418.400000
3802 13108 5823 1 109.50000 418.400000
5822 13108 5823 1 109.50000 418.400000
5825 13109 5826 1 109.50000 418.400000
5825 13109 5827 1 109.50000 418.400000
5825 13109 9839 1 109.50000 418.400000
5826 13109 5827 1 109.50000 418.400000
5826 13109 9839 1 109.50000 418.400000
5827 13109 9839 1 109.50000 418.400000
1910 13110 2840 1 109.50000 418.400000
1910 13110 5777 1 109.50000 418.400000
1910 13110 5831 1 109.50000 418.400000
2840 13110 5777 1 109.50000 418.400000
2840 13110 5831 1 109.50000 418.400000
5777 13110 5831 1 109.50000 418.400000
5835 13111 5836 1 109.50000 418.400000
5835 13111 6820 1 109.50000 418.400000
5835 13111 9421 1 109.50000 418.400000
5836 13111 6820 1 109.50000 418.400000
5836 13111 9421 1 109.50000 418.400000
6820 13111 9421 1 109.50000 418.400000
4368 13112 5706 1 109.50000 418.400000
4368 13112 5708 1 109.50000 418.400000
4368 13112 5843 1 109.50000 418.400000
5706 13112 5708 1 109.50000 418.400000
5706 13112 5843 1 109.50000 418.400000
5708 13112 5843 1 109.50000 418.400000
4107 13113 4108 1 109.50000 418.400000
4107 13113 5845 1 109.50000 418.400000
4107 13113 5846 1 109.50000 418.400000
4108 13113 5845 1 109.50000 418.400000
4108 13113 5846 1 109.50000 418.400000
5845 13113 5846 1 109.50000 418.400000
5637 13114 5847 1 109.50000 418.400000
5637 13114 5848 1 109.50000 418.400000
5637 13114 5849 1 109.50000 418.400000
5847 13114 5848 1 109.50000 418.400000
5847 13114 5849 1 109.50000 418.400000
5848 13114 5849 1 109.50000 418.400000
410 13115 5850 1 109.50000 418.400000
410 13115 5851 1 109.50000 418.400000
410 13115 5852 1 109.50000 418.400000
5850 13115 5851 1 109.50000 418.400000
5850 13115 5852 1 109.50000 418.400000
5851 13115 5852 1 109.50000 418.400000
2611 13116 3586 1 109.50000 418.400000
2611 13116 5346 1 109.50000 418.400000
2611 13116 5853 1 109.50000 418.400000
3586 13116 5346 1 109.50000 418.400000
3586 13116 5853 1 109.50000 418.400000
5346 13116 5853 1 109.50000 418.400000
5854 13117 5855 1 109.50000 418.400000
5854 13117 5856 1 109.50000 418.400000
5854 13117 5857 1 109.50000 418.400000
5855 13117 5856 1 109.50000 418.400000
5855 13117 5857 1 109.50000 418.400000
5856 13117 5857 1 109.50000 418.400000
3444 13118 5062 1 109.50000 418.400000
3444 13118 5858 1 109.50000 418.400000
3444 13118 5859 1 109.50000 418.400000
5062 13118 5858 1 109.50000 418.400000
5062 13118 5859 1 109.50000 418.400000
5858 13118 5859 1 109.50000 418.400000
3628 13119 5860 1 109.50000 418.400000
3628 13119 10356 1 109.50000 418.400000
3628 13119 11392 1 109.50000 418.400000
5860 13119 10356 1 109.50000 418.400000
5860 13119 11392 1 109.50000 418.400000
10356 13119 11392 1 109.50000 418.400000
4834 13120 5862 1 109.50000 418.400000
4834 13120 5864 1 109.50000 418.400000
4834 13120 10290 1 109.50000 418.400000
5862 13120 5864 1 109.50000 418.400000
5862 13120 10290 1 109.50000 418.400000
5864 13120 10290 1 109.50000 418.400000
5865 13121 5866 1 109.50000 418.400000
5865 13121 5867 1 109.50000 418.400000
5865 13121 8664 1 109.50000 418.400000
5866 13121 5867 1 109.50000 418.400000
5866 13121 8664 1 109.50000 418.400000
5867 13121 8664 1 109.50000 418.400000
3851 13122 5283 1 109.50000 418.400000
3851 13122 5868 1 109.50000 418.400000
3851 13122 5869 1 109.50000 418.400000
5283 13122 5868 1 109.50000 418.400000
5283 13122 5869 1 109.50000 418.400000
5868 13122 5869 1 109.50000 418.400000
3005 13123 5870 1 109.50000 418.400000
3005 13123 5871 1 109.50000 418.400000
3005 13123 5872 1 109.50000 418.400000
5870 13123 5871 1 109.50000 418.400000
5870 13123 5872 1 109.50000 418.400000
5871 13123 5872 1 109.50000 418.400000
468 13124 5873 1 109.50000 418.400000
468 13124 5874 1 109.50000 418.400000
468 13124 5875 1 109.50000 418.400000
5873 13124 5874 1 109.50000 418.400000
5873 13124 5875 1 109.50000 418.400000
5874 13124 5875 1 109.50000 418.400000
5876 13125 5877 1 109.50000 418.400000
5876 13125 5878 1 109.50000 418.400000
5876 13125 5879 1 109.50000 418.400000
5877 13125 5878 1 109.50000 418.400000
5877 13125 5879 1 109.50000 418.400000
5878 13125 5879 1 109.50000 418.400000
5880 13126 5881 1 109.50000 418.400000
5880 13126 5882 1 109.50000 418.400000
5880 13126 5883 1 109.50000 418.400000
5881 13126 5882 1 109.50000 418.400000
5881 13126 5883 1 109.50000 418.400000
5882 13126 5883 1 109.50000 418.400000
3153 13127 5884 1 109.50000 418.400000
3153 13127 5885 1 109.50000 418.400000
3153 13127 5886 1 109.50000 418.400000
5884 13127 5885 1 109.50000 418.400000
5884 13127 5886 1 109.50000 418.400000
5885 13127 5886 1 109.50000 418.400000
1761 13128 5217 1 109.50000 418.400000
1761 13128 5887 1 109.50000 418.400000
1761 13128 5888 1 109.50000 418.400000
5217 13128 5887 1 109.50000 418.400000
5217 13128 5888 1 109.50000 418.400000
5887 13128 5888 1 109.50000 418.400000
4806 13129 5889 1 109.50000 418.400000
4806 13129 5890 1 109.50000 418.400000
4806 13129 5891 1 109.50000 418.400000
5889 13129 5890 1 109.50000 418.400000
5889 13129 5891 1 109.50000 418.400000
5890 13129 5891 1 109.50000 418.400000
1884 13130 5895 1 109.50000 418.400000
1884 13130 5896 1 109.50000 418.400000
1884 13130 5897 1 109.50000 418.400000
5895 13130 5896 1 109.50000 418.400000
5895 13130 5897 1 109.50000 418.400000
5896 13130 5897 1 109.50000 418.400000
1581 13131 5898 1 109.50000 418.400000
1581 13131 5899 1 109.50000 418.400000
1581 13131 5900 1 109.50000 418.400000
5898 13131 5899 1 109.50000 418.400000
5898 13131 5900 1 109.50000 418.400000
5899 13131 5900 1 109.50000 418.400000
3051 13132 5901 1 109.50000 418.400000
3051 13132 5902 1 109.50000 418.400000
3051 13132 5903 1 109.50000 418.400000
5901 13132 5902 1 109.50000 418.400000
5901 13132 5903 1 109.50000 418.400000
5902 13132 5903 1 109.50000 418.400000
5904 13133 5905 1 109.50000 418.400000
5904 13133 5906 1 109.50000 418.400000
5904 13133 5907 1 109.50000 418.400000
5905 13133 5906 1 109.50000 418.400000
5905 13133 5907 1 109.50000 418.400000
5906 13133 5907 1 109.50000 418.400000
3216 13134 5908 1 109.50000 418.400000
3216 13134 5909 1 109.50000 418.400000
3216 13134 5910 1 109.50000 418.400000
5908 13134 5909 1 109.50000 418.400000
5908 13134 5910 1 109.50000 418.400000
5909 13134 5910 1 109.50000 418.400000
3233 13135 5911 1 109.50000 418.400000
3233 13135 5912 1 109.50000 418.400000
3233 13135 5913 1 109.50000 418.400000
5911 13135 5912 1 109.50000 418.400000
5911 13135 5913 1 109.50000 418.400000
5912 13135 5913 1 109.50000 418.400000
1705 13136 5914 1 109.50000 418.400000
1705 13136 5915 1 109.50000 418.400000
1705 13136 5916 1 109.50000 418.400000
5914 13136 5915 1 109.50000 418.400000
5914 13136 5916 1 109.50000 418.400000
5915 13136 5916 1 109.50000 418.400000
1959 13137 3363 1 109.50000 418.400000
1959 13137 5917 1 109.50000 418.400000
1959 13137 5918 1 109.50000 418.400000
3363 13137 5917 1 109.50000 418.400000
3363 13137 5918 1 109.50000 418.400000
5917 13137 5918 1 109.50000 418.400000
2749 13138 5920 1 109.50000 418.400000
2749 13138 5921 1 109.50000 418.400000
2749 13138 5922 1 109.50000 418.400000
5920 13138 5921 1 109.50000 418.400000
5920 13138 5922 1 109.50000 418.400000
5921 13138 5922 1 109.50000 418.400000
762 13139 5923 1 109.50000 418.400000
762 13139 5924 1 109.50000 418.400000
762 13139 5925 1 109.50000 418.400000
5923 13139 5924 1 109.50000 418.400000
5923 13139 5925 1 109.50000 418.400000
5924 13139 5925 1 109.50000 418.400000
1862 13140 3414 1 109.50000 418.400000
1862 13140 3415 1 109.50000 418.400000
1862 13140 5926 1 109.50000 418.400000
3414 13140 3415 1 109.50000 418.400000
3414 13140 5926 1 109.50000 418.400000
3415 13140 5926 1 109.50000 418.400000
4457 13141 5469 1 109.50000 418.400000
4457 13141 5928 1 109.50000 418.400000
4457 13141 5929 1 109.50000 418.400000
5469 13141 5928 1 109.50000 418.400000
5469 13141 5929 1 109.50000 418.400000
5928 13141 5929 1 109.50000 418.400000
5930 13142 5931 1 109.50000 418.400000
5930 13142 5932 1 109.50000 418.400000
5930 13142 5933 1 109.50000 418.400000
5931 13142 5932 1 109.50000 418.400000
5931 13142 5933 1 109.50000 418.400000
5932 13142 5933 1 109.50000 418.400000
2263 13143 3255 1 109.50000 418.400000
2263 13143 5395 1 109.50000 418.400000
2263 13143 5934 1 109.50000 418.400000
3255 13143 5395 1 109.50000 418.400000
3255 13143 5934 1 109.50000 418.400000
5395 13143 5934 1 109.50000 418.400000
1189 13144 1192 1 109.50000 418.400000
1189 13144 5935 1 109.50000 418.400000
1189 13144 5936 1 109.50000 418.400000
1192 13144 5935 1 109.50000 418.400000
1192 13144 5936 1 109.50000 418.400000
5935 13144 5936 1 109.50000 418.400000
4312 13145 4492 1 109.50000 418.400000
4312 13145 5937 1 109.50000 418.400000
4312 13145 5938 1 109.50000 418.400000
4492 13145 5937 1 109.50000 418.400000
4492 13145 5938 1 109.50000 418.400000
5937 13145 5938 1 109.50000 418.400000
5939 13146 5940 1 109.50000 418.400000
5939 13146 5941 1 109.50000 418.400000
5939 13146 5942 1 109.50000 418.400000
5940 13146 5941 1 109.50000 418.400000
5940 13146 5942 1 109.50000 418.400000
5941 13146 5942 1 109.50000 418.400000
5743 13147 5945 1 109.50000 418.400000
5743 13147 9887 1 109.50000 418.400000
5743 13147 9889 1 109.50000 418.400000
5945 13147 9887 1 109.50000 418.400000
5945 13147 9889 1 109.50000 418.400000
9887 13147 9889 1 109.50000 418.400000
2385 13148 5946 1 109.50000 418.400000
2385 13148 5947 1 109.50000 418.400000
2385 13148 5948 1 109.50000 418.400000
5946 13148 5947 1 109.50000 418.400000
5946 13148 5948 1 109.50000 418.400000
5947 13148 5948 1 109.50000 418.400000
5949 13149 5950 1 109.50000 418.400000
5949 13149 5951 1 109.50000 418.400000
5949 13149 5952 1 109.50000 418.400000
5950 13149 5951 1 109.50000 418.400000
5950 13149 5952 1 109.50000 418.400000
5951 13149 5952 1 109.50000 418.400000
5953 13150 5954 1 109.50000 418.400000
5953 13150 5955 1 109.50000 418.400000
5953 13150 5956 1 109.50000 418.400000
5954 13150 5955 1 109.50000 418.400000
5954 13150 5956 1 109.50000 418.400000
5955 13150 5956 1 109.50000 418.400000
5957 13151 5958 1 109.50000 418.400000
5957 13151 5959 1 109.50000 418.400000
5957 13151 5960 1 109.50000 418.400000
5958 13151 5959 1 109.50000 418.400000
5958 13151 5960 1 109.50000 418.400000
5959 13151 5960 1 109.50000 418.400000
800 13152 4888 1 109.50000 418.400000
800 13152 5961 1 109.50000 418.400000
800 13152 5962 1 109.50000 418.400000
4888 13152 5961 1 109.50000 418.400000
4888 13152 5962 1 109.50000 418.400000
5961 13152 5962 1 109.50000 418.400000
1820 13153 1955 1 109.50000 418.400000
1820 13153 5966 1 109.50000 418.400000
1820 13153 5967 1 109.50000 418.400000
1955 13153 5966 1 109.50000 418.400000
1955 13153 5967 1 109.50000 418.400000
5966 13153 5967 1 109.50000 418.400000
1881 13154 2586 1 109.50000 418.400000
1881 13154 5968 1 109.50000 418.400000
1881 13154 5969 1 109.50000 418.400000
2586 13154 5968 1 109.50000 418.400000
2586 13154 5969 1 109.50000 418.400000
5968 13154 5969 1 109.50000 418.400000
5018 13155 5970 1 109.50000 418.400000
5018 13155 5971 1 109.50000 418.400000
5018 13155 5972 1 109.50000 418.400000
5970 13155 5971 1 109.50000 418.400000
5970 13155 5972 1 109.50000 418.400000
5971 13155 5972 1 109.50000 418.400000
1624 13156 5976 1 109.50000 418.400000
1624 13156 5977 1 109.50000 418.400000
1624 13156 7670 1 109.50000 418.400000
5976 13156 5977 1 109.50000 418.400000
5976 13156 7670 1 109.50000 418.400000
5977 13156 7670 1 109.50000 418.400000
1154 13157 5979 1 109.50000 418.400000
1154 13157 5980 1 109.50000 418.400000
1154 13157 11319 1 109.50000 418.400000
5979 13157 5980 1 109.50000 418.400000
5979 13157 11319 1 109.50000 418.400000
5980 13157 11319 1 109.50000 418.400000
2012 13158 3940 1 109.50000 418.400000
2012 13158 5982 1 109.50000 418.400000
2012 13158 5983 1 109.50000 418.400000
3940 13158 5982 1 109.50000 418.400000
3940 13158 5983 1 109.50000 418.400000
5982 13158 5983 1 109.50000 418.400000
5814 13159 5984 1 109.50000 418.400000
5814 13159 5985 1 109.50000 418.400000
5814 13159 5986 1 109.50000 418.400000
5984 13159 5985 1 109.50000 418.400000
5984 13159 5986 1 109.50000 418.400000
5985 13159 5986 1 109.50000 418.400000
3747 13160 4947 1 109.50000 418.400000
3747 13160 5987 1 109.50000 418.400000
3747 13160 5988 1 109.50000 418.400000
4947 13160 5987 1 109.50000 418.400000
4947 13160 5988 1 109.50000 418.400000
5987 13160 5988 1 109.50000 418.400000
3872 13161 4464 1 109.50000 418.400000
3872 13161 5989 1 109.50000 418.400000
3872 13161 5990 1 109.50000 418.400000
4464 13161 5989 1 109.50000 418.400000
4464 13161 5990 1 109.50000 418.400000
5989 13161 5990 1 109.50000 418.400000
5993 13162 5994 1 109.50000 418.400000
5993 13162 5995 1 109.50000 418.400000
5993 13162 5996 1 109.50000 418.400000
5994 13162 5995 1 109.50000 418.400000
5994 13162 5996 1 109.50000 418.400000
5995 13162 5996 1 109.50000 418.400000
555 13163 1228 1 109.50000 418.400000
555 13163 4653 1 109.50000 418.400000
555 13163 5999 1 109.50000 418.400000
1228 13163 4653 1 109.50000 418.400000
1228 13163 5999 1 109.50000 418.400000
4653 13163 5999 1 109.50000 418.400000
5527 13164 6000 1 109.50000 418.400000
5527 13164 6001 1 109.50000 418.400000
5527 13164 11408 1 109.50000 418.400000
6000 13164 6001 1 109.50000 418.400000
6000 13164 11408 1 109.50000 418.400000
6001 13164 11408 1 109.50000 418.400000
2207 13165 6002 1 109.50000 418.400000
2207 13165 6003 1 109.50000 418.400000
2207 13165 6004 1 109.50000 418.400000
6002 13165 6003 1 109.50000 418.400000
6002 13165 6004 1 109.50000 418.400000
6003 13165 6004 1 109.50000 418.400000
6007 13166 6008 1 109.50000 418.400000
6007 13166 6009 1 109.50000 418.400000
6007 13166 6010 1 109.50000 418.400000
6008 13166 6009 1 109.50000 418.400000
6008 13166 6010 1 109.50000 418.400000
6009 13166 6010 1 109.50000 418.400000
406 13167 2903 1 109.50000 418.400000
406 13167 6011 1 109.50000 418.400000
406 13167 6012 1 109.50000 418.400000
2903 13167 6011 1 109.50000 418.400000
2903 13167 6012 1 109.50000 418.400000
6011 13167 6012 1 109.50000 418.400000
222 13168 6013 1 109.50000 418.400000
222 13168 6014 1 109.50000 418.400000
222 13168 6015 1 109.50000 418.400000
6013 13168 6014 1 109.50000 418.400000
6013 13168 6015 1 109.50000 418.400000
6014 13168 6015 1 109.50000 418.400000
6016 13169 6017 1 109.50000 418.400000
6016 13169 6018 1 109.50000 418.400000
6016 13169 6019 1 109.50000 418.400000
6017 13169 6018 1 109.50000 418.400000
6017 13169 6019 1 109.50000 418.400000
6018 13169 6019 1 109.50000 418.400000
1160 13170 1162 1 109.50000 418.400000
1160 13170 1163 1 109.50000 418.400000
1160 13170 5112 1 109.50000 418.400000
1162 13170 1163 1 109.50000 418.400000
1162 13170 5112 1 109.50000 418.400000
1163 13170 5112 1 109.50000 418.400000
6022 13171 6023 1 109.50000 418.400000
6022 13171 6024 1 109.50000 418.400000
6022 13171 6025 1 109.50000 418.400000
6023 13171 6024 1 109.50000 418.400000
6023 13171 6025 1 109.50000 418.400000
6024 13171 6025 1 109.50000 418.400000
4590 13172 6028 1 109.50000 418.400000
4590 13172 6029 1 109.50000 418.400000
4590 13172 6030 1 109.50000 418.400000
6028 13172 6029 1 109.50000 418.400000
6028 13172 6030 1 109.50000 418.400000
6029 13172 6030 1 109.50000 418.400000
1584 13173 4663 1 109.50000 418.400000
1584 13173 6033 1 109.50000 418.400000
1584 13173 6034 1 109.50000 418.400000
4663 13173 6033 1 109.50000 418.400000
4663 13173 6034 1 109.50000 418.400000
6033 13173 6034 1 109.50000 418.400000
761 13174 6035 1 109.50000 418.400000
761 13174 6036 1 109.50000 418.400000
761 13174 6037 1 109.50000 418.400000
6035 13174 6036 1 109.50000 418.400000
6035 13174 6037 1 109.50000 418.400000
6036 13174 6037 1 109.50000 418.400000
6039 13175 6040 1 109.50000 418.400000
6039 13175 6041 1 109.50000 418.400000
6039 13175 6042 1 109.50000 418.400000
6040 13175 6041 1 109.50000 418.400000
6040 13175 6042 1 109.50000 418.400000
6041 13175 6042 1 109.50000 418.400000
6043 13176 6044 1 109.50000 418.400000
6043 13176 6045 1 109.50000 418.400000
6043 13176 6046 1 109.50000 418.400000
6044 13176 6045 1 109.50000 418.400000
6044 13176 6046 1 109.50000 418.400000
6045 13176 6046 1 109.50000 418.400000
2394 13177 6047 1 109.50000 418.400000
2394 13177 6048 1 109.50000 418.400000
2394 13177 6049 1 109.50000 418.400000
6047 13177 6048 1 109.50000 418.400000
6047 13177 6049 1 109.50000 418.400000
6048 13177 6049 1 109.50000 418.400000
2145 13178 4687 1 109.50000 418.400000
2145 13178 4715 1 109.50000 418.400000
2145 13178 6050 1 109.50000 418.400000
4687 13178 4715 1 109.50000 418.400000
4687 13178 6050 1 109.50000 418.400000
4715 13178 6050 1 109.50000 418.400000
287 13179 6052 1 109.50000 418.400000
287 13179 6053 1 109.50000 418.400000
287 13179 6054 1 109.50000 418.400000
6052 13179 6053 1 109.50000 418.400000
6052 13179 6054 1 109.50000 418.400000
6053 13179 6054 1 109.50000 418.400000
6055 13180 6056 1 109.50000 418.400000
6055 13180 6057 1 109.50000 418.400000
6055 13180 10055 1 109.50000 418.400000
6056 13180 6057 1 109.50000 418.400000
6056 13180 10055 1 109.50000 418.400000
6057 13180 10055 1 109.50000 418.400000
1088 13181 6058 1 109.50000 418.400000
1088 13181 6059 1 109.50000 418.400000
1088 13181 6060 1 109.50000 418.400000
6058 13181 6059 1 109.50000 418.400000
6058 13181 6060 1 109.50000 418.400000
6059 13181 6060 1 109.50000 418.400000
2979 13182 3790 1 109.50000 418.400000
2979 13182 4466 1 109.50000 418.400000
2979 13182 6061 1 109.50000 418.400000
3790 13182 4466 1 109.50000 418.400000
3790 13182 6061 1 109.50000 418.400000
4466 13182 6061 1 109.50000 418.400000
2141 13183 6062 1 109.50000 418.400000
2141 13183 6063 1 109.50000 418.400000
2141 13183 6064 1 109.50000 418.400000
6062 13183 6063 1 109.50000 418.400000
6062 13183 6064 1 109.50000 418.400000
6063 13183 6064 1 109.50000 418.400000
4627 13184 6065 1 109.50000 418.400000
4627 13184 6066 1 109.50000 418.400000
4627 13184 6067 1 109.50000 418.400000
6065 13184 6066 1 109.50000 418.400000
6065 13184 6067 1 109.50000 418.400000
6066 13184 6067 1 109.50000 418.400000
213 13185 214 1 109.50000 418.400000
213 13185 6068 1 109.50000 418.400000
213 13185 6069 1 109.50000 418.400000
214 13185 6068 1 109.50000 418.400000
214 13185 6069 1 109.50000 418.400000
6068 13185 6069 1 109.50000 418.400000
6070 13186 6071 1 109.50000 418.400000
6070 13186 6072 1 109.50000 418.400000
6070 13186 6073 1 109.50000 418.400000
6071 13186 6072 1 109.50000 418.400000
6071 13186 6073 1 109.50000 418.400000
6072 13186 6073 1 109.50000 418.400000
2000 13187 2631 1 109.50000 418.400000
2000 13187 6074 1 109.50000 418.400000
2000 13187 6075 1 109.50000 418.400000
2631 13187 6074 1 109.50000 418.400000
2631 13187 6075 1 109.50000 418.400000
6074 13187 6075 1 109.50000 418.400000
284 13188 6076 1 109.50000 418.400000
284 13188 6077 1 109.50000 418.400000
284 13188 6078 1 109.50000 418.400000
6076 13188 6077 1 109.50000 418.400000
6076 13188 6078 1 109.50000 418.400000
6077 13188 6078 1 109.50000 418.400000
5595 13189 6081 1 109.50000 418.400000
5595 13189 6082 1 109.50000 418.400000
5595 13189 6083 1 109.50000 418.400000
6081 13189 6082 1 109.50000 418.400000
6081 13189 6083 1 109.50000 418.400000
6082 13189 6083 1 109.50000 418.400000
6084 13190 6085 1 109.50000 418.400000
6084 13190 6086 1 109.50000 418.400000
6084 13190 6087 1 109.50000 418.400000
6085 13190 6086 1 109.50000 418.400000
6085 13190 6087 1 109.50000 418.400000
6086 13190 6087 1 109.50000 418.400000
6090 13191 6091 1 109.50000 418.400000
6090 13191 6092 1 109.50000 418.400000
6090 13191 6093 1 109.50000 418.400000
6091 13191 6092 1 109.50000 418.400000
6091 13191 6093 1 109.50000 418.400000
6092 13191 6093 1 109.50000 418.400000
1100 13192 6094 1 109.50000 418.400000
1100 13192 6095 1 109.50000 418.400000
1100 13192 6096 1 109.50000 418.400000
6094 13192 6095 1 109.50000 418.400000
6094 13192 6096 1 109.50000 418.400000
6095 13192 6096 1 109.50000 418.400000
2090 13193 3389 1 109.50000 418.400000
2090 13193 6097 1 109.50000 418.400000
2090 13193 6098 1 109.50000 418.400000
3389 13193 6097 1 109.50000 418.400000
3389 13193 6098 1 109.50000 418.400000
6097 13193 6098 1 109.50000 418.400000
4941 13194 6004 1 109.50000 418.400000
4941 13194 6102 1 109.50000 418.400000
4941 13194 6103 1 109.50000 418.400000
6004 13194 6102 1 109.50000 418.400000
6004 13194 6103 1 109.50000 418.400000
6102 13194 6103 1 109.50000 418.400000
6104 13195 6105 1 109.50000 418.400000
6104 13195 6106 1 109.50000 418.400000
6104 13195 6107 1 109.50000 418.400000
6105 13195 6106 1 109.50000 418.400000
6105 13195 6107 1 109.50000 418.400000
6106 13195 6107 1 109.50000 418.400000
4845 13196 6111 1 109.50000 418.400000
4845 13196 6113 1 109.50000 418.400000
4845 13196 10052 1 109.50000 418.400000
6111 13196 6113 1 109.50000 418.400000
6111 13196 10052 1 109.50000 418.400000
6113 13196 10052 1 109.50000 418.400000
2212 13197 3708 1 109.50000 418.400000
2212 13197 3709 1 109.50000 418.400000
2212 13197 6115 1 109.50000 418.400000
3708 13197 3709 1 109.50000 418.400000
3708 13197 6115 1 109.50000 418.400000
3709 13197 6115 1 109.50000 418.400000
4349 13198 6116 1 109.50000 418.400000
4349 13198 6117 1 109.50000 418.400000
4349 13198 11159 1 109.50000 418.400000
6116 13198 6117 1 109.50000 418.400000
6116 13198 11159 1 109.50000 418.400000
6117 13198 11159 1 109.50000 418.400000
2809 13199 4094 1 109.50000 418.400000
2809 13199 4253 1 109.50000 418.400000
2809 13199 6118 1 109.50000 418.400000
4094 13199 4253 1 109.50000 418.400000
4094 13199 6118 1 109.50000 418.400000
4253 13199 6118 1 109.50000 418.400000
307 13200 6119 1 109.50000 418.400000
307 13200 6120 1 109.50000 418.400000
307 13200 6121 1 109.50000 418.400000
6119 13200 6120 1 109.50000 418.400000
6119 13200 6121 1 109.50000 418.400000
6120 13200 6121 1 109.50000 418.400000
4795 13201 6122 1 109.50000 418.400000
4795 13201 6123 1 109.50000 418.400000
4795 13201 11169 1 109.50000 418.400000
6122 13201 6123 1 109.50000 418.400000
6122 13201 11169 1 109.50000 418.400000
6123 13201 11169 1 109.50000 418.400000
6124 13202 6125 1 109.50000 418.400000
6124 13202 6126 1 109.50000 418.400000
6124 13202 6127 1 109.50000 418.400000
6125 13202 6126 1 109.50000 418.400000
6125 13202 6127 1 109.50000 418.400000
6126 13202 6127 1 109.50000 418.400000
2358 13203 3142 1 109.50000 418.400000
2358 13203 3265 1 109.50000 418.400000
2358 13203 6128 1 109.50000 418.400000
3142 13203 3265 1 109.50000 418.400000
3142 13203 6128 1 109.50000 418.400000
3265 13203 6128 1 109.50000 418.400000
1038 13204 6129 1 109.50000 418.400000
1038 13204 6130 1 109.50000 418.400000
1038 13204 6131 1 109.50000 418.400000
6129 13204 6130 1 109.50000 418.400000
6129 13204 6131 1 109.50000 418.400000
6130 13204 6131 1 109.50000 418.400000
6132 13205 6133 1 109.50000 418.400000
6132 13205 6134 1 109.50000 418.400000
6132 13205 7283 1 109.50000 418.400000
6133 13205 6134 1 109.50000 418.400000
6133 13205 7283 1 109.50000 418.400000
6134 13205 7283 1 109.50000 418.400000
2147 13206 3328 1 109.50000 418.400000
2147 13206 6132 1 109.50000 418.400000
2147 13206 6136 1 109.50000 418.400000
3328 13206 6132 1 109.50000 418.400000
3328 13206 6136 1 109.50000 418.400000
6132 13206 6136 1 109.50000 418.400000
6137 13207 6138 1 109.50000 418.400000
6137 13207 6139 1 109.50000 418.400000
6137 13207 6140 1 109.50000 418.400000
6138 13207 6139 1 109.50000 418.400000
6138 13207 6140 1 109.50000 418.400000
6139 13207 6140 1 109.50000 418.400000
5532 13208 6141 1 109.50000 418.400000
5532 13208 6142 1 109.50000 418.400000
5532 13208 6143 1 109.50000 418.400000
6141 13208 6142 1 109.50000 418.400000
6141 13208 6143 1 109.50000 418.400000
6142 13208 6143 1 109.50000 418.400000
2049 13209 2248 1 109.50000 418.400000
2049 13209 2896 1 109.50000 418.400000
2049 13209 6144 1 109.50000 418.400000
2248 13209 2896 1 109.50000 418.400000
2248 13209 6144 1 109.50000 418.400000
2896 13209 6144 1 109.50000 418.400000
3996 13210 4443 1 109.50000 418.400000
3996 13210 6146 1 109.50000 418.400000
3996 13210 6321 1 109.50000 418.400000
4443 13210 6146 1 109.50000 418.400000
4443 13210 6321 1 109.50000 418.400000
6146 13210 6321 1 109.50000 418.400000
6150 13211 6151 1 109.50000 418.400000
6150 13211 6152 1 109.50000 418.400000
6150 13211 6153 1 109.50000 418.400000
6151 13211 6152 1 109.50000 418.400000
6151 13211 6153 1 109.50000 418.400000
6152 13211 6153 1 109.50000 418.400000
3973 13212 4286 1 109.50000 418.400000
3973 13212 5665 1 109.50000 418.400000
3973 13212 6154 1 109.50000 418.400000
4286 13212 5665 1 109.50000 418.400000
4286 13212 6154 1 109.50000 418.400000
5665 13212 6154 1 109.50000 418.400000
1093 13213 6155 1 109.50000 418.400000
1093 13213 6156 1 109.50000 418.400000
1093 13213 6157 1 109.50000 418.400000
6155 13213 6156 1 109.50000 418.400000
6155 13213 6157 1 109.50000 418.400000
6156 13213 6157 1 109.50000 418.400000
2983 13214 3693 1 109.50000 418.400000
2983 13214 6158 1 109.50000 418.400000
2983 13214 6159 1 109.50000 418.400000
3693 13214 6158 1 109.50000 418.400000
3693 13214 6159 1 109.50000 418.400000
6158 13214 6159 1 109.50000 418.400000
4746 13215 4801 1 109.50000 418.400000
4746 13215 4802 1 109.50000 418.400000
4746 13215 6160 1 109.50000 418.400000
4801 13215 4802 1 109.50000 418.400000
4801 13215 6160 1 109.50000 418.400000
4802 13215 6160 1 109.50000 418.400000
1369 13216 6163 1 109.50000 418.400000
1369 13216 6164 1 109.50000 418.400000
1369 13216 11381 1 109.50000 418.400000
6163 13216 6164 1 109.50000 418.400000
6163 13216 11381 1 109.50000 418.400000
6164 13216 11381 1 109.50000 418.400000
5464 13217 5466 1 109.50000 418.400000
5464 13217 6165 1 109.50000 418.400000
5464 13217 6166 1 109.50000 418.400000
5466 13217 6165 1 109.50000 418.400000
5466 13217 6166 1 109.50000 418.400000
6165 13217 6166 1 109.50000 418.400000
6168 13218 6169 1 109.50000 418.400000
6168 13218 6170 1 109.50000 418.400000
6168 13218 8848 1 109.50000 418.400000
6169 13218 6170 1 109.50000 418.400000
6169 13218 8848 1 109.50000 418.400000
6170 13218 8848 1 109.50000 418.400000
4293 13219 5672 1 109.50000 418.400000
4293 13219 6171 1 109.50000 418.400000
4293 13219 6172 1 109.50000 418.400000
5672 13219 6171 1 109.50000 418.400000
5672 13219 6172 1 109.50000 418.400000
6171 13219 6172 1 109.50000 418.400000
592 13220 4685 1 109.50000 418.400000
592 13220 6176 1 109.50000 418.400000
592 13220 6177 1 109.50000 418.400000
4685 13220 6176 1 109.50000 418.400000
4685 13220 6177 1 109.50000 418.400000
6176 13220 6177 1 109.50000 418.400000
437 13221 3324 1 109.50000 418.400000
437 13221 6179 1 109.50000 418.400000
437 13221 6180 1 109.50000 418.400000
3324 13221 6179 1 109.50000 418.400000
3324 13221 6180 1 109.50000 418.400000
6179 13221 6180 1 109.50000 418.400000
6181 13222 6182 1 109.50000 418.400000
6181 13222 6183 1 109.50000 418.400000
6181 13222 6184 1 109.50000 418.400000
6182 13222 6183 1 109.50000 418.400000
6182 13222 6184 1 109.50000 418.400000
6183 13222 6184 1 109.50000 418.400000
4111 13223 6185 1 109.50000 418.400000
4111 13223 6186 1 109.50000 418.400000
4111 13223 6187 1 109.50000 418.400000
6185 13223 6186 1 109.50000 418.400000
6185 13223 6187 1 109.50000 418.400000
6186 13223 6187 1 109.50000 418.400000
6188 13224 6189 1 109.50000 418.400000
6188 13224 6190 1 109.50000 418.400000
6188 13224 6191 1 109.50000 418.400000
6189 13224 6190 1 109.50000 418.400000
6189 13224 6191 1 109.50000 418.400000
6190 13224 6191 1 109.50000 418.400000
221 13225 5234 1 109.50000 418.400000
221 13225 6192 1 109.50000 418.400000
221 13225 11384 1 109.50000 418.400000
5234 13225 6192 1 109.50000 418.400000
5234 13225 11384 1 109.50000 418.400000
6192 13225 11384 1 109.50000 418.400000
6193 13226 6194 1 109.50000 418.400000
6193 13226 6195 1 109.50000 418.400000
6193 13226 6196 1 109.50000 418.400000
6194 13226 6195 1 109.50000 418.400000
6194 13226 6196 1 109.50000 418.400000
6195 13226 6196 1 109.50000 418.400000
1718 13227 6200 1 109.50000 418.400000
1718 13227 6201 1 109.50000 418.400000
1718 13227 6202 1 109.50000 418.400000
6200 13227 6201 1 109.50000 418.400000
6200 13227 6202 1 109.50000 418.400000
6201 13227 6202 1 109.50000 418.400000
4499 13228 5159 1 109.50000 418.400000
4499 13228 6203 1 109.50000 418.400000
4499 13228 6204 1 109.50000 418.400000
5159 13228 6203 1 109.50000 418.400000
5159 13228 6204 1 109.50000 418.400000
6203 13228 6204 1 109.50000 418.400000
2712 13229 6205 1 109.50000 418.400000
2712 13229 6206 1 109.50000 418.400000
2712 13229 6207 1 109.50000 418.400000
6205 13229 6206 1 109.50000 418.400000
6205 13229 6207 1 109.50000 418.400000
6206 13229 6207 1 109.50000 418.400000
1101 13230 3236 1 109.50000 418.400000
1101 13230 6208 1 109.50000 418.400000
1101 13230 6209 1 109.50000 418.400000
3236 13230 6208 1 109.50000 418.400000
3236 13230 6209 1 109.50000 418.400000
6208 13230 6209 1 109.50000 418.400000
6210 13231 6211 1 109.50000 418.400000
6210 13231 6212 1 109.50000 418.400000
6210 13231 6213 1 109.50000 418.400000
6211 13231 6212 1 109.50000 418.400000
6211 13231 6213 1 109.50000 418.400000
6212 13231 6213 1 109.50000 418.400000
939 13232 4632 1 109.50000 418.400000
939 13232 6120 1 109.50000 418.400000
939 13232 6214 1 109.50000 418.400000
4632 13232 6120 1 109.50000 418.400000
4632 13232 6214 1 109.50000 418.400000
6120 13232 6214 1 109.50000 418.400000
3672 13233 6215 1 109.50000 418.400000
3672 13233 6216 1 109.50000 418.400000
3672 13233 6217 1 109.50000 418.400000
6215 13233 6216 1 109.50000 418.400000
6215 13233 6217 1 109.50000 418.400000
6216 13233 6217 1 109.50000 418.400000
473 13234 3491 1 109.50000 418.400000
473 13234 6218 1 109.50000 418.400000
473 13234 6219 1 109.50000 418.400000
3491 13234 6218 1 109.50000 418.400000
3491 13234 6219 1 109.50000 418.400000
6218 13234 6219 1 109.50000 418.400000
392 13235 5556 1 109.50000 418.400000
392 13235 6136 1 109.50000 418.400000
392 13235 6220 1 109.50000 418.400000
5556 13235 6136 1 109.50000 418.400000
5556 13235 6220 1 109.50000 418.400000
6136 13235 6220 1 109.50000 418.400000
2054 13236 2758 1 109.50000 418.400000
2054 13236 6221 1 109.50000 418.400000
2054 13236 6222 1 109.50000 418.400000
2758 13236 6221 1 109.50000 418.400000
2758 13236 6222 1 109.50000 418.400000
6221 13236 6222 1 109.50000 418.400000
449 13237 6223 1 109.50000 418.400000
449 13237 6224 1 109.50000 418.400000
449 13237 6225 1 109.50000 418.400000
6223 13237 6224 1 109.50000 418.400000
6223 13237 6225 1 109.50000 418.400000
6224 13237 6225 1 109.50000 418.400000
1091 13238 6226 1 109.50000 418.400000
1091 13238 6227 1 109.50000 418.400000
1091 13238 6228 1 109.50000 418.400000
6226 13238 6227 1 109.50000 418.400000
6226 13238 6228 1 109.50000 418.400000
6227 13238 6228 1 109.50000 418.400000
1121 13239 4211 1 109.50000 418.400000
1121 13239 6013 1 109.50000 418.400000
1121 13239 6235 1 109.50000 418.400000
4211 13239 6013 1 109.50000 418.400000
4211 13239 6235 1 109.50000 418.400000
6013 13239 6235 1 109.50000 418.400000
1232 13240 6236 1 109.50000 418.400000
1232 13240 6237 1 109.50000 418.400000
1232 13240 6238 1 109.50000 418.400000
6236 13240 6237 1 109.50000 418.400000
6236 13240 6238 1 109.50000 418.400000
6237 13240 6238 1 109.50000 418.400000
6239 13241 6240 1 109.50000 418.400000
6239 13241 6241 1 109.50000 418.400000
6239 13241 6242 1 109.50000 418.400000
6240 13241 6241 1 109.50000 418.400000
6240 13241 6242 1 109.50000 418.400000
6241 13241 6242 1 109.50000 418.400000
1891 13242 4578 1 109.50000 418.400000
1891 13242 6243 1 109.50000 418.400000
1891 13242 6244 1 109.50000 418.400000
4578 13242 6243 1 109.50000 418.400000
4578 13242 6244 1 109.50000 418.400000
6243 13242 6244 1 109.50000 418.400000
2307 13243 3952 1 109.50000 418.400000
2307 13243 6245 1 109.50000 418.400000
2307 13243 11040 1 109.50000 418.400000
3952 13243 6245 1 109.50000 418.400000
3952 13243 11040 1 109.50000 418.400000
6245 13243 11040 1 109.50000 418.400000
413 13244 2897 1 109.50000 418.400000
413 13244 6246 1 109.50000 418.400000
413 13244 6247 1 109.50000 418.400000
2897 13244 6246 1 109.50000 418.400000
2897 13244 6247 1 109.50000 418.400000
6246 13244 6247 1 109.50000 418.400000
850 13245 6248 1 109.50000 418.400000
850 13245 6249 1 109.50000 418.400000
850 13245 6250 1 109.50000 418.400000
6248 13245 6249 1 109.50000 418.400000
6248 13245 6250 1 109.50000 418.400000
6249 13245 6250 1 109.50000 418.400000
3587 13246 3588 1 109.50000 418.400000
3587 13246 4775 1 109.50000 418.400000
3587 13246 6251 1 109.50000 418.400000
3588 13246 4775 1 109.50000 418.400000
3588 13246 6251 1 109.50000 418.400000
4775 13246 6251 1 109.50000 418.400000
878 13247 6252 1 109.50000 418.400000
878 13247 6253 1 109.50000 418.400000
878 13247 6254 1 109.50000 418.400000
6252 13247 6253 1 109.50000 418.400000
6252 13247 6254 1 109.50000 418.400000
6253 13247 6254 1 109.50000 418.400000
6255 13248 6257 1 109.50000 418.400000
6255 13248 6258 1 109.50000 418.400000
6255 13248 8022 1 109.50000 418.400000
6257 13248 6258 1 109.50000 418.400000
6257 13248 8022 1 109.50000 418.400000
6258 13248 8022 1 109.50000 418.400000
4441 13249 6259 1 109.50000 418.400000
4441 13249 6260 1 109.50000 418.400000
4441 13249 6261 1 109.50000 418.400000
6259 13249 6260 1 109.50000 418.400000
6259 13249 6261 1 109.50000 418.400000
6260 13249 6261 1 109.50000 418.400000
2327 13250 2964 1 109.50000 418.400000
2327 13250 6265 1 109.50000 418.400000
2327 13250 11223 1 109.50000 418.400000
2964 13250 6265 1 109.50000 418.400000
2964 13250 11223 1 109.50000 418.400000
6265 13250 11223 1 109.50000 418.400000
371 13251 372 1 109.50000 418.400000
371 13251 373 1 109.50000 418.400000
371 13251 6180 1 109.50000 418.400000
372 13251 373 1 109.50000 418.400000
372 13251 6180 1 109.50000 418.400000
373 13251 6180 1 109.50000 418.400000
6268 13252 6269 1 109.50000 418.400000
6268 13252 6270 1 109.50000 418.400000
6268 13252 6271 1 109.50000 418.400000
6269 13252 6270 1 109.50000 418.400000
6269 13252 6271 1 109.50000 418.400000
6270 13252 6271 1 109.50000 418.400000
6272 13253 6273 1 109.50000 418.400000
6272 13253 6274 1 109.50000 418.400000
6272 13253 6645 1 109.50000 418.400000
6273 13253 6274 1 109.50000 418.400000
6273 13253 6645 1 109.50000 418.400000
6274 13253 6645 1 109.50000 418.400000
4554 13254 6276 1 109.50000 418.400000
4554 13254 6277 1 109.50000 418.400000
4554 13254 11320 1 109.50000 418.400000
6276 13254 6277 1 109.50000 418.400000
6276 13254 11320 1 109.50000 418.400000
6277 13254 11320 1 109.50000 418.400000
6278 13255 6279 1 109.50000 418.400000
6278 13255 6280 1 109.50000 418.400000
6278 13255 6281 1 109.50000 418.400000
6279 13255 6280 1 109.50000 418.400000
6279 13255 6281 1 109.50000 418.400000
6280 13255 6281 1 109.50000 418.400000
1475 13256 2616 1 109.50000 418.400000
1475 13256 3373 1 109.50000 418.400000
1475 13256 6282 1 109.50000 418.400000
2616 13256 3373 1 109.50000 418.400000
2616 13256 6282 1 109.50000 418.400000
3373 13256 6282 1 109.50000 418.400000
5812 13257 6283 1 109.50000 418.400000
5812 13257 6284 1 109.50000 418.400000
5812 13257 6285 1 109.50000 418.400000
6283 13257 6284 1 109.50000 418.400000
6283 13257 6285 1 109.50000 418.400000
6284 13257 6285 1 109.50000 418.400000
1277 13258 3654 1 109.50000 418.400000
1277 13258 6286 1 109.50000 418.400000
1277 13258 6287 1 109.50000 418.400000
3654 13258 6286 1 109.50000 418.400000
3654 13258 6287 1 109.50000 418.400000
6286 13258 6287 1 109.50000 418.400000
1916 13259 5293 1 109.50000 418.400000
1916 13259 6288 1 109.50000 418.400000
1916 13259 6289 1 109.50000 418.400000
5293 13259 6288 1 109.50000 418.400000
5293 13259 6289 1 109.50000 418.400000
6288 13259 6289 1 109.50000 418.400000
1275 13260 3964 1 109.50000 418.400000
1275 13260 6290 1 109.50000 418.400000
1275 13260 6291 1 109.50000 418.400000
3964 13260 6290 1 109.50000 418.400000
3964 13260 6291 1 109.50000 418.400000
6290 13260 6291 1 109.50000 418.400000
5873 13261 6292 1 109.50000 418.400000
5873 13261 6293 1 109.50000 418.400000
5873 13261 6294 1 109.50000 418.400000
6292 13261 6293 1 109.50000 418.400000
6292 13261 6294 1 109.50000 418.400000
6293 13261 6294 1 109.50000 418.400000
3286 13262 6008 1 109.50000 418.400000
3286 13262 6295 1 109.50000 418.400000
3286 13262 6296 1 109.50000 418.400000
6008 13262 6295 1 109.50000 418.400000
6008 13262 6296 1 109.50000 418.400000
6295 13262 6296 1 109.50000 418.400000
6297 13263 6298 1 109.50000 418.400000
6297 13263 6299 1 109.50000 418.400000
6297 13263 6300 1 109.50000 418.400000
6298 13263 6299 1 109.50000 418.400000
6298 13263 6300 1 109.50000 418.400000
6299 13263 6300 1 109.50000 418.400000
1757 13264 6301 1 109.50000 418.400000
1757 13264 6302 1 109.50000 418.400000
1757 13264 6303 1 109.50000 418.400000
6301 13264 6302 1 109.50000 418.400000
6301 13264 6303 1 109.50000 418.400000
6302 13264 6303 1 109.50000 418.400000
4131 13265 4973 1 109.50000 418.400000
4131 13265 6304 1 109.50000 418.400000
4131 13265 6305 1 109.50000 418.400000
4973 13265 6304 1 109.50000 418.400000
4973 13265 6305 1 109.50000 418.400000
6304 13265 6305 1 109.50000 418.400000
3368 13266 6306 1 109.50000 418.400000
3368 13266 6307 1 109.50000 418.400000
3368 13266 6308 1 109.50000 418.400000
6306 13266 6307 1 109.50000 418.400000
6306 13266 6308 1 109.50000 418.400000
6307 13266 6308 1 109.50000 418.400000
5218 13267 6309 1 109.50000 418.400000
5218 13267 6310 1 109.50000 418.400000
5218 13267 11148 1 109.50000 418.400000
6309 13267 6310 1 109.50000 418.400000
6309 13267 11148 1 109.50000 418.400000
6310 13267 11148 1 109.50000 418.400000
1996 13268 6311 1 109.50000 418.400000
1996 13268 6312 1 109.50000 418.400000
1996 13268 6313 1 109.50000 418.400000
6311 13268 6312 1 109.50000 418.400000
6311 13268 6313 1 109.50000 418.400000
6312 13268 6313 1 109.50000 418.400000
4047 13269 6316 1 109.50000 418.400000
4047 13269 6317 1 109.50000 418.400000
4047 13269 6318 1 109.50000 418.400000
6316 13269 6317 1 109.50000 418.400000
6316 13269 6318 1 109.50000 418.400000
6317 13269 6318 1 109.50000 418.400000
6319 13270 6320 1 109.50000 418.400000
6319 13270 6321 1 109.50000 418.400000
6319 13270 6322 1 109.50000 418.400000
6320 13270 6321 1 109.50000 418.400000
6320 13270 6322 1 109.50000 418.400000
6321 13270 6322 1 109.50000 418.400000
5166 13271 5675 1 109.50000 418.400000
5166 13271 6323 1 109.50000 418.400000
5166 13271 6324 1 109.50000 418.400000
5675 13271 6323 1 109.50000 418.400000
5675 13271 6324 1 109.50000 418.400000
6323 13271 6324 1 109.50000 418.400000
2126 13272 6325 1 109.50000 418.400000
2126 13272 6326 1 109.50000 418.400000
2126 13272 6327 1 109.50000 418.400000
6325 13272 6326 1 109.50000 418.400000
6325 13272 6327 1 109.50000 418.400000
6326 13272 6327 1 109.50000 418.400000
2735 13273 6328 1 109.50000 418.400000
2735 13273 6329 1 109.50000 418.400000
2735 13273 6330 1 109.50000 418.400000
6328 13273 6329 1 109.50000 418.400000
6328 13273 6330 1 109.50000 418.400000
6329 13273 6330 1 109.50000 418.400000
6331 13274 6332 1 109.50000 418.400000
6331 13274 6333 1 109.50000 418.400000
6331 13274 6334 1 109.50000 418.400000
6332 13274 6333 1 109.50000 418.400000
6332 13274 6334 1 109.50000 418.400000
6333 13274 6334 1 109.50000 418.400000
87 13275 5533 1 109.50000 418.400000
87 13275 6336 1 109.50000 418.400000
87 13275 9085 1 109.50000 418.400000
5533 13275 6336 1 109.50000 418.400000
5533 13275 9085 1 109.50000 418.400000
6336 13275 9085 1 109.50000 418.400000
3369 13276 5534 1 109.50000 418.400000
3369 13276 6338 1 109.50000 418.400000
3369 13276 6339 1 109.50000 418.400000
5534 13276 6338 1 109.50000 418.400000
5534 13276 6339 1 109.50000 418.400000
6338 13276 6339 1 109.50000 418.400000
4223 13277 6340 1 109.50000 418.400000
4223 13277 6341 1 109.50000 418.400000
4223 13277 6342 1 109.50000 418.400000
6340 13277 6341 1 109.50000 418.400000
6340 13277 6342 1 109.50000 418.400000
6341 13277 6342 1 109.50000 418.400000
1950 13278 2017 1 109.50000 418.400000
1950 13278 6343 1 109.50000 418.400000
1950 13278 6345 1 109.50000 418.400000
2017 13278 6343 1 109.50000 418.400000
2017 13278 6345 1 109.50000 418.400000
6343 13278 6345 1 109.50000 418.400000
6346 13279 6347 1 109.50000 418.400000
6346 13279 6348 1 109.50000 418.400000
6346 13279 6349 1 109.50000 418.400000
6347 13279 6348 1 109.50000 418.400000
6347 13279 6349 1 109.50000 418.400000
6348 13279 6349 1 109.50000 418.400000
2052 13280 2719 1 109.50000 418.400000
2052 13280 6352 1 109.50000 418.400000
2052 13280 6353 1 109.50000 418.400000
2719 13280 6352 1 109.50000 418.400000
2719 13280 6353 1 109.50000 418.400000
6352 13280 6353 1 109.50000 418.400000
5113 13281 5115 1 109.50000 418.400000
5113 13281 6354 1 109.50000 418.400000
5113 13281 6355 1 109.50000 418.400000
5115 13281 6354 1 109.50000 418.400000
5115 13281 6355 1 109.50000 418.400000
6354 13281 6355 1 109.50000 418.400000
423 13282 3117 1 109.50000 418.400000
423 13282 4717 1 109.50000 418.400000
423 13282 6357 1 109.50000 418.400000
3117 13282 4717 1 109.50000 418.400000
3117 13282 6357 1 109.50000 418.400000
4717 13282 6357 1 109.50000 418.400000
3090 13283 5951 1 109.50000 418.400000
3090 13283 6358 1 109.50000 418.400000
3090 13283 6359 1 109.50000 418.400000
5951 13283 6358 1 109.50000 418.400000
5951 13283 6359 1 109.50000 418.400000
6358 13283 6359 1 109.50000 418.400000
6360 13284 6362 1 109.50000 418.400000
6360 13284 6363 1 109.50000 418.400000
6360 13284 7308 1 109.50000 418.400000
6362 13284 6363 1 109.50000 418.400000
6362 13284 7308 1 109.50000 418.400000
6363 13284 7308 1 109.50000 418.400000
6364 13285 6365 1 109.50000 418.400000
6364 13285 6366 1 109.50000 418.400000
6364 13285 6367 1 109.50000 418.400000
6365 13285 6366 1 109.50000 418.400000
6365 13285 6367 1 109.50000 418.400000
6366 13285 6367 1 109.50000 418.400000
3994 13286 6368 1 109.50000 418.400000
3994 13286 6369 1 109.50000 418.400000
3994 13286 6370 1 109.50000 418.400000
6368 13286 6369 1 109.50000 418.400000
6368 13286 6370 1 109.50000 418.400000
6369 13286 6370 1 109.50000 418.400000
2967 13287 6371 1 109.50000 418.400000
2967 13287 6372 1 109.50000 418.400000
2967 13287 6373 1 109.50000 418.400000
6371 13287 6372 1 109.50000 418.400000
6371 13287 6373 1 109.50000 418.400000
6372 13287 6373 1 109.50000 418.400000
5340 13288 6313 1 109.50000 418.400000
5340 13288 6374 1 109.50000 418.400000
5340 13288 6375 1 109.50000 418.400000
6313 13288 6374 1 109.50000 418.400000
6313 13288 6375 1 109.50000 418.400000
6374 13288 6375 1 109.50000 418.400000
515 13289 5700 1 109.50000 418.400000
515 13289 6376 1 109.50000 418.400000
515 13289 6377 1 109.50000 418.400000
5700 13289 6376 1 109.50000 418.400000
5700 13289 6377 1 109.50000 418.400000
6376 13289 6377 1 109.50000 418.400000
6378 13290 6379 1 109.50000 418.400000
6378 13290 6380 1 109.50000 418.400000
6378 13290 11247 1 109.50000 418.400000
6379 13290 6380 1 109.50000 418.400000
6379 13290 11247 1 109.50000 418.400000
6380 13290 11247 1 109.50000 418.400000
818 13291 2222 1 109.50000 418.400000
818 13291 5510 1 109.50000 418.400000
818 13291 6381 1 109.50000 418.400000
2222 13291 5510 1 109.50000 418.400000
2222 13291 6381 1 109.50000 418.400000
5510 13291 6381 1 109.50000 418.400000
5762 13292 6382 1 109.50000 418.400000
5762 13292 11248 1 109.50000 418.400000
5762 13292 11377 1 109.50000 418.400000
6382 13292 11248 1 109.50000 418.400000
6382 13292 11377 1 109.50000 418.400000
11248 13292 11377 1 109.50000 418.400000
6387 13293 6388 1 109.50000 418.400000
6387 13293 6389 1 109.50000 418.400000
6387 13293 6390 1 109.50000 418.400000
6388 13293 6389 1 109.50000 418.400000
6388 13293 6390 1 109.50000 418.400000
6389 13293 6390 1 109.50000 418.400000
6391 13294 6392 1 109.50000 418.400000
6391 13294 6393 1 109.50000 418.400000
6391 13294 6394 1 109.50000 418.400000
6392 13294 6393 1 109.50000 418.400000
6392 13294 6394 1 109.50000 418.400000
6393 13294 6394 1 109.50000 418.400000
5661 13295 6398 1 109.50000 418.400000
5661 13295 6399 1 109.50000 418.400000
5661 13295 6778 1 109.50000 418.400000
6398 13295 6399 1 109.50000 418.400000
6398 13295 6778 1 109.50000 418.400000
6399 13295 6778 1 109.50000 418.400000
6402 13296 6403 1 109.50000 418.400000
6402 13296 10022 1 109.50000 418.400000
6402 13296 10024 1 109.50000 418.400000
6403 13296 10022 1 109.50000 418.400000
6403 13296 10024 1 109.50000 418.400000
10022 13296 10024 1 109.50000 418.400000
6404 13297 6405 1 109.50000 418.400000
6404 13297 6406 1 109.50000 418.400000
6404 13297 11281 1 109.50000 418.400000
6405 13297 6406 1 109.50000 418.400000
6405 13297 11281 1 109.50000 418.400000
6406 13297 11281 1 109.50000 418.400000
3944 13298 5219 1 109.50000 418.400000
3944 13298 6407 1 109.50000 418.400000
3944 13298 6408 1 109.50000 418.400000
5219 13298 6407 1 109.50000 418.400000
5219 13298 6408 1 109.50000 418.400000
6407 13298 6408 1 109.50000 418.400000
2615 13299 4908 1 109.50000 418.400000
2615 13299 6392 1 109.50000 418.400000
2615 13299 6409 1 109.50000 418.400000
4908 13299 6392 1 109.50000 418.400000
4908 13299 6409 1 109.50000 418.400000
6392 13299 6409 1 109.50000 418.400000
1025 13300 4844 1 109.50000 418.400000
1025 13300 6410 1 109.50000 418.400000
1025 13300 6411 1 109.50000 418.400000
4844 13300 6410 1 109.50000 418.400000
4844 13300 6411 1 109.50000 418.400000
6410 13300 6411 1 109.50000 418.400000
1420 13301 1734 1 109.50000 418.400000
1420 13301 6414 1 109.50000 418.400000
1420 13301 7233 1 109.50000 418.400000
1734 13301 6414 1 109.50000 418.400000
1734 13301 7233 1 109.50000 418.400000
6414 13301 7233 1 109.50000 418.400000
686 13302 4435 1 109.50000 418.400000
686 13302 4862 1 109.50000 418.400000
686 13302 6415 1 109.50000 418.400000
4435 13302 4862 1 109.50000 418.400000
4435 13302 6415 1 109.50000 418.400000
4862 13302 6415 1 109.50000 418.400000
5027 13303 6416 1 109.50000 418.400000
5027 13303 6418 1 109.50000 418.400000
5027 13303 7865 1 109.50000 418.400000
6416 13303 6418 1 109.50000 418.400000
6416 13303 7865 1 109.50000 418.400000
6418 13303 7865 1 109.50000 418.400000
3813 13304 4730 1 109.50000 418.400000
3813 13304 6419 1 109.50000 418.400000
3813 13304 6420 1 109.50000 418.400000
4730 13304 6419 1 109.50000 418.400000
4730 13304 6420 1 109.50000 418.400000
6419 13304 6420 1 109.50000 418.400000
808 13305 3227 1 109.50000 418.400000
808 13305 6421 1 109.50000 418.400000
808 13305 6422 1 109.50000 418.400000
3227 13305 6421 1 109.50000 418.400000
3227 13305 6422 1 109.50000 418.400000
6421 13305 6422 1 109.50000 418.400000
3302 13306 4511 1 109.50000 418.400000
3302 13306 6423 1 109.50000 418.400000
3302 13306 11205 1 109.50000 418.400000
4511 13306 6423 1 109.50000 418.400000
4511 13306 11205 1 109.50000 418.400000
6423 13306 11205 1 109.50000 418.400000
6424 13307 6425 1 109.50000 418.400000
6424 13307 6426 1 109.50000 418.400000
6424 13307 6427 1 109.50000 418.400000
6425 13307 6426 1 109.50000 418.400000
6425 13307 6427 1 109.50000 418.400000
6426 13307 6427 1 109.50000 418.400000
4430 13308 4902 1 109.50000 418.400000
4430 13308 6428 1 109.50000 418.400000
4430 13308 6429 1 109.50000 418.400000
4902 13308 6428 1 109.50000 418.400000
4902 13308 6429 1 109.50000 418.400000
6428 13308 6429 1 109.50000 418.400000
163 13309 5067 1 109.50000 418.400000
163 13309 6430 1 109.50000 418.400000
163 13309 6431 1 109.50000 418.400000
5067 13309 6430 1 109.50000 418.400000
5067 13309 6431 1 109.50000 418.400000
6430 13309 6431 1 109.50000 418.400000
3239 13310 5007 1 109.50000 418.400000
3239 13310 6432 1 109.50000 418.400000
3239 13310 6433 1 109.50000 418.400000
5007 13310 6432 1 109.50000 418.400000
5007 13310 6433 1 109.50000 418.400000
6432 13310 6433 1 109.50000 418.400000
6406 13311 6434 1 109.50000 418.400000
6406 13311 6435 1 109.50000 418.400000
6406 13311 6436 1 109.50000 418.400000
6434 13311 6435 1 109.50000 418.400000
6434 13311 6436 1 109.50000 418.400000
6435 13311 6436 1 109.50000 418.400000
134 13312 5025 1 109.50000 418.400000
134 13312 6438 1 109.50000 418.400000
134 13312 6439 1 109.50000 418.400000
5025 13312 6438 1 109.50000 418.400000
5025 13312 6439 1 109.50000 418.400000
6438 13312 6439 1 109.50000 418.400000
5104 13313 6440 1 109.50000 418.400000
5104 13313 6441 1 109.50000 418.400000
5104 13313 6442 1 109.50000 418.400000
6440 13313 6441 1 109.50000 418.400000
6440 13313 6442 1 109.50000 418.400000
6441 13313 6442 1 109.50000 418.400000
6443 13314 6444 1 109.50000 418.400000
6443 13314 6445 1 109.50000 418.400000
6443 13314 6446 1 109.50000 418.400000
6444 13314 6445 1 109.50000 418.400000
6444 13314 6446 1 109.50000 418.400000
6445 13314 6446 1 109.50000 418.400000
1261 13315 6447 1 109.50000 418.400000
1261 13315 6448 1 109.50000 418.400000
1261 13315 6449 1 109.50000 418.400000
6447 13315 6448 1 109.50000 418.400000
6447 13315 6449 1 109.50000 418.400000
6448 13315 6449 1 109.50000 418.400000
5992 13316 6450 1 109.50000 418.400000
5992 13316 6451 1 109.50000 418.400000
5992 13316 6452 1 109.50000 418.400000
6450 13316 6451 1 109.50000 418.400000
6450 13316 6452 1 109.50000 418.400000
6451 13316 6452 1 109.50000 418.400000
3290 13317 6453 1 109.50000 418.400000
3290 13317 6454 1 109.50000 418.400000
3290 13317 6455 1 109.50000 418.400000
6453 13317 6454 1 109.50000 418.400000
6453 13317 6455 1 109.50000 418.400000
6454 13317 6455 1 109.50000 418.400000
6456 13318 6457 1 109.50000 418.400000
6456 13318 6458 1 109.50000 418.400000
6456 13318 6459 1 109.50000 418.400000
6457 13318 6458 1 109.50000 418.400000
6457 13318 6459 1 109.50000 418.400000
6458 13318 6459 1 109.50000 418.400000
6460 13319 6461 1 109.50000 418.400000
6460 13319 6462 1 109.50000 418.400000
6460 13319 6463 1 109.50000 418.400000
6461 13319 6462 1 109.50000 418.400000
6461 13319 6463 1 109.50000 418.400000
6462 13319 6463 1 109.50000 418.400000
5519 13320 6464 1 109.50000 418.400000
5519 13320 6465 1 109.50000 418.400000
5519 13320 6466 1 109.50000 418.400000
6464 13320 6465 1 109.50000 418.400000
6464 13320 6466 1 109.50000 418.400000
6465 13320 6466 1 109.50000 418.400000
1020 13321 2731 1 109.50000 418.400000
1020 13321 6467 1 109.50000 418.400000
1020 13321 11358 1 109.50000 418.400000
2731 13321 6467 1 109.50000 418.400000
2731 13321 11358 1 109.50000 418.400000
6467 13321 11358 1 109.50000 418.400000
1421 13322 4026 1 109.50000 418.400000
1421 13322 4027 1 109.50000 418.400000
1421 13322 6469 1 109.50000 418.400000
4026 13322 4027 1 109.50000 418.400000
4026 13322 6469 1 109.50000 418.400000
4027 13322 6469 1 109.50000 418.400000
1000 13323 4411 1 109.50000 418.400000
1000 13323 6471 1 109.50000 418.400000
1000 13323 6472 1 109.50000 418.400000
4411 13323 6471 1 109.50000 418.400000
4411 13323 6472 1 109.50000 418.400000
6471 13323 6472 1 109.50000 418.400000
2892 13324 6473 1 109.50000 418.400000
2892 13324 6474 1 109.50000 418.400000
2892 13324 6475 1 109.50000 418.400000
6473 13324 6474 1 109.50000 418.400000
6473 13324 6475 1 109.50000 418.400000
6474 13324 6475 1 109.50000 418.400000
1235 13325 6476 1 109.50000 418.400000
1235 13325 6477 1 109.50000 418.400000
1235 13325 6478 1 109.50000 418.400000
6476 13325 6477 1 109.50000 418.400000
6476 13325 6478 1 109.50000 418.400000
6477 13325 6478 1 109.50000 418.400000
1605 13326 3649 1 109.50000 418.400000
1605 13326 3799 1 109.50000 418.400000
1605 13326 6479 1 109.50000 418.400000
3649 13326 3799 1 109.50000 418.400000
3649 13326 6479 1 109.50000 418.400000
3799 13326 6479 1 109.50000 418.400000
4015 13327 6480 1 109.50000 418.400000
4015 13327 6481 1 109.50000 418.400000
4015 13327 6482 1 109.50000 418.400000
6480 13327 6481 1 109.50000 418.400000
6480 13327 6482 1 109.50000 418.400000
6481 13327 6482 1 109.50000 418.400000
3341 13328 6483 1 109.50000 418.400000
3341 13328 6484 1 109.50000 418.400000
3341 13328 6485 1 109.50000 418.400000
6483 13328 6484 1 109.50000 418.400000
6483 13328 6485 1 109.50000 418.400000
6484 13328 6485 1 109.50000 418.400000
569 13329 1655 1 109.50000 418.400000
569 13329 3453 1 109.50000 418.400000
569 13329 6489 1 109.50000 418.400000
1655 13329 3453 1 109.50000 418.400000
1655 13329 6489 1 109.50000 418.400000
3453 13329 6489 1 109.50000 418.400000
3298 13330 3300 1 109.50000 418.400000
3298 13330 6490 1 109.50000 418.400000
3298 13330 6491 1 109.50000 418.400000
3300 13330 6490 1 109.50000 418.400000
3300 13330 6491 1 109.50000 418.400000
6490 13330 6491 1 109.50000 418.400000
6493 13331 6494 1 109.50000 418.400000
6493 13331 6495 1 109.50000 418.400000
6493 13331 6496 1 109.50000 418.400000
6494 13331 6495 1 109.50000 418.400000
6494 13331 6496 1 109.50000 418.400000
6495 13331 6496 1 109.50000 418.400000
6497 13332 6498 1 109.50000 418.400000
6497 13332 6499 1 109.50000 418.400000
6497 13332 6500 1 109.50000 418.400000
6498 13332 6499 1 109.50000 418.400000
6498 13332 6500 1 109.50000 418.400000
6499 13332 6500 1 109.50000 418.400000
1716 13333 5704 1 109.50000 418.400000
1716 13333 6501 1 109.50000 418.400000
1716 13333 6502 1 109.50000 418.400000
5704 13333 6501 1 109.50000 418.400000
5704 13333 6502 1 109.50000 418.400000
6501 13333 6502 1 109.50000 418.400000
420 13334 4794 1 109.50000 418.400000
420 13334 6503 1 109.50000 418.400000
420 13334 6504 1 109.50000 418.400000
4794 13334 6503 1 109.50000 418.400000
4794 13334 6504 1 109.50000 418.400000
6503 13334 6504 1 109.50000 418.400000
216 13335 1144 1 109.50000 418.400000
216 13335 6505 1 109.50000 418.400000
216 13335 6506 1 109.50000 418.400000
1144 13335 6505 1 109.50000 418.400000
1144 13335 6506 1 109.50000 418.400000
6505 13335 6506 1 109.50000 418.400000
1097 13336 3532 1 109.50000 418.400000
1097 13336 5312 1 109.50000 418.400000
1097 13336 6507 1 109.50000 418.400000
3532 13336 5312 1 109.50000 418.400000
3532 13336 6507 1 109.50000 418.400000
5312 13336 6507 1 109.50000 418.400000
6508 13337 6509 1 109.50000 418.400000
6508 13337 6510 1 109.50000 418.400000
6508 13337 6511 1 109.50000 418.400000
6509 13337 6510 1 109.50000 418.400000
6509 13337 6511 1 109.50000 418.400000
6510 13337 6511 1 109.50000 418.400000
1872 13338 5784 1 109.50000 418.400000
1872 13338 6062 1 109.50000 418.400000
1872 13338 6512 1 109.50000 418.400000
5784 13338 6062 1 109.50000 418.400000
5784 13338 6512 1 109.50000 418.400000
6062 13338 6512 1 109.50000 418.400000
2266 13339 5983 1 109.50000 418.400000
2266 13339 6513 1 109.50000 418.400000
2266 13339 6514 1 109.50000 418.400000
5983 13339 6513 1 109.50000 418.400000
5983 13339 6514 1 109.50000 418.400000
6513 13339 6514 1 109.50000 418.400000
2686 13340 4741 1 109.50000 418.400000
2686 13340 6515 1 109.50000 418.400000
2686 13340 6516 1 109.50000 418.400000
4741 13340 6515 1 109.50000 418.400000
4741 13340 6516 1 109.50000 418.400000
6515 13340 6516 1 109.50000 418.400000
4103 13341 6517 1 109.50000 418.400000
4103 13341 6518 1 109.50000 418.400000
4103 13341 8916 1 109.50000 418.400000
6517 13341 6518 1 109.50000 418.400000
6517 13341 8916 1 109.50000 418.400000
6518 13341 8916 1 109.50000 418.400000
3729 13342 6520 1 109.50000 418.400000
3729 13342 6521 1 109.50000 418.400000
3729 13342 9788 1 109.50000 418.400000
6520 13342 6521 1 109.50000 418.400000
6520 13342 9788 1 109.50000 418.400000
6521 13342 9788 1 109.50000 418.400000
1650 13343 6522 1 109.50000 418.400000
1650 13343 6523 1 109.50000 418.400000
1650 13343 6524 1 109.50000 418.400000
6522 13343 6523 1 109.50000 418.400000
6522 13343 6524 1 109.50000 418.400000
6523 13343 6524 1 109.50000 418.400000
4937 13344 6525 1 109.50000 418.400000
4937 13344 10238 1 109.50000 418.400000
4937 13344 11342 1 109.50000 418.400000
6525 13344 10238 1 109.50000 418.400000
6525 13344 11342 1 109.50000 418.400000
10238 13344 11342 1 109.50000 418.400000
1664 13345 6527 1 109.50000 418.400000
1664 13345 6528 1 109.50000 418.400000
1664 13345 6529 1 109.50000 418.400000
6527 13345 6528 1 109.50000 418.400000
6527 13345 6529 1 109.50000 418.400000
6528 13345 6529 1 109.50000 418.400000
505 13346 1594 1 109.50000 418.400000
505 13346 6530 1 109.50000 418.400000
505 13346 6531 1 109.50000 418.400000
1594 13346 6530 1 109.50000 418.400000
1594 13346 6531 1 109.50000 418.400000
6530 13346 6531 1 109.50000 418.400000
6532 13347 6533 1 109.50000 418.400000
6532 13347 6534 1 109.50000 418.400000
6532 13347 6535 1 109.50000 418.400000
6533 13347 6534 1 109.50000 418.400000
6533 13347 6535 1 109.50000 418.400000
6534 13347 6535 1 109.50000 418.400000
667 13348 2672 1 109.50000 418.400000
667 13348 6536 1 109.50000 418.400000
667 13348 6537 1 109.50000 418.400000
2672 13348 6536 1 109.50000 418.400000
2672 13348 6537 1 109.50000 418.400000
6536 13348 6537 1 109.50000 418.400000
600 13349 5830 1 109.50000 418.400000
600 13349 6538 1 109.50000 418.400000
600 13349 6539 1 109.50000 418.400000
5830 13349 6538 1 109.50000 418.400000
5830 13349 6539 1 109.50000 418.400000
6538 13349 6539 1 109.50000 418.400000
787 13350 2709 1 109.50000 418.400000
787 13350 3980 1 109.50000 418.400000
787 13350 5754 1 109.50000 418.400000
2709 13350 3980 1 109.50000 418.400000
2709 13350 5754 1 109.50000 418.400000
3980 13350 5754 1 109.50000 418.400000
6540 13351 6541 1 109.50000 418.400000
6540 13351 6542 1 109.50000 418.400000
6540 13351 6543 1 109.50000 418.400000
6541 13351 6542 1 109.50000 418.400000
6541 13351 6543 1 109.50000 418.400000
6542 13351 6543 1 109.50000 418.400000
6544 13352 6545 1 109.50000 418.400000
6544 13352 8277 1 109.50000 418.400000
6544 13352 8279 1 109.50000 418.400000
6545 13352 8277 1 109.50000 418.400000
6545 13352 8279 1 109.50000 418.400000
8277 13352 8279 1 109.50000 418.400000
490 13353 1063 1 109.50000 418.400000
490 13353 1064 1 109.50000 418.400000
490 13353 1065 1 109.50000 418.400000
1063 13353 1064 1 109.50000 418.400000
1063 13353 1065 1 109.50000 418.400000
1064 13353 1065 1 109.50000 418.400000
552 13354 6550 1 109.50000 418.400000
552 13354 6551 1 109.50000 418.400000
552 13354 6822 1 109.50000 418.400000
6550 13354 6551 1 109.50000 418.400000
6550 13354 6822 1 109.50000 418.400000
6551 13354 6822 1 109.50000 418.400000
5902 13355 5925 1 109.50000 418.400000
5902 13355 6553 1 109.50000 418.400000
5902 13355 6554 1 109.50000 418.400000
5925 13355 6553 1 109.50000 418.400000
5925 13355 6554 1 109.50000 418.400000
6553 13355 6554 1 109.50000 418.400000
870 13356 2515 1 109.50000 418.400000
870 13356 5948 1 109.50000 418.400000
870 13356 6555 1 109.50000 418.400000
2515 13356 5948 1 109.50000 418.400000
2515 13356 6555 1 109.50000 418.400000
5948 13356 6555 1 109.50000 418.400000
6559 13357 6560 1 109.50000 418.400000
6559 13357 6561 1 109.50000 418.400000
6559 13357 6562 1 109.50000 418.400000
6560 13357 6561 1 109.50000 418.400000
6560 13357 6562 1 109.50000 418.400000
6561 13357 6562 1 109.50000 418.400000
2444 13358 6563 1 109.50000 418.400000
2444 13358 6564 1 109.50000 418.400000
2444 13358 6565 1 109.50000 418.400000
6563 13358 6564 1 109.50000 418.400000
6563 13358 6565 1 109.50000 418.400000
6564 13358 6565 1 109.50000 418.400000
6566 13359 6567 1 109.50000 418.400000
6566 13359 6568 1 109.50000 418.400000
6566 13359 11407 1 109.50000 418.400000
6567 13359 6568 1 109.50000 418.400000
6567 13359 11407 1 109.50000 418.400000
6568 13359 11407 1 109.50000 418.400000
238 13360 3590 1 109.50000 418.400000
238 13360 6141 1 109.50000 418.400000
238 13360 6571 1 109.50000 418.400000
3590 13360 6141 1 109.50000 418.400000
3590 13360 6571 1 109.50000 418.400000
6141 13360 6571 1 109.50000 418.400000
4468 13361 6575 1 109.50000 418.400000
4468 13361 6576 1 109.50000 418.400000
4468 13361 6577 1 109.50000 418.400000
6575 13361 6576 1 109.50000 418.400000
6575 13361 6577 1 109.50000 418.400000
6576 13361 6577 1 109.50000 418.400000
1433 13362 6578 1 109.50000 418.400000
1433 13362 6579 1 109.50000 418.400000
1433 13362 6580 1 109.50000 418.400000
6578 13362 6579 1 109.50000 418.400000
6578 13362 6580 1 109.50000 418.400000
6579 13362 6580 1 109.50000 418.400000
6582 13363 6583 1 109.50000 418.400000
6582 13363 6584 1 109.50000 418.400000
6582 13363 6585 1 109.50000 418.400000
6583 13363 6584 1 109.50000 418.400000
6583 13363 6585 1 109.50000 418.400000
6584 13363 6585 1 109.50000 418.400000
2380 13364 3156 1 109.50000 418.400000
2380 13364 4547 1 109.50000 418.400000
2380 13364 6586 1 109.50000 418.400000
3156 13364 4547 1 109.50000 418.400000
3156 13364 6586 1 109.50000 418.400000
4547 13364 6586 1 109.50000 418.400000
6589 13365 6590 1 109.50000 418.400000
6589 13365 6591 1 109.50000 418.400000
6589 13365 6616 1 109.50000 418.400000
6590 13365 6591 1 109.50000 418.400000
6590 13365 6616 1 109.50000 418.400000
6591 13365 6616 1 109.50000 418.400000
2013 13366 2962 1 109.50000 418.400000
2013 13366 6592 1 109.50000 418.400000
2013 13366 6593 1 109.50000 418.400000
2962 13366 6592 1 109.50000 418.400000
2962 13366 6593 1 109.50000 418.400000
6592 13366 6593 1 109.50000 418.400000
418 13367 6594 1 109.50000 418.400000
418 13367 6595 1 109.50000 418.400000
418 13367 6596 1 109.50000 418.400000
6594 13367 6595 1 109.50000 418.400000
6594 13367 6596 1 109.50000 418.400000
6595 13367 6596 1 109.50000 418.400000
2345 13368 6597 1 109.50000 418.400000
2345 13368 6598 1 109.50000 418.400000
2345 13368 6599 1 109.50000 418.400000
6597 13368 6598 1 109.50000 418.400000
6597 13368 6599 1 109.50000 418.400000
6598 13368 6599 1 109.50000 418.400000
6602 13369 6603 1 109.50000 418.400000
6602 13369 6604 1 109.50000 418.400000
6602 13369 6605 1 109.50000 418.400000
6603 13369 6604 1 109.50000 418.400000
6603 13369 6605 1 109.50000 418.400000
6604 13369 6605 1 109.50000 418.400000
1392 13370 5733 1 109.50000 418.400000
1392 13370 6606 1 109.50000 418.400000
1392 13370 6607 1 109.50000 418.400000
5733 13370 6606 1 109.50000 418.400000
5733 13370 6607 1 109.50000 418.400000
6606 13370 6607 1 109.50000 418.400000
6608 13371 6609 1 109.50000 418.400000
6608 13371 6610 1 109.50000 418.400000
6608 13371 6611 1 109.50000 418.400000
6609 13371 6610 1 109.50000 418.400000
6609 13371 6611 1 109.50000 418.400000
6610 13371 6611 1 109.50000 418.400000
2696 13372 6612 1 109.50000 418.400000
2696 13372 6613 1 109.50000 418.400000
2696 13372 6614 1 109.50000 418.400000
6612 13372 6613 1 109.50000 418.400000
6612 13372 6614 1 109.50000 418.400000
6613 13372 6614 1 109.50000 418.400000
965 13373 6615 1 109.50000 418.400000
965 13373 6616 1 109.50000 418.400000
965 13373 6617 1 109.50000 418.400000
6615 13373 6616 1 109.50000 418.400000
6615 13373 6617 1 109.50000 418.400000
6616 13373 6617 1 109.50000 418.400000
3061 13374 4696 1 109.50000 418.400000
3061 13374 6618 1 109.50000 418.400000
3061 13374 6619 1 109.50000 418.400000
4696 13374 6618 1 109.50000 418.400000
4696 13374 6619 1 109.50000 418.400000
6618 13374 6619 1 109.50000 418.400000
2706 13375 6620 1 109.50000 418.400000
2706 13375 6621 1 109.50000 418.400000
2706 13375 7477 1 109.50000 418.400000
6620 13375 6621 1 109.50000 418.400000
6620 13375 7477 1 109.50000 418.400000
6621 13375 7477 1 109.50000 418.400000
3787 13376 5290 1 109.50000 418.400000
3787 13376 6623 1 109.50000 418.400000
3787 13376 6624 1 109.50000 418.400000
5290 13376 6623 1 109.50000 418.400000
5290 13376 6624 1 109.50000 418.400000
6623 13376 6624 1 109.50000 418.400000
6625 13377 6626 1 109.50000 418.400000
6625 13377 6627 1 109.50000 418.400000
6625 13377 6628 1 109.50000 418.400000
6626 13377 6627 1 109.50000 418.400000
6626 13377 6628 1 109.50000 418.400000
6627 13377 6628 1 109.50000 418.400000
6250 13378 6629 1 109.50000 418.400000
6250 13378 6630 1 109.50000 418.400000
6250 13378 9981 1 109.50000 418.400000
6629 13378 6630 1 109.50000 418.400000
6629 13378 9981 1 109.50000 418.400000
6630 13378 9981 1 109.50000 418.400000
4237 13379 5401 1 109.50000 418.400000
4237 13379 6631 1 109.50000 418.400000
4237 13379 6632 1 109.50000 418.400000
5401 13379 6631 1 109.50000 418.400000
5401 13379 6632 1 109.50000 418.400000
6631 13379 6632 1 109.50000 418.400000
2372 13380 2563 1 109.50000 418.400000
2372 13380 4729 1 109.50000 418.400000
2372 13380 5464 1 109.50000 418.400000
2563 13380 4729 1 109.50000 418.400000
2563 13380 5464 1 109.50000 418.400000
4729 13380 5464 1 109.50000 418.400000
4905 13381 6633 1 109.50000 418.400000
4905 13381 6634 1 109.50000 418.400000
4905 13381 6635 1 109.50000 418.400000
6633 13381 6634 1 109.50000 418.400000
6633 13381 6635 1 109.50000 418.400000
6634 13381 6635 1 109.50000 418.400000
6127 13382 6636 1 109.50000 418.400000
6127 13382 6637 1 109.50000 418.400000
6127 13382 6638 1 109.50000 418.400000
6636 13382 6637 1 109.50000 418.400000
6636 13382 6638 1 109.50000 418.400000
6637 13382 6638 1 109.50000 418.400000
1808 13383 6640 1 109.50000 418.400000
1808 13383 6641 1 109.50000 418.400000
1808 13383 6642 1 109.50000 418.400000
6640 13383 6641 1 109.50000 418.400000
6640 13383 6642 1 109.50000 418.400000
6641 13383 6642 1 109.50000 418.400000
2495 13384 5424 1 109.50000 418.400000
2495 13384 6643 1 109.50000 418.400000
2495 13384 11382 1 109.50000 418.400000
5424 13384 6643 1 109.50000 418.400000
5424 13384 11382 1 109.50000 418.400000
6643 13384 11382 1 109.50000 418.400000
5132 13385 6644 1 109.50000 418.400000
5132 13385 6645 1 109.50000 418.400000
5132 13385 6646 1 109.50000 418.400000
6644 13385 6645 1 109.50000 418.400000
6644 13385 6646 1 109.50000 418.400000
6645 13385 6646 1 109.50000 418.400000
6651 13386 6652 1 109.50000 418.400000
6651 13386 6653 1 109.50000 418.400000
6651 13386 6654 1 109.50000 418.400000
6652 13386 6653 1 109.50000 418.400000
6652 13386 6654 1 109.50000 418.400000
6653 13386 6654 1 109.50000 418.400000
4393 13387 6655 1 109.50000 418.400000
4393 13387 6656 1 109.50000 418.400000
4393 13387 6657 1 109.50000 418.400000
6655 13387 6656 1 109.50000 418.400000
6655 13387 6657 1 109.50000 418.400000
6656 13387 6657 1 109.50000 418.400000
4656 13388 6659 1 109.50000 418.400000
4656 13388 6660 1 109.50000 418.400000
4656 13388 6661 1 109.50000 418.400000
6659 13388 6660 1 109.50000 418.400000
6659 13388 6661 1 109.50000 418.400000
6660 13388 6661 1 109.50000 418.400000
185 13389 5640 1 109.50000 418.400000
185 13389 6662 1 109.50000 418.400000
185 13389 6663 1 109.50000 418.400000
5640 13389 6662 1 109.50000 418.400000
5640 13389 6663 1 109.50000 418.400000
6662 13389 6663 1 109.50000 418.400000
4861 13390 6535 1 109.50000 418.400000
4861 13390 6664 1 109.50000 418.400000
4861 13390 6665 1 109.50000 418.400000
6535 13390 6664 1 109.50000 418.400000
6535 13390 6665 1 109.50000 418.400000
6664 13390 6665 1 109.50000 418.400000
4206 13391 4239 1 109.50000 418.400000
4206 13391 6666 1 109.50000 418.400000
4206 13391 6667 1 109.50000 418.400000
4239 13391 6666 1 109.50000 418.400000
4239 13391 6667 1 109.50000 418.400000
6666 13391 6667 1 109.50000 418.400000
1800 13392 6668 1 109.50000 418.400000
1800 13392 6669 1 109.50000 418.400000
1800 13392 6670 1 109.50000 418.400000
6668 13392 6669 1 109.50000 418.400000
6668 13392 6670 1 109.50000 418.400000
6669 13392 6670 1 109.50000 418.400000
4703 13393 6457 1 109.50000 418.400000
4703 13393 6671 1 109.50000 418.400000
4703 13393 6672 1 109.50000 418.400000
6457 13393 6671 1 109.50000 418.400000
6457 13393 6672 1 109.50000 418.400000
6671 13393 6672 1 109.50000 418.400000
5397 13394 6673 1 109.50000 418.400000
5397 13394 6674 1 109.50000 418.400000
5397 13394 6675 1 109.50000 418.400000
6673 13394 6674 1 109.50000 418.400000
6673 13394 6675 1 109.50000 418.400000
6674 13394 6675 1 109.50000 418.400000
2787 13395 6676 1 109.50000 418.400000
2787 13395 6677 1 109.50000 418.400000
2787 13395 6678 1 109.50000 418.400000
6676 13395 6677 1 109.50000 418.400000
6676 13395 6678 1 109.50000 418.400000
6677 13395 6678 1 109.50000 418.400000
6679 13396 6680 1 109.50000 418.400000
6679 13396 6681 1 109.50000 418.400000
6679 13396 6682 1 109.50000 418.400000
6680 13396 6681 1 109.50000 418.400000
6680 13396 6682 1 109.50000 418.400000
6681 13396 6682 1 109.50000 418.400000
203 13397 4267 1 109.50000 418.400000
203 13397 4374 1 109.50000 418.400000
203 13397 6683 1 109.50000 418.400000
4267 13397 4374 1 109.50000 418.400000
4267 13397 6683 1 109.50000 418.400000
4374 13397 6683 1 109.50000 418.400000
2628 13398 4564 1 109.50000 418.400000
2628 13398 6133 1 109.50000 418.400000
2628 13398 6684 1 109.50000 418.400000
4564 13398 6133 1 109.50000 418.400000
4564 13398 6684 1 109.50000 418.400000
6133 13398 6684 1 109.50000 418.400000
915 13399 4839 1 109.50000 418.400000
915 13399 6685 1 109.50000 418.400000
915 13399 6686 1 109.50000 418.400000
4839 13399 6685 1 109.50000 418.400000
4839 13399 6686 1 109.50000 418.400000
6685 13399 6686 1 109.50000 418.400000
1603 13400 2059 1 109.50000 418.400000
1603 13400 5910 1 109.50000 418.400000
1603 13400 6687 1 109.50000 418.400000
2059 13400 5910 1 109.50000 418.400000
2059 13400 6687 1 109.50000 418.400000
5910 13400 6687 1 109.50000 418.400000
1109 13401 6688 1 109.50000 418.400000
1109 13401 6689 1 109.50000 418.400000
1109 13401 6690 1 109.50000 418.400000
6688 13401 6689 1 109.50000 418.400000
6688 13401 6690 1 109.50000 418.400000
6689 13401 6690 1 109.50000 418.400000
6691 13402 6692 1 109.50000 418.400000
6691 13402 6693 1 109.50000 418.400000
6691 13402 6694 1 109.50000 418.400000
6692 13402 6693 1 109.50000 418.400000
6692 13402 6694 1 109.50000 418.400000
6693 13402 6694 1 109.50000 418.400000
6695 13403 6696 1 109.50000 418.400000
6695 13403 6697 1 109.50000 418.400000
6695 13403 6698 1 109.50000 418.400000
6696 13403 6697 1 109.50000 418.400000
6696 13403 6698 1 109.50000 418.400000
6697 13403 6698 1 109.50000 418.400000
6699 13404 6700 1 109.50000 418.400000
6699 13404 6701 1 109.50000 418.400000
6699 13404 6702 1 109.50000 418.400000
6700 13404 6701 1 109.50000 418.400000
6700 13404 6702 1 109.50000 418.400000
6701 13404 6702 1 109.50000 418.400000
3616 13405 3665 1 109.50000 418.400000
3616 13405 4837 1 109.50000 418.400000
3616 13405 6703 1 109.50000 418.400000
3665 13405 4837 1 109.50000 418.400000
3665 13405 6703 1 109.50000 418.400000
4837 13405 6703 1 109.50000 418.400000
4583 13406 4584 1 109.50000 418.400000
4583 13406 6705 1 109.50000 418.400000
4583 13406 6706 1 109.50000 418.400000
4584 13406 6705 1 109.50000 418.400000
4584 13406 6706 1 109.50000 418.400000
6705 13406 6706 1 109.50000 418.400000
5319 13407 6216 1 109.50000 418.400000
5319 13407 6707 1 109.50000 418.400000
5319 13407 6708 1 109.50000 418.400000
6216 13407 6707 1 109.50000 418.400000
6216 13407 6708 1 109.50000 418.400000
6707 13407 6708 1 109.50000 418.400000
3935 13408 3936 1 109.50000 418.400000
3935 13408 6709 1 109.50000 418.400000
3935 13408 6710 1 109.50000 418.400000
3936 13408 6709 1 109.50000 418.400000
3936 13408 6710 1 109.50000 418.400000
6709 13408 6710 1 109.50000 418.400000
1733 13409 3990 1 109.50000 418.400000
1733 13409 5245 1 109.50000 418.400000
1733 13409 6711 1 109.50000 418.400000
3990 13409 5245 1 109.50000 418.400000
3990 13409 6711 1 109.50000 418.400000
5245 13409 6711 1 109.50000 418.400000
6712 13410 6713 1 109.50000 418.400000
6712 13410 6714 1 109.50000 418.400000
6712 13410 6715 1 109.50000 418.400000
6713 13410 6714 1 109.50000 418.400000
6713 13410 6715 1 109.50000 418.400000
6714 13410 6715 1 109.50000 418.400000
576 13411 1840 1 109.50000 418.400000
576 13411 2975 1 109.50000 418.400000
576 13411 6716 1 109.50000 418.400000
1840 13411 2975 1 109.50000 418.400000
1840 13411 6716 1 109.50000 418.400000
2975 13411 6716 1 109.50000 418.400000
6717 13412 6718 1 109.50000 418.400000
6717 13412 6719 1 109.50000 418.400000
6717 13412 6720 1 109.50000 418.400000
6718 13412 6719 1 109.50000 418.400000
6718 13412 6720 1 109.50000 418.400000
6719 13412 6720 1 109.50000 418.400000
6721 13413 6722 1 109.50000 418.400000
6721 13413 6723 1 109.50000 418.400000
6721 13413 11202 1 109.50000 418.400000
6722 13413 6723 1 109.50000 418.400000
6722 13413 11202 1 109.50000 418.400000
6723 13413 11202 1 109.50000 418.400000
3900 13414 5538 1 109.50000 418.400000
3900 13414 6593 1 109.50000 418.400000
3900 13414 6724 1 109.50000 418.400000
5538 13414 6593 1 109.50000 418.400000
5538 13414 6724 1 109.50000 418.400000
6593 13414 6724 1 109.50000 418.400000
1450 13415 6725 1 109.50000 418.400000
1450 13415 11255 1 109.50000 418.400000
1450 13415 11263 1 109.50000 418.400000
6725 13415 11255 1 109.50000 418.400000
6725 13415 11263 1 109.50000 418.400000
11255 13415 11263 1 109.50000 418.400000
2381 13416 3818 1 109.50000 418.400000
2381 13416 6727 1 109.50000 418.400000
2381 13416 6728 1 109.50000 418.400000
3818 13416 6727 1 109.50000 418.400000
3818 13416 6728 1 109.50000 418.400000
6727 13416 6728 1 109.50000 418.400000
2408 13417 6729 1 109.50000 418.400000
2408 13417 6730 1 109.50000 418.400000
2408 13417 6731 1 109.50000 418.400000
6729 13417 6730 1 109.50000 418.400000
6729 13417 6731 1 109.50000 418.400000
6730 13417 6731 1 109.50000 418.400000
2643 13418 4028 1 109.50000 418.400000
2643 13418 6732 1 109.50000 418.400000
2643 13418 6733 1 109.50000 418.400000
4028 13418 6732 1 109.50000 418.400000
4028 13418 6733 1 109.50000 418.400000
6732 13418 6733 1 109.50000 418.400000
3929 13419 5694 1 109.50000 418.400000
3929 13419 5695 1 109.50000 418.400000
3929 13419 6736 1 109.50000 418.400000
5694 13419 5695 1 109.50000 418.400000
5694 13419 6736 1 109.50000 418.400000
5695 13419 6736 1 109.50000 418.400000
659 13420 6738 1 109.50000 418.400000
659 13420 6739 1 109.50000 418.400000
659 13420 6740 1 109.50000 418.400000
6738 13420 6739 1 109.50000 418.400000
6738 13420 6740 1 109.50000 418.400000
6739 13420 6740 1 109.50000 418.400000
5734 13421 6743 1 109.50000 418.400000
5734 13421 6744 1 109.50000 418.400000
5734 13421 6745 1 109.50000 418.400000
6743 13421 6744 1 109.50000 418.400000
6743 13421 6745 1 109.50000 418.400000
6744 13421 6745 1 109.50000 418.400000
5794 13422 6522 1 109.50000 418.400000
5794 13422 6746 1 109.50000 418.400000
5794 13422 6747 1 109.50000 418.400000
6522 13422 6746 1 109.50000 418.400000
6522 13422 6747 1 109.50000 418.400000
6746 13422 6747 1 109.50000 418.400000
6748 13423 6749 1 109.50000 418.400000
6748 13423 6750 1 109.50000 418.400000
6748 13423 6751 1 109.50000 418.400000
6749 13423 6750 1 109.50000 418.400000
6749 13423 6751 1 109.50000 418.400000
6750 13423 6751 1 109.50000 418.400000
6752 13424 6753 1 109.50000 418.400000
6752 13424 6754 1 109.50000 418.400000
6752 13424 6755 1 109.50000 418.400000
6753 13424 6754 1 109.50000 418.400000
6753 13424 6755 1 109.50000 418.400000
6754 13424 6755 1 109.50000 418.400000
815 13425 6756 1 109.50000 418.400000
815 13425 6757 1 109.50000 418.400000
815 13425 11321 1 109.50000 418.400000
6756 13425 6757 1 109.50000 418.400000
6756 13425 11321 1 109.50000 418.400000
6757 13425 11321 1 109.50000 418.400000
5390 13426 5765 1 109.50000 418.400000
5390 13426 6758 1 109.50000 418.400000
5390 13426 10518 1 109.50000 418.400000
5765 13426 6758 1 109.50000 418.400000
5765 13426 10518 1 109.50000 418.400000
6758 13426 10518 1 109.50000 418.400000
4778 13427 6759 1 109.50000 418.400000
4778 13427 6760 1 109.50000 418.400000
4778 13427 6761 1 109.50000 418.400000
6759 13427 6760 1 109.50000 418.400000
6759 13427 6761 1 109.50000 418.400000
6760 13427 6761 1 109.50000 418.400000
4128 13428 6764 1 109.50000 418.400000
4128 13428 7358 1 109.50000 418.400000
4128 13428 7359 1 109.50000 418.400000
6764 13428 7358 1 109.50000 418.400000
6764 13428 7359 1 109.50000 418.400000
7358 13428 7359 1 109.50000 418.400000
5916 13429 6766 1 109.50000 418.400000
5916 13429 6767 1 109.50000 418.400000
5916 13429 7446 1 109.50000 418.400000
6766 13429 6767 1 109.50000 418.400000
6766 13429 7446 1 109.50000 418.400000
6767 13429 7446 1 109.50000 418.400000
5986 13430 6768 1 109.50000 418.400000
5986 13430 6769 1 109.50000 418.400000
5986 13430 6770 1 109.50000 418.400000
6768 13430 6769 1 109.50000 418.400000
6768 13430 6770 1 109.50000 418.400000
6769 13430 6770 1 109.50000 418.400000
3342 13431 6771 1 109.50000 418.400000
3342 13431 6772 1 109.50000 418.400000
3342 13431 6773 1 109.50000 418.400000
6771 13431 6772 1 109.50000 418.400000
6771 13431 6773 1 109.50000 418.400000
6772 13431 6773 1 109.50000 418.400000
2553 13432 6774 1 109.50000 418.400000
2553 13432 6775 1 109.50000 418.400000
2553 13432 6776 1 109.50000 418.400000
6774 13432 6775 1 109.50000 418.400000
6774 13432 6776 1 109.50000 418.400000
6775 13432 6776 1 109.50000 418.400000
6398 13433 6400 1 109.50000 418.400000
6398 13433 6777 1 109.50000 418.400000
6398 13433 6779 1 109.50000 418.400000
6400 13433 6777 1 109.50000 418.400000
6400 13433 6779 1 109.50000 418.400000
6777 13433 6779 1 109.50000 418.400000
2134 13434 3702 1 109.50000 418.400000
2134 13434 6781 1 109.50000 418.400000
2134 13434 6782 1 109.50000 418.400000
3702 13434 6781 1 109.50000 418.400000
3702 13434 6782 1 109.50000 418.400000
6781 13434 6782 1 109.50000 418.400000
838 13435 6783 1 109.50000 418.400000
838 13435 6784 1 109.50000 418.400000
838 13435 11210 1 109.50000 418.400000
6783 13435 6784 1 109.50000 418.400000
6783 13435 11210 1 109.50000 418.400000
6784 13435 11210 1 109.50000 418.400000
2625 13436 2627 1 109.50000 418.400000
2625 13436 6786 1 109.50000 418.400000
2625 13436 7373 1 109.50000 418.400000
2627 13436 6786 1 109.50000 418.400000
2627 13436 7373 1 109.50000 418.400000
6786 13436 7373 1 109.50000 418.400000
4569 13437 6788 1 109.50000 418.400000
4569 13437 6789 1 109.50000 418.400000
4569 13437 6790 1 109.50000 418.400000
6788 13437 6789 1 109.50000 418.400000
6788 13437 6790 1 109.50000 418.400000
6789 13437 6790 1 109.50000 418.400000
2948 13438 6791 1 109.50000 418.400000
2948 13438 6792 1 109.50000 418.400000
2948 13438 6793 1 109.50000 418.400000
6791 13438 6792 1 109.50000 418.400000
6791 13438 6793 1 109.50000 418.400000
6792 13438 6793 1 109.50000 418.400000
3712 13439 3714 1 109.50000 418.400000
3712 13439 3957 1 109.50000 418.400000
3712 13439 6795 1 109.50000 418.400000
3714 13439 3957 1 109.50000 418.400000
3714 13439 6795 1 109.50000 418.400000
3957 13439 6795 1 109.50000 418.400000
1633 13440 5232 1 109.50000 418.400000
1633 13440 6796 1 109.50000 418.400000
1633 13440 6797 1 109.50000 418.400000
5232 13440 6796 1 109.50000 418.400000
5232 13440 6797 1 109.50000 418.400000
6796 13440 6797 1 109.50000 418.400000
5051 13441 6798 1 109.50000 418.400000
5051 13441 6799 1 109.50000 418.400000
5051 13441 6800 1 109.50000 418.400000
6798 13441 6799 1 109.50000 418.400000
6798 13441 6800 1 109.50000 418.400000
6799 13441 6800 1 109.50000 418.400000
3294 13442 6801 1 109.50000 418.400000
3294 13442 6802 1 109.50000 418.400000
3294 13442 6803 1 109.50000 418.400000
6801 13442 6802 1 109.50000 418.400000
6801 13442 6803 1 109.50000 418.400000
6802 13442 6803 1 109.50000 418.400000
5917 13443 6804 1 109.50000 418.400000
5917 13443 6805 1 109.50000 418.400000
5917 13443 6806 1 109.50000 418.400000
6804 13443 6805 1 109.50000 418.400000
6804 13443 6806 1 109.50000 418.400000
6805 13443 6806 1 109.50000 418.400000
1693 13444 6807 1 109.50000 418.400000
1693 13444 6808 1 109.50000 418.400000
1693 13444 6809 1 109.50000 418.400000
6807 13444 6808 1 109.50000 418.400000
6807 13444 6809 1 109.50000 418.400000
6808 13444 6809 1 109.50000 418.400000
584 13445 3572 1 109.50000 418.400000
584 13445 3884 1 109.50000 418.400000
584 13445 5351 1 109.50000 418.400000
3572 13445 3884 1 109.50000 418.400000
3572 13445 5351 1 109.50000 418.400000
3884 13445 5351 1 109.50000 418.400000
3151 13446 4152 1 109.50000 418.400000
3151 13446 6349 1 109.50000 418.400000
3151 13446 6811 1 109.50000 418.400000
4152 13446 6349 1 109.50000 418.400000
4152 13446 6811 1 109.50000 418.400000
6349 13446 6811 1 109.50000 418.400000
3487 13447 4189 1 109.50000 418.400000
3487 13447 6423 1 109.50000 418.400000
3487 13447 6812 1 109.50000 418.400000
4189 13447 6423 1 109.50000 418.400000
4189 13447 6812 1 109.50000 418.400000
6423 13447 6812 1 109.50000 418.400000
935 13448 3522 1 109.50000 418.400000
935 13448 6813 1 109.50000 418.400000
935 13448 6814 1 109.50000 418.400000
3522 13448 6813 1 109.50000 418.400000
3522 13448 6814 1 109.50000 418.400000
6813 13448 6814 1 109.50000 418.400000
3474 13449 3873 1 109.50000 418.400000
3474 13449 6815 1 109.50000 418.400000
3474 13449 6816 1 109.50000 418.400000
3873 13449 6815 1 109.50000 418.400000
3873 13449 6816 1 109.50000 418.400000
6815 13449 6816 1 109.50000 418.400000
4104 13450 6354 1 109.50000 418.400000
4104 13450 6817 1 109.50000 418.400000
4104 13450 6818 1 109.50000 418.400000
6354 13450 6817 1 109.50000 418.400000
6354 13450 6818 1 109.50000 418.400000
6817 13450 6818 1 109.50000 418.400000
6819 13451 6820 1 109.50000 418.400000
6819 13451 6821 1 109.50000 418.400000
6819 13451 6822 1 109.50000 418.400000
6820 13451 6821 1 109.50000 418.400000
6820 13451 6822 1 109.50000 418.400000
6821 13451 6822 1 109.50000 418.400000
1958 13452 6823 1 109.50000 418.400000
1958 13452 6824 1 109.50000 418.400000
1958 13452 11339 1 109.50000 418.400000
6823 13452 6824 1 109.50000 418.400000
6823 13452 11339 1 109.50000 418.400000
6824 13452 11339 1 109.50000 418.400000
1289 13453 1648 1 109.50000 418.400000
1289 13453 3480 1 109.50000 418.400000
1289 13453 3577 1 109.50000 418.400000
1648 13453 3480 1 109.50000 418.400000
1648 13453 3577 1 109.50000 418.400000
3480 13453 3577 1 109.50000 418.400000
5229 13454 6825 1 109.50000 418.400000
5229 13454 6826 1 109.50000 418.400000
5229 13454 6827 1 109.50000 418.400000
6825 13454 6826 1 109.50000 418.400000
6825 13454 6827 1 109.50000 418.400000
6826 13454 6827 1 109.50000 418.400000
4949 13455 6828 1 109.50000 418.400000
4949 13455 6829 1 109.50000 418.400000
4949 13455 6830 1 109.50000 418.400000
6828 13455 6829 1 109.50000 418.400000
6828 13455 6830 1 109.50000 418.400000
6829 13455 6830 1 109.50000 418.400000
478 13456 3146 1 109.50000 418.400000
478 13456 6831 1 109.50000 418.400000
478 13456 6832 1 109.50000 418.400000
3146 13456 6831 1 109.50000 418.400000
3146 13456 6832 1 109.50000 418.400000
6831 13456 6832 1 109.50000 418.400000
5824 13457 6502 1 109.50000 418.400000
5824 13457 6833 1 109.50000 418.400000
5824 13457 6834 1 109.50000 418.400000
6502 13457 6833 1 109.50000 418.400000
6502 13457 6834 1 109.50000 418.400000
6833 13457 6834 1 109.50000 418.400000
6214 13458 6835 1 109.50000 418.400000
6214 13458 6837 1 109.50000 418.400000
6214 13458 7878 1 109.50000 418.400000
6835 13458 6837 1 109.50000 418.400000
6835 13458 7878 1 109.50000 418.400000
6837 13458 7878 1 109.50000 418.400000
716 13459 2640 1 109.50000 418.400000
716 13459 6838 1 109.50000 418.400000
716 13459 6839 1 109.50000 418.400000
2640 13459 6838 1 109.50000 418.400000
2640 13459 6839 1 109.50000 418.400000
6838 13459 6839 1 109.50000 418.400000
2171 13460 2984 1 109.50000 418.400000
2171 13460 3859 1 109.50000 418.400000
2171 13460 6840 1 109.50000 418.400000
2984 13460 3859 1 109.50000 418.400000
2984 13460 6840 1 109.50000 418.400000
3859 13460 6840 1 109.50000 418.400000
993 13461 6802 1 109.50000 418.400000
993 13461 6841 1 109.50000 418.400000
993 13461 6842 1 109.50000 418.400000
6802 13461 6841 1 109.50000 418.400000
6802 13461 6842 1 109.50000 418.400000
6841 13461 6842 1 109.50000 418.400000
4297 13462 5407 1 109.50000 418.400000
4297 13462 6843 1 109.50000 418.400000
4297 13462 6844 1 109.50000 418.400000
5407 13462 6843 1 109.50000 418.400000
5407 13462 6844 1 109.50000 418.400000
6843 13462 6844 1 109.50000 418.400000
6845 13463 6846 1 109.50000 418.400000
6845 13463 6847 1 109.50000 418.400000
6845 13463 6848 1 109.50000 418.400000
6846 13463 6847 1 109.50000 418.400000
6846 13463 6848 1 109.50000 418.400000
6847 13463 6848 1 109.50000 418.400000
3871 13464 6849 1 109.50000 418.400000
3871 13464 6850 1 109.50000 418.400000
3871 13464 6851 1 109.50000 418.400000
6849 13464 6850 1 109.50000 418.400000
6849 13464 6851 1 109.50000 418.400000
6850 13464 6851 1 109.50000 418.400000
1981 13465 3762 1 109.50000 418.400000
1981 13465 6852 1 109.50000 418.400000
1981 13465 6853 1 109.50000 418.400000
3762 13465 6852 1 109.50000 418.400000
3762 13465 6853 1 109.50000 418.400000
6852 13465 6853 1 109.50000 418.400000
3379 13466 4995 1 109.50000 418.400000
3379 13466 6854 1 109.50000 418.400000
3379 13466 6855 1 109.50000 418.400000
4995 13466 6854 1 109.50000 418.400000
4995 13466 6855 1 109.50000 418.400000
6854 13466 6855 1 109.50000 418.400000
6856 13467 6857 1 109.50000 418.400000
6856 13467 6858 1 109.50000 418.400000
6856 13467 6859 1 109.50000 418.400000
6857 13467 6858 1 109.50000 418.400000
6857 13467 6859 1 109.50000 418.400000
6858 13467 6859 1 109.50000 418.400000
3289 13468 3937 1 109.50000 418.400000
3289 13468 6860 1 109.50000 418.400000
3289 13468 6862 1 109.50000 418.400000
3937 13468 6860 1 109.50000 418.400000
3937 13468 6862 1 109.50000 418.400000
6860 13468 6862 1 109.50000 418.400000
2575 13469 2600 1 109.50000 418.400000
2575 13469 6188 1 109.50000 418.400000
2575 13469 6863 1 109.50000 418.400000
2600 13469 6188 1 109.50000 418.400000
2600 13469 6863 1 109.50000 418.400000
6188 13469 6863 1 109.50000 418.400000
4228 13470 6864 1 109.50000 418.400000
4228 13470 6865 1 109.50000 418.400000
4228 13470 6866 1 109.50000 418.400000
6864 13470 6865 1 109.50000 418.400000
6864 13470 6866 1 109.50000 418.400000
6865 13470 6866 1 109.50000 418.400000
711 13471 6868 1 109.50000 418.400000
711 13471 6869 1 109.50000 418.400000
711 13471 8735 1 109.50000 418.400000
6868 13471 6869 1 109.50000 418.400000
6868 13471 8735 1 109.50000 418.400000
6869 13471 8735 1 109.50000 418.400000
4859 13472 5202 1 109.50000 418.400000
4859 13472 6870 1 109.50000 418.400000
4859 13472 6871 1 109.50000 418.400000
5202 13472 6870 1 109.50000 418.400000
5202 13472 6871 1 109.50000 418.400000
6870 13472 6871 1 109.50000 418.400000
5408 13473 6872 1 109.50000 418.400000
5408 13473 6873 1 109.50000 418.400000
5408 13473 6874 1 109.50000 418.400000
6872 13473 6873 1 109.50000 418.400000
6872 13473 6874 1 109.50000 418.400000
6873 13473 6874 1 109.50000 418.400000
1888 13474 6875 1 109.50000 418.400000
1888 13474 6876 1 109.50000 418.400000
1888 13474 6877 1 109.50000 418.400000
6875 13474 6876 1 109.50000 418.400000
6875 13474 6877 1 109.50000 418.400000
6876 13474 6877 1 109.50000 418.400000
3199 13475 3273 1 109.50000 418.400000
3199 13475 6878 1 109.50000 418.400000
3199 13475 6879 1 109.50000 418.400000
3273 13475 6878 1 109.50000 418.400000
3273 13475 6879 1 109.50000 418.400000
6878 13475 6879 1 109.50000 418.400000
6020 13476 6880 1 109.50000 418.400000
6020 13476 6881 1 109.50000 418.400000
6020 13476 6882 1 109.50000 418.400000
6880 13476 6881 1 109.50000 418.400000
6880 13476 6882 1 109.50000 418.400000
6881 13476 6882 1 109.50000 418.400000
2781 13477 6544 1 109.50000 418.400000
2781 13477 6883 1 109.50000 418.400000
2781 13477 6884 1 109.50000 418.400000
6544 13477 6883 1 109.50000 418.400000
6544 13477 6884 1 109.50000 418.400000
6883 13477 6884 1 109.50000 418.400000
462 13478 3890 1 109.50000 418.400000
462 13478 6885 1 109.50000 418.400000
462 13478 6886 1 109.50000 418.400000
3890 13478 6885 1 109.50000 418.400000
3890 13478 6886 1 109.50000 418.400000
6885 13478 6886 1 109.50000 418.400000
1391 13479 3797 1 109.50000 418.400000
1391 13479 3867 1 109.50000 418.400000
1391 13479 6887 1 109.50000 418.400000
3797 13479 3867 1 109.50000 418.400000
3797 13479 6887 1 109.50000 418.400000
3867 13479 6887 1 109.50000 418.400000
1315 13480 1473 1 109.50000 418.400000
1315 13480 4526 1 109.50000 418.400000
1315 13480 6888 1 109.50000 418.400000
1473 13480 4526 1 109.50000 418.400000
1473 13480 6888 1 109.50000 418.400000
4526 13480 6888 1 109.50000 418.400000
3371 13481 6889 1 109.50000 418.400000
3371 13481 6890 1 109.50000 418.400000
3371 13481 6961 1 109.50000 418.400000
6889 13481 6890 1 109.50000 418.400000
6889 13481 6961 1 109.50000 418.400000
6890 13481 6961 1 109.50000 418.400000
2554 13482 5964 1 109.50000 418.400000
2554 13482 6891 1 109.50000 418.400000
2554 13482 6892 1 109.50000 418.400000
5964 13482 6891 1 109.50000 418.400000
5964 13482 6892 1 109.50000 418.400000
6891 13482 6892 1 109.50000 418.400000
3012 13483 3719 1 109.50000 418.400000
3012 13483 6893 1 109.50000 418.400000
3012 13483 6894 1 109.50000 418.400000
3719 13483 6893 1 109.50000 418.400000
3719 13483 6894 1 109.50000 418.400000
6893 13483 6894 1 109.50000 418.400000
6895 13484 6896 1 109.50000 418.400000
6895 13484 6898 1 109.50000 418.400000
6895 13484 10480 1 109.50000 418.400000
6896 13484 6898 1 109.50000 418.400000
6896 13484 10480 1 109.50000 418.400000
6898 13484 10480 1 109.50000 418.400000
3419 13485 6899 1 109.50000 418.400000
3419 13485 6900 1 109.50000 418.400000
3419 13485 11178 1 109.50000 418.400000
6899 13485 6900 1 109.50000 418.400000
6899 13485 11178 1 109.50000 418.400000
6900 13485 11178 1 109.50000 418.400000
5922 13486 6902 1 109.50000 418.400000
5922 13486 6903 1 109.50000 418.400000
5922 13486 6904 1 109.50000 418.400000
6902 13486 6903 1 109.50000 418.400000
6902 13486 6904 1 109.50000 418.400000
6903 13486 6904 1 109.50000 418.400000
3181 13487 4359 1 109.50000 418.400000
3181 13487 5431 1 109.50000 418.400000
3181 13487 6905 1 109.50000 418.400000
4359 13487 5431 1 109.50000 418.400000
4359 13487 6905 1 109.50000 418.400000
5431 13487 6905 1 109.50000 418.400000
6906 13488 6907 1 109.50000 418.400000
6906 13488 6908 1 109.50000 418.400000
6906 13488 6909 1 109.50000 418.400000
6907 13488 6908 1 109.50000 418.400000
6907 13488 6909 1 109.50000 418.400000
6908 13488 6909 1 109.50000 418.400000
3330 13489 5739 1 109.50000 418.400000
3330 13489 6697 1 109.50000 418.400000
3330 13489 6910 1 109.50000 418.400000
5739 13489 6697 1 109.50000 418.400000
5739 13489 6910 1 109.50000 418.400000
6697 13489 6910 1 109.50000 418.400000
4895 13490 6368 1 109.50000 418.400000
4895 13490 6911 1 109.50000 418.400000
4895 13490 6912 1 109.50000 418.400000
6368 13490 6911 1 109.50000 418.400000
6368 13490 6912 1 109.50000 418.400000
6911 13490 6912 1 109.50000 418.400000
2029 13491 6913 1 109.50000 418.400000
2029 13491 6914 1 109.50000 418.400000
2029 13491 6915 1 109.50000 418.400000
6913 13491 6914 1 109.50000 418.400000
6913 13491 6915 1 109.50000 418.400000
6914 13491 6915 1 109.50000 418.400000
2015 13492 6916 1 109.50000 418.400000
2015 13492 6917 1 109.50000 418.400000
2015 13492 11366 1 109.50000 418.400000
6916 13492 6917 1 109.50000 418.400000
6916 13492 11366 1 109.50000 418.400000
6917 13492 11366 1 109.50000 418.400000
6476 13493 6918 1 109.50000 418.400000
6476 13493 6919 1 109.50000 418.400000
6476 13493 6920 1 109.50000 418.400000
6918 13493 6919 1 109.50000 418.400000
6918 13493 6920 1 109.50000 418.400000
6919 13493 6920 1 109.50000 418.400000
6202 13494 6922 1 109.50000 418.400000
6202 13494 6923 1 109.50000 418.400000
6202 13494 7506 1 109.50000 418.400000
6922 13494 6923 1 109.50000 418.400000
6922 13494 7506 1 109.50000 418.400000
6923 13494 7506 1 109.50000 418.400000
391 13495 2238 1 109.50000 418.400000
391 13495 3325 1 109.50000 418.400000
391 13495 6925 1 109.50000 418.400000
2238 13495 3325 1 109.50000 418.400000
2238 13495 6925 1 109.50000 418.400000
3325 13495 6925 1 109.50000 418.400000
4609 13496 6927 1 109.50000 418.400000
4609 13496 6928 1 109.50000 418.400000
4609 13496 6929 1 109.50000 418.400000
6927 13496 6928 1 109.50000 418.400000
6927 13496 6929 1 109.50000 418.400000
6928 13496 6929 1 109.50000 418.400000
1163 13497 2229 1 109.50000 418.400000
1163 13497 2661 1 109.50000 418.400000
1163 13497 6930 1 109.50000 418.400000
2229 13497 2661 1 109.50000 418.400000
2229 13497 6930 1 109.50000 418.400000
2661 13497 6930 1 109.50000 418.400000
2278 13498 6831 1 109.50000 418.400000
2278 13498 6933 1 109.50000 418.400000
2278 13498 6934 1 109.50000 418.400000
6831 13498 6933 1 109.50000 418.400000
6831 13498 6934 1 109.50000 418.400000
6933 13498 6934 1 109.50000 418.400000
5716 13499 6935 1 109.50000 418.400000
5716 13499 6936 1 109.50000 418.400000
5716 13499 6937 1 109.50000 418.400000
6935 13499 6936 1 109.50000 418.400000
6935 13499 6937 1 109.50000 418.400000
6936 13499 6937 1 109.50000 418.400000
6655 13500 6938 1 109.50000 418.400000
6655 13500 6939 1 109.50000 418.400000
6655 13500 6940 1 109.50000 418.400000
6938 13500 6939 1 109.50000 418.400000
6938 13500 6940 1 109.50000 418.400000
6939 13500 6940 1 109.50000 418.400000
2645 13501 6941 1 109.50000 418.400000
2645 13501 6942 1 109.50000 418.400000
2645 13501 6943 1 109.50000 418.400000
6941 13501 6942 1 109.50000 418.400000
6941 13501 6943 1 109.50000 418.400000
6942 13501 6943 1 109.50000 418.400000
5433 13502 5878 1 109.50000 418.400000
5433 13502 6944 1 109.50000 418.400000
5433 13502 6945 1 109.50000 418.400000
5878 13502 6944 1 109.50000 418.400000
5878 13502 6945 1 109.50000 418.400000
6944 13502 6945 1 109.50000 418.400000
3852 13503 5201 1 109.50000 418.400000
3852 13503 6946 1 109.50000 418.400000
3852 13503 6947 1 109.50000 418.400000
5201 13503 6946 1 109.50000 418.400000
5201 13503 6947 1 109.50000 418.400000
6946 13503 6947 1 109.50000 418.400000
6951 13504 6952 1 109.50000 418.400000
6951 13504 6953 1 109.50000 418.400000
6951 13504 6954 1 109.50000 418.400000
6952 13504 6953 1 109.50000 418.400000
6952 13504 6954 1 109.50000 418.400000
6953 13504 6954 1 109.50000 418.400000
624 13505 6955 1 109.50000 418.400000
624 13505 6956 1 109.50000 418.400000
624 13505 6957 1 109.50000 418.400000
6955 13505 6956 1 109.50000 418.400000
6955 13505 6957 1 109.50000 418.400000
6956 13505 6957 1 109.50000 418.400000
2226 13506 4100 1 109.50000 418.400000
2226 13506 4101 1 109.50000 418.400000
2226 13506 6958 1 109.50000 418.400000
4100 13506 4101 1 109.50000 418.400000
4100 13506 6958 1 109.50000 418.400000
4101 13506 6958 1 109.50000 418.400000
2314 13507 2362 1 109.50000 418.400000
2314 13507 2369 1 109.50000 418.400000
2314 13507 6960 1 109.50000 418.400000
2362 13507 2369 1 109.50000 418.400000
2362 13507 6960 1 109.50000 418.400000
2369 13507 6960 1 109.50000 418.400000
4433 13508 5666 1 109.50000 418.400000
4433 13508 6961 1 109.50000 418.400000
4433 13508 11322 1 109.50000 418.400000
5666 13508 6961 1 109.50000 418.400000
5666 13508 11322 1 109.50000 418.400000
6961 13508 11322 1 109.50000 418.400000
2637 13509 6962 1 109.50000 418.400000
2637 13509 6963 1 109.50000 418.400000
2637 13509 7739 1 109.50000 418.400000
6962 13509 6963 1 109.50000 418.400000
6962 13509 7739 1 109.50000 418.400000
6963 13509 7739 1 109.50000 418.400000
4912 13510 6966 1 109.50000 418.400000
4912 13510 6967 1 109.50000 418.400000
4912 13510 8893 1 109.50000 418.400000
6966 13510 6967 1 109.50000 418.400000
6966 13510 8893 1 109.50000 418.400000
6967 13510 8893 1 109.50000 418.400000
1829 13511 4922 1 109.50000 418.400000
1829 13511 5163 1 109.50000 418.400000
1829 13511 6968 1 109.50000 418.400000
4922 13511 5163 1 109.50000 418.400000
4922 13511 6968 1 109.50000 418.400000
5163 13511 6968 1 109.50000 418.400000
2510 13512 3728 1 109.50000 418.400000
2510 13512 3729 1 109.50000 418.400000
2510 13512 6970 1 109.50000 418.400000
3728 13512 3729 1 109.50000 418.400000
3728 13512 6970 1 109.50000 418.400000
3729 13512 6970 1 109.50000 418.400000
1723 13513 6972 1 109.50000 418.400000
1723 13513 6973 1 109.50000 418.400000
1723 13513 6974 1 109.50000 418.400000
6972 13513 6973 1 109.50000 418.400000
6972 13513 6974 1 109.50000 418.400000
6973 13513 6974 1 109.50000 418.400000
6096 13514 6975 1 109.50000 418.400000
6096 13514 6976 1 109.50000 418.400000
6096 13514 6977 1 109.50000 418.400000
6975 13514 6976 1 109.50000 418.400000
6975 13514 6977 1 109.50000 418.400000
6976 13514 6977 1 109.50000 418.400000
5802 13515 6979 1 109.50000 418.400000
5802 13515 6980 1 109.50000 418.400000
5802 13515 6981 1 109.50000 418.400000
6979 13515 6980 1 109.50000 418.400000
6979 13515 6981 1 109.50000 418.400000
6980 13515 6981 1 109.50000 418.400000
5422 13516 6527 1 109.50000 418.400000
5422 13516 6982 1 109.50000 418.400000
5422 13516 6983 1 109.50000 418.400000
6527 13516 6982 1 109.50000 418.400000
6527 13516 6983 1 109.50000 418.400000
6982 13516 6983 1 109.50000 418.400000
2728 13517 6984 1 109.50000 418.400000
2728 13517 6985 1 109.50000 418.400000
2728 13517 6986 1 109.50000 418.400000
6984 13517 6985 1 109.50000 418.400000
6984 13517 6986 1 109.50000 418.400000
6985 13517 6986 1 109.50000 418.400000
2470 13518 6987 1 109.50000 418.400000
2470 13518 6988 1 109.50000 418.400000
2470 13518 10625 1 109.50000 418.400000
6987 13518 6988 1 109.50000 418.400000
6987 13518 10625 1 109.50000 418.400000
6988 13518 10625 1 109.50000 418.400000
5485 13519 6676 1 109.50000 418.400000
5485 13519 6989 1 109.50000 418.400000
5485 13519 6990 1 109.50000 418.400000
6676 13519 6989 1 109.50000 418.400000
6676 13519 6990 1 109.50000 418.400000
6989 13519 6990 1 109.50000 418.400000
1085 13520 2907 1 109.50000 418.400000
1085 13520 6991 1 109.50000 418.400000
1085 13520 6992 1 109.50000 418.400000
2907 13520 6991 1 109.50000 418.400000
2907 13520 6992 1 109.50000 418.400000
6991 13520 6992 1 109.50000 418.400000
573 13521 2760 1 109.50000 418.400000
573 13521 6993 1 109.50000 418.400000
573 13521 6994 1 109.50000 418.400000
2760 13521 6993 1 109.50000 418.400000
2760 13521 6994 1 109.50000 418.400000
6993 13521 6994 1 109.50000 418.400000
4036 13522 4254 1 109.50000 418.400000
4036 13522 6995 1 109.50000 418.400000
4036 13522 6996 1 109.50000 418.400000
4254 13522 6995 1 109.50000 418.400000
4254 13522 6996 1 109.50000 418.400000
6995 13522 6996 1 109.50000 418.400000
1688 13523 2617 1 109.50000 418.400000
1688 13523 6691 1 109.50000 418.400000
1688 13523 6997 1 109.50000 418.400000
2617 13523 6691 1 109.50000 418.400000
2617 13523 6997 1 109.50000 418.400000
6691 13523 6997 1 109.50000 418.400000
228 13524 3445 1 109.50000 418.400000
228 13524 6998 1 109.50000 418.400000
228 13524 6999 1 109.50000 418.400000
3445 13524 6998 1 109.50000 418.400000
3445 13524 6999 1 109.50000 418.400000
6998 13524 6999 1 109.50000 418.400000
172 13525 2673 1 109.50000 418.400000
172 13525 5088 1 109.50000 418.400000
172 13525 7000 1 109.50000 418.400000
2673 13525 5088 1 109.50000 418.400000
2673 13525 7000 1 109.50000 418.400000
5088 13525 7000 1 109.50000 418.400000
2043 13526 4814 1 109.50000 418.400000
2043 13526 7001 1 109.50000 418.400000
2043 13526 11330 1 109.50000 418.400000
4814 13526 7001 1 109.50000 418.400000
4814 13526 11330 1 109.50000 418.400000
7001 13526 11330 1 109.50000 418.400000
510 13527 3268 1 109.50000 418.400000
510 13527 6257 1 109.50000 418.400000
510 13527 7002 1 109.50000 418.400000
3268 13527 6257 1 109.50000 418.400000
3268 13527 7002 1 109.50000 418.400000
6257 13527 7002 1 109.50000 418.400000
2660 13528 7003 1 109.50000 418.400000
2660 13528 7004 1 109.50000 418.400000
2660 13528 7005 1 109.50000 418.400000
7003 13528 7004 1 109.50000 418.400000
7003 13528 7005 1 109.50000 418.400000
7004 13528 7005 1 109.50000 418.400000
4630 13529 5386 1 109.50000 418.400000
4630 13529 6732 1 109.50000 418.400000
4630 13529 7006 1 109.50000 418.400000
5386 13529 6732 1 109.50000 418.400000
5386 13529 7006 1 109.50000 418.400000
6732 13529 7006 1 109.50000 418.400000
5710 13530 7007 1 109.50000 418.400000
5710 13530 7008 1 109.50000 418.400000
5710 13530 7009 1 109.50000 418.400000
7007 13530 7008 1 109.50000 418.400000
7007 13530 7009 1 109.50000 418.400000
7008 13530 7009 1 109.50000 418.400000
1822 13531 7010 1 109.50000 418.400000
1822 13531 7011 1 109.50000 418.400000
1822 13531 7012 1 109.50000 418.400000
7010 13531 7011 1 109.50000 418.400000
7010 13531 7012 1 109.50000 418.400000
7011 13531 7012 1 109.50000 418.400000
7013 13532 7014 1 109.50000 418.400000
7013 13532 7015 1 109.50000 418.400000
7013 13532 7016 1 109.50000 418.400000
7014 13532 7015 1 109.50000 418.400000
7014 13532 7016 1 109.50000 418.400000
7015 13532 7016 1 109.50000 418.400000
2319 13533 4412 1 109.50000 418.400000
2319 13533 7017 1 109.50000 418.400000
2319 13533 7018 1 109.50000 418.400000
4412 13533 7017 1 109.50000 418.400000
4412 13533 7018 1 109.50000 418.400000
7017 13533 7018 1 109.50000 418.400000
5975 13534 7019 1 109.50000 418.400000
5975 13534 7020 1 109.50000 418.400000
5975 13534 11400 1 109.50000 418.400000
7019 13534 7020 1 109.50000 418.400000
7019 13534 11400 1 109.50000 418.400000
7020 13534 11400 1 109.50000 418.400000
164 13535 7021 1 109.50000 418.400000
164 13535 7022 1 109.50000 418.400000
164 13535 7023 1 109.50000 418.400000
7021 13535 7022 1 109.50000 418.400000
7021 13535 7023 1 109.50000 418.400000
7022 13535 7023 1 109.50000 418.400000
7024 13536 7025 1 109.50000 418.400000
7024 13536 7026 1 109.50000 418.400000
7024 13536 7027 1 109.50000 418.400000
7025 13536 7026 1 109.50000 418.400000
7025 13536 7027 1 109.50000 418.400000
7026 13536 7027 1 109.50000 418.400000
7028 13537 7029 1 109.50000 418.400000
7028 13537 7030 1 109.50000 418.400000
7028 13537 7031 1 109.50000 418.400000
7029 13537 7030 1 109.50000 418.400000
7029 13537 7031 1 109.50000 418.400000
7030 13537 7031 1 109.50000 418.400000
707 13538 7032 1 109.50000 418.400000
707 13538 7033 1 109.50000 418.400000
707 13538 7034 1 109.50000 418.400000
7032 13538 7033 1 109.50000 418.400000
7032 13538 7034 1 109.50000 418.400000
7033 13538 7034 1 109.50000 418.400000
1111 13539 7035 1 109.50000 418.400000
1111 13539 7036 1 109.50000 418.400000
1111 13539 7037 1 109.50000 418.400000
7035 13539 7036 1 109.50000 418.400000
7035 13539 7037 1 109.50000 418.400000
7036 13539 7037 1 109.50000 418.400000
7038 13540 7039 1 109.50000 418.400000
7038 13540 7040 1 109.50000 418.400000
7038 13540 7041 1 109.50000 418.400000
7039 13540 7040 1 109.50000 418.400000
7039 13540 7041 1 109.50000 418.400000
7040 13540 7041 1 109.50000 418.400000
4093 13541 5973 1 109.50000 418.400000
4093 13541 7042 1 109.50000 418.400000
4093 13541 7043 1 109.50000 418.400000
5973 13541 7042 1 109.50000 418.400000
5973 13541 7043 1 109.50000 418.400000
7042 13541 7043 1 109.50000 418.400000
2647 13542 7044 1 109.50000 418.400000
2647 13542 7045 1 109.50000 418.400000
2647 13542 7046 1 109.50000 418.400000
7044 13542 7045 1 109.50000 418.400000
7044 13542 7046 1 109.50000 418.400000
7045 13542 7046 1 109.50000 418.400000
7047 13543 7048 1 109.50000 418.400000
7047 13543 7049 1 109.50000 418.400000
7047 13543 7050 1 109.50000 418.400000
7048 13543 7049 1 109.50000 418.400000
7048 13543 7050 1 109.50000 418.400000
7049 13543 7050 1 109.50000 418.400000
279 13544 2122 1 109.50000 418.400000
279 13544 2680 1 109.50000 418.400000
279 13544 7051 1 109.50000 418.400000
2122 13544 2680 1 109.50000 418.400000
2122 13544 7051 1 109.50000 418.400000
2680 13544 7051 1 109.50000 418.400000
3647 13545 5530 1 109.50000 418.400000
3647 13545 7053 1 109.50000 418.400000
3647 13545 7054 1 109.50000 418.400000
5530 13545 7053 1 109.50000 418.400000
5530 13545 7054 1 109.50000 418.400000
7053 13545 7054 1 109.50000 418.400000
1657 13546 1923 1 109.50000 418.400000
1657 13546 2105 1 109.50000 418.400000
1657 13546 7055 1 109.50000 418.400000
1923 13546 2105 1 109.50000 418.400000
1923 13546 7055 1 109.50000 418.400000
2105 13546 7055 1 109.50000 418.400000
157 13547 6678 1 109.50000 418.400000
157 13547 7056 1 109.50000 418.400000
157 13547 7057 1 109.50000 418.400000
6678 13547 7056 1 109.50000 418.400000
6678 13547 7057 1 109.50000 418.400000
7056 13547 7057 1 109.50000 418.400000
4498 13548 7058 1 109.50000 418.400000
4498 13548 7059 1 109.50000 418.400000
4498 13548 7060 1 109.50000 418.400000
7058 13548 7059 1 109.50000 418.400000
7058 13548 7060 1 109.50000 418.400000
7059 13548 7060 1 109.50000 418.400000
7061 13549 7062 1 109.50000 418.400000
7061 13549 7064 1 109.50000 418.400000
7061 13549 9061 1 109.50000 418.400000
7062 13549 7064 1 109.50000 418.400000
7062 13549 9061 1 109.50000 418.400000
7064 13549 9061 1 109.50000 418.400000
7065 13550 7066 1 109.50000 418.400000
7065 13550 11261 1 109.50000 418.400000
7065 13550 11389 1 109.50000 418.400000
7066 13550 11261 1 109.50000 418.400000
7066 13550 11389 1 109.50000 418.400000
11261 13550 11389 1 109.50000 418.400000
7067 13551 7068 1 109.50000 418.400000
7067 13551 7069 1 109.50000 418.400000
7067 13551 7070 1 109.50000 418.400000
7068 13551 7069 1 109.50000 418.400000
7068 13551 7070 1 109.50000 418.400000
7069 13551 7070 1 109.50000 418.400000
5443 13552 7071 1 109.50000 418.400000
5443 13552 7072 1 109.50000 418.400000
5443 13552 7073 1 109.50000 418.400000
7071 13552 7072 1 109.50000 418.400000
7071 13552 7073 1 109.50000 418.400000
7072 13552 7073 1 109.50000 418.400000
2551 13553 7074 1 109.50000 418.400000
2551 13553 7075 1 109.50000 418.400000
2551 13553 7076 1 109.50000 418.400000
7074 13553 7075 1 109.50000 418.400000
7074 13553 7076 1 109.50000 418.400000
7075 13553 7076 1 109.50000 418.400000
2260 13554 6065 1 109.50000 418.400000
2260 13554 7077 1 109.50000 418.400000
2260 13554 7078 1 109.50000 418.400000
6065 13554 7077 1 109.50000 418.400000
6065 13554 7078 1 109.50000 418.400000
7077 13554 7078 1 109.50000 418.400000
7079 13555 7080 1 109.50000 418.400000
7079 13555 7081 1 109.50000 418.400000
7079 13555 9335 1 109.50000 418.400000
7080 13555 7081 1 109.50000 418.400000
7080 13555 9335 1 109.50000 418.400000
7081 13555 9335 1 109.50000 418.400000
959 13556 3400 1 109.50000 418.400000
959 13556 7083 1 109.50000 418.400000
959 13556 7084 1 109.50000 418.400000
3400 13556 7083 1 109.50000 418.400000
3400 13556 7084 1 109.50000 418.400000
7083 13556 7084 1 109.50000 418.400000
4366 13557 6395 1 109.50000 418.400000
4366 13557 7085 1 109.50000 418.400000
4366 13557 7086 1 109.50000 418.400000
6395 13557 7085 1 109.50000 418.400000
6395 13557 7086 1 109.50000 418.400000
7085 13557 7086 1 109.50000 418.400000
5589 13558 7087 1 109.50000 418.400000
5589 13558 7088 1 109.50000 418.400000
5589 13558 7089 1 109.50000 418.400000
7087 13558 7088 1 109.50000 418.400000
7087 13558 7089 1 109.50000 418.400000
7088 13558 7089 1 109.50000 418.400000
7090 13559 7092 1 109.50000 418.400000
7090 13559 7093 1 109.50000 418.400000
7090 13559 9130 1 109.50000 418.400000
7092 13559 7093 1 109.50000 418.400000
7092 13559 9130 1 109.50000 418.400000
7093 13559 9130 1 109.50000 418.400000
243 13560 3387 1 109.50000 418.400000
243 13560 6097 1 109.50000 418.400000
243 13560 7094 1 109.50000 418.400000
3387 13560 6097 1 109.50000 418.400000
3387 13560 7094 1 109.50000 418.400000
6097 13560 7094 1 109.50000 418.400000
2149 13561 7095 1 109.50000 418.400000
2149 13561 7096 1 109.50000 418.400000
2149 13561 7097 1 109.50000 418.400000
7095 13561 7096 1 109.50000 418.400000
7095 13561 7097 1 109.50000 418.400000
7096 13561 7097 1 109.50000 418.400000
5136 13562 6810 1 109.50000 418.400000
5136 13562 7099 1 109.50000 418.400000
5136 13562 7100 1 109.50000 418.400000
6810 13562 7099 1 109.50000 418.400000
6810 13562 7100 1 109.50000 418.400000
7099 13562 7100 1 109.50000 418.400000
433 13563 4878 1 109.50000 418.400000
433 13563 7101 1 109.50000 418.400000
433 13563 7102 1 109.50000 418.400000
4878 13563 7101 1 109.50000 418.400000
4878 13563 7102 1 109.50000 418.400000
7101 13563 7102 1 109.50000 418.400000
2870 13564 4096 1 109.50000 418.400000
2870 13564 7103 1 109.50000 418.400000
2870 13564 7104 1 109.50000 418.400000
4096 13564 7103 1 109.50000 418.400000
4096 13564 7104 1 109.50000 418.400000
7103 13564 7104 1 109.50000 418.400000
2348 13565 7105 1 109.50000 418.400000
2348 13565 7106 1 109.50000 418.400000
2348 13565 7107 1 109.50000 418.400000
7105 13565 7106 1 109.50000 418.400000
7105 13565 7107 1 109.50000 418.400000
7106 13565 7107 1 109.50000 418.400000
7108 13566 7109 1 109.50000 418.400000
7108 13566 7110 1 109.50000 418.400000
7108 13566 7111 1 109.50000 418.400000
7109 13566 7110 1 109.50000 418.400000
7109 13566 7111 1 109.50000 418.400000
7110 13566 7111 1 109.50000 418.400000
7112 13567 7113 1 109.50000 418.400000
7112 13567 7114 1 109.50000 418.400000
7112 13567 11331 1 109.50000 418.400000
7113 13567 7114 1 109.50000 418.400000
7113 13567 11331 1 109.50000 418.400000
7114 13567 11331 1 109.50000 418.400000
5876 13568 7115 1 109.50000 418.400000
5876 13568 7116 1 109.50000 418.400000
5876 13568 7117 1 109.50000 418.400000
7115 13568 7116 1 109.50000 418.400000
7115 13568 7117 1 109.50000 418.400000
7116 13568 7117 1 109.50000 418.400000
3244 13569 7118 1 109.50000 418.400000
3244 13569 7119 1 109.50000 418.400000
3244 13569 7120 1 109.50000 418.400000
7118 13569 7119 1 109.50000 418.400000
7118 13569 7120 1 109.50000 418.400000
7119 13569 7120 1 109.50000 418.400000
5859 13570 7121 1 109.50000 418.400000
5859 13570 7122 1 109.50000 418.400000
5859 13570 7123 1 109.50000 418.400000
7121 13570 7122 1 109.50000 418.400000
7121 13570 7123 1 109.50000 418.400000
7122 13570 7123 1 109.50000 418.400000
5073 13571 5892 1 109.50000 418.400000
5073 13571 7124 1 109.50000 418.400000
5073 13571 7125 1 109.50000 418.400000
5892 13571 7124 1 109.50000 418.400000
5892 13571 7125 1 109.50000 418.400000
7124 13571 7125 1 109.50000 418.400000
7127 13572 7128 1 109.50000 418.400000
7127 13572 7129 1 109.50000 418.400000
7127 13572 7130 1 109.50000 418.400000
7128 13572 7129 1 109.50000 418.400000
7128 13572 7130 1 109.50000 418.400000
7129 13572 7130 1 109.50000 418.400000
1063 13573 2410 1 109.50000 418.400000
1063 13573 3578 1 109.50000 418.400000
1063 13573 7131 1 109.50000 418.400000
2410 13573 3578 1 109.50000 418.400000
2410 13573 7131 1 109.50000 418.400000
3578 13573 7131 1 109.50000 418.400000
557 13574 3503 1 109.50000 418.400000
557 13574 7133 1 109.50000 418.400000
557 13574 7134 1 109.50000 418.400000
3503 13574 7133 1 109.50000 418.400000
3503 13574 7134 1 109.50000 418.400000
7133 13574 7134 1 109.50000 418.400000
883 13575 7135 1 109.50000 418.400000
883 13575 7136 1 109.50000 418.400000
883 13575 7137 1 109.50000 418.400000
7135 13575 7136 1 109.50000 418.400000
7135 13575 7137 1 109.50000 418.400000
7136 13575 7137 1 109.50000 418.400000
3292 13576 7138 1 109.50000 418.400000
3292 13576 7139 1 109.50000 418.400000
3292 13576 7140 1 109.50000 418.400000
7138 13576 7139 1 109.50000 418.400000
7138 13576 7140 1 109.50000 418.400000
7139 13576 7140 1 109.50000 418.400000
5375 13577 5376 1 109.50000 418.400000
5375 13577 7143 1 109.50000 418.400000
5375 13577 7145 1 109.50000 418.400000
5376 13577 7143 1 109.50000 418.400000
5376 13577 7145 1 109.50000 418.400000
7143 13577 7145 1 109.50000 418.400000
5298 13578 7146 1 109.50000 418.400000
5298 13578 7147 1 109.50000 418.400000
5298 13578 7148 1 109.50000 418.400000
7146 13578 7147 1 109.50000 418.400000
7146 13578 7148 1 109.50000 418.400000
7147 13578 7148 1 109.50000 418.400000
3892 13579 7149 1 109.50000 418.400000
3892 13579 7150 1 109.50000 418.400000
3892 13579 7151 1 109.50000 418.400000
7149 13579 7150 1 109.50000 418.400000
7149 13579 7151 1 109.50000 418.400000
7150 13579 7151 1 109.50000 418.400000
2859 13580 3111 1 109.50000 418.400000
2859 13580 6204 1 109.50000 418.400000
2859 13580 7152 1 109.50000 418.400000
3111 13580 6204 1 109.50000 418.400000
3111 13580 7152 1 109.50000 418.400000
6204 13580 7152 1 109.50000 418.400000
3907 13581 7155 1 109.50000 418.400000
3907 13581 7156 1 109.50000 418.400000
3907 13581 7157 1 109.50000 418.400000
7155 13581 7156 1 109.50000 418.400000
7155 13581 7157 1 109.50000 418.400000
7156 13581 7157 1 109.50000 418.400000
7158 13582 7159 1 109.50000 418.400000
7158 13582 7160 1 109.50000 418.400000
7158 13582 7161 1 109.50000 418.400000
7159 13582 7160 1 109.50000 418.400000
7159 13582 7161 1 109.50000 418.400000
7160 13582 7161 1 109.50000 418.400000
6749 13583 7031 1 109.50000 418.400000
6749 13583 7162 1 109.50000 418.400000
6749 13583 7163 1 109.50000 418.400000
7031 13583 7162 1 109.50000 418.400000
7031 13583 7163 1 109.50000 418.400000
7162 13583 7163 1 109.50000 418.400000
2326 13584 7164 1 109.50000 418.400000
2326 13584 7165 1 109.50000 418.400000
2326 13584 7166 1 109.50000 418.400000
7164 13584 7165 1 109.50000 418.400000
7164 13584 7166 1 109.50000 418.400000
7165 13584 7166 1 109.50000 418.400000
1811 13585 3447 1 109.50000 418.400000
1811 13585 4621 1 109.50000 418.400000
1811 13585 7167 1 109.50000 418.400000
3447 13585 4621 1 109.50000 418.400000
3447 13585 7167 1 109.50000 418.400000
4621 13585 7167 1 109.50000 418.400000
7168 13586 7169 1 109.50000 418.400000
7168 13586 7170 1 109.50000 418.400000
7168 13586 11244 1 109.50000 418.400000
7169 13586 7170 1 109.50000 418.400000
7169 13586 11244 1 109.50000 418.400000
7170 13586 11244 1 109.50000 418.400000
1683 13587 7171 1 109.50000 418.400000
1683 13587 11263 1 109.50000 418.400000
1683 13587 11264 1 109.50000 418.400000
7171 13587 11263 1 109.50000 418.400000
7171 13587 11264 1 109.50000 418.400000
11263 13587 11264 1 109.50000 418.400000
2115 13588 7172 1 109.50000 418.400000
2115 13588 7173 1 109.50000 418.400000
2115 13588 7174 1 109.50000 418.400000
7172 13588 7173 1 109.50000 418.400000
7172 13588 7174 1 109.50000 418.400000
7173 13588 7174 1 109.50000 418.400000
2051 13589 7175 1 109.50000 418.400000
2051 13589 7176 1 109.50000 418.400000
2051 13589 7177 1 109.50000 418.400000
7175 13589 7176 1 109.50000 418.400000
7175 13589 7177 1 109.50000 418.400000
7176 13589 7177 1 109.50000 418.400000
1145 13590 4721 1 109.50000 418.400000
1145 13590 7178 1 109.50000 418.400000
1145 13590 7179 1 109.50000 418.400000
4721 13590 7178 1 109.50000 418.400000
4721 13590 7179 1 109.50000 418.400000
7178 13590 7179 1 109.50000 418.400000
439 13591 4514 1 109.50000 418.400000
439 13591 7181 1 109.50000 418.400000
439 13591 7182 1 109.50000 418.400000
4514 13591 7181 1 109.50000 418.400000
4514 13591 7182 1 109.50000 418.400000
7181 13591 7182 1 109.50000 418.400000
5634 13592 6086 1 109.50000 418.400000
5634 13592 6510 1 109.50000 418.400000
5634 13592 7183 1 109.50000 418.400000
6086 13592 6510 1 109.50000 418.400000
6086 13592 7183 1 109.50000 418.400000
6510 13592 7183 1 109.50000 418.400000
4016 13593 6265 1 109.50000 418.400000
4016 13593 7184 1 109.50000 418.400000
4016 13593 7185 1 109.50000 418.400000
6265 13593 7184 1 109.50000 418.400000
6265 13593 7185 1 109.50000 418.400000
7184 13593 7185 1 109.50000 418.400000
7186 13594 7187 1 109.50000 418.400000
7186 13594 7188 1 109.50000 418.400000
7186 13594 7189 1 109.50000 418.400000
7187 13594 7188 1 109.50000 418.400000
7187 13594 7189 1 109.50000 418.400000
7188 13594 7189 1 109.50000 418.400000
7190 13595 7191 1 109.50000 418.400000
7190 13595 7192 1 109.50000 418.400000
7190 13595 7193 1 109.50000 418.400000
7191 13595 7192 1 109.50000 418.400000
7191 13595 7193 1 109.50000 418.400000
7192 13595 7193 1 109.50000 418.400000
5961 13596 7194 1 109.50000 418.400000
5961 13596 7195 1 109.50000 418.400000
5961 13596 11151 1 109.50000 418.400000
7194 13596 7195 1 109.50000 418.400000
7194 13596 11151 1 109.50000 418.400000
7195 13596 11151 1 109.50000 418.400000
38 13597 3291 1 109.50000 418.400000
38 13597 7196 1 109.50000 418.400000
38 13597 7197 1 109.50000 418.400000
3291 13597 7196 1 109.50000 418.400000
3291 13597 7197 1 109.50000 418.400000
7196 13597 7197 1 109.50000 418.400000
4982 13598 5246 1 109.50000 418.400000
4982 13598 7199 1 109.50000 418.400000
4982 13598 7200 1 109.50000 418.400000
5246 13598 7199 1 109.50000 418.400000
5246 13598 7200 1 109.50000 418.400000
7199 13598 7200 1 109.50000 418.400000
3139 13599 3203 1 109.50000 418.400000
3139 13599 7201 1 109.50000 418.400000
3139 13599 7202 1 109.50000 418.400000
3203 13599 7201 1 109.50000 418.400000
3203 13599 7202 1 109.50000 418.400000
7201 13599 7202 1 109.50000 418.400000
6444 13600 7203 1 109.50000 418.400000
6444 13600 7204 1 109.50000 418.400000
6444 13600 7469 1 109.50000 418.400000
7203 13600 7204 1 109.50000 418.400000
7203 13600 7469 1 109.50000 418.400000
7204 13600 7469 1 109.50000 418.400000
5885 13601 6346 1 109.50000 418.400000
5885 13601 7205 1 109.50000 418.400000
5885 13601 7206 1 109.50000 418.400000
6346 13601 7205 1 109.50000 418.400000
6346 13601 7206 1 109.50000 418.400000
7205 13601 7206 1 109.50000 418.400000
135 13602 3177 1 109.50000 418.400000
135 13602 7207 1 109.50000 418.400000
135 13602 7208 1 109.50000 418.400000
3177 13602 7207 1 109.50000 418.400000
3177 13602 7208 1 109.50000 418.400000
7207 13602 7208 1 109.50000 418.400000
698 13603 4637 1 109.50000 418.400000
698 13603 5355 1 109.50000 418.400000
698 13603 7209 1 109.50000 418.400000
4637 13603 5355 1 109.50000 418.400000
4637 13603 7209 1 109.50000 418.400000
5355 13603 7209 1 109.50000 418.400000
508 13604 3948 1 109.50000 418.400000
508 13604 5676 1 109.50000 418.400000
508 13604 6128 1 109.50000 418.400000
3948 13604 5676 1 109.50000 418.400000
3948 13604 6128 1 109.50000 418.400000
5676 13604 6128 1 109.50000 418.400000
7123 13605 7210 1 109.50000 418.400000
7123 13605 7211 1 109.50000 418.400000
7123 13605 7212 1 109.50000 418.400000
7210 13605 7211 1 109.50000 418.400000
7210 13605 7212 1 109.50000 418.400000
7211 13605 7212 1 109.50000 418.400000
4986 13606 5004 1 109.50000 418.400000
4986 13606 5889 1 109.50000 418.400000
4986 13606 7213 1 109.50000 418.400000
5004 13606 5889 1 109.50000 418.400000
5004 13606 7213 1 109.50000 418.400000
5889 13606 7213 1 109.50000 418.400000
4819 13607 7214 1 109.50000 418.400000
4819 13607 7215 1 109.50000 418.400000
4819 13607 8122 1 109.50000 418.400000
7214 13607 7215 1 109.50000 418.400000
7214 13607 8122 1 109.50000 418.400000
7215 13607 8122 1 109.50000 418.400000
4455 13608 5146 1 109.50000 418.400000
4455 13608 7217 1 109.50000 418.400000
4455 13608 11283 1 109.50000 418.400000
5146 13608 7217 1 109.50000 418.400000
5146 13608 11283 1 109.50000 418.400000
7217 13608 11283 1 109.50000 418.400000
7218 13609 7219 1 109.50000 418.400000
7218 13609 7220 1 109.50000 418.400000
7218 13609 7221 1 109.50000 418.400000
7219 13609 7220 1 109.50000 418.400000
7219 13609 7221 1 109.50000 418.400000
7220 13609 7221 1 109.50000 418.400000
2885 13610 4353 1 109.50000 418.400000
2885 13610 7225 1 109.50000 418.400000
2885 13610 7226 1 109.50000 418.400000
4353 13610 7225 1 109.50000 418.400000
4353 13610 7226 1 109.50000 418.400000
7225 13610 7226 1 109.50000 418.400000
3077 13611 4156 1 109.50000 418.400000
3077 13611 6419 1 109.50000 418.400000
3077 13611 7227 1 109.50000 418.400000
4156 13611 6419 1 109.50000 418.400000
4156 13611 7227 1 109.50000 418.400000
6419 13611 7227 1 109.50000 418.400000
7228 13612 7229 1 109.50000 418.400000
7228 13612 7230 1 109.50000 418.400000
7228 13612 7231 1 109.50000 418.400000
7229 13612 7230 1 109.50000 418.400000
7229 13612 7231 1 109.50000 418.400000
7230 13612 7231 1 109.50000 418.400000
4146 13613 7232 1 109.50000 418.400000
4146 13613 7233 1 109.50000 418.400000
4146 13613 7234 1 109.50000 418.400000
7232 13613 7233 1 109.50000 418.400000
7232 13613 7234 1 109.50000 418.400000
7233 13613 7234 1 109.50000 418.400000
296 13614 297 1 109.50000 418.400000
296 13614 7235 1 109.50000 418.400000
296 13614 7236 1 109.50000 418.400000
297 13614 7235 1 109.50000 418.400000
297 13614 7236 1 109.50000 418.400000
7235 13614 7236 1 109.50000 418.400000
1919 13615 6747 1 109.50000 418.400000
1919 13615 7238 1 109.50000 418.400000
1919 13615 7239 1 109.50000 418.400000
6747 13615 7238 1 109.50000 418.400000
6747 13615 7239 1 109.50000 418.400000
7238 13615 7239 1 109.50000 418.400000
94 13616 7241 1 109.50000 418.400000
94 13616 7242 1 109.50000 418.400000
94 13616 10704 1 109.50000 418.400000
7241 13616 7242 1 109.50000 418.400000
7241 13616 10704 1 109.50000 418.400000
7242 13616 10704 1 109.50000 418.400000
1241 13617 6534 1 109.50000 418.400000
1241 13617 7243 1 109.50000 418.400000
1241 13617 7244 1 109.50000 418.400000
6534 13617 7243 1 109.50000 418.400000
6534 13617 7244 1 109.50000 418.400000
7243 13617 7244 1 109.50000 418.400000
3786 13618 5207 1 109.50000 418.400000
3786 13618 7245 1 109.50000 418.400000
3786 13618 7246 1 109.50000 418.400000
5207 13618 7245 1 109.50000 418.400000
5207 13618 7246 1 109.50000 418.400000
7245 13618 7246 1 109.50000 418.400000
7247 13619 7248 1 109.50000 418.400000
7247 13619 7249 1 109.50000 418.400000
7247 13619 7250 1 109.50000 418.400000
7248 13619 7249 1 109.50000 418.400000
7248 13619 7250 1 109.50000 418.400000
7249 13619 7250 1 109.50000 418.400000
4054 13620 6098 1 109.50000 418.400000
4054 13620 6518 1 109.50000 418.400000
4054 13620 7251 1 109.50000 418.400000
6098 13620 6518 1 109.50000 418.400000
6098 13620 7251 1 109.50000 418.400000
6518 13620 7251 1 109.50000 418.400000
954 13621 3295 1 109.50000 418.400000
954 13621 7193 1 109.50000 418.400000
954 13621 7253 1 109.50000 418.400000
3295 13621 7193 1 109.50000 418.400000
3295 13621 7253 1 109.50000 418.400000
7193 13621 7253 1 109.50000 418.400000
1210 13622 2284 1 109.50000 418.400000
1210 13622 7254 1 109.50000 418.400000
1210 13622 8084 1 109.50000 418.400000
2284 13622 7254 1 109.50000 418.400000
2284 13622 8084 1 109.50000 418.400000
7254 13622 8084 1 109.50000 418.400000
3084 13623 3086 1 109.50000 418.400000
3084 13623 7255 1 109.50000 418.400000
3084 13623 7256 1 109.50000 418.400000
3086 13623 7255 1 109.50000 418.400000
3086 13623 7256 1 109.50000 418.400000
7255 13623 7256 1 109.50000 418.400000
1941 13624 5608 1 109.50000 418.400000
1941 13624 7258 1 109.50000 418.400000
1941 13624 7259 1 109.50000 418.400000
5608 13624 7258 1 109.50000 418.400000
5608 13624 7259 1 109.50000 418.400000
7258 13624 7259 1 109.50000 418.400000
5904 13625 5938 1 109.50000 418.400000
5904 13625 7260 1 109.50000 418.400000
5904 13625 7261 1 109.50000 418.400000
5938 13625 7260 1 109.50000 418.400000
5938 13625 7261 1 109.50000 418.400000
7260 13625 7261 1 109.50000 418.400000
7262 13626 7263 1 109.50000 418.400000
7262 13626 7264 1 109.50000 418.400000
7262 13626 11211 1 109.50000 418.400000
7263 13626 7264 1 109.50000 418.400000
7263 13626 11211 1 109.50000 418.400000
7264 13626 11211 1 109.50000 418.400000
111 13627 451 1 109.50000 418.400000
111 13627 7265 1 109.50000 418.400000
111 13627 7266 1 109.50000 418.400000
451 13627 7265 1 109.50000 418.400000
451 13627 7266 1 109.50000 418.400000
7265 13627 7266 1 109.50000 418.400000
1541 13628 3366 1 109.50000 418.400000
1541 13628 3367 1 109.50000 418.400000
1541 13628 7267 1 109.50000 418.400000
3366 13628 3367 1 109.50000 418.400000
3366 13628 7267 1 109.50000 418.400000
3367 13628 7267 1 109.50000 418.400000
868 13629 3372 1 109.50000 418.400000
868 13629 7268 1 109.50000 418.400000
868 13629 11308 1 109.50000 418.400000
3372 13629 7268 1 109.50000 418.400000
3372 13629 11308 1 109.50000 418.400000
7268 13629 11308 1 109.50000 418.400000
2681 13630 2901 1 109.50000 418.400000
2681 13630 5778 1 109.50000 418.400000
2681 13630 5959 1 109.50000 418.400000
2901 13630 5778 1 109.50000 418.400000
2901 13630 5959 1 109.50000 418.400000
5778 13630 5959 1 109.50000 418.400000
6203 13631 6660 1 109.50000 418.400000
6203 13631 7270 1 109.50000 418.400000
6203 13631 10401 1 109.50000 418.400000
6660 13631 7270 1 109.50000 418.400000
6660 13631 10401 1 109.50000 418.400000
7270 13631 10401 1 109.50000 418.400000
7271 13632 7272 1 109.50000 418.400000
7271 13632 7273 1 109.50000 418.400000
7271 13632 7274 1 109.50000 418.400000
7272 13632 7273 1 109.50000 418.400000
7272 13632 7274 1 109.50000 418.400000
7273 13632 7274 1 109.50000 418.400000
823 13633 4227 1 109.50000 418.400000
823 13633 7275 1 109.50000 418.400000
823 13633 7276 1 109.50000 418.400000
4227 13633 7275 1 109.50000 418.400000
4227 13633 7276 1 109.50000 418.400000
7275 13633 7276 1 109.50000 418.400000
7278 13634 7279 1 109.50000 418.400000
7278 13634 7280 1 109.50000 418.400000
7278 13634 9033 1 109.50000 418.400000
7279 13634 7280 1 109.50000 418.400000
7279 13634 9033 1 109.50000 418.400000
7280 13634 9033 1 109.50000 418.400000
2146 13635 5475 1 109.50000 418.400000
2146 13635 6135 1 109.50000 418.400000
2146 13635 7281 1 109.50000 418.400000
5475 13635 6135 1 109.50000 418.400000
5475 13635 7281 1 109.50000 418.400000
6135 13635 7281 1 109.50000 418.400000
7268 13636 7284 1 109.50000 418.400000
7268 13636 7285 1 109.50000 418.400000
7268 13636 7286 1 109.50000 418.400000
7284 13636 7285 1 109.50000 418.400000
7284 13636 7286 1 109.50000 418.400000
7285 13636 7286 1 109.50000 418.400000
2285 13637 5579 1 109.50000 418.400000
2285 13637 7223 1 109.50000 418.400000
2285 13637 7287 1 109.50000 418.400000
5579 13637 7223 1 109.50000 418.400000
5579 13637 7287 1 109.50000 418.400000
7223 13637 7287 1 109.50000 418.400000
7289 13638 7290 1 109.50000 418.400000
7289 13638 10193 1 109.50000 418.400000
7289 13638 10839 1 109.50000 418.400000
7290 13638 10193 1 109.50000 418.400000
7290 13638 10839 1 109.50000 418.400000
10193 13638 10839 1 109.50000 418.400000
15 13639 7292 1 109.50000 418.400000
15 13639 7293 1 109.50000 418.400000
15 13639 7294 1 109.50000 418.400000
7292 13639 7293 1 109.50000 418.400000
7292 13639 7294 1 109.50000 418.400000
7293 13639 7294 1 109.50000 418.400000
3471 13640 7295 1 109.50000 418.400000
3471 13640 7296 1 109.50000 418.400000
3471 13640 7297 1 109.50000 418.400000
7295 13640 7296 1 109.50000 418.400000
7295 13640 7297 1 109.50000 418.400000
7296 13640 7297 1 109.50000 418.400000
5056 13641 5978 1 109.50000 418.400000
5056 13641 5980 1 109.50000 418.400000
5056 13641 5981 1 109.50000 418.400000
5978 13641 5980 1 109.50000 418.400000
5978 13641 5981 1 109.50000 418.400000
5980 13641 5981 1 109.50000 418.400000
2847 13642 7298 1 109.50000 418.400000
2847 13642 7299 1 109.50000 418.400000
2847 13642 7300 1 109.50000 418.400000
7298 13642 7299 1 109.50000 418.400000
7298 13642 7300 1 109.50000 418.400000
7299 13642 7300 1 109.50000 418.400000
5736 13643 7301 1 109.50000 418.400000
5736 13643 7302 1 109.50000 418.400000
5736 13643 11220 1 109.50000 418.400000
7301 13643 7302 1 109.50000 418.400000
7301 13643 11220 1 109.50000 418.400000
7302 13643 11220 1 109.50000 418.400000
6237 13644 7303 1 109.50000 418.400000
6237 13644 7304 1 109.50000 418.400000
6237 13644 7305 1 109.50000 418.400000
7303 13644 7304 1 109.50000 418.400000
7303 13644 7305 1 109.50000 418.400000
7304 13644 7305 1 109.50000 418.400000
4644 13645 7306 1 109.50000 418.400000
4644 13645 7307 1 109.50000 418.400000
4644 13645 7308 1 109.50000 418.400000
7306 13645 7307 1 109.50000 418.400000
7306 13645 7308 1 109.50000 418.400000
7307 13645 7308 1 109.50000 418.400000
7309 13646 7310 1 109.50000 418.400000
7309 13646 7311 1 109.50000 418.400000
7309 13646 7312 1 109.50000 418.400000
7310 13646 7311 1 109.50000 418.400000
7310 13646 7312 1 109.50000 418.400000
7311 13646 7312 1 109.50000 418.400000
1490 13647 7151 1 109.50000 418.400000
1490 13647 7313 1 109.50000 418.400000
1490 13647 7314 1 109.50000 418.400000
7151 13647 7313 1 109.50000 418.400000
7151 13647 7314 1 109.50000 418.400000
7313 13647 7314 1 109.50000 418.400000
5389 13648 7315 1 109.50000 418.400000
5389 13648 7316 1 109.50000 418.400000
5389 13648 9938 1 109.50000 418.400000
7315 13648 7316 1 109.50000 418.400000
7315 13648 9938 1 109.50000 418.400000
7316 13648 9938 1 109.50000 418.400000
5927 13649 5952 1 109.50000 418.400000
5927 13649 7129 1 109.50000 418.400000
5927 13649 7231 1 109.50000 418.400000
5952 13649 7129 1 109.50000 418.400000
5952 13649 7231 1 109.50000 418.400000
7129 13649 7231 1 109.50000 418.400000
752 13650 2567 1 109.50000 418.400000
752 13650 7317 1 109.50000 418.400000
752 13650 7318 1 109.50000 418.400000
2567 13650 7317 1 109.50000 418.400000
2567 13650 7318 1 109.50000 418.400000
7317 13650 7318 1 109.50000 418.400000
1349 13651 1350 1 109.50000 418.400000
1349 13651 1351 1 109.50000 418.400000
1349 13651 9817 1 109.50000 418.400000
1350 13651 1351 1 109.50000 418.400000
1350 13651 9817 1 109.50000 418.400000
1351 13651 9817 1 109.50000 418.400000
2067 13652 5248 1 109.50000 418.400000
2067 13652 7321 1 109.50000 418.400000
2067 13652 7322 1 109.50000 418.400000
5248 13652 7321 1 109.50000 418.400000
5248 13652 7322 1 109.50000 418.400000
7321 13652 7322 1 109.50000 418.400000
1974 13653 2464 1 109.50000 418.400000
1974 13653 7323 1 109.50000 418.400000
1974 13653 7324 1 109.50000 418.400000
2464 13653 7323 1 109.50000 418.400000
2464 13653 7324 1 109.50000 418.400000
7323 13653 7324 1 109.50000 418.400000
3228 13654 3281 1 109.50000 418.400000
3228 13654 4306 1 109.50000 418.400000
3228 13654 4987 1 109.50000 418.400000
3281 13654 4306 1 109.50000 418.400000
3281 13654 4987 1 109.50000 418.400000
4306 13654 4987 1 109.50000 418.400000
6506 13655 7327 1 109.50000 418.400000
6506 13655 7328 1 109.50000 418.400000
6506 13655 7781 1 109.50000 418.400000
7327 13655 7328 1 109.50000 418.400000
7327 13655 7781 1 109.50000 418.400000
7328 13655 7781 1 109.50000 418.400000
3327 13656 6176 1 109.50000 418.400000
3327 13656 7283 1 109.50000 418.400000
3327 13656 7329 1 109.50000 418.400000
6176 13656 7283 1 109.50000 418.400000
6176 13656 7329 1 109.50000 418.400000
7283 13656 7329 1 109.50000 418.400000
86 13657 4920 1 109.50000 418.400000
86 13657 5187 1 109.50000 418.400000
86 13657 7330 1 109.50000 418.400000
4920 13657 5187 1 109.50000 418.400000
4920 13657 7330 1 109.50000 418.400000
5187 13657 7330 1 109.50000 418.400000
6906 13658 7331 1 109.50000 418.400000
6906 13658 7332 1 109.50000 418.400000
6906 13658 7333 1 109.50000 418.400000
7331 13658 7332 1 109.50000 418.400000
7331 13658 7333 1 109.50000 418.400000
7332 13658 7333 1 109.50000 418.400000
7334 13659 7335 1 109.50000 418.400000
7334 13659 7336 1 109.50000 418.400000
7334 13659 7337 1 109.50000 418.400000
7335 13659 7336 1 109.50000 418.400000
7335 13659 7337 1 109.50000 418.400000
7336 13659 7337 1 109.50000 418.400000
3200 13660 7338 1 109.50000 418.400000
3200 13660 7339 1 109.50000 418.400000
3200 13660 7340 1 109.50000 418.400000
7338 13660 7339 1 109.50000 418.400000
7338 13660 7340 1 109.50000 418.400000
7339 13660 7340 1 109.50000 418.400000
6163 13661 7342 1 109.50000 418.400000
6163 13661 7343 1 109.50000 418.400000
6163 13661 7344 1 109.50000 418.400000
7342 13661 7343 1 109.50000 418.400000
7342 13661 7344 1 109.50000 418.400000
7343 13661 7344 1 109.50000 418.400000
2254 13662 7345 1 109.50000 418.400000
2254 13662 7346 1 109.50000 418.400000
2254 13662 7347 1 109.50000 418.400000
7345 13662 7346 1 109.50000 418.400000
7345 13662 7347 1 109.50000 418.400000
7346 13662 7347 1 109.50000 418.400000
7284 13663 7348 1 109.50000 418.400000
7284 13663 7349 1 109.50000 418.400000
7284 13663 7350 1 109.50000 418.400000
7348 13663 7349 1 109.50000 418.400000
7348 13663 7350 1 109.50000 418.400000
7349 13663 7350 1 109.50000 418.400000
4098 13664 7351 1 109.50000 418.400000
4098 13664 7352 1 109.50000 418.400000
4098 13664 7353 1 109.50000 418.400000
7351 13664 7352 1 109.50000 418.400000
7351 13664 7353 1 109.50000 418.400000
7352 13664 7353 1 109.50000 418.400000
2736 13665 7354 1 109.50000 418.400000
2736 13665 7355 1 109.50000 418.400000
2736 13665 7356 1 109.50000 418.400000
7354 13665 7355 1 109.50000 418.400000
7354 13665 7356 1 109.50000 418.400000
7355 13665 7356 1 109.50000 418.400000
1938 13666 6762 1 109.50000 418.400000
1938 13666 7357 1 109.50000 418.400000
1938 13666 7359 1 109.50000 418.400000
6762 13666 7357 1 109.50000 418.400000
6762 13666 7359 1 109.50000 418.400000
7357 13666 7359 1 109.50000 418.400000
2654 13667 7360 1 109.50000 418.400000
2654 13667 7361 1 109.50000 418.400000
2654 13667 7362 1 109.50000 418.400000
7360 13667 7361 1 109.50000 418.400000
7360 13667 7362 1 109.50000 418.400000
7361 13667 7362 1 109.50000 418.400000
5940 13668 7363 1 109.50000 418.400000
5940 13668 7364 1 109.50000 418.400000
5940 13668 7365 1 109.50000 418.400000
7363 13668 7364 1 109.50000 418.400000
7363 13668 7365 1 109.50000 418.400000
7364 13668 7365 1 109.50000 418.400000
2366 13669 2704 1 109.50000 418.400000
2366 13669 6754 1 109.50000 418.400000
2366 13669 7366 1 109.50000 418.400000
2704 13669 6754 1 109.50000 418.400000
2704 13669 7366 1 109.50000 418.400000
6754 13669 7366 1 109.50000 418.400000
159 13670 3972 1 109.50000 418.400000
159 13670 4882 1 109.50000 418.400000
159 13670 7367 1 109.50000 418.400000
3972 13670 4882 1 109.50000 418.400000
3972 13670 7367 1 109.50000 418.400000
4882 13670 7367 1 109.50000 418.400000
744 13671 3519 1 109.50000 418.400000
744 13671 7369 1 109.50000 418.400000
744 13671 11373 1 109.50000 418.400000
3519 13671 7369 1 109.50000 418.400000
3519 13671 11373 1 109.50000 418.400000
7369 13671 11373 1 109.50000 418.400000
1150 13672 1151 1 109.50000 418.400000
1150 13672 7370 1 109.50000 418.400000
1150 13672 7372 1 109.50000 418.400000
1151 13672 7370 1 109.50000 418.400000
1151 13672 7372 1 109.50000 418.400000
7370 13672 7372 1 109.50000 418.400000
1199 13673 1201 1 109.50000 418.400000
1199 13673 7374 1 109.50000 418.400000
1199 13673 9508 1 109.50000 418.400000
1201 13673 7374 1 109.50000 418.400000
1201 13673 9508 1 109.50000 418.400000
7374 13673 9508 1 109.50000 418.400000
1641 13674 5273 1 109.50000 418.400000
1641 13674 5972 1 109.50000 418.400000
1641 13674 7247 1 109.50000 418.400000
5273 13674 5972 1 109.50000 418.400000
5273 13674 7247 1 109.50000 418.400000
5972 13674 7247 1 109.50000 418.400000
7377 13675 7378 1 109.50000 418.400000
7377 13675 7379 1 109.50000 418.400000
7377 13675 7380 1 109.50000 418.400000
7378 13675 7379 1 109.50000 418.400000
7378 13675 7380 1 109.50000 418.400000
7379 13675 7380 1 109.50000 418.400000
1579 13676 4321 1 109.50000 418.400000
1579 13676 7381 1 109.50000 418.400000
1579 13676 7382 1 109.50000 418.400000
4321 13676 7381 1 109.50000 418.400000
4321 13676 7382 1 109.50000 418.400000
7381 13676 7382 1 109.50000 418.400000
3131 13677 4985 1 109.50000 418.400000
3131 13677 6445 1 109.50000 418.400000
3131 13677 7383 1 109.50000 418.400000
4985 13677 6445 1 109.50000 418.400000
4985 13677 7383 1 109.50000 418.400000
6445 13677 7383 1 109.50000 418.400000
5586 13678 5912 1 109.50000 418.400000
5586 13678 6105 1 109.50000 418.400000
5586 13678 7091 1 109.50000 418.400000
5912 13678 6105 1 109.50000 418.400000
5912 13678 7091 1 109.50000 418.400000
6105 13678 7091 1 109.50000 418.400000
7384 13679 7385 1 109.50000 418.400000
7384 13679 7386 1 109.50000 418.400000
7384 13679 7387 1 109.50000 418.400000
7385 13679 7386 1 109.50000 418.400000
7385 13679 7387 1 109.50000 418.400000
7386 13679 7387 1 109.50000 418.400000
541 13680 3182 1 109.50000 418.400000
541 13680 7388 1 109.50000 418.400000
541 13680 7389 1 109.50000 418.400000
3182 13680 7388 1 109.50000 418.400000
3182 13680 7389 1 109.50000 418.400000
7388 13680 7389 1 109.50000 418.400000
6791 13681 7022 1 109.50000 418.400000
6791 13681 7390 1 109.50000 418.400000
6791 13681 7391 1 109.50000 418.400000
7022 13681 7390 1 109.50000 418.400000
7022 13681 7391 1 109.50000 418.400000
7390 13681 7391 1 109.50000 418.400000
773 13682 4579 1 109.50000 418.400000
773 13682 7392 1 109.50000 418.400000
773 13682 7393 1 109.50000 418.400000
4579 13682 7392 1 109.50000 418.400000
4579 13682 7393 1 109.50000 418.400000
7392 13682 7393 1 109.50000 418.400000
2432 13683 2433 1 109.50000 418.400000
2432 13683 11268 1 109.50000 418.400000
2432 13683 11370 1 109.50000 418.400000
2433 13683 11268 1 109.50000 418.400000
2433 13683 11370 1 109.50000 418.400000
11268 13683 11370 1 109.50000 418.400000
5994 13684 7394 1 109.50000 418.400000
5994 13684 7395 1 109.50000 418.400000
5994 13684 7396 1 109.50000 418.400000
7394 13684 7395 1 109.50000 418.400000
7394 13684 7396 1 109.50000 418.400000
7395 13684 7396 1 109.50000 418.400000
86 13685 88 1 109.50000 418.400000
86 13685 7397 1 109.50000 418.400000
86 13685 7398 1 109.50000 418.400000
88 13685 7397 1 109.50000 418.400000
88 13685 7398 1 109.50000 418.400000
7397 13685 7398 1 109.50000 418.400000
7399 13686 7400 1 109.50000 418.400000
7399 13686 11269 1 109.50000 418.400000
7399 13686 11270 1 109.50000 418.400000
7400 13686 11269 1 109.50000 418.400000
7400 13686 11270 1 109.50000 418.400000
11269 13686 11270 1 109.50000 418.400000
7401 13687 7402 1 109.50000 418.400000
7401 13687 7403 1 109.50000 418.400000
7401 13687 7404 1 109.50000 418.400000
7402 13687 7403 1 109.50000 418.400000
7402 13687 7404 1 109.50000 418.400000
7403 13687 7404 1 109.50000 418.400000
3720 13688 7405 1 109.50000 418.400000
3720 13688 7406 1 109.50000 418.400000
3720 13688 7407 1 109.50000 418.400000
7405 13688 7406 1 109.50000 418.400000
7405 13688 7407 1 109.50000 418.400000
7406 13688 7407 1 109.50000 418.400000
3954 13689 3956 1 109.50000 418.400000
3954 13689 7408 1 109.50000 418.400000
3954 13689 10864 1 109.50000 418.400000
3956 13689 7408 1 109.50000 418.400000
3956 13689 10864 1 109.50000 418.400000
7408 13689 10864 1 109.50000 418.400000
5465 13690 7411 1 109.50000 418.400000
5465 13690 7412 1 109.50000 418.400000
5465 13690 7413 1 109.50000 418.400000
7411 13690 7412 1 109.50000 418.400000
7411 13690 7413 1 109.50000 418.400000
7412 13690 7413 1 109.50000 418.400000
2701 13691 3230 1 109.50000 418.400000
2701 13691 3262 1 109.50000 418.400000
2701 13691 7414 1 109.50000 418.400000
3230 13691 3262 1 109.50000 418.400000
3230 13691 7414 1 109.50000 418.400000
3262 13691 7414 1 109.50000 418.400000
4181 13692 5817 1 109.50000 418.400000
4181 13692 7415 1 109.50000 418.400000
4181 13692 7416 1 109.50000 418.400000
5817 13692 7415 1 109.50000 418.400000
5817 13692 7416 1 109.50000 418.400000
7415 13692 7416 1 109.50000 418.400000
2714 13693 4679 1 109.50000 418.400000
2714 13693 7253 1 109.50000 418.400000
2714 13693 7417 1 109.50000 418.400000
4679 13693 7253 1 109.50000 418.400000
4679 13693 7417 1 109.50000 418.400000
7253 13693 7417 1 109.50000 418.400000
726 13694 7418 1 109.50000 418.400000
726 13694 7419 1 109.50000 418.400000
726 13694 7420 1 109.50000 418.400000
7418 13694 7419 1 109.50000 418.400000
7418 13694 7420 1 109.50000 418.400000
7419 13694 7420 1 109.50000 418.400000
5345 13695 6069 1 109.50000 418.400000
5345 13695 7421 1 109.50000 418.400000
5345 13695 7422 1 109.50000 418.400000
6069 13695 7421 1 109.50000 418.400000
6069 13695 7422 1 109.50000 418.400000
7421 13695 7422 1 109.50000 418.400000
3288 13696 6035 1 109.50000 418.400000
3288 13696 6553 1 109.50000 418.400000
3288 13696 7423 1 109.50000 418.400000
6035 13696 6553 1 109.50000 418.400000
6035 13696 7423 1 109.50000 418.400000
6553 13696 7423 1 109.50000 418.400000
7409 13697 7424 1 109.50000 418.400000
7409 13697 7425 1 109.50000 418.400000
7409 13697 7426 1 109.50000 418.400000
7424 13697 7425 1 109.50000 418.400000
7424 13697 7426 1 109.50000 418.400000
7425 13697 7426 1 109.50000 418.400000
6639 13698 7427 1 109.50000 418.400000
6639 13698 7428 1 109.50000 418.400000
6639 13698 7429 1 109.50000 418.400000
7427 13698 7428 1 109.50000 418.400000
7427 13698 7429 1 109.50000 418.400000
7428 13698 7429 1 109.50000 418.400000
7093 13699 7249 1 109.50000 418.400000
7093 13699 7430 1 109.50000 418.400000
7093 13699 7432 1 109.50000 418.400000
7249 13699 7430 1 109.50000 418.400000
7249 13699 7432 1 109.50000 418.400000
7430 13699 7432 1 109.50000 418.400000
1077 13700 4417 1 109.50000 418.400000
1077 13700 5296 1 109.50000 418.400000
1077 13700 7433 1 109.50000 418.400000
4417 13700 5296 1 109.50000 418.400000
4417 13700 7433 1 109.50000 418.400000
5296 13700 7433 1 109.50000 418.400000
4259 13701 7434 1 109.50000 418.400000
4259 13701 7435 1 109.50000 418.400000
4259 13701 7436 1 109.50000 418.400000
7434 13701 7435 1 109.50000 418.400000
7434 13701 7436 1 109.50000 418.400000
7435 13701 7436 1 109.50000 418.400000
1166 13702 7437 1 109.50000 418.400000
1166 13702 7438 1 109.50000 418.400000
1166 13702 7439 1 109.50000 418.400000
7437 13702 7438 1 109.50000 418.400000
7437 13702 7439 1 109.50000 418.400000
7438 13702 7439 1 109.50000 418.400000
4880 13703 7310 1 109.50000 418.400000
4880 13703 7440 1 109.50000 418.400000
4880 13703 7441 1 109.50000 418.400000
7310 13703 7440 1 109.50000 418.400000
7310 13703 7441 1 109.50000 418.400000
7440 13703 7441 1 109.50000 418.400000
4383 13704 6138 1 109.50000 418.400000
4383 13704 7181 1 109.50000 418.400000
4383 13704 7442 1 109.50000 418.400000
6138 13704 7181 1 109.50000 418.400000
6138 13704 7442 1 109.50000 418.400000
7181 13704 7442 1 109.50000 418.400000
4460 13705 7443 1 109.50000 418.400000
4460 13705 7444 1 109.50000 418.400000
4460 13705 7445 1 109.50000 418.400000
7443 13705 7444 1 109.50000 418.400000
7443 13705 7445 1 109.50000 418.400000
7444 13705 7445 1 109.50000 418.400000
4307 13706 6407 1 109.50000 418.400000
4307 13706 6765 1 109.50000 418.400000
4307 13706 6916 1 109.50000 418.400000
6407 13706 6765 1 109.50000 418.400000
6407 13706 6916 1 109.50000 418.400000
6765 13706 6916 1 109.50000 418.400000
4807 13707 6656 1 109.50000 418.400000
4807 13707 7447 1 109.50000 418.400000
4807 13707 7448 1 109.50000 418.400000
6656 13707 7447 1 109.50000 418.400000
6656 13707 7448 1 109.50000 418.400000
7447 13707 7448 1 109.50000 418.400000
4675 13708 6912 1 109.50000 418.400000
4675 13708 7449 1 109.50000 418.400000
4675 13708 7450 1 109.50000 418.400000
6912 13708 7449 1 109.50000 418.400000
6912 13708 7450 1 109.50000 418.400000
7449 13708 7450 1 109.50000 418.400000
6161 13709 6162 1 109.50000 418.400000
6161 13709 7452 1 109.50000 418.400000
6161 13709 7453 1 109.50000 418.400000
6162 13709 7452 1 109.50000 418.400000
6162 13709 7453 1 109.50000 418.400000
7452 13709 7453 1 109.50000 418.400000
6706 13710 7454 1 109.50000 418.400000
6706 13710 7455 1 109.50000 418.400000
6706 13710 7456 1 109.50000 418.400000
7454 13710 7455 1 109.50000 418.400000
7454 13710 7456 1 109.50000 418.400000
7455 13710 7456 1 109.50000 418.400000
13 13711 2589 1 109.50000 418.400000
13 13711 7457 1 109.50000 418.400000
13 13711 7458 1 109.50000 418.400000
2589 13711 7457 1 109.50000 418.400000
2589 13711 7458 1 109.50000 418.400000
7457 13711 7458 1 109.50000 418.400000
5055 13712 7459 1 109.50000 418.400000
5055 13712 7460 1 109.50000 418.400000
5055 13712 7461 1 109.50000 418.400000
7459 13712 7460 1 109.50000 418.400000
7459 13712 7461 1 109.50000 418.400000
7460 13712 7461 1 109.50000 418.400000
746 13713 1795 1 109.50000 418.400000
746 13713 7462 1 109.50000 418.400000
746 13713 7463 1 109.50000 418.400000
1795 13713 7462 1 109.50000 418.400000
1795 13713 7463 1 109.50000 418.400000
7462 13713 7463 1 109.50000 418.400000
2547 13714 7464 1 109.50000 418.400000
2547 13714 7465 1 109.50000 418.400000
2547 13714 7466 1 109.50000 418.400000
7464 13714 7465 1 109.50000 418.400000
7464 13714 7466 1 109.50000 418.400000
7465 13714 7466 1 109.50000 418.400000
6687 13715 6925 1 109.50000 418.400000
6687 13715 7467 1 109.50000 418.400000
6687 13715 7468 1 109.50000 418.400000
6925 13715 7467 1 109.50000 418.400000
6925 13715 7468 1 109.50000 418.400000
7467 13715 7468 1 109.50000 418.400000
4091 13716 5277 1 109.50000 418.400000
4091 13716 6410 1 109.50000 418.400000
4091 13716 7469 1 109.50000 418.400000
5277 13716 6410 1 109.50000 418.400000
5277 13716 7469 1 109.50000 418.400000
6410 13716 7469 1 109.50000 418.400000
2562 13717 4229 1 109.50000 418.400000
2562 13717 5403 1 109.50000 418.400000
2562 13717 7471 1 109.50000 418.400000
4229 13717 5403 1 109.50000 418.400000
4229 13717 7471 1 109.50000 418.400000
5403 13717 7471 1 109.50000 418.400000
1476 13718 4692 1 109.50000 418.400000
1476 13718 7472 1 109.50000 418.400000
1476 13718 11385 1 109.50000 418.400000
4692 13718 7472 1 109.50000 418.400000
4692 13718 11385 1 109.50000 418.400000
7472 13718 11385 1 109.50000 418.400000
2821 13719 7084 1 109.50000 418.400000
2821 13719 7271 1 109.50000 418.400000
2821 13719 7473 1 109.50000 418.400000
7084 13719 7271 1 109.50000 418.400000
7084 13719 7473 1 109.50000 418.400000
7271 13719 7473 1 109.50000 418.400000
7474 13720 7475 1 109.50000 418.400000
7474 13720 7476 1 109.50000 418.400000
7474 13720 7477 1 109.50000 418.400000
7475 13720 7476 1 109.50000 418.400000
7475 13720 7477 1 109.50000 418.400000
7476 13720 7477 1 109.50000 418.400000
5753 13721 6327 1 109.50000 418.400000
5753 13721 6431 1 109.50000 418.400000
5753 13721 7478 1 109.50000 418.400000
6327 13721 6431 1 109.50000 418.400000
6327 13721 7478 1 109.50000 418.400000
6431 13721 7478 1 109.50000 418.400000
407 13722 3707 1 109.50000 418.400000
407 13722 7479 1 109.50000 418.400000
407 13722 7480 1 109.50000 418.400000
3707 13722 7479 1 109.50000 418.400000
3707 13722 7480 1 109.50000 418.400000
7479 13722 7480 1 109.50000 418.400000
4336 13723 7481 1 109.50000 418.400000
4336 13723 7482 1 109.50000 418.400000
4336 13723 7483 1 109.50000 418.400000
7481 13723 7482 1 109.50000 418.400000
7481 13723 7483 1 109.50000 418.400000
7482 13723 7483 1 109.50000 418.400000
4959 13724 5571 1 109.50000 418.400000
4959 13724 6191 1 109.50000 418.400000
4959 13724 7484 1 109.50000 418.400000
5571 13724 6191 1 109.50000 418.400000
5571 13724 7484 1 109.50000 418.400000
6191 13724 7484 1 109.50000 418.400000
3340 13725 7487 1 109.50000 418.400000
3340 13725 7488 1 109.50000 418.400000
3340 13725 7489 1 109.50000 418.400000
7487 13725 7488 1 109.50000 418.400000
7487 13725 7489 1 109.50000 418.400000
7488 13725 7489 1 109.50000 418.400000
651 13726 7490 1 109.50000 418.400000
651 13726 7491 1 109.50000 418.400000
651 13726 7492 1 109.50000 418.400000
7490 13726 7491 1 109.50000 418.400000
7490 13726 7492 1 109.50000 418.400000
7491 13726 7492 1 109.50000 418.400000
2541 13727 4791 1 109.50000 418.400000
2541 13727 7493 1 109.50000 418.400000
2541 13727 7494 1 109.50000 418.400000
4791 13727 7493 1 109.50000 418.400000
4791 13727 7494 1 109.50000 418.400000
7493 13727 7494 1 109.50000 418.400000
6447 13728 7143 1 109.50000 418.400000
6447 13728 7495 1 109.50000 418.400000
6447 13728 7496 1 109.50000 418.400000
7143 13728 7495 1 109.50000 418.400000
7143 13728 7496 1 109.50000 418.400000
7495 13728 7496 1 109.50000 418.400000
7498 13729 7499 1 109.50000 418.400000
7498 13729 7500 1 109.50000 418.400000
7498 13729 7501 1 109.50000 418.400000
7499 13729 7500 1 109.50000 418.400000
7499 13729 7501 1 109.50000 418.400000
7500 13729 7501 1 109.50000 418.400000
891 13730 7502 1 109.50000 418.400000
891 13730 7503 1 109.50000 418.400000
891 13730 7504 1 109.50000 418.400000
7502 13730 7503 1 109.50000 418.400000
7502 13730 7504 1 109.50000 418.400000
7503 13730 7504 1 109.50000 418.400000
582 13731 5033 1 109.50000 418.400000
582 13731 7505 1 109.50000 418.400000
582 13731 7506 1 109.50000 418.400000
5033 13731 7505 1 109.50000 418.400000
5033 13731 7506 1 109.50000 418.400000
7505 13731 7506 1 109.50000 418.400000
3566 13732 4178 1 109.50000 418.400000
3566 13732 7508 1 109.50000 418.400000
3566 13732 7509 1 109.50000 418.400000
4178 13732 7508 1 109.50000 418.400000
4178 13732 7509 1 109.50000 418.400000
7508 13732 7509 1 109.50000 418.400000
611 13733 6450 1 109.50000 418.400000
611 13733 7511 1 109.50000 418.400000
611 13733 7512 1 109.50000 418.400000
6450 13733 7511 1 109.50000 418.400000
6450 13733 7512 1 109.50000 418.400000
7511 13733 7512 1 109.50000 418.400000
250 13734 253 1 109.50000 418.400000
250 13734 7515 1 109.50000 418.400000
250 13734 8014 1 109.50000 418.400000
253 13734 7515 1 109.50000 418.400000
253 13734 8014 1 109.50000 418.400000
7515 13734 8014 1 109.50000 418.400000
2255 13735 7436 1 109.50000 418.400000
2255 13735 7516 1 109.50000 418.400000
2255 13735 7517 1 109.50000 418.400000
7436 13735 7516 1 109.50000 418.400000
7436 13735 7517 1 109.50000 418.400000
7516 13735 7517 1 109.50000 418.400000
3270 13736 6433 1 109.50000 418.400000
3270 13736 7518 1 109.50000 418.400000
3270 13736 7519 1 109.50000 418.400000
6433 13736 7518 1 109.50000 418.400000
6433 13736 7519 1 109.50000 418.400000
7518 13736 7519 1 109.50000 418.400000
1395 13737 7520 1 109.50000 418.400000
1395 13737 7521 1 109.50000 418.400000
1395 13737 10248 1 109.50000 418.400000
7520 13737 7521 1 109.50000 418.400000
7520 13737 10248 1 109.50000 418.400000
7521 13737 10248 1 109.50000 418.400000
5638 13738 7523 1 109.50000 418.400000
5638 13738 7524 1 109.50000 418.400000
5638 13738 7525 1 109.50000 418.400000
7523 13738 7524 1 109.50000 418.400000
7523 13738 7525 1 109.50000 418.400000
7524 13738 7525 1 109.50000 418.400000
5875 13739 6971 1 109.50000 418.400000
5875 13739 7526 1 109.50000 418.400000
5875 13739 7527 1 109.50000 418.400000
6971 13739 7526 1 109.50000 418.400000
6971 13739 7527 1 109.50000 418.400000
7526 13739 7527 1 109.50000 418.400000
3395 13740 7530 1 109.50000 418.400000
3395 13740 7531 1 109.50000 418.400000
3395 13740 7532 1 109.50000 418.400000
7530 13740 7531 1 109.50000 418.400000
7530 13740 7532 1 109.50000 418.400000
7531 13740 7532 1 109.50000 418.400000
2501 13741 4382 1 109.50000 418.400000
2501 13741 7533 1 109.50000 418.400000
2501 13741 7534 1 109.50000 418.400000
4382 13741 7533 1 109.50000 418.400000
4382 13741 7534 1 109.50000 418.400000
7533 13741 7534 1 109.50000 418.400000
509 13742 3755 1 109.50000 418.400000
509 13742 5782 1 109.50000 418.400000
509 13742 7535 1 109.50000 418.400000
3755 13742 5782 1 109.50000 418.400000
3755 13742 7535 1 109.50000 418.400000
5782 13742 7535 1 109.50000 418.400000
4482 13743 6977 1 109.50000 418.400000
4482 13743 7536 1 109.50000 418.400000
4482 13743 7537 1 109.50000 418.400000
6977 13743 7536 1 109.50000 418.400000
6977 13743 7537 1 109.50000 418.400000
7536 13743 7537 1 109.50000 418.400000
2580 13744 4724 1 109.50000 418.400000
2580 13744 6989 1 109.50000 418.400000
2580 13744 7538 1 109.50000 418.400000
4724 13744 6989 1 109.50000 418.400000
4724 13744 7538 1 109.50000 418.400000
6989 13744 7538 1 109.50000 418.400000
1266 13745 7497 1 109.50000 418.400000
1266 13745 7539 1 109.50000 418.400000
1266 13745 7540 1 109.50000 418.400000
7497 13745 7539 1 109.50000 418.400000
7497 13745 7540 1 109.50000 418.400000
7539 13745 7540 1 109.50000 418.400000
6965 13746 7541 1 109.50000 418.400000
6965 13746 7542 1 109.50000 418.400000
6965 13746 7543 1 109.50000 418.400000
7541 13746 7542 1 109.50000 418.400000
7541 13746 7543 1 109.50000 418.400000
7542 13746 7543 1 109.50000 418.400000
4488 13747 5114 1 109.50000 418.400000
4488 13747 6041 1 109.50000 418.400000
4488 13747 7544 1 109.50000 418.400000
5114 13747 6041 1 109.50000 418.400000
5114 13747 7544 1 109.50000 418.400000
6041 13747 7544 1 109.50000 418.400000
1585 13748 1636 1 109.50000 418.400000
1585 13748 7545 1 109.50000 418.400000
1585 13748 7546 1 109.50000 418.400000
1636 13748 7545 1 109.50000 418.400000
1636 13748 7546 1 109.50000 418.400000
7545 13748 7546 1 109.50000 418.400000
2467 13749 3774 1 109.50000 418.400000
2467 13749 5031 1 109.50000 418.400000
2467 13749 6952 1 109.50000 418.400000
3774 13749 5031 1 109.50000 418.400000
3774 13749 6952 1 109.50000 418.400000
5031 13749 6952 1 109.50000 418.400000
1239 13750 5907 1 109.50000 418.400000
1239 13750 6844 1 109.50000 418.400000
1239 13750 7547 1 109.50000 418.400000
5907 13750 6844 1 109.50000 418.400000
5907 13750 7547 1 109.50000 418.400000
6844 13750 7547 1 109.50000 418.400000
3495 13751 7548 1 109.50000 418.400000
3495 13751 7549 1 109.50000 418.400000
3495 13751 7550 1 109.50000 418.400000
7548 13751 7549 1 109.50000 418.400000
7548 13751 7550 1 109.50000 418.400000
7549 13751 7550 1 109.50000 418.400000
1702 13752 5775 1 109.50000 418.400000
1702 13752 7551 1 109.50000 418.400000
1702 13752 7552 1 109.50000 418.400000
5775 13752 7551 1 109.50000 418.400000
5775 13752 7552 1 109.50000 418.400000
7551 13752 7552 1 109.50000 418.400000
380 13753 3849 1 109.50000 418.400000
380 13753 7553 1 109.50000 418.400000
380 13753 7554 1 109.50000 418.400000
3849 13753 7553 1 109.50000 418.400000
3849 13753 7554 1 109.50000 418.400000
7553 13753 7554 1 109.50000 418.400000
132 13754 3087 1 109.50000 418.400000
132 13754 3247 1 109.50000 418.400000
132 13754 7555 1 109.50000 418.400000
3087 13754 3247 1 109.50000 418.400000
3087 13754 7555 1 109.50000 418.400000
3247 13754 7555 1 109.50000 418.400000
7483 13755 7556 1 109.50000 418.400000
7483 13755 7557 1 109.50000 418.400000
7483 13755 7558 1 109.50000 418.400000
7556 13755 7557 1 109.50000 418.400000
7556 13755 7558 1 109.50000 418.400000
7557 13755 7558 1 109.50000 418.400000
7560 13756 7561 1 109.50000 418.400000
7560 13756 7562 1 109.50000 418.400000
7560 13756 7563 1 109.50000 418.400000
7561 13756 7562 1 109.50000 418.400000
7561 13756 7563 1 109.50000 418.400000
7562 13756 7563 1 109.50000 418.400000
2759 13757 4407 1 109.50000 418.400000
2759 13757 7564 1 109.50000 418.400000
2759 13757 7565 1 109.50000 418.400000
4407 13757 7564 1 109.50000 418.400000
4407 13757 7565 1 109.50000 418.400000
7564 13757 7565 1 109.50000 418.400000
4915 13758 6716 1 109.50000 418.400000
4915 13758 7403 1 109.50000 418.400000
4915 13758 7566 1 109.50000 418.400000
6716 13758 7403 1 109.50000 418.400000
6716 13758 7566 1 109.50000 418.400000
7403 13758 7566 1 109.50000 418.400000
7128 13759 7567 1 109.50000 418.400000
7128 13759 7569 1 109.50000 418.400000
7128 13759 8469 1 109.50000 418.400000
7567 13759 7569 1 109.50000 418.400000
7567 13759 8469 1 109.50000 418.400000
7569 13759 8469 1 109.50000 418.400000
1341 13760 4199 1 109.50000 418.400000
1341 13760 7571 1 109.50000 418.400000
1341 13760 7572 1 109.50000 418.400000
4199 13760 7571 1 109.50000 418.400000
4199 13760 7572 1 109.50000 418.400000
7571 13760 7572 1 109.50000 418.400000
3803 13761 7573 1 109.50000 418.400000
3803 13761 7574 1 109.50000 418.400000
3803 13761 7575 1 109.50000 418.400000
7573 13761 7574 1 109.50000 418.400000
7573 13761 7575 1 109.50000 418.400000
7574 13761 7575 1 109.50000 418.400000
2018 13762 3322 1 109.50000 418.400000
2018 13762 4153 1 109.50000 418.400000
2018 13762 5236 1 109.50000 418.400000
3322 13762 4153 1 109.50000 418.400000
3322 13762 5236 1 109.50000 418.400000
4153 13762 5236 1 109.50000 418.400000
872 13763 3839 1 109.50000 418.400000
872 13763 6761 1 109.50000 418.400000
872 13763 6999 1 109.50000 418.400000
3839 13763 6761 1 109.50000 418.400000
3839 13763 6999 1 109.50000 418.400000
6761 13763 6999 1 109.50000 418.400000
1672 13764 4225 1 109.50000 418.400000
1672 13764 7576 1 109.50000 418.400000
1672 13764 7577 1 109.50000 418.400000
4225 13764 7576 1 109.50000 418.400000
4225 13764 7577 1 109.50000 418.400000
7576 13764 7577 1 109.50000 418.400000
805 13765 1374 1 109.50000 418.400000
805 13765 5787 1 109.50000 418.400000
805 13765 7578 1 109.50000 418.400000
1374 13765 5787 1 109.50000 418.400000
1374 13765 7578 1 109.50000 418.400000
5787 13765 7578 1 109.50000 418.400000
5646 13766 7579 1 109.50000 418.400000
5646 13766 7580 1 109.50000 418.400000
5646 13766 7581 1 109.50000 418.400000
7579 13766 7580 1 109.50000 418.400000
7579 13766 7581 1 109.50000 418.400000
7580 13766 7581 1 109.50000 418.400000
1404 13767 5350 1 109.50000 418.400000
1404 13767 7135 1 109.50000 418.400000
1404 13767 7582 1 109.50000 418.400000
5350 13767 7135 1 109.50000 418.400000
5350 13767 7582 1 109.50000 418.400000
7135 13767 7582 1 109.50000 418.400000
2089 13768 3391 1 109.50000 418.400000
2089 13768 6668 1 109.50000 418.400000
2089 13768 7583 1 109.50000 418.400000
3391 13768 6668 1 109.50000 418.400000
3391 13768 7583 1 109.50000 418.400000
6668 13768 7583 1 109.50000 418.400000
2368 13769 5086 1 109.50000 418.400000
2368 13769 7584 1 109.50000 418.400000
2368 13769 7585 1 109.50000 418.400000
5086 13769 7584 1 109.50000 418.400000
5086 13769 7585 1 109.50000 418.400000
7584 13769 7585 1 109.50000 418.400000
1422 13770 7189 1 109.50000 418.400000
1422 13770 7586 1 109.50000 418.400000
1422 13770 7587 1 109.50000 418.400000
7189 13770 7586 1 109.50000 418.400000
7189 13770 7587 1 109.50000 418.400000
7586 13770 7587 1 109.50000 418.400000
7351 13771 7588 1 109.50000 418.400000
7351 13771 7589 1 109.50000 418.400000
7351 13771 7590 1 109.50000 418.400000
7588 13771 7589 1 109.50000 418.400000
7588 13771 7590 1 109.50000 418.400000
7589 13771 7590 1 109.50000 418.400000
4752 13772 7591 1 109.50000 418.400000
4752 13772 7592 1 109.50000 418.400000
4752 13772 7593 1 109.50000 418.400000
7591 13772 7592 1 109.50000 418.400000
7591 13772 7593 1 109.50000 418.400000
7592 13772 7593 1 109.50000 418.400000
5621 13773 7594 1 109.50000 418.400000
5621 13773 7595 1 109.50000 418.400000
5621 13773 7596 1 109.50000 418.400000
7594 13773 7595 1 109.50000 418.400000
7594 13773 7596 1 109.50000 418.400000
7595 13773 7596 1 109.50000 418.400000
952 13774 2136 1 109.50000 418.400000
952 13774 7597 1 109.50000 418.400000
952 13774 7598 1 109.50000 418.400000
2136 13774 7597 1 109.50000 418.400000
2136 13774 7598 1 109.50000 418.400000
7597 13774 7598 1 109.50000 418.400000
6033 13775 6651 1 109.50000 418.400000
6033 13775 7599 1 109.50000 418.400000
6033 13775 7600 1 109.50000 418.400000
6651 13775 7599 1 109.50000 418.400000
6651 13775 7600 1 109.50000 418.400000
7599 13775 7600 1 109.50000 418.400000
189 13776 5291 1 109.50000 418.400000
189 13776 7601 1 109.50000 418.400000
189 13776 7602 1 109.50000 418.400000
5291 13776 7601 1 109.50000 418.400000
5291 13776 7602 1 109.50000 418.400000
7601 13776 7602 1 109.50000 418.400000
6164 13777 7604 1 109.50000 418.400000
6164 13777 7605 1 109.50000 418.400000
6164 13777 7606 1 109.50000 418.400000
7604 13777 7605 1 109.50000 418.400000
7604 13777 7606 1 109.50000 418.400000
7605 13777 7606 1 109.50000 418.400000
2862 13778 3173 1 109.50000 418.400000
2862 13778 4751 1 109.50000 418.400000
2862 13778 7607 1 109.50000 418.400000
3173 13778 4751 1 109.50000 418.400000
3173 13778 7607 1 109.50000 418.400000
4751 13778 7607 1 109.50000 418.400000
2739 13779 2933 1 109.50000 418.400000
2739 13779 7608 1 109.50000 418.400000
2739 13779 7609 1 109.50000 418.400000
2933 13779 7608 1 109.50000 418.400000
2933 13779 7609 1 109.50000 418.400000
7608 13779 7609 1 109.50000 418.400000
4005 13780 5367 1 109.50000 418.400000
4005 13780 7601 1 109.50000 418.400000
4005 13780 7610 1 109.50000 418.400000
5367 13780 7601 1 109.50000 418.400000
5367 13780 7610 1 109.50000 418.400000
7601 13780 7610 1 109.50000 418.400000
2875 13781 3329 1 109.50000 418.400000
2875 13781 3804 1 109.50000 418.400000
2875 13781 7611 1 109.50000 418.400000
3329 13781 3804 1 109.50000 418.400000
3329 13781 7611 1 109.50000 418.400000
3804 13781 7611 1 109.50000 418.400000
7613 13782 7614 1 109.50000 418.400000
7613 13782 10414 1 109.50000 418.400000
7613 13782 10513 1 109.50000 418.400000
7614 13782 10414 1 109.50000 418.400000
7614 13782 10513 1 109.50000 418.400000
10414 13782 10513 1 109.50000 418.400000
2093 13783 7615 1 109.50000 418.400000
2093 13783 7616 1 109.50000 418.400000
2093 13783 7617 1 109.50000 418.400000
7615 13783 7616 1 109.50000 418.400000
7615 13783 7617 1 109.50000 418.400000
7616 13783 7617 1 109.50000 418.400000
2726 13784 3699 1 109.50000 418.400000
2726 13784 6755 1 109.50000 418.400000
2726 13784 6943 1 109.50000 418.400000
3699 13784 6755 1 109.50000 418.400000
3699 13784 6943 1 109.50000 418.400000
6755 13784 6943 1 109.50000 418.400000
1401 13785 7618 1 109.50000 418.400000
1401 13785 7619 1 109.50000 418.400000
1401 13785 7620 1 109.50000 418.400000
7618 13785 7619 1 109.50000 418.400000
7618 13785 7620 1 109.50000 418.400000
7619 13785 7620 1 109.50000 418.400000
3446 13786 7621 1 109.50000 418.400000
3446 13786 7622 1 109.50000 418.400000
3446 13786 7623 1 109.50000 418.400000
7621 13786 7622 1 109.50000 418.400000
7621 13786 7623 1 109.50000 418.400000
7622 13786 7623 1 109.50000 418.400000
159 13787 7629 1 109.50000 418.400000
159 13787 7630 1 109.50000 418.400000
159 13787 7631 1 109.50000 418.400000
7629 13787 7630 1 109.50000 418.400000
7629 13787 7631 1 109.50000 418.400000
7630 13787 7631 1 109.50000 418.400000
7632 13788 7633 1 109.50000 418.400000
7632 13788 7634 1 109.50000 418.400000
7632 13788 7635 1 109.50000 418.400000
7633 13788 7634 1 109.50000 418.400000
7633 13788 7635 1 109.50000 418.400000
7634 13788 7635 1 109.50000 418.400000
5644 13789 7637 1 109.50000 418.400000
5644 13789 7638 1 109.50000 418.400000
5644 13789 7639 1 109.50000 418.400000
7637 13789 7638 1 109.50000 418.400000
7637 13789 7639 1 109.50000 418.400000
7638 13789 7639 1 109.50000 418.400000
6338 13790 7398 1 109.50000 418.400000
6338 13790 7640 1 109.50000 418.400000
6338 13790 7641 1 109.50000 418.400000
7398 13790 7640 1 109.50000 418.400000
7398 13790 7641 1 109.50000 418.400000
7640 13790 7641 1 109.50000 418.400000
5656 13791 5679 1 109.50000 418.400000
5656 13791 7642 1 109.50000 418.400000
5656 13791 7643 1 109.50000 418.400000
5679 13791 7642 1 109.50000 418.400000
5679 13791 7643 1 109.50000 418.400000
7642 13791 7643 1 109.50000 418.400000
6194 13792 7645 1 109.50000 418.400000
6194 13792 7646 1 109.50000 418.400000
6194 13792 10872 1 109.50000 418.400000
7645 13792 7646 1 109.50000 418.400000
7645 13792 10872 1 109.50000 418.400000
7646 13792 10872 1 109.50000 418.400000
1499 13793 3858 1 109.50000 418.400000
1499 13793 7647 1 109.50000 418.400000
1499 13793 7648 1 109.50000 418.400000
3858 13793 7647 1 109.50000 418.400000
3858 13793 7648 1 109.50000 418.400000
7647 13793 7648 1 109.50000 418.400000
1368 13794 4762 1 109.50000 418.400000
1368 13794 7649 1 109.50000 418.400000
1368 13794 7650 1 109.50000 418.400000
4762 13794 7649 1 109.50000 418.400000
4762 13794 7650 1 109.50000 418.400000
7649 13794 7650 1 109.50000 418.400000
5242 13795 7651 1 109.50000 418.400000
5242 13795 7652 1 109.50000 418.400000
5242 13795 7653 1 109.50000 418.400000
7651 13795 7652 1 109.50000 418.400000
7651 13795 7653 1 109.50000 418.400000
7652 13795 7653 1 109.50000 418.400000
353 13796 2357 1 109.50000 418.400000
353 13796 2976 1 109.50000 418.400000
353 13796 7654 1 109.50000 418.400000
2357 13796 2976 1 109.50000 418.400000
2357 13796 7654 1 109.50000 418.400000
2976 13796 7654 1 109.50000 418.400000
141 13797 693 1 109.50000 418.400000
141 13797 5601 1 109.50000 418.400000
141 13797 7656 1 109.50000 418.400000
693 13797 5601 1 109.50000 418.400000
693 13797 7656 1 109.50000 418.400000
5601 13797 7656 1 109.50000 418.400000
167 13798 4231 1 109.50000 418.400000
167 13798 4658 1 109.50000 418.400000
167 13798 7657 1 109.50000 418.400000
4231 13798 4658 1 109.50000 418.400000
4231 13798 7657 1 109.50000 418.400000
4658 13798 7657 1 109.50000 418.400000
3311 13799 3533 1 109.50000 418.400000
3311 13799 7659 1 109.50000 418.400000
3311 13799 7660 1 109.50000 418.400000
3533 13799 7659 1 109.50000 418.400000
3533 13799 7660 1 109.50000 418.400000
7659 13799 7660 1 109.50000 418.400000
5261 13800 7664 1 109.50000 418.400000
5261 13800 11280 1 109.50000 418.400000
5261 13800 11328 1 109.50000 418.400000
7664 13800 11280 1 109.50000 418.400000
7664 13800 11328 1 109.50000 418.400000
11280 13800 11328 1 109.50000 418.400000
2662 13801 5047 1 109.50000 418.400000
2662 13801 5115 1 109.50000 418.400000
2662 13801 7212 1 109.50000 418.400000
5047 13801 5115 1 109.50000 418.400000
5047 13801 7212 1 109.50000 418.400000
5115 13801 7212 1 109.50000 418.400000
1812 13802 4012 1 109.50000 418.400000
1812 13802 5247 1 109.50000 418.400000
1812 13802 7667 1 109.50000 418.400000
4012 13802 5247 1 109.50000 418.400000
4012 13802 7667 1 109.50000 418.400000
5247 13802 7667 1 109.50000 418.400000
495 13803 497 1 109.50000 418.400000
495 13803 6622 1 109.50000 418.400000
495 13803 7668 1 109.50000 418.400000
497 13803 6622 1 109.50000 418.400000
497 13803 7668 1 109.50000 418.400000
6622 13803 7668 1 109.50000 418.400000
5962 13804 5976 1 109.50000 418.400000
5962 13804 7671 1 109.50000 418.400000
5962 13804 9979 1 109.50000 418.400000
5976 13804 7671 1 109.50000 418.400000
5976 13804 9979 1 109.50000 418.400000
7671 13804 9979 1 109.50000 418.400000
3766 13805 4059 1 109.50000 418.400000
3766 13805 5711 1 109.50000 418.400000
3766 13805 7673 1 109.50000 418.400000
4059 13805 5711 1 109.50000 418.400000
4059 13805 7673 1 109.50000 418.400000
5711 13805 7673 1 109.50000 418.400000
5028 13806 5029 1 109.50000 418.400000
5028 13806 6323 1 109.50000 418.400000
5028 13806 7674 1 109.50000 418.400000
5029 13806 6323 1 109.50000 418.400000
5029 13806 7674 1 109.50000 418.400000
6323 13806 7674 1 109.50000 418.400000
684 13807 7675 1 109.50000 418.400000
684 13807 7676 1 109.50000 418.400000
684 13807 7677 1 109.50000 418.400000
7675 13807 7676 1 109.50000 418.400000
7675 13807 7677 1 109.50000 418.400000
7676 13807 7677 1 109.50000 418.400000
697 13808 7678 1 109.50000 418.400000
697 13808 7679 1 109.50000 418.400000
697 13808 7680 1 109.50000 418.400000
7678 13808 7679 1 109.50000 418.400000
7678 13808 7680 1 109.50000 418.400000
7679 13808 7680 1 109.50000 418.400000
725 13809 5429 1 109.50000 418.400000
725 13809 7681 1 109.50000 418.400000
725 13809 7682 1 109.50000 418.400000
5429 13809 7681 1 109.50000 418.400000
5429 13809 7682 1 109.50000 418.400000
7681 13809 7682 1 109.50000 418.400000
1550 13810 7683 1 109.50000 418.400000
1550 13810 7684 1 109.50000 418.400000
1550 13810 7685 1 109.50000 418.400000
7683 13810 7684 1 109.50000 418.400000
7683 13810 7685 1 109.50000 418.400000
7684 13810 7685 1 109.50000 418.400000
3634 13811 5303 1 109.50000 418.400000
3634 13811 5798 1 109.50000 418.400000
3634 13811 6580 1 109.50000 418.400000
5303 13811 5798 1 109.50000 418.400000
5303 13811 6580 1 109.50000 418.400000
5798 13811 6580 1 109.50000 418.400000
2858 13812 2861 1 109.50000 418.400000
2858 13812 7689 1 109.50000 418.400000
2858 13812 7690 1 109.50000 418.400000
2861 13812 7689 1 109.50000 418.400000
2861 13812 7690 1 109.50000 418.400000
7689 13812 7690 1 109.50000 418.400000
6215 13813 6696 1 109.50000 418.400000
6215 13813 7691 1 109.50000 418.400000
6215 13813 7692 1 109.50000 418.400000
6696 13813 7691 1 109.50000 418.400000
6696 13813 7692 1 109.50000 418.400000
7691 13813 7692 1 109.50000 418.400000
7694 13814 7695 1 109.50000 418.400000
7694 13814 7696 1 109.50000 418.400000
7694 13814 8801 1 109.50000 418.400000
7695 13814 7696 1 109.50000 418.400000
7695 13814 8801 1 109.50000 418.400000
7696 13814 8801 1 109.50000 418.400000
2966 13815 4196 1 109.50000 418.400000
2966 13815 7697 1 109.50000 418.400000
2966 13815 7698 1 109.50000 418.400000
4196 13815 7697 1 109.50000 418.400000
4196 13815 7698 1 109.50000 418.400000
7697 13815 7698 1 109.50000 418.400000
3261 13816 3618 1 109.50000 418.400000
3261 13816 7700 1 109.50000 418.400000
3261 13816 7701 1 109.50000 418.400000
3618 13816 7700 1 109.50000 418.400000
3618 13816 7701 1 109.50000 418.400000
7700 13816 7701 1 109.50000 418.400000
5199 13817 7479 1 109.50000 418.400000
5199 13817 7702 1 109.50000 418.400000
5199 13817 7703 1 109.50000 418.400000
7479 13817 7702 1 109.50000 418.400000
7479 13817 7703 1 109.50000 418.400000
7702 13817 7703 1 109.50000 418.400000
3097 13818 7054 1 109.50000 418.400000
3097 13818 7704 1 109.50000 418.400000
3097 13818 7705 1 109.50000 418.400000
7054 13818 7704 1 109.50000 418.400000
7054 13818 7705 1 109.50000 418.400000
7704 13818 7705 1 109.50000 418.400000
5575 13819 7491 1 109.50000 418.400000
5575 13819 7706 1 109.50000 418.400000
5575 13819 7707 1 109.50000 418.400000
7491 13819 7706 1 109.50000 418.400000
7491 13819 7707 1 109.50000 418.400000
7706 13819 7707 1 109.50000 418.400000
6443 13820 7708 1 109.50000 418.400000
6443 13820 7709 1 109.50000 418.400000
6443 13820 7710 1 109.50000 418.400000
7708 13820 7709 1 109.50000 418.400000
7708 13820 7710 1 109.50000 418.400000
7709 13820 7710 1 109.50000 418.400000
2772 13821 2773 1 109.50000 418.400000
2772 13821 7713 1 109.50000 418.400000
2772 13821 7714 1 109.50000 418.400000
2773 13821 7713 1 109.50000 418.400000
2773 13821 7714 1 109.50000 418.400000
7713 13821 7714 1 109.50000 418.400000
3008 13822 7715 1 109.50000 418.400000
3008 13822 7716 1 109.50000 418.400000
3008 13822 7717 1 109.50000 418.400000
7715 13822 7716 1 109.50000 418.400000
7715 13822 7717 1 109.50000 418.400000
7716 13822 7717 1 109.50000 418.400000
5712 13823 7718 1 109.50000 418.400000
5712 13823 7719 1 109.50000 418.400000
5712 13823 7720 1 109.50000 418.400000
7718 13823 7719 1 109.50000 418.400000
7718 13823 7720 1 109.50000 418.400000
7719 13823 7720 1 109.50000 418.400000
1836 13824 3065 1 109.50000 418.400000
1836 13824 7256 1 109.50000 418.400000
1836 13824 7721 1 109.50000 418.400000
3065 13824 7256 1 109.50000 418.400000
3065 13824 7721 1 109.50000 418.400000
7256 13824 7721 1 109.50000 418.400000
7722 13825 7723 1 109.50000 418.400000
7722 13825 7724 1 109.50000 418.400000
7722 13825 7725 1 109.50000 418.400000
7723 13825 7724 1 109.50000 418.400000
7723 13825 7725 1 109.50000 418.400000
7724 13825 7725 1 109.50000 418.400000
4362 13826 7726 1 109.50000 418.400000
4362 13826 7727 1 109.50000 418.400000
4362 13826 7728 1 109.50000 418.400000
7726 13826 7727 1 109.50000 418.400000
7726 13826 7728 1 109.50000 418.400000
7727 13826 7728 1 109.50000 418.400000
6028 13827 6051 1 109.50000 418.400000
6028 13827 7729 1 109.50000 418.400000
6028 13827 7730 1 109.50000 418.400000
6051 13827 7729 1 109.50000 418.400000
6051 13827 7730 1 109.50000 418.400000
7729 13827 7730 1 109.50000 418.400000
1437 13828 4166 1 109.50000 418.400000
1437 13828 6888 1 109.50000 418.400000
1437 13828 7731 1 109.50000 418.400000
4166 13828 6888 1 109.50000 418.400000
4166 13828 7731 1 109.50000 418.400000
6888 13828 7731 1 109.50000 418.400000
931 13829 7735 1 109.50000 418.400000
931 13829 7736 1 109.50000 418.400000
931 13829 7737 1 109.50000 418.400000
7735 13829 7736 1 109.50000 418.400000
7735 13829 7737 1 109.50000 418.400000
7736 13829 7737 1 109.50000 418.400000
6963 13830 6964 1 109.50000 418.400000
6963 13830 7738 1 109.50000 418.400000
6963 13830 7740 1 109.50000 418.400000
6964 13830 7738 1 109.50000 418.400000
6964 13830 7740 1 109.50000 418.400000
7738 13830 7740 1 109.50000 418.400000
7741 13831 7742 1 109.50000 418.400000
7741 13831 7743 1 109.50000 418.400000
7741 13831 7744 1 109.50000 418.400000
7742 13831 7743 1 109.50000 418.400000
7742 13831 7744 1 109.50000 418.400000
7743 13831 7744 1 109.50000 418.400000
1546 13832 1628 1 109.50000 418.400000
1546 13832 5328 1 109.50000 418.400000
1546 13832 7745 1 109.50000 418.400000
1628 13832 5328 1 109.50000 418.400000
1628 13832 7745 1 109.50000 418.400000
5328 13832 7745 1 109.50000 418.400000
7746 13833 7747 1 109.50000 418.400000
7746 13833 7748 1 109.50000 418.400000
7746 13833 7749 1 109.50000 418.400000
7747 13833 7748 1 109.50000 418.400000
7747 13833 7749 1 109.50000 418.400000
7748 13833 7749 1 109.50000 418.400000
131 13834 4197 1 109.50000 418.400000
131 13834 4376 1 109.50000 418.400000
131 13834 5918 1 109.50000 418.400000
4197 13834 4376 1 109.50000 418.400000
4197 13834 5918 1 109.50000 418.400000
4376 13834 5918 1 109.50000 418.400000
3403 13835 6023 1 109.50000 418.400000
3403 13835 7750 1 109.50000 418.400000
3403 13835 7751 1 109.50000 418.400000
6023 13835 7750 1 109.50000 418.400000
6023 13835 7751 1 109.50000 418.400000
7750 13835 7751 1 109.50000 418.400000
1952 13836 7752 1 109.50000 418.400000
1952 13836 7753 1 109.50000 418.400000
1952 13836 7754 1 109.50000 418.400000
7752 13836 7753 1 109.50000 418.400000
7752 13836 7754 1 109.50000 418.400000
7753 13836 7754 1 109.50000 418.400000
3698 13837 7755 1 109.50000 418.400000
3698 13837 7756 1 109.50000 418.400000
3698 13837 7757 1 109.50000 418.400000
7755 13837 7756 1 109.50000 418.400000
7755 13837 7757 1 109.50000 418.400000
7756 13837 7757 1 109.50000 418.400000
1507 13838 4319 1 109.50000 418.400000
1507 13838 4320 1 109.50000 418.400000
1507 13838 7758 1 109.50000 418.400000
4319 13838 4320 1 109.50000 418.400000
4319 13838 7758 1 109.50000 418.400000
4320 13838 7758 1 109.50000 418.400000
5010 13839 5011 1 109.50000 418.400000
5010 13839 6789 1 109.50000 418.400000
5010 13839 7760 1 109.50000 418.400000
5011 13839 6789 1 109.50000 418.400000
5011 13839 7760 1 109.50000 418.400000
6789 13839 7760 1 109.50000 418.400000
657 13840 1619 1 109.50000 418.400000
657 13840 1620 1 109.50000 418.400000
657 13840 4846 1 109.50000 418.400000
1619 13840 1620 1 109.50000 418.400000
1619 13840 4846 1 109.50000 418.400000
1620 13840 4846 1 109.50000 418.400000
4933 13841 7762 1 109.50000 418.400000
4933 13841 7764 1 109.50000 418.400000
4933 13841 8150 1 109.50000 418.400000
7762 13841 7764 1 109.50000 418.400000
7762 13841 8150 1 109.50000 418.400000
7764 13841 8150 1 109.50000 418.400000
1609 13842 1612 1 109.50000 418.400000
1609 13842 7766 1 109.50000 418.400000
1609 13842 7767 1 109.50000 418.400000
1612 13842 7766 1 109.50000 418.400000
1612 13842 7767 1 109.50000 418.400000
7766 13842 7767 1 109.50000 418.400000
1570 13843 3969 1 109.50000 418.400000
1570 13843 7367 1 109.50000 418.400000
1570 13843 7768 1 109.50000 418.400000
3969 13843 7367 1 109.50000 418.400000
3969 13843 7768 1 109.50000 418.400000
7367 13843 7768 1 109.50000 418.400000
4592 13844 7771 1 109.50000 418.400000
4592 13844 7772 1 109.50000 418.400000
4592 13844 7773 1 109.50000 418.400000
7771 13844 7772 1 109.50000 418.400000
7771 13844 7773 1 109.50000 418.400000
7772 13844 7773 1 109.50000 418.400000
1066 13845 6957 1 109.50000 418.400000
1066 13845 7775 1 109.50000 418.400000
1066 13845 7776 1 109.50000 418.400000
6957 13845 7775 1 109.50000 418.400000
6957 13845 7776 1 109.50000 418.400000
7775 13845 7776 1 109.50000 418.400000
3953 13846 4260 1 109.50000 418.400000
3953 13846 5193 1 109.50000 418.400000
3953 13846 7777 1 109.50000 418.400000
4260 13846 5193 1 109.50000 418.400000
4260 13846 7777 1 109.50000 418.400000
5193 13846 7777 1 109.50000 418.400000
2267 13847 6592 1 109.50000 418.400000
2267 13847 7778 1 109.50000 418.400000
2267 13847 7779 1 109.50000 418.400000
6592 13847 7778 1 109.50000 418.400000
6592 13847 7779 1 109.50000 418.400000
7778 13847 7779 1 109.50000 418.400000
7326 13848 7328 1 109.50000 418.400000
7326 13848 7780 1 109.50000 418.400000
7326 13848 7782 1 109.50000 418.400000
7328 13848 7780 1 109.50000 418.400000
7328 13848 7782 1 109.50000 418.400000
7780 13848 7782 1 109.50000 418.400000
7763 13849 7783 1 109.50000 418.400000
7763 13849 7785 1 109.50000 418.400000
7763 13849 11176 1 109.50000 418.400000
7783 13849 7785 1 109.50000 418.400000
7783 13849 11176 1 109.50000 418.400000
7785 13849 11176 1 109.50000 418.400000
2243 13850 7169 1 109.50000 418.400000
2243 13850 7786 1 109.50000 418.400000
2243 13850 7787 1 109.50000 418.400000
7169 13850 7786 1 109.50000 418.400000
7169 13850 7787 1 109.50000 418.400000
7786 13850 7787 1 109.50000 418.400000
7492 13851 7788 1 109.50000 418.400000
7492 13851 7789 1 109.50000 418.400000
7492 13851 7790 1 109.50000 418.400000
7788 13851 7789 1 109.50000 418.400000
7788 13851 7790 1 109.50000 418.400000
7789 13851 7790 1 109.50000 418.400000
5518 13852 6024 1 109.50000 418.400000
5518 13852 6652 1 109.50000 418.400000
5518 13852 7791 1 109.50000 418.400000
6024 13852 6652 1 109.50000 418.400000
6024 13852 7791 1 109.50000 418.400000
6652 13852 7791 1 109.50000 418.400000
4797 13853 6583 1 109.50000 418.400000
4797 13853 7453 1 109.50000 418.400000
4797 13853 7792 1 109.50000 418.400000
6583 13853 7453 1 109.50000 418.400000
6583 13853 7792 1 109.50000 418.400000
7453 13853 7792 1 109.50000 418.400000
6986 13854 7793 1 109.50000 418.400000
6986 13854 7794 1 109.50000 418.400000
6986 13854 7795 1 109.50000 418.400000
7793 13854 7794 1 109.50000 418.400000
7793 13854 7795 1 109.50000 418.400000
7794 13854 7795 1 109.50000 418.400000
4926 13855 5934 1 109.50000 418.400000
4926 13855 7796 1 109.50000 418.400000
4926 13855 7797 1 109.50000 418.400000
5934 13855 7796 1 109.50000 418.400000
5934 13855 7797 1 109.50000 418.400000
7796 13855 7797 1 109.50000 418.400000
1590 13856 4048 1 109.50000 418.400000
1590 13856 6551 1 109.50000 418.400000
1590 13856 6552 1 109.50000 418.400000
4048 13856 6551 1 109.50000 418.400000
4048 13856 6552 1 109.50000 418.400000
6551 13856 6552 1 109.50000 418.400000
5881 13857 7186 1 109.50000 418.400000
5881 13857 7798 1 109.50000 418.400000
5881 13857 7799 1 109.50000 418.400000
7186 13857 7798 1 109.50000 418.400000
7186 13857 7799 1 109.50000 418.400000
7798 13857 7799 1 109.50000 418.400000
2315 13858 6753 1 109.50000 418.400000
2315 13858 7801 1 109.50000 418.400000
2315 13858 7802 1 109.50000 418.400000
6753 13858 7801 1 109.50000 418.400000
6753 13858 7802 1 109.50000 418.400000
7801 13858 7802 1 109.50000 418.400000
4883 13859 5535 1 109.50000 418.400000
4883 13859 7178 1 109.50000 418.400000
4883 13859 7803 1 109.50000 418.400000
5535 13859 7178 1 109.50000 418.400000
5535 13859 7803 1 109.50000 418.400000
7178 13859 7803 1 109.50000 418.400000
1268 13860 1335 1 109.50000 418.400000
1268 13860 4324 1 109.50000 418.400000
1268 13860 7804 1 109.50000 418.400000
1335 13860 4324 1 109.50000 418.400000
1335 13860 7804 1 109.50000 418.400000
4324 13860 7804 1 109.50000 418.400000
5121 13861 5486 1 109.50000 418.400000
5121 13861 5774 1 109.50000 418.400000
5121 13861 7807 1 109.50000 418.400000
5486 13861 5774 1 109.50000 418.400000
5486 13861 7807 1 109.50000 418.400000
5774 13861 7807 1 109.50000 418.400000
7808 13862 7809 1 109.50000 418.400000
7808 13862 7810 1 109.50000 418.400000
7808 13862 7811 1 109.50000 418.400000
7809 13862 7810 1 109.50000 418.400000
7809 13862 7811 1 109.50000 418.400000
7810 13862 7811 1 109.50000 418.400000
93 13863 4873 1 109.50000 418.400000
93 13863 7814 1 109.50000 418.400000
93 13863 7815 1 109.50000 418.400000
4873 13863 7814 1 109.50000 418.400000
4873 13863 7815 1 109.50000 418.400000
7814 13863 7815 1 109.50000 418.400000
899 13864 933 1 109.50000 418.400000
899 13864 7816 1 109.50000 418.400000
899 13864 7817 1 109.50000 418.400000
933 13864 7816 1 109.50000 418.400000
933 13864 7817 1 109.50000 418.400000
7816 13864 7817 1 109.50000 418.400000
3629 13865 3630 1 109.50000 418.400000
3629 13865 6010 1 109.50000 418.400000
3629 13865 6662 1 109.50000 418.400000
3630 13865 6010 1 109.50000 418.400000
3630 13865 6662 1 109.50000 418.400000
6010 13865 6662 1 109.50000 418.400000
3554 13866 5002 1 109.50000 418.400000
3554 13866 7821 1 109.50000 418.400000
3554 13866 7822 1 109.50000 418.400000
5002 13866 7821 1 109.50000 418.400000
5002 13866 7822 1 109.50000 418.400000
7821 13866 7822 1 109.50000 418.400000
7565 13867 7823 1 109.50000 418.400000
7565 13867 7824 1 109.50000 418.400000
7565 13867 7825 1 109.50000 418.400000
7823 13867 7824 1 109.50000 418.400000
7823 13867 7825 1 109.50000 418.400000
7824 13867 7825 1 109.50000 418.400000
1552 13868 4783 1 109.50000 418.400000
1552 13868 7103 1 109.50000 418.400000
1552 13868 7590 1 109.50000 418.400000
4783 13868 7103 1 109.50000 418.400000
4783 13868 7590 1 109.50000 418.400000
7103 13868 7590 1 109.50000 418.400000
5780 13869 6084 1 109.50000 418.400000
5780 13869 7826 1 109.50000 418.400000
5780 13869 7827 1 109.50000 418.400000
6084 13869 7826 1 109.50000 418.400000
6084 13869 7827 1 109.50000 418.400000
7826 13869 7827 1 109.50000 418.400000
1913 13870 5958 1 109.50000 418.400000
1913 13870 7828 1 109.50000 418.400000
1913 13870 7829 1 109.50000 418.400000
5958 13870 7828 1 109.50000 418.400000
5958 13870 7829 1 109.50000 418.400000
7828 13870 7829 1 109.50000 418.400000
3943 13871 7386 1 109.50000 418.400000
3943 13871 7830 1 109.50000 418.400000
3943 13871 7831 1 109.50000 418.400000
7386 13871 7830 1 109.50000 418.400000
7386 13871 7831 1 109.50000 418.400000
7830 13871 7831 1 109.50000 418.400000
187 13872 5144 1 109.50000 418.400000
187 13872 7650 1 109.50000 418.400000
187 13872 7833 1 109.50000 418.400000
5144 13872 7650 1 109.50000 418.400000
5144 13872 7833 1 109.50000 418.400000
7650 13872 7833 1 109.50000 418.400000
1663 13873 7834 1 109.50000 418.400000
1663 13873 7835 1 109.50000 418.400000
1663 13873 7836 1 109.50000 418.400000
7834 13873 7835 1 109.50000 418.400000
7834 13873 7836 1 109.50000 418.400000
7835 13873 7836 1 109.50000 418.400000
1276 13874 1995 1 109.50000 418.400000
1276 13874 7837 1 109.50000 418.400000
1276 13874 7838 1 109.50000 418.400000
1995 13874 7837 1 109.50000 418.400000
1995 13874 7838 1 109.50000 418.400000
7837 13874 7838 1 109.50000 418.400000
3817 13875 5383 1 109.50000 418.400000
3817 13875 7173 1 109.50000 418.400000
3817 13875 7839 1 109.50000 418.400000
5383 13875 7173 1 109.50000 418.400000
5383 13875 7839 1 109.50000 418.400000
7173 13875 7839 1 109.50000 418.400000
2224 13876 2377 1 109.50000 418.400000
2224 13876 7840 1 109.50000 418.400000
2224 13876 7841 1 109.50000 418.400000
2377 13876 7840 1 109.50000 418.400000
2377 13876 7841 1 109.50000 418.400000
7840 13876 7841 1 109.50000 418.400000
7843 13877 7844 1 109.50000 418.400000
7843 13877 7845 1 109.50000 418.400000
7843 13877 11253 1 109.50000 418.400000
7844 13877 7845 1 109.50000 418.400000
7844 13877 11253 1 109.50000 418.400000
7845 13877 11253 1 109.50000 418.400000
1117 13878 1510 1 109.50000 418.400000
1117 13878 7846 1 109.50000 418.400000
1117 13878 7847 1 109.50000 418.400000
1510 13878 7846 1 109.50000 418.400000
1510 13878 7847 1 109.50000 418.400000
7846 13878 7847 1 109.50000 418.400000
6537 13879 7847 1 109.50000 418.400000
6537 13879 7848 1 109.50000 418.400000
6537 13879 7849 1 109.50000 418.400000
7847 13879 7848 1 109.50000 418.400000
7847 13879 7849 1 109.50000 418.400000
7848 13879 7849 1 109.50000 418.400000
2304 13880 7850 1 109.50000 418.400000
2304 13880 7852 1 109.50000 418.400000
2304 13880 9974 1 109.50000 418.400000
7850 13880 7852 1 109.50000 418.400000
7850 13880 9974 1 109.50000 418.400000
7852 13880 9974 1 109.50000 418.400000
3962 13881 6311 1 109.50000 418.400000
3962 13881 6851 1 109.50000 418.400000
3962 13881 7853 1 109.50000 418.400000
6311 13881 6851 1 109.50000 418.400000
6311 13881 7853 1 109.50000 418.400000
6851 13881 7853 1 109.50000 418.400000
1874 13882 3984 1 109.50000 418.400000
1874 13882 7854 1 109.50000 418.400000
1874 13882 7855 1 109.50000 418.400000
3984 13882 7854 1 109.50000 418.400000
3984 13882 7855 1 109.50000 418.400000
7854 13882 7855 1 109.50000 418.400000
7162 13883 7856 1 109.50000 418.400000
7162 13883 7857 1 109.50000 418.400000
7162 13883 7858 1 109.50000 418.400000
7856 13883 7857 1 109.50000 418.400000
7856 13883 7858 1 109.50000 418.400000
7857 13883 7858 1 109.50000 418.400000
5416 13884 6547 1 109.50000 418.400000
5416 13884 7860 1 109.50000 418.400000
5416 13884 7861 1 109.50000 418.400000
6547 13884 7860 1 109.50000 418.400000
6547 13884 7861 1 109.50000 418.400000
7860 13884 7861 1 109.50000 418.400000
3191 13885 7862 1 109.50000 418.400000
3191 13885 7863 1 109.50000 418.400000
3191 13885 7864 1 109.50000 418.400000
7862 13885 7863 1 109.50000 418.400000
7862 13885 7864 1 109.50000 418.400000
7863 13885 7864 1 109.50000 418.400000
7865 13886 7866 1 109.50000 418.400000
7865 13886 7867 1 109.50000 418.400000
7865 13886 7868 1 109.50000 418.400000
7866 13886 7867 1 109.50000 418.400000
7866 13886 7868 1 109.50000 418.400000
7867 13886 7868 1 109.50000 418.400000
3344 13887 3561 1 109.50000 418.400000
3344 13887 5630 1 109.50000 418.400000
3344 13887 5871 1 109.50000 418.400000
3561 13887 5630 1 109.50000 418.400000
3561 13887 5871 1 109.50000 418.400000
5630 13887 5871 1 109.50000 418.400000
4483 13888 7201 1 109.50000 418.400000
4483 13888 7869 1 109.50000 418.400000
4483 13888 7870 1 109.50000 418.400000
7201 13888 7869 1 109.50000 418.400000
7201 13888 7870 1 109.50000 418.400000
7869 13888 7870 1 109.50000 418.400000
2576 13889 5052 1 109.50000 418.400000
2576 13889 7871 1 109.50000 418.400000
2576 13889 7872 1 109.50000 418.400000
5052 13889 7871 1 109.50000 418.400000
5052 13889 7872 1 109.50000 418.400000
7871 13889 7872 1 109.50000 418.400000
5604 13890 6277 1 109.50000 418.400000
5604 13890 7873 1 109.50000 418.400000
5604 13890 7874 1 109.50000 418.400000
6277 13890 7873 1 109.50000 418.400000
6277 13890 7874 1 109.50000 418.400000
7873 13890 7874 1 109.50000 418.400000
4213 13891 7875 1 109.50000 418.400000
4213 13891 7876 1 109.50000 418.400000
4213 13891 7877 1 109.50000 418.400000
7875 13891 7876 1 109.50000 418.400000
7875 13891 7877 1 109.50000 418.400000
7876 13891 7877 1 109.50000 418.400000
6121 13892 7878 1 109.50000 418.400000
6121 13892 7879 1 109.50000 418.400000
6121 13892 7880 1 109.50000 418.400000
7878 13892 7879 1 109.50000 418.400000
7878 13892 7880 1 109.50000 418.400000
7879 13892 7880 1 109.50000 418.400000
3938 13893 5903 1 109.50000 418.400000
3938 13893 7881 1 109.50000 418.400000
3938 13893 7882 1 109.50000 418.400000
5903 13893 7881 1 109.50000 418.400000
5903 13893 7882 1 109.50000 418.400000
7881 13893 7882 1 109.50000 418.400000
5210 13894 7883 1 109.50000 418.400000
5210 13894 7884 1 109.50000 418.400000
5210 13894 7885 1 109.50000 418.400000
7883 13894 7884 1 109.50000 418.400000
7883 13894 7885 1 109.50000 418.400000
7884 13894 7885 1 109.50000 418.400000
1765 13895 7886 1 109.50000 418.400000
1765 13895 7887 1 109.50000 418.400000
1765 13895 7888 1 109.50000 418.400000
7886 13895 7887 1 109.50000 418.400000
7886 13895 7888 1 109.50000 418.400000
7887 13895 7888 1 109.50000 418.400000
6003 13896 7889 1 109.50000 418.400000
6003 13896 7890 1 109.50000 418.400000
6003 13896 7891 1 109.50000 418.400000
7889 13896 7890 1 109.50000 418.400000
7889 13896 7891 1 109.50000 418.400000
7890 13896 7891 1 109.50000 418.400000
5335 13897 7892 1 109.50000 418.400000
5335 13897 7893 1 109.50000 418.400000
5335 13897 7894 1 109.50000 418.400000
7892 13897 7893 1 109.50000 418.400000
7892 13897 7894 1 109.50000 418.400000
7893 13897 7894 1 109.50000 418.400000
6750 13898 7895 1 109.50000 418.400000
6750 13898 7896 1 109.50000 418.400000
6750 13898 7897 1 109.50000 418.400000
7895 13898 7896 1 109.50000 418.400000
7895 13898 7897 1 109.50000 418.400000
7896 13898 7897 1 109.50000 418.400000
1185 13899 7898 1 109.50000 418.400000
1185 13899 7899 1 109.50000 418.400000
1185 13899 7900 1 109.50000 418.400000
7898 13899 7899 1 109.50000 418.400000
7898 13899 7900 1 109.50000 418.400000
7899 13899 7900 1 109.50000 418.400000
82 13900 2642 1 109.50000 418.400000
82 13900 5387 1 109.50000 418.400000
82 13900 7901 1 109.50000 418.400000
2642 13900 5387 1 109.50000 418.400000
2642 13900 7901 1 109.50000 418.400000
5387 13900 7901 1 109.50000 418.400000
16 13901 3166 1 109.50000 418.400000
16 13901 7902 1 109.50000 418.400000
16 13901 7903 1 109.50000 418.400000
3166 13901 7902 1 109.50000 418.400000
3166 13901 7903 1 109.50000 418.400000
7902 13901 7903 1 109.50000 418.400000
1604 13902 4907 1 109.50000 418.400000
1604 13902 7904 1 109.50000 418.400000
1604 13902 7905 1 109.50000 418.400000
4907 13902 7904 1 109.50000 418.400000
4907 13902 7905 1 109.50000 418.400000
7904 13902 7905 1 109.50000 418.400000
2332 13903 2906 1 109.50000 418.400000
2332 13903 7662 1 109.50000 418.400000
2332 13903 7844 1 109.50000 418.400000
2906 13903 7662 1 109.50000 418.400000
2906 13903 7844 1 109.50000 418.400000
7662 13903 7844 1 109.50000 418.400000
1457 13904 6788 1 109.50000 418.400000
1457 13904 7906 1 109.50000 418.400000
1457 13904 7907 1 109.50000 418.400000
6788 13904 7906 1 109.50000 418.400000
6788 13904 7907 1 109.50000 418.400000
7906 13904 7907 1 109.50000 418.400000
2299 13905 7136 1 109.50000 418.400000
2299 13905 7909 1 109.50000 418.400000
2299 13905 7910 1 109.50000 418.400000
7136 13905 7909 1 109.50000 418.400000
7136 13905 7910 1 109.50000 418.400000
7909 13905 7910 1 109.50000 418.400000
3260 13906 3510 1 109.50000 418.400000
3260 13906 7911 1 109.50000 418.400000
3260 13906 7912 1 109.50000 418.400000
3510 13906 7911 1 109.50000 418.400000
3510 13906 7912 1 109.50000 418.400000
7911 13906 7912 1 109.50000 418.400000
7855 13907 7913 1 109.50000 418.400000
7855 13907 7914 1 109.50000 418.400000
7855 13907 7915 1 109.50000 418.400000
7913 13907 7914 1 109.50000 418.400000
7913 13907 7915 1 109.50000 418.400000
7914 13907 7915 1 109.50000 418.400000
3098 13908 5528 1 109.50000 418.400000
3098 13908 7916 1 109.50000 418.400000
3098 13908 7917 1 109.50000 418.400000
5528 13908 7916 1 109.50000 418.400000
5528 13908 7917 1 109.50000 418.400000
7916 13908 7917 1 109.50000 418.400000
7426 13909 7918 1 109.50000 418.400000
7426 13909 7919 1 109.50000 418.400000
7426 13909 7920 1 109.50000 418.400000
7918 13909 7919 1 109.50000 418.400000
7918 13909 7920 1 109.50000 418.400000
7919 13909 7920 1 109.50000 418.400000
4280 13910 7547 1 109.50000 418.400000
4280 13910 7921 1 109.50000 418.400000
4280 13910 7922 1 109.50000 418.400000
7547 13910 7921 1 109.50000 418.400000
7547 13910 7922 1 109.50000 418.400000
7921 13910 7922 1 109.50000 418.400000
257 13911 7923 1 109.50000 418.400000
257 13911 7924 1 109.50000 418.400000
257 13911 7925 1 109.50000 418.400000
7923 13911 7924 1 109.50000 418.400000
7923 13911 7925 1 109.50000 418.400000
7924 13911 7925 1 109.50000 418.400000
1363 13912 2281 1 109.50000 418.400000
1363 13912 4705 1 109.50000 418.400000
1363 13912 7926 1 109.50000 418.400000
2281 13912 4705 1 109.50000 418.400000
2281 13912 7926 1 109.50000 418.400000
4705 13912 7926 1 109.50000 418.400000
2158 13913 4629 1 109.50000 418.400000
2158 13913 7927 1 109.50000 418.400000
2158 13913 7928 1 109.50000 418.400000
4629 13913 7927 1 109.50000 418.400000
4629 13913 7928 1 109.50000 418.400000
7927 13913 7928 1 109.50000 418.400000
625 13914 7929 1 109.50000 418.400000
625 13914 7930 1 109.50000 418.400000
625 13914 7931 1 109.50000 418.400000
7929 13914 7930 1 109.50000 418.400000
7929 13914 7931 1 109.50000 418.400000
7930 13914 7931 1 109.50000 418.400000
3298 13915 7934 1 109.50000 418.400000
3298 13915 7935 1 109.50000 418.400000
3298 13915 7936 1 109.50000 418.400000
7934 13915 7935 1 109.50000 418.400000
7934 13915 7936 1 109.50000 418.400000
7935 13915 7936 1 109.50000 418.400000
7894 13916 7937 1 109.50000 418.400000
7894 13916 7938 1 109.50000 418.400000
7894 13916 7939 1 109.50000 418.400000
7937 13916 7938 1 109.50000 418.400000
7937 13916 7939 1 109.50000 418.400000
7938 13916 7939 1 109.50000 418.400000
1194 13917 5094 1 109.50000 418.400000
1194 13917 7940 1 109.50000 418.400000
1194 13917 7941 1 109.50000 418.400000
5094 13917 7940 1 109.50000 418.400000
5094 13917 7941 1 109.50000 418.400000
7940 13917 7941 1 109.50000 418.400000
4634 13918 7516 1 109.50000 418.400000
4634 13918 7777 1 109.50000 418.400000
4634 13918 7942 1 109.50000 418.400000
7516 13918 7777 1 109.50000 418.400000
7516 13918 7942 1 109.50000 418.400000
7777 13918 7942 1 109.50000 418.400000
3511 13919 7239 1 109.50000 418.400000
3511 13919 7943 1 109.50000 418.400000
3511 13919 7944 1 109.50000 418.400000
7239 13919 7943 1 109.50000 418.400000
7239 13919 7944 1 109.50000 418.400000
7943 13919 7944 1 109.50000 418.400000
4708 13920 7946 1 109.50000 418.400000
4708 13920 7947 1 109.50000 418.400000
4708 13920 7948 1 109.50000 418.400000
7946 13920 7947 1 109.50000 418.400000
7946 13920 7948 1 109.50000 418.400000
7947 13920 7948 1 109.50000 418.400000
630 13921 2815 1 109.50000 418.400000
630 13921 2817 1 109.50000 418.400000
630 13921 7949 1 109.50000 418.400000
2815 13921 2817 1 109.50000 418.400000
2815 13921 7949 1 109.50000 418.400000
2817 13921 7949 1 109.50000 418.400000
5820 13922 6461 1 109.50000 418.400000
5820 13922 6611 1 109.50000 418.400000
5820 13922 7950 1 109.50000 418.400000
6461 13922 6611 1 109.50000 418.400000
6461 13922 7950 1 109.50000 418.400000
6611 13922 7950 1 109.50000 418.400000
6402 13923 7951 1 109.50000 418.400000
6402 13923 7952 1 109.50000 418.400000
6402 13923 7953 1 109.50000 418.400000
7951 13923 7952 1 109.50000 418.400000
7951 13923 7953 1 109.50000 418.400000
7952 13923 7953 1 109.50000 418.400000
3351 13924 5490 1 109.50000 418.400000
3351 13924 5593 1 109.50000 418.400000
3351 13924 7954 1 109.50000 418.400000
5490 13924 5593 1 109.50000 418.400000
5490 13924 7954 1 109.50000 418.400000
5593 13924 7954 1 109.50000 418.400000
2117 13925 2118 1 109.50000 418.400000
2117 13925 5311 1 109.50000 418.400000
2117 13925 7955 1 109.50000 418.400000
2118 13925 5311 1 109.50000 418.400000
2118 13925 7955 1 109.50000 418.400000
5311 13925 7955 1 109.50000 418.400000
5140 13926 7957 1 109.50000 418.400000
5140 13926 7958 1 109.50000 418.400000
5140 13926 7959 1 109.50000 418.400000
7957 13926 7958 1 109.50000 418.400000
7957 13926 7959 1 109.50000 418.400000
7958 13926 7959 1 109.50000 418.400000
2205 13927 4171 1 109.50000 418.400000
2205 13927 7960 1 109.50000 418.400000
2205 13927 7961 1 109.50000 418.400000
4171 13927 7960 1 109.50000 418.400000
4171 13927 7961 1 109.50000 418.400000
7960 13927 7961 1 109.50000 418.400000
71 13928 777 1 109.50000 418.400000
71 13928 778 1 109.50000 418.400000
71 13928 7962 1 109.50000 418.400000
777 13928 778 1 109.50000 418.400000
777 13928 7962 1 109.50000 418.400000
778 13928 7962 1 109.50000 418.400000
7963 13929 7964 1 109.50000 418.400000
7963 13929 7965 1 109.50000 418.400000
7963 13929 7966 1 109.50000 418.400000
7964 13929 7965 1 109.50000 418.400000
7964 13929 7966 1 109.50000 418.400000
7965 13929 7966 1 109.50000 418.400000
5369 13930 6800 1 109.50000 418.400000
5369 13930 7967 1 109.50000 418.400000
5369 13930 7968 1 109.50000 418.400000
6800 13930 7967 1 109.50000 418.400000
6800 13930 7968 1 109.50000 418.400000
7967 13930 7968 1 109.50000 418.400000
2713 13931 4084 1 109.50000 418.400000
2713 13931 4135 1 109.50000 418.400000
2713 13931 5120 1 109.50000 418.400000
4084 13931 4135 1 109.50000 418.400000
4084 13931 5120 1 109.50000 418.400000
4135 13931 5120 1 109.50000 418.400000
3165 13932 7969 1 109.50000 418.400000
3165 13932 7970 1 109.50000 418.400000
3165 13932 7971 1 109.50000 418.400000
7969 13932 7970 1 109.50000 418.400000
7969 13932 7971 1 109.50000 418.400000
7970 13932 7971 1 109.50000 418.400000
1673 13933 4295 1 109.50000 418.400000
1673 13933 7974 1 109.50000 418.400000
1673 13933 9837 1 109.50000 418.400000
4295 13933 7974 1 109.50000 418.400000
4295 13933 9837 1 109.50000 418.400000
7974 13933 9837 1 109.50000 418.400000
5023 13934 7208 1 109.50000 418.400000
5023 13934 7975 1 109.50000 418.400000
5023 13934 7976 1 109.50000 418.400000
7208 13934 7975 1 109.50000 418.400000
7208 13934 7976 1 109.50000 418.400000
7975 13934 7976 1 109.50000 418.400000
3202 13935 3666 1 109.50000 418.400000
3202 13935 7870 1 109.50000 418.400000
3202 13935 7977 1 109.50000 418.400000
3666 13935 7870 1 109.50000 418.400000
3666 13935 7977 1 109.50000 418.400000
7870 13935 7977 1 109.50000 418.400000
3595 13936 7978 1 109.50000 418.400000
3595 13936 7979 1 109.50000 418.400000
3595 13936 7980 1 109.50000 418.400000
7978 13936 7979 1 109.50000 418.400000
7978 13936 7980 1 109.50000 418.400000
7979 13936 7980 1 109.50000 418.400000
780 13937 1209 1 109.50000 418.400000
780 13937 6123 1 109.50000 418.400000
780 13937 7981 1 109.50000 418.400000
1209 13937 6123 1 109.50000 418.400000
1209 13937 7981 1 109.50000 418.400000
6123 13937 7981 1 109.50000 418.400000
297 13938 3682 1 109.50000 418.400000
297 13938 7982 1 109.50000 418.400000
297 13938 7983 1 109.50000 418.400000
3682 13938 7982 1 109.50000 418.400000
3682 13938 7983 1 109.50000 418.400000
7982 13938 7983 1 109.50000 418.400000
225 13939 7048 1 109.50000 418.400000
225 13939 7984 1 109.50000 418.400000
225 13939 7985 1 109.50000 418.400000
7048 13939 7984 1 109.50000 418.400000
7048 13939 7985 1 109.50000 418.400000
7984 13939 7985 1 109.50000 418.400000
6905 13940 7986 1 109.50000 418.400000
6905 13940 7987 1 109.50000 418.400000
6905 13940 7988 1 109.50000 418.400000
7986 13940 7987 1 109.50000 418.400000
7986 13940 7988 1 109.50000 418.400000
7987 13940 7988 1 109.50000 418.400000
1529 13941 7989 1 109.50000 418.400000
1529 13941 7990 1 109.50000 418.400000
1529 13941 7991 1 109.50000 418.400000
7989 13941 7990 1 109.50000 418.400000
7989 13941 7991 1 109.50000 418.400000
7990 13941 7991 1 109.50000 418.400000
27 13942 2877 1 109.50000 418.400000
27 13942 7992 1 109.50000 418.400000
27 13942 7993 1 109.50000 418.400000
2877 13942 7992 1 109.50000 418.400000
2877 13942 7993 1 109.50000 418.400000
7992 13942 7993 1 109.50000 418.400000
3655 13943 3657 1 109.50000 418.400000
3655 13943 5882 1 109.50000 418.400000
3655 13943 7994 1 109.50000 418.400000
3657 13943 5882 1 109.50000 418.400000
3657 13943 7994 1 109.50000 418.400000
5882 13943 7994 1 109.50000 418.400000
3252 13944 7995 1 109.50000 418.400000
3252 13944 7996 1 109.50000 418.400000
3252 13944 7997 1 109.50000 418.400000
7995 13944 7996 1 109.50000 418.400000
7995 13944 7997 1 109.50000 418.400000
7996 13944 7997 1 109.50000 418.400000
148 13945 7998 1 109.50000 418.400000
148 13945 7999 1 109.50000 418.400000
148 13945 8000 1 109.50000 418.400000
7998 13945 7999 1 109.50000 418.400000
7998 13945 8000 1 109.50000 418.400000
7999 13945 8000 1 109.50000 418.400000
1491 13946 4271 1 109.50000 418.400000
1491 13946 6243 1 109.50000 418.400000
1491 13946 7182 1 109.50000 418.400000
4271 13946 6243 1 109.50000 418.400000
4271 13946 7182 1 109.50000 418.400000
6243 13946 7182 1 109.50000 418.400000
4720 13947 8001 1 109.50000 418.400000
4720 13947 8002 1 109.50000 418.400000
4720 13947 8003 1 109.50000 418.400000
8001 13947 8002 1 109.50000 418.400000
8001 13947 8003 1 109.50000 418.400000
8002 13947 8003 1 109.50000 418.400000
8004 13948 8005 1 109.50000 418.400000
8004 13948 8006 1 109.50000 418.400000
8004 13948 8007 1 109.50000 418.400000
8005 13948 8006 1 109.50000 418.400000
8005 13948 8007 1 109.50000 418.400000
8006 13948 8007 1 109.50000 418.400000
1229 13949 7815 1 109.50000 418.400000
1229 13949 8008 1 109.50000 418.400000
1229 13949 8009 1 109.50000 418.400000
7815 13949 8008 1 109.50000 418.400000
7815 13949 8009 1 109.50000 418.400000
8008 13949 8009 1 109.50000 418.400000
3501 13950 5360 1 109.50000 418.400000
3501 13950 8010 1 109.50000 418.400000
3501 13950 8011 1 109.50000 418.400000
5360 13950 8010 1 109.50000 418.400000
5360 13950 8011 1 109.50000 418.400000
8010 13950 8011 1 109.50000 418.400000
4884 13951 5484 1 109.50000 418.400000
4884 13951 7514 1 109.50000 418.400000
4884 13951 8014 1 109.50000 418.400000
5484 13951 7514 1 109.50000 418.400000
5484 13951 8014 1 109.50000 418.400000
7514 13951 8014 1 109.50000 418.400000
8015 13952 8016 1 109.50000 418.400000
8015 13952 8017 1 109.50000 418.400000
8015 13952 8018 1 109.50000 418.400000
8016 13952 8017 1 109.50000 418.400000
8016 13952 8018 1 109.50000 418.400000
8017 13952 8018 1 109.50000 418.400000
8019 13953 8020 1 109.50000 418.400000
8019 13953 8021 1 109.50000 418.400000
8019 13953 8022 1 109.50000 418.400000
8020 13953 8021 1 109.50000 418.400000
8020 13953 8022 1 109.50000 418.400000
8021 13953 8022 1 109.50000 418.400000
2140 13954 3903 1 109.50000 418.400000
2140 13954 8023 1 109.50000 418.400000
2140 13954 8024 1 109.50000 418.400000
3903 13954 8023 1 109.50000 418.400000
3903 13954 8024 1 109.50000 418.400000
8023 13954 8024 1 109.50000 418.400000
2982 13955 8025 1 109.50000 418.400000
2982 13955 8026 1 109.50000 418.400000
2982 13955 8027 1 109.50000 418.400000
8025 13955 8026 1 109.50000 418.400000
8025 13955 8027 1 109.50000 418.400000
8026 13955 8027 1 109.50000 418.400000
3004 13956 5313 1 109.50000 418.400000
3004 13956 6683 1 109.50000 418.400000
3004 13956 8028 1 109.50000 418.400000
5313 13956 6683 1 109.50000 418.400000
5313 13956 8028 1 109.50000 418.400000
6683 13956 8028 1 109.50000 418.400000
8029 13957 8030 1 109.50000 418.400000
8029 13957 8031 1 109.50000 418.400000
8029 13957 8032 1 109.50000 418.400000
8030 13957 8031 1 109.50000 418.400000
8030 13957 8032 1 109.50000 418.400000
8031 13957 8032 1 109.50000 418.400000
6469 13958 8033 1 109.50000 418.400000
6469 13958 8034 1 109.50000 418.400000
6469 13958 8035 1 109.50000 418.400000
8033 13958 8034 1 109.50000 418.400000
8033 13958 8035 1 109.50000 418.400000
8034 13958 8035 1 109.50000 418.400000
4136 13959 8036 1 109.50000 418.400000
4136 13959 8037 1 109.50000 418.400000
4136 13959 8939 1 109.50000 418.400000
8036 13959 8037 1 109.50000 418.400000
8036 13959 8939 1 109.50000 418.400000
8037 13959 8939 1 109.50000 418.400000
4126 13960 6387 1 109.50000 418.400000
4126 13960 8038 1 109.50000 418.400000
4126 13960 8039 1 109.50000 418.400000
6387 13960 8038 1 109.50000 418.400000
6387 13960 8039 1 109.50000 418.400000
8038 13960 8039 1 109.50000 418.400000
5692 13961 7563 1 109.50000 418.400000
5692 13961 8040 1 109.50000 418.400000
5692 13961 8041 1 109.50000 418.400000
7563 13961 8040 1 109.50000 418.400000
7563 13961 8041 1 109.50000 418.400000
8040 13961 8041 1 109.50000 418.400000
2191 13962 2612 1 109.50000 418.400000
2191 13962 7422 1 109.50000 418.400000
2191 13962 8042 1 109.50000 418.400000
2612 13962 7422 1 109.50000 418.400000
2612 13962 8042 1 109.50000 418.400000
7422 13962 8042 1 109.50000 418.400000
2855 13963 4664 1 109.50000 418.400000
2855 13963 5930 1 109.50000 418.400000
2855 13963 8046 1 109.50000 418.400000
4664 13963 5930 1 109.50000 418.400000
4664 13963 8046 1 109.50000 418.400000
5930 13963 8046 1 109.50000 418.400000
5402 13964 6037 1 109.50000 418.400000
5402 13964 8047 1 109.50000 418.400000
5402 13964 8048 1 109.50000 418.400000
6037 13964 8047 1 109.50000 418.400000
6037 13964 8048 1 109.50000 418.400000
8047 13964 8048 1 109.50000 418.400000
926 13965 2449 1 109.50000 418.400000
926 13965 8049 1 109.50000 418.400000
926 13965 8050 1 109.50000 418.400000
2449 13965 8049 1 109.50000 418.400000
2449 13965 8050 1 109.50000 418.400000
8049 13965 8050 1 109.50000 418.400000
99 13966 7925 1 109.50000 418.400000
99 13966 8051 1 109.50000 418.400000
99 13966 8052 1 109.50000 418.400000
7925 13966 8051 1 109.50000 418.400000
7925 13966 8052 1 109.50000 418.400000
8051 13966 8052 1 109.50000 418.400000
32 13967 3401 1 109.50000 418.400000
32 13967 4064 1 109.50000 418.400000
32 13967 6276 1 109.50000 418.400000
3401 13967 4064 1 109.50000 418.400000
3401 13967 6276 1 109.50000 418.400000
4064 13967 6276 1 109.50000 418.400000
368 13968 3179 1 109.50000 418.400000
368 13968 8053 1 109.50000 418.400000
368 13968 8054 1 109.50000 418.400000
3179 13968 8053 1 109.50000 418.400000
3179 13968 8054 1 109.50000 418.400000
8053 13968 8054 1 109.50000 418.400000
6456 13969 8055 1 109.50000 418.400000
6456 13969 8056 1 109.50000 418.400000
6456 13969 8057 1 109.50000 418.400000
8055 13969 8056 1 109.50000 418.400000
8055 13969 8057 1 109.50000 418.400000
8056 13969 8057 1 109.50000 418.400000
4216 13970 8058 1 109.50000 418.400000
4216 13970 8059 1 109.50000 418.400000
4216 13970 11150 1 109.50000 418.400000
8058 13970 8059 1 109.50000 418.400000
8058 13970 11150 1 109.50000 418.400000
8059 13970 11150 1 109.50000 418.400000
2581 13971 7001 1 109.50000 418.400000
2581 13971 8060 1 109.50000 418.400000
2581 13971 8061 1 109.50000 418.400000
7001 13971 8060 1 109.50000 418.400000
7001 13971 8061 1 109.50000 418.400000
8060 13971 8061 1 109.50000 418.400000
4056 13972 5880 1 109.50000 418.400000
4056 13972 7188 1 109.50000 418.400000
4056 13972 8062 1 109.50000 418.400000
5880 13972 7188 1 109.50000 418.400000
5880 13972 8062 1 109.50000 418.400000
7188 13972 8062 1 109.50000 418.400000
4090 13973 4793 1 109.50000 418.400000
4090 13973 6139 1 109.50000 418.400000
4090 13973 8063 1 109.50000 418.400000
4793 13973 6139 1 109.50000 418.400000
4793 13973 8063 1 109.50000 418.400000
6139 13973 8063 1 109.50000 418.400000
3157 13974 8064 1 109.50000 418.400000
3157 13974 8065 1 109.50000 418.400000
3157 13974 8066 1 109.50000 418.400000
8064 13974 8065 1 109.50000 418.400000
8064 13974 8066 1 109.50000 418.400000
8065 13974 8066 1 109.50000 418.400000
2465 13975 5267 1 109.50000 418.400000
2465 13975 8068 1 109.50000 418.400000
2465 13975 8069 1 109.50000 418.400000
5267 13975 8068 1 109.50000 418.400000
5267 13975 8069 1 109.50000 418.400000
8068 13975 8069 1 109.50000 418.400000
58 13976 7841 1 109.50000 418.400000
58 13976 8070 1 109.50000 418.400000
58 13976 8071 1 109.50000 418.400000
7841 13976 8070 1 109.50000 418.400000
7841 13976 8071 1 109.50000 418.400000
8070 13976 8071 1 109.50000 418.400000
2183 13977 3483 1 109.50000 418.400000
2183 13977 3703 1 109.50000 418.400000
2183 13977 8072 1 109.50000 418.400000
3483 13977 3703 1 109.50000 418.400000
3483 13977 8072 1 109.50000 418.400000
3703 13977 8072 1 109.50000 418.400000
1136 13978 1524 1 109.50000 418.400000
1136 13978 4898 1 109.50000 418.400000
1136 13978 8073 1 109.50000 418.400000
1524 13978 4898 1 109.50000 418.400000
1524 13978 8073 1 109.50000 418.400000
4898 13978 8073 1 109.50000 418.400000
1600 13979 5149 1 109.50000 418.400000
1600 13979 7931 1 109.50000 418.400000
1600 13979 8074 1 109.50000 418.400000
5149 13979 7931 1 109.50000 418.400000
5149 13979 8074 1 109.50000 418.400000
7931 13979 8074 1 109.50000 418.400000
2815 13980 8075 1 109.50000 418.400000
2815 13980 8076 1 109.50000 418.400000
2815 13980 8077 1 109.50000 418.400000
8075 13980 8076 1 109.50000 418.400000
8075 13980 8077 1 109.50000 418.400000
8076 13980 8077 1 109.50000 418.400000
1078 13981 8078 1 109.50000 418.400000
1078 13981 8079 1 109.50000 418.400000
1078 13981 8080 1 109.50000 418.400000
8078 13981 8079 1 109.50000 418.400000
8078 13981 8080 1 109.50000 418.400000
8079 13981 8080 1 109.50000 418.400000
6702 13982 7254 1 109.50000 418.400000
6702 13982 8082 1 109.50000 418.400000
6702 13982 8083 1 109.50000 418.400000
7254 13982 8082 1 109.50000 418.400000
7254 13982 8083 1 109.50000 418.400000
8082 13982 8083 1 109.50000 418.400000
2091 13983 7885 1 109.50000 418.400000
2091 13983 8085 1 109.50000 418.400000
2091 13983 8086 1 109.50000 418.400000
7885 13983 8085 1 109.50000 418.400000
7885 13983 8086 1 109.50000 418.400000
8085 13983 8086 1 109.50000 418.400000
3064 13984 7452 1 109.50000 418.400000
3064 13984 8087 1 109.50000 418.400000
3064 13984 8088 1 109.50000 418.400000
7452 13984 8087 1 109.50000 418.400000
7452 13984 8088 1 109.50000 418.400000
8087 13984 8088 1 109.50000 418.400000
7597 13985 8094 1 109.50000 418.400000
7597 13985 8095 1 109.50000 418.400000
7597 13985 10370 1 109.50000 418.400000
8094 13985 8095 1 109.50000 418.400000
8094 13985 10370 1 109.50000 418.400000
8095 13985 10370 1 109.50000 418.400000
1783 13986 4250 1 109.50000 418.400000
1783 13986 8096 1 109.50000 418.400000
1783 13986 8097 1 109.50000 418.400000
4250 13986 8096 1 109.50000 418.400000
4250 13986 8097 1 109.50000 418.400000
8096 13986 8097 1 109.50000 418.400000
2235 13987 8098 1 109.50000 418.400000
2235 13987 8100 1 109.50000 418.400000
2235 13987 8101 1 109.50000 418.400000
8098 13987 8100 1 109.50000 418.400000
8098 13987 8101 1 109.50000 418.400000
8100 13987 8101 1 109.50000 418.400000
2665 13988 8102 1 109.50000 418.400000
2665 13988 8103 1 109.50000 418.400000
2665 13988 8104 1 109.50000 418.400000
8102 13988 8103 1 109.50000 418.400000
8102 13988 8104 1 109.50000 418.400000
8103 13988 8104 1 109.50000 418.400000
2303 13989 5330 1 109.50000 418.400000
2303 13989 7419 1 109.50000 418.400000
2303 13989 7549 1 109.50000 418.400000
5330 13989 7419 1 109.50000 418.400000
5330 13989 7549 1 109.50000 418.400000
7419 13989 7549 1 109.50000 418.400000
4599 13990 4841 1 109.50000 418.400000
4599 13990 6446 1 109.50000 418.400000
4599 13990 7533 1 109.50000 418.400000
4841 13990 6446 1 109.50000 418.400000
4841 13990 7533 1 109.50000 418.400000
6446 13990 7533 1 109.50000 418.400000
1961 13991 3531 1 109.50000 418.400000
1961 13991 5847 1 109.50000 418.400000
1961 13991 8107 1 109.50000 418.400000
3531 13991 5847 1 109.50000 418.400000
3531 13991 8107 1 109.50000 418.400000
5847 13991 8107 1 109.50000 418.400000
2072 13992 8108 1 109.50000 418.400000
2072 13992 8109 1 109.50000 418.400000
2072 13992 8110 1 109.50000 418.400000
8108 13992 8109 1 109.50000 418.400000
8108 13992 8110 1 109.50000 418.400000
8109 13992 8110 1 109.50000 418.400000
4760 13993 6591 1 109.50000 418.400000
4760 13993 8111 1 109.50000 418.400000
4760 13993 8112 1 109.50000 418.400000
6591 13993 8111 1 109.50000 418.400000
6591 13993 8112 1 109.50000 418.400000
8111 13993 8112 1 109.50000 418.400000
1692 13994 3240 1 109.50000 418.400000
1692 13994 8113 1 109.50000 418.400000
1692 13994 8114 1 109.50000 418.400000
3240 13994 8113 1 109.50000 418.400000
3240 13994 8114 1 109.50000 418.400000
8113 13994 8114 1 109.50000 418.400000
1618 13995 5664 1 109.50000 418.400000
1618 13995 6890 1 109.50000 418.400000
1618 13995 8116 1 109.50000 418.400000
5664 13995 6890 1 109.50000 418.400000
5664 13995 8116 1 109.50000 418.400000
6890 13995 8116 1 109.50000 418.400000
4559 13996 6166 1 109.50000 418.400000
4559 13996 8117 1 109.50000 418.400000
4559 13996 8118 1 109.50000 418.400000
6166 13996 8117 1 109.50000 418.400000
6166 13996 8118 1 109.50000 418.400000
8117 13996 8118 1 109.50000 418.400000
816 13997 8119 1 109.50000 418.400000
816 13997 8120 1 109.50000 418.400000
816 13997 8121 1 109.50000 418.400000
8119 13997 8120 1 109.50000 418.400000
8119 13997 8121 1 109.50000 418.400000
8120 13997 8121 1 109.50000 418.400000
3008 13998 3010 1 109.50000 418.400000
3008 13998 4640 1 109.50000 418.400000
3008 13998 8122 1 109.50000 418.400000
3010 13998 4640 1 109.50000 418.400000
3010 13998 8122 1 109.50000 418.400000
4640 13998 8122 1 109.50000 418.400000
5657 13999 7252 1 109.50000 418.400000
5657 13999 8123 1 109.50000 418.400000
5657 13999 8124 1 109.50000 418.400000
7252 13999 8123 1 109.50000 418.400000
7252 13999 8124 1 109.50000 418.400000
8123 13999 8124 1 109.50000 418.400000
475 14000 3947 1 109.50000 418.400000
475 14000 8125 1 109.50000 418.400000
475 14000 8126 1 109.50000 418.400000
3947 14000 8125 1 109.50000 418.400000
3947 14000 8126 1 109.50000 418.400000
8125 14000 8126 1 109.50000 418.400000
7389 14001 8127 1 109.50000 418.400000
7389 14001 8128 1 109.50000 418.400000
7389 14001 8129 1 109.50000 418.400000
8127 14001 8128 1 109.50000 418.400000
8127 14001 8129 1 109.50000 418.400000
8128 14001 8129 1 109.50000 418.400000
6808 14002 8114 1 109.50000 418.400000
6808 14002 8130 1 109.50000 418.400000
6808 14002 8131 1 109.50000 418.400000
8114 14002 8130 1 109.50000 418.400000
8114 14002 8131 1 109.50000 418.400000
8130 14002 8131 1 109.50000 418.400000
1246 14003 3235 1 109.50000 418.400000
1246 14003 8132 1 109.50000 418.400000
1246 14003 8133 1 109.50000 418.400000
3235 14003 8132 1 109.50000 418.400000
3235 14003 8133 1 109.50000 418.400000
8132 14003 8133 1 109.50000 418.400000
2484 14004 7859 1 109.50000 418.400000
2484 14004 8134 1 109.50000 418.400000
2484 14004 8135 1 109.50000 418.400000
7859 14004 8134 1 109.50000 418.400000
7859 14004 8135 1 109.50000 418.400000
8134 14004 8135 1 109.50000 418.400000
5950 14005 8136 1 109.50000 418.400000
5950 14005 8137 1 109.50000 418.400000
5950 14005 8138 1 109.50000 418.400000
8136 14005 8137 1 109.50000 418.400000
8136 14005 8138 1 109.50000 418.400000
8137 14005 8138 1 109.50000 418.400000
6599 14006 8139 1 109.50000 418.400000
6599 14006 8140 1 109.50000 418.400000
6599 14006 8141 1 109.50000 418.400000
8139 14006 8140 1 109.50000 418.400000
8139 14006 8141 1 109.50000 418.400000
8140 14006 8141 1 109.50000 418.400000
6056 14007 7529 1 109.50000 418.400000
6056 14007 8142 1 109.50000 418.400000
6056 14007 11277 1 109.50000 418.400000
7529 14007 8142 1 109.50000 418.400000
7529 14007 11277 1 109.50000 418.400000
8142 14007 11277 1 109.50000 418.400000
6922 14008 8143 1 109.50000 418.400000
6922 14008 8144 1 109.50000 418.400000
6922 14008 10063 1 109.50000 418.400000
8143 14008 8144 1 109.50000 418.400000
8143 14008 10063 1 109.50000 418.400000
8144 14008 10063 1 109.50000 418.400000
765 14009 5877 1 109.50000 418.400000
765 14009 6358 1 109.50000 418.400000
765 14009 8145 1 109.50000 418.400000
5877 14009 6358 1 109.50000 418.400000
5877 14009 8145 1 109.50000 418.400000
6358 14009 8145 1 109.50000 418.400000
2957 14010 3150 1 109.50000 418.400000
2957 14010 8146 1 109.50000 418.400000
2957 14010 8147 1 109.50000 418.400000
3150 14010 8146 1 109.50000 418.400000
3150 14010 8147 1 109.50000 418.400000
8146 14010 8147 1 109.50000 418.400000
467 14011 3028 1 109.50000 418.400000
467 14011 8149 1 109.50000 418.400000
467 14011 10793 1 109.50000 418.400000
3028 14011 8149 1 109.50000 418.400000
3028 14011 10793 1 109.50000 418.400000
8149 14011 10793 1 109.50000 418.400000
7364 14012 7762 1 109.50000 418.400000
7364 14012 7763 1 109.50000 418.400000
7364 14012 11276 1 109.50000 418.400000
7762 14012 7763 1 109.50000 418.400000
7762 14012 11276 1 109.50000 418.400000
7763 14012 11276 1 109.50000 418.400000
2848 14013 7213 1 109.50000 418.400000
2848 14013 8151 1 109.50000 418.400000
2848 14013 8152 1 109.50000 418.400000
7213 14013 8151 1 109.50000 418.400000
7213 14013 8152 1 109.50000 418.400000
8151 14013 8152 1 109.50000 418.400000
2177 14014 4737 1 109.50000 418.400000
2177 14014 8153 1 109.50000 418.400000
2177 14014 11337 1 109.50000 418.400000
4737 14014 8153 1 109.50000 418.400000
4737 14014 11337 1 109.50000 418.400000
8153 14014 11337 1 109.50000 418.400000
2441 14015 8154 1 109.50000 418.400000
2441 14015 8155 1 109.50000 418.400000
2441 14015 8157 1 109.50000 418.400000
8154 14015 8155 1 109.50000 418.400000
8154 14015 8157 1 109.50000 418.400000
8155 14015 8157 1 109.50000 418.400000
2691 14016 7559 1 109.50000 418.400000
2691 14016 8158 1 109.50000 418.400000
2691 14016 8159 1 109.50000 418.400000
7559 14016 8158 1 109.50000 418.400000
7559 14016 8159 1 109.50000 418.400000
8158 14016 8159 1 109.50000 418.400000
1463 14017 3263 1 109.50000 418.400000
1463 14017 8160 1 109.50000 418.400000
1463 14017 8162 1 109.50000 418.400000
3263 14017 8160 1 109.50000 418.400000
3263 14017 8162 1 109.50000 418.400000
8160 14017 8162 1 109.50000 418.400000
7321 14018 8052 1 109.50000 418.400000
7321 14018 8163 1 109.50000 418.400000
7321 14018 8164 1 109.50000 418.400000
8052 14018 8163 1 109.50000 418.400000
8052 14018 8164 1 109.50000 418.400000
8163 14018 8164 1 109.50000 418.400000
679 14019 1133 1 109.50000 418.400000
679 14019 1440 1 109.50000 418.400000
679 14019 8165 1 109.50000 418.400000
1133 14019 1440 1 109.50000 418.400000
1133 14019 8165 1 109.50000 418.400000
1440 14019 8165 1 109.50000 418.400000
3025 14020 5292 1 109.50000 418.400000
3025 14020 6318 1 109.50000 418.400000
3025 14020 8167 1 109.50000 418.400000
5292 14020 6318 1 109.50000 418.400000
5292 14020 8167 1 109.50000 418.400000
6318 14020 8167 1 109.50000 418.400000
1172 14021 5801 1 109.50000 418.400000
1172 14021 7307 1 109.50000 418.400000
1172 14021 8168 1 109.50000 418.400000
5801 14021 7307 1 109.50000 418.400000
5801 14021 8168 1 109.50000 418.400000
7307 14021 8168 1 109.50000 418.400000
327 14022 8169 1 109.50000 418.400000
327 14022 8170 1 109.50000 418.400000
327 14022 8171 1 109.50000 418.400000
8169 14022 8170 1 109.50000 418.400000
8169 14022 8171 1 109.50000 418.400000
8170 14022 8171 1 109.50000 418.400000
8175 14023 8176 1 109.50000 418.400000
8175 14023 8177 1 109.50000 418.400000
8175 14023 8178 1 109.50000 418.400000
8176 14023 8177 1 109.50000 418.400000
8176 14023 8178 1 109.50000 418.400000
8177 14023 8178 1 109.50000 418.400000
8179 14024 8180 1 109.50000 418.400000
8179 14024 8181 1 109.50000 418.400000
8179 14024 8182 1 109.50000 418.400000
8180 14024 8181 1 109.50000 418.400000
8180 14024 8182 1 109.50000 418.400000
8181 14024 8182 1 109.50000 418.400000
4743 14025 6159 1 109.50000 418.400000
4743 14025 8183 1 109.50000 418.400000
4743 14025 8184 1 109.50000 418.400000
6159 14025 8183 1 109.50000 418.400000
6159 14025 8184 1 109.50000 418.400000
8183 14025 8184 1 109.50000 418.400000
341 14026 3143 1 109.50000 418.400000
341 14026 3934 1 109.50000 418.400000
341 14026 8185 1 109.50000 418.400000
3143 14026 3934 1 109.50000 418.400000
3143 14026 8185 1 109.50000 418.400000
3934 14026 8185 1 109.50000 418.400000
7648 14027 8186 1 109.50000 418.400000
7648 14027 8187 1 109.50000 418.400000
7648 14027 8188 1 109.50000 418.400000
8186 14027 8187 1 109.50000 418.400000
8186 14027 8188 1 109.50000 418.400000
8187 14027 8188 1 109.50000 418.400000
2033 14028 8189 1 109.50000 418.400000
2033 14028 8190 1 109.50000 418.400000
2033 14028 8191 1 109.50000 418.400000
8189 14028 8190 1 109.50000 418.400000
8189 14028 8191 1 109.50000 418.400000
8190 14028 8191 1 109.50000 418.400000
2412 14029 8192 1 109.50000 418.400000
2412 14029 8193 1 109.50000 418.400000
2412 14029 8194 1 109.50000 418.400000
8192 14029 8193 1 109.50000 418.400000
8192 14029 8194 1 109.50000 418.400000
8193 14029 8194 1 109.50000 418.400000
7379 14030 8136 1 109.50000 418.400000
7379 14030 8195 1 109.50000 418.400000
7379 14030 8196 1 109.50000 418.400000
8136 14030 8195 1 109.50000 418.400000
8136 14030 8196 1 109.50000 418.400000
8195 14030 8196 1 109.50000 418.400000
5719 14031 6887 1 109.50000 418.400000
5719 14031 7028 1 109.50000 418.400000
5719 14031 8197 1 109.50000 418.400000
6887 14031 7028 1 109.50000 418.400000
6887 14031 8197 1 109.50000 418.400000
7028 14031 8197 1 109.50000 418.400000
6720 14032 8199 1 109.50000 418.400000
6720 14032 8200 1 109.50000 418.400000
6720 14032 8201 1 109.50000 418.400000
8199 14032 8200 1 109.50000 418.400000
8199 14032 8201 1 109.50000 418.400000
8200 14032 8201 1 109.50000 418.400000
2004 14033 5006 1 109.50000 418.400000
2004 14033 7500 1 109.50000 418.400000
2004 14033 8202 1 109.50000 418.400000
5006 14033 7500 1 109.50000 418.400000
5006 14033 8202 1 109.50000 418.400000
7500 14033 8202 1 109.50000 418.400000
4838 14034 7191 1 109.50000 418.400000
4838 14034 8203 1 109.50000 418.400000
4838 14034 8204 1 109.50000 418.400000
7191 14034 8203 1 109.50000 418.400000
7191 14034 8204 1 109.50000 418.400000
8203 14034 8204 1 109.50000 418.400000
3767 14035 8205 1 109.50000 418.400000
3767 14035 8206 1 109.50000 418.400000
3767 14035 8207 1 109.50000 418.400000
8205 14035 8206 1 109.50000 418.400000
8205 14035 8207 1 109.50000 418.400000
8206 14035 8207 1 109.50000 418.400000
4092 14036 6995 1 109.50000 418.400000
4092 14036 8208 1 109.50000 418.400000
4092 14036 8209 1 109.50000 418.400000
6995 14036 8208 1 109.50000 418.400000
6995 14036 8209 1 109.50000 418.400000
8208 14036 8209 1 109.50000 418.400000
2166 14037 4676 1 109.50000 418.400000
2166 14037 6497 1 109.50000 418.400000
2166 14037 8210 1 109.50000 418.400000
4676 14037 6497 1 109.50000 418.400000
4676 14037 8210 1 109.50000 418.400000
6497 14037 8210 1 109.50000 418.400000
1272 14038 3919 1 109.50000 418.400000
1272 14038 3920 1 109.50000 418.400000
1272 14038 5706 1 109.50000 418.400000
3919 14038 3920 1 109.50000 418.400000
3919 14038 5706 1 109.50000 418.400000
3920 14038 5706 1 109.50000 418.400000
4810 14039 4811 1 109.50000 418.400000
4810 14039 5151 1 109.50000 418.400000
4810 14039 8213 1 109.50000 418.400000
4811 14039 5151 1 109.50000 418.400000
4811 14039 8213 1 109.50000 418.400000
5151 14039 8213 1 109.50000 418.400000
6657 14040 7619 1 109.50000 418.400000
6657 14040 8214 1 109.50000 418.400000
6657 14040 8215 1 109.50000 418.400000
7619 14040 8214 1 109.50000 418.400000
7619 14040 8215 1 109.50000 418.400000
8214 14040 8215 1 109.50000 418.400000
4406 14041 6240 1 109.50000 418.400000
4406 14041 6882 1 109.50000 418.400000
4406 14041 8217 1 109.50000 418.400000
6240 14041 6882 1 109.50000 418.400000
6240 14041 8217 1 109.50000 418.400000
6882 14041 8217 1 109.50000 418.400000
2944 14042 5406 1 109.50000 418.400000
2944 14042 8218 1 109.50000 418.400000
2944 14042 8219 1 109.50000 418.400000
5406 14042 8218 1 109.50000 418.400000
5406 14042 8219 1 109.50000 418.400000
8218 14042 8219 1 109.50000 418.400000
282 14043 1533 1 109.50000 418.400000
282 14043 3821 1 109.50000 418.400000
282 14043 8220 1 109.50000 418.400000
1533 14043 3821 1 109.50000 418.400000
1533 14043 8220 1 109.50000 418.400000
3821 14043 8220 1 109.50000 418.400000
5717 14044 7910 1 109.50000 418.400000
5717 14044 8221 1 109.50000 418.400000
5717 14044 11175 1 109.50000 418.400000
7910 14044 8221 1 109.50000 418.400000
7910 14044 11175 1 109.50000 418.400000
8221 14044 11175 1 109.50000 418.400000
6093 14045 8223 1 109.50000 418.400000
6093 14045 8224 1 109.50000 418.400000
6093 14045 8225 1 109.50000 418.400000
8223 14045 8224 1 109.50000 418.400000
8223 14045 8225 1 109.50000 418.400000
8224 14045 8225 1 109.50000 418.400000
335 14046 8226 1 109.50000 418.400000
335 14046 8227 1 109.50000 418.400000
335 14046 8228 1 109.50000 418.400000
8226 14046 8227 1 109.50000 418.400000
8226 14046 8228 1 109.50000 418.400000
8227 14046 8228 1 109.50000 418.400000
2329 14047 4034 1 109.50000 418.400000
2329 14047 6481 1 109.50000 418.400000
2329 14047 7317 1 109.50000 418.400000
4034 14047 6481 1 109.50000 418.400000
4034 14047 7317 1 109.50000 418.400000
6481 14047 7317 1 109.50000 418.400000
8229 14048 8230 1 109.50000 418.400000
8229 14048 8231 1 109.50000 418.400000
8229 14048 8232 1 109.50000 418.400000
8230 14048 8231 1 109.50000 418.400000
8230 14048 8232 1 109.50000 418.400000
8231 14048 8232 1 109.50000 418.400000
558 14049 1991 1 109.50000 418.400000
558 14049 8233 1 109.50000 418.400000
558 14049 8234 1 109.50000 418.400000
1991 14049 8233 1 109.50000 418.400000
1991 14049 8234 1 109.50000 418.400000
8233 14049 8234 1 109.50000 418.400000
51 14050 2888 1 109.50000 418.400000
51 14050 8235 1 109.50000 418.400000
51 14050 8236 1 109.50000 418.400000
2888 14050 8235 1 109.50000 418.400000
2888 14050 8236 1 109.50000 418.400000
8235 14050 8236 1 109.50000 418.400000
6157 14051 6334 1 109.50000 418.400000
6157 14051 8238 1 109.50000 418.400000
6157 14051 8239 1 109.50000 418.400000
6334 14051 8238 1 109.50000 418.400000
6334 14051 8239 1 109.50000 418.400000
8238 14051 8239 1 109.50000 418.400000
5196 14052 8241 1 109.50000 418.400000
5196 14052 8242 1 109.50000 418.400000
5196 14052 8609 1 109.50000 418.400000
8241 14052 8242 1 109.50000 418.400000
8241 14052 8609 1 109.50000 418.400000
8242 14052 8609 1 109.50000 418.400000
5034 14053 8243 1 109.50000 418.400000
5034 14053 8244 1 109.50000 418.400000
5034 14053 8245 1 109.50000 418.400000
8243 14053 8244 1 109.50000 418.400000
8243 14053 8245 1 109.50000 418.400000
8244 14053 8245 1 109.50000 418.400000
5854 14054 7800 1 109.50000 418.400000
5854 14054 8247 1 109.50000 418.400000
5854 14054 11194 1 109.50000 418.400000
7800 14054 8247 1 109.50000 418.400000
7800 14054 11194 1 109.50000 418.400000
8247 14054 11194 1 109.50000 418.400000
3840 14055 7122 1 109.50000 418.400000
3840 14055 8199 1 109.50000 418.400000
3840 14055 8248 1 109.50000 418.400000
7122 14055 8199 1 109.50000 418.400000
7122 14055 8248 1 109.50000 418.400000
8199 14055 8248 1 109.50000 418.400000
8249 14056 8250 1 109.50000 418.400000
8249 14056 8251 1 109.50000 418.400000
8249 14056 8252 1 109.50000 418.400000
8250 14056 8251 1 109.50000 418.400000
8250 14056 8252 1 109.50000 418.400000
8251 14056 8252 1 109.50000 418.400000
5855 14057 8253 1 109.50000 418.400000
5855 14057 8254 1 109.50000 418.400000
5855 14057 8255 1 109.50000 418.400000
8253 14057 8254 1 109.50000 418.400000
8253 14057 8255 1 109.50000 418.400000
8254 14057 8255 1 109.50000 418.400000
4220 14058 8256 1 109.50000 418.400000
4220 14058 8257 1 109.50000 418.400000
4220 14058 8258 1 109.50000 418.400000
8256 14058 8257 1 109.50000 418.400000
8256 14058 8258 1 109.50000 418.400000
8257 14058 8258 1 109.50000 418.400000
1742 14059 4270 1 109.50000 418.400000
1742 14059 11292 1 109.50000 418.400000
1742 14059 11379 1 109.50000 418.400000
4270 14059 11292 1 109.50000 418.400000
4270 14059 11379 1 109.50000 418.400000
11292 14059 11379 1 109.50000 418.400000
3862 14060 6438 1 109.50000 418.400000
3862 14060 8260 1 109.50000 418.400000
3862 14060 8261 1 109.50000 418.400000
6438 14060 8260 1 109.50000 418.400000
6438 14060 8261 1 109.50000 418.400000
8260 14060 8261 1 109.50000 418.400000
2587 14061 5183 1 109.50000 418.400000
2587 14061 8262 1 109.50000 418.400000
2587 14061 11307 1 109.50000 418.400000
5183 14061 8262 1 109.50000 418.400000
5183 14061 11307 1 109.50000 418.400000
8262 14061 11307 1 109.50000 418.400000
1167 14062 3724 1 109.50000 418.400000
1167 14062 8263 1 109.50000 418.400000
1167 14062 8264 1 109.50000 418.400000
3724 14062 8263 1 109.50000 418.400000
3724 14062 8264 1 109.50000 418.400000
8263 14062 8264 1 109.50000 418.400000
5459 14063 8266 1 109.50000 418.400000
5459 14063 8267 1 109.50000 418.400000
5459 14063 8268 1 109.50000 418.400000
8266 14063 8267 1 109.50000 418.400000
8266 14063 8268 1 109.50000 418.400000
8267 14063 8268 1 109.50000 418.400000
102 14064 8269 1 109.50000 418.400000
102 14064 8270 1 109.50000 418.400000
102 14064 8271 1 109.50000 418.400000
8269 14064 8270 1 109.50000 418.400000
8269 14064 8271 1 109.50000 418.400000
8270 14064 8271 1 109.50000 418.400000
2819 14065 4755 1 109.50000 418.400000
2819 14065 8042 1 109.50000 418.400000
2819 14065 8272 1 109.50000 418.400000
4755 14065 8042 1 109.50000 418.400000
4755 14065 8272 1 109.50000 418.400000
8042 14065 8272 1 109.50000 418.400000
438 14066 1211 1 109.50000 418.400000
438 14066 5074 1 109.50000 418.400000
438 14066 8273 1 109.50000 418.400000
1211 14066 5074 1 109.50000 418.400000
1211 14066 8273 1 109.50000 418.400000
5074 14066 8273 1 109.50000 418.400000
1135 14067 2679 1 109.50000 418.400000
1135 14067 7370 1 109.50000 418.400000
1135 14067 8274 1 109.50000 418.400000
2679 14067 7370 1 109.50000 418.400000
2679 14067 8274 1 109.50000 418.400000
7370 14067 8274 1 109.50000 418.400000
2256 14068 5191 1 109.50000 418.400000
2256 14068 5726 1 109.50000 418.400000
2256 14068 8275 1 109.50000 418.400000
5191 14068 5726 1 109.50000 418.400000
5191 14068 8275 1 109.50000 418.400000
5726 14068 8275 1 109.50000 418.400000
4822 14069 6545 1 109.50000 418.400000
4822 14069 6546 1 109.50000 418.400000
4822 14069 8278 1 109.50000 418.400000
6545 14069 6546 1 109.50000 418.400000
6545 14069 8278 1 109.50000 418.400000
6546 14069 8278 1 109.50000 418.400000
694 14070 6361 1 109.50000 418.400000
694 14070 6363 1 109.50000 418.400000
694 14070 8280 1 109.50000 418.400000
6361 14070 6363 1 109.50000 418.400000
6361 14070 8280 1 109.50000 418.400000
6363 14070 8280 1 109.50000 418.400000
7722 14071 8281 1 109.50000 418.400000
7722 14071 8282 1 109.50000 418.400000
7722 14071 8998 1 109.50000 418.400000
8281 14071 8282 1 109.50000 418.400000
8281 14071 8998 1 109.50000 418.400000
8282 14071 8998 1 109.50000 418.400000
8284 14072 8285 1 109.50000 418.400000
8284 14072 8286 1 109.50000 418.400000
8284 14072 8287 1 109.50000 418.400000
8285 14072 8286 1 109.50000 418.400000
8285 14072 8287 1 109.50000 418.400000
8286 14072 8287 1 109.50000 418.400000
8290 14073 8291 1 109.50000 418.400000
8290 14073 9568 1 109.50000 418.400000
8290 14073 10944 1 109.50000 418.400000
8291 14073 9568 1 109.50000 418.400000
8291 14073 10944 1 109.50000 418.400000
9568 14073 10944 1 109.50000 418.400000
198 14074 6468 1 109.50000 418.400000
198 14074 8292 1 109.50000 418.400000
198 14074 8293 1 109.50000 418.400000
6468 14074 8292 1 109.50000 418.400000
6468 14074 8293 1 109.50000 418.400000
8292 14074 8293 1 109.50000 418.400000
6449 14075 6742 1 109.50000 418.400000
6449 14075 8295 1 109.50000 418.400000
6449 14075 8296 1 109.50000 418.400000
6742 14075 8295 1 109.50000 418.400000
6742 14075 8296 1 109.50000 418.400000
8295 14075 8296 1 109.50000 418.400000
2121 14076 3819 1 109.50000 418.400000
2121 14076 4294 1 109.50000 418.400000
2121 14076 8297 1 109.50000 418.400000
3819 14076 4294 1 109.50000 418.400000
3819 14076 8297 1 109.50000 418.400000
4294 14076 8297 1 109.50000 418.400000
1831 14077 8299 1 109.50000 418.400000
1831 14077 8300 1 109.50000 418.400000
1831 14077 8301 1 109.50000 418.400000
8299 14077 8300 1 109.50000 418.400000
8299 14077 8301 1 109.50000 418.400000
8300 14077 8301 1 109.50000 418.400000
4998 14078 8302 1 109.50000 418.400000
4998 14078 8303 1 109.50000 418.400000
4998 14078 8304 1 109.50000 418.400000
8302 14078 8303 1 109.50000 418.400000
8302 14078 8304 1 109.50000 418.400000
8303 14078 8304 1 109.50000 418.400000
3827 14079 4543 1 109.50000 418.400000
3827 14079 8305 1 109.50000 418.400000
3827 14079 8306 1 109.50000 418.400000
4543 14079 8305 1 109.50000 418.400000
4543 14079 8306 1 109.50000 418.400000
8305 14079 8306 1 109.50000 418.400000
2422 14080 4700 1 109.50000 418.400000
2422 14080 8307 1 109.50000 418.400000
2422 14080 8308 1 109.50000 418.400000
4700 14080 8307 1 109.50000 418.400000
4700 14080 8308 1 109.50000 418.400000
8307 14080 8308 1 109.50000 418.400000
1626 14081 8309 1 109.50000 418.400000
1626 14081 8310 1 109.50000 418.400000
1626 14081 8311 1 109.50000 418.400000
8309 14081 8310 1 109.50000 418.400000
8309 14081 8311 1 109.50000 418.400000
8310 14081 8311 1 109.50000 418.400000
5794 14082 5797 1 109.50000 418.400000
5794 14082 8312 1 109.50000 418.400000
5794 14082 8313 1 109.50000 418.400000
5797 14082 8312 1 109.50000 418.400000
5797 14082 8313 1 109.50000 418.400000
8312 14082 8313 1 109.50000 418.400000
8316 14083 8317 1 109.50000 418.400000
8316 14083 8318 1 109.50000 418.400000
8316 14083 8319 1 109.50000 418.400000
8317 14083 8318 1 109.50000 418.400000
8317 14083 8319 1 109.50000 418.400000
8318 14083 8319 1 109.50000 418.400000
922 14084 1193 1 109.50000 418.400000
922 14084 7809 1 109.50000 418.400000
922 14084 8320 1 109.50000 418.400000
1193 14084 7809 1 109.50000 418.400000
1193 14084 8320 1 109.50000 418.400000
7809 14084 8320 1 109.50000 418.400000
6217 14085 8029 1 109.50000 418.400000
6217 14085 8321 1 109.50000 418.400000
6217 14085 8322 1 109.50000 418.400000
8029 14085 8321 1 109.50000 418.400000
8029 14085 8322 1 109.50000 418.400000
8321 14085 8322 1 109.50000 418.400000
422 14086 5953 1 109.50000 418.400000
422 14086 8323 1 109.50000 418.400000
422 14086 8324 1 109.50000 418.400000
5953 14086 8323 1 109.50000 418.400000
5953 14086 8324 1 109.50000 418.400000
8323 14086 8324 1 109.50000 418.400000
3297 14087 8186 1 109.50000 418.400000
3297 14087 8325 1 109.50000 418.400000
3297 14087 8326 1 109.50000 418.400000
8186 14087 8325 1 109.50000 418.400000
8186 14087 8326 1 109.50000 418.400000
8325 14087 8326 1 109.50000 418.400000
8327 14088 8328 1 109.50000 418.400000
8327 14088 8329 1 109.50000 418.400000
8327 14088 8330 1 109.50000 418.400000
8328 14088 8329 1 109.50000 418.400000
8328 14088 8330 1 109.50000 418.400000
8329 14088 8330 1 109.50000 418.400000
5463 14089 8331 1 109.50000 418.400000
5463 14089 8332 1 109.50000 418.400000
5463 14089 11378 1 109.50000 418.400000
8331 14089 8332 1 109.50000 418.400000
8331 14089 11378 1 109.50000 418.400000
8332 14089 11378 1 109.50000 418.400000
3836 14090 8333 1 109.50000 418.400000
3836 14090 8334 1 109.50000 418.400000
3836 14090 8335 1 109.50000 418.400000
8333 14090 8334 1 109.50000 418.400000
8333 14090 8335 1 109.50000 418.400000
8334 14090 8335 1 109.50000 418.400000
8336 14091 8337 1 109.50000 418.400000
8336 14091 8338 1 109.50000 418.400000
8336 14091 8339 1 109.50000 418.400000
8337 14091 8338 1 109.50000 418.400000
8337 14091 8339 1 109.50000 418.400000
8338 14091 8339 1 109.50000 418.400000
2788 14092 3197 1 109.50000 418.400000
2788 14092 8340 1 109.50000 418.400000
2788 14092 8341 1 109.50000 418.400000
3197 14092 8340 1 109.50000 418.400000
3197 14092 8341 1 109.50000 418.400000
8340 14092 8341 1 109.50000 418.400000
5653 14093 5654 1 109.50000 418.400000
5653 14093 7451 1 109.50000 418.400000
5653 14093 8342 1 109.50000 418.400000
5654 14093 7451 1 109.50000 418.400000
5654 14093 8342 1 109.50000 418.400000
7451 14093 8342 1 109.50000 418.400000
2831 14094 8343 1 109.50000 418.400000
2831 14094 8344 1 109.50000 418.400000
2831 14094 8345 1 109.50000 418.400000
8343 14094 8344 1 109.50000 418.400000
8343 14094 8345 1 109.50000 418.400000
8344 14094 8345 1 109.50000 418.400000
6294 14095 6588 1 109.50000 418.400000
6294 14095 8346 1 109.50000 418.400000
6294 14095 8347 1 109.50000 418.400000
6588 14095 8346 1 109.50000 418.400000
6588 14095 8347 1 109.50000 418.400000
8346 14095 8347 1 109.50000 418.400000
539 14096 8348 1 109.50000 418.400000
539 14096 8349 1 109.50000 418.400000
539 14096 8350 1 109.50000 418.400000
8348 14096 8349 1 109.50000 418.400000
8348 14096 8350 1 109.50000 418.400000
8349 14096 8350 1 109.50000 418.400000
3427 14097 5046 1 109.50000 418.400000
3427 14097 6930 1 109.50000 418.400000
3427 14097 8104 1 109.50000 418.400000
5046 14097 6930 1 109.50000 418.400000
5046 14097 8104 1 109.50000 418.400000
6930 14097 8104 1 109.50000 418.400000
5827 14098 8351 1 109.50000 418.400000
5827 14098 8352 1 109.50000 418.400000
5827 14098 8353 1 109.50000 418.400000
8351 14098 8352 1 109.50000 418.400000
8351 14098 8353 1 109.50000 418.400000
8352 14098 8353 1 109.50000 418.400000
6490 14099 8355 1 109.50000 418.400000
6490 14099 8356 1 109.50000 418.400000
6490 14099 10119 1 109.50000 418.400000
8355 14099 8356 1 109.50000 418.400000
8355 14099 10119 1 109.50000 418.400000
8356 14099 10119 1 109.50000 418.400000
633 14100 6275 1 109.50000 418.400000
633 14100 8357 1 109.50000 418.400000
633 14100 8358 1 109.50000 418.400000
6275 14100 8357 1 109.50000 418.400000
6275 14100 8358 1 109.50000 418.400000
8357 14100 8358 1 109.50000 418.400000
6079 14101 8359 1 109.50000 418.400000
6079 14101 8360 1 109.50000 418.400000
6079 14101 8361 1 109.50000 418.400000
8359 14101 8360 1 109.50000 418.400000
8359 14101 8361 1 109.50000 418.400000
8360 14101 8361 1 109.50000 418.400000
6532 14102 7465 1 109.50000 418.400000
6532 14102 7948 1 109.50000 418.400000
6532 14102 8362 1 109.50000 418.400000
7465 14102 7948 1 109.50000 418.400000
7465 14102 8362 1 109.50000 418.400000
7948 14102 8362 1 109.50000 418.400000
5968 14103 8363 1 109.50000 418.400000
5968 14103 8364 1 109.50000 418.400000
5968 14103 8365 1 109.50000 418.400000
8363 14103 8364 1 109.50000 418.400000
8363 14103 8365 1 109.50000 418.400000
8364 14103 8365 1 109.50000 418.400000
3606 14104 3979 1 109.50000 418.400000
3606 14104 8366 1 109.50000 418.400000
3606 14104 8367 1 109.50000 418.400000
3979 14104 8366 1 109.50000 418.400000
3979 14104 8367 1 109.50000 418.400000
8366 14104 8367 1 109.50000 418.400000
8368 14105 8369 1 109.50000 418.400000
8368 14105 8370 1 109.50000 418.400000
8368 14105 11386 1 109.50000 418.400000
8369 14105 8370 1 109.50000 418.400000
8369 14105 11386 1 109.50000 418.400000
8370 14105 11386 1 109.50000 418.400000
4772 14106 6039 1 109.50000 418.400000
4772 14106 7687 1 109.50000 418.400000
4772 14106 8372 1 109.50000 418.400000
6039 14106 7687 1 109.50000 418.400000
6039 14106 8372 1 109.50000 418.400000
7687 14106 8372 1 109.50000 418.400000
1985 14107 5388 1 109.50000 418.400000
1985 14107 8374 1 109.50000 418.400000
1985 14107 8375 1 109.50000 418.400000
5388 14107 8374 1 109.50000 418.400000
5388 14107 8375 1 109.50000 418.400000
8374 14107 8375 1 109.50000 418.400000
359 14108 1686 1 109.50000 418.400000
359 14108 1687 1 109.50000 418.400000
359 14108 8377 1 109.50000 418.400000
1686 14108 1687 1 109.50000 418.400000
1686 14108 8377 1 109.50000 418.400000
1687 14108 8377 1 109.50000 418.400000
2521 14109 5750 1 109.50000 418.400000
2521 14109 5770 1 109.50000 418.400000
2521 14109 8378 1 109.50000 418.400000
5750 14109 5770 1 109.50000 418.400000
5750 14109 8378 1 109.50000 418.400000
5770 14109 8378 1 109.50000 418.400000
2797 14110 4346 1 109.50000 418.400000
2797 14110 8379 1 109.50000 418.400000
2797 14110 8380 1 109.50000 418.400000
4346 14110 8379 1 109.50000 418.400000
4346 14110 8380 1 109.50000 418.400000
8379 14110 8380 1 109.50000 418.400000
4817 14111 7219 1 109.50000 418.400000
4817 14111 8381 1 109.50000 418.400000
4817 14111 11315 1 109.50000 418.400000
7219 14111 8381 1 109.50000 418.400000
7219 14111 11315 1 109.50000 418.400000
8381 14111 11315 1 109.50000 418.400000
767 14112 1936 1 109.50000 418.400000
767 14112 8382 1 109.50000 418.400000
767 14112 8383 1 109.50000 418.400000
1936 14112 8382 1 109.50000 418.400000
1936 14112 8383 1 109.50000 418.400000
8382 14112 8383 1 109.50000 418.400000
256 14113 1827 1 109.50000 418.400000
256 14113 6834 1 109.50000 418.400000
256 14113 8384 1 109.50000 418.400000
1827 14113 6834 1 109.50000 418.400000
1827 14113 8384 1 109.50000 418.400000
6834 14113 8384 1 109.50000 418.400000
480 14114 5688 1 109.50000 418.400000
480 14114 8010 1 109.50000 418.400000
480 14114 8385 1 109.50000 418.400000
5688 14114 8010 1 109.50000 418.400000
5688 14114 8385 1 109.50000 418.400000
8010 14114 8385 1 109.50000 418.400000
3722 14115 8386 1 109.50000 418.400000
3722 14115 8387 1 109.50000 418.400000
3722 14115 8388 1 109.50000 418.400000
8386 14115 8387 1 109.50000 418.400000
8386 14115 8388 1 109.50000 418.400000
8387 14115 8388 1 109.50000 418.400000
1752 14116 5552 1 109.50000 418.400000
1752 14116 7255 1 109.50000 418.400000
1752 14116 8389 1 109.50000 418.400000
5552 14116 7255 1 109.50000 418.400000
5552 14116 8389 1 109.50000 418.400000
7255 14116 8389 1 109.50000 418.400000
6234 14117 8390 1 109.50000 418.400000
6234 14117 8391 1 109.50000 418.400000
6234 14117 10272 1 109.50000 418.400000
8390 14117 8391 1 109.50000 418.400000
8390 14117 10272 1 109.50000 418.400000
8391 14117 10272 1 109.50000 418.400000
3656 14118 5310 1 109.50000 418.400000
3656 14118 8392 1 109.50000 418.400000
3656 14118 8393 1 109.50000 418.400000
5310 14118 8392 1 109.50000 418.400000
5310 14118 8393 1 109.50000 418.400000
8392 14118 8393 1 109.50000 418.400000
4851 14119 8394 1 109.50000 418.400000
4851 14119 8395 1 109.50000 418.400000
4851 14119 8396 1 109.50000 418.400000
8394 14119 8395 1 109.50000 418.400000
8394 14119 8396 1 109.50000 418.400000
8395 14119 8396 1 109.50000 418.400000
1794 14120 6524 1 109.50000 418.400000
1794 14120 8397 1 109.50000 418.400000
1794 14120 8398 1 109.50000 418.400000
6524 14120 8397 1 109.50000 418.400000
6524 14120 8398 1 109.50000 418.400000
8397 14120 8398 1 109.50000 418.400000
53 14121 6471 1 109.50000 418.400000
53 14121 8399 1 109.50000 418.400000
53 14121 8400 1 109.50000 418.400000
6471 14121 8399 1 109.50000 418.400000
6471 14121 8400 1 109.50000 418.400000
8399 14121 8400 1 109.50000 418.400000
492 14122 5751 1 109.50000 418.400000
492 14122 8401 1 109.50000 418.400000
492 14122 8402 1 109.50000 418.400000
5751 14122 8401 1 109.50000 418.400000
5751 14122 8402 1 109.50000 418.400000
8401 14122 8402 1 109.50000 418.400000
229 14123 4242 1 109.50000 418.400000
229 14123 6526 1 109.50000 418.400000
229 14123 7153 1 109.50000 418.400000
4242 14123 6526 1 109.50000 418.400000
4242 14123 7153 1 109.50000 418.400000
6526 14123 7153 1 109.50000 418.400000
1556 14124 1892 1 109.50000 418.400000
1556 14124 1894 1 109.50000 418.400000
1556 14124 8403 1 109.50000 418.400000
1892 14124 1894 1 109.50000 418.400000
1892 14124 8403 1 109.50000 418.400000
1894 14124 8403 1 109.50000 418.400000
3335 14125 7913 1 109.50000 418.400000
3335 14125 8406 1 109.50000 418.400000
3335 14125 8407 1 109.50000 418.400000
7913 14125 8406 1 109.50000 418.400000
7913 14125 8407 1 109.50000 418.400000
8406 14125 8407 1 109.50000 418.400000
8408 14126 8409 1 109.50000 418.400000
8408 14126 8410 1 109.50000 418.400000
8408 14126 9452 1 109.50000 418.400000
8409 14126 8410 1 109.50000 418.400000
8409 14126 9452 1 109.50000 418.400000
8410 14126 9452 1 109.50000 418.400000
4315 14127 5789 1 109.50000 418.400000
4315 14127 8411 1 109.50000 418.400000
4315 14127 10028 1 109.50000 418.400000
5789 14127 8411 1 109.50000 418.400000
5789 14127 10028 1 109.50000 418.400000
8411 14127 10028 1 109.50000 418.400000
723 14128 724 1 109.50000 418.400000
723 14128 8413 1 109.50000 418.400000
723 14128 8414 1 109.50000 418.400000
724 14128 8413 1 109.50000 418.400000
724 14128 8414 1 109.50000 418.400000
8413 14128 8414 1 109.50000 418.400000
4512 14129 8415 1 109.50000 418.400000
4512 14129 8416 1 109.50000 418.400000
4512 14129 8417 1 109.50000 418.400000
8415 14129 8416 1 109.50000 418.400000
8415 14129 8417 1 109.50000 418.400000
8416 14129 8417 1 109.50000 418.400000
7428 14130 8418 1 109.50000 418.400000
7428 14130 8419 1 109.50000 418.400000
7428 14130 8420 1 109.50000 418.400000
8418 14130 8419 1 109.50000 418.400000
8418 14130 8420 1 109.50000 418.400000
8419 14130 8420 1 109.50000 418.400000
3384 14131 5223 1 109.50000 418.400000
3384 14131 5224 1 109.50000 418.400000
3384 14131 8422 1 109.50000 418.400000
5223 14131 5224 1 109.50000 418.400000
5223 14131 8422 1 109.50000 418.400000
5224 14131 8422 1 109.50000 418.400000
8367 14132 8423 1 109.50000 418.400000
8367 14132 8424 1 109.50000 418.400000
8367 14132 8425 1 109.50000 418.400000
8423 14132 8424 1 109.50000 418.400000
8423 14132 8425 1 109.50000 418.400000
8424 14132 8425 1 109.50000 418.400000
1018 14133 7611 1 109.50000 418.400000
1018 14133 7812 1 109.50000 418.400000
1018 14133 8427 1 109.50000 418.400000
7611 14133 7812 1 109.50000 418.400000
7611 14133 8427 1 109.50000 418.400000
7812 14133 8427 1 109.50000 418.400000
3883 14134 5131 1 109.50000 418.400000
3883 14134 8430 1 109.50000 418.400000
3883 14134 8431 1 109.50000 418.400000
5131 14134 8430 1 109.50000 418.400000
5131 14134 8431 1 109.50000 418.400000
8430 14134 8431 1 109.50000 418.400000
7569 14135 7968 1 109.50000 418.400000
7569 14135 8432 1 109.50000 418.400000
7569 14135 8433 1 109.50000 418.400000
7968 14135 8432 1 109.50000 418.400000
7968 14135 8433 1 109.50000 418.400000
8432 14135 8433 1 109.50000 418.400000
1151 14136 7600 1 109.50000 418.400000
1151 14136 8434 1 109.50000 418.400000
1151 14136 8435 1 109.50000 418.400000
7600 14136 8434 1 109.50000 418.400000
7600 14136 8435 1 109.50000 418.400000
8434 14136 8435 1 109.50000 418.400000
887 14137 8369 1 109.50000 418.400000
887 14137 8438 1 109.50000 418.400000
887 14137 8439 1 109.50000 418.400000
8369 14137 8438 1 109.50000 418.400000
8369 14137 8439 1 109.50000 418.400000
8438 14137 8439 1 109.50000 418.400000
3941 14138 4544 1 109.50000 418.400000
3941 14138 8440 1 109.50000 418.400000
3941 14138 8441 1 109.50000 418.400000
4544 14138 8440 1 109.50000 418.400000
4544 14138 8441 1 109.50000 418.400000
8440 14138 8441 1 109.50000 418.400000
4828 14139 5309 1 109.50000 418.400000
4828 14139 7694 1 109.50000 418.400000
4828 14139 8442 1 109.50000 418.400000
5309 14139 7694 1 109.50000 418.400000
5309 14139 8442 1 109.50000 418.400000
7694 14139 8442 1 109.50000 418.400000
809 14140 2792 1 109.50000 418.400000
809 14140 8151 1 109.50000 418.400000
809 14140 8443 1 109.50000 418.400000
2792 14140 8151 1 109.50000 418.400000
2792 14140 8443 1 109.50000 418.400000
8151 14140 8443 1 109.50000 418.400000
1737 14141 5982 1 109.50000 418.400000
1737 14141 8444 1 109.50000 418.400000
1737 14141 10296 1 109.50000 418.400000
5982 14141 8444 1 109.50000 418.400000
5982 14141 10296 1 109.50000 418.400000
8444 14141 10296 1 109.50000 418.400000
2120 14142 8445 1 109.50000 418.400000
2120 14142 8446 1 109.50000 418.400000
2120 14142 8447 1 109.50000 418.400000
8445 14142 8446 1 109.50000 418.400000
8445 14142 8447 1 109.50000 418.400000
8446 14142 8447 1 109.50000 418.400000
1255 14143 4993 1 109.50000 418.400000
1255 14143 8448 1 109.50000 418.400000
1255 14143 8449 1 109.50000 418.400000
4993 14143 8448 1 109.50000 418.400000
4993 14143 8449 1 109.50000 418.400000
8448 14143 8449 1 109.50000 418.400000
8451 14144 8452 1 109.50000 418.400000
8451 14144 8453 1 109.50000 418.400000
8451 14144 10489 1 109.50000 418.400000
8452 14144 8453 1 109.50000 418.400000
8452 14144 10489 1 109.50000 418.400000
8453 14144 10489 1 109.50000 418.400000
40 14145 3667 1 109.50000 418.400000
40 14145 5549 1 109.50000 418.400000
40 14145 8455 1 109.50000 418.400000
3667 14145 5549 1 109.50000 418.400000
3667 14145 8455 1 109.50000 418.400000
5549 14145 8455 1 109.50000 418.400000
2182 14146 5336 1 109.50000 418.400000
2182 14146 5337 1 109.50000 418.400000
2182 14146 8193 1 109.50000 418.400000
5336 14146 5337 1 109.50000 418.400000
5336 14146 8193 1 109.50000 418.400000
5337 14146 8193 1 109.50000 418.400000
1785 14147 3637 1 109.50000 418.400000
1785 14147 8457 1 109.50000 418.400000
1785 14147 8458 1 109.50000 418.400000
3637 14147 8457 1 109.50000 418.400000
3637 14147 8458 1 109.50000 418.400000
8457 14147 8458 1 109.50000 418.400000
3714 14148 3955 1 109.50000 418.400000
3714 14148 7185 1 109.50000 418.400000
3714 14148 8460 1 109.50000 418.400000
3955 14148 7185 1 109.50000 418.400000
3955 14148 8460 1 109.50000 418.400000
7185 14148 8460 1 109.50000 418.400000
57 14149 8462 1 109.50000 418.400000
57 14149 8463 1 109.50000 418.400000
57 14149 8464 1 109.50000 418.400000
8462 14149 8463 1 109.50000 418.400000
8462 14149 8464 1 109.50000 418.400000
8463 14149 8464 1 109.50000 418.400000
158 14150 5937 1 109.50000 418.400000
158 14150 8465 1 109.50000 418.400000
158 14150 8466 1 109.50000 418.400000
5937 14150 8465 1 109.50000 418.400000
5937 14150 8466 1 109.50000 418.400000
8465 14150 8466 1 109.50000 418.400000
1564 14151 5066 1 109.50000 418.400000
1564 14151 6326 1 109.50000 418.400000
1564 14151 8467 1 109.50000 418.400000
5066 14151 6326 1 109.50000 418.400000
5066 14151 8467 1 109.50000 418.400000
6326 14151 8467 1 109.50000 418.400000
8468 14152 8469 1 109.50000 418.400000
8468 14152 8470 1 109.50000 418.400000
8468 14152 8471 1 109.50000 418.400000
8469 14152 8470 1 109.50000 418.400000
8469 14152 8471 1 109.50000 418.400000
8470 14152 8471 1 109.50000 418.400000
2766 14153 3469 1 109.50000 418.400000
2766 14153 6723 1 109.50000 418.400000
2766 14153 8472 1 109.50000 418.400000
3469 14153 6723 1 109.50000 418.400000
3469 14153 8472 1 109.50000 418.400000
6723 14153 8472 1 109.50000 418.400000
1365 14154 5944 1 109.50000 418.400000
1365 14154 7058 1 109.50000 418.400000
1365 14154 7397 1 109.50000 418.400000
5944 14154 7058 1 109.50000 418.400000
5944 14154 7397 1 109.50000 418.400000
7058 14154 7397 1 109.50000 418.400000
1336 14155 6940 1 109.50000 418.400000
1336 14155 7618 1 109.50000 418.400000
1336 14155 8475 1 109.50000 418.400000
6940 14155 7618 1 109.50000 418.400000
6940 14155 8475 1 109.50000 418.400000
7618 14155 8475 1 109.50000 418.400000
4655 14156 7737 1 109.50000 418.400000
4655 14156 8476 1 109.50000 418.400000
4655 14156 8477 1 109.50000 418.400000
7737 14156 8476 1 109.50000 418.400000
7737 14156 8477 1 109.50000 418.400000
8476 14156 8477 1 109.50000 418.400000
5729 14157 8478 1 109.50000 418.400000
5729 14157 8479 1 109.50000 418.400000
5729 14157 8480 1 109.50000 418.400000
8478 14157 8479 1 109.50000 418.400000
8478 14157 8480 1 109.50000 418.400000
8479 14157 8480 1 109.50000 418.400000
5250 14158 6998 1 109.50000 418.400000
5250 14158 8481 1 109.50000 418.400000
5250 14158 8482 1 109.50000 418.400000
6998 14158 8481 1 109.50000 418.400000
6998 14158 8482 1 109.50000 418.400000
8481 14158 8482 1 109.50000 418.400000
2973 14159 3357 1 109.50000 418.400000
2973 14159 3359 1 109.50000 418.400000
2973 14159 8483 1 109.50000 418.400000
3357 14159 3359 1 109.50000 418.400000
3357 14159 8483 1 109.50000 418.400000
3359 14159 8483 1 109.50000 418.400000
4402 14160 5663 1 109.50000 418.400000
4402 14160 8484 1 109.50000 418.400000
4402 14160 8485 1 109.50000 418.400000
5663 14160 8484 1 109.50000 418.400000
5663 14160 8485 1 109.50000 418.400000
8484 14160 8485 1 109.50000 418.400000
3433 14161 8486 1 109.50000 418.400000
3433 14161 8487 1 109.50000 418.400000
3433 14161 8488 1 109.50000 418.400000
8486 14161 8487 1 109.50000 418.400000
8486 14161 8488 1 109.50000 418.400000
8487 14161 8488 1 109.50000 418.400000
3334 14162 8489 1 109.50000 418.400000
3334 14162 8490 1 109.50000 418.400000
3334 14162 8491 1 109.50000 418.400000
8489 14162 8490 1 109.50000 418.400000
8489 14162 8491 1 109.50000 418.400000
8490 14162 8491 1 109.50000 418.400000
5040 14163 7525 1 109.50000 418.400000
5040 14163 8493 1 109.50000 418.400000
5040 14163 8494 1 109.50000 418.400000
7525 14163 8493 1 109.50000 418.400000
7525 14163 8494 1 109.50000 418.400000
8493 14163 8494 1 109.50000 418.400000
4823 14164 7480 1 109.50000 418.400000
4823 14164 8495 1 109.50000 418.400000
4823 14164 8496 1 109.50000 418.400000
7480 14164 8495 1 109.50000 418.400000
7480 14164 8496 1 109.50000 418.400000
8495 14164 8496 1 109.50000 418.400000
7637 14165 8498 1 109.50000 418.400000
7637 14165 8500 1 109.50000 418.400000
7637 14165 10407 1 109.50000 418.400000
8498 14165 8500 1 109.50000 418.400000
8498 14165 10407 1 109.50000 418.400000
8500 14165 10407 1 109.50000 418.400000
7298 14166 8502 1 109.50000 418.400000
7298 14166 8503 1 109.50000 418.400000
7298 14166 8504 1 109.50000 418.400000
8502 14166 8503 1 109.50000 418.400000
8502 14166 8504 1 109.50000 418.400000
8503 14166 8504 1 109.50000 418.400000
3133 14167 3134 1 109.50000 418.400000
3133 14167 3135 1 109.50000 418.400000
3133 14167 5068 1 109.50000 418.400000
3134 14167 3135 1 109.50000 418.400000
3134 14167 5068 1 109.50000 418.400000
3135 14167 5068 1 109.50000 418.400000
3415 14168 8257 1 109.50000 418.400000
3415 14168 8507 1 109.50000 418.400000
3415 14168 10406 1 109.50000 418.400000
8257 14168 8507 1 109.50000 418.400000
8257 14168 10406 1 109.50000 418.400000
8507 14168 10406 1 109.50000 418.400000
3708 14169 8508 1 109.50000 418.400000
3708 14169 8509 1 109.50000 418.400000
3708 14169 8510 1 109.50000 418.400000
8508 14169 8509 1 109.50000 418.400000
8508 14169 8510 1 109.50000 418.400000
8509 14169 8510 1 109.50000 418.400000
898 14170 1403 1 109.50000 418.400000
898 14170 1405 1 109.50000 418.400000
898 14170 8513 1 109.50000 418.400000
1403 14170 1405 1 109.50000 418.400000
1403 14170 8513 1 109.50000 418.400000
1405 14170 8513 1 109.50000 418.400000
2401 14171 8514 1 109.50000 418.400000
2401 14171 8515 1 109.50000 418.400000
2401 14171 8516 1 109.50000 418.400000
8514 14171 8515 1 109.50000 418.400000
8514 14171 8516 1 109.50000 418.400000
8515 14171 8516 1 109.50000 418.400000
447 14172 3811 1 109.50000 418.400000
447 14172 4226 1 109.50000 418.400000
447 14172 8517 1 109.50000 418.400000
3811 14172 4226 1 109.50000 418.400000
3811 14172 8517 1 109.50000 418.400000
4226 14172 8517 1 109.50000 418.400000
975 14173 2445 1 109.50000 418.400000
975 14173 8518 1 109.50000 418.400000
975 14173 11225 1 109.50000 418.400000
2445 14173 8518 1 109.50000 418.400000
2445 14173 11225 1 109.50000 418.400000
8518 14173 11225 1 109.50000 418.400000
3076 14174 8078 1 109.50000 418.400000
3076 14174 8445 1 109.50000 418.400000
3076 14174 8519 1 109.50000 418.400000
8078 14174 8445 1 109.50000 418.400000
8078 14174 8519 1 109.50000 418.400000
8445 14174 8519 1 109.50000 418.400000
1701 14175 4553 1 109.50000 418.400000
1701 14175 8520 1 109.50000 418.400000
1701 14175 11318 1 109.50000 418.400000
4553 14175 8520 1 109.50000 418.400000
4553 14175 11318 1 109.50000 418.400000
8520 14175 11318 1 109.50000 418.400000
3144 14176 8521 1 109.50000 418.400000
3144 14176 8522 1 109.50000 418.400000
3144 14176 10638 1 109.50000 418.400000
8521 14176 8522 1 109.50000 418.400000
8521 14176 10638 1 109.50000 418.400000
8522 14176 10638 1 109.50000 418.400000
259 14177 8163 1 109.50000 418.400000
259 14177 8523 1 109.50000 418.400000
259 14177 8524 1 109.50000 418.400000
8163 14177 8523 1 109.50000 418.400000
8163 14177 8524 1 109.50000 418.400000
8523 14177 8524 1 109.50000 418.400000
235 14178 236 1 109.50000 418.400000
235 14178 237 1 109.50000 418.400000
235 14178 238 1 109.50000 418.400000
236 14178 237 1 109.50000 418.400000
236 14178 238 1 109.50000 418.400000
237 14178 238 1 109.50000 418.400000
6903 14179 8353 1 109.50000 418.400000
6903 14179 8528 1 109.50000 418.400000
6903 14179 8529 1 109.50000 418.400000
8353 14179 8528 1 109.50000 418.400000
8353 14179 8529 1 109.50000 418.400000
8528 14179 8529 1 109.50000 418.400000
683 14180 685 1 109.50000 418.400000
683 14180 8530 1 109.50000 418.400000
683 14180 8531 1 109.50000 418.400000
685 14180 8530 1 109.50000 418.400000
685 14180 8531 1 109.50000 418.400000
8530 14180 8531 1 109.50000 418.400000
1675 14181 8532 1 109.50000 418.400000
1675 14181 8533 1 109.50000 418.400000
1675 14181 8534 1 109.50000 418.400000
8532 14181 8533 1 109.50000 418.400000
8532 14181 8534 1 109.50000 418.400000
8533 14181 8534 1 109.50000 418.400000
4442 14182 8535 1 109.50000 418.400000
4442 14182 8536 1 109.50000 418.400000
4442 14182 8537 1 109.50000 418.400000
8535 14182 8536 1 109.50000 418.400000
8535 14182 8537 1 109.50000 418.400000
8536 14182 8537 1 109.50000 418.400000
1799 14183 8506 1 109.50000 418.400000
1799 14183 8538 1 109.50000 418.400000
1799 14183 8539 1 109.50000 418.400000
8506 14183 8538 1 109.50000 418.400000
8506 14183 8539 1 109.50000 418.400000
8538 14183 8539 1 109.50000 418.400000
1087 14184 8540 1 109.50000 418.400000
1087 14184 8541 1 109.50000 418.400000
1087 14184 8542 1 109.50000 418.400000
8540 14184 8541 1 109.50000 418.400000
8540 14184 8542 1 109.50000 418.400000
8541 14184 8542 1 109.50000 418.400000
567 14185 8543 1 109.50000 418.400000
567 14185 8544 1 109.50000 418.400000
567 14185 8545 1 109.50000 418.400000
8543 14185 8544 1 109.50000 418.400000
8543 14185 8545 1 109.50000 418.400000
8544 14185 8545 1 109.50000 418.400000
421 14186 4011 1 109.50000 418.400000
421 14186 8343 1 109.50000 418.400000
421 14186 8546 1 109.50000 418.400000
4011 14186 8343 1 109.50000 418.400000
4011 14186 8546 1 109.50000 418.400000
8343 14186 8546 1 109.50000 418.400000
46 14187 5848 1 109.50000 418.400000
46 14187 11300 1 109.50000 418.400000
46 14187 11355 1 109.50000 418.400000
5848 14187 11300 1 109.50000 418.400000
5848 14187 11355 1 109.50000 418.400000
11300 14187 11355 1 109.50000 418.400000
4212 14188 8547 1 109.50000 418.400000
4212 14188 8548 1 109.50000 418.400000
4212 14188 8549 1 109.50000 418.400000
8547 14188 8548 1 109.50000 418.400000
8547 14188 8549 1 109.50000 418.400000
8548 14188 8549 1 109.50000 418.400000
21 14189 8550 1 109.50000 418.400000
21 14189 11301 1 109.50000 418.400000
21 14189 11343 1 109.50000 418.400000
8550 14189 11301 1 109.50000 418.400000
8550 14189 11343 1 109.50000 418.400000
11301 14189 11343 1 109.50000 418.400000
565 14190 8551 1 109.50000 418.400000
565 14190 8552 1 109.50000 418.400000
565 14190 8553 1 109.50000 418.400000
8551 14190 8552 1 109.50000 418.400000
8551 14190 8553 1 109.50000 418.400000
8552 14190 8553 1 109.50000 418.400000
1948 14191 6145 1 109.50000 418.400000
1948 14191 6146 1 109.50000 418.400000
1948 14191 6147 1 109.50000 418.400000
6145 14191 6146 1 109.50000 418.400000
6145 14191 6147 1 109.50000 418.400000
6146 14191 6147 1 109.50000 418.400000
7075 14192 7999 1 109.50000 418.400000
7075 14192 8554 1 109.50000 418.400000
7075 14192 8555 1 109.50000 418.400000
7999 14192 8554 1 109.50000 418.400000
7999 14192 8555 1 109.50000 418.400000
8554 14192 8555 1 109.50000 418.400000
6370 14193 8007 1 109.50000 418.400000
6370 14193 8556 1 109.50000 418.400000
6370 14193 8557 1 109.50000 418.400000
8007 14193 8556 1 109.50000 418.400000
8007 14193 8557 1 109.50000 418.400000
8556 14193 8557 1 109.50000 418.400000
4453 14194 4712 1 109.50000 418.400000
4453 14194 8558 1 109.50000 418.400000
4453 14194 8559 1 109.50000 418.400000
4712 14194 8558 1 109.50000 418.400000
4712 14194 8559 1 109.50000 418.400000
8558 14194 8559 1 109.50000 418.400000
5758 14195 8338 1 109.50000 418.400000
5758 14195 8560 1 109.50000 418.400000
5758 14195 8561 1 109.50000 418.400000
8338 14195 8560 1 109.50000 418.400000
8338 14195 8561 1 109.50000 418.400000
8560 14195 8561 1 109.50000 418.400000
2512 14196 7876 1 109.50000 418.400000
2512 14196 8414 1 109.50000 418.400000
2512 14196 8563 1 109.50000 418.400000
7876 14196 8414 1 109.50000 418.400000
7876 14196 8563 1 109.50000 418.400000
8414 14196 8563 1 109.50000 418.400000
192 14197 6424 1 109.50000 418.400000
192 14197 8564 1 109.50000 418.400000
192 14197 8565 1 109.50000 418.400000
6424 14197 8564 1 109.50000 418.400000
6424 14197 8565 1 109.50000 418.400000
8564 14197 8565 1 109.50000 418.400000
705 14198 6707 1 109.50000 418.400000
705 14198 6769 1 109.50000 418.400000
705 14198 8566 1 109.50000 418.400000
6707 14198 6769 1 109.50000 418.400000
6707 14198 8566 1 109.50000 418.400000
6769 14198 8566 1 109.50000 418.400000
1883 14199 5101 1 109.50000 418.400000
1883 14199 8171 1 109.50000 418.400000
1883 14199 8567 1 109.50000 418.400000
5101 14199 8171 1 109.50000 418.400000
5101 14199 8567 1 109.50000 418.400000
8171 14199 8567 1 109.50000 418.400000
5752 14200 6385 1 109.50000 418.400000
5752 14200 8568 1 109.50000 418.400000
5752 14200 8569 1 109.50000 418.400000
6385 14200 8568 1 109.50000 418.400000
6385 14200 8569 1 109.50000 418.400000
8568 14200 8569 1 109.50000 418.400000
5541 14201 8570 1 109.50000 418.400000
5541 14201 8571 1 109.50000 418.400000
5541 14201 8572 1 109.50000 418.400000
8570 14201 8571 1 109.50000 418.400000
8570 14201 8572 1 109.50000 418.400000
8571 14201 8572 1 109.50000 418.400000
642 14202 4906 1 109.50000 418.400000
642 14202 7467 1 109.50000 418.400000
642 14202 8100 1 109.50000 418.400000
4906 14202 7467 1 109.50000 418.400000
4906 14202 8100 1 109.50000 418.400000
7467 14202 8100 1 109.50000 418.400000
2530 14203 4395 1 109.50000 418.400000
2530 14203 8318 1 109.50000 418.400000
2530 14203 8575 1 109.50000 418.400000
4395 14203 8318 1 109.50000 418.400000
4395 14203 8575 1 109.50000 418.400000
8318 14203 8575 1 109.50000 418.400000
8576 14204 8577 1 109.50000 418.400000
8576 14204 8578 1 109.50000 418.400000
8576 14204 8579 1 109.50000 418.400000
8577 14204 8578 1 109.50000 418.400000
8577 14204 8579 1 109.50000 418.400000
8578 14204 8579 1 109.50000 418.400000
1545 14205 7839 1 109.50000 418.400000
1545 14205 8580 1 109.50000 418.400000
1545 14205 8581 1 109.50000 418.400000
7839 14205 8580 1 109.50000 418.400000
7839 14205 8581 1 109.50000 418.400000
8580 14205 8581 1 109.50000 418.400000
2306 14206 5192 1 109.50000 418.400000
2306 14206 6231 1 109.50000 418.400000
2306 14206 8582 1 109.50000 418.400000
5192 14206 6231 1 109.50000 418.400000
5192 14206 8582 1 109.50000 418.400000
6231 14206 8582 1 109.50000 418.400000
8583 14207 8584 1 109.50000 418.400000
8583 14207 8585 1 109.50000 418.400000
8583 14207 10727 1 109.50000 418.400000
8584 14207 8585 1 109.50000 418.400000
8584 14207 10727 1 109.50000 418.400000
8585 14207 10727 1 109.50000 418.400000
5568 14208 6462 1 109.50000 418.400000
5568 14208 8586 1 109.50000 418.400000
5568 14208 8587 1 109.50000 418.400000
6462 14208 8586 1 109.50000 418.400000
6462 14208 8587 1 109.50000 418.400000
8586 14208 8587 1 109.50000 418.400000
798 14209 4736 1 109.50000 418.400000
798 14209 8588 1 109.50000 418.400000
798 14209 8589 1 109.50000 418.400000
4736 14209 8588 1 109.50000 418.400000
4736 14209 8589 1 109.50000 418.400000
8588 14209 8589 1 109.50000 418.400000
1371 14210 8590 1 109.50000 418.400000
1371 14210 8591 1 109.50000 418.400000
1371 14210 8592 1 109.50000 418.400000
8590 14210 8591 1 109.50000 418.400000
8590 14210 8592 1 109.50000 418.400000
8591 14210 8592 1 109.50000 418.400000
5445 14211 5446 1 109.50000 418.400000
5445 14211 8594 1 109.50000 418.400000
5445 14211 8595 1 109.50000 418.400000
5446 14211 8594 1 109.50000 418.400000
5446 14211 8595 1 109.50000 418.400000
8594 14211 8595 1 109.50000 418.400000
273 14212 8596 1 109.50000 418.400000
273 14212 8597 1 109.50000 418.400000
273 14212 8598 1 109.50000 418.400000
8596 14212 8597 1 109.50000 418.400000
8596 14212 8598 1 109.50000 418.400000
8597 14212 8598 1 109.50000 418.400000
8068 14213 8599 1 109.50000 418.400000
8068 14213 8600 1 109.50000 418.400000
8068 14213 8601 1 109.50000 418.400000
8599 14213 8600 1 109.50000 418.400000
8599 14213 8601 1 109.50000 418.400000
8600 14213 8601 1 109.50000 418.400000
7823 14214 8244 1 109.50000 418.400000
7823 14214 8602 1 109.50000 418.400000
7823 14214 8603 1 109.50000 418.400000
8244 14214 8602 1 109.50000 418.400000
8244 14214 8603 1 109.50000 418.400000
8602 14214 8603 1 109.50000 418.400000
2359 14215 3926 1 109.50000 418.400000
2359 14215 6933 1 109.50000 418.400000
2359 14215 8125 1 109.50000 418.400000
3926 14215 6933 1 109.50000 418.400000
3926 14215 8125 1 109.50000 418.400000
6933 14215 8125 1 109.50000 418.400000
1249 14216 5587 1 109.50000 418.400000
1249 14216 6876 1 109.50000 418.400000
1249 14216 8604 1 109.50000 418.400000
5587 14216 6876 1 109.50000 418.400000
5587 14216 8604 1 109.50000 418.400000
6876 14216 8604 1 109.50000 418.400000
8605 14217 8606 1 109.50000 418.400000
8605 14217 8607 1 109.50000 418.400000
8605 14217 8608 1 109.50000 418.400000
8606 14217 8607 1 109.50000 418.400000
8606 14217 8608 1 109.50000 418.400000
8607 14217 8608 1 109.50000 418.400000
169 14218 7251 1 109.50000 418.400000
169 14218 7252 1 109.50000 418.400000
169 14218 8609 1 109.50000 418.400000
7251 14218 7252 1 109.50000 418.400000
7251 14218 8609 1 109.50000 418.400000
7252 14218 8609 1 109.50000 418.400000
1911 14219 1912 1 109.50000 418.400000
1911 14219 8610 1 109.50000 418.400000
1911 14219 8611 1 109.50000 418.400000
1912 14219 8610 1 109.50000 418.400000
1912 14219 8611 1 109.50000 418.400000
8610 14219 8611 1 109.50000 418.400000
6155 14220 7907 1 109.50000 418.400000
6155 14220 8613 1 109.50000 418.400000
6155 14220 8614 1 109.50000 418.400000
7907 14220 8613 1 109.50000 418.400000
7907 14220 8614 1 109.50000 418.400000
8613 14220 8614 1 109.50000 418.400000
6228 14221 8041 1 109.50000 418.400000
6228 14221 8615 1 109.50000 418.400000
6228 14221 8616 1 109.50000 418.400000
8041 14221 8615 1 109.50000 418.400000
8041 14221 8616 1 109.50000 418.400000
8615 14221 8616 1 109.50000 418.400000
5526 14222 8555 1 109.50000 418.400000
5526 14222 8619 1 109.50000 418.400000
5526 14222 8620 1 109.50000 418.400000
8555 14222 8619 1 109.50000 418.400000
8555 14222 8620 1 109.50000 418.400000
8619 14222 8620 1 109.50000 418.400000
671 14223 673 1 109.50000 418.400000
671 14223 8623 1 109.50000 418.400000
671 14223 8624 1 109.50000 418.400000
673 14223 8623 1 109.50000 418.400000
673 14223 8624 1 109.50000 418.400000
8623 14223 8624 1 109.50000 418.400000
1089 14224 1175 1 109.50000 418.400000
1089 14224 4769 1 109.50000 418.400000
1089 14224 8625 1 109.50000 418.400000
1175 14224 4769 1 109.50000 418.400000
1175 14224 8625 1 109.50000 418.400000
4769 14224 8625 1 109.50000 418.400000
8626 14225 8627 1 109.50000 418.400000
8626 14225 8628 1 109.50000 418.400000
8626 14225 8629 1 109.50000 418.400000
8627 14225 8628 1 109.50000 418.400000
8627 14225 8629 1 109.50000 418.400000
8628 14225 8629 1 109.50000 418.400000
5249 14226 6101 1 109.50000 418.400000
5249 14226 6759 1 109.50000 418.400000
5249 14226 8630 1 109.50000 418.400000
6101 14226 6759 1 109.50000 418.400000
6101 14226 8630 1 109.50000 418.400000
6759 14226 8630 1 109.50000 418.400000
6154 14227 8631 1 109.50000 418.400000
6154 14227 8632 1 109.50000 418.400000
6154 14227 8633 1 109.50000 418.400000
8631 14227 8632 1 109.50000 418.400000
8631 14227 8633 1 109.50000 418.400000
8632 14227 8633 1 109.50000 418.400000
2753 14228 3208 1 109.50000 418.400000
2753 14228 5620 1 109.50000 418.400000
2753 14228 8639 1 109.50000 418.400000
3208 14228 5620 1 109.50000 418.400000
3208 14228 8639 1 109.50000 418.400000
5620 14228 8639 1 109.50000 418.400000
1431 14229 3863 1 109.50000 418.400000
1431 14229 8640 1 109.50000 418.400000
1431 14229 10134 1 109.50000 418.400000
3863 14229 8640 1 109.50000 418.400000
3863 14229 10134 1 109.50000 418.400000
8640 14229 10134 1 109.50000 418.400000
1885 14230 5835 1 109.50000 418.400000
1885 14230 8641 1 109.50000 418.400000
1885 14230 8642 1 109.50000 418.400000
5835 14230 8641 1 109.50000 418.400000
5835 14230 8642 1 109.50000 418.400000
8641 14230 8642 1 109.50000 418.400000
1953 14231 7589 1 109.50000 418.400000
1953 14231 8643 1 109.50000 418.400000
1953 14231 8644 1 109.50000 418.400000
7589 14231 8643 1 109.50000 418.400000
7589 14231 8644 1 109.50000 418.400000
8643 14231 8644 1 109.50000 418.400000
3541 14232 4399 1 109.50000 418.400000
3541 14232 8645 1 109.50000 418.400000
3541 14232 8646 1 109.50000 418.400000
4399 14232 8645 1 109.50000 418.400000
4399 14232 8646 1 109.50000 418.400000
8645 14232 8646 1 109.50000 418.400000
1599 14233 1771 1 109.50000 418.400000
1599 14233 8649 1 109.50000 418.400000
1599 14233 8650 1 109.50000 418.400000
1771 14233 8649 1 109.50000 418.400000
1771 14233 8650 1 109.50000 418.400000
8649 14233 8650 1 109.50000 418.400000
1353 14234 5796 1 109.50000 418.400000
1353 14234 7943 1 109.50000 418.400000
1353 14234 8651 1 109.50000 418.400000
5796 14234 7943 1 109.50000 418.400000
5796 14234 8651 1 109.50000 418.400000
7943 14234 8651 1 109.50000 418.400000
3022 14235 4984 1 109.50000 418.400000
3022 14235 8386 1 109.50000 418.400000
3022 14235 8652 1 109.50000 418.400000
4984 14235 8386 1 109.50000 418.400000
4984 14235 8652 1 109.50000 418.400000
8386 14235 8652 1 109.50000 418.400000
2079 14236 3092 1 109.50000 418.400000
2079 14236 8653 1 109.50000 418.400000
2079 14236 8654 1 109.50000 418.400000
3092 14236 8653 1 109.50000 418.400000
3092 14236 8654 1 109.50000 418.400000
8653 14236 8654 1 109.50000 418.400000
2423 14237 5314 1 109.50000 418.400000
2423 14237 8655 1 109.50000 418.400000
2423 14237 8656 1 109.50000 418.400000
5314 14237 8655 1 109.50000 418.400000
5314 14237 8656 1 109.50000 418.400000
8655 14237 8656 1 109.50000 418.400000
6224 14238 8657 1 109.50000 418.400000
6224 14238 8658 1 109.50000 418.400000
6224 14238 11146 1 109.50000 418.400000
8657 14238 8658 1 109.50000 418.400000
8657 14238 11146 1 109.50000 418.400000
8658 14238 11146 1 109.50000 418.400000
349 14239 4436 1 109.50000 418.400000
349 14239 8231 1 109.50000 418.400000
349 14239 8659 1 109.50000 418.400000
4436 14239 8231 1 109.50000 418.400000
4436 14239 8659 1 109.50000 418.400000
8231 14239 8659 1 109.50000 418.400000
3226 14240 6832 1 109.50000 418.400000
3226 14240 8660 1 109.50000 418.400000
3226 14240 8661 1 109.50000 418.400000
6832 14240 8660 1 109.50000 418.400000
6832 14240 8661 1 109.50000 418.400000
8660 14240 8661 1 109.50000 418.400000
8662 14241 8663 1 109.50000 418.400000
8662 14241 8664 1 109.50000 418.400000
8662 14241 8665 1 109.50000 418.400000
8663 14241 8664 1 109.50000 418.400000
8663 14241 8665 1 109.50000 418.400000
8664 14241 8665 1 109.50000 418.400000
2810 14242 7035 1 109.50000 418.400000
2810 14242 8668 1 109.50000 418.400000
2810 14242 10862 1 109.50000 418.400000
7035 14242 8668 1 109.50000 418.400000
7035 14242 10862 1 109.50000 418.400000
8668 14242 10862 1 109.50000 418.400000
2931 14243 4113 1 109.50000 418.400000
2931 14243 7501 1 109.50000 418.400000
2931 14243 8669 1 109.50000 418.400000
4113 14243 7501 1 109.50000 418.400000
4113 14243 8669 1 109.50000 418.400000
7501 14243 8669 1 109.50000 418.400000
771 14244 4490 1 109.50000 418.400000
771 14244 8670 1 109.50000 418.400000
771 14244 8671 1 109.50000 418.400000
4490 14244 8670 1 109.50000 418.400000
4490 14244 8671 1 109.50000 418.400000
8670 14244 8671 1 109.50000 418.400000
2387 14245 4945 1 109.50000 418.400000
2387 14245 5421 1 109.50000 418.400000
2387 14245 8484 1 109.50000 418.400000
4945 14245 5421 1 109.50000 418.400000
4945 14245 8484 1 109.50000 418.400000
5421 14245 8484 1 109.50000 418.400000
3478 14246 7440 1 109.50000 418.400000
3478 14246 8672 1 109.50000 418.400000
3478 14246 11289 1 109.50000 418.400000
7440 14246 8672 1 109.50000 418.400000
7440 14246 11289 1 109.50000 418.400000
8672 14246 11289 1 109.50000 418.400000
2137 14247 2853 1 109.50000 418.400000
2137 14247 8673 1 109.50000 418.400000
2137 14247 8674 1 109.50000 418.400000
2853 14247 8673 1 109.50000 418.400000
2853 14247 8674 1 109.50000 418.400000
8673 14247 8674 1 109.50000 418.400000
832 14248 8476 1 109.50000 418.400000
832 14248 8528 1 109.50000 418.400000
832 14248 8628 1 109.50000 418.400000
8476 14248 8528 1 109.50000 418.400000
8476 14248 8628 1 109.50000 418.400000
8528 14248 8628 1 109.50000 418.400000
7612 14249 8675 1 109.50000 418.400000
7612 14249 8676 1 109.50000 418.400000
7612 14249 8677 1 109.50000 418.400000
8675 14249 8676 1 109.50000 418.400000
8675 14249 8677 1 109.50000 418.400000
8676 14249 8677 1 109.50000 418.400000
2856 14250 6536 1 109.50000 418.400000
2856 14250 8594 1 109.50000 418.400000
2856 14250 8678 1 109.50000 418.400000
6536 14250 8594 1 109.50000 418.400000
6536 14250 8678 1 109.50000 418.400000
8594 14250 8678 1 109.50000 418.400000
1506 14251 2943 1 109.50000 418.400000
1506 14251 8680 1 109.50000 418.400000
1506 14251 10884 1 109.50000 418.400000
2943 14251 8680 1 109.50000 418.400000
2943 14251 10884 1 109.50000 418.400000
8680 14251 10884 1 109.50000 418.400000
8681 14252 8682 1 109.50000 418.400000
8681 14252 8683 1 109.50000 418.400000
8681 14252 8684 1 109.50000 418.400000
8682 14252 8683 1 109.50000 418.400000
8682 14252 8684 1 109.50000 418.400000
8683 14252 8684 1 109.50000 418.400000
5028 14253 5781 1 109.50000 418.400000
5028 14253 5932 1 109.50000 418.400000
5028 14253 8685 1 109.50000 418.400000
5781 14253 5932 1 109.50000 418.400000
5781 14253 8685 1 109.50000 418.400000
5932 14253 8685 1 109.50000 418.400000
6935 14254 8686 1 109.50000 418.400000
6935 14254 8687 1 109.50000 418.400000
6935 14254 9384 1 109.50000 418.400000
8686 14254 8687 1 109.50000 418.400000
8686 14254 9384 1 109.50000 418.400000
8687 14254 9384 1 109.50000 418.400000
37 14255 5203 1 109.50000 418.400000
37 14255 8688 1 109.50000 418.400000
37 14255 8689 1 109.50000 418.400000
5203 14255 8688 1 109.50000 418.400000
5203 14255 8689 1 109.50000 418.400000
8688 14255 8689 1 109.50000 418.400000
1832 14256 7406 1 109.50000 418.400000
1832 14256 7799 1 109.50000 418.400000
1832 14256 8690 1 109.50000 418.400000
7406 14256 7799 1 109.50000 418.400000
7406 14256 8690 1 109.50000 418.400000
7799 14256 8690 1 109.50000 418.400000
8691 14257 8692 1 109.50000 418.400000
8691 14257 8693 1 109.50000 418.400000
8691 14257 8694 1 109.50000 418.400000
8692 14257 8693 1 109.50000 418.400000
8692 14257 8694 1 109.50000 418.400000
8693 14257 8694 1 109.50000 418.400000
747 14258 7297 1 109.50000 418.400000
747 14258 8211 1 109.50000 418.400000
747 14258 8695 1 109.50000 418.400000
7297 14258 8211 1 109.50000 418.400000
7297 14258 8695 1 109.50000 418.400000
8211 14258 8695 1 109.50000 418.400000
3833 14259 5545 1 109.50000 418.400000
3833 14259 8696 1 109.50000 418.400000
3833 14259 9940 1 109.50000 418.400000
5545 14259 8696 1 109.50000 418.400000
5545 14259 9940 1 109.50000 418.400000
8696 14259 9940 1 109.50000 418.400000
5304 14260 6528 1 109.50000 418.400000
5304 14260 7394 1 109.50000 418.400000
5304 14260 8697 1 109.50000 418.400000
6528 14260 7394 1 109.50000 418.400000
6528 14260 8697 1 109.50000 418.400000
7394 14260 8697 1 109.50000 418.400000
402 14261 6739 1 109.50000 418.400000
402 14261 8698 1 109.50000 418.400000
402 14261 8699 1 109.50000 418.400000
6739 14261 8698 1 109.50000 418.400000
6739 14261 8699 1 109.50000 418.400000
8698 14261 8699 1 109.50000 418.400000
6600 14262 8700 1 109.50000 418.400000
6600 14262 8701 1 109.50000 418.400000
6600 14262 11197 1 109.50000 418.400000
8700 14262 8701 1 109.50000 418.400000
8700 14262 11197 1 109.50000 418.400000
8701 14262 11197 1 109.50000 418.400000
649 14263 1639 1 109.50000 418.400000
649 14263 8702 1 109.50000 418.400000
649 14263 8703 1 109.50000 418.400000
1639 14263 8702 1 109.50000 418.400000
1639 14263 8703 1 109.50000 418.400000
8702 14263 8703 1 109.50000 418.400000
1798 14264 6143 1 109.50000 418.400000
1798 14264 8704 1 109.50000 418.400000
1798 14264 8705 1 109.50000 418.400000
6143 14264 8704 1 109.50000 418.400000
6143 14264 8705 1 109.50000 418.400000
8704 14264 8705 1 109.50000 418.400000
3482 14265 3579 1 109.50000 418.400000
3482 14265 8504 1 109.50000 418.400000
3482 14265 8706 1 109.50000 418.400000
3579 14265 8504 1 109.50000 418.400000
3579 14265 8706 1 109.50000 418.400000
8504 14265 8706 1 109.50000 418.400000
1398 14266 3999 1 109.50000 418.400000
1398 14266 6183 1 109.50000 418.400000
1398 14266 7603 1 109.50000 418.400000
3999 14266 6183 1 109.50000 418.400000
3999 14266 7603 1 109.50000 418.400000
6183 14266 7603 1 109.50000 418.400000
4249 14267 8707 1 109.50000 418.400000
4249 14267 8708 1 109.50000 418.400000
4249 14267 8709 1 109.50000 418.400000
8707 14267 8708 1 109.50000 418.400000
8707 14267 8709 1 109.50000 418.400000
8708 14267 8709 1 109.50000 418.400000
7706 14268 7905 1 109.50000 418.400000
7706 14268 8710 1 109.50000 418.400000
7706 14268 8711 1 109.50000 418.400000
7905 14268 8710 1 109.50000 418.400000
7905 14268 8711 1 109.50000 418.400000
8710 14268 8711 1 109.50000 418.400000
3113 14269 4742 1 109.50000 418.400000
3113 14269 7215 1 109.50000 418.400000
3113 14269 8712 1 109.50000 418.400000
4742 14269 7215 1 109.50000 418.400000
4742 14269 8712 1 109.50000 418.400000
7215 14269 8712 1 109.50000 418.400000
20 14270 1035 1 109.50000 418.400000
20 14270 8713 1 109.50000 418.400000
20 14270 8714 1 109.50000 418.400000
1035 14270 8713 1 109.50000 418.400000
1035 14270 8714 1 109.50000 418.400000
8713 14270 8714 1 109.50000 418.400000
2874 14271 6910 1 109.50000 418.400000
2874 14271 7025 1 109.50000 418.400000
2874 14271 8715 1 109.50000 418.400000
6910 14271 7025 1 109.50000 418.400000
6910 14271 8715 1 109.50000 418.400000
7025 14271 8715 1 109.50000 418.400000
3118 14272 8716 1 109.50000 418.400000
3118 14272 8717 1 109.50000 418.400000
3118 14272 8718 1 109.50000 418.400000
8716 14272 8717 1 109.50000 418.400000
8716 14272 8718 1 109.50000 418.400000
8717 14272 8718 1 109.50000 418.400000
706 14273 5985 1 109.50000 418.400000
706 14273 8719 1 109.50000 418.400000
706 14273 8720 1 109.50000 418.400000
5985 14273 8719 1 109.50000 418.400000
5985 14273 8720 1 109.50000 418.400000
8719 14273 8720 1 109.50000 418.400000
381 14274 5281 1 109.50000 418.400000
381 14274 8721 1 109.50000 418.400000
381 14274 8722 1 109.50000 418.400000
5281 14274 8721 1 109.50000 418.400000
5281 14274 8722 1 109.50000 418.400000
8721 14274 8722 1 109.50000 418.400000
2622 14275 8723 1 109.50000 418.400000
2622 14275 8724 1 109.50000 418.400000
2622 14275 8725 1 109.50000 418.400000
8723 14275 8724 1 109.50000 418.400000
8723 14275 8725 1 109.50000 418.400000
8724 14275 8725 1 109.50000 418.400000
2936 14276 8227 1 109.50000 418.400000
2936 14276 8726 1 109.50000 418.400000
2936 14276 8727 1 109.50000 418.400000
8227 14276 8726 1 109.50000 418.400000
8227 14276 8727 1 109.50000 418.400000
8726 14276 8727 1 109.50000 418.400000
3641 14277 8728 1 109.50000 418.400000
3641 14277 8729 1 109.50000 418.400000
3641 14277 8730 1 109.50000 418.400000
8728 14277 8729 1 109.50000 418.400000
8728 14277 8730 1 109.50000 418.400000
8729 14277 8730 1 109.50000 418.400000
3518 14278 8731 1 109.50000 418.400000
3518 14278 8732 1 109.50000 418.400000
3518 14278 11238 1 109.50000 418.400000
8731 14278 8732 1 109.50000 418.400000
8731 14278 11238 1 109.50000 418.400000
8732 14278 11238 1 109.50000 418.400000
1814 14279 7104 1 109.50000 418.400000
1814 14279 8287 1 109.50000 418.400000
1814 14279 8733 1 109.50000 418.400000
7104 14279 8287 1 109.50000 418.400000
7104 14279 8733 1 109.50000 418.400000
8287 14279 8733 1 109.50000 418.400000
967 14280 6867 1 109.50000 418.400000
967 14280 6869 1 109.50000 418.400000
967 14280 8734 1 109.50000 418.400000
6867 14280 6869 1 109.50000 418.400000
6867 14280 8734 1 109.50000 418.400000
6869 14280 8734 1 109.50000 418.400000
2655 14281 2844 1 109.50000 418.400000
2655 14281 8579 1 109.50000 418.400000
2655 14281 8736 1 109.50000 418.400000
2844 14281 8579 1 109.50000 418.400000
2844 14281 8736 1 109.50000 418.400000
8579 14281 8736 1 109.50000 418.400000
411 14282 7570 1 109.50000 418.400000
411 14282 7571 1 109.50000 418.400000
411 14282 8737 1 109.50000 418.400000
7570 14282 7571 1 109.50000 418.400000
7570 14282 8737 1 109.50000 418.400000
7571 14282 8737 1 109.50000 418.400000
7511 14283 8738 1 109.50000 418.400000
7511 14283 8739 1 109.50000 418.400000
7511 14283 8740 1 109.50000 418.400000
8738 14283 8739 1 109.50000 418.400000
8738 14283 8740 1 109.50000 418.400000
8739 14283 8740 1 109.50000 418.400000
5110 14284 7513 1 109.50000 418.400000
5110 14284 7514 1 109.50000 418.400000
5110 14284 8741 1 109.50000 418.400000
7513 14284 7514 1 109.50000 418.400000
7513 14284 8741 1 109.50000 418.400000
7514 14284 8741 1 109.50000 418.400000
3764 14285 7088 1 109.50000 418.400000
3764 14285 8742 1 109.50000 418.400000
3764 14285 8743 1 109.50000 418.400000
7088 14285 8742 1 109.50000 418.400000
7088 14285 8743 1 109.50000 418.400000
8742 14285 8743 1 109.50000 418.400000
486 14286 7797 1 109.50000 418.400000
486 14286 8744 1 109.50000 418.400000
486 14286 8745 1 109.50000 418.400000
7797 14286 8744 1 109.50000 418.400000
7797 14286 8745 1 109.50000 418.400000
8744 14286 8745 1 109.50000 418.400000
3397 14287 8419 1 109.50000 418.400000
3397 14287 8746 1 109.50000 418.400000
3397 14287 10677 1 109.50000 418.400000
8419 14287 8746 1 109.50000 418.400000
8419 14287 10677 1 109.50000 418.400000
8746 14287 10677 1 109.50000 418.400000
653 14288 3264 1 109.50000 418.400000
653 14288 7669 1 109.50000 418.400000
653 14288 8711 1 109.50000 418.400000
3264 14288 7669 1 109.50000 418.400000
3264 14288 8711 1 109.50000 418.400000
7669 14288 8711 1 109.50000 418.400000
2674 14289 8747 1 109.50000 418.400000
2674 14289 8748 1 109.50000 418.400000
2674 14289 8749 1 109.50000 418.400000
8747 14289 8748 1 109.50000 418.400000
8747 14289 8749 1 109.50000 418.400000
8748 14289 8749 1 109.50000 418.400000
618 14290 3405 1 109.50000 418.400000
618 14290 4704 1 109.50000 418.400000
618 14290 8750 1 109.50000 418.400000
3405 14290 4704 1 109.50000 418.400000
3405 14290 8750 1 109.50000 418.400000
4704 14290 8750 1 109.50000 418.400000
2391 14291 4154 1 109.50000 418.400000
2391 14291 4731 1 109.50000 418.400000
2391 14291 8751 1 109.50000 418.400000
4154 14291 4731 1 109.50000 418.400000
4154 14291 8751 1 109.50000 418.400000
4731 14291 8751 1 109.50000 418.400000
2061 14292 4164 1 109.50000 418.400000
2061 14292 8752 1 109.50000 418.400000
2061 14292 8753 1 109.50000 418.400000
4164 14292 8752 1 109.50000 418.400000
4164 14292 8753 1 109.50000 418.400000
8752 14292 8753 1 109.50000 418.400000
5650 14293 8754 1 109.50000 418.400000
5650 14293 8755 1 109.50000 418.400000
5650 14293 8756 1 109.50000 418.400000
8754 14293 8755 1 109.50000 418.400000
8754 14293 8756 1 109.50000 418.400000
8755 14293 8756 1 109.50000 418.400000
2772 14294 6264 1 109.50000 418.400000
2772 14294 6709 1 109.50000 418.400000
2772 14294 6946 1 109.50000 418.400000
6264 14294 6709 1 109.50000 418.400000
6264 14294 6946 1 109.50000 418.400000
6709 14294 6946 1 109.50000 418.400000
4563 14295 5495 1 109.50000 418.400000
4563 14295 8752 1 109.50000 418.400000
4563 14295 8757 1 109.50000 418.400000
5495 14295 8752 1 109.50000 418.400000
5495 14295 8757 1 109.50000 418.400000
8752 14295 8757 1 109.50000 418.400000
1280 14296 2321 1 109.50000 418.400000
1280 14296 8758 1 109.50000 418.400000
1280 14296 8759 1 109.50000 418.400000
2321 14296 8758 1 109.50000 418.400000
2321 14296 8759 1 109.50000 418.400000
8758 14296 8759 1 109.50000 418.400000
2009 14297 5572 1 109.50000 418.400000
2009 14297 6924 1 109.50000 418.400000
2009 14297 11279 1 109.50000 418.400000
5572 14297 6924 1 109.50000 418.400000
5572 14297 11279 1 109.50000 418.400000
6924 14297 11279 1 109.50000 418.400000
1486 14298 3674 1 109.50000 418.400000
1486 14298 8031 1 109.50000 418.400000
1486 14298 8762 1 109.50000 418.400000
3674 14298 8031 1 109.50000 418.400000
3674 14298 8762 1 109.50000 418.400000
8031 14298 8762 1 109.50000 418.400000
1469 14299 7938 1 109.50000 418.400000
1469 14299 8545 1 109.50000 418.400000
1469 14299 8763 1 109.50000 418.400000
7938 14299 8545 1 109.50000 418.400000
7938 14299 8763 1 109.50000 418.400000
8545 14299 8763 1 109.50000 418.400000
7496 14300 8175 1 109.50000 418.400000
7496 14300 8764 1 109.50000 418.400000
7496 14300 8765 1 109.50000 418.400000
8175 14300 8764 1 109.50000 418.400000
8175 14300 8765 1 109.50000 418.400000
8764 14300 8765 1 109.50000 418.400000
6458 14301 6893 1 109.50000 418.400000
6458 14301 8766 1 109.50000 418.400000
6458 14301 8767 1 109.50000 418.400000
6893 14301 8766 1 109.50000 418.400000
6893 14301 8767 1 109.50000 418.400000
8766 14301 8767 1 109.50000 418.400000
4397 14302 4461 1 109.50000 418.400000
4397 14302 8768 1 109.50000 418.400000
4397 14302 8769 1 109.50000 418.400000
4461 14302 8768 1 109.50000 418.400000
4461 14302 8769 1 109.50000 418.400000
8768 14302 8769 1 109.50000 418.400000
6048 14303 6550 1 109.50000 418.400000
6048 14303 8770 1 109.50000 418.400000
6048 14303 8771 1 109.50000 418.400000
6550 14303 8770 1 109.50000 418.400000
6550 14303 8771 1 109.50000 418.400000
8770 14303 8771 1 109.50000 418.400000
318 14304 4157 1 109.50000 418.400000
318 14304 6701 1 109.50000 418.400000
318 14304 8747 1 109.50000 418.400000
4157 14304 6701 1 109.50000 418.400000
4157 14304 8747 1 109.50000 418.400000
6701 14304 8747 1 109.50000 418.400000
5284 14305 5492 1 109.50000 418.400000
5284 14305 8764 1 109.50000 418.400000
5284 14305 8772 1 109.50000 418.400000
5492 14305 8764 1 109.50000 418.400000
5492 14305 8772 1 109.50000 418.400000
8764 14305 8772 1 109.50000 418.400000
2187 14306 4069 1 109.50000 418.400000
2187 14306 8773 1 109.50000 418.400000
2187 14306 8774 1 109.50000 418.400000
4069 14306 8773 1 109.50000 418.400000
4069 14306 8774 1 109.50000 418.400000
8773 14306 8774 1 109.50000 418.400000
33 14307 1850 1 109.50000 418.400000
33 14307 8775 1 109.50000 418.400000
33 14307 8776 1 109.50000 418.400000
1850 14307 8775 1 109.50000 418.400000
1850 14307 8776 1 109.50000 418.400000
8775 14307 8776 1 109.50000 418.400000
1879 14308 7414 1 109.50000 418.400000
1879 14308 8778 1 109.50000 418.400000
1879 14308 8779 1 109.50000 418.400000
7414 14308 8778 1 109.50000 418.400000
7414 14308 8779 1 109.50000 418.400000
8778 14308 8779 1 109.50000 418.400000
2786 14309 8780 1 109.50000 418.400000
2786 14309 8781 1 109.50000 418.400000
2786 14309 8782 1 109.50000 418.400000
8780 14309 8781 1 109.50000 418.400000
8780 14309 8782 1 109.50000 418.400000
8781 14309 8782 1 109.50000 418.400000
429 14310 5607 1 109.50000 418.400000
429 14310 8783 1 109.50000 418.400000
429 14310 8784 1 109.50000 418.400000
5607 14310 8783 1 109.50000 418.400000
5607 14310 8784 1 109.50000 418.400000
8783 14310 8784 1 109.50000 418.400000
3006 14311 5305 1 109.50000 418.400000
3006 14311 6641 1 109.50000 418.400000
3006 14311 8785 1 109.50000 418.400000
5305 14311 6641 1 109.50000 418.400000
5305 14311 8785 1 109.50000 418.400000
6641 14311 8785 1 109.50000 418.400000
3067 14312 5005 1 109.50000 418.400000
3067 14312 8786 1 109.50000 418.400000
3067 14312 8787 1 109.50000 418.400000
5005 14312 8786 1 109.50000 418.400000
5005 14312 8787 1 109.50000 418.400000
8786 14312 8787 1 109.50000 418.400000
5212 14313 8674 1 109.50000 418.400000
5212 14313 8788 1 109.50000 418.400000
5212 14313 8789 1 109.50000 418.400000
8674 14313 8788 1 109.50000 418.400000
8674 14313 8789 1 109.50000 418.400000
8788 14313 8789 1 109.50000 418.400000
2763 14314 8790 1 109.50000 418.400000
2763 14314 8791 1 109.50000 418.400000
2763 14314 8792 1 109.50000 418.400000
8790 14314 8791 1 109.50000 418.400000
8790 14314 8792 1 109.50000 418.400000
8791 14314 8792 1 109.50000 418.400000
4645 14315 8793 1 109.50000 418.400000
4645 14315 8794 1 109.50000 418.400000
4645 14315 11326 1 109.50000 418.400000
8793 14315 8794 1 109.50000 418.400000
8793 14315 11326 1 109.50000 418.400000
8794 14315 11326 1 109.50000 418.400000
5631 14316 5674 1 109.50000 418.400000
5631 14316 6092 1 109.50000 418.400000
5631 14316 8795 1 109.50000 418.400000
5674 14316 6092 1 109.50000 418.400000
5674 14316 8795 1 109.50000 418.400000
6092 14316 8795 1 109.50000 418.400000
3610 14317 6521 1 109.50000 418.400000
3610 14317 8796 1 109.50000 418.400000
3610 14317 8797 1 109.50000 418.400000
6521 14317 8796 1 109.50000 418.400000
6521 14317 8797 1 109.50000 418.400000
8796 14317 8797 1 109.50000 418.400000
4932 14318 6306 1 109.50000 418.400000
4932 14318 8798 1 109.50000 418.400000
4932 14318 8799 1 109.50000 418.400000
6306 14318 8798 1 109.50000 418.400000
6306 14318 8799 1 109.50000 418.400000
8798 14318 8799 1 109.50000 418.400000
7555 14319 8800 1 109.50000 418.400000
7555 14319 8801 1 109.50000 418.400000
7555 14319 8802 1 109.50000 418.400000
8800 14319 8801 1 109.50000 418.400000
8800 14319 8802 1 109.50000 418.400000
8801 14319 8802 1 109.50000 418.400000
215 14320 6196 1 109.50000 418.400000
215 14320 8803 1 109.50000 418.400000
215 14320 8804 1 109.50000 418.400000
6196 14320 8803 1 109.50000 418.400000
6196 14320 8804 1 109.50000 418.400000
8803 14320 8804 1 109.50000 418.400000
1954 14321 8805 1 109.50000 418.400000
1954 14321 8806 1 109.50000 418.400000
1954 14321 8807 1 109.50000 418.400000
8805 14321 8806 1 109.50000 418.400000
8805 14321 8807 1 109.50000 418.400000
8806 14321 8807 1 109.50000 418.400000
5615 14322 5670 1 109.50000 418.400000
5615 14322 5821 1 109.50000 418.400000
5615 14322 8808 1 109.50000 418.400000
5670 14322 5821 1 109.50000 418.400000
5670 14322 8808 1 109.50000 418.400000
5821 14322 8808 1 109.50000 418.400000
8804 14323 8809 1 109.50000 418.400000
8804 14323 8810 1 109.50000 418.400000
8804 14323 8811 1 109.50000 418.400000
8809 14323 8810 1 109.50000 418.400000
8809 14323 8811 1 109.50000 418.400000
8810 14323 8811 1 109.50000 418.400000
5206 14324 5207 1 109.50000 418.400000
5206 14324 6503 1 109.50000 418.400000
5206 14324 8812 1 109.50000 418.400000
5207 14324 6503 1 109.50000 418.400000
5207 14324 8812 1 109.50000 418.400000
6503 14324 8812 1 109.50000 418.400000
3838 14325 4964 1 109.50000 418.400000
3838 14325 6719 1 109.50000 418.400000
3838 14325 8814 1 109.50000 418.400000
4964 14325 6719 1 109.50000 418.400000
4964 14325 8814 1 109.50000 418.400000
6719 14325 8814 1 109.50000 418.400000
4899 14326 4900 1 109.50000 418.400000
4899 14326 7224 1 109.50000 418.400000
4899 14326 8816 1 109.50000 418.400000
4900 14326 7224 1 109.50000 418.400000
4900 14326 8816 1 109.50000 418.400000
7224 14326 8816 1 109.50000 418.400000
5338 14327 6780 1 109.50000 418.400000
5338 14327 6781 1 109.50000 418.400000
5338 14327 8817 1 109.50000 418.400000
6780 14327 6781 1 109.50000 418.400000
6780 14327 8817 1 109.50000 418.400000
6781 14327 8817 1 109.50000 418.400000
7548 14328 8818 1 109.50000 418.400000
7548 14328 8819 1 109.50000 418.400000
7548 14328 9922 1 109.50000 418.400000
8818 14328 8819 1 109.50000 418.400000
8818 14328 9922 1 109.50000 418.400000
8819 14328 9922 1 109.50000 418.400000
4684 14329 5275 1 109.50000 418.400000
4684 14329 7412 1 109.50000 418.400000
4684 14329 8820 1 109.50000 418.400000
5275 14329 7412 1 109.50000 418.400000
5275 14329 8820 1 109.50000 418.400000
7412 14329 8820 1 109.50000 418.400000
5182 14330 8821 1 109.50000 418.400000
5182 14330 11307 1 109.50000 418.400000
5182 14330 11403 1 109.50000 418.400000
8821 14330 11307 1 109.50000 418.400000
8821 14330 11403 1 109.50000 418.400000
11307 14330 11403 1 109.50000 418.400000
7450 14331 8823 1 109.50000 418.400000
7450 14331 8824 1 109.50000 418.400000
7450 14331 11006 1 109.50000 418.400000
8823 14331 8824 1 109.50000 418.400000
8823 14331 11006 1 109.50000 418.400000
8824 14331 11006 1 109.50000 418.400000
5315 14332 5813 1 109.50000 418.400000
5315 14332 8307 1 109.50000 418.400000
5315 14332 8825 1 109.50000 418.400000
5813 14332 8307 1 109.50000 418.400000
5813 14332 8825 1 109.50000 418.400000
8307 14332 8825 1 109.50000 418.400000
3210 14333 7543 1 109.50000 418.400000
3210 14333 8666 1 109.50000 418.400000
3210 14333 8667 1 109.50000 418.400000
7543 14333 8666 1 109.50000 418.400000
7543 14333 8667 1 109.50000 418.400000
8666 14333 8667 1 109.50000 418.400000
2605 14334 4304 1 109.50000 418.400000
2605 14334 11309 1 109.50000 418.400000
2605 14334 11313 1 109.50000 418.400000
4304 14334 11309 1 109.50000 418.400000
4304 14334 11313 1 109.50000 418.400000
11309 14334 11313 1 109.50000 418.400000
325 14335 4040 1 109.50000 418.400000
325 14335 6439 1 109.50000 418.400000
325 14335 8642 1 109.50000 418.400000
4040 14335 6439 1 109.50000 418.400000
4040 14335 8642 1 109.50000 418.400000
6439 14335 8642 1 109.50000 418.400000
47 14336 217 1 109.50000 418.400000
47 14336 7159 1 109.50000 418.400000
47 14336 7470 1 109.50000 418.400000
217 14336 7159 1 109.50000 418.400000
217 14336 7470 1 109.50000 418.400000
7159 14336 7470 1 109.50000 418.400000
3461 14337 8827 1 109.50000 418.400000
3461 14337 8828 1 109.50000 418.400000
3461 14337 8829 1 109.50000 418.400000
8827 14337 8828 1 109.50000 418.400000
8827 14337 8829 1 109.50000 418.400000
8828 14337 8829 1 109.50000 418.400000
1007 14338 6259 1 109.50000 418.400000
1007 14338 6357 1 109.50000 418.400000
1007 14338 8830 1 109.50000 418.400000
6259 14338 6357 1 109.50000 418.400000
6259 14338 8830 1 109.50000 418.400000
6357 14338 8830 1 109.50000 418.400000
8831 14339 8832 1 109.50000 418.400000
8831 14339 8833 1 109.50000 418.400000
8831 14339 8834 1 109.50000 418.400000
8832 14339 8833 1 109.50000 418.400000
8832 14339 8834 1 109.50000 418.400000
8833 14339 8834 1 109.50000 418.400000
3020 14340 5070 1 109.50000 418.400000
3020 14340 5323 1 109.50000 418.400000
3020 14340 8835 1 109.50000 418.400000
5070 14340 5323 1 109.50000 418.400000
5070 14340 8835 1 109.50000 418.400000
5323 14340 8835 1 109.50000 418.400000
1606 14341 3257 1 109.50000 418.400000
1606 14341 4614 1 109.50000 418.400000
1606 14341 8836 1 109.50000 418.400000
3257 14341 4614 1 109.50000 418.400000
3257 14341 8836 1 109.50000 418.400000
4614 14341 8836 1 109.50000 418.400000
1094 14342 4980 1 109.50000 418.400000
1094 14342 5957 1 109.50000 418.400000
1094 14342 8837 1 109.50000 418.400000
4980 14342 5957 1 109.50000 418.400000
4980 14342 8837 1 109.50000 418.400000
5957 14342 8837 1 109.50000 418.400000
1254 14343 8838 1 109.50000 418.400000
1254 14343 8839 1 109.50000 418.400000
1254 14343 8840 1 109.50000 418.400000
8838 14343 8839 1 109.50000 418.400000
8838 14343 8840 1 109.50000 418.400000
8839 14343 8840 1 109.50000 418.400000
6131 14344 6636 1 109.50000 418.400000
6131 14344 8841 1 109.50000 418.400000
6131 14344 8842 1 109.50000 418.400000
6636 14344 8841 1 109.50000 418.400000
6636 14344 8842 1 109.50000 418.400000
8841 14344 8842 1 109.50000 418.400000
7892 14345 8094 1 109.50000 418.400000
7892 14345 8843 1 109.50000 418.400000
7892 14345 8844 1 109.50000 418.400000
8094 14345 8843 1 109.50000 418.400000
8094 14345 8844 1 109.50000 418.400000
8843 14345 8844 1 109.50000 418.400000
1482 14346 4548 1 109.50000 418.400000
1482 14346 8845 1 109.50000 418.400000
1482 14346 8846 1 109.50000 418.400000
4548 14346 8845 1 109.50000 418.400000
4548 14346 8846 1 109.50000 418.400000
8845 14346 8846 1 109.50000 418.400000
5208 14347 6167 1 109.50000 418.400000
5208 14347 6170 1 109.50000 418.400000
5208 14347 8847 1 109.50000 418.400000
6167 14347 6170 1 109.50000 418.400000
6167 14347 8847 1 109.50000 418.400000
6170 14347 8847 1 109.50000 418.400000
3756 14348 4192 1 109.50000 418.400000
3756 14348 5933 1 109.50000 418.400000
3756 14348 8849 1 109.50000 418.400000
4192 14348 5933 1 109.50000 418.400000
4192 14348 8849 1 109.50000 418.400000
5933 14348 8849 1 109.50000 418.400000
1768 14349 4525 1 109.50000 418.400000
1768 14349 5084 1 109.50000 418.400000
1768 14349 8850 1 109.50000 418.400000
4525 14349 5084 1 109.50000 418.400000
4525 14349 8850 1 109.50000 418.400000
5084 14349 8850 1 109.50000 418.400000
4701 14350 7064 1 109.50000 418.400000
4701 14350 11312 1 109.50000 418.400000
4701 14350 11398 1 109.50000 418.400000
7064 14350 11312 1 109.50000 418.400000
7064 14350 11398 1 109.50000 418.400000
11312 14350 11398 1 109.50000 418.400000
397 14351 8852 1 109.50000 418.400000
397 14351 8853 1 109.50000 418.400000
397 14351 8854 1 109.50000 418.400000
8852 14351 8853 1 109.50000 418.400000
8852 14351 8854 1 109.50000 418.400000
8853 14351 8854 1 109.50000 418.400000
1774 14352 7441 1 109.50000 418.400000
1774 14352 8198 1 109.50000 418.400000
1774 14352 11305 1 109.50000 418.400000
7441 14352 8198 1 109.50000 418.400000
7441 14352 11305 1 109.50000 418.400000
8198 14352 11305 1 109.50000 418.400000
4347 14353 5629 1 109.50000 418.400000
4347 14353 8856 1 109.50000 418.400000
4347 14353 8857 1 109.50000 418.400000
5629 14353 8856 1 109.50000 418.400000
5629 14353 8857 1 109.50000 418.400000
8856 14353 8857 1 109.50000 418.400000
2873 14354 8858 1 109.50000 418.400000
2873 14354 8859 1 109.50000 418.400000
2873 14354 8860 1 109.50000 418.400000
8858 14354 8859 1 109.50000 418.400000
8858 14354 8860 1 109.50000 418.400000
8859 14354 8860 1 109.50000 418.400000
252 14355 8861 1 109.50000 418.400000
252 14355 8862 1 109.50000 418.400000
252 14355 8863 1 109.50000 418.400000
8861 14355 8862 1 109.50000 418.400000
8861 14355 8863 1 109.50000 418.400000
8862 14355 8863 1 109.50000 418.400000
8866 14356 8867 1 109.50000 418.400000
8866 14356 11313 1 109.50000 418.400000
8866 14356 11314 1 109.50000 418.400000
8867 14356 11313 1 109.50000 418.400000
8867 14356 11314 1 109.50000 418.400000
11313 14356 11314 1 109.50000 418.400000
3112 14357 5160 1 109.50000 418.400000
3112 14357 6426 1 109.50000 418.400000
3112 14357 8868 1 109.50000 418.400000
5160 14357 6426 1 109.50000 418.400000
5160 14357 8868 1 109.50000 418.400000
6426 14357 8868 1 109.50000 418.400000
5491 14358 7325 1 109.50000 418.400000
5491 14358 8870 1 109.50000 418.400000
5491 14358 8871 1 109.50000 418.400000
7325 14358 8870 1 109.50000 418.400000
7325 14358 8871 1 109.50000 418.400000
8870 14358 8871 1 109.50000 418.400000
199 14359 3306 1 109.50000 418.400000
199 14359 6686 1 109.50000 418.400000
199 14359 7402 1 109.50000 418.400000
3306 14359 6686 1 109.50000 418.400000
3306 14359 7402 1 109.50000 418.400000
6686 14359 7402 1 109.50000 418.400000
3392 14360 3781 1 109.50000 418.400000
3392 14360 5083 1 109.50000 418.400000
3392 14360 8872 1 109.50000 418.400000
3781 14360 5083 1 109.50000 418.400000
3781 14360 8872 1 109.50000 418.400000
5083 14360 8872 1 109.50000 418.400000
8873 14361 8874 1 109.50000 418.400000
8873 14361 8875 1 109.50000 418.400000
8873 14361 11165 1 109.50000 418.400000
8874 14361 8875 1 109.50000 418.400000
8874 14361 11165 1 109.50000 418.400000
8875 14361 11165 1 109.50000 418.400000
3525 14362 5307 1 109.50000 418.400000
3525 14362 8877 1 109.50000 418.400000
3525 14362 11376 1 109.50000 418.400000
5307 14362 8877 1 109.50000 418.400000
5307 14362 11376 1 109.50000 418.400000
8877 14362 11376 1 109.50000 418.400000
4674 14363 8878 1 109.50000 418.400000
4674 14363 8879 1 109.50000 418.400000
4674 14363 11360 1 109.50000 418.400000
8878 14363 8879 1 109.50000 418.400000
8878 14363 11360 1 109.50000 418.400000
8879 14363 11360 1 109.50000 418.400000
830 14364 1868 1 109.50000 418.400000
830 14364 3991 1 109.50000 418.400000
830 14364 8880 1 109.50000 418.400000
1868 14364 3991 1 109.50000 418.400000
1868 14364 8880 1 109.50000 418.400000
3991 14364 8880 1 109.50000 418.400000
1096 14365 1610 1 109.50000 418.400000
1096 14365 8881 1 109.50000 418.400000
1096 14365 8882 1 109.50000 418.400000
1610 14365 8881 1 109.50000 418.400000
1610 14365 8882 1 109.50000 418.400000
8881 14365 8882 1 109.50000 418.400000
3251 14366 5609 1 109.50000 418.400000
3251 14366 6254 1 109.50000 418.400000
3251 14366 8883 1 109.50000 418.400000
5609 14366 6254 1 109.50000 418.400000
5609 14366 8883 1 109.50000 418.400000
6254 14366 8883 1 109.50000 418.400000
3646 14367 5053 1 109.50000 418.400000
3646 14367 8884 1 109.50000 418.400000
3646 14367 8885 1 109.50000 418.400000
5053 14367 8884 1 109.50000 418.400000
5053 14367 8885 1 109.50000 418.400000
8884 14367 8885 1 109.50000 418.400000
2807 14368 3049 1 109.50000 418.400000
2807 14368 8886 1 109.50000 418.400000
2807 14368 8887 1 109.50000 418.400000
3049 14368 8886 1 109.50000 418.400000
3049 14368 8887 1 109.50000 418.400000
8886 14368 8887 1 109.50000 418.400000
3506 14369 3966 1 109.50000 418.400000
3506 14369 4918 1 109.50000 418.400000
3506 14369 7059 1 109.50000 418.400000
3966 14369 4918 1 109.50000 418.400000
3966 14369 7059 1 109.50000 418.400000
4918 14369 7059 1 109.50000 418.400000
2534 14370 8888 1 109.50000 418.400000
2534 14370 8889 1 109.50000 418.400000
2534 14370 8890 1 109.50000 418.400000
8888 14370 8889 1 109.50000 418.400000
8888 14370 8890 1 109.50000 418.400000
8889 14370 8890 1 109.50000 418.400000
5154 14371 7487 1 109.50000 418.400000
5154 14371 8891 1 109.50000 418.400000
5154 14371 8892 1 109.50000 418.400000
7487 14371 8891 1 109.50000 418.400000
7487 14371 8892 1 109.50000 418.400000
8891 14371 8892 1 109.50000 418.400000
3723 14372 7214 1 109.50000 418.400000
3723 14372 7216 1 109.50000 418.400000
3723 14372 8893 1 109.50000 418.400000
7214 14372 7216 1 109.50000 418.400000
7214 14372 8893 1 109.50000 418.400000
7216 14372 8893 1 109.50000 418.400000
2693 14373 5978 1 109.50000 418.400000
2693 14373 6190 1 109.50000 418.400000
2693 14373 8895 1 109.50000 418.400000
5978 14373 6190 1 109.50000 418.400000
5978 14373 8895 1 109.50000 418.400000
6190 14373 8895 1 109.50000 418.400000
8075 14374 8896 1 109.50000 418.400000
8075 14374 8897 1 109.50000 418.400000
8075 14374 8898 1 109.50000 418.400000
8896 14374 8897 1 109.50000 418.400000
8896 14374 8898 1 109.50000 418.400000
8897 14374 8898 1 109.50000 418.400000
1817 14375 5732 1 109.50000 418.400000
1817 14375 8631 1 109.50000 418.400000
1817 14375 8899 1 109.50000 418.400000
5732 14375 8631 1 109.50000 418.400000
5732 14375 8899 1 109.50000 418.400000
8631 14375 8899 1 109.50000 418.400000
4960 14376 7053 1 109.50000 418.400000
4960 14376 8900 1 109.50000 418.400000
4960 14376 8901 1 109.50000 418.400000
7053 14376 8900 1 109.50000 418.400000
7053 14376 8901 1 109.50000 418.400000
8900 14376 8901 1 109.50000 418.400000
2360 14377 7922 1 109.50000 418.400000
2360 14377 8902 1 109.50000 418.400000
2360 14377 8903 1 109.50000 418.400000
7922 14377 8902 1 109.50000 418.400000
7922 14377 8903 1 109.50000 418.400000
8902 14377 8903 1 109.50000 418.400000
7653 14378 8904 1 109.50000 418.400000
7653 14378 8905 1 109.50000 418.400000
7653 14378 8906 1 109.50000 418.400000
8904 14378 8905 1 109.50000 418.400000
8904 14378 8906 1 109.50000 418.400000
8905 14378 8906 1 109.50000 418.400000
1753 14379 1759 1 109.50000 418.400000
1753 14379 7369 1 109.50000 418.400000
1753 14379 8907 1 109.50000 418.400000
1759 14379 7369 1 109.50000 418.400000
1759 14379 8907 1 109.50000 418.400000
7369 14379 8907 1 109.50000 418.400000
4256 14380 5014 1 109.50000 418.400000
4256 14380 5746 1 109.50000 418.400000
4256 14380 8285 1 109.50000 418.400000
5014 14380 5746 1 109.50000 418.400000
5014 14380 8285 1 109.50000 418.400000
5746 14380 8285 1 109.50000 418.400000
1339 14381 3998 1 109.50000 418.400000
1339 14381 8909 1 109.50000 418.400000
1339 14381 8910 1 109.50000 418.400000
3998 14381 8909 1 109.50000 418.400000
3998 14381 8910 1 109.50000 418.400000
8909 14381 8910 1 109.50000 418.400000
7576 14382 8334 1 109.50000 418.400000
7576 14382 8911 1 109.50000 418.400000
7576 14382 8912 1 109.50000 418.400000
8334 14382 8911 1 109.50000 418.400000
8334 14382 8912 1 109.50000 418.400000
8911 14382 8912 1 109.50000 418.400000
5971 14383 8755 1 109.50000 418.400000
5971 14383 8914 1 109.50000 418.400000
5971 14383 8915 1 109.50000 418.400000
8755 14383 8914 1 109.50000 418.400000
8755 14383 8915 1 109.50000 418.400000
8914 14383 8915 1 109.50000 418.400000
304 14384 3553 1 109.50000 418.400000
304 14384 5890 1 109.50000 418.400000
304 14384 8917 1 109.50000 418.400000
3553 14384 5890 1 109.50000 418.400000
3553 14384 8917 1 109.50000 418.400000
5890 14384 8917 1 109.50000 418.400000
4123 14385 8918 1 109.50000 418.400000
4123 14385 8919 1 109.50000 418.400000
4123 14385 8920 1 109.50000 418.400000
8918 14385 8919 1 109.50000 418.400000
8918 14385 8920 1 109.50000 418.400000
8919 14385 8920 1 109.50000 418.400000
4568 14386 6156 1 109.50000 418.400000
4568 14386 8921 1 109.50000 418.400000
4568 14386 8922 1 109.50000 418.400000
6156 14386 8921 1 109.50000 418.400000
6156 14386 8922 1 109.50000 418.400000
8921 14386 8922 1 109.50000 418.400000
1939 14387 2165 1 109.50000 418.400000
1939 14387 7449 1 109.50000 418.400000
1939 14387 11256 1 109.50000 418.400000
2165 14387 7449 1 109.50000 418.400000
2165 14387 11256 1 109.50000 418.400000
7449 14387 11256 1 109.50000 418.400000
6205 14388 8924 1 109.50000 418.400000
6205 14388 8925 1 109.50000 418.400000
6205 14388 8926 1 109.50000 418.400000
8924 14388 8925 1 109.50000 418.400000
8924 14388 8926 1 109.50000 418.400000
8925 14388 8926 1 109.50000 418.400000
7510 14389 8407 1 109.50000 418.400000
7510 14389 8927 1 109.50000 418.400000
7510 14389 11166 1 109.50000 418.400000
8407 14389 8927 1 109.50000 418.400000
8407 14389 11166 1 109.50000 418.400000
8927 14389 11166 1 109.50000 418.400000
788 14390 3608 1 109.50000 418.400000
788 14390 4974 1 109.50000 418.400000
788 14390 8929 1 109.50000 418.400000
3608 14390 4974 1 109.50000 418.400000
3608 14390 8929 1 109.50000 418.400000
4974 14390 8929 1 109.50000 418.400000
8930 14391 8931 1 109.50000 418.400000
8930 14391 8932 1 109.50000 418.400000
8930 14391 8933 1 109.50000 418.400000
8931 14391 8932 1 109.50000 418.400000
8931 14391 8933 1 109.50000 418.400000
8932 14391 8933 1 109.50000 418.400000
1253 14392 6609 1 109.50000 418.400000
1253 14392 8934 1 109.50000 418.400000
1253 14392 8935 1 109.50000 418.400000
6609 14392 8934 1 109.50000 418.400000
6609 14392 8935 1 109.50000 418.400000
8934 14392 8935 1 109.50000 418.400000
1164 14393 5514 1 109.50000 418.400000
1164 14393 7958 1 109.50000 418.400000
1164 14393 8936 1 109.50000 418.400000
5514 14393 7958 1 109.50000 418.400000
5514 14393 8936 1 109.50000 418.400000
7958 14393 8936 1 109.50000 418.400000
3476 14394 5828 1 109.50000 418.400000
3476 14394 8937 1 109.50000 418.400000
3476 14394 8938 1 109.50000 418.400000
5828 14394 8937 1 109.50000 418.400000
5828 14394 8938 1 109.50000 418.400000
8937 14394 8938 1 109.50000 418.400000
2579 14395 7057 1 109.50000 418.400000
2579 14395 7903 1 109.50000 418.400000
2579 14395 8939 1 109.50000 418.400000
7057 14395 7903 1 109.50000 418.400000
7057 14395 8939 1 109.50000 418.400000
7903 14395 8939 1 109.50000 418.400000
2705 14396 7558 1 109.50000 418.400000
2705 14396 7584 1 109.50000 418.400000
2705 14396 8940 1 109.50000 418.400000
7558 14396 7584 1 109.50000 418.400000
7558 14396 8940 1 109.50000 418.400000
7584 14396 8940 1 109.50000 418.400000
2954 14397 5970 1 109.50000 418.400000
2954 14397 5973 1 109.50000 418.400000
2954 14397 8941 1 109.50000 418.400000
5970 14397 5973 1 109.50000 418.400000
5970 14397 8941 1 109.50000 418.400000
5973 14397 8941 1 109.50000 418.400000
8943 14398 8944 1 109.50000 418.400000
8943 14398 8945 1 109.50000 418.400000
8943 14398 8946 1 109.50000 418.400000
8944 14398 8945 1 109.50000 418.400000
8944 14398 8946 1 109.50000 418.400000
8945 14398 8946 1 109.50000 418.400000
1695 14399 2785 1 109.50000 418.400000
1695 14399 8947 1 109.50000 418.400000
1695 14399 8948 1 109.50000 418.400000
2785 14399 8947 1 109.50000 418.400000
2785 14399 8948 1 109.50000 418.400000
8947 14399 8948 1 109.50000 418.400000
8949 14400 8950 1 109.50000 418.400000
8949 14400 8951 1 109.50000 418.400000
8949 14400 8952 1 109.50000 418.400000
8950 14400 8951 1 109.50000 418.400000
8950 14400 8952 1 109.50000 418.400000
8951 14400 8952 1 109.50000 418.400000
1740 14401 2379 1 109.50000 418.400000
1740 14401 4546 1 109.50000 418.400000
1740 14401 8953 1 109.50000 418.400000
2379 14401 4546 1 109.50000 418.400000
2379 14401 8953 1 109.50000 418.400000
4546 14401 8953 1 109.50000 418.400000
2876 14402 8954 1 109.50000 418.400000
2876 14402 8955 1 109.50000 418.400000
2876 14402 8956 1 109.50000 418.400000
8954 14402 8955 1 109.50000 418.400000
8954 14402 8956 1 109.50000 418.400000
8955 14402 8956 1 109.50000 418.400000
7989 14403 8957 1 109.50000 418.400000
7989 14403 8958 1 109.50000 418.400000
7989 14403 8959 1 109.50000 418.400000
8957 14403 8958 1 109.50000 418.400000
8957 14403 8959 1 109.50000 418.400000
8958 14403 8959 1 109.50000 418.400000
2650 14404 5326 1 109.50000 418.400000
2650 14404 5363 1 109.50000 418.400000
2650 14404 5382 1 109.50000 418.400000
5326 14404 5363 1 109.50000 418.400000
5326 14404 5382 1 109.50000 418.400000
5363 14404 5382 1 109.50000 418.400000
424 14405 638 1 109.50000 418.400000
424 14405 5150 1 109.50000 418.400000
424 14405 8960 1 109.50000 418.400000
638 14405 5150 1 109.50000 418.400000
638 14405 8960 1 109.50000 418.400000
5150 14405 8960 1 109.50000 418.400000
1465 14406 5851 1 109.50000 418.400000
1465 14406 8248 1 109.50000 418.400000
1465 14406 8963 1 109.50000 418.400000
5851 14406 8248 1 109.50000 418.400000
5851 14406 8963 1 109.50000 418.400000
8248 14406 8963 1 109.50000 418.400000
8129 14407 8964 1 109.50000 418.400000
8129 14407 8965 1 109.50000 418.400000
8129 14407 8966 1 109.50000 418.400000
8964 14407 8965 1 109.50000 418.400000
8964 14407 8966 1 109.50000 418.400000
8965 14407 8966 1 109.50000 418.400000
1729 14408 3174 1 109.50000 418.400000
1729 14408 8960 1 109.50000 418.400000
1729 14408 8967 1 109.50000 418.400000
3174 14408 8960 1 109.50000 418.400000
3174 14408 8967 1 109.50000 418.400000
8960 14408 8967 1 109.50000 418.400000
7224 14409 7225 1 109.50000 418.400000
7224 14409 8968 1 109.50000 418.400000
7224 14409 8969 1 109.50000 418.400000
7225 14409 8968 1 109.50000 418.400000
7225 14409 8969 1 109.50000 418.400000
8968 14409 8969 1 109.50000 418.400000
1518 14410 3058 1 109.50000 418.400000
1518 14410 4201 1 109.50000 418.400000
1518 14410 7266 1 109.50000 418.400000
3058 14410 4201 1 109.50000 418.400000
3058 14410 7266 1 109.50000 418.400000
4201 14410 7266 1 109.50000 418.400000
4732 14411 8971 1 109.50000 418.400000
4732 14411 8972 1 109.50000 418.400000
4732 14411 8973 1 109.50000 418.400000
8971 14411 8972 1 109.50000 418.400000
8971 14411 8973 1 109.50000 418.400000
8972 14411 8973 1 109.50000 418.400000
2800 14412 2802 1 109.50000 418.400000
2800 14412 8977 1 109.50000 418.400000
2800 14412 8978 1 109.50000 418.400000
2802 14412 8977 1 109.50000 418.400000
2802 14412 8978 1 109.50000 418.400000
8977 14412 8978 1 109.50000 418.400000
8385 14413 8979 1 109.50000 418.400000
8385 14413 8980 1 109.50000 418.400000
8385 14413 8981 1 109.50000 418.400000
8979 14413 8980 1 109.50000 418.400000
8979 14413 8981 1 109.50000 418.400000
8980 14413 8981 1 109.50000 418.400000
5624 14414 5936 1 109.50000 418.400000
5624 14414 8982 1 109.50000 418.400000
5624 14414 8983 1 109.50000 418.400000
5936 14414 8982 1 109.50000 418.400000
5936 14414 8983 1 109.50000 418.400000
8982 14414 8983 1 109.50000 418.400000
2666 14415 5800 1 109.50000 418.400000
2666 14415 8984 1 109.50000 418.400000
2666 14415 8985 1 109.50000 418.400000
5800 14415 8984 1 109.50000 418.400000
5800 14415 8985 1 109.50000 418.400000
8984 14415 8985 1 109.50000 418.400000
1200 14416 1304 1 109.50000 418.400000
1200 14416 1305 1 109.50000 418.400000
1200 14416 3190 1 109.50000 418.400000
1304 14416 1305 1 109.50000 418.400000
1304 14416 3190 1 109.50000 418.400000
1305 14416 3190 1 109.50000 418.400000
8016 14417 8987 1 109.50000 418.400000
8016 14417 8988 1 109.50000 418.400000
8016 14417 8989 1 109.50000 418.400000
8987 14417 8988 1 109.50000 418.400000
8987 14417 8989 1 109.50000 418.400000
8988 14417 8989 1 109.50000 418.400000
3772 14418 6488 1 109.50000 418.400000
3772 14418 8990 1 109.50000 418.400000
3772 14418 11271 1 109.50000 418.400000
6488 14418 8990 1 109.50000 418.400000
6488 14418 11271 1 109.50000 418.400000
8990 14418 11271 1 109.50000 418.400000
5863 14419 6075 1 109.50000 418.400000
5863 14419 7049 1 109.50000 418.400000
5863 14419 7504 1 109.50000 418.400000
6075 14419 7049 1 109.50000 418.400000
6075 14419 7504 1 109.50000 418.400000
7049 14419 7504 1 109.50000 418.400000
849 14420 4266 1 109.50000 418.400000
849 14420 8991 1 109.50000 418.400000
849 14420 8992 1 109.50000 418.400000
4266 14420 8991 1 109.50000 418.400000
4266 14420 8992 1 109.50000 418.400000
8991 14420 8992 1 109.50000 418.400000
702 14421 8527 1 109.50000 418.400000
702 14421 8993 1 109.50000 418.400000
702 14421 8994 1 109.50000 418.400000
8527 14421 8993 1 109.50000 418.400000
8527 14421 8994 1 109.50000 418.400000
8993 14421 8994 1 109.50000 418.400000
1098 14422 6160 1 109.50000 418.400000
1098 14422 8549 1 109.50000 418.400000
1098 14422 8995 1 109.50000 418.400000
6160 14422 8549 1 109.50000 418.400000
6160 14422 8995 1 109.50000 418.400000
8549 14422 8995 1 109.50000 418.400000
6256 14423 6258 1 109.50000 418.400000
6256 14423 6884 1 109.50000 418.400000
6256 14423 8271 1 109.50000 418.400000
6258 14423 6884 1 109.50000 418.400000
6258 14423 8271 1 109.50000 418.400000
6884 14423 8271 1 109.50000 418.400000
6973 14424 7356 1 109.50000 418.400000
6973 14424 8996 1 109.50000 418.400000
6973 14424 8997 1 109.50000 418.400000
7356 14424 8996 1 109.50000 418.400000
7356 14424 8997 1 109.50000 418.400000
8996 14424 8997 1 109.50000 418.400000
6074 14425 7503 1 109.50000 418.400000
6074 14425 8282 1 109.50000 418.400000
6074 14425 8283 1 109.50000 418.400000
7503 14425 8282 1 109.50000 418.400000
7503 14425 8283 1 109.50000 418.400000
8282 14425 8283 1 109.50000 418.400000
5926 14426 8196 1 109.50000 418.400000
5926 14426 8999 1 109.50000 418.400000
5926 14426 9000 1 109.50000 418.400000
8196 14426 8999 1 109.50000 418.400000
8196 14426 9000 1 109.50000 418.400000
8999 14426 9000 1 109.50000 418.400000
5555 14427 9002 1 109.50000 418.400000
5555 14427 9003 1 109.50000 418.400000
5555 14427 9004 1 109.50000 418.400000
9002 14427 9003 1 109.50000 418.400000
9002 14427 9004 1 109.50000 418.400000
9003 14427 9004 1 109.50000 418.400000
3983 14428 5833 1 109.50000 418.400000
3983 14428 9005 1 109.50000 418.400000
3983 14428 11273 1 109.50000 418.400000
5833 14428 9005 1 109.50000 418.400000
5833 14428 11273 1 109.50000 418.400000
9005 14428 11273 1 109.50000 418.400000
1347 14429 9006 1 109.50000 418.400000
1347 14429 9007 1 109.50000 418.400000
1347 14429 9008 1 109.50000 418.400000
9006 14429 9007 1 109.50000 418.400000
9006 14429 9008 1 109.50000 418.400000
9007 14429 9008 1 109.50000 418.400000
2132 14430 6633 1 109.50000 418.400000
2132 14430 8827 1 109.50000 418.400000
2132 14430 9009 1 109.50000 418.400000
6633 14430 8827 1 109.50000 418.400000
6633 14430 9009 1 109.50000 418.400000
8827 14430 9009 1 109.50000 418.400000
4356 14431 6106 1 109.50000 418.400000
4356 14431 9013 1 109.50000 418.400000
4356 14431 9014 1 109.50000 418.400000
6106 14431 9013 1 109.50000 418.400000
6106 14431 9014 1 109.50000 418.400000
9013 14431 9014 1 109.50000 418.400000
8252 14432 9015 1 109.50000 418.400000
8252 14432 9017 1 109.50000 418.400000
8252 14432 10315 1 109.50000 418.400000
9015 14432 9017 1 109.50000 418.400000
9015 14432 10315 1 109.50000 418.400000
9017 14432 10315 1 109.50000 418.400000
549 14433 3741 1 109.50000 418.400000
549 14433 7803 1 109.50000 418.400000
549 14433 9018 1 109.50000 418.400000
3741 14433 7803 1 109.50000 418.400000
3741 14433 9018 1 109.50000 418.400000
7803 14433 9018 1 109.50000 418.400000
2438 14434 3891 1 109.50000 418.400000
2438 14434 6184 1 109.50000 418.400000
2438 14434 9019 1 109.50000 418.400000
3891 14434 6184 1 109.50000 418.400000
3891 14434 9019 1 109.50000 418.400000
6184 14434 9019 1 109.50000 418.400000
3902 14435 4470 1 109.50000 418.400000
3902 14435 9020 1 109.50000 418.400000
3902 14435 9021 1 109.50000 418.400000
4470 14435 9020 1 109.50000 418.400000
4470 14435 9021 1 109.50000 418.400000
9020 14435 9021 1 109.50000 418.400000
5559 14436 8071 1 109.50000 418.400000
5559 14436 9022 1 109.50000 418.400000
5559 14436 9023 1 109.50000 418.400000
8071 14436 9022 1 109.50000 418.400000
8071 14436 9023 1 109.50000 418.400000
9022 14436 9023 1 109.50000 418.400000
7936 14437 9026 1 109.50000 418.400000
7936 14437 9027 1 109.50000 418.400000
7936 14437 9028 1 109.50000 418.400000
9026 14437 9027 1 109.50000 418.400000
9026 14437 9028 1 109.50000 418.400000
9027 14437 9028 1 109.50000 418.400000
7045 14438 8941 1 109.50000 418.400000
7045 14438 9029 1 109.50000 418.400000
7045 14438 9030 1 109.50000 418.400000
8941 14438 9029 1 109.50000 418.400000
8941 14438 9030 1 109.50000 418.400000
9029 14438 9030 1 109.50000 418.400000
3544 14439 9031 1 109.50000 418.400000
3544 14439 9032 1 109.50000 418.400000
3544 14439 9033 1 109.50000 418.400000
9031 14439 9032 1 109.50000 418.400000
9031 14439 9033 1 109.50000 418.400000
9032 14439 9033 1 109.50000 418.400000
1328 14440 4875 1 109.50000 418.400000
1328 14440 6236 1 109.50000 418.400000
1328 14440 9034 1 109.50000 418.400000
4875 14440 6236 1 109.50000 418.400000
4875 14440 9034 1 109.50000 418.400000
6236 14440 9034 1 109.50000 418.400000
4535 14441 5828 1 109.50000 418.400000
4535 14441 5829 1 109.50000 418.400000
4535 14441 6960 1 109.50000 418.400000
5828 14441 5829 1 109.50000 418.400000
5828 14441 6960 1 109.50000 418.400000
5829 14441 6960 1 109.50000 418.400000
1466 14442 3017 1 109.50000 418.400000
1466 14442 9036 1 109.50000 418.400000
1466 14442 9037 1 109.50000 418.400000
3017 14442 9036 1 109.50000 418.400000
3017 14442 9037 1 109.50000 418.400000
9036 14442 9037 1 109.50000 418.400000
2703 14443 4770 1 109.50000 418.400000
2703 14443 9038 1 109.50000 418.400000
2703 14443 9039 1 109.50000 418.400000
4770 14443 9038 1 109.50000 418.400000
4770 14443 9039 1 109.50000 418.400000
9038 14443 9039 1 109.50000 418.400000
6485 14444 9040 1 109.50000 418.400000
6485 14444 9042 1 109.50000 418.400000
6485 14444 9043 1 109.50000 418.400000
9040 14444 9042 1 109.50000 418.400000
9040 14444 9043 1 109.50000 418.400000
9042 14444 9043 1 109.50000 418.400000
2351 14445 3317 1 109.50000 418.400000
2351 14445 5078 1 109.50000 418.400000
2351 14445 9044 1 109.50000 418.400000
3317 14445 5078 1 109.50000 418.400000
3317 14445 9044 1 109.50000 418.400000
5078 14445 9044 1 109.50000 418.400000
117 14446 6388 1 109.50000 418.400000
117 14446 8806 1 109.50000 418.400000
117 14446 9045 1 109.50000 418.400000
6388 14446 8806 1 109.50000 418.400000
6388 14446 9045 1 109.50000 418.400000
8806 14446 9045 1 109.50000 418.400000
7928 14447 8360 1 109.50000 418.400000
7928 14447 9046 1 109.50000 418.400000
7928 14447 9047 1 109.50000 418.400000
8360 14447 9046 1 109.50000 418.400000
8360 14447 9047 1 109.50000 418.400000
9046 14447 9047 1 109.50000 418.400000
2288 14448 5838 1 109.50000 418.400000
2288 14448 9049 1 109.50000 418.400000
2288 14448 9050 1 109.50000 418.400000
5838 14448 9049 1 109.50000 418.400000
5838 14448 9050 1 109.50000 418.400000
9049 14448 9050 1 109.50000 418.400000
6365 14449 8381 1 109.50000 418.400000
6365 14449 9051 1 109.50000 418.400000
6365 14449 9052 1 109.50000 418.400000
8381 14449 9051 1 109.50000 418.400000
8381 14449 9052 1 109.50000 418.400000
9051 14449 9052 1 109.50000 418.400000
2811 14450 5037 1 109.50000 418.400000
2811 14450 7070 1 109.50000 418.400000
2811 14450 9053 1 109.50000 418.400000
5037 14450 7070 1 109.50000 418.400000
5037 14450 9053 1 109.50000 418.400000
7070 14450 9053 1 109.50000 418.400000
1563 14451 9054 1 109.50000 418.400000
1563 14451 9055 1 109.50000 418.400000
1563 14451 11267 1 109.50000 418.400000
9054 14451 9055 1 109.50000 418.400000
9054 14451 11267 1 109.50000 418.400000
9055 14451 11267 1 109.50000 418.400000
722 14452 724 1 109.50000 418.400000
722 14452 2383 1 109.50000 418.400000
722 14452 4214 1 109.50000 418.400000
724 14452 2383 1 109.50000 418.400000
724 14452 4214 1 109.50000 418.400000
2383 14452 4214 1 109.50000 418.400000
5602 14453 7375 1 109.50000 418.400000
5602 14453 8530 1 109.50000 418.400000
5602 14453 9056 1 109.50000 418.400000
7375 14453 8530 1 109.50000 418.400000
7375 14453 9056 1 109.50000 418.400000
8530 14453 9056 1 109.50000 418.400000
6793 14454 9057 1 109.50000 418.400000
6793 14454 9058 1 109.50000 418.400000
6793 14454 9059 1 109.50000 418.400000
9057 14454 9058 1 109.50000 418.400000
9057 14454 9059 1 109.50000 418.400000
9058 14454 9059 1 109.50000 418.400000
7061 14455 7063 1 109.50000 418.400000
7061 14455 8913 1 109.50000 418.400000
7061 14455 9060 1 109.50000 418.400000
7063 14455 8913 1 109.50000 418.400000
7063 14455 9060 1 109.50000 418.400000
8913 14455 9060 1 109.50000 418.400000
6875 14456 9062 1 109.50000 418.400000
6875 14456 9063 1 109.50000 418.400000
6875 14456 9064 1 109.50000 418.400000
9062 14456 9063 1 109.50000 418.400000
9062 14456 9064 1 109.50000 418.400000
9063 14456 9064 1 109.50000 418.400000
1177 14457 2276 1 109.50000 418.400000
1177 14457 6421 1 109.50000 418.400000
1177 14457 9065 1 109.50000 418.400000
2276 14457 6421 1 109.50000 418.400000
2276 14457 9065 1 109.50000 418.400000
6421 14457 9065 1 109.50000 418.400000
1182 14458 2335 1 109.50000 418.400000
1182 14458 6774 1 109.50000 418.400000
1182 14458 9066 1 109.50000 418.400000
2335 14458 6774 1 109.50000 418.400000
2335 14458 9066 1 109.50000 418.400000
6774 14458 9066 1 109.50000 418.400000
3968 14459 6918 1 109.50000 418.400000
3968 14459 9068 1 109.50000 418.400000
3968 14459 10459 1 109.50000 418.400000
6918 14459 9068 1 109.50000 418.400000
6918 14459 10459 1 109.50000 418.400000
9068 14459 10459 1 109.50000 418.400000
4484 14460 4989 1 109.50000 418.400000
4484 14460 9070 1 109.50000 418.400000
4484 14460 9071 1 109.50000 418.400000
4989 14460 9070 1 109.50000 418.400000
4989 14460 9071 1 109.50000 418.400000
9070 14460 9071 1 109.50000 418.400000
4760 14461 4761 1 109.50000 418.400000
4760 14461 8148 1 109.50000 418.400000
4760 14461 9072 1 109.50000 418.400000
4761 14461 8148 1 109.50000 418.400000
4761 14461 9072 1 109.50000 418.400000
8148 14461 9072 1 109.50000 418.400000
4672 14462 5901 1 109.50000 418.400000
4672 14462 9074 1 109.50000 418.400000
4672 14462 9075 1 109.50000 418.400000
5901 14462 9074 1 109.50000 418.400000
5901 14462 9075 1 109.50000 418.400000
9074 14462 9075 1 109.50000 418.400000
9076 14463 9077 1 109.50000 418.400000
9076 14463 9078 1 109.50000 418.400000
9076 14463 9079 1 109.50000 418.400000
9077 14463 9078 1 109.50000 418.400000
9077 14463 9079 1 109.50000 418.400000
9078 14463 9079 1 109.50000 418.400000
4904 14464 9080 1 109.50000 418.400000
4904 14464 9081 1 109.50000 418.400000
4904 14464 9083 1 109.50000 418.400000
9080 14464 9081 1 109.50000 418.400000
9080 14464 9083 1 109.50000 418.400000
9081 14464 9083 1 109.50000 418.400000
5795 14465 7269 1 109.50000 418.400000
5795 14465 8397 1 109.50000 418.400000
5795 14465 9084 1 109.50000 418.400000
7269 14465 8397 1 109.50000 418.400000
7269 14465 9084 1 109.50000 418.400000
8397 14465 9084 1 109.50000 418.400000
3734 14466 5329 1 109.50000 418.400000
3734 14466 6336 1 109.50000 418.400000
3734 14466 6337 1 109.50000 418.400000
5329 14466 6336 1 109.50000 418.400000
5329 14466 6337 1 109.50000 418.400000
6336 14466 6337 1 109.50000 418.400000
6165 14467 6620 1 109.50000 418.400000
6165 14467 6622 1 109.50000 418.400000
6165 14467 9086 1 109.50000 418.400000
6620 14467 6622 1 109.50000 418.400000
6620 14467 9086 1 109.50000 418.400000
6622 14467 9086 1 109.50000 418.400000
453 14468 1519 1 109.50000 418.400000
453 14468 7381 1 109.50000 418.400000
453 14468 9087 1 109.50000 418.400000
1519 14468 7381 1 109.50000 418.400000
1519 14468 9087 1 109.50000 418.400000
7381 14468 9087 1 109.50000 418.400000
435 14469 9091 1 109.50000 418.400000
435 14469 9092 1 109.50000 418.400000
435 14469 9093 1 109.50000 418.400000
9091 14469 9092 1 109.50000 418.400000
9091 14469 9093 1 109.50000 418.400000
9092 14469 9093 1 109.50000 418.400000
5546 14470 9093 1 109.50000 418.400000
5546 14470 9094 1 109.50000 418.400000
5546 14470 9095 1 109.50000 418.400000
9093 14470 9094 1 109.50000 418.400000
9093 14470 9095 1 109.50000 418.400000
9094 14470 9095 1 109.50000 418.400000
6499 14471 9081 1 109.50000 418.400000
6499 14471 9096 1 109.50000 418.400000
6499 14471 9097 1 109.50000 418.400000
9081 14471 9096 1 109.50000 418.400000
9081 14471 9097 1 109.50000 418.400000
9096 14471 9097 1 109.50000 418.400000
3605 14472 8424 1 109.50000 418.400000
3605 14472 9099 1 109.50000 418.400000
3605 14472 9100 1 109.50000 418.400000
8424 14472 9099 1 109.50000 418.400000
8424 14472 9100 1 109.50000 418.400000
9099 14472 9100 1 109.50000 418.400000
5564 14473 6312 1 109.50000 418.400000
5564 14473 9101 1 109.50000 418.400000
5564 14473 9102 1 109.50000 418.400000
6312 14473 9101 1 109.50000 418.400000
6312 14473 9102 1 109.50000 418.400000
9101 14473 9102 1 109.50000 418.400000
7202 14474 9105 1 109.50000 418.400000
7202 14474 9106 1 109.50000 418.400000
7202 14474 9107 1 109.50000 418.400000
9105 14474 9106 1 109.50000 418.400000
9105 14474 9107 1 109.50000 418.400000
9106 14474 9107 1 109.50000 418.400000
4428 14475 7498 1 109.50000 418.400000
4428 14475 7518 1 109.50000 418.400000
4428 14475 9108 1 109.50000 418.400000
7498 14475 7518 1 109.50000 418.400000
7498 14475 9108 1 109.50000 418.400000
7518 14475 9108 1 109.50000 418.400000
6708 14476 8322 1 109.50000 418.400000
6708 14476 9060 1 109.50000 418.400000
6708 14476 9109 1 109.50000 418.400000
8322 14476 9060 1 109.50000 418.400000
8322 14476 9109 1 109.50000 418.400000
9060 14476 9109 1 109.50000 418.400000
6174 14477 7712 1 109.50000 418.400000
6174 14477 9110 1 109.50000 418.400000
6174 14477 9112 1 109.50000 418.400000
7712 14477 9110 1 109.50000 418.400000
7712 14477 9112 1 109.50000 418.400000
9110 14477 9112 1 109.50000 418.400000
5942 14478 6487 1 109.50000 418.400000
5942 14478 6488 1 109.50000 418.400000
5942 14478 9113 1 109.50000 418.400000
6487 14478 6488 1 109.50000 418.400000
6487 14478 9113 1 109.50000 418.400000
6488 14478 9113 1 109.50000 418.400000
4219 14479 9114 1 109.50000 418.400000
4219 14479 9115 1 109.50000 418.400000
4219 14479 9116 1 109.50000 418.400000
9114 14479 9115 1 109.50000 418.400000
9114 14479 9116 1 109.50000 418.400000
9115 14479 9116 1 109.50000 418.400000
7786 14480 9117 1 109.50000 418.400000
7786 14480 9118 1 109.50000 418.400000
7786 14480 9120 1 109.50000 418.400000
9117 14480 9118 1 109.50000 418.400000
9117 14480 9120 1 109.50000 418.400000
9118 14480 9120 1 109.50000 418.400000
7724 14481 8033 1 109.50000 418.400000
7724 14481 9121 1 109.50000 418.400000
7724 14481 9122 1 109.50000 418.400000
8033 14481 9121 1 109.50000 418.400000
8033 14481 9122 1 109.50000 418.400000
9121 14481 9122 1 109.50000 418.400000
5042 14482 9123 1 109.50000 418.400000
5042 14482 9124 1 109.50000 418.400000
5042 14482 9125 1 109.50000 418.400000
9123 14482 9124 1 109.50000 418.400000
9123 14482 9125 1 109.50000 418.400000
9124 14482 9125 1 109.50000 418.400000
3205 14483 9107 1 109.50000 418.400000
3205 14483 9127 1 109.50000 418.400000
3205 14483 9128 1 109.50000 418.400000
9107 14483 9127 1 109.50000 418.400000
9107 14483 9128 1 109.50000 418.400000
9127 14483 9128 1 109.50000 418.400000
1192 14484 5619 1 109.50000 418.400000
1192 14484 5625 1 109.50000 418.400000
1192 14484 7699 1 109.50000 418.400000
5619 14484 5625 1 109.50000 418.400000
5619 14484 7699 1 109.50000 418.400000
5625 14484 7699 1 109.50000 418.400000
1378 14485 4375 1 109.50000 418.400000
1378 14485 8737 1 109.50000 418.400000
1378 14485 9129 1 109.50000 418.400000
4375 14485 8737 1 109.50000 418.400000
4375 14485 9129 1 109.50000 418.400000
8737 14485 9129 1 109.50000 418.400000
9130 14486 9131 1 109.50000 418.400000
9130 14486 9132 1 109.50000 418.400000
9130 14486 9133 1 109.50000 418.400000
9131 14486 9132 1 109.50000 418.400000
9131 14486 9133 1 109.50000 418.400000
9132 14486 9133 1 109.50000 418.400000
1621 14487 2525 1 109.50000 418.400000
1621 14487 7275 1 109.50000 418.400000
1621 14487 8699 1 109.50000 418.400000
2525 14487 7275 1 109.50000 418.400000
2525 14487 8699 1 109.50000 418.400000
7275 14487 8699 1 109.50000 418.400000
3326 14488 3328 1 109.50000 418.400000
3326 14488 4686 1 109.50000 418.400000
3326 14488 4893 1 109.50000 418.400000
3328 14488 4686 1 109.50000 418.400000
3328 14488 4893 1 109.50000 418.400000
4686 14488 4893 1 109.50000 418.400000
1334 14489 3691 1 109.50000 418.400000
1334 14489 9135 1 109.50000 418.400000
1334 14489 9136 1 109.50000 418.400000
3691 14489 9135 1 109.50000 418.400000
3691 14489 9136 1 109.50000 418.400000
9135 14489 9136 1 109.50000 418.400000
1445 14490 7010 1 109.50000 418.400000
1445 14490 9137 1 109.50000 418.400000
1445 14490 9138 1 109.50000 418.400000
7010 14490 9137 1 109.50000 418.400000
7010 14490 9138 1 109.50000 418.400000
9137 14490 9138 1 109.50000 418.400000
2827 14491 5097 1 109.50000 418.400000
2827 14491 7206 1 109.50000 418.400000
2827 14491 9141 1 109.50000 418.400000
5097 14491 7206 1 109.50000 418.400000
5097 14491 9141 1 109.50000 418.400000
7206 14491 9141 1 109.50000 418.400000
2076 14492 8157 1 109.50000 418.400000
2076 14492 9019 1 109.50000 418.400000
2076 14492 9142 1 109.50000 418.400000
8157 14492 9019 1 109.50000 418.400000
8157 14492 9142 1 109.50000 418.400000
9019 14492 9142 1 109.50000 418.400000
367 14493 7898 1 109.50000 418.400000
367 14493 8366 1 109.50000 418.400000
367 14493 9145 1 109.50000 418.400000
7898 14493 8366 1 109.50000 418.400000
7898 14493 9145 1 109.50000 418.400000
8366 14493 9145 1 109.50000 418.400000
2881 14494 3960 1 109.50000 418.400000
2881 14494 7867 1 109.50000 418.400000
2881 14494 7993 1 109.50000 418.400000
3960 14494 7867 1 109.50000 418.400000
3960 14494 7993 1 109.50000 418.400000
7867 14494 7993 1 109.50000 418.400000
2489 14495 5655 1 109.50000 418.400000
2489 14495 8753 1 109.50000 418.400000
2489 14495 9148 1 109.50000 418.400000
5655 14495 8753 1 109.50000 418.400000
5655 14495 9148 1 109.50000 418.400000
8753 14495 9148 1 109.50000 418.400000
5605 14496 9149 1 109.50000 418.400000
5605 14496 9150 1 109.50000 418.400000
5605 14496 9151 1 109.50000 418.400000
9149 14496 9150 1 109.50000 418.400000
9149 14496 9151 1 109.50000 418.400000
9150 14496 9151 1 109.50000 418.400000
7420 14497 9152 1 109.50000 418.400000
7420 14497 9153 1 109.50000 418.400000
7420 14497 9154 1 109.50000 418.400000
9152 14497 9153 1 109.50000 418.400000
9152 14497 9154 1 109.50000 418.400000
9153 14497 9154 1 109.50000 418.400000
4625 14498 5562 1 109.50000 418.400000
4625 14498 7334 1 109.50000 418.400000
4625 14498 9155 1 109.50000 418.400000
5562 14498 7334 1 109.50000 418.400000
5562 14498 9155 1 109.50000 418.400000
7334 14498 9155 1 109.50000 418.400000
1505 14499 3583 1 109.50000 418.400000
1505 14499 9156 1 109.50000 418.400000
1505 14499 9157 1 109.50000 418.400000
3583 14499 9156 1 109.50000 418.400000
3583 14499 9157 1 109.50000 418.400000
9156 14499 9157 1 109.50000 418.400000
2505 14500 2507 1 109.50000 418.400000
2505 14500 5438 1 109.50000 418.400000
2505 14500 9158 1 109.50000 418.400000
2507 14500 5438 1 109.50000 418.400000
2507 14500 9158 1 109.50000 418.400000
5438 14500 9158 1 109.50000 418.400000
7748 14501 9160 1 109.50000 418.400000
7748 14501 9161 1 109.50000 418.400000
7748 14501 9162 1 109.50000 418.400000
9160 14501 9161 1 109.50000 418.400000
9160 14501 9162 1 109.50000 418.400000
9161 14501 9162 1 109.50000 418.400000
3431 14502 9163 1 109.50000 418.400000
3431 14502 9164 1 109.50000 418.400000
3431 14502 9165 1 109.50000 418.400000
9163 14502 9164 1 109.50000 418.400000
9163 14502 9165 1 109.50000 418.400000
9164 14502 9165 1 109.50000 418.400000
8258 14503 8871 1 109.50000 418.400000
8258 14503 9166 1 109.50000 418.400000
8258 14503 9167 1 109.50000 418.400000
8871 14503 9166 1 109.50000 418.400000
8871 14503 9167 1 109.50000 418.400000
9166 14503 9167 1 109.50000 418.400000
2163 14504 4480 1 109.50000 418.400000
2163 14504 5434 1 109.50000 418.400000
2163 14504 9110 1 109.50000 418.400000
4480 14504 5434 1 109.50000 418.400000
4480 14504 9110 1 109.50000 418.400000
5434 14504 9110 1 109.50000 418.400000
351 14505 1775 1 109.50000 418.400000
351 14505 2869 1 109.50000 418.400000
351 14505 9169 1 109.50000 418.400000
1775 14505 2869 1 109.50000 418.400000
1775 14505 9169 1 109.50000 418.400000
2869 14505 9169 1 109.50000 418.400000
1058 14506 6661 1 109.50000 418.400000
1058 14506 7014 1 109.50000 418.400000
1058 14506 9084 1 109.50000 418.400000
6661 14506 7014 1 109.50000 418.400000
6661 14506 9084 1 109.50000 418.400000
7014 14506 9084 1 109.50000 418.400000
3911 14507 8395 1 109.50000 418.400000
3911 14507 9170 1 109.50000 418.400000
3911 14507 9171 1 109.50000 418.400000
8395 14507 9170 1 109.50000 418.400000
8395 14507 9171 1 109.50000 418.400000
9170 14507 9171 1 109.50000 418.400000
786 14508 2180 1 109.50000 418.400000
786 14508 3607 1 109.50000 418.400000
786 14508 9173 1 109.50000 418.400000
2180 14508 3607 1 109.50000 418.400000
2180 14508 9173 1 109.50000 418.400000
3607 14508 9173 1 109.50000 418.400000
6253 14509 7246 1 109.50000 418.400000
6253 14509 9176 1 109.50000 418.400000
6253 14509 9177 1 109.50000 418.400000
7246 14509 9176 1 109.50000 418.400000
7246 14509 9177 1 109.50000 418.400000
9176 14509 9177 1 109.50000 418.400000
7495 14510 7857 1 109.50000 418.400000
7495 14510 8721 1 109.50000 418.400000
7495 14510 9178 1 109.50000 418.400000
7857 14510 8721 1 109.50000 418.400000
7857 14510 9178 1 109.50000 418.400000
8721 14510 9178 1 109.50000 418.400000
8105 14511 8106 1 109.50000 418.400000
8105 14511 9179 1 109.50000 418.400000
8105 14511 9181 1 109.50000 418.400000
8106 14511 9179 1 109.50000 418.400000
8106 14511 9181 1 109.50000 418.400000
9179 14511 9181 1 109.50000 418.400000
888 14512 8499 1 109.50000 418.400000
888 14512 9182 1 109.50000 418.400000
888 14512 10755 1 109.50000 418.400000
8499 14512 9182 1 109.50000 418.400000
8499 14512 10755 1 109.50000 418.400000
9182 14512 10755 1 109.50000 418.400000
4467 14513 7166 1 109.50000 418.400000
4467 14513 7779 1 109.50000 418.400000
4467 14513 8461 1 109.50000 418.400000
7166 14513 7779 1 109.50000 418.400000
7166 14513 8461 1 109.50000 418.400000
7779 14513 8461 1 109.50000 418.400000
4434 14514 6199 1 109.50000 418.400000
4434 14514 9183 1 109.50000 418.400000
4434 14514 9184 1 109.50000 418.400000
6199 14514 9183 1 109.50000 418.400000
6199 14514 9184 1 109.50000 418.400000
9183 14514 9184 1 109.50000 418.400000
1647 14515 6689 1 109.50000 418.400000
1647 14515 8503 1 109.50000 418.400000
1647 14515 9185 1 109.50000 418.400000
6689 14515 8503 1 109.50000 418.400000
6689 14515 9185 1 109.50000 418.400000
8503 14515 9185 1 109.50000 418.400000
2001 14516 2545 1 109.50000 418.400000
2001 14516 7946 1 109.50000 418.400000
2001 14516 8034 1 109.50000 418.400000
2545 14516 7946 1 109.50000 418.400000
2545 14516 8034 1 109.50000 418.400000
7946 14516 8034 1 109.50000 418.400000
2910 14517 4299 1 109.50000 418.400000
2910 14517 5482 1 109.50000 418.400000
2910 14517 9186 1 109.50000 418.400000
4299 14517 5482 1 109.50000 418.400000
4299 14517 9186 1 109.50000 418.400000
5482 14517 9186 1 109.50000 418.400000
4999 14518 5713 1 109.50000 418.400000
4999 14518 7644 1 109.50000 418.400000
4999 14518 9187 1 109.50000 418.400000
5713 14518 7644 1 109.50000 418.400000
5713 14518 9187 1 109.50000 418.400000
7644 14518 9187 1 109.50000 418.400000
5584 14519 7481 1 109.50000 418.400000
5584 14519 8765 1 109.50000 418.400000
5584 14519 9188 1 109.50000 418.400000
7481 14519 8765 1 109.50000 418.400000
7481 14519 9188 1 109.50000 418.400000
8765 14519 9188 1 109.50000 418.400000
3018 14520 3390 1 109.50000 418.400000
3018 14520 8539 1 109.50000 418.400000
3018 14520 9192 1 109.50000 418.400000
3390 14520 8539 1 109.50000 418.400000
3390 14520 9192 1 109.50000 418.400000
8539 14520 9192 1 109.50000 418.400000
2159 14521 6561 1 109.50000 418.400000
2159 14521 8370 1 109.50000 418.400000
2159 14521 9195 1 109.50000 418.400000
6561 14521 8370 1 109.50000 418.400000
6561 14521 9195 1 109.50000 418.400000
8370 14521 9195 1 109.50000 418.400000
5531 14522 8263 1 109.50000 418.400000
5531 14522 9196 1 109.50000 418.400000
5531 14522 9197 1 109.50000 418.400000
8263 14522 9196 1 109.50000 418.400000
8263 14522 9197 1 109.50000 418.400000
9196 14522 9197 1 109.50000 418.400000
4827 14523 9198 1 109.50000 418.400000
4827 14523 9199 1 109.50000 418.400000
4827 14523 9200 1 109.50000 418.400000
9198 14523 9199 1 109.50000 418.400000
9198 14523 9200 1 109.50000 418.400000
9199 14523 9200 1 109.50000 418.400000
5375 14524 7144 1 109.50000 418.400000
5375 14524 9201 1 109.50000 418.400000
5375 14524 9202 1 109.50000 418.400000
7144 14524 9201 1 109.50000 418.400000
7144 14524 9202 1 109.50000 418.400000
9201 14524 9202 1 109.50000 418.400000
2977 14525 8293 1 109.50000 418.400000
2977 14525 9203 1 109.50000 418.400000
2977 14525 9204 1 109.50000 418.400000
8293 14525 9203 1 109.50000 418.400000
8293 14525 9204 1 109.50000 418.400000
9203 14525 9204 1 109.50000 418.400000
1522 14526 5271 1 109.50000 418.400000
1522 14526 9205 1 109.50000 418.400000
1522 14526 9206 1 109.50000 418.400000
5271 14526 9205 1 109.50000 418.400000
5271 14526 9206 1 109.50000 418.400000
9205 14526 9206 1 109.50000 418.400000
398 14527 400 1 109.50000 418.400000
398 14527 2911 1 109.50000 418.400000
398 14527 6209 1 109.50000 418.400000
400 14527 2911 1 109.50000 418.400000
400 14527 6209 1 109.50000 418.400000
2911 14527 6209 1 109.50000 418.400000
778 14528 9207 1 109.50000 418.400000
778 14528 9208 1 109.50000 418.400000
778 14528 9209 1 109.50000 418.400000
9207 14528 9208 1 109.50000 418.400000
9207 14528 9209 1 109.50000 418.400000
9208 14528 9209 1 109.50000 418.400000
597 14529 9210 1 109.50000 418.400000
597 14529 9211 1 109.50000 418.400000
597 14529 9212 1 109.50000 418.400000
9210 14529 9211 1 109.50000 418.400000
9210 14529 9212 1 109.50000 418.400000
9211 14529 9212 1 109.50000 418.400000
3187 14530 5684 1 109.50000 418.400000
3187 14530 5911 1 109.50000 418.400000
3187 14530 9213 1 109.50000 418.400000
5684 14530 5911 1 109.50000 418.400000
5684 14530 9213 1 109.50000 418.400000
5911 14530 9213 1 109.50000 418.400000
2071 14531 5035 1 109.50000 418.400000
2071 14531 5076 1 109.50000 418.400000
2071 14531 9214 1 109.50000 418.400000
5035 14531 5076 1 109.50000 418.400000
5035 14531 9214 1 109.50000 418.400000
5076 14531 9214 1 109.50000 418.400000
6185 14532 9215 1 109.50000 418.400000
6185 14532 9362 1 109.50000 418.400000
6185 14532 10920 1 109.50000 418.400000
9215 14532 9362 1 109.50000 418.400000
9215 14532 10920 1 109.50000 418.400000
9362 14532 10920 1 109.50000 418.400000
3597 14533 8501 1 109.50000 418.400000
3597 14533 8777 1 109.50000 418.400000
3597 14533 9218 1 109.50000 418.400000
8501 14533 8777 1 109.50000 418.400000
8501 14533 9218 1 109.50000 418.400000
8777 14533 9218 1 109.50000 418.400000
2782 14534 6255 1 109.50000 418.400000
2782 14534 8254 1 109.50000 418.400000
2782 14534 9219 1 109.50000 418.400000
6255 14534 8254 1 109.50000 418.400000
6255 14534 9219 1 109.50000 418.400000
8254 14534 9219 1 109.50000 418.400000
3319 14535 6208 1 109.50000 418.400000
3319 14535 9220 1 109.50000 418.400000
3319 14535 9221 1 109.50000 418.400000
6208 14535 9220 1 109.50000 418.400000
6208 14535 9221 1 109.50000 418.400000
9220 14535 9221 1 109.50000 418.400000
1311 14536 1320 1 109.50000 418.400000
1311 14536 6637 1 109.50000 418.400000
1311 14536 9222 1 109.50000 418.400000
1320 14536 6637 1 109.50000 418.400000
1320 14536 9222 1 109.50000 418.400000
6637 14536 9222 1 109.50000 418.400000
1902 14537 1905 1 109.50000 418.400000
1902 14537 9223 1 109.50000 418.400000
1902 14537 9224 1 109.50000 418.400000
1905 14537 9223 1 109.50000 418.400000
1905 14537 9224 1 109.50000 418.400000
9223 14537 9224 1 109.50000 418.400000
4335 14538 4788 1 109.50000 418.400000
4335 14538 6777 1 109.50000 418.400000
4335 14538 9225 1 109.50000 418.400000
4788 14538 6777 1 109.50000 418.400000
4788 14538 9225 1 109.50000 418.400000
6777 14538 9225 1 109.50000 418.400000
2750 14539 8051 1 109.50000 418.400000
2750 14539 9226 1 109.50000 418.400000
2750 14539 9227 1 109.50000 418.400000
8051 14539 9226 1 109.50000 418.400000
8051 14539 9227 1 109.50000 418.400000
9226 14539 9227 1 109.50000 418.400000
6797 14540 7227 1 109.50000 418.400000
6797 14540 8066 1 109.50000 418.400000
6797 14540 9228 1 109.50000 418.400000
7227 14540 8066 1 109.50000 418.400000
7227 14540 9228 1 109.50000 418.400000
8066 14540 9228 1 109.50000 418.400000
1477 14541 9229 1 109.50000 418.400000
1477 14541 9230 1 109.50000 418.400000
1477 14541 9231 1 109.50000 418.400000
9229 14541 9230 1 109.50000 418.400000
9229 14541 9231 1 109.50000 418.400000
9230 14541 9231 1 109.50000 418.400000
2084 14542 3816 1 109.50000 418.400000
2084 14542 5748 1 109.50000 418.400000
2084 14542 7106 1 109.50000 418.400000
3816 14542 5748 1 109.50000 418.400000
3816 14542 7106 1 109.50000 418.400000
5748 14542 7106 1 109.50000 418.400000
906 14543 909 1 109.50000 418.400000
906 14543 6923 1 109.50000 418.400000
906 14543 6924 1 109.50000 418.400000
909 14543 6923 1 109.50000 418.400000
909 14543 6924 1 109.50000 418.400000
6923 14543 6924 1 109.50000 418.400000
5125 14544 6770 1 109.50000 418.400000
5125 14544 9232 1 109.50000 418.400000
5125 14544 9233 1 109.50000 418.400000
6770 14544 9232 1 109.50000 418.400000
6770 14544 9233 1 109.50000 418.400000
9232 14544 9233 1 109.50000 418.400000
386 14545 4588 1 109.50000 418.400000
386 14545 8021 1 109.50000 418.400000
386 14545 9219 1 109.50000 418.400000
4588 14545 8021 1 109.50000 418.400000
4588 14545 9219 1 109.50000 418.400000
8021 14545 9219 1 109.50000 418.400000
455 14546 5669 1 109.50000 418.400000
455 14546 9234 1 109.50000 418.400000
455 14546 9235 1 109.50000 418.400000
5669 14546 9234 1 109.50000 418.400000
5669 14546 9235 1 109.50000 418.400000
9234 14546 9235 1 109.50000 418.400000
616 14547 8056 1 109.50000 418.400000
616 14547 9236 1 109.50000 418.400000
616 14547 9237 1 109.50000 418.400000
8056 14547 9236 1 109.50000 418.400000
8056 14547 9237 1 109.50000 418.400000
9236 14547 9237 1 109.50000 418.400000
4622 14548 5687 1 109.50000 418.400000
4622 14548 9238 1 109.50000 418.400000
4622 14548 9239 1 109.50000 418.400000
5687 14548 9238 1 109.50000 418.400000
5687 14548 9239 1 109.50000 418.400000
9238 14548 9239 1 109.50000 418.400000
2168 14549 9240 1 109.50000 418.400000
2168 14549 9241 1 109.50000 418.400000
2168 14549 9242 1 109.50000 418.400000
9240 14549 9241 1 109.50000 418.400000
9240 14549 9242 1 109.50000 418.400000
9241 14549 9242 1 109.50000 418.400000
5098 14550 7235 1 109.50000 418.400000
5098 14550 9243 1 109.50000 418.400000
5098 14550 9244 1 109.50000 418.400000
7235 14550 9243 1 109.50000 418.400000
7235 14550 9244 1 109.50000 418.400000
9243 14550 9244 1 109.50000 418.400000
3412 14551 9245 1 109.50000 418.400000
3412 14551 9246 1 109.50000 418.400000
3412 14551 9247 1 109.50000 418.400000
9245 14551 9246 1 109.50000 418.400000
9245 14551 9247 1 109.50000 418.400000
9246 14551 9247 1 109.50000 418.400000
7040 14552 9248 1 109.50000 418.400000
7040 14552 9249 1 109.50000 418.400000
7040 14552 9250 1 109.50000 418.400000
9248 14552 9249 1 109.50000 418.400000
9248 14552 9250 1 109.50000 418.400000
9249 14552 9250 1 109.50000 418.400000
2503 14553 8525 1 109.50000 418.400000
2503 14553 9251 1 109.50000 418.400000
2503 14553 9252 1 109.50000 418.400000
8525 14553 9251 1 109.50000 418.400000
8525 14553 9252 1 109.50000 418.400000
9251 14553 9252 1 109.50000 418.400000
4421 14554 6606 1 109.50000 418.400000
4421 14554 7682 1 109.50000 418.400000
4421 14554 9253 1 109.50000 418.400000
6606 14554 7682 1 109.50000 418.400000
6606 14554 9253 1 109.50000 418.400000
7682 14554 9253 1 109.50000 418.400000
6044 14555 7352 1 109.50000 418.400000
6044 14555 9255 1 109.50000 418.400000
6044 14555 9256 1 109.50000 418.400000
7352 14555 9255 1 109.50000 418.400000
7352 14555 9256 1 109.50000 418.400000
9255 14555 9256 1 109.50000 418.400000
472 14556 5524 1 109.50000 418.400000
472 14556 9257 1 109.50000 418.400000
472 14556 9258 1 109.50000 418.400000
5524 14556 9257 1 109.50000 418.400000
5524 14556 9258 1 109.50000 418.400000
9257 14556 9258 1 109.50000 418.400000
5757 14557 7292 1 109.50000 418.400000
5757 14557 9259 1 109.50000 418.400000
5757 14557 9260 1 109.50000 418.400000
7292 14557 9259 1 109.50000 418.400000
7292 14557 9260 1 109.50000 418.400000
9259 14557 9260 1 109.50000 418.400000
4716 14558 4892 1 109.50000 418.400000
4716 14558 9261 1 109.50000 418.400000
4716 14558 9262 1 109.50000 418.400000
4892 14558 9261 1 109.50000 418.400000
4892 14558 9262 1 109.50000 418.400000
9261 14558 9262 1 109.50000 418.400000
2096 14559 6192 1 109.50000 418.400000
2096 14559 9249 1 109.50000 418.400000
2096 14559 9265 1 109.50000 418.400000
6192 14559 9249 1 109.50000 418.400000
6192 14559 9265 1 109.50000 418.400000
9249 14559 9265 1 109.50000 418.400000
302 14560 3673 1 109.50000 418.400000
302 14560 7089 1 109.50000 418.400000
302 14560 9063 1 109.50000 418.400000
3673 14560 7089 1 109.50000 418.400000
3673 14560 9063 1 109.50000 418.400000
7089 14560 9063 1 109.50000 418.400000
6857 14561 9266 1 109.50000 418.400000
6857 14561 9267 1 109.50000 418.400000
6857 14561 9268 1 109.50000 418.400000
9266 14561 9267 1 109.50000 418.400000
9266 14561 9268 1 109.50000 418.400000
9267 14561 9268 1 109.50000 418.400000
1889 14562 7433 1 109.50000 418.400000
1889 14562 9269 1 109.50000 418.400000
1889 14562 11310 1 109.50000 418.400000
7433 14562 9269 1 109.50000 418.400000
7433 14562 11310 1 109.50000 418.400000
9269 14562 11310 1 109.50000 418.400000
3919 14563 6397 1 109.50000 418.400000
3919 14563 9012 1 109.50000 418.400000
3919 14563 9270 1 109.50000 418.400000
6397 14563 9012 1 109.50000 418.400000
6397 14563 9270 1 109.50000 418.400000
9012 14563 9270 1 109.50000 418.400000
7044 14564 9272 1 109.50000 418.400000
7044 14564 9273 1 109.50000 418.400000
7044 14564 9274 1 109.50000 418.400000
9272 14564 9273 1 109.50000 418.400000
9272 14564 9274 1 109.50000 418.400000
9273 14564 9274 1 109.50000 418.400000
1219 14565 4551 1 109.50000 418.400000
1219 14565 5837 1 109.50000 418.400000
1219 14565 9275 1 109.50000 418.400000
4551 14565 5837 1 109.50000 418.400000
4551 14565 9275 1 109.50000 418.400000
5837 14565 9275 1 109.50000 418.400000
4515 14566 8601 1 109.50000 418.400000
4515 14566 9276 1 109.50000 418.400000
4515 14566 11242 1 109.50000 418.400000
8601 14566 9276 1 109.50000 418.400000
8601 14566 11242 1 109.50000 418.400000
9276 14566 11242 1 109.50000 418.400000
184 14567 278 1 109.50000 418.400000
184 14567 3009 1 109.50000 418.400000
184 14567 9277 1 109.50000 418.400000
278 14567 3009 1 109.50000 418.400000
278 14567 9277 1 109.50000 418.400000
3009 14567 9277 1 109.50000 418.400000
3573 14568 4475 1 109.50000 418.400000
3573 14568 7572 1 109.50000 418.400000
3573 14568 9278 1 109.50000 418.400000
4475 14568 7572 1 109.50000 418.400000
4475 14568 9278 1 109.50000 418.400000
7572 14568 9278 1 109.50000 418.400000
265 14569 9279 1 109.50000 418.400000
265 14569 9280 1 109.50000 418.400000
265 14569 9281 1 109.50000 418.400000
9279 14569 9280 1 109.50000 418.400000
9279 14569 9281 1 109.50000 418.400000
9280 14569 9281 1 109.50000 418.400000
1997 14570 2669 1 109.50000 418.400000
1997 14570 8796 1 109.50000 418.400000
1997 14570 9282 1 109.50000 418.400000
2669 14570 8796 1 109.50000 418.400000
2669 14570 9282 1 109.50000 418.400000
8796 14570 9282 1 109.50000 418.400000
1454 14571 2473 1 109.50000 418.400000
1454 14571 4854 1 109.50000 418.400000
1454 14571 5444 1 109.50000 418.400000
2473 14571 4854 1 109.50000 418.400000
2473 14571 5444 1 109.50000 418.400000
4854 14571 5444 1 109.50000 418.400000
354 14572 1839 1 109.50000 418.400000
354 14572 6493 1 109.50000 418.400000
354 14572 9285 1 109.50000 418.400000
1839 14572 6493 1 109.50000 418.400000
1839 14572 9285 1 109.50000 418.400000
6493 14572 9285 1 109.50000 418.400000
6460 14573 7333 1 109.50000 418.400000
6460 14573 9287 1 109.50000 418.400000
6460 14573 9288 1 109.50000 418.400000
7333 14573 9287 1 109.50000 418.400000
7333 14573 9288 1 109.50000 418.400000
9287 14573 9288 1 109.50000 418.400000
7392 14574 9289 1 109.50000 418.400000
7392 14574 9290 1 109.50000 418.400000
7392 14574 9291 1 109.50000 418.400000
9289 14574 9290 1 109.50000 418.400000
9289 14574 9291 1 109.50000 418.400000
9290 14574 9291 1 109.50000 418.400000
1359 14575 9213 1 109.50000 418.400000
1359 14575 9292 1 109.50000 418.400000
1359 14575 9293 1 109.50000 418.400000
9213 14575 9292 1 109.50000 418.400000
9213 14575 9293 1 109.50000 418.400000
9292 14575 9293 1 109.50000 418.400000
4747 14576 7608 1 109.50000 418.400000
4747 14576 8320 1 109.50000 418.400000
4747 14576 8835 1 109.50000 418.400000
7608 14576 8320 1 109.50000 418.400000
7608 14576 8835 1 109.50000 418.400000
8320 14576 8835 1 109.50000 418.400000
1682 14577 4350 1 109.50000 418.400000
1682 14577 6725 1 109.50000 418.400000
1682 14577 9294 1 109.50000 418.400000
4350 14577 6725 1 109.50000 418.400000
4350 14577 9294 1 109.50000 418.400000
6725 14577 9294 1 109.50000 418.400000
604 14578 6948 1 109.50000 418.400000
604 14578 9295 1 109.50000 418.400000
604 14578 9296 1 109.50000 418.400000
6948 14578 9295 1 109.50000 418.400000
6948 14578 9296 1 109.50000 418.400000
9295 14578 9296 1 109.50000 418.400000
2593 14579 9297 1 109.50000 418.400000
2593 14579 9298 1 109.50000 418.400000
2593 14579 9299 1 109.50000 418.400000
9297 14579 9298 1 109.50000 418.400000
9297 14579 9299 1 109.50000 418.400000
9298 14579 9299 1 109.50000 418.400000
2978 14580 6429 1 109.50000 418.400000
2978 14580 9300 1 109.50000 418.400000
2978 14580 9301 1 109.50000 418.400000
6429 14580 9300 1 109.50000 418.400000
6429 14580 9301 1 109.50000 418.400000
9300 14580 9301 1 109.50000 418.400000
1851 14581 8192 1 109.50000 418.400000
1851 14581 9302 1 109.50000 418.400000
1851 14581 9303 1 109.50000 418.400000
8192 14581 9302 1 109.50000 418.400000
8192 14581 9303 1 109.50000 418.400000
9302 14581 9303 1 109.50000 418.400000
5768 14582 8204 1 109.50000 418.400000
5768 14582 9280 1 109.50000 418.400000
5768 14582 9304 1 109.50000 418.400000
8204 14582 9280 1 109.50000 418.400000
8204 14582 9304 1 109.50000 418.400000
9280 14582 9304 1 109.50000 418.400000
793 14583 9305 1 109.50000 418.400000
793 14583 9306 1 109.50000 418.400000
793 14583 9307 1 109.50000 418.400000
9305 14583 9306 1 109.50000 418.400000
9305 14583 9307 1 109.50000 418.400000
9306 14583 9307 1 109.50000 418.400000
3272 14584 7165 1 109.50000 418.400000
3272 14584 8890 1 109.50000 418.400000
3272 14584 9308 1 109.50000 418.400000
7165 14584 8890 1 109.50000 418.400000
7165 14584 9308 1 109.50000 418.400000
8890 14584 9308 1 109.50000 418.400000
857 14585 6099 1 109.50000 418.400000
857 14585 8573 1 109.50000 418.400000
857 14585 8701 1 109.50000 418.400000
6099 14585 8573 1 109.50000 418.400000
6099 14585 8701 1 109.50000 418.400000
8573 14585 8701 1 109.50000 418.400000
1842 14586 3856 1 109.50000 418.400000
1842 14586 8779 1 109.50000 418.400000
1842 14586 9309 1 109.50000 418.400000
3856 14586 8779 1 109.50000 418.400000
3856 14586 9309 1 109.50000 418.400000
8779 14586 9309 1 109.50000 418.400000
3985 14587 6083 1 109.50000 418.400000
3985 14587 9310 1 109.50000 418.400000
3985 14587 9311 1 109.50000 418.400000
6083 14587 9310 1 109.50000 418.400000
6083 14587 9311 1 109.50000 418.400000
9310 14587 9311 1 109.50000 418.400000
8168 14588 9312 1 109.50000 418.400000
8168 14588 9313 1 109.50000 418.400000
8168 14588 9314 1 109.50000 418.400000
9312 14588 9313 1 109.50000 418.400000
9312 14588 9314 1 109.50000 418.400000
9313 14588 9314 1 109.50000 418.400000
2664 14589 7415 1 109.50000 418.400000
2664 14589 8216 1 109.50000 418.400000
2664 14589 8217 1 109.50000 418.400000
7415 14589 8216 1 109.50000 418.400000
7415 14589 8217 1 109.50000 418.400000
8216 14589 8217 1 109.50000 418.400000
5511 14590 8695 1 109.50000 418.400000
5511 14590 9315 1 109.50000 418.400000
5511 14590 9316 1 109.50000 418.400000
8695 14590 9315 1 109.50000 418.400000
8695 14590 9316 1 109.50000 418.400000
9315 14590 9316 1 109.50000 418.400000
1965 14591 2371 1 109.50000 418.400000
1965 14591 3102 1 109.50000 418.400000
1965 14591 9317 1 109.50000 418.400000
2371 14591 3102 1 109.50000 418.400000
2371 14591 9317 1 109.50000 418.400000
3102 14591 9317 1 109.50000 418.400000
6301 14592 7641 1 109.50000 418.400000
6301 14592 8868 1 109.50000 418.400000
6301 14592 9085 1 109.50000 418.400000
7641 14592 8868 1 109.50000 418.400000
7641 14592 9085 1 109.50000 418.400000
8868 14592 9085 1 109.50000 418.400000
1400 14593 6249 1 109.50000 418.400000
1400 14593 6542 1 109.50000 418.400000
1400 14593 8857 1 109.50000 418.400000
6249 14593 6542 1 109.50000 418.400000
6249 14593 8857 1 109.50000 418.400000
6542 14593 8857 1 109.50000 418.400000
6085 14594 9318 1 109.50000 418.400000
6085 14594 9319 1 109.50000 418.400000
6085 14594 9320 1 109.50000 418.400000
9318 14594 9319 1 109.50000 418.400000
9318 14594 9320 1 109.50000 418.400000
9319 14594 9320 1 109.50000 418.400000
6546 14595 7320 1 109.50000 418.400000
6546 14595 9321 1 109.50000 418.400000
6546 14595 9322 1 109.50000 418.400000
7320 14595 9321 1 109.50000 418.400000
7320 14595 9322 1 109.50000 418.400000
9321 14595 9322 1 109.50000 418.400000
3070 14596 5523 1 109.50000 418.400000
3070 14596 5603 1 109.50000 418.400000
3070 14596 9323 1 109.50000 418.400000
5523 14596 5603 1 109.50000 418.400000
5523 14596 9323 1 109.50000 418.400000
5603 14596 9323 1 109.50000 418.400000
1084 14597 8891 1 109.50000 418.400000
1084 14597 9324 1 109.50000 418.400000
1084 14597 9325 1 109.50000 418.400000
8891 14597 9324 1 109.50000 418.400000
8891 14597 9325 1 109.50000 418.400000
9324 14597 9325 1 109.50000 418.400000
7339 14598 7448 1 109.50000 418.400000
7339 14598 7743 1 109.50000 418.400000
7339 14598 9138 1 109.50000 418.400000
7448 14598 7743 1 109.50000 418.400000
7448 14598 9138 1 109.50000 418.400000
7743 14598 9138 1 109.50000 418.400000
3130 14599 3349 1 109.50000 418.400000
3130 14599 9326 1 109.50000 418.400000
3130 14599 9327 1 109.50000 418.400000
3349 14599 9326 1 109.50000 418.400000
3349 14599 9327 1 109.50000 418.400000
9326 14599 9327 1 109.50000 418.400000
1532 14600 5265 1 109.50000 418.400000
1532 14600 7158 1 109.50000 418.400000
1532 14600 9328 1 109.50000 418.400000
5265 14600 7158 1 109.50000 418.400000
5265 14600 9328 1 109.50000 418.400000
7158 14600 9328 1 109.50000 418.400000
6034 14601 6464 1 109.50000 418.400000
6034 14601 8089 1 109.50000 418.400000
6034 14601 9330 1 109.50000 418.400000
6464 14601 8089 1 109.50000 418.400000
6464 14601 9330 1 109.50000 418.400000
8089 14601 9330 1 109.50000 418.400000
9244 14602 9331 1 109.50000 418.400000
9244 14602 9332 1 109.50000 418.400000
9244 14602 9333 1 109.50000 418.400000
9331 14602 9332 1 109.50000 418.400000
9331 14602 9333 1 109.50000 418.400000
9332 14602 9333 1 109.50000 418.400000
5594 14603 7703 1 109.50000 418.400000
5594 14603 9334 1 109.50000 418.400000
5594 14603 9335 1 109.50000 418.400000
7703 14603 9334 1 109.50000 418.400000
7703 14603 9335 1 109.50000 418.400000
9334 14603 9335 1 109.50000 418.400000
1900 14604 3915 1 109.50000 418.400000
1900 14604 8036 1 109.50000 418.400000
1900 14604 9336 1 109.50000 418.400000
3915 14604 8036 1 109.50000 418.400000
3915 14604 9336 1 109.50000 418.400000
8036 14604 9336 1 109.50000 418.400000
8452 14605 8989 1 109.50000 418.400000
8452 14605 9337 1 109.50000 418.400000
8452 14605 9338 1 109.50000 418.400000
8989 14605 9337 1 109.50000 418.400000
8989 14605 9338 1 109.50000 418.400000
9337 14605 9338 1 109.50000 418.400000
1114 14606 4138 1 109.50000 418.400000
1114 14606 8377 1 109.50000 418.400000
1114 14606 9339 1 109.50000 418.400000
4138 14606 8377 1 109.50000 418.400000
4138 14606 9339 1 109.50000 418.400000
8377 14606 9339 1 109.50000 418.400000
4962 14607 9340 1 109.50000 418.400000
4962 14607 9341 1 109.50000 418.400000
4962 14607 10737 1 109.50000 418.400000
9340 14607 9341 1 109.50000 418.400000
9340 14607 10737 1 109.50000 418.400000
9341 14607 10737 1 109.50000 418.400000
831 14608 1680 1 109.50000 418.400000
831 14608 9342 1 109.50000 418.400000
831 14608 9343 1 109.50000 418.400000
1680 14608 9342 1 109.50000 418.400000
1680 14608 9343 1 109.50000 418.400000
9342 14608 9343 1 109.50000 418.400000
2618 14609 2805 1 109.50000 418.400000
2618 14609 9344 1 109.50000 418.400000
2618 14609 9345 1 109.50000 418.400000
2805 14609 9344 1 109.50000 418.400000
2805 14609 9345 1 109.50000 418.400000
9344 14609 9345 1 109.50000 418.400000
3675 14610 4035 1 109.50000 418.400000
3675 14610 7034 1 109.50000 418.400000
3675 14610 9346 1 109.50000 418.400000
4035 14610 7034 1 109.50000 418.400000
4035 14610 9346 1 109.50000 418.400000
7034 14610 9346 1 109.50000 418.400000
3621 14611 6193 1 109.50000 418.400000
3621 14611 7327 1 109.50000 418.400000
3621 14611 9347 1 109.50000 418.400000
6193 14611 7327 1 109.50000 418.400000
6193 14611 9347 1 109.50000 418.400000
7327 14611 9347 1 109.50000 418.400000
886 14612 6635 1 109.50000 418.400000
886 14612 9151 1 109.50000 418.400000
886 14612 9349 1 109.50000 418.400000
6635 14612 9151 1 109.50000 418.400000
6635 14612 9349 1 109.50000 418.400000
9151 14612 9349 1 109.50000 418.400000
4173 14613 7977 1 109.50000 418.400000
4173 14613 8976 1 109.50000 418.400000
4173 14613 9350 1 109.50000 418.400000
7977 14613 8976 1 109.50000 418.400000
7977 14613 9350 1 109.50000 418.400000
8976 14613 9350 1 109.50000 418.400000
1607 14614 5689 1 109.50000 418.400000
1607 14614 9351 1 109.50000 418.400000
1607 14614 9352 1 109.50000 418.400000
5689 14614 9351 1 109.50000 418.400000
5689 14614 9352 1 109.50000 418.400000
9351 14614 9352 1 109.50000 418.400000
6335 14615 6384 1 109.50000 418.400000
6335 14615 9353 1 109.50000 418.400000
6335 14615 11254 1 109.50000 418.400000
6384 14615 9353 1 109.50000 418.400000
6384 14615 11254 1 109.50000 418.400000
9353 14615 11254 1 109.50000 418.400000
49 14616 766 1 109.50000 418.400000
49 14616 5432 1 109.50000 418.400000
49 14616 9354 1 109.50000 418.400000
766 14616 5432 1 109.50000 418.400000
766 14616 9354 1 109.50000 418.400000
5432 14616 9354 1 109.50000 418.400000
6212 14617 8623 1 109.50000 418.400000
6212 14617 9355 1 109.50000 418.400000
6212 14617 9356 1 109.50000 418.400000
8623 14617 9355 1 109.50000 418.400000
8623 14617 9356 1 109.50000 418.400000
9355 14617 9356 1 109.50000 418.400000
666 14618 1511 1 109.50000 418.400000
666 14618 3824 1 109.50000 418.400000
666 14618 9357 1 109.50000 418.400000
1511 14618 3824 1 109.50000 418.400000
1511 14618 9357 1 109.50000 418.400000
3824 14618 9357 1 109.50000 418.400000
6980 14619 7277 1 109.50000 418.400000
6980 14619 9358 1 109.50000 418.400000
6980 14619 9360 1 109.50000 418.400000
7277 14619 9358 1 109.50000 418.400000
7277 14619 9360 1 109.50000 418.400000
9358 14619 9360 1 109.50000 418.400000
2533 14620 4472 1 109.50000 418.400000
2533 14620 6972 1 109.50000 418.400000
2533 14620 9361 1 109.50000 418.400000
4472 14620 6972 1 109.50000 418.400000
4472 14620 9361 1 109.50000 418.400000
6972 14620 9361 1 109.50000 418.400000
6539 14621 6757 1 109.50000 418.400000
6539 14621 8948 1 109.50000 418.400000
6539 14621 9216 1 109.50000 418.400000
6757 14621 8948 1 109.50000 418.400000
6757 14621 9216 1 109.50000 418.400000
8948 14621 9216 1 109.50000 418.400000
2767 14622 7872 1 109.50000 418.400000
2767 14622 9363 1 109.50000 418.400000
2767 14622 9364 1 109.50000 418.400000
7872 14622 9363 1 109.50000 418.400000
7872 14622 9364 1 109.50000 418.400000
9363 14622 9364 1 109.50000 418.400000
6996 14623 9365 1 109.50000 418.400000
6996 14623 9366 1 109.50000 418.400000
6996 14623 9367 1 109.50000 418.400000
9365 14623 9366 1 109.50000 418.400000
9365 14623 9367 1 109.50000 418.400000
9366 14623 9367 1 109.50000 418.400000
6453 14624 6631 1 109.50000 418.400000
6453 14624 9368 1 109.50000 418.400000
6453 14624 9369 1 109.50000 418.400000
6631 14624 9368 1 109.50000 418.400000
6631 14624 9369 1 109.50000 418.400000
9368 14624 9369 1 109.50000 418.400000
7410 14625 7901 1 109.50000 418.400000
7410 14625 7919 1 109.50000 418.400000
7410 14625 9370 1 109.50000 418.400000
7901 14625 7919 1 109.50000 418.400000
7901 14625 9370 1 109.50000 418.400000
7919 14625 9370 1 109.50000 418.400000
236 14626 6964 1 109.50000 418.400000
236 14626 9371 1 109.50000 418.400000
236 14626 9372 1 109.50000 418.400000
6964 14626 9371 1 109.50000 418.400000
6964 14626 9372 1 109.50000 418.400000
9371 14626 9372 1 109.50000 418.400000
963 14627 2448 1 109.50000 418.400000
963 14627 6846 1 109.50000 418.400000
963 14627 9373 1 109.50000 418.400000
2448 14627 6846 1 109.50000 418.400000
2448 14627 9373 1 109.50000 418.400000
6846 14627 9373 1 109.50000 418.400000
3449 14628 5026 1 109.50000 418.400000
3449 14628 9374 1 109.50000 418.400000
3449 14628 10082 1 109.50000 418.400000
5026 14628 9374 1 109.50000 418.400000
5026 14628 10082 1 109.50000 418.400000
9374 14628 10082 1 109.50000 418.400000
2783 14629 8277 1 109.50000 418.400000
2783 14629 9376 1 109.50000 418.400000
2783 14629 9377 1 109.50000 418.400000
8277 14629 9376 1 109.50000 418.400000
8277 14629 9377 1 109.50000 418.400000
9376 14629 9377 1 109.50000 418.400000
42 14630 9378 1 109.50000 418.400000
42 14630 9379 1 109.50000 418.400000
42 14630 9777 1 109.50000 418.400000
9378 14630 9379 1 109.50000 418.400000
9378 14630 9777 1 109.50000 418.400000
9379 14630 9777 1 109.50000 418.400000
3812 14631 3815 1 109.50000 418.400000
3812 14631 9380 1 109.50000 418.400000
3812 14631 9381 1 109.50000 418.400000
3815 14631 9380 1 109.50000 418.400000
3815 14631 9381 1 109.50000 418.400000
9380 14631 9381 1 109.50000 418.400000
6779 14632 9382 1 109.50000 418.400000
6779 14632 9383 1 109.50000 418.400000
6779 14632 9485 1 109.50000 418.400000
9382 14632 9383 1 109.50000 418.400000
9382 14632 9485 1 109.50000 418.400000
9383 14632 9485 1 109.50000 418.400000
5715 14633 6813 1 109.50000 418.400000
5715 14633 7665 1 109.50000 418.400000
5715 14633 9384 1 109.50000 418.400000
6813 14633 7665 1 109.50000 418.400000
6813 14633 9384 1 109.50000 418.400000
7665 14633 9384 1 109.50000 418.400000
8203 14634 9385 1 109.50000 418.400000
8203 14634 9386 1 109.50000 418.400000
8203 14634 9387 1 109.50000 418.400000
9385 14634 9386 1 109.50000 418.400000
9385 14634 9387 1 109.50000 418.400000
9386 14634 9387 1 109.50000 418.400000
1789 14635 8357 1 109.50000 418.400000
1789 14635 9389 1 109.50000 418.400000
1789 14635 9390 1 109.50000 418.400000
8357 14635 9389 1 109.50000 418.400000
8357 14635 9390 1 109.50000 418.400000
9389 14635 9390 1 109.50000 418.400000
5241 14636 6703 1 109.50000 418.400000
5241 14636 6704 1 109.50000 418.400000
5241 14636 9391 1 109.50000 418.400000
6703 14636 6704 1 109.50000 418.400000
6703 14636 9391 1 109.50000 418.400000
6704 14636 9391 1 109.50000 418.400000
4935 14637 5939 1 109.50000 418.400000
4935 14637 8441 1 109.50000 418.400000
4935 14637 9392 1 109.50000 418.400000
5939 14637 8441 1 109.50000 418.400000
5939 14637 9392 1 109.50000 418.400000
8441 14637 9392 1 109.50000 418.400000
7067 14638 9393 1 109.50000 418.400000
7067 14638 9394 1 109.50000 418.400000
7067 14638 9395 1 109.50000 418.400000
9393 14638 9394 1 109.50000 418.400000
9393 14638 9395 1 109.50000 418.400000
9394 14638 9395 1 109.50000 418.400000
5470 14639 6472 1 109.50000 418.400000
5470 14639 8797 1 109.50000 418.400000
5470 14639 9396 1 109.50000 418.400000
6472 14639 8797 1 109.50000 418.400000
6472 14639 9396 1 109.50000 418.400000
8797 14639 9396 1 109.50000 418.400000
663 14640 2803 1 109.50000 418.400000
663 14640 5494 1 109.50000 418.400000
663 14640 7731 1 109.50000 418.400000
2803 14640 5494 1 109.50000 418.400000
2803 14640 7731 1 109.50000 418.400000
5494 14640 7731 1 109.50000 418.400000
2722 14641 9397 1 109.50000 418.400000
2722 14641 9398 1 109.50000 418.400000
2722 14641 9399 1 109.50000 418.400000
9397 14641 9398 1 109.50000 418.400000
9397 14641 9399 1 109.50000 418.400000
9398 14641 9399 1 109.50000 418.400000
2225 14642 4310 1 109.50000 418.400000
2225 14642 5569 1 109.50000 418.400000
2225 14642 9400 1 109.50000 418.400000
4310 14642 5569 1 109.50000 418.400000
4310 14642 9400 1 109.50000 418.400000
5569 14642 9400 1 109.50000 418.400000
4296 14643 6111 1 109.50000 418.400000
4296 14643 7651 1 109.50000 418.400000
4296 14643 9401 1 109.50000 418.400000
6111 14643 7651 1 109.50000 418.400000
6111 14643 9401 1 109.50000 418.400000
7651 14643 9401 1 109.50000 418.400000
7784 14644 7785 1 109.50000 418.400000
7784 14644 9402 1 109.50000 418.400000
7784 14644 9403 1 109.50000 418.400000
7785 14644 9402 1 109.50000 418.400000
7785 14644 9403 1 109.50000 418.400000
9402 14644 9403 1 109.50000 418.400000
3545 14645 7622 1 109.50000 418.400000
3545 14645 8481 1 109.50000 418.400000
3545 14645 9404 1 109.50000 418.400000
7622 14645 8481 1 109.50000 418.400000
7622 14645 9404 1 109.50000 418.400000
8481 14645 9404 1 109.50000 418.400000
2292 14646 4925 1 109.50000 418.400000
2292 14646 7393 1 109.50000 418.400000
2292 14646 8660 1 109.50000 418.400000
4925 14646 7393 1 109.50000 418.400000
4925 14646 8660 1 109.50000 418.400000
7393 14646 8660 1 109.50000 418.400000
1907 14647 4440 1 109.50000 418.400000
1907 14647 4843 1 109.50000 418.400000
1907 14647 8652 1 109.50000 418.400000
4440 14647 4843 1 109.50000 418.400000
4440 14647 8652 1 109.50000 418.400000
4843 14647 8652 1 109.50000 418.400000
1270 14648 1321 1 109.50000 418.400000
1270 14648 7295 1 109.50000 418.400000
1270 14648 9406 1 109.50000 418.400000
1321 14648 7295 1 109.50000 418.400000
1321 14648 9406 1 109.50000 418.400000
7295 14648 9406 1 109.50000 418.400000
7640 14649 8356 1 109.50000 418.400000
7640 14649 9407 1 109.50000 418.400000
7640 14649 9408 1 109.50000 418.400000
8356 14649 9407 1 109.50000 418.400000
8356 14649 9408 1 109.50000 418.400000
9407 14649 9408 1 109.50000 418.400000
195 14650 3958 1 109.50000 418.400000
195 14650 7728 1 109.50000 418.400000
195 14650 9409 1 109.50000 418.400000
3958 14650 7728 1 109.50000 418.400000
3958 14650 9409 1 109.50000 418.400000
7728 14650 9409 1 109.50000 418.400000
288 14651 4007 1 109.50000 418.400000
288 14651 9410 1 109.50000 418.400000
288 14651 9411 1 109.50000 418.400000
4007 14651 9410 1 109.50000 418.400000
4007 14651 9411 1 109.50000 418.400000
9410 14651 9411 1 109.50000 418.400000
3452 14652 5127 1 109.50000 418.400000
3452 14652 9412 1 109.50000 418.400000
3452 14652 9413 1 109.50000 418.400000
5127 14652 9412 1 109.50000 418.400000
5127 14652 9413 1 109.50000 418.400000
9412 14652 9413 1 109.50000 418.400000
3361 14653 4473 1 109.50000 418.400000
3361 14653 8001 1 109.50000 418.400000
3361 14653 9414 1 109.50000 418.400000
4473 14653 8001 1 109.50000 418.400000
4473 14653 9414 1 109.50000 418.400000
8001 14653 9414 1 109.50000 418.400000
9415 14654 9416 1 109.50000 418.400000
9415 14654 9417 1 109.50000 418.400000
9415 14654 9418 1 109.50000 418.400000
9416 14654 9417 1 109.50000 418.400000
9416 14654 9418 1 109.50000 418.400000
9417 14654 9418 1 109.50000 418.400000
2508 14655 2668 1 109.50000 418.400000
2508 14655 7837 1 109.50000 418.400000
2508 14655 9419 1 109.50000 418.400000
2668 14655 7837 1 109.50000 418.400000
2668 14655 9419 1 109.50000 418.400000
7837 14655 9419 1 109.50000 418.400000
5895 14656 9420 1 109.50000 418.400000
5895 14656 9421 1 109.50000 418.400000
5895 14656 9422 1 109.50000 418.400000
9420 14656 9421 1 109.50000 418.400000
9420 14656 9422 1 109.50000 418.400000
9421 14656 9422 1 109.50000 418.400000
2889 14657 9423 1 109.50000 418.400000
2889 14657 9424 1 109.50000 418.400000
2889 14657 9425 1 109.50000 418.400000
9423 14657 9424 1 109.50000 418.400000
9423 14657 9425 1 109.50000 418.400000
9424 14657 9425 1 109.50000 418.400000
3792 14658 5682 1 109.50000 418.400000
3792 14658 7683 1 109.50000 418.400000
3792 14658 9426 1 109.50000 418.400000
5682 14658 7683 1 109.50000 418.400000
5682 14658 9426 1 109.50000 418.400000
7683 14658 9426 1 109.50000 418.400000
1582 14659 4289 1 109.50000 418.400000
1582 14659 6292 1 109.50000 418.400000
1582 14659 9427 1 109.50000 418.400000
4289 14659 6292 1 109.50000 418.400000
4289 14659 9427 1 109.50000 418.400000
6292 14659 9427 1 109.50000 418.400000
881 14660 7866 1 109.50000 418.400000
881 14660 9428 1 109.50000 418.400000
881 14660 9429 1 109.50000 418.400000
7866 14660 9428 1 109.50000 418.400000
7866 14660 9429 1 109.50000 418.400000
9428 14660 9429 1 109.50000 418.400000
7507 14661 7508 1 109.50000 418.400000
7507 14661 8392 1 109.50000 418.400000
7507 14661 9431 1 109.50000 418.400000
7508 14661 8392 1 109.50000 418.400000
7508 14661 9431 1 109.50000 418.400000
8392 14661 9431 1 109.50000 418.400000
2434 14662 9432 1 109.50000 418.400000
2434 14662 9433 1 109.50000 418.400000
2434 14662 9567 1 109.50000 418.400000
9432 14662 9433 1 109.50000 418.400000
9432 14662 9567 1 109.50000 418.400000
9433 14662 9567 1 109.50000 418.400000
4233 14663 7371 1 109.50000 418.400000
4233 14663 7384 1 109.50000 418.400000
4233 14663 9434 1 109.50000 418.400000
7371 14663 7384 1 109.50000 418.400000
7371 14663 9434 1 109.50000 418.400000
7384 14663 9434 1 109.50000 418.400000
1191 14664 4169 1 109.50000 418.400000
1191 14664 9435 1 109.50000 418.400000
1191 14664 9436 1 109.50000 418.400000
4169 14664 9435 1 109.50000 418.400000
4169 14664 9436 1 109.50000 418.400000
9435 14664 9436 1 109.50000 418.400000
703 14665 1322 1 109.50000 418.400000
703 14665 1804 1 109.50000 418.400000
703 14665 9437 1 109.50000 418.400000
1322 14665 1804 1 109.50000 418.400000
1322 14665 9437 1 109.50000 418.400000
1804 14665 9437 1 109.50000 418.400000
713 14666 2250 1 109.50000 418.400000
713 14666 3931 1 109.50000 418.400000
713 14666 5756 1 109.50000 418.400000
2250 14666 3931 1 109.50000 418.400000
2250 14666 5756 1 109.50000 418.400000
3931 14666 5756 1 109.50000 418.400000
6984 14667 8131 1 109.50000 418.400000
6984 14667 9438 1 109.50000 418.400000
6984 14667 9439 1 109.50000 418.400000
8131 14667 9438 1 109.50000 418.400000
8131 14667 9439 1 109.50000 418.400000
9438 14667 9439 1 109.50000 418.400000
1778 14668 5868 1 109.50000 418.400000
1778 14668 7445 1 109.50000 418.400000
1778 14668 9440 1 109.50000 418.400000
5868 14668 7445 1 109.50000 418.400000
5868 14668 9440 1 109.50000 418.400000
7445 14668 9440 1 109.50000 418.400000
5235 14669 9094 1 109.50000 418.400000
5235 14669 9250 1 109.50000 418.400000
5235 14669 9441 1 109.50000 418.400000
9094 14669 9250 1 109.50000 418.400000
9094 14669 9441 1 109.50000 418.400000
9250 14669 9441 1 109.50000 418.400000
5122 14670 8886 1 109.50000 418.400000
5122 14670 9442 1 109.50000 418.400000
5122 14670 9443 1 109.50000 418.400000
8886 14670 9442 1 109.50000 418.400000
8886 14670 9443 1 109.50000 418.400000
9442 14670 9443 1 109.50000 418.400000
3042 14671 7664 1 109.50000 418.400000
3042 14671 7726 1 109.50000 418.400000
3042 14671 9444 1 109.50000 418.400000
7664 14671 7726 1 109.50000 418.400000
7664 14671 9444 1 109.50000 418.400000
7726 14671 9444 1 109.50000 418.400000
9227 14672 9445 1 109.50000 418.400000
9227 14672 9446 1 109.50000 418.400000
9227 14672 9447 1 109.50000 418.400000
9445 14672 9446 1 109.50000 418.400000
9445 14672 9447 1 109.50000 418.400000
9446 14672 9447 1 109.50000 418.400000
6726 14673 9448 1 109.50000 418.400000
6726 14673 9449 1 109.50000 418.400000
6726 14673 9450 1 109.50000 418.400000
9448 14673 9449 1 109.50000 418.400000
9448 14673 9450 1 109.50000 418.400000
9449 14673 9450 1 109.50000 418.400000
2968 14674 7698 1 109.50000 418.400000
2968 14674 8410 1 109.50000 418.400000
2968 14674 9451 1 109.50000 418.400000
7698 14674 8410 1 109.50000 418.400000
7698 14674 9451 1 109.50000 418.400000
8410 14674 9451 1 109.50000 418.400000
6608 14675 7332 1 109.50000 418.400000
6608 14675 9453 1 109.50000 418.400000
6608 14675 9454 1 109.50000 418.400000
7332 14675 9453 1 109.50000 418.400000
7332 14675 9454 1 109.50000 418.400000
9453 14675 9454 1 109.50000 418.400000
1429 14676 5558 1 109.50000 418.400000
1429 14676 7840 1 109.50000 418.400000
1429 14676 9455 1 109.50000 418.400000
5558 14676 7840 1 109.50000 418.400000
5558 14676 9455 1 109.50000 418.400000
7840 14676 9455 1 109.50000 418.400000
9102 14677 9282 1 109.50000 418.400000
9102 14677 9412 1 109.50000 418.400000
9102 14677 9457 1 109.50000 418.400000
9282 14677 9412 1 109.50000 418.400000
9282 14677 9457 1 109.50000 418.400000
9412 14677 9457 1 109.50000 418.400000
1240 14678 2991 1 109.50000 418.400000
1240 14678 9458 1 109.50000 418.400000
1240 14678 11214 1 109.50000 418.400000
2991 14678 9458 1 109.50000 418.400000
2991 14678 11214 1 109.50000 418.400000
9458 14678 11214 1 109.50000 418.400000
4008 14679 8340 1 109.50000 418.400000
4008 14679 9459 1 109.50000 418.400000
4008 14679 9460 1 109.50000 418.400000
8340 14679 9459 1 109.50000 418.400000
8340 14679 9460 1 109.50000 418.400000
9459 14679 9460 1 109.50000 418.400000
890 14680 9461 1 109.50000 418.400000
890 14680 9462 1 109.50000 418.400000
890 14680 9463 1 109.50000 418.400000
9461 14680 9462 1 109.50000 418.400000
9461 14680 9463 1 109.50000 418.400000
9462 14680 9463 1 109.50000 418.400000
1658 14681 5822 1 109.50000 418.400000
1658 14681 8428 1 109.50000 418.400000
1658 14681 9466 1 109.50000 418.400000
5822 14681 8428 1 109.50000 418.400000
5822 14681 9466 1 109.50000 418.400000
8428 14681 9466 1 109.50000 418.400000
3126 14682 7774 1 109.50000 418.400000
3126 14682 9467 1 109.50000 418.400000
3126 14682 9468 1 109.50000 418.400000
7774 14682 9467 1 109.50000 418.400000
7774 14682 9468 1 109.50000 418.400000
9467 14682 9468 1 109.50000 418.400000
4344 14683 9469 1 109.50000 418.400000
4344 14683 9470 1 109.50000 418.400000
4344 14683 9471 1 109.50000 418.400000
9469 14683 9470 1 109.50000 418.400000
9469 14683 9471 1 109.50000 418.400000
9470 14683 9471 1 109.50000 418.400000
5169 14684 7083 1 109.50000 418.400000
5169 14684 8810 1 109.50000 418.400000
5169 14684 9187 1 109.50000 418.400000
7083 14684 8810 1 109.50000 418.400000
7083 14684 9187 1 109.50000 418.400000
8810 14684 9187 1 109.50000 418.400000
343 14685 2170 1 109.50000 418.400000
343 14685 6713 1 109.50000 418.400000
343 14685 9472 1 109.50000 418.400000
2170 14685 6713 1 109.50000 418.400000
2170 14685 9472 1 109.50000 418.400000
6713 14685 9472 1 109.50000 418.400000
1453 14686 9364 1 109.50000 418.400000
1453 14686 9473 1 109.50000 418.400000
1453 14686 9474 1 109.50000 418.400000
9364 14686 9473 1 109.50000 418.400000
9364 14686 9474 1 109.50000 418.400000
9473 14686 9474 1 109.50000 418.400000
6320 14687 9475 1 109.50000 418.400000
6320 14687 9476 1 109.50000 418.400000
6320 14687 9477 1 109.50000 418.400000
9475 14687 9476 1 109.50000 418.400000
9475 14687 9477 1 109.50000 418.400000
9476 14687 9477 1 109.50000 418.400000
308 14688 4996 1 109.50000 418.400000
308 14688 7456 1 109.50000 418.400000
308 14688 9478 1 109.50000 418.400000
4996 14688 7456 1 109.50000 418.400000
4996 14688 9478 1 109.50000 418.400000
7456 14688 9478 1 109.50000 418.400000
621 14689 5628 1 109.50000 418.400000
621 14689 9479 1 109.50000 418.400000
621 14689 9480 1 109.50000 418.400000
5628 14689 9479 1 109.50000 418.400000
5628 14689 9480 1 109.50000 418.400000
9479 14689 9480 1 109.50000 418.400000
2570 14690 5079 1 109.50000 418.400000
2570 14690 6736 1 109.50000 418.400000
2570 14690 9481 1 109.50000 418.400000
5079 14690 6736 1 109.50000 418.400000
5079 14690 9481 1 109.50000 418.400000
6736 14690 9481 1 109.50000 418.400000
6413 14691 6665 1 109.50000 418.400000
6413 14691 7234 1 109.50000 418.400000
6413 14691 9482 1 109.50000 418.400000
6665 14691 7234 1 109.50000 418.400000
6665 14691 9482 1 109.50000 418.400000
7234 14691 9482 1 109.50000 418.400000
1540 14692 2111 1 109.50000 418.400000
1540 14692 7620 1 109.50000 418.400000
1540 14692 9483 1 109.50000 418.400000
2111 14692 7620 1 109.50000 418.400000
2111 14692 9483 1 109.50000 418.400000
7620 14692 9483 1 109.50000 418.400000
485 14693 8616 1 109.50000 418.400000
485 14693 9383 1 109.50000 418.400000
485 14693 9484 1 109.50000 418.400000
8616 14693 9383 1 109.50000 418.400000
8616 14693 9484 1 109.50000 418.400000
9383 14693 9484 1 109.50000 418.400000
3896 14694 3977 1 109.50000 418.400000
3896 14694 8002 1 109.50000 418.400000
3896 14694 9487 1 109.50000 418.400000
3977 14694 8002 1 109.50000 418.400000
3977 14694 9487 1 109.50000 418.400000
8002 14694 9487 1 109.50000 418.400000
1067 14695 8957 1 109.50000 418.400000
1067 14695 9488 1 109.50000 418.400000
1067 14695 9489 1 109.50000 418.400000
8957 14695 9488 1 109.50000 418.400000
8957 14695 9489 1 109.50000 418.400000
9488 14695 9489 1 109.50000 418.400000
152 14696 8297 1 109.50000 418.400000
152 14696 9490 1 109.50000 418.400000
152 14696 9491 1 109.50000 418.400000
8297 14696 9490 1 109.50000 418.400000
8297 14696 9491 1 109.50000 418.400000
9490 14696 9491 1 109.50000 418.400000
1318 14697 8774 1 109.50000 418.400000
1318 14697 8842 1 109.50000 418.400000
1318 14697 9493 1 109.50000 418.400000
8774 14697 8842 1 109.50000 418.400000
8774 14697 9493 1 109.50000 418.400000
8842 14697 9493 1 109.50000 418.400000
5009 14698 9057 1 109.50000 418.400000
5009 14698 9452 1 109.50000 418.400000
5009 14698 9494 1 109.50000 418.400000
9057 14698 9452 1 109.50000 418.400000
9057 14698 9494 1 109.50000 418.400000
9452 14698 9494 1 109.50000 418.400000
2425 14699 3218 1 109.50000 418.400000
2425 14699 7468 1 109.50000 418.400000
2425 14699 9495 1 109.50000 418.400000
3218 14699 7468 1 109.50000 418.400000
3218 14699 9495 1 109.50000 418.400000
7468 14699 9495 1 109.50000 418.400000
1899 14700 7273 1 109.50000 418.400000
1899 14700 7591 1 109.50000 418.400000
1899 14700 9496 1 109.50000 418.400000
7273 14700 7591 1 109.50000 418.400000
7273 14700 9496 1 109.50000 418.400000
7591 14700 9496 1 109.50000 418.400000
7444 14701 8632 1 109.50000 418.400000
7444 14701 9497 1 109.50000 418.400000
7444 14701 9498 1 109.50000 418.400000
8632 14701 9497 1 109.50000 418.400000
8632 14701 9498 1 109.50000 418.400000
9497 14701 9498 1 109.50000 418.400000
3376 14702 6836 1 109.50000 418.400000
3376 14702 6837 1 109.50000 418.400000
3376 14702 9499 1 109.50000 418.400000
6836 14702 6837 1 109.50000 418.400000
6836 14702 9499 1 109.50000 418.400000
6837 14702 9499 1 109.50000 418.400000
7567 14703 7568 1 109.50000 418.400000
7567 14703 9230 1 109.50000 418.400000
7567 14703 11161 1 109.50000 418.400000
7568 14703 9230 1 109.50000 418.400000
7568 14703 11161 1 109.50000 418.400000
9230 14703 11161 1 109.50000 418.400000
5488 14704 9256 1 109.50000 418.400000
5488 14704 9501 1 109.50000 418.400000
5488 14704 9502 1 109.50000 418.400000
9256 14704 9501 1 109.50000 418.400000
9256 14704 9502 1 109.50000 418.400000
9501 14704 9502 1 109.50000 418.400000
2330 14705 2332 1 109.50000 418.400000
2330 14705 6201 1 109.50000 418.400000
2330 14705 11193 1 109.50000 418.400000
2332 14705 6201 1 109.50000 418.400000
2332 14705 11193 1 109.50000 418.400000
6201 14705 11193 1 109.50000 418.400000
2258 14706 6372 1 109.50000 418.400000
2258 14706 7595 1 109.50000 418.400000
2258 14706 9503 1 109.50000 418.400000
6372 14706 7595 1 109.50000 418.400000
6372 14706 9503 1 109.50000 418.400000
7595 14706 9503 1 109.50000 418.400000
2342 14707 2343 1 109.50000 418.400000
2342 14707 4493 1 109.50000 418.400000
2342 14707 9504 1 109.50000 418.400000
2343 14707 4493 1 109.50000 418.400000
2343 14707 9504 1 109.50000 418.400000
4493 14707 9504 1 109.50000 418.400000
1557 14708 4114 1 109.50000 418.400000
1557 14708 9507 1 109.50000 418.400000
1557 14708 9508 1 109.50000 418.400000
4114 14708 9507 1 109.50000 418.400000
4114 14708 9508 1 109.50000 418.400000
9507 14708 9508 1 109.50000 418.400000
4000 14709 5398 1 109.50000 418.400000
4000 14709 7573 1 109.50000 418.400000
4000 14709 9509 1 109.50000 418.400000
5398 14709 7573 1 109.50000 418.400000
5398 14709 9509 1 109.50000 418.400000
7573 14709 9509 1 109.50000 418.400000
4495 14710 4496 1 109.50000 418.400000
4495 14710 9511 1 109.50000 418.400000
4495 14710 9512 1 109.50000 418.400000
4496 14710 9511 1 109.50000 418.400000
4496 14710 9512 1 109.50000 418.400000
9511 14710 9512 1 109.50000 418.400000
3354 14711 3897 1 109.50000 418.400000
3354 14711 8324 1 109.50000 418.400000
3354 14711 8726 1 109.50000 418.400000
3897 14711 8324 1 109.50000 418.400000
3897 14711 8726 1 109.50000 418.400000
8324 14711 8726 1 109.50000 418.400000
9513 14712 9514 1 109.50000 418.400000
9513 14712 9515 1 109.50000 418.400000
9513 14712 9516 1 109.50000 418.400000
9514 14712 9515 1 109.50000 418.400000
9514 14712 9516 1 109.50000 418.400000
9515 14712 9516 1 109.50000 418.400000
2894 14713 2895 1 109.50000 418.400000
2894 14713 5331 1 109.50000 418.400000
2894 14713 6124 1 109.50000 418.400000
2895 14713 5331 1 109.50000 418.400000
2895 14713 6124 1 109.50000 418.400000
5331 14713 6124 1 109.50000 418.400000
3992 14714 6412 1 109.50000 418.400000
3992 14714 7243 1 109.50000 418.400000
3992 14714 9518 1 109.50000 418.400000
6412 14714 7243 1 109.50000 418.400000
6412 14714 9518 1 109.50000 418.400000
7243 14714 9518 1 109.50000 418.400000
578 14715 4001 1 109.50000 418.400000
578 14715 6675 1 109.50000 418.400000
578 14715 9519 1 109.50000 418.400000
4001 14715 6675 1 109.50000 418.400000
4001 14715 9519 1 109.50000 418.400000
6675 14715 9519 1 109.50000 418.400000
2762 14716 4633 1 109.50000 418.400000
2762 14716 7747 1 109.50000 418.400000
2762 14716 9521 1 109.50000 418.400000
4633 14716 7747 1 109.50000 418.400000
4633 14716 9521 1 109.50000 418.400000
7747 14716 9521 1 109.50000 418.400000
3933 14717 4850 1 109.50000 418.400000
3933 14717 5749 1 109.50000 418.400000
3933 14717 9522 1 109.50000 418.400000
4850 14717 5749 1 109.50000 418.400000
4850 14717 9522 1 109.50000 418.400000
5749 14717 9522 1 109.50000 418.400000
294 14718 6669 1 109.50000 418.400000
294 14718 9523 1 109.50000 418.400000
294 14718 9524 1 109.50000 418.400000
6669 14718 9523 1 109.50000 418.400000
6669 14718 9524 1 109.50000 418.400000
9523 14718 9524 1 109.50000 418.400000
4540 14719 8161 1 109.50000 418.400000
4540 14719 8300 1 109.50000 418.400000
4540 14719 9525 1 109.50000 418.400000
8161 14719 8300 1 109.50000 418.400000
8161 14719 9525 1 109.50000 418.400000
8300 14719 9525 1 109.50000 418.400000
3874 14720 9390 1 109.50000 418.400000
3874 14720 9400 1 109.50000 418.400000
3874 14720 9501 1 109.50000 418.400000
9390 14720 9400 1 109.50000 418.400000
9390 14720 9501 1 109.50000 418.400000
9400 14720 9501 1 109.50000 418.400000
1068 14721 1527 1 109.50000 418.400000
1068 14721 9527 1 109.50000 418.400000
1068 14721 9528 1 109.50000 418.400000
1527 14721 9527 1 109.50000 418.400000
1527 14721 9528 1 109.50000 418.400000
9527 14721 9528 1 109.50000 418.400000
8766 14722 9529 1 109.50000 418.400000
8766 14722 9530 1 109.50000 418.400000
8766 14722 9531 1 109.50000 418.400000
9529 14722 9530 1 109.50000 418.400000
9529 14722 9531 1 109.50000 418.400000
9530 14722 9531 1 109.50000 418.400000
1523 14723 7087 1 109.50000 418.400000
1523 14723 9533 1 109.50000 418.400000
1523 14723 9534 1 109.50000 418.400000
7087 14723 9533 1 109.50000 418.400000
7087 14723 9534 1 109.50000 418.400000
9533 14723 9534 1 109.50000 418.400000
589 14724 8784 1 109.50000 418.400000
589 14724 9426 1 109.50000 418.400000
589 14724 9535 1 109.50000 418.400000
8784 14724 9426 1 109.50000 418.400000
8784 14724 9535 1 109.50000 418.400000
9426 14724 9535 1 109.50000 418.400000
648 14725 3438 1 109.50000 418.400000
648 14725 9536 1 109.50000 418.400000
648 14725 9537 1 109.50000 418.400000
3438 14725 9536 1 109.50000 418.400000
3438 14725 9537 1 109.50000 418.400000
9536 14725 9537 1 109.50000 418.400000
3571 14726 7100 1 109.50000 418.400000
3571 14726 9538 1 109.50000 418.400000
3571 14726 9539 1 109.50000 418.400000
7100 14726 9538 1 109.50000 418.400000
7100 14726 9539 1 109.50000 418.400000
9538 14726 9539 1 109.50000 418.400000
6598 14727 7080 1 109.50000 418.400000
6598 14727 7082 1 109.50000 418.400000
6598 14727 9540 1 109.50000 418.400000
7080 14727 7082 1 109.50000 418.400000
7080 14727 9540 1 109.50000 418.400000
7082 14727 9540 1 109.50000 418.400000
9541 14728 9542 1 109.50000 418.400000
9541 14728 9543 1 109.50000 418.400000
9541 14728 9544 1 109.50000 418.400000
9542 14728 9543 1 109.50000 418.400000
9542 14728 9544 1 109.50000 418.400000
9543 14728 9544 1 109.50000 418.400000
3420 14729 3820 1 109.50000 418.400000
3420 14729 7973 1 109.50000 418.400000
3420 14729 9545 1 109.50000 418.400000
3820 14729 7973 1 109.50000 418.400000
3820 14729 9545 1 109.50000 418.400000
7973 14729 9545 1 109.50000 418.400000
962 14730 1012 1 109.50000 418.400000
962 14730 8744 1 109.50000 418.400000
962 14730 9546 1 109.50000 418.400000
1012 14730 8744 1 109.50000 418.400000
1012 14730 9546 1 109.50000 418.400000
8744 14730 9546 1 109.50000 418.400000
6658 14731 6825 1 109.50000 418.400000
6658 14731 7098 1 109.50000 418.400000
6658 14731 8665 1 109.50000 418.400000
6825 14731 7098 1 109.50000 418.400000
6825 14731 8665 1 109.50000 418.400000
7098 14731 8665 1 109.50000 418.400000
2485 14732 4711 1 109.50000 418.400000
2485 14732 9550 1 109.50000 418.400000
2485 14732 9551 1 109.50000 418.400000
4711 14732 9550 1 109.50000 418.400000
4711 14732 9551 1 109.50000 418.400000
9550 14732 9551 1 109.50000 418.400000
8009 14733 9552 1 109.50000 418.400000
8009 14733 9553 1 109.50000 418.400000
8009 14733 9554 1 109.50000 418.400000
9552 14733 9553 1 109.50000 418.400000
9552 14733 9554 1 109.50000 418.400000
9553 14733 9554 1 109.50000 418.400000
5295 14734 9015 1 109.50000 418.400000
5295 14734 9016 1 109.50000 418.400000
5295 14734 9555 1 109.50000 418.400000
9015 14734 9016 1 109.50000 418.400000
9015 14734 9555 1 109.50000 418.400000
9016 14734 9555 1 109.50000 418.400000
944 14735 4758 1 109.50000 418.400000
944 14735 9556 1 109.50000 418.400000
944 14735 9557 1 109.50000 418.400000
4758 14735 9556 1 109.50000 418.400000
4758 14735 9557 1 109.50000 418.400000
9556 14735 9557 1 109.50000 418.400000
6862 14736 7196 1 109.50000 418.400000
6862 14736 9559 1 109.50000 418.400000
6862 14736 9560 1 109.50000 418.400000
7196 14736 9559 1 109.50000 418.400000
7196 14736 9560 1 109.50000 418.400000
9559 14736 9560 1 109.50000 418.400000
2754 14737 2756 1 109.50000 418.400000
2754 14737 9561 1 109.50000 418.400000
2754 14737 9562 1 109.50000 418.400000
2756 14737 9561 1 109.50000 418.400000
2756 14737 9562 1 109.50000 418.400000
9561 14737 9562 1 109.50000 418.400000
3793 14738 6976 1 109.50000 418.400000
3793 14738 8823 1 109.50000 418.400000
3793 14738 9564 1 109.50000 418.400000
6976 14738 8823 1 109.50000 418.400000
6976 14738 9564 1 109.50000 418.400000
8823 14738 9564 1 109.50000 418.400000
7168 14739 9144 1 109.50000 418.400000
7168 14739 9565 1 109.50000 418.400000
7168 14739 9566 1 109.50000 418.400000
9144 14739 9565 1 109.50000 418.400000
9144 14739 9566 1 109.50000 418.400000
9565 14739 9566 1 109.50000 418.400000
594 14740 2960 1 109.50000 418.400000
594 14740 6107 1 109.50000 418.400000
594 14740 9432 1 109.50000 418.400000
2960 14740 6107 1 109.50000 418.400000
2960 14740 9432 1 109.50000 418.400000
6107 14740 9432 1 109.50000 418.400000
8899 14741 9184 1 109.50000 418.400000
8899 14741 9569 1 109.50000 418.400000
8899 14741 9570 1 109.50000 418.400000
9184 14741 9569 1 109.50000 418.400000
9184 14741 9570 1 109.50000 418.400000
9569 14741 9570 1 109.50000 418.400000
2265 14742 5723 1 109.50000 418.400000
2265 14742 8306 1 109.50000 418.400000
2265 14742 9571 1 109.50000 418.400000
5723 14742 8306 1 109.50000 418.400000
5723 14742 9571 1 109.50000 418.400000
8306 14742 9571 1 109.50000 418.400000
2835 14743 6895 1 109.50000 418.400000
2835 14743 8323 1 109.50000 418.400000
2835 14743 9487 1 109.50000 418.400000
6895 14743 8323 1 109.50000 418.400000
6895 14743 9487 1 109.50000 418.400000
8323 14743 9487 1 109.50000 418.400000
1887 14744 8132 1 109.50000 418.400000
1887 14744 9513 1 109.50000 418.400000
1887 14744 9572 1 109.50000 418.400000
8132 14744 9513 1 109.50000 418.400000
8132 14744 9572 1 109.50000 418.400000
9513 14744 9572 1 109.50000 418.400000
1380 14745 6145 1 109.50000 418.400000
1380 14745 8878 1 109.50000 418.400000
1380 14745 9573 1 109.50000 418.400000
6145 14745 8878 1 109.50000 418.400000
6145 14745 9573 1 109.50000 418.400000
8878 14745 9573 1 109.50000 418.400000
6649 14746 8232 1 109.50000 418.400000
6649 14746 9574 1 109.50000 418.400000
6649 14746 9575 1 109.50000 418.400000
8232 14746 9574 1 109.50000 418.400000
8232 14746 9575 1 109.50000 418.400000
9574 14746 9575 1 109.50000 418.400000
3928 14747 4865 1 109.50000 418.400000
3928 14747 9576 1 109.50000 418.400000
3928 14747 9577 1 109.50000 418.400000
4865 14747 9576 1 109.50000 418.400000
4865 14747 9577 1 109.50000 418.400000
9576 14747 9577 1 109.50000 418.400000
1542 14748 1707 1 109.50000 418.400000
1542 14748 6917 1 109.50000 418.400000
1542 14748 9578 1 109.50000 418.400000
1707 14748 6917 1 109.50000 418.400000
1707 14748 9578 1 109.50000 418.400000
6917 14748 9578 1 109.50000 418.400000
1051 14749 3068 1 109.50000 418.400000
1051 14749 3356 1 109.50000 418.400000
1051 14749 9579 1 109.50000 418.400000
3068 14749 3356 1 109.50000 418.400000
3068 14749 9579 1 109.50000 418.400000
3356 14749 9579 1 109.50000 418.400000
3981 14750 6331 1 109.50000 418.400000
3981 14750 7906 1 109.50000 418.400000
3981 14750 9580 1 109.50000 418.400000
6331 14750 7906 1 109.50000 418.400000
6331 14750 9580 1 109.50000 418.400000
7906 14750 9580 1 109.50000 418.400000
3602 14751 9581 1 109.50000 418.400000
3602 14751 9582 1 109.50000 418.400000
3602 14751 9583 1 109.50000 418.400000
9581 14751 9582 1 109.50000 418.400000
9581 14751 9583 1 109.50000 418.400000
9582 14751 9583 1 109.50000 418.400000
2734 14752 3669 1 109.50000 418.400000
2734 14752 7848 1 109.50000 418.400000
2734 14752 8593 1 109.50000 418.400000
3669 14752 7848 1 109.50000 418.400000
3669 14752 8593 1 109.50000 418.400000
7848 14752 8593 1 109.50000 418.400000
2293 14753 6511 1 109.50000 418.400000
2293 14753 8684 1 109.50000 418.400000
2293 14753 9318 1 109.50000 418.400000
6511 14753 8684 1 109.50000 418.400000
6511 14753 9318 1 109.50000 418.400000
8684 14753 9318 1 109.50000 418.400000
917 14754 8568 1 109.50000 418.400000
917 14754 9584 1 109.50000 418.400000
917 14754 9585 1 109.50000 418.400000
8568 14754 9584 1 109.50000 418.400000
8568 14754 9585 1 109.50000 418.400000
9584 14754 9585 1 109.50000 418.400000
2008 14755 2185 1 109.50000 418.400000
2008 14755 2846 1 109.50000 418.400000
2008 14755 9586 1 109.50000 418.400000
2185 14755 2846 1 109.50000 418.400000
2185 14755 9586 1 109.50000 418.400000
2846 14755 9586 1 109.50000 418.400000
166 14756 5065 1 109.50000 418.400000
166 14756 5645 1 109.50000 418.400000
166 14756 9587 1 109.50000 418.400000
5065 14756 5645 1 109.50000 418.400000
5065 14756 9587 1 109.50000 418.400000
5645 14756 9587 1 109.50000 418.400000
9000 14757 9588 1 109.50000 418.400000
9000 14757 9589 1 109.50000 418.400000
9000 14757 9590 1 109.50000 418.400000
9588 14757 9589 1 109.50000 418.400000
9588 14757 9590 1 109.50000 418.400000
9589 14757 9590 1 109.50000 418.400000
968 14758 3429 1 109.50000 418.400000
968 14758 6790 1 109.50000 418.400000
968 14758 9006 1 109.50000 418.400000
3429 14758 6790 1 109.50000 418.400000
3429 14758 9006 1 109.50000 418.400000
6790 14758 9006 1 109.50000 418.400000
1806 14759 5280 1 109.50000 418.400000
1806 14759 9591 1 109.50000 418.400000
1806 14759 9592 1 109.50000 418.400000
5280 14759 9591 1 109.50000 418.400000
5280 14759 9592 1 109.50000 418.400000
9591 14759 9592 1 109.50000 418.400000
7717 14760 8973 1 109.50000 418.400000
7717 14760 9593 1 109.50000 418.400000
7717 14760 9594 1 109.50000 418.400000
8973 14760 9593 1 109.50000 418.400000
8973 14760 9594 1 109.50000 418.400000
9593 14760 9594 1 109.50000 418.400000
3382 14761 8422 1 109.50000 418.400000
3382 14761 9595 1 109.50000 418.400000
3382 14761 9596 1 109.50000 418.400000
8422 14761 9595 1 109.50000 418.400000
8422 14761 9596 1 109.50000 418.400000
9595 14761 9596 1 109.50000 418.400000
1413 14762 8061 1 109.50000 418.400000
1413 14762 9598 1 109.50000 418.400000
1413 14762 9599 1 109.50000 418.400000
8061 14762 9598 1 109.50000 418.400000
8061 14762 9599 1 109.50000 418.400000
9598 14762 9599 1 109.50000 418.400000
109 14763 4885 1 109.50000 418.400000
109 14763 8862 1 109.50000 418.400000
109 14763 9600 1 109.50000 418.400000
4885 14763 8862 1 109.50000 418.400000
4885 14763 9600 1 109.50000 418.400000
8862 14763 9600 1 109.50000 418.400000
3417 14764 7460 1 109.50000 418.400000
3417 14764 9034 1 109.50000 418.400000
3417 14764 9603 1 109.50000 418.400000
7460 14764 9034 1 109.50000 418.400000
7460 14764 9603 1 109.50000 418.400000
9034 14764 9603 1 109.50000 418.400000
1464 14765 7570 1 109.50000 418.400000
1464 14765 9604 1 109.50000 418.400000
1464 14765 9605 1 109.50000 418.400000
7570 14765 9604 1 109.50000 418.400000
7570 14765 9605 1 109.50000 418.400000
9604 14765 9605 1 109.50000 418.400000
7399 14766 7490 1 109.50000 418.400000
7399 14766 9606 1 109.50000 418.400000
7399 14766 11286 1 109.50000 418.400000
7490 14766 9606 1 109.50000 418.400000
7490 14766 11286 1 109.50000 418.400000
9606 14766 11286 1 109.50000 418.400000
4408 14767 7875 1 109.50000 418.400000
4408 14767 9607 1 109.50000 418.400000
4408 14767 9608 1 109.50000 418.400000
7875 14767 9607 1 109.50000 418.400000
7875 14767 9608 1 109.50000 418.400000
9607 14767 9608 1 109.50000 418.400000
9609 14768 9969 1 109.50000 418.400000
9609 14768 11054 1 109.50000 418.400000
9609 14768 11055 1 109.50000 418.400000
9969 14768 11054 1 109.50000 418.400000
9969 14768 11055 1 109.50000 418.400000
11054 14768 11055 1 109.50000 418.400000
3454 14769 8792 1 109.50000 418.400000
3454 14769 9612 1 109.50000 418.400000
3454 14769 9613 1 109.50000 418.400000
8792 14769 9612 1 109.50000 418.400000
8792 14769 9613 1 109.50000 418.400000
9612 14769 9613 1 109.50000 418.400000
1646 14770 4088 1 109.50000 418.400000
1646 14770 9614 1 109.50000 418.400000
1646 14770 9615 1 109.50000 418.400000
4088 14770 9614 1 109.50000 418.400000
4088 14770 9615 1 109.50000 418.400000
9614 14770 9615 1 109.50000 418.400000
5764 14771 6274 1 109.50000 418.400000
5764 14771 6275 1 109.50000 418.400000
5764 14771 9511 1 109.50000 418.400000
6274 14771 6275 1 109.50000 418.400000
6274 14771 9511 1 109.50000 418.400000
6275 14771 9511 1 109.50000 418.400000
4581 14772 8521 1 109.50000 418.400000
4581 14772 9616 1 109.50000 418.400000
4581 14772 9617 1 109.50000 418.400000
8521 14772 9616 1 109.50000 418.400000
8521 14772 9617 1 109.50000 418.400000
9616 14772 9617 1 109.50000 418.400000
714 14773 715 1 109.50000 418.400000
714 14773 8692 1 109.50000 418.400000
714 14773 9618 1 109.50000 418.400000
715 14773 8692 1 109.50000 418.400000
715 14773 9618 1 109.50000 418.400000
8692 14773 9618 1 109.50000 418.400000
506 14774 2172 1 109.50000 418.400000
506 14774 2718 1 109.50000 418.400000
506 14774 9619 1 109.50000 418.400000
2172 14774 2718 1 109.50000 418.400000
2172 14774 9619 1 109.50000 418.400000
2718 14774 9619 1 109.50000 418.400000
81 14775 1307 1 109.50000 418.400000
81 14775 8914 1 109.50000 418.400000
81 14775 9620 1 109.50000 418.400000
1307 14775 8914 1 109.50000 418.400000
1307 14775 9620 1 109.50000 418.400000
8914 14775 9620 1 109.50000 418.400000
2922 14776 7019 1 109.50000 418.400000
2922 14776 7204 1 109.50000 418.400000
2922 14776 7534 1 109.50000 418.400000
7019 14776 7204 1 109.50000 418.400000
7019 14776 7534 1 109.50000 418.400000
7204 14776 7534 1 109.50000 418.400000
583 14777 3089 1 109.50000 418.400000
583 14777 3188 1 109.50000 418.400000
583 14777 5135 1 109.50000 418.400000
3089 14777 3188 1 109.50000 418.400000
3089 14777 5135 1 109.50000 418.400000
3188 14777 5135 1 109.50000 418.400000
4068 14778 7124 1 109.50000 418.400000
4068 14778 7126 1 109.50000 418.400000
4068 14778 7374 1 109.50000 418.400000
7124 14778 7126 1 109.50000 418.400000
7124 14778 7374 1 109.50000 418.400000
7126 14778 7374 1 109.50000 418.400000
1032 14779 9623 1 109.50000 418.400000
1032 14779 9624 1 109.50000 418.400000
1032 14779 9625 1 109.50000 418.400000
9623 14779 9624 1 109.50000 418.400000
9623 14779 9625 1 109.50000 418.400000
9624 14779 9625 1 109.50000 418.400000
8215 14780 8856 1 109.50000 418.400000
8215 14780 8910 1 109.50000 418.400000
8215 14780 9137 1 109.50000 418.400000
8856 14780 8910 1 109.50000 418.400000
8856 14780 9137 1 109.50000 418.400000
8910 14780 9137 1 109.50000 418.400000
9626 14781 9627 1 109.50000 418.400000
9626 14781 9628 1 109.50000 418.400000
9626 14781 9629 1 109.50000 418.400000
9627 14781 9628 1 109.50000 418.400000
9627 14781 9629 1 109.50000 418.400000
9628 14781 9629 1 109.50000 418.400000
1714 14782 6756 1 109.50000 418.400000
1714 14782 9630 1 109.50000 418.400000
1714 14782 9631 1 109.50000 418.400000
6756 14782 9630 1 109.50000 418.400000
6756 14782 9631 1 109.50000 418.400000
9630 14782 9631 1 109.50000 418.400000
2755 14783 9632 1 109.50000 418.400000
2755 14783 9634 1 109.50000 418.400000
2755 14783 10819 1 109.50000 418.400000
9632 14783 9634 1 109.50000 418.400000
9632 14783 10819 1 109.50000 418.400000
9634 14783 10819 1 109.50000 418.400000
977 14784 2450 1 109.50000 418.400000
977 14784 9635 1 109.50000 418.400000
977 14784 9636 1 109.50000 418.400000
2450 14784 9635 1 109.50000 418.400000
2450 14784 9636 1 109.50000 418.400000
9635 14784 9636 1 109.50000 418.400000
8181 14785 8463 1 109.50000 418.400000
8181 14785 9454 1 109.50000 418.400000
8181 14785 9637 1 109.50000 418.400000
8463 14785 9454 1 109.50000 418.400000
8463 14785 9637 1 109.50000 418.400000
9454 14785 9637 1 109.50000 418.400000
8997 14786 9235 1 109.50000 418.400000
8997 14786 9638 1 109.50000 418.400000
8997 14786 9639 1 109.50000 418.400000
9235 14786 9638 1 109.50000 418.400000
9235 14786 9639 1 109.50000 418.400000
9638 14786 9639 1 109.50000 418.400000
772 14787 7260 1 109.50000 418.400000
772 14787 7850 1 109.50000 418.400000
772 14787 9640 1 109.50000 418.400000
7260 14787 7850 1 109.50000 418.400000
7260 14787 9640 1 109.50000 418.400000
7850 14787 9640 1 109.50000 418.400000
3435 14788 5990 1 109.50000 418.400000
3435 14788 8703 1 109.50000 418.400000
3435 14788 9641 1 109.50000 418.400000
5990 14788 8703 1 109.50000 418.400000
5990 14788 9641 1 109.50000 418.400000
8703 14788 9641 1 109.50000 418.400000
9140 14789 9288 1 109.50000 418.400000
9140 14789 9642 1 109.50000 418.400000
9140 14789 9643 1 109.50000 418.400000
9288 14789 9642 1 109.50000 418.400000
9288 14789 9643 1 109.50000 418.400000
9642 14789 9643 1 109.50000 418.400000
3913 14790 7102 1 109.50000 418.400000
3913 14790 9646 1 109.50000 418.400000
3913 14790 9647 1 109.50000 418.400000
7102 14790 9646 1 109.50000 418.400000
7102 14790 9647 1 109.50000 418.400000
9646 14790 9647 1 109.50000 418.400000
3458 14791 4019 1 109.50000 418.400000
3458 14791 4390 1 109.50000 418.400000
3458 14791 5372 1 109.50000 418.400000
4019 14791 4390 1 109.50000 418.400000
4019 14791 5372 1 109.50000 418.400000
4390 14791 5372 1 109.50000 418.400000
6017 14792 9649 1 109.50000 418.400000
6017 14792 9650 1 109.50000 418.400000
6017 14792 9651 1 109.50000 418.400000
9649 14792 9650 1 109.50000 418.400000
9649 14792 9651 1 109.50000 418.400000
9650 14792 9651 1 109.50000 418.400000
84 14793 1388 1 109.50000 418.400000
84 14793 4400 1 109.50000 418.400000
84 14793 9652 1 109.50000 418.400000
1388 14793 4400 1 109.50000 418.400000
1388 14793 9652 1 109.50000 418.400000
4400 14793 9652 1 109.50000 418.400000
974 14794 4593 1 109.50000 418.400000
974 14794 6671 1 109.50000 418.400000
974 14794 9529 1 109.50000 418.400000
4593 14794 6671 1 109.50000 418.400000
4593 14794 9529 1 109.50000 418.400000
6671 14794 9529 1 109.50000 418.400000
905 14795 1534 1 109.50000 418.400000
905 14795 1719 1 109.50000 418.400000
905 14795 8768 1 109.50000 418.400000
1534 14795 1719 1 109.50000 418.400000
1534 14795 8768 1 109.50000 418.400000
1719 14795 8768 1 109.50000 418.400000
710 14796 3550 1 109.50000 418.400000
710 14796 8404 1 109.50000 418.400000
710 14796 9656 1 109.50000 418.400000
3550 14796 8404 1 109.50000 418.400000
3550 14796 9656 1 109.50000 418.400000
8404 14796 9656 1 109.50000 418.400000
605 14797 2683 1 109.50000 418.400000
605 14797 9657 1 109.50000 418.400000
605 14797 10521 1 109.50000 418.400000
2683 14797 9657 1 109.50000 418.400000
2683 14797 10521 1 109.50000 418.400000
9657 14797 10521 1 109.50000 418.400000
9521 14798 9658 1 109.50000 418.400000
9521 14798 9659 1 109.50000 418.400000
9521 14798 9660 1 109.50000 418.400000
9658 14798 9659 1 109.50000 418.400000
9658 14798 9660 1 109.50000 418.400000
9659 14798 9660 1 109.50000 418.400000
3769 14799 9661 1 109.50000 418.400000
3769 14799 9662 1 109.50000 418.400000
3769 14799 9663 1 109.50000 418.400000
9661 14799 9662 1 109.50000 418.400000
9661 14799 9663 1 109.50000 418.400000
9662 14799 9663 1 109.50000 418.400000
1629 14800 5897 1 109.50000 418.400000
1629 14800 9473 1 109.50000 418.400000
1629 14800 9664 1 109.50000 418.400000
5897 14800 9473 1 109.50000 418.400000
5897 14800 9664 1 109.50000 418.400000
9473 14800 9664 1 109.50000 418.400000
4808 14801 7485 1 109.50000 418.400000
4808 14801 9665 1 109.50000 418.400000
4808 14801 9666 1 109.50000 418.400000
7485 14801 9665 1 109.50000 418.400000
7485 14801 9666 1 109.50000 418.400000
9665 14801 9666 1 109.50000 418.400000
9667 14802 9668 1 109.50000 418.400000
9667 14802 9669 1 109.50000 418.400000
9667 14802 9670 1 109.50000 418.400000
9668 14802 9669 1 109.50000 418.400000
9668 14802 9670 1 109.50000 418.400000
9669 14802 9670 1 109.50000 418.400000
1745 14803 1975 1 109.50000 418.400000
1745 14803 8184 1 109.50000 418.400000
1745 14803 9671 1 109.50000 418.400000
1975 14803 8184 1 109.50000 418.400000
1975 14803 9671 1 109.50000 418.400000
8184 14803 9671 1 109.50000 418.400000
5152 14804 6367 1 109.50000 418.400000
5152 14804 7976 1 109.50000 418.400000
5152 14804 9674 1 109.50000 418.400000
6367 14804 7976 1 109.50000 418.400000
6367 14804 9674 1 109.50000 418.400000
7976 14804 9674 1 109.50000 418.400000
154 14805 9223 1 109.50000 418.400000
154 14805 9401 1 109.50000 418.400000
154 14805 9675 1 109.50000 418.400000
9223 14805 9401 1 109.50000 418.400000
9223 14805 9675 1 109.50000 418.400000
9401 14805 9675 1 109.50000 418.400000
768 14806 7118 1 109.50000 418.400000
768 14806 8137 1 109.50000 418.400000
768 14806 9676 1 109.50000 418.400000
7118 14806 8137 1 109.50000 418.400000
7118 14806 9676 1 109.50000 418.400000
8137 14806 9676 1 109.50000 418.400000
4586 14807 9677 1 109.50000 418.400000
4586 14807 9678 1 109.50000 418.400000
4586 14807 9679 1 109.50000 418.400000
9677 14807 9678 1 109.50000 418.400000
9677 14807 9679 1 109.50000 418.400000
9678 14807 9679 1 109.50000 418.400000
8465 14808 9680 1 109.50000 418.400000
8465 14808 9681 1 109.50000 418.400000
8465 14808 9682 1 109.50000 418.400000
9680 14808 9681 1 109.50000 418.400000
9680 14808 9682 1 109.50000 418.400000
9681 14808 9682 1 109.50000 418.400000
6533 14809 9458 1 109.50000 418.400000
6533 14809 9683 1 109.50000 418.400000
6533 14809 11309 1 109.50000 418.400000
9458 14809 9683 1 109.50000 418.400000
9458 14809 11309 1 109.50000 418.400000
9683 14809 11309 1 109.50000 418.400000
7632 14810 9131 1 109.50000 418.400000
7632 14810 9206 1 109.50000 418.400000
7632 14810 9684 1 109.50000 418.400000
9131 14810 9206 1 109.50000 418.400000
9131 14810 9684 1 109.50000 418.400000
9206 14810 9684 1 109.50000 418.400000
7139 14811 7146 1 109.50000 418.400000
7139 14811 9685 1 109.50000 418.400000
7139 14811 9686 1 109.50000 418.400000
7146 14811 9685 1 109.50000 418.400000
7146 14811 9686 1 109.50000 418.400000
9685 14811 9686 1 109.50000 418.400000
194 14812 3825 1 109.50000 418.400000
194 14812 3959 1 109.50000 418.400000
194 14812 9688 1 109.50000 418.400000
3825 14812 3959 1 109.50000 418.400000
3825 14812 9688 1 109.50000 418.400000
3959 14812 9688 1 109.50000 418.400000
5836 14813 5837 1 109.50000 418.400000
5836 14813 5838 1 109.50000 418.400000
5836 14813 9689 1 109.50000 418.400000
5837 14813 5838 1 109.50000 418.400000
5837 14813 9689 1 109.50000 418.400000
5838 14813 9689 1 109.50000 418.400000
6489 14814 9556 1 109.50000 418.400000
6489 14814 9691 1 109.50000 418.400000
6489 14814 11164 1 109.50000 418.400000
9556 14814 9691 1 109.50000 418.400000
9556 14814 11164 1 109.50000 418.400000
9691 14814 11164 1 109.50000 418.400000
1578 14815 2841 1 109.50000 418.400000
1578 14815 4140 1 109.50000 418.400000
1578 14815 9692 1 109.50000 418.400000
2841 14815 4140 1 109.50000 418.400000
2841 14815 9692 1 109.50000 418.400000
4140 14815 9692 1 109.50000 418.400000
5606 14816 5648 1 109.50000 418.400000
5606 14816 9299 1 109.50000 418.400000
5606 14816 9693 1 109.50000 418.400000
5648 14816 9299 1 109.50000 418.400000
5648 14816 9693 1 109.50000 418.400000
9299 14816 9693 1 109.50000 418.400000
5102 14817 9694 1 109.50000 418.400000
5102 14817 9695 1 109.50000 418.400000
5102 14817 10680 1 109.50000 418.400000
9694 14817 9695 1 109.50000 418.400000
9694 14817 10680 1 109.50000 418.400000
9695 14817 10680 1 109.50000 418.400000
846 14818 8240 1 109.50000 418.400000
846 14818 9696 1 109.50000 418.400000
846 14818 9697 1 109.50000 418.400000
8240 14818 9696 1 109.50000 418.400000
8240 14818 9697 1 109.50000 418.400000
9696 14818 9697 1 109.50000 418.400000
2458 14819 8915 1 109.50000 418.400000
2458 14819 9030 1 109.50000 418.400000
2458 14819 9698 1 109.50000 418.400000
8915 14819 9030 1 109.50000 418.400000
8915 14819 9698 1 109.50000 418.400000
9030 14819 9698 1 109.50000 418.400000
4509 14820 9699 1 109.50000 418.400000
4509 14820 9700 1 109.50000 418.400000
4509 14820 9701 1 109.50000 418.400000
9699 14820 9700 1 109.50000 418.400000
9699 14820 9701 1 109.50000 418.400000
9700 14820 9701 1 109.50000 418.400000
2361 14821 9702 1 109.50000 418.400000
2361 14821 9703 1 109.50000 418.400000
2361 14821 9704 1 109.50000 418.400000
9702 14821 9703 1 109.50000 418.400000
9702 14821 9704 1 109.50000 418.400000
9703 14821 9704 1 109.50000 418.400000
329 14822 8502 1 109.50000 418.400000
329 14822 9705 1 109.50000 418.400000
329 14822 9706 1 109.50000 418.400000
8502 14822 9705 1 109.50000 418.400000
8502 14822 9706 1 109.50000 418.400000
9705 14822 9706 1 109.50000 418.400000
7628 14823 7945 1 109.50000 418.400000
7628 14823 9708 1 109.50000 418.400000
7628 14823 10467 1 109.50000 418.400000
7945 14823 9708 1 109.50000 418.400000
7945 14823 10467 1 109.50000 418.400000
9708 14823 10467 1 109.50000 418.400000
3831 14824 6470 1 109.50000 418.400000
3831 14824 8834 1 109.50000 418.400000
3831 14824 9709 1 109.50000 418.400000
6470 14824 8834 1 109.50000 418.400000
6470 14824 9709 1 109.50000 418.400000
8834 14824 9709 1 109.50000 418.400000
3951 14825 9494 1 109.50000 418.400000
3951 14825 9710 1 109.50000 418.400000
3951 14825 9711 1 109.50000 418.400000
9494 14825 9710 1 109.50000 418.400000
9494 14825 9711 1 109.50000 418.400000
9710 14825 9711 1 109.50000 418.400000
7659 14826 9712 1 109.50000 418.400000
7659 14826 9713 1 109.50000 418.400000
7659 14826 10259 1 109.50000 418.400000
9712 14826 9713 1 109.50000 418.400000
9712 14826 10259 1 109.50000 418.400000
9713 14826 10259 1 109.50000 418.400000
5728 14827 9163 1 109.50000 418.400000
5728 14827 9714 1 109.50000 418.400000
5728 14827 9715 1 109.50000 418.400000
9163 14827 9714 1 109.50000 418.400000
9163 14827 9715 1 109.50000 418.400000
9714 14827 9715 1 109.50000 418.400000
3094 14828 5099 1 109.50000 418.400000
3094 14828 9716 1 109.50000 418.400000
3094 14828 9717 1 109.50000 418.400000
5099 14828 9716 1 109.50000 418.400000
5099 14828 9717 1 109.50000 418.400000
9716 14828 9717 1 109.50000 418.400000
844 14829 6717 1 109.50000 418.400000
844 14829 8526 1 109.50000 418.400000
844 14829 9718 1 109.50000 418.400000
6717 14829 8526 1 109.50000 418.400000
6717 14829 9718 1 109.50000 418.400000
8526 14829 9718 1 109.50000 418.400000
6226 14830 9719 1 109.50000 418.400000
6226 14830 9720 1 109.50000 418.400000
6226 14830 9721 1 109.50000 418.400000
9719 14830 9720 1 109.50000 418.400000
9719 14830 9721 1 109.50000 418.400000
9720 14830 9721 1 109.50000 418.400000
3104 14831 4081 1 109.50000 418.400000
3104 14831 7579 1 109.50000 418.400000
3104 14831 9298 1 109.50000 418.400000
4081 14831 7579 1 109.50000 418.400000
4081 14831 9298 1 109.50000 418.400000
7579 14831 9298 1 109.50000 418.400000
7133 14832 7899 1 109.50000 418.400000
7133 14832 9722 1 109.50000 418.400000
7133 14832 9723 1 109.50000 418.400000
7899 14832 9722 1 109.50000 418.400000
7899 14832 9723 1 109.50000 418.400000
9722 14832 9723 1 109.50000 418.400000
1043 14833 2382 1 109.50000 418.400000
1043 14833 9403 1 109.50000 418.400000
1043 14833 11345 1 109.50000 418.400000
2382 14833 9403 1 109.50000 418.400000
2382 14833 11345 1 109.50000 418.400000
9403 14833 11345 1 109.50000 418.400000
7707 14834 7721 1 109.50000 418.400000
7707 14834 7767 1 109.50000 418.400000
7707 14834 9724 1 109.50000 418.400000
7721 14834 7767 1 109.50000 418.400000
7721 14834 9724 1 109.50000 418.400000
7767 14834 9724 1 109.50000 418.400000
9037 14835 9437 1 109.50000 418.400000
9037 14835 9718 1 109.50000 418.400000
9037 14835 9725 1 109.50000 418.400000
9437 14835 9718 1 109.50000 418.400000
9437 14835 9725 1 109.50000 418.400000
9718 14835 9725 1 109.50000 418.400000
3323 14836 5935 1 109.50000 418.400000
3323 14836 8638 1 109.50000 418.400000
3323 14836 9726 1 109.50000 418.400000
5935 14836 8638 1 109.50000 418.400000
5935 14836 9726 1 109.50000 418.400000
8638 14836 9726 1 109.50000 418.400000
4261 14837 7346 1 109.50000 418.400000
4261 14837 9059 1 109.50000 418.400000
4261 14837 9728 1 109.50000 418.400000
7346 14837 9059 1 109.50000 418.400000
7346 14837 9728 1 109.50000 418.400000
9059 14837 9728 1 109.50000 418.400000
3465 14838 6839 1 109.50000 418.400000
3465 14838 9596 1 109.50000 418.400000
3465 14838 9730 1 109.50000 418.400000
6839 14838 9596 1 109.50000 418.400000
6839 14838 9730 1 109.50000 418.400000
9596 14838 9730 1 109.50000 418.400000
5905 14839 6873 1 109.50000 418.400000
5905 14839 9260 1 109.50000 418.400000
5905 14839 9702 1 109.50000 418.400000
6873 14839 9260 1 109.50000 418.400000
6873 14839 9702 1 109.50000 418.400000
9260 14839 9702 1 109.50000 418.400000
4121 14840 8086 1 109.50000 418.400000
4121 14840 8553 1 109.50000 418.400000
4121 14840 9731 1 109.50000 418.400000
8086 14840 8553 1 109.50000 418.400000
8086 14840 9731 1 109.50000 418.400000
8553 14840 9731 1 109.50000 418.400000
9732 14841 9733 1 109.50000 418.400000
9732 14841 9734 1 109.50000 418.400000
9732 14841 9735 1 109.50000 418.400000
9733 14841 9734 1 109.50000 418.400000
9733 14841 9735 1 109.50000 418.400000
9734 14841 9735 1 109.50000 418.400000
9351 14842 9736 1 109.50000 418.400000
9351 14842 9737 1 109.50000 418.400000
9351 14842 9738 1 109.50000 418.400000
9736 14842 9737 1 109.50000 418.400000
9736 14842 9738 1 109.50000 418.400000
9737 14842 9738 1 109.50000 418.400000
4134 14843 7739 1 109.50000 418.400000
4134 14843 8529 1 109.50000 418.400000
4134 14843 9739 1 109.50000 418.400000
7739 14843 8529 1 109.50000 418.400000
7739 14843 9739 1 109.50000 418.400000
8529 14843 9739 1 109.50000 418.400000
4177 14844 5759 1 109.50000 418.400000
4177 14844 5760 1 109.50000 418.400000
4177 14844 6978 1 109.50000 418.400000
5759 14844 5760 1 109.50000 418.400000
5759 14844 6978 1 109.50000 418.400000
5760 14844 6978 1 109.50000 418.400000
1236 14845 1554 1 109.50000 418.400000
1236 14845 6389 1 109.50000 418.400000
1236 14845 9741 1 109.50000 418.400000
1554 14845 6389 1 109.50000 418.400000
1554 14845 9741 1 109.50000 418.400000
6389 14845 9741 1 109.50000 418.400000
1681 14846 7596 1 109.50000 418.400000
1681 14846 9742 1 109.50000 418.400000
1681 14846 9743 1 109.50000 418.400000
7596 14846 9742 1 109.50000 418.400000
7596 14846 9743 1 109.50000 418.400000
9742 14846 9743 1 109.50000 418.400000
1155 14847 8974 1 109.50000 418.400000
1155 14847 9744 1 109.50000 418.400000
1155 14847 9745 1 109.50000 418.400000
8974 14847 9744 1 109.50000 418.400000
8974 14847 9745 1 109.50000 418.400000
9744 14847 9745 1 109.50000 418.400000
3348 14848 9159 1 109.50000 418.400000
3348 14848 9746 1 109.50000 418.400000
3348 14848 9747 1 109.50000 418.400000
9159 14848 9746 1 109.50000 418.400000
9159 14848 9747 1 109.50000 418.400000
9746 14848 9747 1 109.50000 418.400000
1417 14849 6270 1 109.50000 418.400000
1417 14849 7238 1 109.50000 418.400000
1417 14849 9748 1 109.50000 418.400000
6270 14849 7238 1 109.50000 418.400000
6270 14849 9748 1 109.50000 418.400000
7238 14849 9748 1 109.50000 418.400000
7686 14850 9548 1 109.50000 418.400000
7686 14850 9749 1 109.50000 418.400000
7686 14850 9750 1 109.50000 418.400000
9548 14850 9749 1 109.50000 418.400000
9548 14850 9750 1 109.50000 418.400000
9749 14850 9750 1 109.50000 418.400000
4052 14851 9751 1 109.50000 418.400000
4052 14851 9752 1 109.50000 418.400000
4052 14851 9753 1 109.50000 418.400000
9751 14851 9752 1 109.50000 418.400000
9751 14851 9753 1 109.50000 418.400000
9752 14851 9753 1 109.50000 418.400000
1790 14852 4943 1 109.50000 418.400000
1790 14852 7891 1 109.50000 418.400000
1790 14852 9754 1 109.50000 418.400000
4943 14852 7891 1 109.50000 418.400000
4943 14852 9754 1 109.50000 418.400000
7891 14852 9754 1 109.50000 418.400000
6590 14853 9246 1 109.50000 418.400000
6590 14853 9755 1 109.50000 418.400000
6590 14853 9756 1 109.50000 418.400000
9246 14853 9755 1 109.50000 418.400000
9246 14853 9756 1 109.50000 418.400000
9755 14853 9756 1 109.50000 418.400000
1090 14854 7562 1 109.50000 418.400000
1090 14854 9310 1 109.50000 418.400000
1090 14854 9540 1 109.50000 418.400000
7562 14854 9310 1 109.50000 418.400000
7562 14854 9540 1 109.50000 418.400000
9310 14854 9540 1 109.50000 418.400000
5707 14855 7296 1 109.50000 418.400000
5707 14855 7462 1 109.50000 418.400000
5707 14855 9251 1 109.50000 418.400000
7296 14855 7462 1 109.50000 418.400000
7296 14855 9251 1 109.50000 418.400000
7462 14855 9251 1 109.50000 418.400000
2261 14856 4329 1 109.50000 418.400000
2261 14856 7009 1 109.50000 418.400000
2261 14856 8618 1 109.50000 418.400000
4329 14856 7009 1 109.50000 418.400000
4329 14856 8618 1 109.50000 418.400000
7009 14856 8618 1 109.50000 418.400000
275 14857 6663 1 109.50000 418.400000
275 14857 9757 1 109.50000 418.400000
275 14857 9758 1 109.50000 418.400000
6663 14857 9757 1 109.50000 418.400000
6663 14857 9758 1 109.50000 418.400000
9757 14857 9758 1 109.50000 418.400000
3169 14858 7416 1 109.50000 418.400000
3169 14858 7693 1 109.50000 418.400000
3169 14858 7695 1 109.50000 418.400000
7416 14858 7693 1 109.50000 418.400000
7416 14858 7695 1 109.50000 418.400000
7693 14858 7695 1 109.50000 418.400000
1999 14859 7985 1 109.50000 418.400000
1999 14859 8283 1 109.50000 418.400000
1999 14859 9760 1 109.50000 418.400000
7985 14859 8283 1 109.50000 418.400000
7985 14859 9760 1 109.50000 418.400000
8283 14859 9760 1 109.50000 418.400000
1326 14860 2891 1 109.50000 418.400000
1326 14860 9598 1 109.50000 418.400000
1326 14860 9761 1 109.50000 418.400000
2891 14860 9598 1 109.50000 418.400000
2891 14860 9761 1 109.50000 418.400000
9598 14860 9761 1 109.50000 418.400000
448 14861 1622 1 109.50000 418.400000
448 14861 9762 1 109.50000 418.400000
448 14861 9763 1 109.50000 418.400000
1622 14861 9762 1 109.50000 418.400000
1622 14861 9763 1 109.50000 418.400000
9762 14861 9763 1 109.50000 418.400000
4813 14862 8219 1 109.50000 418.400000
4813 14862 9241 1 109.50000 418.400000
4813 14862 9766 1 109.50000 418.400000
8219 14862 9241 1 109.50000 418.400000
8219 14862 9766 1 109.50000 418.400000
9241 14862 9766 1 109.50000 418.400000
2363 14863 9519 1 109.50000 418.400000
2363 14863 9767 1 109.50000 418.400000
2363 14863 9768 1 109.50000 418.400000
9519 14863 9767 1 109.50000 418.400000
9519 14863 9768 1 109.50000 418.400000
9767 14863 9768 1 109.50000 418.400000
4323 14864 9629 1 109.50000 418.400000
4323 14864 9769 1 109.50000 418.400000
4323 14864 9770 1 109.50000 418.400000
9629 14864 9769 1 109.50000 418.400000
9629 14864 9770 1 109.50000 418.400000
9769 14864 9770 1 109.50000 418.400000
6613 14865 6894 1 109.50000 418.400000
6613 14865 9771 1 109.50000 418.400000
6613 14865 9772 1 109.50000 418.400000
6894 14865 9771 1 109.50000 418.400000
6894 14865 9772 1 109.50000 418.400000
9771 14865 9772 1 109.50000 418.400000
1076 14866 4689 1 109.50000 418.400000
1076 14866 7836 1 109.50000 418.400000
1076 14866 11371 1 109.50000 418.400000
4689 14866 7836 1 109.50000 418.400000
4689 14866 11371 1 109.50000 418.400000
7836 14866 11371 1 109.50000 418.400000
1927 14867 8235 1 109.50000 418.400000
1927 14867 8686 1 109.50000 418.400000
1927 14867 9773 1 109.50000 418.400000
8235 14867 8686 1 109.50000 418.400000
8235 14867 9773 1 109.50000 418.400000
8686 14867 9773 1 109.50000 418.400000
4738 14868 9755 1 109.50000 418.400000
4738 14868 9774 1 109.50000 418.400000
4738 14868 11199 1 109.50000 418.400000
9755 14868 9774 1 109.50000 418.400000
9755 14868 11199 1 109.50000 418.400000
9774 14868 11199 1 109.50000 418.400000
574 14869 3548 1 109.50000 418.400000
574 14869 5478 1 109.50000 418.400000
574 14869 9775 1 109.50000 418.400000
3548 14869 5478 1 109.50000 418.400000
3548 14869 9775 1 109.50000 418.400000
5478 14869 9775 1 109.50000 418.400000
6871 14870 9379 1 109.50000 418.400000
6871 14870 9530 1 109.50000 418.400000
6871 14870 9776 1 109.50000 418.400000
9379 14870 9530 1 109.50000 418.400000
9379 14870 9776 1 109.50000 418.400000
9530 14870 9776 1 109.50000 418.400000
2596 14871 8430 1 109.50000 418.400000
2596 14871 9778 1 109.50000 418.400000
2596 14871 9779 1 109.50000 418.400000
8430 14871 9778 1 109.50000 418.400000
8430 14871 9779 1 109.50000 418.400000
9778 14871 9779 1 109.50000 418.400000
6902 14872 6962 1 109.50000 418.400000
6902 14872 7736 1 109.50000 418.400000
6902 14872 9780 1 109.50000 418.400000
6962 14872 7736 1 109.50000 418.400000
6962 14872 9780 1 109.50000 418.400000
7736 14872 9780 1 109.50000 418.400000
5502 14873 7941 1 109.50000 418.400000
5502 14873 9781 1 109.50000 418.400000
5502 14873 9782 1 109.50000 418.400000
7941 14873 9781 1 109.50000 418.400000
7941 14873 9782 1 109.50000 418.400000
9781 14873 9782 1 109.50000 418.400000
344 14874 9783 1 109.50000 418.400000
344 14874 9784 1 109.50000 418.400000
344 14874 9785 1 109.50000 418.400000
9783 14874 9784 1 109.50000 418.400000
9783 14874 9785 1 109.50000 418.400000
9784 14874 9785 1 109.50000 418.400000
750 14875 3381 1 109.50000 418.400000
750 14875 9044 1 109.50000 418.400000
750 14875 9786 1 109.50000 418.400000
3381 14875 9044 1 109.50000 418.400000
3381 14875 9786 1 109.50000 418.400000
9044 14875 9786 1 109.50000 418.400000
3963 14876 7838 1 109.50000 418.400000
3963 14876 9787 1 109.50000 418.400000
3963 14876 9788 1 109.50000 418.400000
7838 14876 9787 1 109.50000 418.400000
7838 14876 9788 1 109.50000 418.400000
9787 14876 9788 1 109.50000 418.400000
2336 14877 5239 1 109.50000 418.400000
2336 14877 6607 1 109.50000 418.400000
2336 14877 9789 1 109.50000 418.400000
5239 14877 6607 1 109.50000 418.400000
5239 14877 9789 1 109.50000 418.400000
6607 14877 9789 1 109.50000 418.400000
8000 14878 9790 1 109.50000 418.400000
8000 14878 9791 1 109.50000 418.400000
8000 14878 9792 1 109.50000 418.400000
9790 14878 9791 1 109.50000 418.400000
9790 14878 9792 1 109.50000 418.400000
9791 14878 9792 1 109.50000 418.400000
3402 14879 5211 1 109.50000 418.400000
3402 14879 8919 1 109.50000 418.400000
3402 14879 9237 1 109.50000 418.400000
5211 14879 8919 1 109.50000 418.400000
5211 14879 9237 1 109.50000 418.400000
8919 14879 9237 1 109.50000 418.400000
3809 14880 8912 1 109.50000 418.400000
3809 14880 9761 1 109.50000 418.400000
3809 14880 9793 1 109.50000 418.400000
8912 14880 9761 1 109.50000 418.400000
8912 14880 9793 1 109.50000 418.400000
9761 14880 9793 1 109.50000 418.400000
1386 14881 4055 1 109.50000 418.400000
1386 14881 9794 1 109.50000 418.400000
1386 14881 9795 1 109.50000 418.400000
4055 14881 9794 1 109.50000 418.400000
4055 14881 9795 1 109.50000 418.400000
9794 14881 9795 1 109.50000 418.400000
3668 14882 7846 1 109.50000 418.400000
3668 14882 9796 1 109.50000 418.400000
3668 14882 9797 1 109.50000 418.400000
7846 14882 9796 1 109.50000 418.400000
7846 14882 9797 1 109.50000 418.400000
9796 14882 9797 1 109.50000 418.400000
1370 14883 2988 1 109.50000 418.400000
1370 14883 9663 1 109.50000 418.400000
1370 14883 11158 1 109.50000 418.400000
2988 14883 9663 1 109.50000 418.400000
2988 14883 11158 1 109.50000 418.400000
9663 14883 11158 1 109.50000 418.400000
5642 14884 8702 1 109.50000 418.400000
5642 14884 9798 1 109.50000 418.400000
5642 14884 9799 1 109.50000 418.400000
8702 14884 9798 1 109.50000 418.400000
8702 14884 9799 1 109.50000 418.400000
9798 14884 9799 1 109.50000 418.400000
2322 14885 6794 1 109.50000 418.400000
2322 14885 9370 1 109.50000 418.400000
2322 14885 9428 1 109.50000 418.400000
6794 14885 9370 1 109.50000 418.400000
6794 14885 9428 1 109.50000 418.400000
9370 14885 9428 1 109.50000 418.400000
3696 14886 8678 1 109.50000 418.400000
3696 14886 9800 1 109.50000 418.400000
3696 14886 9801 1 109.50000 418.400000
8678 14886 9800 1 109.50000 418.400000
8678 14886 9801 1 109.50000 418.400000
9800 14886 9801 1 109.50000 418.400000
6054 14887 9764 1 109.50000 418.400000
6054 14887 9802 1 109.50000 418.400000
6054 14887 9803 1 109.50000 418.400000
9764 14887 9802 1 109.50000 418.400000
9764 14887 9803 1 109.50000 418.400000
9802 14887 9803 1 109.50000 418.400000
5840 14888 8426 1 109.50000 418.400000
5840 14888 8956 1 109.50000 418.400000
5840 14888 11155 1 109.50000 418.400000
8426 14888 8956 1 109.50000 418.400000
8426 14888 11155 1 109.50000 418.400000
8956 14888 11155 1 109.50000 418.400000
3488 14889 4355 1 109.50000 418.400000
3488 14889 8327 1 109.50000 418.400000
3488 14889 9804 1 109.50000 418.400000
4355 14889 8327 1 109.50000 418.400000
4355 14889 9804 1 109.50000 418.400000
8327 14889 9804 1 109.50000 418.400000
2085 14890 2603 1 109.50000 418.400000
2085 14890 4816 1 109.50000 418.400000
2085 14890 7262 1 109.50000 418.400000
2603 14890 4816 1 109.50000 418.400000
2603 14890 7262 1 109.50000 418.400000
4816 14890 7262 1 109.50000 418.400000
1823 14891 4073 1 109.50000 418.400000
1823 14891 8805 1 109.50000 418.400000
1823 14891 9805 1 109.50000 418.400000
4073 14891 8805 1 109.50000 418.400000
4073 14891 9805 1 109.50000 418.400000
8805 14891 9805 1 109.50000 418.400000
1756 14892 4773 1 109.50000 418.400000
1756 14892 6307 1 109.50000 418.400000
1756 14892 11391 1 109.50000 418.400000
4773 14892 6307 1 109.50000 418.400000
4773 14892 11391 1 109.50000 418.400000
6307 14892 11391 1 109.50000 418.400000
949 14893 951 1 109.50000 418.400000
949 14893 7132 1 109.50000 418.400000
949 14893 9807 1 109.50000 418.400000
951 14893 7132 1 109.50000 418.400000
951 14893 9807 1 109.50000 418.400000
7132 14893 9807 1 109.50000 418.400000
4626 14894 5563 1 109.50000 418.400000
4626 14894 9809 1 109.50000 418.400000
4626 14894 9810 1 109.50000 418.400000
5563 14894 9809 1 109.50000 418.400000
5563 14894 9810 1 109.50000 418.400000
9809 14894 9810 1 109.50000 418.400000
1217 14895 9224 1 109.50000 418.400000
1217 14895 9811 1 109.50000 418.400000
1217 14895 9812 1 109.50000 418.400000
9224 14895 9811 1 109.50000 418.400000
9224 14895 9812 1 109.50000 418.400000
9811 14895 9812 1 109.50000 418.400000
5683 14896 9813 1 109.50000 418.400000
5683 14896 9814 1 109.50000 418.400000
5683 14896 9815 1 109.50000 418.400000
9813 14896 9814 1 109.50000 418.400000
9813 14896 9815 1 109.50000 418.400000
9814 14896 9815 1 109.50000 418.400000
3122 14897 4396 1 109.50000 418.400000
3122 14897 8602 1 109.50000 418.400000
3122 14897 9816 1 109.50000 418.400000
4396 14897 8602 1 109.50000 418.400000
4396 14897 9816 1 109.50000 418.400000
8602 14897 9816 1 109.50000 418.400000
3988 14898 6081 1 109.50000 418.400000
3988 14898 9817 1 109.50000 418.400000
3988 14898 9818 1 109.50000 418.400000
6081 14898 9817 1 109.50000 418.400000
6081 14898 9818 1 109.50000 418.400000
9817 14898 9818 1 109.50000 418.400000
2607 14899 6743 1 109.50000 418.400000
2607 14899 9819 1 109.50000 418.400000
2607 14899 9820 1 109.50000 418.400000
6743 14899 9819 1 109.50000 418.400000
6743 14899 9820 1 109.50000 418.400000
9819 14899 9820 1 109.50000 418.400000
476 14900 8108 1 109.50000 418.400000
476 14900 8496 1 109.50000 418.400000
476 14900 9065 1 109.50000 418.400000
8108 14900 8496 1 109.50000 418.400000
8108 14900 9065 1 109.50000 418.400000
8496 14900 9065 1 109.50000 418.400000
258 14901 4562 1 109.50000 418.400000
258 14901 8018 1 109.50000 418.400000
258 14901 9821 1 109.50000 418.400000
4562 14901 8018 1 109.50000 418.400000
4562 14901 9821 1 109.50000 418.400000
8018 14901 9821 1 109.50000 418.400000
7788 14902 9822 1 109.50000 418.400000
7788 14902 9823 1 109.50000 418.400000
7788 14902 11269 1 109.50000 418.400000
9822 14902 9823 1 109.50000 418.400000
9822 14902 11269 1 109.50000 418.400000
9823 14902 11269 1 109.50000 418.400000
2047 14903 5230 1 109.50000 418.400000
2047 14903 6643 1 109.50000 418.400000
2047 14903 11258 1 109.50000 418.400000
5230 14903 6643 1 109.50000 418.400000
5230 14903 11258 1 109.50000 418.400000
6643 14903 11258 1 109.50000 418.400000
596 14904 736 1 109.50000 418.400000
596 14904 9813 1 109.50000 418.400000
596 14904 9826 1 109.50000 418.400000
736 14904 9813 1 109.50000 418.400000
736 14904 9826 1 109.50000 418.400000
9813 14904 9826 1 109.50000 418.400000
2945 14905 9386 1 109.50000 418.400000
2945 14905 9827 1 109.50000 418.400000
2945 14905 9828 1 109.50000 418.400000
9386 14905 9827 1 109.50000 418.400000
9386 14905 9828 1 109.50000 418.400000
9827 14905 9828 1 109.50000 418.400000
936 14906 6945 1 109.50000 418.400000
936 14906 9829 1 109.50000 418.400000
936 14906 9830 1 109.50000 418.400000
6945 14906 9829 1 109.50000 418.400000
6945 14906 9830 1 109.50000 418.400000
9829 14906 9830 1 109.50000 418.400000
8443 14907 9831 1 109.50000 418.400000
8443 14907 9832 1 109.50000 418.400000
8443 14907 9833 1 109.50000 418.400000
9831 14907 9832 1 109.50000 418.400000
9831 14907 9833 1 109.50000 418.400000
9832 14907 9833 1 109.50000 418.400000
9129 14908 9538 1 109.50000 418.400000
9129 14908 9605 1 109.50000 418.400000
9129 14908 9834 1 109.50000 418.400000
9538 14908 9605 1 109.50000 418.400000
9538 14908 9834 1 109.50000 418.400000
9605 14908 9834 1 109.50000 418.400000
4017 14909 7474 1 109.50000 418.400000
4017 14909 9261 1 109.50000 418.400000
4017 14909 9835 1 109.50000 418.400000
7474 14909 9261 1 109.50000 418.400000
7474 14909 9835 1 109.50000 418.400000
9261 14909 9835 1 109.50000 418.400000
4847 14910 9836 1 109.50000 418.400000
4847 14910 9837 1 109.50000 418.400000
4847 14910 9838 1 109.50000 418.400000
9836 14910 9837 1 109.50000 418.400000
9836 14910 9838 1 109.50000 418.400000
9837 14910 9838 1 109.50000 418.400000
743 14911 3003 1 109.50000 418.400000
743 14911 3084 1 109.50000 418.400000
743 14911 3843 1 109.50000 418.400000
3003 14911 3084 1 109.50000 418.400000
3003 14911 3843 1 109.50000 418.400000
3084 14911 3843 1 109.50000 418.400000
810 14912 4132 1 109.50000 418.400000
810 14912 9839 1 109.50000 418.400000
810 14912 9840 1 109.50000 418.400000
4132 14912 9839 1 109.50000 418.400000
4132 14912 9840 1 109.50000 418.400000
9839 14912 9840 1 109.50000 418.400000
5722 14913 9392 1 109.50000 418.400000
5722 14913 9841 1 109.50000 418.400000
5722 14913 9842 1 109.50000 418.400000
9392 14913 9841 1 109.50000 418.400000
9392 14913 9842 1 109.50000 418.400000
9841 14913 9842 1 109.50000 418.400000
1199 14914 1558 1 109.50000 418.400000
1199 14914 2237 1 109.50000 418.400000
1199 14914 6786 1 109.50000 418.400000
1558 14914 2237 1 109.50000 418.400000
1558 14914 6786 1 109.50000 418.400000
2237 14914 6786 1 109.50000 418.400000
2094 14915 7680 1 109.50000 418.400000
2094 14915 9843 1 109.50000 418.400000
2094 14915 9844 1 109.50000 418.400000
7680 14915 9843 1 109.50000 418.400000
7680 14915 9844 1 109.50000 418.400000
9843 14915 9844 1 109.50000 418.400000
1517 14916 6063 1 109.50000 418.400000
1517 14916 7914 1 109.50000 418.400000
1517 14916 8491 1 109.50000 418.400000
6063 14916 7914 1 109.50000 418.400000
6063 14916 8491 1 109.50000 418.400000
7914 14916 8491 1 109.50000 418.400000
6604 14917 9845 1 109.50000 418.400000
6604 14917 9846 1 109.50000 418.400000
6604 14917 9847 1 109.50000 418.400000
9845 14917 9846 1 109.50000 418.400000
9845 14917 9847 1 109.50000 418.400000
9846 14917 9847 1 109.50000 418.400000
3661 14918 3886 1 109.50000 418.400000
3661 14918 7401 1 109.50000 418.400000
3661 14918 9848 1 109.50000 418.400000
3886 14918 7401 1 109.50000 418.400000
3886 14918 9848 1 109.50000 418.400000
7401 14918 9848 1 109.50000 418.400000
2364 14919 7557 1 109.50000 418.400000
2364 14919 9849 1 109.50000 418.400000
2364 14919 9850 1 109.50000 418.400000
7557 14919 9849 1 109.50000 418.400000
7557 14919 9850 1 109.50000 418.400000
9849 14919 9850 1 109.50000 418.400000
3551 14920 6694 1 109.50000 418.400000
3551 14920 8092 1 109.50000 418.400000
3551 14920 9851 1 109.50000 418.400000
6694 14920 8092 1 109.50000 418.400000
6694 14920 9851 1 109.50000 418.400000
8092 14920 9851 1 109.50000 418.400000
149 14921 2549 1 109.50000 418.400000
149 14921 9854 1 109.50000 418.400000
149 14921 10266 1 109.50000 418.400000
2549 14921 9854 1 109.50000 418.400000
2549 14921 10266 1 109.50000 418.400000
9854 14921 10266 1 109.50000 418.400000
3145 14922 3949 1 109.50000 418.400000
3145 14922 6087 1 109.50000 418.400000
3145 14922 8795 1 109.50000 418.400000
3949 14922 6087 1 109.50000 418.400000
3949 14922 8795 1 109.50000 418.400000
6087 14922 8795 1 109.50000 418.400000
3120 14923 6498 1 109.50000 418.400000
3120 14923 9855 1 109.50000 418.400000
3120 14923 9856 1 109.50000 418.400000
6498 14923 9855 1 109.50000 418.400000
6498 14923 9856 1 109.50000 418.400000
9855 14923 9856 1 109.50000 418.400000
1282 14924 6058 1 109.50000 418.400000
1282 14924 7358 1 109.50000 418.400000
1282 14924 9857 1 109.50000 418.400000
6058 14924 7358 1 109.50000 418.400000
6058 14924 9857 1 109.50000 418.400000
7358 14924 9857 1 109.50000 418.400000
2741 14925 5321 1 109.50000 418.400000
2741 14925 9858 1 109.50000 418.400000
2741 14925 9859 1 109.50000 418.400000
5321 14925 9858 1 109.50000 418.400000
5321 14925 9859 1 109.50000 418.400000
9858 14925 9859 1 109.50000 418.400000
4934 14926 7230 1 109.50000 418.400000
4934 14926 9860 1 109.50000 418.400000
4934 14926 9861 1 109.50000 418.400000
7230 14926 9860 1 109.50000 418.400000
7230 14926 9861 1 109.50000 418.400000
9860 14926 9861 1 109.50000 418.400000
3096 14927 7236 1 109.50000 418.400000
3096 14927 9862 1 109.50000 418.400000
3096 14927 9863 1 109.50000 418.400000
7236 14927 9862 1 109.50000 418.400000
7236 14927 9863 1 109.50000 418.400000
9862 14927 9863 1 109.50000 418.400000
1065 14928 6914 1 109.50000 418.400000
1065 14928 8062 1 109.50000 418.400000
1065 14928 9864 1 109.50000 418.400000
6914 14928 8062 1 109.50000 418.400000
6914 14928 9864 1 109.50000 418.400000
8062 14928 9864 1 109.50000 418.400000
4805 14929 4860 1 109.50000 418.400000
4805 14929 9865 1 109.50000 418.400000
4805 14929 9866 1 109.50000 418.400000
4860 14929 9865 1 109.50000 418.400000
4860 14929 9866 1 109.50000 418.400000
9865 14929 9866 1 109.50000 418.400000
8790 14930 9867 1 109.50000 418.400000
8790 14930 9868 1 109.50000 418.400000
8790 14930 9869 1 109.50000 418.400000
9867 14930 9868 1 109.50000 418.400000
9867 14930 9869 1 109.50000 418.400000
9868 14930 9869 1 109.50000 418.400000
5690 14931 7678 1 109.50000 418.400000
5690 14931 9350 1 109.50000 418.400000
5690 14931 9870 1 109.50000 418.400000
7678 14931 9350 1 109.50000 418.400000
7678 14931 9870 1 109.50000 418.400000
9350 14931 9870 1 109.50000 418.400000
4343 14932 8848 1 109.50000 418.400000
4343 14932 9871 1 109.50000 418.400000
4343 14932 9872 1 109.50000 418.400000
8848 14932 9871 1 109.50000 418.400000
8848 14932 9872 1 109.50000 418.400000
9871 14932 9872 1 109.50000 418.400000
8158 14933 9393 1 109.50000 418.400000
8158 14933 9873 1 109.50000 418.400000
8158 14933 9874 1 109.50000 418.400000
9393 14933 9873 1 109.50000 418.400000
9393 14933 9874 1 109.50000 418.400000
9873 14933 9874 1 109.50000 418.400000
4247 14934 6434 1 109.50000 418.400000
4247 14934 9875 1 109.50000 418.400000
4247 14934 9876 1 109.50000 418.400000
6434 14934 9875 1 109.50000 418.400000
6434 14934 9876 1 109.50000 418.400000
9875 14934 9876 1 109.50000 418.400000
3502 14935 9811 1 109.50000 418.400000
3502 14935 9877 1 109.50000 418.400000
3502 14935 9878 1 109.50000 418.400000
9811 14935 9877 1 109.50000 418.400000
9811 14935 9878 1 109.50000 418.400000
9877 14935 9878 1 109.50000 418.400000
1516 14936 7361 1 109.50000 418.400000
1516 14936 7996 1 109.50000 418.400000
1516 14936 9879 1 109.50000 418.400000
7361 14936 7996 1 109.50000 418.400000
7361 14936 9879 1 109.50000 418.400000
7996 14936 9879 1 109.50000 418.400000
6798 14937 9178 1 109.50000 418.400000
6798 14937 9880 1 109.50000 418.400000
6798 14937 9881 1 109.50000 418.400000
9178 14937 9880 1 109.50000 418.400000
9178 14937 9881 1 109.50000 418.400000
9880 14937 9881 1 109.50000 418.400000
7489 14938 8816 1 109.50000 418.400000
7489 14938 9882 1 109.50000 418.400000
7489 14938 9883 1 109.50000 418.400000
8816 14938 9882 1 109.50000 418.400000
8816 14938 9883 1 109.50000 418.400000
9882 14938 9883 1 109.50000 418.400000
860 14939 6970 1 109.50000 418.400000
860 14939 9787 1 109.50000 418.400000
860 14939 9884 1 109.50000 418.400000
6970 14939 9787 1 109.50000 418.400000
6970 14939 9884 1 109.50000 418.400000
9787 14939 9884 1 109.50000 418.400000
1580 14940 6588 1 109.50000 418.400000
1580 14940 6589 1 109.50000 418.400000
1580 14940 9769 1 109.50000 418.400000
6588 14940 6589 1 109.50000 418.400000
6588 14940 9769 1 109.50000 418.400000
6589 14940 9769 1 109.50000 418.400000
2007 14941 2403 1 109.50000 418.400000
2007 14941 2656 1 109.50000 418.400000
2007 14941 7299 1 109.50000 418.400000
2403 14941 2656 1 109.50000 418.400000
2403 14941 7299 1 109.50000 418.400000
2656 14941 7299 1 109.50000 418.400000
1202 14942 2804 1 109.50000 418.400000
1202 14942 4115 1 109.50000 418.400000
1202 14942 9885 1 109.50000 418.400000
2804 14942 4115 1 109.50000 418.400000
2804 14942 9885 1 109.50000 418.400000
4115 14942 9885 1 109.50000 418.400000
517 14943 9217 1 109.50000 418.400000
517 14943 9218 1 109.50000 418.400000
517 14943 9465 1 109.50000 418.400000
9217 14943 9218 1 109.50000 418.400000
9217 14943 9465 1 109.50000 418.400000
9218 14943 9465 1 109.50000 418.400000
4415 14944 4832 1 109.50000 418.400000
4415 14944 4913 1 109.50000 418.400000
4415 14944 7050 1 109.50000 418.400000
4832 14944 4913 1 109.50000 418.400000
4832 14944 7050 1 109.50000 418.400000
4913 14944 7050 1 109.50000 418.400000
50 14945 4728 1 109.50000 418.400000
50 14945 9676 1 109.50000 418.400000
50 14945 9886 1 109.50000 418.400000
4728 14945 9676 1 109.50000 418.400000
4728 14945 9886 1 109.50000 418.400000
9676 14945 9886 1 109.50000 418.400000
1735 14946 2010 1 109.50000 418.400000
1735 14946 2080 1 109.50000 418.400000
1735 14946 5941 1 109.50000 418.400000
2010 14946 2080 1 109.50000 418.400000
2010 14946 5941 1 109.50000 418.400000
2080 14946 5941 1 109.50000 418.400000
1233 14947 9069 1 109.50000 418.400000
1233 14947 9888 1 109.50000 418.400000
1233 14947 9889 1 109.50000 418.400000
9069 14947 9888 1 109.50000 418.400000
9069 14947 9889 1 109.50000 418.400000
9888 14947 9889 1 109.50000 418.400000
2290 14948 9890 1 109.50000 418.400000
2290 14948 9891 1 109.50000 418.400000
2290 14948 9892 1 109.50000 418.400000
9890 14948 9891 1 109.50000 418.400000
9890 14948 9892 1 109.50000 418.400000
9891 14948 9892 1 109.50000 418.400000
820 14949 2374 1 109.50000 418.400000
820 14949 9893 1 109.50000 418.400000
820 14949 9894 1 109.50000 418.400000
2374 14949 9893 1 109.50000 418.400000
2374 14949 9894 1 109.50000 418.400000
9893 14949 9894 1 109.50000 418.400000
6025 14950 8551 1 109.50000 418.400000
6025 14950 8944 1 109.50000 418.400000
6025 14950 9895 1 109.50000 418.400000
8551 14950 8944 1 109.50000 418.400000
8551 14950 9895 1 109.50000 418.400000
8944 14950 9895 1 109.50000 418.400000
6618 14951 6956 1 109.50000 418.400000
6618 14951 7775 1 109.50000 418.400000
6618 14951 9896 1 109.50000 418.400000
6956 14951 7775 1 109.50000 418.400000
6956 14951 9896 1 109.50000 418.400000
7775 14951 9896 1 109.50000 418.400000
2376 14952 5223 1 109.50000 418.400000
2376 14952 9897 1 109.50000 418.400000
2376 14952 9898 1 109.50000 418.400000
5223 14952 9897 1 109.50000 418.400000
5223 14952 9898 1 109.50000 418.400000
9897 14952 9898 1 109.50000 418.400000
6077 14953 6451 1 109.50000 418.400000
6077 14953 8315 1 109.50000 418.400000
6077 14953 9899 1 109.50000 418.400000
6451 14953 8315 1 109.50000 418.400000
6451 14953 9899 1 109.50000 418.400000
8315 14953 9899 1 109.50000 418.400000
1290 14954 1397 1 109.50000 418.400000
1290 14954 6842 1 109.50000 418.400000
1290 14954 9669 1 109.50000 418.400000
1397 14954 6842 1 109.50000 418.400000
1397 14954 9669 1 109.50000 418.400000
6842 14954 9669 1 109.50000 418.400000
9491 14955 9900 1 109.50000 418.400000
9491 14955 9901 1 109.50000 418.400000
9491 14955 9902 1 109.50000 418.400000
9900 14955 9901 1 109.50000 418.400000
9900 14955 9902 1 109.50000 418.400000
9901 14955 9902 1 109.50000 418.400000
6400 14956 9485 1 109.50000 418.400000
6400 14956 9906 1 109.50000 418.400000
6400 14956 9907 1 109.50000 418.400000
9485 14956 9906 1 109.50000 418.400000
9485 14956 9907 1 109.50000 418.400000
9906 14956 9907 1 109.50000 418.400000
6501 14957 7524 1 109.50000 418.400000
6501 14957 9908 1 109.50000 418.400000
6501 14957 9909 1 109.50000 418.400000
7524 14957 9908 1 109.50000 418.400000
7524 14957 9909 1 109.50000 418.400000
9908 14957 9909 1 109.50000 418.400000
8372 14958 9750 1 109.50000 418.400000
8372 14958 9910 1 109.50000 418.400000
8372 14958 11209 1 109.50000 418.400000
9750 14958 9910 1 109.50000 418.400000
9750 14958 11209 1 109.50000 418.400000
9910 14958 11209 1 109.50000 418.400000
2131 14959 2740 1 109.50000 418.400000
2131 14959 5771 1 109.50000 418.400000
2131 14959 9911 1 109.50000 418.400000
2740 14959 5771 1 109.50000 418.400000
2740 14959 9911 1 109.50000 418.400000
5771 14959 9911 1 109.50000 418.400000
4405 14960 6207 1 109.50000 418.400000
4405 14960 8102 1 109.50000 418.400000
4405 14960 9912 1 109.50000 418.400000
6207 14960 8102 1 109.50000 418.400000
6207 14960 9912 1 109.50000 418.400000
8102 14960 9912 1 109.50000 418.400000
283 14961 9119 1 109.50000 418.400000
283 14961 9307 1 109.50000 418.400000
283 14961 9913 1 109.50000 418.400000
9119 14961 9307 1 109.50000 418.400000
9119 14961 9913 1 109.50000 418.400000
9307 14961 9913 1 109.50000 418.400000
1159 14962 7939 1 109.50000 418.400000
1159 14962 8543 1 109.50000 418.400000
1159 14962 9419 1 109.50000 418.400000
7939 14962 8543 1 109.50000 418.400000
7939 14962 9419 1 109.50000 418.400000
8543 14962 9419 1 109.50000 418.400000
244 14963 7626 1 109.50000 418.400000
244 14963 8793 1 109.50000 418.400000
244 14963 9192 1 109.50000 418.400000
7626 14963 8793 1 109.50000 418.400000
7626 14963 9192 1 109.50000 418.400000
8793 14963 9192 1 109.50000 418.400000
3882 14964 4474 1 109.50000 418.400000
3882 14964 9914 1 109.50000 418.400000
3882 14964 9915 1 109.50000 418.400000
4474 14964 9914 1 109.50000 418.400000
4474 14964 9915 1 109.50000 418.400000
9914 14964 9915 1 109.50000 418.400000
3508 14965 7768 1 109.50000 418.400000
3508 14965 8733 1 109.50000 418.400000
3508 14965 9916 1 109.50000 418.400000
7768 14965 8733 1 109.50000 418.400000
7768 14965 9916 1 109.50000 418.400000
8733 14965 9916 1 109.50000 418.400000
3906 14966 6845 1 109.50000 418.400000
3906 14966 9917 1 109.50000 418.400000
3906 14966 9918 1 109.50000 418.400000
6845 14966 9917 1 109.50000 418.400000
6845 14966 9918 1 109.50000 418.400000
9917 14966 9918 1 109.50000 418.400000
6841 14967 7138 1 109.50000 418.400000
6841 14967 9919 1 109.50000 418.400000
6841 14967 9920 1 109.50000 418.400000
7138 14967 9919 1 109.50000 418.400000
7138 14967 9920 1 109.50000 418.400000
9919 14967 9920 1 109.50000 418.400000
6195 14968 7176 1 109.50000 418.400000
6195 14968 8302 1 109.50000 418.400000
6195 14968 9921 1 109.50000 418.400000
7176 14968 8302 1 109.50000 418.400000
7176 14968 9921 1 109.50000 418.400000
8302 14968 9921 1 109.50000 418.400000
3498 14969 4671 1 109.50000 418.400000
3498 14969 5430 1 109.50000 418.400000
3498 14969 9922 1 109.50000 418.400000
4671 14969 5430 1 109.50000 418.400000
4671 14969 9922 1 109.50000 418.400000
5430 14969 9922 1 109.50000 418.400000
7077 14970 8896 1 109.50000 418.400000
7077 14970 9924 1 109.50000 418.400000
7077 14970 9925 1 109.50000 418.400000
8896 14970 9924 1 109.50000 418.400000
8896 14970 9925 1 109.50000 418.400000
9924 14970 9925 1 109.50000 418.400000
499 14971 9359 1 109.50000 418.400000
499 14971 9360 1 109.50000 418.400000
499 14971 9926 1 109.50000 418.400000
9359 14971 9360 1 109.50000 418.400000
9359 14971 9926 1 109.50000 418.400000
9360 14971 9926 1 109.50000 418.400000
8828 14972 9858 1 109.50000 418.400000
8828 14972 9927 1 109.50000 418.400000
8828 14972 11200 1 109.50000 418.400000
9858 14972 9927 1 109.50000 418.400000
9858 14972 11200 1 109.50000 418.400000
9927 14972 11200 1 109.50000 418.400000
1934 14973 3437 1 109.50000 418.400000
1934 14973 9809 1 109.50000 418.400000
1934 14973 9928 1 109.50000 418.400000
3437 14973 9809 1 109.50000 418.400000
3437 14973 9928 1 109.50000 418.400000
9809 14973 9928 1 109.50000 418.400000
2416 14974 8035 1 109.50000 418.400000
2416 14974 9759 1 109.50000 418.400000
2416 14974 9760 1 109.50000 418.400000
8035 14974 9759 1 109.50000 418.400000
8035 14974 9760 1 109.50000 418.400000
9759 14974 9760 1 109.50000 418.400000
463 14975 6477 1 109.50000 418.400000
463 14975 9142 1 109.50000 418.400000
463 14975 9929 1 109.50000 418.400000
6477 14975 9142 1 109.50000 418.400000
6477 14975 9929 1 109.50000 418.400000
9142 14975 9929 1 109.50000 418.400000
7530 14976 7795 1 109.50000 418.400000
7530 14976 9931 1 109.50000 418.400000
7530 14976 9932 1 109.50000 418.400000
7795 14976 9931 1 109.50000 418.400000
7795 14976 9932 1 109.50000 418.400000
9931 14976 9932 1 109.50000 418.400000
2902 14977 9239 1 109.50000 418.400000
2902 14977 9902 1 109.50000 418.400000
2902 14977 9934 1 109.50000 418.400000
9239 14977 9902 1 109.50000 418.400000
9239 14977 9934 1 109.50000 418.400000
9902 14977 9934 1 109.50000 418.400000
500 14978 3484 1 109.50000 418.400000
500 14978 9082 1 109.50000 418.400000
500 14978 9935 1 109.50000 418.400000
3484 14978 9082 1 109.50000 418.400000
3484 14978 9935 1 109.50000 418.400000
9082 14978 9935 1 109.50000 418.400000
3704 14979 5302 1 109.50000 418.400000
3704 14979 9936 1 109.50000 418.400000
3704 14979 9937 1 109.50000 418.400000
5302 14979 9936 1 109.50000 418.400000
5302 14979 9937 1 109.50000 418.400000
9936 14979 9937 1 109.50000 418.400000
4983 14980 8447 1 109.50000 418.400000
4983 14980 8487 1 109.50000 418.400000
4983 14980 9938 1 109.50000 418.400000
8447 14980 8487 1 109.50000 418.400000
8447 14980 9938 1 109.50000 418.400000
8487 14980 9938 1 109.50000 418.400000
2814 14981 8696 1 109.50000 418.400000
2814 14981 8897 1 109.50000 418.400000
2814 14981 9939 1 109.50000 418.400000
8696 14981 8897 1 109.50000 418.400000
8696 14981 9939 1 109.50000 418.400000
8897 14981 9939 1 109.50000 418.400000
3613 14982 9707 1 109.50000 418.400000
3613 14982 9941 1 109.50000 418.400000
3613 14982 9942 1 109.50000 418.400000
9707 14982 9941 1 109.50000 418.400000
9707 14982 9942 1 109.50000 418.400000
9941 14982 9942 1 109.50000 418.400000
2037 14983 2370 1 109.50000 418.400000
2037 14983 2393 1 109.50000 418.400000
2037 14983 7413 1 109.50000 418.400000
2370 14983 2393 1 109.50000 418.400000
2370 14983 7413 1 109.50000 418.400000
2393 14983 7413 1 109.50000 418.400000
1690 14984 4230 1 109.50000 418.400000
1690 14984 5194 1 109.50000 418.400000
1690 14984 9943 1 109.50000 418.400000
4230 14984 5194 1 109.50000 418.400000
4230 14984 9943 1 109.50000 418.400000
5194 14984 9943 1 109.50000 418.400000
3407 14985 7315 1 109.50000 418.400000
3407 14985 8080 1 109.50000 418.400000
3407 14985 9944 1 109.50000 418.400000
7315 14985 8080 1 109.50000 418.400000
7315 14985 9944 1 109.50000 418.400000
8080 14985 9944 1 109.50000 418.400000
5453 14986 5693 1 109.50000 418.400000
5453 14986 9945 1 109.50000 418.400000
5453 14986 9946 1 109.50000 418.400000
5693 14986 9945 1 109.50000 418.400000
5693 14986 9946 1 109.50000 418.400000
9945 14986 9946 1 109.50000 418.400000
6968 14987 6969 1 109.50000 418.400000
6968 14987 9947 1 109.50000 418.400000
6968 14987 9948 1 109.50000 418.400000
6969 14987 9947 1 109.50000 418.400000
6969 14987 9948 1 109.50000 418.400000
9947 14987 9948 1 109.50000 418.400000
9951 14988 9952 1 109.50000 418.400000
9951 14988 9953 1 109.50000 418.400000
9951 14988 9954 1 109.50000 418.400000
9952 14988 9953 1 109.50000 418.400000
9952 14988 9954 1 109.50000 418.400000
9953 14988 9954 1 109.50000 418.400000
897 14989 1855 1 109.50000 418.400000
897 14989 4030 1 109.50000 418.400000
897 14989 9051 1 109.50000 418.400000
1855 14989 4030 1 109.50000 418.400000
1855 14989 9051 1 109.50000 418.400000
4030 14989 9051 1 109.50000 418.400000
1006 14990 1493 1 109.50000 418.400000
1006 14990 4842 1 109.50000 418.400000
1006 14990 6137 1 109.50000 418.400000
1493 14990 4842 1 109.50000 418.400000
1493 14990 6137 1 109.50000 418.400000
4842 14990 6137 1 109.50000 418.400000
3760 14991 8515 1 109.50000 418.400000
3760 14991 9842 1 109.50000 418.400000
3760 14991 9956 1 109.50000 418.400000
8515 14991 9842 1 109.50000 418.400000
8515 14991 9956 1 109.50000 418.400000
9842 14991 9956 1 109.50000 418.400000
4163 14992 8342 1 109.50000 418.400000
4163 14992 9147 1 109.50000 418.400000
4163 14992 9957 1 109.50000 418.400000
8342 14992 9147 1 109.50000 418.400000
8342 14992 9957 1 109.50000 418.400000
9147 14992 9957 1 109.50000 418.400000
477 14993 1105 1 109.50000 418.400000
477 14993 9320 1 109.50000 418.400000
477 14993 9958 1 109.50000 418.400000
1105 14993 9320 1 109.50000 418.400000
1105 14993 9958 1 109.50000 418.400000
9320 14993 9958 1 109.50000 418.400000
4799 14994 5653 1 109.50000 418.400000
4799 14994 9959 1 109.50000 418.400000
4799 14994 9960 1 109.50000 418.400000
5653 14994 9959 1 109.50000 418.400000
5653 14994 9960 1 109.50000 418.400000
9959 14994 9960 1 109.50000 418.400000
748 14995 7086 1 109.50000 418.400000
748 14995 8798 1 109.50000 418.400000
748 14995 9961 1 109.50000 418.400000
7086 14995 8798 1 109.50000 418.400000
7086 14995 9961 1 109.50000 418.400000
8798 14995 9961 1 109.50000 418.400000
9423 14996 9962 1 109.50000 418.400000
9423 14996 9963 1 109.50000 418.400000
9423 14996 11173 1 109.50000 418.400000
9962 14996 9963 1 109.50000 418.400000
9962 14996 11173 1 109.50000 418.400000
9963 14996 11173 1 109.50000 418.400000
4148 14997 4840 1 109.50000 418.400000
4148 14997 9601 1 109.50000 418.400000
4148 14997 9964 1 109.50000 418.400000
4840 14997 9601 1 109.50000 418.400000
4840 14997 9964 1 109.50000 418.400000
9601 14997 9964 1 109.50000 418.400000
3745 14998 6210 1 109.50000 418.400000
3745 14998 9671 1 109.50000 418.400000
3745 14998 9967 1 109.50000 418.400000
6210 14998 9671 1 109.50000 418.400000
6210 14998 9967 1 109.50000 418.400000
9671 14998 9967 1 109.50000 418.400000
2658 14999 7995 1 109.50000 418.400000
2658 14999 9968 1 109.50000 418.400000
2658 14999 9969 1 109.50000 418.400000
7995 14999 9968 1 109.50000 418.400000
7995 14999 9969 1 109.50000 418.400000
9968 14999 9969 1 109.50000 418.400000
6483 15000 7553 1 109.50000 418.400000
6483 15000 8485 1 109.50000 418.400000
6483 15000 9970 1 109.50000 418.400000
7553 15000 8485 1 109.50000 418.400000
7553 15000 9970 1 109.50000 418.400000
8485 15000 9970 1 109.50000 418.400000
4303 15001 8384 1 109.50000 418.400000
4303 15001 8523 1 109.50000 418.400000
4303 15001 8866 1 109.50000 418.400000
8384 15001 8523 1 109.50000 418.400000
8384 15001 8866 1 109.50000 418.400000
8523 15001 8866 1 109.50000 418.400000
8153 15002 8876 1 109.50000 418.400000
8153 15002 9971 1 109.50000 418.400000
8153 15002 9972 1 109.50000 418.400000
8876 15002 9971 1 109.50000 418.400000
8876 15002 9972 1 109.50000 418.400000
9971 15002 9972 1 109.50000 418.400000
3040 15003 4377 1 109.50000 418.400000
3040 15003 9321 1 109.50000 418.400000
3040 15003 9973 1 109.50000 418.400000
4377 15003 9321 1 109.50000 418.400000
4377 15003 9973 1 109.50000 418.400000
9321 15003 9973 1 109.50000 418.400000
4618 15004 7921 1 109.50000 418.400000
4618 15004 9974 1 109.50000 418.400000
4618 15004 9975 1 109.50000 418.400000
7921 15004 9974 1 109.50000 418.400000
7921 15004 9975 1 109.50000 418.400000
9974 15004 9975 1 109.50000 418.400000
981 15005 982 1 109.50000 418.400000
981 15005 5667 1 109.50000 418.400000
981 15005 9976 1 109.50000 418.400000
982 15005 5667 1 109.50000 418.400000
982 15005 9976 1 109.50000 418.400000
5667 15005 9976 1 109.50000 418.400000
1286 15006 1287 1 109.50000 418.400000
1286 15006 6403 1 109.50000 418.400000
1286 15006 9977 1 109.50000 418.400000
1287 15006 6403 1 109.50000 418.400000
1287 15006 9977 1 109.50000 418.400000
6403 15006 9977 1 109.50000 418.400000
619 15007 4871 1 109.50000 418.400000
619 15007 8980 1 109.50000 418.400000
619 15007 11228 1 109.50000 418.400000
4871 15007 8980 1 109.50000 418.400000
4871 15007 11228 1 109.50000 418.400000
8980 15007 11228 1 109.50000 418.400000
4890 15008 9075 1 109.50000 418.400000
4890 15008 9979 1 109.50000 418.400000
4890 15008 9980 1 109.50000 418.400000
9075 15008 9979 1 109.50000 418.400000
9075 15008 9980 1 109.50000 418.400000
9979 15008 9980 1 109.50000 418.400000
1 15009 2440 1 109.50000 418.400000
1 15009 4345 1 109.50000 418.400000
1 15009 6630 1 109.50000 418.400000
2440 15009 4345 1 109.50000 418.400000
2440 15009 6630 1 109.50000 418.400000
4345 15009 6630 1 109.50000 418.400000
3178 15010 7101 1 109.50000 418.400000
3178 15010 8622 1 109.50000 418.400000
3178 15010 9982 1 109.50000 418.400000
7101 15010 8622 1 109.50000 418.400000
7101 15010 9982 1 109.50000 418.400000
8622 15010 9982 1 109.50000 418.400000
1173 15011 7395 1 109.50000 418.400000
1173 15011 9721 1 109.50000 418.400000
1173 15011 9983 1 109.50000 418.400000
7395 15011 9721 1 109.50000 418.400000
7395 15011 9983 1 109.50000 418.400000
9721 15011 9983 1 109.50000 418.400000
2287 15012 3514 1 109.50000 418.400000
2287 15012 9984 1 109.50000 418.400000
2287 15012 9985 1 109.50000 418.400000
3514 15012 9984 1 109.50000 418.400000
3514 15012 9985 1 109.50000 418.400000
9984 15012 9985 1 109.50000 418.400000
2274 15013 5032 1 109.50000 418.400000
2274 15013 9784 1 109.50000 418.400000
2274 15013 9986 1 109.50000 418.400000
5032 15013 9784 1 109.50000 418.400000
5032 15013 9986 1 109.50000 418.400000
9784 15013 9986 1 109.50000 418.400000
2502 15014 3473 1 109.50000 418.400000
2502 15014 6102 1 109.50000 418.400000
2502 15014 9447 1 109.50000 418.400000
3473 15014 6102 1 109.50000 418.400000
3473 15014 9447 1 109.50000 418.400000
6102 15014 9447 1 109.50000 418.400000
1787 15015 6409 1 109.50000 418.400000
1787 15015 9357 1 109.50000 418.400000
1787 15015 9987 1 109.50000 418.400000
6409 15015 9357 1 109.50000 418.400000
6409 15015 9987 1 109.50000 418.400000
9357 15015 9987 1 109.50000 418.400000
1976 15016 6840 1 109.50000 418.400000
1976 15016 9988 1 109.50000 418.400000
1976 15016 9989 1 109.50000 418.400000
6840 15016 9988 1 109.50000 418.400000
6840 15016 9989 1 109.50000 418.400000
9988 15016 9989 1 109.50000 418.400000
8178 15017 8246 1 109.50000 418.400000
8178 15017 9991 1 109.50000 418.400000
8178 15017 9992 1 109.50000 418.400000
8246 15017 9991 1 109.50000 418.400000
8246 15017 9992 1 109.50000 418.400000
9991 15017 9992 1 109.50000 418.400000
1796 15018 3472 1 109.50000 418.400000
1796 15018 9445 1 109.50000 418.400000
1796 15018 9996 1 109.50000 418.400000
3472 15018 9445 1 109.50000 418.400000
3472 15018 9996 1 109.50000 418.400000
9445 15018 9996 1 109.50000 418.400000
1912 15019 2566 1 109.50000 418.400000
1912 15019 5779 1 109.50000 418.400000
1912 15019 8837 1 109.50000 418.400000
2566 15019 5779 1 109.50000 418.400000
2566 15019 8837 1 109.50000 418.400000
5779 15019 8837 1 109.50000 418.400000
1535 15020 5451 1 109.50000 418.400000
1535 15020 8243 1 109.50000 418.400000
1535 15020 9816 1 109.50000 418.400000
5451 15020 8243 1 109.50000 418.400000
5451 15020 9816 1 109.50000 418.400000
8243 15020 9816 1 109.50000 418.400000
6179 15021 8637 1 109.50000 418.400000
6179 15021 9997 1 109.50000 418.400000
6179 15021 9998 1 109.50000 418.400000
8637 15021 9997 1 109.50000 418.400000
8637 15021 9998 1 109.50000 418.400000
9997 15021 9998 1 109.50000 418.400000
9468 15022 9999 1 109.50000 418.400000
9468 15022 10000 1 109.50000 418.400000
9468 15022 10001 1 109.50000 418.400000
9999 15022 10000 1 109.50000 418.400000
9999 15022 10001 1 109.50000 418.400000
10000 15022 10001 1 109.50000 418.400000
2325 15023 8024 1 109.50000 418.400000
2325 15023 8489 1 109.50000 418.400000
2325 15023 9481 1 109.50000 418.400000
8024 15023 8489 1 109.50000 418.400000
8024 15023 9481 1 109.50000 418.400000
8489 15023 9481 1 109.50000 418.400000
8190 15024 10002 1 109.50000 418.400000
8190 15024 10003 1 109.50000 418.400000
8190 15024 10004 1 109.50000 418.400000
10002 15024 10003 1 109.50000 418.400000
10002 15024 10004 1 109.50000 418.400000
10003 15024 10004 1 109.50000 418.400000
4615 15025 5718 1 109.50000 418.400000
4615 15025 10005 1 109.50000 418.400000
4615 15025 10006 1 109.50000 418.400000
5718 15025 10005 1 109.50000 418.400000
5718 15025 10006 1 109.50000 418.400000
10005 15025 10006 1 109.50000 418.400000
6819 15026 8169 1 109.50000 418.400000
6819 15026 9694 1 109.50000 418.400000
6819 15026 10007 1 109.50000 418.400000
8169 15026 9694 1 109.50000 418.400000
8169 15026 10007 1 109.50000 418.400000
9694 15026 10007 1 109.50000 418.400000
4287 15027 5900 1 109.50000 418.400000
4287 15027 6052 1 109.50000 418.400000
4287 15027 10008 1 109.50000 418.400000
5900 15027 6052 1 109.50000 418.400000
5900 15027 10008 1 109.50000 418.400000
6052 15027 10008 1 109.50000 418.400000
8852 15028 9856 1 109.50000 418.400000
8852 15028 9935 1 109.50000 418.400000
8852 15028 10009 1 109.50000 418.400000
9856 15028 9935 1 109.50000 418.400000
9856 15028 10009 1 109.50000 418.400000
9935 15028 10009 1 109.50000 418.400000
8146 15029 8918 1 109.50000 418.400000
8146 15029 10010 1 109.50000 418.400000
8146 15029 10011 1 109.50000 418.400000
8918 15029 10010 1 109.50000 418.400000
8918 15029 10011 1 109.50000 418.400000
10010 15029 10011 1 109.50000 418.400000
6602 15030 6878 1 109.50000 418.400000
6602 15030 8180 1 109.50000 418.400000
6602 15030 9805 1 109.50000 418.400000
6878 15030 8180 1 109.50000 418.400000
6878 15030 9805 1 109.50000 418.400000
8180 15030 9805 1 109.50000 418.400000
3123 15031 5452 1 109.50000 418.400000
3123 15031 10013 1 109.50000 418.400000
3123 15031 10014 1 109.50000 418.400000
5452 15031 10013 1 109.50000 418.400000
5452 15031 10014 1 109.50000 418.400000
10013 15031 10014 1 109.50000 418.400000
3296 15032 6626 1 109.50000 418.400000
3296 15032 7971 1 109.50000 418.400000
3296 15032 10015 1 109.50000 418.400000
6626 15032 7971 1 109.50000 418.400000
6626 15032 10015 1 109.50000 418.400000
7971 15032 10015 1 109.50000 418.400000
7167 15033 7738 1 109.50000 418.400000
7167 15033 10016 1 109.50000 418.400000
7167 15033 10017 1 109.50000 418.400000
7738 15033 10016 1 109.50000 418.400000
7738 15033 10017 1 109.50000 418.400000
10016 15033 10017 1 109.50000 418.400000
5741 15034 10018 1 109.50000 418.400000
5741 15034 10019 1 109.50000 418.400000
5741 15034 10020 1 109.50000 418.400000
10018 15034 10019 1 109.50000 418.400000
10018 15034 10020 1 109.50000 418.400000
10019 15034 10020 1 109.50000 418.400000
6401 15035 6585 1 109.50000 418.400000
6401 15035 10022 1 109.50000 418.400000
6401 15035 10023 1 109.50000 418.400000
6585 15035 10022 1 109.50000 418.400000
6585 15035 10023 1 109.50000 418.400000
10022 15035 10023 1 109.50000 418.400000
615 15036 6279 1 109.50000 418.400000
615 15036 8788 1 109.50000 418.400000
615 15036 10025 1 109.50000 418.400000
6279 15036 8788 1 109.50000 418.400000
6279 15036 10025 1 109.50000 418.400000
8788 15036 10025 1 109.50000 418.400000
1893 15037 2039 1 109.50000 418.400000
1893 15037 3214 1 109.50000 418.400000
1893 15037 10026 1 109.50000 418.400000
2039 15037 3214 1 109.50000 418.400000
2039 15037 10026 1 109.50000 418.400000
3214 15037 10026 1 109.50000 418.400000
5808 15038 7578 1 109.50000 418.400000
5808 15038 10027 1 109.50000 418.400000
5808 15038 10028 1 109.50000 418.400000
7578 15038 10027 1 109.50000 418.400000
7578 15038 10028 1 109.50000 418.400000
10027 15038 10028 1 109.50000 418.400000
2386 15039 4401 1 109.50000 418.400000
2386 15039 5228 1 109.50000 418.400000
2386 15039 5996 1 109.50000 418.400000
4401 15039 5228 1 109.50000 418.400000
4401 15039 5996 1 109.50000 418.400000
5228 15039 5996 1 109.50000 418.400000
8143 15040 8873 1 109.50000 418.400000
8143 15040 9415 1 109.50000 418.400000
8143 15040 10029 1 109.50000 418.400000
8873 15040 9415 1 109.50000 418.400000
8873 15040 10029 1 109.50000 418.400000
9415 15040 10029 1 109.50000 418.400000
2201 15041 7109 1 109.50000 418.400000
2201 15041 9822 1 109.50000 418.400000
2201 15041 9963 1 109.50000 418.400000
7109 15041 9822 1 109.50000 418.400000
7109 15041 9963 1 109.50000 418.400000
9822 15041 9963 1 109.50000 418.400000
6746 15042 7114 1 109.50000 418.400000
6746 15042 10030 1 109.50000 418.400000
6746 15042 11144 1 109.50000 418.400000
7114 15042 10030 1 109.50000 418.400000
7114 15042 11144 1 109.50000 418.400000
10030 15042 11144 1 109.50000 418.400000
6948 15043 6949 1 109.50000 418.400000
6948 15043 6950 1 109.50000 418.400000
6948 15043 10031 1 109.50000 418.400000
6949 15043 6950 1 109.50000 418.400000
6949 15043 10031 1 109.50000 418.400000
6950 15043 10031 1 109.50000 418.400000
69 15044 2698 1 109.50000 418.400000
69 15044 2913 1 109.50000 418.400000
69 15044 10033 1 109.50000 418.400000
2698 15044 2913 1 109.50000 418.400000
2698 15044 10033 1 109.50000 418.400000
2913 15044 10033 1 109.50000 418.400000
3204 15045 3278 1 109.50000 418.400000
3204 15045 4174 1 109.50000 418.400000
3204 15045 5240 1 109.50000 418.400000
3278 15045 4174 1 109.50000 418.400000
3278 15045 5240 1 109.50000 418.400000
4174 15045 5240 1 109.50000 418.400000
6415 15046 7232 1 109.50000 418.400000
6415 15046 8657 1 109.50000 418.400000
6415 15046 11203 1 109.50000 418.400000
7232 15046 8657 1 109.50000 418.400000
7232 15046 11203 1 109.50000 418.400000
8657 15046 11203 1 109.50000 418.400000
2998 15047 4855 1 109.50000 418.400000
2998 15047 7012 1 109.50000 418.400000
2998 15047 8909 1 109.50000 418.400000
4855 15047 7012 1 109.50000 418.400000
4855 15047 8909 1 109.50000 418.400000
7012 15047 8909 1 109.50000 418.400000
3975 15048 5425 1 109.50000 418.400000
3975 15048 10037 1 109.50000 418.400000
3975 15048 10038 1 109.50000 418.400000
5425 15048 10037 1 109.50000 418.400000
5425 15048 10038 1 109.50000 418.400000
10037 15048 10038 1 109.50000 418.400000
2720 15049 4867 1 109.50000 418.400000
2720 15049 5347 1 109.50000 418.400000
2720 15049 10039 1 109.50000 418.400000
4867 15049 5347 1 109.50000 418.400000
4867 15049 10039 1 109.50000 418.400000
5347 15049 10039 1 109.50000 418.400000
4284 15050 4285 1 109.50000 418.400000
4284 15050 4946 1 109.50000 418.400000
4284 15050 10040 1 109.50000 418.400000
4285 15050 4946 1 109.50000 418.400000
4285 15050 10040 1 109.50000 418.400000
4946 15050 10040 1 109.50000 418.400000
1283 15051 8195 1 109.50000 418.400000
1283 15051 9115 1 109.50000 418.400000
1283 15051 10041 1 109.50000 418.400000
8195 15051 9115 1 109.50000 418.400000
8195 15051 10041 1 109.50000 418.400000
9115 15051 10041 1 109.50000 418.400000
1865 15052 6926 1 109.50000 418.400000
1865 15052 10042 1 109.50000 418.400000
1865 15052 10043 1 109.50000 418.400000
6926 15052 10042 1 109.50000 418.400000
6926 15052 10043 1 109.50000 418.400000
10042 15052 10043 1 109.50000 418.400000
4301 15053 6319 1 109.50000 418.400000
4301 15053 6690 1 109.50000 418.400000
4301 15053 8004 1 109.50000 418.400000
6319 15053 6690 1 109.50000 418.400000
6319 15053 8004 1 109.50000 418.400000
6690 15053 8004 1 109.50000 418.400000
3019 15054 7810 1 109.50000 418.400000
3019 15054 10044 1 109.50000 418.400000
3019 15054 10045 1 109.50000 418.400000
7810 15054 10044 1 109.50000 418.400000
7810 15054 10045 1 109.50000 418.400000
10044 15054 10045 1 109.50000 418.400000
9029 15055 10046 1 109.50000 418.400000
9029 15055 10047 1 109.50000 418.400000
9029 15055 11229 1 109.50000 418.400000
10046 15055 10047 1 109.50000 418.400000
10046 15055 11229 1 109.50000 418.400000
10047 15055 11229 1 109.50000 418.400000
3939 15056 5894 1 109.50000 418.400000
3939 15056 9430 1 109.50000 418.400000
3939 15056 10048 1 109.50000 418.400000
5894 15056 9430 1 109.50000 418.400000
5894 15056 10048 1 109.50000 418.400000
9430 15056 10048 1 109.50000 418.400000
3385 15057 4053 1 109.50000 418.400000
3385 15057 10049 1 109.50000 418.400000
3385 15057 10050 1 109.50000 418.400000
4053 15057 10049 1 109.50000 418.400000
4053 15057 10050 1 109.50000 418.400000
10049 15057 10050 1 109.50000 418.400000
7546 15058 9792 1 109.50000 418.400000
7546 15058 10051 1 109.50000 418.400000
7546 15058 11367 1 109.50000 418.400000
9792 15058 10051 1 109.50000 418.400000
9792 15058 11367 1 109.50000 418.400000
10051 15058 11367 1 109.50000 418.400000
2337 15059 4276 1 109.50000 418.400000
2337 15059 6112 1 109.50000 418.400000
2337 15059 6113 1 109.50000 418.400000
4276 15059 6112 1 109.50000 418.400000
4276 15059 6113 1 109.50000 418.400000
6112 15059 6113 1 109.50000 418.400000
5849 15060 8494 1 109.50000 418.400000
5849 15060 10053 1 109.50000 418.400000
5849 15060 11300 1 109.50000 418.400000
8494 15060 10053 1 109.50000 418.400000
8494 15060 11300 1 109.50000 418.400000
10053 15060 11300 1 109.50000 418.400000
4263 15061 6565 1 109.50000 418.400000
4263 15061 6672 1 109.50000 418.400000
4263 15061 10054 1 109.50000 418.400000
6565 15061 6672 1 109.50000 418.400000
6565 15061 10054 1 109.50000 418.400000
6672 15061 10054 1 109.50000 418.400000
3170 15062 6055 1 109.50000 418.400000
3170 15062 6881 1 109.50000 418.400000
3170 15062 8802 1 109.50000 418.400000
6055 15062 6881 1 109.50000 418.400000
6055 15062 8802 1 109.50000 418.400000
6881 15062 8802 1 109.50000 418.400000
1504 15063 1638 1 109.50000 418.400000
1504 15063 8437 1 109.50000 418.400000
1504 15063 10056 1 109.50000 418.400000
1638 15063 8437 1 109.50000 418.400000
1638 15063 10056 1 109.50000 418.400000
8437 15063 10056 1 109.50000 418.400000
4020 15064 4409 1 109.50000 418.400000
4020 15064 10057 1 109.50000 418.400000
4020 15064 10058 1 109.50000 418.400000
4409 15064 10057 1 109.50000 418.400000
4409 15064 10058 1 109.50000 418.400000
10057 15064 10058 1 109.50000 418.400000
1010 15065 1011 1 109.50000 418.400000
1010 15065 1676 1 109.50000 418.400000
1010 15065 2796 1 109.50000 418.400000
1011 15065 1676 1 109.50000 418.400000
1011 15065 2796 1 109.50000 418.400000
1676 15065 2796 1 109.50000 418.400000
8782 15066 10059 1 109.50000 418.400000
8782 15066 10060 1 109.50000 418.400000
8782 15066 10061 1 109.50000 418.400000
10059 15066 10060 1 109.50000 418.400000
10059 15066 10061 1 109.50000 418.400000
10060 15066 10061 1 109.50000 418.400000
5179 15067 7237 1 109.50000 418.400000
5179 15067 9717 1 109.50000 418.400000
5179 15067 10672 1 109.50000 418.400000
7237 15067 9717 1 109.50000 418.400000
7237 15067 10672 1 109.50000 418.400000
9717 15067 10672 1 109.50000 418.400000
1536 15068 5811 1 109.50000 418.400000
1536 15068 8144 1 109.50000 418.400000
1536 15068 10064 1 109.50000 418.400000
5811 15068 8144 1 109.50000 418.400000
5811 15068 10064 1 109.50000 418.400000
8144 15068 10064 1 109.50000 418.400000
2301 15069 4835 1 109.50000 418.400000
2301 15069 9152 1 109.50000 418.400000
2301 15069 9942 1 109.50000 418.400000
4835 15069 9152 1 109.50000 418.400000
4835 15069 9942 1 109.50000 418.400000
9152 15069 9942 1 109.50000 418.400000
1508 15070 7149 1 109.50000 418.400000
1508 15070 10065 1 109.50000 418.400000
1508 15070 10066 1 109.50000 418.400000
7149 15070 10065 1 109.50000 418.400000
7149 15070 10066 1 109.50000 418.400000
10065 15070 10066 1 109.50000 418.400000
474 15071 6309 1 109.50000 418.400000
474 15071 7446 1 109.50000 418.400000
474 15071 10067 1 109.50000 418.400000
6309 15071 7446 1 109.50000 418.400000
6309 15071 10067 1 109.50000 418.400000
7446 15071 10067 1 109.50000 418.400000
3598 15072 8396 1 109.50000 418.400000
3598 15072 9398 1 109.50000 418.400000
3598 15072 9836 1 109.50000 418.400000
8396 15072 9398 1 109.50000 418.400000
8396 15072 9836 1 109.50000 418.400000
9398 15072 9836 1 109.50000 418.400000
1595 15073 2249 1 109.50000 418.400000
1595 15073 2471 1 109.50000 418.400000
1595 15073 8813 1 109.50000 418.400000
2249 15073 2471 1 109.50000 418.400000
2249 15073 8813 1 109.50000 418.400000
2471 15073 8813 1 109.50000 418.400000
2073 15074 3853 1 109.50000 418.400000
2073 15074 4594 1 109.50000 418.400000
2073 15074 6870 1 109.50000 418.400000
3853 15074 4594 1 109.50000 418.400000
3853 15074 6870 1 109.50000 418.400000
4594 15074 6870 1 109.50000 418.400000
7120 15075 7986 1 109.50000 418.400000
7120 15075 9956 1 109.50000 418.400000
7120 15075 10070 1 109.50000 418.400000
7986 15075 9956 1 109.50000 418.400000
7986 15075 10070 1 109.50000 418.400000
9956 15075 10070 1 109.50000 418.400000
4522 15076 4643 1 109.50000 418.400000
4522 15076 6362 1 109.50000 418.400000
4522 15076 10071 1 109.50000 418.400000
4643 15076 6362 1 109.50000 418.400000
4643 15076 10071 1 109.50000 418.400000
6362 15076 10071 1 109.50000 418.400000
4241 15077 9371 1 109.50000 418.400000
4241 15077 10072 1 109.50000 418.400000
4241 15077 10073 1 109.50000 418.400000
9371 15077 10072 1 109.50000 418.400000
9371 15077 10073 1 109.50000 418.400000
10072 15077 10073 1 109.50000 418.400000
1788 15078 5761 1 109.50000 418.400000
1788 15078 5764 1 109.50000 418.400000
1788 15078 10074 1 109.50000 418.400000
5761 15078 5764 1 109.50000 418.400000
5761 15078 10074 1 109.50000 418.400000
5764 15078 10074 1 109.50000 418.400000
1461 15079 5164 1 109.50000 418.400000
1461 15079 8299 1 109.50000 418.400000
1461 15079 10076 1 109.50000 418.400000
5164 15079 8299 1 109.50000 418.400000
5164 15079 10076 1 109.50000 418.400000
8299 15079 10076 1 109.50000 418.400000
1156 15080 10077 1 109.50000 418.400000
1156 15080 10078 1 109.50000 418.400000
1156 15080 10079 1 109.50000 418.400000
10077 15080 10078 1 109.50000 418.400000
10077 15080 10079 1 109.50000 418.400000
10078 15080 10079 1 109.50000 418.400000
5852 15081 8814 1 109.50000 418.400000
5852 15081 9591 1 109.50000 418.400000
5852 15081 9725 1 109.50000 418.400000
8814 15081 9591 1 109.50000 418.400000
8814 15081 9725 1 109.50000 418.400000
9591 15081 9725 1 109.50000 418.400000
8978 15082 9264 1 109.50000 418.400000
8978 15082 9449 1 109.50000 418.400000
8978 15082 9843 1 109.50000 418.400000
9264 15082 9449 1 109.50000 418.400000
9264 15082 9843 1 109.50000 418.400000
9449 15082 9843 1 109.50000 418.400000
5044 15083 6514 1 109.50000 418.400000
5044 15083 7184 1 109.50000 418.400000
5044 15083 9374 1 109.50000 418.400000
6514 15083 7184 1 109.50000 418.400000
6514 15083 9374 1 109.50000 418.400000
7184 15083 9374 1 109.50000 418.400000
1935 15084 6624 1 109.50000 418.400000
1935 15084 6850 1 109.50000 418.400000
1935 15084 9641 1 109.50000 418.400000
6624 15084 6850 1 109.50000 418.400000
6624 15084 9641 1 109.50000 418.400000
6850 15084 9641 1 109.50000 418.400000
4886 15085 7515 1 109.50000 418.400000
4886 15085 9631 1 109.50000 418.400000
4886 15085 10087 1 109.50000 418.400000
7515 15085 9631 1 109.50000 418.400000
7515 15085 10087 1 109.50000 418.400000
9631 15085 10087 1 109.50000 418.400000
5017 15086 5489 1 109.50000 418.400000
5017 15086 9255 1 109.50000 418.400000
5017 15086 10088 1 109.50000 418.400000
5489 15086 9255 1 109.50000 418.400000
5489 15086 10088 1 109.50000 418.400000
9255 15086 10088 1 109.50000 418.400000
2151 15087 6376 1 109.50000 418.400000
2151 15087 7672 1 109.50000 418.400000
2151 15087 10089 1 109.50000 418.400000
6376 15087 7672 1 109.50000 418.400000
6376 15087 10089 1 109.50000 418.400000
7672 15087 10089 1 109.50000 418.400000
5294 15088 8251 1 109.50000 418.400000
5294 15088 9884 1 109.50000 418.400000
5294 15088 10090 1 109.50000 418.400000
8251 15088 9884 1 109.50000 418.400000
8251 15088 10090 1 109.50000 418.400000
9884 15088 10090 1 109.50000 418.400000
2898 15089 7769 1 109.50000 418.400000
2898 15089 9464 1 109.50000 418.400000
2898 15089 9674 1 109.50000 418.400000
7769 15089 9464 1 109.50000 418.400000
7769 15089 9674 1 109.50000 418.400000
9464 15089 9674 1 109.50000 418.400000
7781 15090 9496 1 109.50000 418.400000
7781 15090 10091 1 109.50000 418.400000
7781 15090 10092 1 109.50000 418.400000
9496 15090 10091 1 109.50000 418.400000
9496 15090 10092 1 109.50000 418.400000
10091 15090 10092 1 109.50000 418.400000
9355 15091 9874 1 109.50000 418.400000
9355 15091 10093 1 109.50000 418.400000
9355 15091 10094 1 109.50000 418.400000
9874 15091 10093 1 109.50000 418.400000
9874 15091 10094 1 109.50000 418.400000
10093 15091 10094 1 109.50000 418.400000
5274 15092 8241 1 109.50000 418.400000
5274 15092 10095 1 109.50000 418.400000
5274 15092 10096 1 109.50000 418.400000
8241 15092 10095 1 109.50000 418.400000
8241 15092 10096 1 109.50000 418.400000
10095 15092 10096 1 109.50000 418.400000
4331 15093 8194 1 109.50000 418.400000
4331 15093 9864 1 109.50000 418.400000
4331 15093 10097 1 109.50000 418.400000
8194 15093 9864 1 109.50000 418.400000
8194 15093 10097 1 109.50000 418.400000
9864 15093 10097 1 109.50000 418.400000
2555 15094 4693 1 109.50000 418.400000
2555 15094 9229 1 109.50000 418.400000
2555 15094 9563 1 109.50000 418.400000
4693 15094 9229 1 109.50000 418.400000
4693 15094 9563 1 109.50000 418.400000
9229 15094 9563 1 109.50000 418.400000
5087 15095 7556 1 109.50000 418.400000
5087 15095 8177 1 109.50000 418.400000
5087 15095 8937 1 109.50000 418.400000
7556 15095 8177 1 109.50000 418.400000
7556 15095 8937 1 109.50000 418.400000
8177 15095 8937 1 109.50000 418.400000
4506 15096 6256 1 109.50000 418.400000
4506 15096 8279 1 109.50000 418.400000
4506 15096 8339 1 109.50000 418.400000
6256 15096 8279 1 109.50000 418.400000
6256 15096 8339 1 109.50000 418.400000
8279 15096 8339 1 109.50000 418.400000
8076 15097 8637 1 109.50000 418.400000
8076 15097 8638 1 109.50000 418.400000
8076 15097 8639 1 109.50000 418.400000
8637 15097 8638 1 109.50000 418.400000
8637 15097 8639 1 109.50000 418.400000
8638 15097 8639 1 109.50000 418.400000
3615 15098 10098 1 109.50000 418.400000
3615 15098 10099 1 109.50000 418.400000
3615 15098 10100 1 109.50000 418.400000
10098 15098 10099 1 109.50000 418.400000
10098 15098 10100 1 109.50000 418.400000
10099 15098 10100 1 109.50000 418.400000
5529 15099 6018 1 109.50000 418.400000
5529 15099 8936 1 109.50000 418.400000
5529 15099 10101 1 109.50000 418.400000
6018 15099 8936 1 109.50000 418.400000
6018 15099 10101 1 109.50000 418.400000
8936 15099 10101 1 109.50000 418.400000
2955 15100 4387 1 109.50000 418.400000
2955 15100 10102 1 109.50000 418.400000
2955 15100 10103 1 109.50000 418.400000
4387 15100 10102 1 109.50000 418.400000
4387 15100 10103 1 109.50000 418.400000
10102 15100 10103 1 109.50000 418.400000
568 15101 2239 1 109.50000 418.400000
568 15101 7509 1 109.50000 418.400000
568 15101 11160 1 109.50000 418.400000
2239 15101 7509 1 109.50000 418.400000
2239 15101 11160 1 109.50000 418.400000
7509 15101 11160 1 109.50000 418.400000
670 15102 4937 1 109.50000 418.400000
670 15102 4939 1 109.50000 418.400000
670 15102 9314 1 109.50000 418.400000
4937 15102 4939 1 109.50000 418.400000
4937 15102 9314 1 109.50000 418.400000
4939 15102 9314 1 109.50000 418.400000
763 15103 4095 1 109.50000 418.400000
763 15103 9273 1 109.50000 418.400000
763 15103 10106 1 109.50000 418.400000
4095 15103 9273 1 109.50000 418.400000
4095 15103 10106 1 109.50000 418.400000
9273 15103 10106 1 109.50000 418.400000
3163 15104 5783 1 109.50000 418.400000
3163 15104 9071 1 109.50000 418.400000
3163 15104 10107 1 109.50000 418.400000
5783 15104 9071 1 109.50000 418.400000
5783 15104 10107 1 109.50000 418.400000
9071 15104 10107 1 109.50000 418.400000
2264 15105 4328 1 109.50000 418.400000
2264 15105 10108 1 109.50000 418.400000
2264 15105 10109 1 109.50000 418.400000
4328 15105 10108 1 109.50000 418.400000
4328 15105 10109 1 109.50000 418.400000
10108 15105 10109 1 109.50000 418.400000
9097 15106 9564 1 109.50000 418.400000
9097 15106 10110 1 109.50000 418.400000
9097 15106 10111 1 109.50000 418.400000
9564 15106 10110 1 109.50000 418.400000
9564 15106 10111 1 109.50000 418.400000
10110 15106 10111 1 109.50000 418.400000
1383 15107 8673 1 109.50000 418.400000
1383 15107 10112 1 109.50000 418.400000
1383 15107 10113 1 109.50000 418.400000
8673 15107 10112 1 109.50000 418.400000
8673 15107 10113 1 109.50000 418.400000
10112 15107 10113 1 109.50000 418.400000
2775 15108 8475 1 109.50000 418.400000
2775 15108 9067 1 109.50000 418.400000
2775 15108 10114 1 109.50000 418.400000
8475 15108 9067 1 109.50000 418.400000
8475 15108 10114 1 109.50000 418.400000
9067 15108 10114 1 109.50000 418.400000
2939 15109 10000 1 109.50000 418.400000
2939 15109 10115 1 109.50000 418.400000
2939 15109 10116 1 109.50000 418.400000
10000 15109 10115 1 109.50000 418.400000
10000 15109 10116 1 109.50000 418.400000
10115 15109 10116 1 109.50000 418.400000
28 15110 1208 1 109.50000 418.400000
28 15110 10117 1 109.50000 418.400000
28 15110 10118 1 109.50000 418.400000
1208 15110 10117 1 109.50000 418.400000
1208 15110 10118 1 109.50000 418.400000
10117 15110 10118 1 109.50000 418.400000
1367 15111 5744 1 109.50000 418.400000
1367 15111 8355 1 109.50000 418.400000
1367 15111 8558 1 109.50000 418.400000
5744 15111 8355 1 109.50000 418.400000
5744 15111 8558 1 109.50000 418.400000
8355 15111 8558 1 109.50000 418.400000
1441 15112 4269 1 109.50000 418.400000
1441 15112 9981 1 109.50000 418.400000
1441 15112 10120 1 109.50000 418.400000
4269 15112 9981 1 109.50000 418.400000
4269 15112 10120 1 109.50000 418.400000
9981 15112 10120 1 109.50000 418.400000
3507 15113 7330 1 109.50000 418.400000
3507 15113 8286 1 109.50000 418.400000
3507 15113 9267 1 109.50000 418.400000
7330 15113 8286 1 109.50000 418.400000
7330 15113 9267 1 109.50000 418.400000
8286 15113 9267 1 109.50000 418.400000
2801 15114 4187 1 109.50000 418.400000
2801 15114 9736 1 109.50000 418.400000
2801 15114 10122 1 109.50000 418.400000
4187 15114 9736 1 109.50000 418.400000
4187 15114 10122 1 109.50000 418.400000
9736 15114 10122 1 109.50000 418.400000
3822 15115 5243 1 109.50000 418.400000
3822 15115 9343 1 109.50000 418.400000
3822 15115 10123 1 109.50000 418.400000
5243 15115 9343 1 109.50000 418.400000
5243 15115 10123 1 109.50000 418.400000
9343 15115 10123 1 109.50000 418.400000
148 15116 150 1 109.50000 418.400000
148 15116 1489 1 109.50000 418.400000
148 15116 7074 1 109.50000 418.400000
150 15116 1489 1 109.50000 418.400000
150 15116 7074 1 109.50000 418.400000
1489 15116 7074 1 109.50000 418.400000
8055 15117 10010 1 109.50000 418.400000
8055 15117 10125 1 109.50000 418.400000
8055 15117 10126 1 109.50000 418.400000
10010 15117 10125 1 109.50000 418.400000
10010 15117 10126 1 109.50000 418.400000
10125 15117 10126 1 109.50000 418.400000
3512 15118 4572 1 109.50000 418.400000
3512 15118 8833 1 109.50000 418.400000
3512 15118 10127 1 109.50000 418.400000
4572 15118 8833 1 109.50000 418.400000
4572 15118 10127 1 109.50000 418.400000
8833 15118 10127 1 109.50000 418.400000
2774 15119 4824 1 109.50000 418.400000
2774 15119 8269 1 109.50000 418.400000
2774 15119 10128 1 109.50000 418.400000
4824 15119 8269 1 109.50000 418.400000
4824 15119 10128 1 109.50000 418.400000
8269 15119 10128 1 109.50000 418.400000
6682 15120 7617 1 109.50000 418.400000
6682 15120 8455 1 109.50000 418.400000
6682 15120 9870 1 109.50000 418.400000
7617 15120 8455 1 109.50000 418.400000
7617 15120 9870 1 109.50000 418.400000
8455 15120 9870 1 109.50000 418.400000
1072 15121 8724 1 109.50000 418.400000
1072 15121 10129 1 109.50000 418.400000
1072 15121 10130 1 109.50000 418.400000
8724 15121 10129 1 109.50000 418.400000
8724 15121 10130 1 109.50000 418.400000
10129 15121 10130 1 109.50000 418.400000
3659 15122 3663 1 109.50000 418.400000
3659 15122 9347 1 109.50000 418.400000
3659 15122 10131 1 109.50000 418.400000
3663 15122 9347 1 109.50000 418.400000
3663 15122 10131 1 109.50000 418.400000
9347 15122 10131 1 109.50000 418.400000
10132 15123 10133 1 109.50000 418.400000
10132 15123 10134 1 109.50000 418.400000
10132 15123 10135 1 109.50000 418.400000
10133 15123 10134 1 109.50000 418.400000
10133 15123 10135 1 109.50000 418.400000
10134 15123 10135 1 109.50000 418.400000
7808 15124 8759 1 109.50000 418.400000
7808 15124 9331 1 109.50000 418.400000
7808 15124 10136 1 109.50000 418.400000
8759 15124 9331 1 109.50000 418.400000
8759 15124 10136 1 109.50000 418.400000
9331 15124 10136 1 109.50000 418.400000
1402 15125 4903 1 109.50000 418.400000
1402 15125 10110 1 109.50000 418.400000
1402 15125 10137 1 109.50000 418.400000
4903 15125 10110 1 109.50000 418.400000
4903 15125 10137 1 109.50000 418.400000
10110 15125 10137 1 109.50000 418.400000
2038 15126 6699 1 109.50000 418.400000
2038 15126 10118 1 109.50000 418.400000
2038 15126 10138 1 109.50000 418.400000
6699 15126 10118 1 109.50000 418.400000
6699 15126 10138 1 109.50000 418.400000
10118 15126 10138 1 109.50000 418.400000
2987 15127 7606 1 109.50000 418.400000
2987 15127 7673 1 109.50000 418.400000
2987 15127 10114 1 109.50000 418.400000
7606 15127 7673 1 109.50000 418.400000
7606 15127 10114 1 109.50000 418.400000
7673 15127 10114 1 109.50000 418.400000
1478 15128 1918 1 109.50000 418.400000
1478 15128 7912 1 109.50000 418.400000
1478 15128 10139 1 109.50000 418.400000
1918 15128 7912 1 109.50000 418.400000
1918 15128 10139 1 109.50000 418.400000
7912 15128 10139 1 109.50000 418.400000
2890 15129 9603 1 109.50000 418.400000
2890 15129 10140 1 109.50000 418.400000
2890 15129 11317 1 109.50000 418.400000
9603 15129 10140 1 109.50000 418.400000
9603 15129 11317 1 109.50000 418.400000
10140 15129 11317 1 109.50000 418.400000
4151 15130 5884 1 109.50000 418.400000
4151 15130 8645 1 109.50000 418.400000
4151 15130 10021 1 109.50000 418.400000
5884 15130 8645 1 109.50000 418.400000
5884 15130 10021 1 109.50000 418.400000
8645 15130 10021 1 109.50000 418.400000
672 15131 6966 1 109.50000 418.400000
672 15131 7069 1 109.50000 418.400000
672 15131 10094 1 109.50000 418.400000
6966 15131 7069 1 109.50000 418.400000
6966 15131 10094 1 109.50000 418.400000
7069 15131 10094 1 109.50000 418.400000
3834 15132 9092 1 109.50000 418.400000
3834 15132 10141 1 109.50000 418.400000
3834 15132 11380 1 109.50000 418.400000
9092 15132 10141 1 109.50000 418.400000
9092 15132 11380 1 109.50000 418.400000
10141 15132 11380 1 109.50000 418.400000
2938 15133 7391 1 109.50000 418.400000
2938 15133 8983 1 109.50000 418.400000
2938 15133 10142 1 109.50000 418.400000
7391 15133 8983 1 109.50000 418.400000
7391 15133 10142 1 109.50000 418.400000
8983 15133 10142 1 109.50000 418.400000
469 15134 3072 1 109.50000 418.400000
469 15134 10144 1 109.50000 418.400000
469 15134 11237 1 109.50000 418.400000
3072 15134 10144 1 109.50000 418.400000
3072 15134 11237 1 109.50000 418.400000
10144 15134 11237 1 109.50000 418.400000
3643 15135 10145 1 109.50000 418.400000
3643 15135 10146 1 109.50000 418.400000
3643 15135 10147 1 109.50000 418.400000
10145 15135 10146 1 109.50000 418.400000
10145 15135 10147 1 109.50000 418.400000
10146 15135 10147 1 109.50000 418.400000
4966 15136 6647 1 109.50000 418.400000
4966 15136 9544 1 109.50000 418.400000
4966 15136 9592 1 109.50000 418.400000
6647 15136 9544 1 109.50000 418.400000
6647 15136 9592 1 109.50000 418.400000
9544 15136 9592 1 109.50000 418.400000
4796 15137 4803 1 109.50000 418.400000
4796 15137 8838 1 109.50000 418.400000
4796 15137 10151 1 109.50000 418.400000
4803 15137 8838 1 109.50000 418.400000
4803 15137 10151 1 109.50000 418.400000
8838 15137 10151 1 109.50000 418.400000
3241 15138 5109 1 109.50000 418.400000
3241 15138 6990 1 109.50000 418.400000
3241 15138 10152 1 109.50000 418.400000
5109 15138 6990 1 109.50000 418.400000
5109 15138 10152 1 109.50000 418.400000
6990 15138 10152 1 109.50000 418.400000
4714 15139 5147 1 109.50000 418.400000
4714 15139 8135 1 109.50000 418.400000
4714 15139 9758 1 109.50000 418.400000
5147 15139 8135 1 109.50000 418.400000
5147 15139 9758 1 109.50000 418.400000
8135 15139 9758 1 109.50000 418.400000
7730 15140 8908 1 109.50000 418.400000
7730 15140 10153 1 109.50000 418.400000
7730 15140 10154 1 109.50000 418.400000
8908 15140 10153 1 109.50000 418.400000
8908 15140 10154 1 109.50000 418.400000
10153 15140 10154 1 109.50000 418.400000
1749 15141 5021 1 109.50000 418.400000
1749 15141 6740 1 109.50000 418.400000
1749 15141 10155 1 109.50000 418.400000
5021 15141 6740 1 109.50000 418.400000
5021 15141 10155 1 109.50000 418.400000
6740 15141 10155 1 109.50000 418.400000
6730 15142 7205 1 109.50000 418.400000
6730 15142 8646 1 109.50000 418.400000
6730 15142 10157 1 109.50000 418.400000
7205 15142 8646 1 109.50000 418.400000
7205 15142 10157 1 109.50000 418.400000
8646 15142 10157 1 109.50000 418.400000
202 15143 204 1 109.50000 418.400000
202 15143 9061 1 109.50000 418.400000
202 15143 10158 1 109.50000 418.400000
204 15143 9061 1 109.50000 418.400000
204 15143 10158 1 109.50000 418.400000
9061 15143 10158 1 109.50000 418.400000
1691 15144 7476 1 109.50000 418.400000
1691 15144 7658 1 109.50000 418.400000
1691 15144 10159 1 109.50000 418.400000
7476 15144 7658 1 109.50000 418.400000
7476 15144 10159 1 109.50000 418.400000
7658 15144 10159 1 109.50000 418.400000
3558 15145 6982 1 109.50000 418.400000
3558 15145 9039 1 109.50000 418.400000
3558 15145 10160 1 109.50000 418.400000
6982 15145 9039 1 109.50000 418.400000
6982 15145 10160 1 109.50000 418.400000
9039 15145 10160 1 109.50000 418.400000
1551 15146 6919 1 109.50000 418.400000
1551 15146 7629 1 109.50000 418.400000
1551 15146 9916 1 109.50000 418.400000
6919 15146 7629 1 109.50000 418.400000
6919 15146 9916 1 109.50000 418.400000
7629 15146 9916 1 109.50000 418.400000
1169 15147 8083 1 109.50000 418.400000
1169 15147 10161 1 109.50000 418.400000
1169 15147 10162 1 109.50000 418.400000
8083 15147 10161 1 109.50000 418.400000
8083 15147 10162 1 109.50000 418.400000
10161 15147 10162 1 109.50000 418.400000
1710 15148 4872 1 109.50000 418.400000
1710 15148 10163 1 109.50000 418.400000
1710 15148 10164 1 109.50000 418.400000
4872 15148 10163 1 109.50000 418.400000
4872 15148 10164 1 109.50000 418.400000
10163 15148 10164 1 109.50000 418.400000
2900 15149 4765 1 109.50000 418.400000
2900 15149 7051 1 109.50000 418.400000
2900 15149 9490 1 109.50000 418.400000
4765 15149 7051 1 109.50000 418.400000
4765 15149 9490 1 109.50000 418.400000
7051 15149 9490 1 109.50000 418.400000
1807 15150 4537 1 109.50000 418.400000
1807 15150 8134 1 109.50000 418.400000
1807 15150 10166 1 109.50000 418.400000
4537 15150 8134 1 109.50000 418.400000
4537 15150 10166 1 109.50000 418.400000
8134 15150 10166 1 109.50000 418.400000
3160 15151 6509 1 109.50000 418.400000
3160 15151 8478 1 109.50000 418.400000
3160 15151 10167 1 109.50000 418.400000
6509 15151 8478 1 109.50000 418.400000
6509 15151 10167 1 109.50000 418.400000
8478 15151 10167 1 109.50000 418.400000
4874 15152 7305 1 109.50000 418.400000
4874 15152 10168 1 109.50000 418.400000
4874 15152 10169 1 109.50000 418.400000
7305 15152 10168 1 109.50000 418.400000
7305 15152 10169 1 109.50000 418.400000
10168 15152 10169 1 109.50000 418.400000
4494 15153 8043 1 109.50000 418.400000
4494 15153 8044 1 109.50000 418.400000
4494 15153 11191 1 109.50000 418.400000
8043 15153 8044 1 109.50000 418.400000
8043 15153 11191 1 109.50000 418.400000
8044 15153 11191 1 109.50000 418.400000
8955 15154 9466 1 109.50000 418.400000
8955 15154 9865 1 109.50000 418.400000
8955 15154 10170 1 109.50000 418.400000
9466 15154 9865 1 109.50000 418.400000
9466 15154 10170 1 109.50000 418.400000
9865 15154 10170 1 109.50000 418.400000
2491 15155 2492 1 109.50000 418.400000
2491 15155 10120 1 109.50000 418.400000
2491 15155 10171 1 109.50000 418.400000
2492 15155 10120 1 109.50000 418.400000
2492 15155 10171 1 109.50000 418.400000
10120 15155 10171 1 109.50000 418.400000
6482 15156 7424 1 109.50000 418.400000
6482 15156 10172 1 109.50000 418.400000
6482 15156 10173 1 109.50000 418.400000
7424 15156 10172 1 109.50000 418.400000
7424 15156 10173 1 109.50000 418.400000
10172 15156 10173 1 109.50000 418.400000
2024 15157 2230 1 109.50000 418.400000
2024 15157 9915 1 109.50000 418.400000
2024 15157 10174 1 109.50000 418.400000
2230 15157 9915 1 109.50000 418.400000
2230 15157 10174 1 109.50000 418.400000
9915 15157 10174 1 109.50000 418.400000
8667 15158 10175 1 109.50000 418.400000
8667 15158 10176 1 109.50000 418.400000
8667 15158 10698 1 109.50000 418.400000
10175 15158 10176 1 109.50000 418.400000
10175 15158 10698 1 109.50000 418.400000
10176 15158 10698 1 109.50000 418.400000
8191 15159 9515 1 109.50000 418.400000
8191 15159 10071 1 109.50000 418.400000
8191 15159 10177 1 109.50000 418.400000
9515 15159 10071 1 109.50000 418.400000
9515 15159 10177 1 109.50000 418.400000
10071 15159 10177 1 109.50000 418.400000
2813 15160 10178 1 109.50000 418.400000
2813 15160 10179 1 109.50000 418.400000
2813 15160 10180 1 109.50000 418.400000
10178 15160 10179 1 109.50000 418.400000
10178 15160 10180 1 109.50000 418.400000
10179 15160 10180 1 109.50000 418.400000
2552 15161 6563 1 109.50000 418.400000
2552 15161 8620 1 109.50000 418.400000
2552 15161 9635 1 109.50000 418.400000
6563 15161 8620 1 109.50000 418.400000
6563 15161 9635 1 109.50000 418.400000
8620 15161 9635 1 109.50000 418.400000
10116 15162 10129 1 109.50000 418.400000
10116 15162 10181 1 109.50000 418.400000
10116 15162 10182 1 109.50000 418.400000
10129 15162 10181 1 109.50000 418.400000
10129 15162 10182 1 109.50000 418.400000
10181 15162 10182 1 109.50000 418.400000
8685 15163 9800 1 109.50000 418.400000
8685 15163 10183 1 109.50000 418.400000
8685 15163 10184 1 109.50000 418.400000
9800 15163 10183 1 109.50000 418.400000
9800 15163 10184 1 109.50000 418.400000
10183 15163 10184 1 109.50000 418.400000
689 15164 1731 1 109.50000 418.400000
689 15164 3421 1 109.50000 418.400000
689 15164 10186 1 109.50000 418.400000
1731 15164 3421 1 109.50000 418.400000
1731 15164 10186 1 109.50000 418.400000
3421 15164 10186 1 109.50000 418.400000
2002 15165 4710 1 109.50000 418.400000
2002 15165 10187 1 109.50000 418.400000
2002 15165 10188 1 109.50000 418.400000
4710 15165 10187 1 109.50000 418.400000
4710 15165 10188 1 109.50000 418.400000
10187 15165 10188 1 109.50000 418.400000
175 15166 5843 1 109.50000 418.400000
175 15166 9271 1 109.50000 418.400000
175 15166 11171 1 109.50000 418.400000
5843 15166 9271 1 109.50000 418.400000
5843 15166 11171 1 109.50000 418.400000
9271 15166 11171 1 109.50000 418.400000
9547 15167 9621 1 109.50000 418.400000
9547 15167 10055 1 109.50000 418.400000
9547 15167 10189 1 109.50000 418.400000
9621 15167 10055 1 109.50000 418.400000
9621 15167 10189 1 109.50000 418.400000
10055 15167 10189 1 109.50000 418.400000
8415 15168 8662 1 109.50000 418.400000
8415 15168 10190 1 109.50000 418.400000
8415 15168 10191 1 109.50000 418.400000
8662 15168 10190 1 109.50000 418.400000
8662 15168 10191 1 109.50000 418.400000
10190 15168 10191 1 109.50000 418.400000
2918 15169 5617 1 109.50000 418.400000
2918 15169 10192 1 109.50000 418.400000
2918 15169 10193 1 109.50000 418.400000
5617 15169 10192 1 109.50000 418.400000
5617 15169 10193 1 109.50000 418.400000
10192 15169 10193 1 109.50000 418.400000
5610 15170 9176 1 109.50000 418.400000
5610 15170 10194 1 109.50000 418.400000
5610 15170 11022 1 109.50000 418.400000
9176 15170 10194 1 109.50000 418.400000
9176 15170 11022 1 109.50000 418.400000
10194 15170 11022 1 109.50000 418.400000
2582 15171 6198 1 109.50000 418.400000
2582 15171 10196 1 109.50000 418.400000
2582 15171 10197 1 109.50000 418.400000
6198 15171 10196 1 109.50000 418.400000
6198 15171 10197 1 109.50000 418.400000
10196 15171 10197 1 109.50000 418.400000
5929 15172 7029 1 109.50000 418.400000
5929 15172 9046 1 109.50000 418.400000
5929 15172 10198 1 109.50000 418.400000
7029 15172 9046 1 109.50000 418.400000
7029 15172 10198 1 109.50000 418.400000
9046 15172 10198 1 109.50000 418.400000
9269 15173 9492 1 109.50000 418.400000
9269 15173 10199 1 109.50000 418.400000
9269 15173 11288 1 109.50000 418.400000
9492 15173 10199 1 109.50000 418.400000
9492 15173 11288 1 109.50000 418.400000
10199 15173 11288 1 109.50000 418.400000
564 15174 7340 1 109.50000 418.400000
564 15174 9666 1 109.50000 418.400000
564 15174 10200 1 109.50000 418.400000
7340 15174 9666 1 109.50000 418.400000
7340 15174 10200 1 109.50000 418.400000
9666 15174 10200 1 109.50000 418.400000
8586 15175 9502 1 109.50000 418.400000
8586 15175 10201 1 109.50000 418.400000
8586 15175 10202 1 109.50000 418.400000
9502 15175 10201 1 109.50000 418.400000
9502 15175 10202 1 109.50000 418.400000
10201 15175 10202 1 109.50000 418.400000
324 15176 6293 1 109.50000 418.400000
324 15176 7527 1 109.50000 418.400000
324 15176 10203 1 109.50000 418.400000
6293 15176 7527 1 109.50000 418.400000
6293 15176 10203 1 109.50000 418.400000
7527 15176 10203 1 109.50000 418.400000
829 15177 5508 1 109.50000 418.400000
829 15177 7013 1 109.50000 418.400000
829 15177 10204 1 109.50000 418.400000
5508 15177 7013 1 109.50000 418.400000
5508 15177 10204 1 109.50000 418.400000
7013 15177 10204 1 109.50000 418.400000
3496 15178 5793 1 109.50000 418.400000
3496 15178 9980 1 109.50000 418.400000
3496 15178 10205 1 109.50000 418.400000
5793 15178 9980 1 109.50000 418.400000
5793 15178 10205 1 109.50000 418.400000
9980 15178 10205 1 109.50000 418.400000
1297 15179 1786 1 109.50000 418.400000
1297 15179 8748 1 109.50000 418.400000
1297 15179 8751 1 109.50000 418.400000
1786 15179 8748 1 109.50000 418.400000
1786 15179 8751 1 109.50000 418.400000
8748 15179 8751 1 109.50000 418.400000
4141 15180 10206 1 109.50000 418.400000
4141 15180 10207 1 109.50000 418.400000
4141 15180 10208 1 109.50000 418.400000
10206 15180 10207 1 109.50000 418.400000
10206 15180 10208 1 109.50000 418.400000
10207 15180 10208 1 109.50000 418.400000
2573 15181 7282 1 109.50000 418.400000
2573 15181 10209 1 109.50000 418.400000
2573 15181 10210 1 109.50000 418.400000
7282 15181 10209 1 109.50000 418.400000
7282 15181 10210 1 109.50000 418.400000
10209 15181 10210 1 109.50000 418.400000
3808 15182 6865 1 109.50000 418.400000
3808 15182 10211 1 109.50000 418.400000
3808 15182 10212 1 109.50000 418.400000
6865 15182 10211 1 109.50000 418.400000
6865 15182 10212 1 109.50000 418.400000
10211 15182 10212 1 109.50000 418.400000
5730 15183 6508 1 109.50000 418.400000
5730 15183 10214 1 109.50000 418.400000
5730 15183 10215 1 109.50000 418.400000
6508 15183 10214 1 109.50000 418.400000
6508 15183 10215 1 109.50000 418.400000
10214 15183 10215 1 109.50000 418.400000
7145 15184 8176 1 109.50000 418.400000
7145 15184 8599 1 109.50000 418.400000
7145 15184 10216 1 109.50000 418.400000
8176 15184 8599 1 109.50000 418.400000
8176 15184 10216 1 109.50000 418.400000
8599 15184 10216 1 109.50000 418.400000
4162 15185 8999 1 109.50000 418.400000
4162 15185 9114 1 109.50000 418.400000
4162 15185 10217 1 109.50000 418.400000
8999 15185 9114 1 109.50000 418.400000
8999 15185 10217 1 109.50000 418.400000
9114 15185 10217 1 109.50000 418.400000
9366 15186 9918 1 109.50000 418.400000
9366 15186 10218 1 109.50000 418.400000
9366 15186 10219 1 109.50000 418.400000
9918 15186 10218 1 109.50000 418.400000
9918 15186 10219 1 109.50000 418.400000
10218 15186 10219 1 109.50000 418.400000
7835 15187 10220 1 109.50000 418.400000
7835 15187 10221 1 109.50000 418.400000
7835 15187 10222 1 109.50000 418.400000
10220 15187 10221 1 109.50000 418.400000
10220 15187 10222 1 109.50000 418.400000
10221 15187 10222 1 109.50000 418.400000
2063 15188 2912 1 109.50000 418.400000
2063 15188 4049 1 109.50000 418.400000
2063 15188 10223 1 109.50000 418.400000
2912 15188 4049 1 109.50000 418.400000
2912 15188 10223 1 109.50000 418.400000
4049 15188 10223 1 109.50000 418.400000
337 15189 9438 1 109.50000 418.400000
337 15189 9681 1 109.50000 418.400000
337 15189 10224 1 109.50000 418.400000
9438 15189 9681 1 109.50000 418.400000
9438 15189 10224 1 109.50000 418.400000
9681 15189 10224 1 109.50000 418.400000
6911 15190 10225 1 109.50000 418.400000
6911 15190 10226 1 109.50000 418.400000
6911 15190 10227 1 109.50000 418.400000
10225 15190 10226 1 109.50000 418.400000
10225 15190 10227 1 109.50000 418.400000
10226 15190 10227 1 109.50000 418.400000
2677 15191 4234 1 109.50000 418.400000
2677 15191 7831 1 109.50000 418.400000
2677 15191 10228 1 109.50000 418.400000
4234 15191 7831 1 109.50000 418.400000
4234 15191 10228 1 109.50000 418.400000
7831 15191 10228 1 109.50000 418.400000
6936 15192 8288 1 109.50000 418.400000
6936 15192 9824 1 109.50000 418.400000
6936 15192 10231 1 109.50000 418.400000
8288 15192 9824 1 109.50000 418.400000
8288 15192 10231 1 109.50000 418.400000
9824 15192 10231 1 109.50000 418.400000
5588 15193 9684 1 109.50000 418.400000
5588 15193 10232 1 109.50000 418.400000
5588 15193 10233 1 109.50000 418.400000
9684 15193 10232 1 109.50000 418.400000
9684 15193 10233 1 109.50000 418.400000
10232 15193 10233 1 109.50000 418.400000
9535 15194 9571 1 109.50000 418.400000
9535 15194 10234 1 109.50000 418.400000
9535 15194 10235 1 109.50000 418.400000
9571 15194 10234 1 109.50000 418.400000
9571 15194 10235 1 109.50000 418.400000
10234 15194 10235 1 109.50000 418.400000
3807 15195 3965 1 109.50000 418.400000
3807 15195 10236 1 109.50000 418.400000
3807 15195 10237 1 109.50000 418.400000
3965 15195 10236 1 109.50000 418.400000
3965 15195 10237 1 109.50000 418.400000
10236 15195 10237 1 109.50000 418.400000
930 15196 6904 1 109.50000 418.400000
930 15196 7923 1 109.50000 418.400000
930 15196 8626 1 109.50000 418.400000
6904 15196 7923 1 109.50000 418.400000
6904 15196 8626 1 109.50000 418.400000
7923 15196 8626 1 109.50000 418.400000
346 15197 9214 1 109.50000 418.400000
346 15197 10240 1 109.50000 418.400000
346 15197 10241 1 109.50000 418.400000
9214 15197 10240 1 109.50000 418.400000
9214 15197 10241 1 109.50000 418.400000
10240 15197 10241 1 109.50000 418.400000
1560 15198 8325 1 109.50000 418.400000
1560 15198 10242 1 109.50000 418.400000
1560 15198 10243 1 109.50000 418.400000
8325 15198 10242 1 109.50000 418.400000
8325 15198 10243 1 109.50000 418.400000
10242 15198 10243 1 109.50000 418.400000
715 15199 3617 1 109.50000 418.400000
715 15199 4542 1 109.50000 418.400000
715 15199 10244 1 109.50000 418.400000
3617 15199 4542 1 109.50000 418.400000
3617 15199 10244 1 109.50000 418.400000
4542 15199 10244 1 109.50000 418.400000
3307 15200 3830 1 109.50000 418.400000
3307 15200 4574 1 109.50000 418.400000
3307 15200 4914 1 109.50000 418.400000
3830 15200 4574 1 109.50000 418.400000
3830 15200 4914 1 109.50000 418.400000
4574 15200 4914 1 109.50000 418.400000
119 15201 8154 1 109.50000 418.400000
119 15201 8156 1 109.50000 418.400000
119 15201 10245 1 109.50000 418.400000
8154 15201 8156 1 109.50000 418.400000
8154 15201 10245 1 109.50000 418.400000
8156 15201 10245 1 109.50000 418.400000
1243 15202 8926 1 109.50000 418.400000
1243 15202 9925 1 109.50000 418.400000
1243 15202 10246 1 109.50000 418.400000
8926 15202 9925 1 109.50000 418.400000
8926 15202 10246 1 109.50000 418.400000
9925 15202 10246 1 109.50000 418.400000
1409 15203 1410 1 109.50000 418.400000
1409 15203 9559 1 109.50000 418.400000
1409 15203 10247 1 109.50000 418.400000
1410 15203 9559 1 109.50000 418.400000
1410 15203 10247 1 109.50000 418.400000
9559 15203 10247 1 109.50000 418.400000
1131 15204 6727 1 109.50000 418.400000
1131 15204 10248 1 109.50000 418.400000
1131 15204 10249 1 109.50000 418.400000
6727 15204 10248 1 109.50000 418.400000
6727 15204 10249 1 109.50000 418.400000
10248 15204 10249 1 109.50000 418.400000
3466 15205 8070 1 109.50000 418.400000
3466 15205 9893 1 109.50000 418.400000
3466 15205 10250 1 109.50000 418.400000
8070 15205 9893 1 109.50000 418.400000
8070 15205 10250 1 109.50000 418.400000
9893 15205 10250 1 109.50000 418.400000
3660 15206 9848 1 109.50000 418.400000
3660 15206 10251 1 109.50000 418.400000
3660 15206 10252 1 109.50000 418.400000
9848 15206 10251 1 109.50000 418.400000
9848 15206 10252 1 109.50000 418.400000
10251 15206 10252 1 109.50000 418.400000
1704 15207 8189 1 109.50000 418.400000
1704 15207 10253 1 109.50000 418.400000
1704 15207 10254 1 109.50000 418.400000
8189 15207 10253 1 109.50000 418.400000
8189 15207 10254 1 109.50000 418.400000
10253 15207 10254 1 109.50000 418.400000
2020 15208 4352 1 109.50000 418.400000
2020 15208 7594 1 109.50000 418.400000
2020 15208 8898 1 109.50000 418.400000
4352 15208 7594 1 109.50000 418.400000
4352 15208 8898 1 109.50000 418.400000
7594 15208 8898 1 109.50000 418.400000
3044 15209 6281 1 109.50000 418.400000
3044 15209 10112 1 109.50000 418.400000
3044 15209 10255 1 109.50000 418.400000
6281 15209 10112 1 109.50000 418.400000
6281 15209 10255 1 109.50000 418.400000
10112 15209 10255 1 109.50000 418.400000
7152 15210 9463 1 109.50000 418.400000
7152 15210 10256 1 109.50000 418.400000
7152 15210 10257 1 109.50000 418.400000
9463 15210 10256 1 109.50000 418.400000
9463 15210 10257 1 109.50000 418.400000
10256 15210 10257 1 109.50000 418.400000
5499 15211 5731 1 109.50000 418.400000
5499 15211 8074 1 109.50000 418.400000
5499 15211 9498 1 109.50000 418.400000
5731 15211 8074 1 109.50000 418.400000
5731 15211 9498 1 109.50000 418.400000
8074 15211 9498 1 109.50000 418.400000
7110 15212 8881 1 109.50000 418.400000
7110 15212 9712 1 109.50000 418.400000
7110 15212 10258 1 109.50000 418.400000
8881 15212 9712 1 109.50000 418.400000
8881 15212 10258 1 109.50000 418.400000
9712 15212 10258 1 109.50000 418.400000
80 15213 9024 1 109.50000 418.400000
80 15213 9662 1 109.50000 418.400000
80 15213 9698 1 109.50000 418.400000
9024 15213 9662 1 109.50000 418.400000
9024 15213 9698 1 109.50000 418.400000
9662 15213 9698 1 109.50000 418.400000
8717 15214 9477 1 109.50000 418.400000
8717 15214 10260 1 109.50000 418.400000
8717 15214 10261 1 109.50000 418.400000
9477 15214 10260 1 109.50000 418.400000
9477 15214 10261 1 109.50000 418.400000
10260 15214 10261 1 109.50000 418.400000
358 15215 3823 1 109.50000 418.400000
358 15215 9796 1 109.50000 418.400000
358 15215 10262 1 109.50000 418.400000
3823 15215 9796 1 109.50000 418.400000
3823 15215 10262 1 109.50000 418.400000
9796 15215 10262 1 109.50000 418.400000
1463 15216 8906 1 109.50000 418.400000
1463 15216 10263 1 109.50000 418.400000
1463 15216 10264 1 109.50000 418.400000
8906 15216 10263 1 109.50000 418.400000
8906 15216 10264 1 109.50000 418.400000
10263 15216 10264 1 109.50000 418.400000
3995 15217 6071 1 109.50000 418.400000
3995 15217 10265 1 109.50000 418.400000
3995 15217 11218 1 109.50000 418.400000
6071 15217 10265 1 109.50000 418.400000
6071 15217 11218 1 109.50000 418.400000
10265 15217 11218 1 109.50000 418.400000
3055 15218 5891 1 109.50000 418.400000
3055 15218 10266 1 109.50000 418.400000
3055 15218 10267 1 109.50000 418.400000
5891 15218 10266 1 109.50000 418.400000
5891 15218 10267 1 109.50000 418.400000
10266 15218 10267 1 109.50000 418.400000
6246 15219 9967 1 109.50000 418.400000
6246 15219 10268 1 109.50000 418.400000
6246 15219 10269 1 109.50000 418.400000
9967 15219 10268 1 109.50000 418.400000
9967 15219 10269 1 109.50000 418.400000
10268 15219 10269 1 109.50000 418.400000
1467 15220 1709 1 109.50000 418.400000
1467 15220 6817 1 109.50000 418.400000
1467 15220 8200 1 109.50000 418.400000
1709 15220 6817 1 109.50000 418.400000
1709 15220 8200 1 109.50000 418.400000
6817 15220 8200 1 109.50000 418.400000
6927 15221 8877 1 109.50000 418.400000
6927 15221 10270 1 109.50000 418.400000
6927 15221 10271 1 109.50000 418.400000
8877 15221 10270 1 109.50000 418.400000
8877 15221 10271 1 109.50000 418.400000
10270 15221 10271 1 109.50000 418.400000
6436 15222 6949 1 109.50000 418.400000
6436 15222 8390 1 109.50000 418.400000
6436 15222 10273 1 109.50000 418.400000
6949 15222 8390 1 109.50000 418.400000
6949 15222 10273 1 109.50000 418.400000
8390 15222 10273 1 109.50000 418.400000
3875 15223 4255 1 109.50000 418.400000
3875 15223 9754 1 109.50000 418.400000
3875 15223 10088 1 109.50000 418.400000
4255 15223 9754 1 109.50000 418.400000
4255 15223 10088 1 109.50000 418.400000
9754 15223 10088 1 109.50000 418.400000
1549 15224 3715 1 109.50000 418.400000
1549 15224 3791 1 109.50000 418.400000
1549 15224 6576 1 109.50000 418.400000
3715 15224 3791 1 109.50000 418.400000
3715 15224 6576 1 109.50000 418.400000
3791 15224 6576 1 109.50000 418.400000
251 15225 1712 1 109.50000 418.400000
251 15225 9190 1 109.50000 418.400000
251 15225 10274 1 109.50000 418.400000
1712 15225 9190 1 109.50000 418.400000
1712 15225 10274 1 109.50000 418.400000
9190 15225 10274 1 109.50000 418.400000
4958 15226 6285 1 109.50000 418.400000
4958 15226 7888 1 109.50000 418.400000
4958 15226 8655 1 109.50000 418.400000
6285 15226 7888 1 109.50000 418.400000
6285 15226 8655 1 109.50000 418.400000
7888 15226 8655 1 109.50000 418.400000
6653 15227 10054 1 109.50000 418.400000
6653 15227 10277 1 109.50000 418.400000
6653 15227 10278 1 109.50000 418.400000
10054 15227 10277 1 109.50000 418.400000
10054 15227 10278 1 109.50000 418.400000
10277 15227 10278 1 109.50000 418.400000
1102 15228 2535 1 109.50000 418.400000
1102 15228 10279 1 109.50000 418.400000
1102 15228 10280 1 109.50000 418.400000
2535 15228 10279 1 109.50000 418.400000
2535 15228 10280 1 109.50000 418.400000
10279 15228 10280 1 109.50000 418.400000
1049 15229 2909 1 109.50000 418.400000
1049 15229 8727 1 109.50000 418.400000
1049 15229 10281 1 109.50000 418.400000
2909 15229 8727 1 109.50000 418.400000
2909 15229 10281 1 109.50000 418.400000
8727 15229 10281 1 109.50000 418.400000
719 15230 3135 1 109.50000 418.400000
719 15230 7950 1 109.50000 418.400000
719 15230 9287 1 109.50000 418.400000
3135 15230 7950 1 109.50000 418.400000
3135 15230 9287 1 109.50000 418.400000
7950 15230 9287 1 109.50000 418.400000
5259 15231 9570 1 109.50000 418.400000
5259 15231 10282 1 109.50000 418.400000
5259 15231 10283 1 109.50000 418.400000
9570 15231 10282 1 109.50000 418.400000
9570 15231 10283 1 109.50000 418.400000
10282 15231 10283 1 109.50000 418.400000
1390 15232 5963 1 109.50000 418.400000
1390 15232 8359 1 109.50000 418.400000
1390 15232 10284 1 109.50000 418.400000
5963 15232 8359 1 109.50000 418.400000
5963 15232 10284 1 109.50000 418.400000
8359 15232 10284 1 109.50000 418.400000
866 15233 4593 1 109.50000 418.400000
866 15233 4595 1 109.50000 418.400000
866 15233 9636 1 109.50000 418.400000
4593 15233 4595 1 109.50000 418.400000
4593 15233 9636 1 109.50000 418.400000
4595 15233 9636 1 109.50000 418.400000
1949 15234 5038 1 109.50000 418.400000
1949 15234 9289 1 109.50000 418.400000
1949 15234 10286 1 109.50000 418.400000
5038 15234 9289 1 109.50000 418.400000
5038 15234 10286 1 109.50000 418.400000
9289 15234 10286 1 109.50000 418.400000
2030 15235 4334 1 109.50000 418.400000
2030 15235 7507 1 109.50000 418.400000
2030 15235 8763 1 109.50000 418.400000
4334 15235 7507 1 109.50000 418.400000
4334 15235 8763 1 109.50000 418.400000
7507 15235 8763 1 109.50000 418.400000
5420 15236 7443 1 109.50000 418.400000
5420 15236 10040 1 109.50000 418.400000
5420 15236 10287 1 109.50000 418.400000
7443 15236 10040 1 109.50000 418.400000
7443 15236 10287 1 109.50000 418.400000
10040 15236 10287 1 109.50000 418.400000
3768 15237 7604 1 109.50000 418.400000
3768 15237 8591 1 109.50000 418.400000
3768 15237 10288 1 109.50000 418.400000
7604 15237 8591 1 109.50000 418.400000
7604 15237 10288 1 109.50000 418.400000
8591 15237 10288 1 109.50000 418.400000
3209 15238 5863 1 109.50000 418.400000
3209 15238 5864 1 109.50000 418.400000
3209 15238 10289 1 109.50000 418.400000
5863 15238 5864 1 109.50000 418.400000
5863 15238 10289 1 109.50000 418.400000
5864 15238 10289 1 109.50000 418.400000
2209 15239 8349 1 109.50000 418.400000
2209 15239 9035 1 109.50000 418.400000
2209 15239 10291 1 109.50000 418.400000
8349 15239 9035 1 109.50000 418.400000
8349 15239 10291 1 109.50000 418.400000
9035 15239 10291 1 109.50000 418.400000
2143 15240 2532 1 109.50000 418.400000
2143 15240 5785 1 109.50000 418.400000
2143 15240 9220 1 109.50000 418.400000
2532 15240 5785 1 109.50000 418.400000
2532 15240 9220 1 109.50000 418.400000
5785 15240 9220 1 109.50000 418.400000
2154 15241 7960 1 109.50000 418.400000
2154 15241 8776 1 109.50000 418.400000
2154 15241 8872 1 109.50000 418.400000
7960 15241 8776 1 109.50000 418.400000
7960 15241 8872 1 109.50000 418.400000
8776 15241 8872 1 109.50000 418.400000
3700 15242 7585 1 109.50000 418.400000
3700 15242 8649 1 109.50000 418.400000
3700 15242 10292 1 109.50000 418.400000
7585 15242 8649 1 109.50000 418.400000
7585 15242 10292 1 109.50000 418.400000
8649 15242 10292 1 109.50000 418.400000
2341 15243 8037 1 109.50000 418.400000
2341 15243 10293 1 109.50000 418.400000
2341 15243 10294 1 109.50000 418.400000
8037 15243 10293 1 109.50000 418.400000
8037 15243 10294 1 109.50000 418.400000
10293 15243 10294 1 109.50000 418.400000
2347 15244 8615 1 109.50000 418.400000
2347 15244 9514 1 109.50000 418.400000
2347 15244 10295 1 109.50000 418.400000
8615 15244 9514 1 109.50000 418.400000
8615 15244 10295 1 109.50000 418.400000
9514 15244 10295 1 109.50000 418.400000
2199 15245 4753 1 109.50000 418.400000
2199 15245 8741 1 109.50000 418.400000
2199 15245 8863 1 109.50000 418.400000
4753 15245 8741 1 109.50000 418.400000
4753 15245 8863 1 109.50000 418.400000
8741 15245 8863 1 109.50000 418.400000
1354 15246 1356 1 109.50000 418.400000
1354 15246 2415 1 109.50000 418.400000
1354 15246 7725 1 109.50000 418.400000
1356 15246 2415 1 109.50000 418.400000
1356 15246 7725 1 109.50000 418.400000
2415 15246 7725 1 109.50000 418.400000
5914 15247 6218 1 109.50000 418.400000
5914 15247 7267 1 109.50000 418.400000
5914 15247 7633 1 109.50000 418.400000
6218 15247 7267 1 109.50000 418.400000
6218 15247 7633 1 109.50000 418.400000
7267 15247 7633 1 109.50000 418.400000
1132 15248 1226 1 109.50000 418.400000
1132 15248 6586 1 109.50000 418.400000
1132 15248 6587 1 109.50000 418.400000
1226 15248 6586 1 109.50000 418.400000
1226 15248 6587 1 109.50000 418.400000
6586 15248 6587 1 109.50000 418.400000
6094 15249 10137 1 109.50000 418.400000
6094 15249 10297 1 109.50000 418.400000
6094 15249 10298 1 109.50000 418.400000
10137 15249 10297 1 109.50000 418.400000
10137 15249 10298 1 109.50000 418.400000
10297 15249 10298 1 109.50000 418.400000
626 15250 4766 1 109.50000 418.400000
626 15250 7290 1 109.50000 418.400000
626 15250 9579 1 109.50000 418.400000
4766 15250 7290 1 109.50000 418.400000
4766 15250 9579 1 109.50000 418.400000
7290 15250 9579 1 109.50000 418.400000
5119 15251 7969 1 109.50000 418.400000
5119 15251 9336 1 109.50000 418.400000
5119 15251 10299 1 109.50000 418.400000
7969 15251 9336 1 109.50000 418.400000
7969 15251 10299 1 109.50000 418.400000
9336 15251 10299 1 109.50000 418.400000
4487 15252 6405 1 109.50000 418.400000
4487 15252 9910 1 109.50000 418.400000
4487 15252 10031 1 109.50000 418.400000
6405 15252 9910 1 109.50000 418.400000
6405 15252 10031 1 109.50000 418.400000
9910 15252 10031 1 109.50000 418.400000
6015 15253 6582 1 109.50000 418.400000
6015 15253 8088 1 109.50000 418.400000
6015 15253 8547 1 109.50000 418.400000
6582 15253 8088 1 109.50000 418.400000
6582 15253 8547 1 109.50000 418.400000
8088 15253 8547 1 109.50000 418.400000
162 15254 3212 1 109.50000 418.400000
162 15254 6920 1 109.50000 418.400000
162 15254 10176 1 109.50000 418.400000
3212 15254 6920 1 109.50000 418.400000
3212 15254 10176 1 109.50000 418.400000
6920 15254 10176 1 109.50000 418.400000
5913 15255 8604 1 109.50000 418.400000
5913 15255 10300 1 109.50000 418.400000
5913 15255 10301 1 109.50000 418.400000
8604 15255 10300 1 109.50000 418.400000
8604 15255 10301 1 109.50000 418.400000
10300 15255 10301 1 109.50000 418.400000
4659 15256 9086 1 109.50000 418.400000
4659 15256 9554 1 109.50000 418.400000
4659 15256 10303 1 109.50000 418.400000
9086 15256 9554 1 109.50000 418.400000
9086 15256 10303 1 109.50000 418.400000
9554 15256 10303 1 109.50000 418.400000
41 15257 4923 1 109.50000 418.400000
41 15257 8681 1 109.50000 418.400000
41 15257 10304 1 109.50000 418.400000
4923 15257 8681 1 109.50000 418.400000
4923 15257 10304 1 109.50000 418.400000
8681 15257 10304 1 109.50000 418.400000
643 15258 2392 1 109.50000 418.400000
643 15258 8117 1 109.50000 418.400000
643 15258 10305 1 109.50000 418.400000
2392 15258 8117 1 109.50000 418.400000
2392 15258 10305 1 109.50000 418.400000
8117 15258 10305 1 109.50000 418.400000
502 15259 3237 1 109.50000 418.400000
502 15259 8786 1 109.50000 418.400000
502 15259 8853 1 109.50000 418.400000
3237 15259 8786 1 109.50000 418.400000
3237 15259 8853 1 109.50000 418.400000
8786 15259 8853 1 109.50000 418.400000
4456 15260 7007 1 109.50000 418.400000
4456 15260 8049 1 109.50000 418.400000
4456 15260 10308 1 109.50000 418.400000
7007 15260 8049 1 109.50000 418.400000
7007 15260 10308 1 109.50000 418.400000
8049 15260 10308 1 109.50000 418.400000
8513 15261 10133 1 109.50000 418.400000
8513 15261 10309 1 109.50000 418.400000
8513 15261 10310 1 109.50000 418.400000
10133 15261 10309 1 109.50000 418.400000
10133 15261 10310 1 109.50000 418.400000
10309 15261 10310 1 109.50000 418.400000
4426 15262 9201 1 109.50000 418.400000
4426 15262 10311 1 109.50000 418.400000
4426 15262 10312 1 109.50000 418.400000
9201 15262 10311 1 109.50000 418.400000
9201 15262 10312 1 109.50000 418.400000
10311 15262 10312 1 109.50000 418.400000
5622 15263 6792 1 109.50000 418.400000
5622 15263 8409 1 109.50000 418.400000
5622 15263 10313 1 109.50000 418.400000
6792 15263 8409 1 109.50000 418.400000
6792 15263 10313 1 109.50000 418.400000
8409 15263 10313 1 109.50000 418.400000
22 15264 4954 1 109.50000 418.400000
22 15264 10315 1 109.50000 418.400000
22 15264 10316 1 109.50000 418.400000
4954 15264 10315 1 109.50000 418.400000
4954 15264 10316 1 109.50000 418.400000
10315 15264 10316 1 109.50000 418.400000
234 15265 4203 1 109.50000 418.400000
234 15265 9802 1 109.50000 418.400000
234 15265 10317 1 109.50000 418.400000
4203 15265 9802 1 109.50000 418.400000
4203 15265 10317 1 109.50000 418.400000
9802 15265 10317 1 109.50000 418.400000
1430 15266 3138 1 109.50000 418.400000
1430 15266 4186 1 109.50000 418.400000
1430 15266 9830 1 109.50000 418.400000
3138 15266 4186 1 109.50000 418.400000
3138 15266 9830 1 109.50000 418.400000
4186 15266 9830 1 109.50000 418.400000
1515 15267 10318 1 109.50000 418.400000
1515 15267 10319 1 109.50000 418.400000
1515 15267 10320 1 109.50000 418.400000
10318 15267 10319 1 109.50000 418.400000
10318 15267 10320 1 109.50000 418.400000
10319 15267 10320 1 109.50000 418.400000
4536 15268 9757 1 109.50000 418.400000
4536 15268 10321 1 109.50000 418.400000
4536 15268 10322 1 109.50000 418.400000
9757 15268 10321 1 109.50000 418.400000
9757 15268 10322 1 109.50000 418.400000
10321 15268 10322 1 109.50000 418.400000
1947 15269 9476 1 109.50000 418.400000
1947 15269 10281 1 109.50000 418.400000
1947 15269 10323 1 109.50000 418.400000
9476 15269 10281 1 109.50000 418.400000
9476 15269 10323 1 109.50000 418.400000
10281 15269 10323 1 109.50000 418.400000
2275 15270 2311 1 109.50000 418.400000
2275 15270 5254 1 109.50000 418.400000
2275 15270 7564 1 109.50000 418.400000
2311 15270 5254 1 109.50000 418.400000
2311 15270 7564 1 109.50000 418.400000
5254 15270 7564 1 109.50000 418.400000
3609 15271 6371 1 109.50000 418.400000
3609 15271 8400 1 109.50000 418.400000
3609 15271 9457 1 109.50000 418.400000
6371 15271 8400 1 109.50000 418.400000
6371 15271 9457 1 109.50000 418.400000
8400 15271 9457 1 109.50000 418.400000
7119 15272 8654 1 109.50000 418.400000
7119 15272 9841 1 109.50000 418.400000
7119 15272 10324 1 109.50000 418.400000
8654 15272 9841 1 109.50000 418.400000
8654 15272 10324 1 109.50000 418.400000
9841 15272 10324 1 109.50000 418.400000
4305 15273 10253 1 109.50000 418.400000
4305 15273 10325 1 109.50000 418.400000
4305 15273 10326 1 109.50000 418.400000
10253 15273 10325 1 109.50000 418.400000
10253 15273 10326 1 109.50000 418.400000
10325 15273 10326 1 109.50000 418.400000
6579 15274 7677 1 109.50000 418.400000
6579 15274 10283 1 109.50000 418.400000
6579 15274 10327 1 109.50000 418.400000
7677 15274 10283 1 109.50000 418.400000
7677 15274 10327 1 109.50000 418.400000
10283 15274 10327 1 109.50000 418.400000
2077 15275 2474 1 109.50000 418.400000
2077 15275 3000 1 109.50000 418.400000
2077 15275 10328 1 109.50000 418.400000
2474 15275 3000 1 109.50000 418.400000
2474 15275 10328 1 109.50000 418.400000
3000 15275 10328 1 109.50000 418.400000
5651 15276 8719 1 109.50000 418.400000
5651 15276 10331 1 109.50000 418.400000
5651 15276 10332 1 109.50000 418.400000
8719 15276 10331 1 109.50000 418.400000
8719 15276 10332 1 109.50000 418.400000
10331 15276 10332 1 109.50000 418.400000
1432 15277 7354 1 109.50000 418.400000
1432 15277 9105 1 109.50000 418.400000
1432 15277 10135 1 109.50000 418.400000
7354 15277 9105 1 109.50000 418.400000
7354 15277 10135 1 109.50000 418.400000
9105 15277 10135 1 109.50000 418.400000
2992 15278 7883 1 109.50000 418.400000
2992 15278 8552 1 109.50000 418.400000
2992 15278 10333 1 109.50000 418.400000
7883 15278 8552 1 109.50000 418.400000
7883 15278 10333 1 109.50000 418.400000
8552 15278 10333 1 109.50000 418.400000
36 15279 639 1 109.50000 418.400000
36 15279 10334 1 109.50000 418.400000
36 15279 10335 1 109.50000 418.400000
639 15279 10334 1 109.50000 418.400000
639 15279 10335 1 109.50000 418.400000
10334 15279 10335 1 109.50000 418.400000
8351 15280 8629 1 109.50000 418.400000
8351 15280 8880 1 109.50000 418.400000
8351 15280 9821 1 109.50000 418.400000
8629 15280 8880 1 109.50000 418.400000
8629 15280 9821 1 109.50000 418.400000
8880 15280 9821 1 109.50000 418.400000
1303 15281 2528 1 109.50000 418.400000
1303 15281 5947 1 109.50000 418.400000
1303 15281 10336 1 109.50000 418.400000
2528 15281 5947 1 109.50000 418.400000
2528 15281 10336 1 109.50000 418.400000
5947 15281 10336 1 109.50000 418.400000
1041 15282 5946 1 109.50000 418.400000
1041 15282 10337 1 109.50000 418.400000
1041 15282 10338 1 109.50000 418.400000
5946 15282 10337 1 109.50000 418.400000
5946 15282 10338 1 109.50000 418.400000
10337 15282 10338 1 109.50000 418.400000
5405 15283 7475 1 109.50000 418.400000
5405 15283 9262 1 109.50000 418.400000
5405 15283 9943 1 109.50000 418.400000
7475 15283 9262 1 109.50000 418.400000
7475 15283 9943 1 109.50000 418.400000
9262 15283 9943 1 109.50000 418.400000
4698 15284 8448 1 109.50000 418.400000
4698 15284 9145 1 109.50000 418.400000
4698 15284 10340 1 109.50000 418.400000
8448 15284 9145 1 109.50000 418.400000
8448 15284 10340 1 109.50000 418.400000
9145 15284 10340 1 109.50000 418.400000
4706 15285 5773 1 109.50000 418.400000
4706 15285 6814 1 109.50000 418.400000
4706 15285 10341 1 109.50000 418.400000
5773 15285 6814 1 109.50000 418.400000
5773 15285 10341 1 109.50000 418.400000
6814 15285 10341 1 109.50000 418.400000
8458 15286 10162 1 109.50000 418.400000
8458 15286 10342 1 109.50000 418.400000
8458 15286 10343 1 109.50000 418.400000
10162 15286 10342 1 109.50000 418.400000
10162 15286 10343 1 109.50000 418.400000
10342 15286 10343 1 109.50000 418.400000
4975 15287 7039 1 109.50000 418.400000
4975 15287 10344 1 109.50000 418.400000
4975 15287 10345 1 109.50000 418.400000
7039 15287 10344 1 109.50000 418.400000
7039 15287 10345 1 109.50000 418.400000
10344 15287 10345 1 109.50000 418.400000
5831 15288 7623 1 109.50000 418.400000
5831 15288 9934 1 109.50000 418.400000
5831 15288 10346 1 109.50000 418.400000
7623 15288 9934 1 109.50000 418.400000
7623 15288 10346 1 109.50000 418.400000
9934 15288 10346 1 109.50000 418.400000
3057 15289 8005 1 109.50000 418.400000
3057 15289 10265 1 109.50000 418.400000
3057 15289 10347 1 109.50000 418.400000
8005 15289 10265 1 109.50000 418.400000
8005 15289 10347 1 109.50000 418.400000
10265 15289 10347 1 109.50000 418.400000
6359 15290 8433 1 109.50000 418.400000
6359 15290 8468 1 109.50000 418.400000
6359 15290 10348 1 109.50000 418.400000
8433 15290 8468 1 109.50000 418.400000
8433 15290 10348 1 109.50000 418.400000
8468 15290 10348 1 109.50000 418.400000
7952 15291 8924 1 109.50000 418.400000
7952 15291 9940 1 109.50000 418.400000
7952 15291 10349 1 109.50000 418.400000
8924 15291 9940 1 109.50000 418.400000
8924 15291 10349 1 109.50000 418.400000
9940 15291 10349 1 109.50000 418.400000
1333 15292 5137 1 109.50000 418.400000
1333 15292 9972 1 109.50000 418.400000
1333 15292 10350 1 109.50000 418.400000
5137 15292 9972 1 109.50000 418.400000
5137 15292 10350 1 109.50000 418.400000
9972 15292 10350 1 109.50000 418.400000
144 15293 2630 1 109.50000 418.400000
144 15293 7466 1 109.50000 418.400000
144 15293 9338 1 109.50000 418.400000
2630 15293 7466 1 109.50000 418.400000
2630 15293 9338 1 109.50000 418.400000
7466 15293 9338 1 109.50000 418.400000
9968 15294 10351 1 109.50000 418.400000
9968 15294 10352 1 109.50000 418.400000
9968 15294 10353 1 109.50000 418.400000
10351 15294 10352 1 109.50000 418.400000
10351 15294 10353 1 109.50000 418.400000
10352 15294 10353 1 109.50000 418.400000
1181 15295 7115 1 109.50000 418.400000
1181 15295 9041 1 109.50000 418.400000
1181 15295 10354 1 109.50000 418.400000
7115 15295 9041 1 109.50000 418.400000
7115 15295 10354 1 109.50000 418.400000
9041 15295 10354 1 109.50000 418.400000
138 15296 5334 1 109.50000 418.400000
138 15296 9509 1 109.50000 418.400000
138 15296 10355 1 109.50000 418.400000
5334 15296 9509 1 109.50000 418.400000
5334 15296 10355 1 109.50000 418.400000
9509 15296 10355 1 109.50000 418.400000
5861 15297 6634 1 109.50000 418.400000
5861 15297 7582 1 109.50000 418.400000
5861 15297 8474 1 109.50000 418.400000
6634 15297 7582 1 109.50000 418.400000
6634 15297 8474 1 109.50000 418.400000
7582 15297 8474 1 109.50000 418.400000
1559 15298 2578 1 109.50000 418.400000
1559 15298 7780 1 109.50000 418.400000
1559 15298 7970 1 109.50000 418.400000
2578 15298 7780 1 109.50000 418.400000
2578 15298 7970 1 109.50000 418.400000
7780 15298 7970 1 109.50000 418.400000
10086 15299 10159 1 109.50000 418.400000
10086 15299 10357 1 109.50000 418.400000
10086 15299 11369 1 109.50000 418.400000
10159 15299 10357 1 109.50000 418.400000
10159 15299 11369 1 109.50000 418.400000
10357 15299 11369 1 109.50000 418.400000
3352 15300 9520 1 109.50000 418.400000
3352 15300 10358 1 109.50000 418.400000
3352 15300 10359 1 109.50000 418.400000
9520 15300 10358 1 109.50000 418.400000
9520 15300 10359 1 109.50000 418.400000
10358 15300 10359 1 109.50000 418.400000
4602 15301 6244 1 109.50000 418.400000
4602 15301 7313 1 109.50000 418.400000
4602 15301 8079 1 109.50000 418.400000
6244 15301 7313 1 109.50000 418.400000
6244 15301 8079 1 109.50000 418.400000
7313 15301 8079 1 109.50000 418.400000
7609 15302 10360 1 109.50000 418.400000
7609 15302 10361 1 109.50000 418.400000
7609 15302 10362 1 109.50000 418.400000
10360 15302 10361 1 109.50000 418.400000
10360 15302 10362 1 109.50000 418.400000
10361 15302 10362 1 109.50000 418.400000
8679 15303 10363 1 109.50000 418.400000
8679 15303 10364 1 109.50000 418.400000
8679 15303 10365 1 109.50000 418.400000
10363 15303 10364 1 109.50000 418.400000
10363 15303 10365 1 109.50000 418.400000
10364 15303 10365 1 109.50000 418.400000
3908 15304 6377 1 109.50000 418.400000
3908 15304 10366 1 109.50000 418.400000
3908 15304 10367 1 109.50000 418.400000
6377 15304 10366 1 109.50000 418.400000
6377 15304 10367 1 109.50000 418.400000
10366 15304 10367 1 109.50000 418.400000
7603 15305 7605 1 109.50000 418.400000
7603 15305 10368 1 109.50000 418.400000
7603 15305 10369 1 109.50000 418.400000
7605 15305 10368 1 109.50000 418.400000
7605 15305 10369 1 109.50000 418.400000
10368 15305 10369 1 109.50000 418.400000
7893 15306 10097 1 109.50000 418.400000
7893 15306 10370 1 109.50000 418.400000
7893 15306 10371 1 109.50000 418.400000
10097 15306 10370 1 109.50000 418.400000
10097 15306 10371 1 109.50000 418.400000
10370 15306 10371 1 109.50000 418.400000
10372 15307 10373 1 109.50000 418.400000
10372 15307 10374 1 109.50000 418.400000
10372 15307 10375 1 109.50000 418.400000
10373 15307 10374 1 109.50000 418.400000
10373 15307 10375 1 109.50000 418.400000
10374 15307 10375 1 109.50000 418.400000
1124 15308 7766 1 109.50000 418.400000
1124 15308 8087 1 109.50000 418.400000
1124 15308 8995 1 109.50000 418.400000
7766 15308 8087 1 109.50000 418.400000
7766 15308 8995 1 109.50000 418.400000
8087 15308 8995 1 109.50000 418.400000
136 15309 7438 1 109.50000 418.400000
136 15309 8261 1 109.50000 418.400000
136 15309 8567 1 109.50000 418.400000
7438 15309 8261 1 109.50000 418.400000
7438 15309 8567 1 109.50000 418.400000
8261 15309 8567 1 109.50000 418.400000
2044 15310 8224 1 109.50000 418.400000
2044 15310 9240 1 109.50000 418.400000
2044 15310 10376 1 109.50000 418.400000
8224 15310 9240 1 109.50000 418.400000
8224 15310 10376 1 109.50000 418.400000
9240 15310 10376 1 109.50000 418.400000
7314 15311 8388 1 109.50000 418.400000
7314 15311 8519 1 109.50000 418.400000
7314 15311 10377 1 109.50000 418.400000
8388 15311 8519 1 109.50000 418.400000
8388 15311 10377 1 109.50000 418.400000
8519 15311 10377 1 109.50000 418.400000
10378 15312 10379 1 109.50000 418.400000
10378 15312 10380 1 109.50000 418.400000
10378 15312 10661 1 109.50000 418.400000
10379 15312 10380 1 109.50000 418.400000
10379 15312 10661 1 109.50000 418.400000
10380 15312 10661 1 109.50000 418.400000
5703 15313 10164 1 109.50000 418.400000
5703 15313 10381 1 109.50000 418.400000
5703 15313 10382 1 109.50000 418.400000
10164 15313 10381 1 109.50000 418.400000
10164 15313 10382 1 109.50000 418.400000
10381 15313 10382 1 109.50000 418.400000
3584 15314 4869 1 109.50000 418.400000
3584 15314 9427 1 109.50000 418.400000
3584 15314 10383 1 109.50000 418.400000
4869 15314 9427 1 109.50000 418.400000
4869 15314 10383 1 109.50000 418.400000
9427 15314 10383 1 109.50000 418.400000
2223 15315 8464 1 109.50000 418.400000
2223 15315 10201 1 109.50000 418.400000
2223 15315 10384 1 109.50000 418.400000
8464 15315 10201 1 109.50000 418.400000
8464 15315 10384 1 109.50000 418.400000
10201 15315 10384 1 109.50000 418.400000
7248 15316 7635 1 109.50000 418.400000
7248 15316 10385 1 109.50000 418.400000
7248 15316 10386 1 109.50000 418.400000
7635 15316 10385 1 109.50000 418.400000
7635 15316 10386 1 109.50000 418.400000
10385 15316 10386 1 109.50000 418.400000
1080 15317 9016 1 109.50000 418.400000
1080 15317 10387 1 109.50000 418.400000
1080 15317 10388 1 109.50000 418.400000
9016 15317 10387 1 109.50000 418.400000
9016 15317 10388 1 109.50000 418.400000
10387 15317 10388 1 109.50000 418.400000
4369 15318 7793 1 109.50000 418.400000
4369 15318 9682 1 109.50000 418.400000
4369 15318 10293 1 109.50000 418.400000
7793 15318 9682 1 109.50000 418.400000
7793 15318 10293 1 109.50000 418.400000
9682 15318 10293 1 109.50000 418.400000
2399 15319 2626 1 109.50000 418.400000
2399 15319 8317 1 109.50000 418.400000
2399 15319 8986 1 109.50000 418.400000
2626 15319 8317 1 109.50000 418.400000
2626 15319 8986 1 109.50000 418.400000
8317 15319 8986 1 109.50000 418.400000
2316 15320 6082 1 109.50000 418.400000
2316 15320 8714 1 109.50000 418.400000
2316 15320 9767 1 109.50000 418.400000
6082 15320 8714 1 109.50000 418.400000
6082 15320 9767 1 109.50000 418.400000
8714 15320 9767 1 109.50000 418.400000
70 15321 3594 1 109.50000 418.400000
70 15321 5412 1 109.50000 418.400000
70 15321 7484 1 109.50000 418.400000
3594 15321 5412 1 109.50000 418.400000
3594 15321 7484 1 109.50000 418.400000
5412 15321 7484 1 109.50000 418.400000
821 15322 4341 1 109.50000 418.400000
821 15322 4424 1 109.50000 418.400000
821 15322 9316 1 109.50000 418.400000
4341 15322 4424 1 109.50000 418.400000
4341 15322 9316 1 109.50000 418.400000
4424 15322 9316 1 109.50000 418.400000
7791 15323 8435 1 109.50000 418.400000
7791 15323 10389 1 109.50000 418.400000
7791 15323 10390 1 109.50000 418.400000
8435 15323 10389 1 109.50000 418.400000
8435 15323 10390 1 109.50000 418.400000
10389 15323 10390 1 109.50000 418.400000
3409 15324 4575 1 109.50000 418.400000
3409 15324 4601 1 109.50000 418.400000
3409 15324 7710 1 109.50000 418.400000
4575 15324 4601 1 109.50000 418.400000
4575 15324 7710 1 109.50000 418.400000
4601 15324 7710 1 109.50000 418.400000
7478 15325 9175 1 109.50000 418.400000
7478 15325 9722 1 109.50000 418.400000
7478 15325 10181 1 109.50000 418.400000
9175 15325 9722 1 109.50000 418.400000
9175 15325 10181 1 109.50000 418.400000
9722 15325 10181 1 109.50000 418.400000
4274 15326 5874 1 109.50000 418.400000
4274 15326 9073 1 109.50000 418.400000
4274 15326 10090 1 109.50000 418.400000
5874 15326 9073 1 109.50000 418.400000
5874 15326 10090 1 109.50000 418.400000
9073 15326 10090 1 109.50000 418.400000
3631 15327 6965 1 109.50000 418.400000
3631 15327 6967 1 109.50000 418.400000
3631 15327 10391 1 109.50000 418.400000
6965 15327 6967 1 109.50000 418.400000
6965 15327 10391 1 109.50000 418.400000
6967 15327 10391 1 109.50000 418.400000
9292 15328 10392 1 109.50000 418.400000
9292 15328 10393 1 109.50000 418.400000
9292 15328 10394 1 109.50000 418.400000
10392 15328 10393 1 109.50000 418.400000
10392 15328 10394 1 109.50000 418.400000
10393 15328 10394 1 109.50000 418.400000
2849 15329 4523 1 109.50000 418.400000
2849 15329 9572 1 109.50000 418.400000
2849 15329 10254 1 109.50000 418.400000
4523 15329 9572 1 109.50000 418.400000
4523 15329 10254 1 109.50000 418.400000
9572 15329 10254 1 109.50000 418.400000
504 15330 4868 1 109.50000 418.400000
504 15330 10203 1 109.50000 418.400000
504 15330 10395 1 109.50000 418.400000
4868 15330 10203 1 109.50000 418.400000
4868 15330 10395 1 109.50000 418.400000
10203 15330 10395 1 109.50000 418.400000
5148 15331 9489 1 109.50000 418.400000
5148 15331 9896 1 109.50000 418.400000
5148 15331 10335 1 109.50000 418.400000
9489 15331 9896 1 109.50000 418.400000
9489 15331 10335 1 109.50000 418.400000
9896 15331 10335 1 109.50000 418.400000
3925 15332 7656 1 109.50000 418.400000
3925 15332 9640 1 109.50000 418.400000
3925 15332 9975 1 109.50000 418.400000
7656 15332 9640 1 109.50000 418.400000
7656 15332 9975 1 109.50000 418.400000
9640 15332 9975 1 109.50000 418.400000
2439 15333 8155 1 109.50000 418.400000
2439 15333 10027 1 109.50000 418.400000
2439 15333 10396 1 109.50000 418.400000
8155 15333 10027 1 109.50000 418.400000
8155 15333 10396 1 109.50000 418.400000
10027 15333 10396 1 109.50000 418.400000
1412 15334 2958 1 109.50000 418.400000
1412 15334 3650 1 109.50000 418.400000
1412 15334 10398 1 109.50000 418.400000
2958 15334 3650 1 109.50000 418.400000
2958 15334 10398 1 109.50000 418.400000
3650 15334 10398 1 109.50000 418.400000
1460 15335 6112 1 109.50000 418.400000
1460 15335 9170 1 109.50000 418.400000
1460 15335 10263 1 109.50000 418.400000
6112 15335 9170 1 109.50000 418.400000
6112 15335 10263 1 109.50000 418.400000
9170 15335 10263 1 109.50000 418.400000
8722 15336 9188 1 109.50000 418.400000
8722 15336 9225 1 109.50000 418.400000
8722 15336 10399 1 109.50000 418.400000
9188 15336 9225 1 109.50000 418.400000
9188 15336 10399 1 109.50000 418.400000
9225 15336 10399 1 109.50000 418.400000
1394 15337 2116 1 109.50000 418.400000
1394 15337 7107 1 109.50000 418.400000
1394 15337 10400 1 109.50000 418.400000
2116 15337 7107 1 109.50000 418.400000
2116 15337 10400 1 109.50000 418.400000
7107 15337 10400 1 109.50000 418.400000
1354 15338 2861 1 109.50000 418.400000
1354 15338 7269 1 109.50000 418.400000
1354 15338 7270 1 109.50000 418.400000
2861 15338 7269 1 109.50000 418.400000
2861 15338 7270 1 109.50000 418.400000
7269 15338 7270 1 109.50000 418.400000
5632 15339 7303 1 109.50000 418.400000
5632 15339 10214 1 109.50000 418.400000
5632 15339 10402 1 109.50000 418.400000
7303 15339 10214 1 109.50000 418.400000
7303 15339 10402 1 109.50000 418.400000
10214 15339 10402 1 109.50000 418.400000
4039 15340 9049 1 109.50000 418.400000
4039 15340 10403 1 109.50000 418.400000
4039 15340 10404 1 109.50000 418.400000
9049 15340 10403 1 109.50000 418.400000
9049 15340 10404 1 109.50000 418.400000
10403 15340 10404 1 109.50000 418.400000
1859 15341 4161 1 109.50000 418.400000
1859 15341 10405 1 109.50000 418.400000
1859 15341 10406 1 109.50000 418.400000
4161 15341 10405 1 109.50000 418.400000
4161 15341 10406 1 109.50000 418.400000
10405 15341 10406 1 109.50000 418.400000
1640 15342 8497 1 109.50000 418.400000
1640 15342 8499 1 109.50000 418.400000
1640 15342 8500 1 109.50000 418.400000
8497 15342 8499 1 109.50000 418.400000
8497 15342 8500 1 109.50000 418.400000
8499 15342 8500 1 109.50000 418.400000
4086 15343 5118 1 109.50000 418.400000
4086 15343 10015 1 109.50000 418.400000
4086 15343 10408 1 109.50000 418.400000
5118 15343 10015 1 109.50000 418.400000
5118 15343 10408 1 109.50000 418.400000
10015 15343 10408 1 109.50000 418.400000
2135 15344 4552 1 109.50000 418.400000
2135 15344 8844 1 109.50000 418.400000
2135 15344 10409 1 109.50000 418.400000
4552 15344 8844 1 109.50000 418.400000
4552 15344 10409 1 109.50000 418.400000
8844 15344 10409 1 109.50000 418.400000
2761 15345 6029 1 109.50000 418.400000
2761 15345 10250 1 109.50000 418.400000
2761 15345 10410 1 109.50000 418.400000
6029 15345 10250 1 109.50000 418.400000
6029 15345 10410 1 109.50000 418.400000
10250 15345 10410 1 109.50000 418.400000
4077 15346 6463 1 109.50000 418.400000
4077 15346 8808 1 109.50000 418.400000
4077 15346 10411 1 109.50000 418.400000
6463 15346 8808 1 109.50000 418.400000
6463 15346 10411 1 109.50000 418.400000
8808 15346 10411 1 109.50000 418.400000
201 15347 7062 1 109.50000 418.400000
201 15347 8825 1 109.50000 418.400000
201 15347 10412 1 109.50000 418.400000
7062 15347 8825 1 109.50000 418.400000
7062 15347 10412 1 109.50000 418.400000
8825 15347 10412 1 109.50000 418.400000
4185 15348 10413 1 109.50000 418.400000
4185 15348 10414 1 109.50000 418.400000
4185 15348 11179 1 109.50000 418.400000
10413 15348 10414 1 109.50000 418.400000
10413 15348 11179 1 109.50000 418.400000
10414 15348 11179 1 109.50000 418.400000
4631 15349 10153 1 109.50000 418.400000
4631 15349 10410 1 109.50000 418.400000
4631 15349 10415 1 109.50000 418.400000
10153 15349 10410 1 109.50000 418.400000
10153 15349 10415 1 109.50000 418.400000
10410 15349 10415 1 109.50000 418.400000
1248 15350 5915 1 109.50000 418.400000
1248 15350 7822 1 109.50000 418.400000
1248 15350 10232 1 109.50000 418.400000
5915 15350 7822 1 109.50000 418.400000
5915 15350 10232 1 109.50000 418.400000
7822 15350 10232 1 109.50000 418.400000
443 15351 2048 1 109.50000 418.400000
443 15351 10416 1 109.50000 418.400000
443 15351 10417 1 109.50000 418.400000
2048 15351 10416 1 109.50000 418.400000
2048 15351 10417 1 109.50000 418.400000
10416 15351 10417 1 109.50000 418.400000
803 15352 5870 1 109.50000 418.400000
803 15352 10271 1 109.50000 418.400000
803 15352 10418 1 109.50000 418.400000
5870 15352 10271 1 109.50000 418.400000
5870 15352 10418 1 109.50000 418.400000
10271 15352 10418 1 109.50000 418.400000
2472 15353 2867 1 109.50000 418.400000
2472 15353 4782 1 109.50000 418.400000
2472 15353 8659 1 109.50000 418.400000
2867 15353 4782 1 109.50000 418.400000
2867 15353 8659 1 109.50000 418.400000
4782 15353 8659 1 109.50000 418.400000
3620 15354 10408 1 109.50000 418.400000
3620 15354 10419 1 109.50000 418.400000
3620 15354 10420 1 109.50000 418.400000
10408 15354 10419 1 109.50000 418.400000
10408 15354 10420 1 109.50000 418.400000
10419 15354 10420 1 109.50000 418.400000
5272 15355 7043 1 109.50000 418.400000
5272 15355 9132 1 109.50000 418.400000
5272 15355 10421 1 109.50000 418.400000
7043 15355 9132 1 109.50000 418.400000
7043 15355 10421 1 109.50000 418.400000
9132 15355 10421 1 109.50000 418.400000
617 15356 5697 1 109.50000 418.400000
617 15356 8682 1 109.50000 418.400000
617 15356 9777 1 109.50000 418.400000
5697 15356 8682 1 109.50000 418.400000
5697 15356 9777 1 109.50000 418.400000
8682 15356 9777 1 109.50000 418.400000
4097 15357 5016 1 109.50000 418.400000
4097 15357 7667 1 109.50000 418.400000
4097 15357 10358 1 109.50000 418.400000
5016 15357 7667 1 109.50000 418.400000
5016 15357 10358 1 109.50000 418.400000
7667 15357 10358 1 109.50000 418.400000
1036 15358 1037 1 109.50000 418.400000
1036 15358 1038 1 109.50000 418.400000
1036 15358 1039 1 109.50000 418.400000
1037 15358 1038 1 109.50000 418.400000
1037 15358 1039 1 109.50000 418.400000
1038 15358 1039 1 109.50000 418.400000
5378 15359 8507 1 109.50000 418.400000
5378 15359 10311 1 109.50000 418.400000
5378 15359 10423 1 109.50000 418.400000
8507 15359 10311 1 109.50000 418.400000
8507 15359 10423 1 109.50000 418.400000
10311 15359 10423 1 109.50000 418.400000
3046 15360 5696 1 109.50000 418.400000
3046 15360 9380 1 109.50000 418.400000
3046 15360 10167 1 109.50000 418.400000
5696 15360 9380 1 109.50000 418.400000
5696 15360 10167 1 109.50000 418.400000
9380 15360 10167 1 109.50000 418.400000
885 15361 7581 1 109.50000 418.400000
885 15361 10424 1 109.50000 418.400000
885 15361 10822 1 109.50000 418.400000
7581 15361 10424 1 109.50000 418.400000
7581 15361 10822 1 109.50000 418.400000
10424 15361 10822 1 109.50000 418.400000
5189 15362 7036 1 109.50000 418.400000
5189 15362 9053 1 109.50000 418.400000
5189 15362 10425 1 109.50000 418.400000
7036 15362 9053 1 109.50000 418.400000
7036 15362 10425 1 109.50000 418.400000
9053 15362 10425 1 109.50000 418.400000
6554 15363 7156 1 109.50000 418.400000
6554 15363 9433 1 109.50000 418.400000
6554 15363 10426 1 109.50000 418.400000
7156 15363 9433 1 109.50000 418.400000
7156 15363 10426 1 109.50000 418.400000
9433 15363 10426 1 109.50000 418.400000
3404 15364 8950 1 109.50000 418.400000
3404 15364 10125 1 109.50000 418.400000
3404 15364 10278 1 109.50000 418.400000
8950 15364 10125 1 109.50000 418.400000
8950 15364 10278 1 109.50000 418.400000
10125 15364 10278 1 109.50000 418.400000
5474 15365 9180 1 109.50000 418.400000
5474 15365 10291 1 109.50000 418.400000
5474 15365 10427 1 109.50000 418.400000
9180 15365 10291 1 109.50000 418.400000
9180 15365 10427 1 109.50000 418.400000
10291 15365 10427 1 109.50000 418.400000
5180 15366 9022 1 109.50000 418.400000
5180 15366 10428 1 109.50000 418.400000
5180 15366 10429 1 109.50000 418.400000
9022 15366 10428 1 109.50000 418.400000
9022 15366 10429 1 109.50000 418.400000
10428 15366 10429 1 109.50000 418.400000
9417 15367 10345 1 109.50000 418.400000
9417 15367 10430 1 109.50000 418.400000
9417 15367 10431 1 109.50000 418.400000
10345 15367 10430 1 109.50000 418.400000
10345 15367 10431 1 109.50000 418.400000
10430 15367 10431 1 109.50000 418.400000
4628 15368 7681 1 109.50000 418.400000
4628 15368 8570 1 109.50000 418.400000
4628 15368 10432 1 109.50000 418.400000
7681 15368 8570 1 109.50000 418.400000
7681 15368 10432 1 109.50000 418.400000
8570 15368 10432 1 109.50000 418.400000
5993 15369 6983 1 109.50000 418.400000
5993 15369 9720 1 109.50000 418.400000
5993 15369 9906 1 109.50000 418.400000
6983 15369 9720 1 109.50000 418.400000
6983 15369 9906 1 109.50000 418.400000
9720 15369 9906 1 109.50000 418.400000
6435 15370 6437 1 109.50000 418.400000
6435 15370 8391 1 109.50000 418.400000
6435 15370 11324 1 109.50000 418.400000
6437 15370 8391 1 109.50000 418.400000
6437 15370 11324 1 109.50000 418.400000
8391 15370 11324 1 109.50000 418.400000
1480 15371 2583 1 109.50000 418.400000
1480 15371 2585 1 109.50000 418.400000
1480 15371 8778 1 109.50000 418.400000
2583 15371 2585 1 109.50000 418.400000
2583 15371 8778 1 109.50000 418.400000
2585 15371 8778 1 109.50000 418.400000
6610 15372 8462 1 109.50000 418.400000
6610 15372 8587 1 109.50000 418.400000
6610 15372 9455 1 109.50000 418.400000
8462 15372 8587 1 109.50000 418.400000
8462 15372 9455 1 109.50000 418.400000
8587 15372 9455 1 109.50000 418.400000
45 15373 2200 1 109.50000 418.400000
45 15373 9713 1 109.50000 418.400000
45 15373 10433 1 109.50000 418.400000
2200 15373 9713 1 109.50000 418.400000
2200 15373 10433 1 109.50000 418.400000
9713 15373 10433 1 109.50000 418.400000
4815 15374 5747 1 109.50000 418.400000
4815 15374 6027 1 109.50000 418.400000
4815 15374 8172 1 109.50000 418.400000
5747 15374 6027 1 109.50000 418.400000
5747 15374 8172 1 109.50000 418.400000
6027 15374 8172 1 109.50000 418.400000
1668 15375 7704 1 109.50000 418.400000
1668 15375 7820 1 109.50000 418.400000
1668 15375 10434 1 109.50000 418.400000
7704 15375 7820 1 109.50000 418.400000
7704 15375 10434 1 109.50000 418.400000
7820 15375 10434 1 109.50000 418.400000
1045 15376 4252 1 109.50000 418.400000
1045 15376 8754 1 109.50000 418.400000
1045 15376 10421 1 109.50000 418.400000
4252 15376 8754 1 109.50000 418.400000
4252 15376 10421 1 109.50000 418.400000
8754 15376 10421 1 109.50000 418.400000
2459 15377 5327 1 109.50000 418.400000
2459 15377 7046 1 109.50000 418.400000
2459 15377 9209 1 109.50000 418.400000
5327 15377 7046 1 109.50000 418.400000
5327 15377 9209 1 109.50000 418.400000
7046 15377 9209 1 109.50000 418.400000
3945 15378 5003 1 109.50000 418.400000
3945 15378 6765 1 109.50000 418.400000
3945 15378 6767 1 109.50000 418.400000
5003 15378 6765 1 109.50000 418.400000
5003 15378 6767 1 109.50000 418.400000
6765 15378 6767 1 109.50000 418.400000
10437 15379 10438 1 109.50000 418.400000
10437 15379 10439 1 109.50000 418.400000
10437 15379 10440 1 109.50000 418.400000
10438 15379 10439 1 109.50000 418.400000
10438 15379 10440 1 109.50000 418.400000
10439 15379 10440 1 109.50000 418.400000
4447 15380 7550 1 109.50000 418.400000
4447 15380 9222 1 109.50000 418.400000
4447 15380 10443 1 109.50000 418.400000
7550 15380 9222 1 109.50000 418.400000
7550 15380 10443 1 109.50000 418.400000
9222 15380 10443 1 109.50000 418.400000
7385 15381 7751 1 109.50000 418.400000
7385 15381 10444 1 109.50000 418.400000
7385 15381 10445 1 109.50000 418.400000
7751 15381 10444 1 109.50000 418.400000
7751 15381 10445 1 109.50000 418.400000
10444 15381 10445 1 109.50000 418.400000
873 15382 5011 1 109.50000 418.400000
873 15382 9404 1 109.50000 418.400000
873 15382 10446 1 109.50000 418.400000
5011 15382 9404 1 109.50000 418.400000
5011 15382 10446 1 109.50000 418.400000
9404 15382 10446 1 109.50000 418.400000
4388 15383 8085 1 109.50000 418.400000
4388 15383 8920 1 109.50000 418.400000
4388 15383 10447 1 109.50000 418.400000
8085 15383 8920 1 109.50000 418.400000
8085 15383 10447 1 109.50000 418.400000
8920 15383 10447 1 109.50000 418.400000
774 15384 3430 1 109.50000 418.400000
774 15384 5184 1 109.50000 418.400000
774 15384 10448 1 109.50000 418.400000
3430 15384 5184 1 109.50000 418.400000
3430 15384 10448 1 109.50000 418.400000
5184 15384 10448 1 109.50000 418.400000
751 15385 9597 1 109.50000 418.400000
751 15385 10449 1 109.50000 418.400000
751 15385 10450 1 109.50000 418.400000
9597 15385 10449 1 109.50000 418.400000
9597 15385 10450 1 109.50000 418.400000
10449 15385 10450 1 109.50000 418.400000
7540 15386 10451 1 109.50000 418.400000
7540 15386 10452 1 109.50000 418.400000
7540 15386 10453 1 109.50000 418.400000
10451 15386 10452 1 109.50000 418.400000
10451 15386 10453 1 109.50000 418.400000
10452 15386 10453 1 109.50000 418.400000
979 15387 2367 1 109.50000 418.400000
979 15387 6342 1 109.50000 418.400000
979 15387 7756 1 109.50000 418.400000
2367 15387 6342 1 109.50000 418.400000
2367 15387 7756 1 109.50000 418.400000
6342 15387 7756 1 109.50000 418.400000
2414 15388 9204 1 109.50000 418.400000
2414 15388 10454 1 109.50000 418.400000
2414 15388 10455 1 109.50000 418.400000
9204 15388 10454 1 109.50000 418.400000
9204 15388 10455 1 109.50000 418.400000
10454 15388 10455 1 109.50000 418.400000
1054 15389 7930 1 109.50000 418.400000
1054 15389 9167 1 109.50000 418.400000
1054 15389 9440 1 109.50000 418.400000
7930 15389 9167 1 109.50000 418.400000
7930 15389 9440 1 109.50000 418.400000
9167 15389 9440 1 109.50000 418.400000
3124 15390 7380 1 109.50000 418.400000
3124 15390 8575 1 109.50000 418.400000
3124 15390 10456 1 109.50000 418.400000
7380 15390 8575 1 109.50000 418.400000
7380 15390 10456 1 109.50000 418.400000
8575 15390 10456 1 109.50000 418.400000
5143 15391 5354 1 109.50000 418.400000
5143 15391 7488 1 109.50000 418.400000
5143 15391 10457 1 109.50000 418.400000
5354 15391 7488 1 109.50000 418.400000
5354 15391 10457 1 109.50000 418.400000
7488 15391 10457 1 109.50000 418.400000
5639 15392 9068 1 109.50000 418.400000
5639 15392 9069 1 109.50000 418.400000
5639 15392 10458 1 109.50000 418.400000
9068 15392 9069 1 109.50000 418.400000
9068 15392 10458 1 109.50000 418.400000
9069 15392 10458 1 109.50000 418.400000
5967 15393 8791 1 109.50000 418.400000
5967 15393 9659 1 109.50000 418.400000
5967 15393 10460 1 109.50000 418.400000
8791 15393 9659 1 109.50000 418.400000
8791 15393 10460 1 109.50000 418.400000
9659 15393 10460 1 109.50000 418.400000
1435 15394 4370 1 109.50000 418.400000
1435 15394 6985 1 109.50000 418.400000
1435 15394 7675 1 109.50000 418.400000
4370 15394 6985 1 109.50000 418.400000
4370 15394 7675 1 109.50000 418.400000
6985 15394 7675 1 109.50000 418.400000
1009 15395 5458 1 109.50000 418.400000
1009 15395 7455 1 109.50000 418.400000
1009 15395 10464 1 109.50000 418.400000
5458 15395 7455 1 109.50000 418.400000
5458 15395 10464 1 109.50000 418.400000
7455 15395 10464 1 109.50000 418.400000
407 15396 408 1 109.50000 418.400000
407 15396 1352 1 109.50000 418.400000
407 15396 8278 1 109.50000 418.400000
408 15396 1352 1 109.50000 418.400000
408 15396 8278 1 109.50000 418.400000
1352 15396 8278 1 109.50000 418.400000
4070 15397 8182 1 109.50000 418.400000
4070 15397 8643 1 109.50000 418.400000
4070 15397 10465 1 109.50000 418.400000
8182 15397 8643 1 109.50000 418.400000
8182 15397 10465 1 109.50000 418.400000
8643 15397 10465 1 109.50000 418.400000
5522 15398 10466 1 109.50000 418.400000
5522 15398 10467 1 109.50000 418.400000
5522 15398 10741 1 109.50000 418.400000
10466 15398 10467 1 109.50000 418.400000
10466 15398 10741 1 109.50000 418.400000
10467 15398 10741 1 109.50000 418.400000
7942 15399 8582 1 109.50000 418.400000
7942 15399 10438 1 109.50000 418.400000
7942 15399 10468 1 109.50000 418.400000
8582 15399 10438 1 109.50000 418.400000
8582 15399 10468 1 109.50000 418.400000
10438 15399 10468 1 109.50000 418.400000
9346 15400 9532 1 109.50000 418.400000
9346 15400 9533 1 109.50000 418.400000
9346 15400 10469 1 109.50000 418.400000
9532 15400 9533 1 109.50000 418.400000
9532 15400 10469 1 109.50000 418.400000
9533 15400 10469 1 109.50000 418.400000
321 15401 3730 1 109.50000 418.400000
321 15401 4275 1 109.50000 418.400000
321 15401 10383 1 109.50000 418.400000
3730 15401 4275 1 109.50000 418.400000
3730 15401 10383 1 109.50000 418.400000
4275 15401 10383 1 109.50000 418.400000
2280 15402 6573 1 109.50000 418.400000
2280 15402 8418 1 109.50000 418.400000
2280 15402 10470 1 109.50000 418.400000
6573 15402 8418 1 109.50000 418.400000
6573 15402 10470 1 109.50000 418.400000
8418 15402 10470 1 109.50000 418.400000
1234 15403 5807 1 109.50000 418.400000
1234 15403 10471 1 109.50000 418.400000
1234 15403 10472 1 109.50000 418.400000
5807 15403 10471 1 109.50000 418.400000
5807 15403 10472 1 109.50000 418.400000
10471 15403 10472 1 109.50000 418.400000
281 15404 7161 1 109.50000 418.400000
281 15404 10473 1 109.50000 418.400000
281 15404 10474 1 109.50000 418.400000
7161 15404 10473 1 109.50000 418.400000
7161 15404 10474 1 109.50000 418.400000
10473 15404 10474 1 109.50000 418.400000
676 15405 1921 1 109.50000 418.400000
676 15405 10475 1 109.50000 418.400000
676 15405 11282 1 109.50000 418.400000
1921 15405 10475 1 109.50000 418.400000
1921 15405 11282 1 109.50000 418.400000
10475 15405 11282 1 109.50000 418.400000
1010 15406 2218 1 109.50000 418.400000
1010 15406 6465 1 109.50000 418.400000
1010 15406 10476 1 109.50000 418.400000
2218 15406 6465 1 109.50000 418.400000
2218 15406 10476 1 109.50000 418.400000
6465 15406 10476 1 109.50000 418.400000
6728 15407 8309 1 109.50000 418.400000
6728 15407 8770 1 109.50000 418.400000
6728 15407 9422 1 109.50000 418.400000
8309 15407 8770 1 109.50000 418.400000
8309 15407 9422 1 109.50000 418.400000
8770 15407 9422 1 109.50000 418.400000
3378 15408 5391 1 109.50000 418.400000
3378 15408 9089 1 109.50000 418.400000
3378 15408 10477 1 109.50000 418.400000
5391 15408 9089 1 109.50000 418.400000
5391 15408 10477 1 109.50000 418.400000
9089 15408 10477 1 109.50000 418.400000
991 15409 5441 1 109.50000 418.400000
991 15409 8962 1 109.50000 418.400000
991 15409 11189 1 109.50000 418.400000
5441 15409 8962 1 109.50000 418.400000
5441 15409 11189 1 109.50000 418.400000
8962 15409 11189 1 109.50000 418.400000
2213 15410 2727 1 109.50000 418.400000
2213 15410 8115 1 109.50000 418.400000
2213 15410 10478 1 109.50000 418.400000
2727 15410 8115 1 109.50000 418.400000
2727 15410 10478 1 109.50000 418.400000
8115 15410 10478 1 109.50000 418.400000
5543 15411 6382 1 109.50000 418.400000
5543 15411 9653 1 109.50000 418.400000
5543 15411 10479 1 109.50000 418.400000
6382 15411 9653 1 109.50000 418.400000
6382 15411 10479 1 109.50000 418.400000
9653 15411 10479 1 109.50000 418.400000
4451 15412 5832 1 109.50000 418.400000
4451 15412 6474 1 109.50000 418.400000
4451 15412 7854 1 109.50000 418.400000
5832 15412 6474 1 109.50000 418.400000
5832 15412 7854 1 109.50000 418.400000
6474 15412 7854 1 109.50000 418.400000
2543 15413 2638 1 109.50000 418.400000
2543 15413 8981 1 109.50000 418.400000
2543 15413 10072 1 109.50000 418.400000
2638 15413 8981 1 109.50000 418.400000
2638 15413 10072 1 109.50000 418.400000
8981 15413 10072 1 109.50000 418.400000
5791 15414 5792 1 109.50000 418.400000
5791 15414 5977 1 109.50000 418.400000
5791 15414 10220 1 109.50000 418.400000
5792 15414 5977 1 109.50000 418.400000
5792 15414 10220 1 109.50000 418.400000
5977 15414 10220 1 109.50000 418.400000
312 15415 9486 1 109.50000 418.400000
312 15415 10480 1 109.50000 418.400000
312 15415 10481 1 109.50000 418.400000
9486 15415 10480 1 109.50000 418.400000
9486 15415 10481 1 109.50000 418.400000
10480 15415 10481 1 109.50000 418.400000
1834 15416 3024 1 109.50000 418.400000
1834 15416 8442 1 109.50000 418.400000
1834 15416 10482 1 109.50000 418.400000
3024 15416 8442 1 109.50000 418.400000
3024 15416 10482 1 109.50000 418.400000
8442 15416 10482 1 109.50000 418.400000
2323 15417 6577 1 109.50000 418.400000
2323 15417 7918 1 109.50000 418.400000
2323 15417 10483 1 109.50000 418.400000
6577 15417 7918 1 109.50000 418.400000
6577 15417 10483 1 109.50000 418.400000
7918 15417 10483 1 109.50000 418.400000
1213 15418 2179 1 109.50000 418.400000
1213 15418 4972 1 109.50000 418.400000
1213 15418 10484 1 109.50000 418.400000
2179 15418 4972 1 109.50000 418.400000
2179 15418 10484 1 109.50000 418.400000
4972 15418 10484 1 109.50000 418.400000
6623 15419 9798 1 109.50000 418.400000
6623 15419 10407 1 109.50000 418.400000
6623 15419 10485 1 109.50000 418.400000
9798 15419 10407 1 109.50000 418.400000
9798 15419 10485 1 109.50000 418.400000
10407 15419 10485 1 109.50000 418.400000
7574 15420 8040 1 109.50000 418.400000
7574 15420 9946 1 109.50000 418.400000
7574 15420 10486 1 109.50000 418.400000
8040 15420 9946 1 109.50000 418.400000
8040 15420 10486 1 109.50000 418.400000
9946 15420 10486 1 109.50000 418.400000
4676 15421 4677 1 109.50000 418.400000
4676 15421 6975 1 109.50000 418.400000
4676 15421 8536 1 109.50000 418.400000
4677 15421 6975 1 109.50000 418.400000
4677 15421 8536 1 109.50000 418.400000
6975 15421 8536 1 109.50000 418.400000
1856 15422 8053 1 109.50000 418.400000
1856 15422 10487 1 109.50000 418.400000
1856 15422 10488 1 109.50000 418.400000
8053 15422 10487 1 109.50000 418.400000
8053 15422 10488 1 109.50000 418.400000
10487 15422 10488 1 109.50000 418.400000
2068 15423 4919 1 109.50000 418.400000
2068 15423 10489 1 109.50000 418.400000
2068 15423 10490 1 109.50000 418.400000
4919 15423 10489 1 109.50000 418.400000
4919 15423 10490 1 109.50000 418.400000
10489 15423 10490 1 109.50000 418.400000
3879 15424 7170 1 109.50000 418.400000
3879 15424 10491 1 109.50000 418.400000
3879 15424 11147 1 109.50000 418.400000
7170 15424 10491 1 109.50000 418.400000
7170 15424 11147 1 109.50000 418.400000
10491 15424 11147 1 109.50000 418.400000
5264 15425 5804 1 109.50000 418.400000
5264 15425 5826 1 109.50000 418.400000
5264 15425 9908 1 109.50000 418.400000
5804 15425 5826 1 109.50000 418.400000
5804 15425 9908 1 109.50000 418.400000
5826 15425 9908 1 109.50000 418.400000
5301 15426 7081 1 109.50000 418.400000
5301 15426 7306 1 109.50000 418.400000
5301 15426 10493 1 109.50000 418.400000
7081 15426 7306 1 109.50000 418.400000
7081 15426 10493 1 109.50000 418.400000
7306 15426 10493 1 109.50000 418.400000
1375 15427 4268 1 109.50000 418.400000
1375 15427 4314 1 109.50000 418.400000
1375 15427 6629 1 109.50000 418.400000
4268 15427 4314 1 109.50000 418.400000
4268 15427 6629 1 109.50000 418.400000
4314 15427 6629 1 109.50000 418.400000
6896 15428 6897 1 109.50000 418.400000
6896 15428 8546 1 109.50000 418.400000
6896 15428 9406 1 109.50000 418.400000
6897 15428 8546 1 109.50000 418.400000
6897 15428 9406 1 109.50000 418.400000
8546 15428 9406 1 109.50000 418.400000
7652 15429 9545 1 109.50000 418.400000
7652 15429 9838 1 109.50000 418.400000
7652 15429 10494 1 109.50000 418.400000
9545 15429 9838 1 109.50000 418.400000
9545 15429 10494 1 109.50000 418.400000
9838 15429 10494 1 109.50000 418.400000
6229 15430 9118 1 109.50000 418.400000
6229 15430 9119 1 109.50000 418.400000
6229 15430 10495 1 109.50000 418.400000
9118 15430 9119 1 109.50000 418.400000
9118 15430 10495 1 109.50000 418.400000
9119 15430 10495 1 109.50000 418.400000
3910 15431 8849 1 109.50000 418.400000
3910 15431 9763 1 109.50000 418.400000
3910 15431 10496 1 109.50000 418.400000
8849 15431 9763 1 109.50000 418.400000
8849 15431 10496 1 109.50000 418.400000
9763 15431 10496 1 109.50000 418.400000
1059 15432 6523 1 109.50000 418.400000
1059 15432 9526 1 109.50000 418.400000
1059 15432 10497 1 109.50000 418.400000
6523 15432 9526 1 109.50000 418.400000
6523 15432 10497 1 109.50000 418.400000
9526 15432 10497 1 109.50000 418.400000
921 15433 8669 1 109.50000 418.400000
921 15433 8758 1 109.50000 418.400000
921 15433 10498 1 109.50000 418.400000
8669 15433 8758 1 109.50000 418.400000
8669 15433 10498 1 109.50000 418.400000
8758 15433 10498 1 109.50000 418.400000
60 15434 7746 1 109.50000 418.400000
60 15434 10428 1 109.50000 418.400000
60 15434 10499 1 109.50000 418.400000
7746 15434 10428 1 109.50000 418.400000
7746 15434 10499 1 109.50000 418.400000
10428 15434 10499 1 109.50000 418.400000
4580 15435 6110 1 109.50000 418.400000
4580 15435 8265 1 109.50000 418.400000
4580 15435 10500 1 109.50000 418.400000
6110 15435 8265 1 109.50000 418.400000
6110 15435 10500 1 109.50000 418.400000
8265 15435 10500 1 109.50000 418.400000
880 15436 5678 1 109.50000 418.400000
880 15436 6347 1 109.50000 418.400000
880 15436 7992 1 109.50000 418.400000
5678 15436 6347 1 109.50000 418.400000
5678 15436 7992 1 109.50000 418.400000
6347 15436 7992 1 109.50000 418.400000
1021 15437 9602 1 109.50000 418.400000
1021 15437 9828 1 109.50000 418.400000
1021 15437 11394 1 109.50000 418.400000
9602 15437 9828 1 109.50000 418.400000
9602 15437 11394 1 109.50000 418.400000
9828 15437 11394 1 109.50000 418.400000
1115 15438 10150 1 109.50000 418.400000
1115 15438 10207 1 109.50000 418.400000
1115 15438 10501 1 109.50000 418.400000
10150 15438 10207 1 109.50000 418.400000
10150 15438 10501 1 109.50000 418.400000
10207 15438 10501 1 109.50000 418.400000
3967 15439 7502 1 109.50000 418.400000
3967 15439 8453 1 109.50000 418.400000
3967 15439 10289 1 109.50000 418.400000
7502 15439 8453 1 109.50000 418.400000
7502 15439 10289 1 109.50000 418.400000
8453 15439 10289 1 109.50000 418.400000
908 15440 1924 1 109.50000 418.400000
908 15440 1925 1 109.50000 418.400000
908 15440 3846 1 109.50000 418.400000
1924 15440 1925 1 109.50000 418.400000
1924 15440 3846 1 109.50000 418.400000
1925 15440 3846 1 109.50000 418.400000
5557 15441 8202 1 109.50000 418.400000
5557 15441 9729 1 109.50000 418.400000
5557 15441 9898 1 109.50000 418.400000
8202 15441 9729 1 109.50000 418.400000
8202 15441 9898 1 109.50000 418.400000
9729 15441 9898 1 109.50000 418.400000
1982 15442 6969 1 109.50000 418.400000
1982 15442 10502 1 109.50000 418.400000
1982 15442 10503 1 109.50000 418.400000
6969 15442 10502 1 109.50000 418.400000
6969 15442 10503 1 109.50000 418.400000
10502 15442 10503 1 109.50000 418.400000
3692 15443 7804 1 109.50000 418.400000
3692 15443 8027 1 109.50000 418.400000
3692 15443 10451 1 109.50000 418.400000
7804 15443 8027 1 109.50000 418.400000
7804 15443 10451 1 109.50000 418.400000
8027 15443 10451 1 109.50000 418.400000
2692 15444 5059 1 109.50000 418.400000
2692 15444 5061 1 109.50000 418.400000
2692 15444 10504 1 109.50000 418.400000
5059 15444 5061 1 109.50000 418.400000
5059 15444 10504 1 109.50000 418.400000
5061 15444 10504 1 109.50000 418.400000
384 15445 9948 1 109.50000 418.400000
384 15445 10505 1 109.50000 418.400000
384 15445 10506 1 109.50000 418.400000
9948 15445 10505 1 109.50000 418.400000
9948 15445 10506 1 109.50000 418.400000
10505 15445 10506 1 109.50000 418.400000
5306 15446 9550 1 109.50000 418.400000
5306 15446 10166 1 109.50000 418.400000
5306 15446 10507 1 109.50000 418.400000
9550 15446 10166 1 109.50000 418.400000
9550 15446 10507 1 109.50000 418.400000
10166 15446 10507 1 109.50000 418.400000
851 15447 1048 1 109.50000 418.400000
851 15447 7719 1 109.50000 418.400000
851 15447 10331 1 109.50000 418.400000
1048 15447 7719 1 109.50000 418.400000
1048 15447 10331 1 109.50000 418.400000
7719 15447 10331 1 109.50000 418.400000
1711 15448 1712 1 109.50000 418.400000
1711 15448 10508 1 109.50000 418.400000
1711 15448 11216 1 109.50000 418.400000
1712 15448 10508 1 109.50000 418.400000
1712 15448 11216 1 109.50000 418.400000
10508 15448 11216 1 109.50000 418.400000
2167 15449 3141 1 109.50000 418.400000
2167 15449 6090 1 109.50000 418.400000
2167 15449 6324 1 109.50000 418.400000
3141 15449 6090 1 109.50000 418.400000
3141 15449 6324 1 109.50000 418.400000
6090 15449 6324 1 109.50000 418.400000
10006 15450 10509 1 109.50000 418.400000
10006 15450 10510 1 109.50000 418.400000
10006 15450 10511 1 109.50000 418.400000
10509 15450 10510 1 109.50000 418.400000
10509 15450 10511 1 109.50000 418.400000
10510 15450 10511 1 109.50000 418.400000
916 15451 956 1 109.50000 418.400000
916 15451 6467 1 109.50000 418.400000
916 15451 9614 1 109.50000 418.400000
956 15451 6467 1 109.50000 418.400000
956 15451 9614 1 109.50000 418.400000
6467 15451 9614 1 109.50000 418.400000
3377 15452 4953 1 109.50000 418.400000
3377 15452 6929 1 109.50000 418.400000
3377 15452 10512 1 109.50000 418.400000
4953 15452 6929 1 109.50000 418.400000
4953 15452 10512 1 109.50000 418.400000
6929 15452 10512 1 109.50000 418.400000
190 15453 1003 1 109.50000 418.400000
190 15453 3612 1 109.50000 418.400000
190 15453 8408 1 109.50000 418.400000
1003 15453 3612 1 109.50000 418.400000
1003 15453 8408 1 109.50000 418.400000
3612 15453 8408 1 109.50000 418.400000
2860 15454 8565 1 109.50000 418.400000
2860 15454 10515 1 109.50000 418.400000
2860 15454 10516 1 109.50000 418.400000
8565 15454 10515 1 109.50000 418.400000
8565 15454 10516 1 109.50000 418.400000
10515 15454 10516 1 109.50000 418.400000
522 15455 6758 1 109.50000 418.400000
522 15455 7316 1 109.50000 418.400000
522 15455 10517 1 109.50000 418.400000
6758 15455 7316 1 109.50000 418.400000
6758 15455 10517 1 109.50000 418.400000
7316 15455 10517 1 109.50000 418.400000
1033 15456 5554 1 109.50000 418.400000
1033 15456 6135 1 109.50000 418.400000
1033 15456 9179 1 109.50000 418.400000
5554 15456 6135 1 109.50000 418.400000
5554 15456 9179 1 109.50000 418.400000
6135 15456 9179 1 109.50000 418.400000
5824 15457 5825 1 109.50000 418.400000
5824 15457 5921 1 109.50000 418.400000
5824 15457 10519 1 109.50000 418.400000
5825 15457 5921 1 109.50000 418.400000
5825 15457 10519 1 109.50000 418.400000
5921 15457 10519 1 109.50000 418.400000
4642 15458 9312 1 109.50000 418.400000
4642 15458 9983 1 109.50000 418.400000
4642 15458 10520 1 109.50000 418.400000
9312 15458 9983 1 109.50000 418.400000
9312 15458 10520 1 109.50000 418.400000
9983 15458 10520 1 109.50000 418.400000
1138 15459 5613 1 109.50000 418.400000
1138 15459 5960 1 109.50000 418.400000
1138 15459 9657 1 109.50000 418.400000
5613 15459 5960 1 109.50000 418.400000
5613 15459 9657 1 109.50000 418.400000
5960 15459 9657 1 109.50000 418.400000
5520 15460 10398 1 109.50000 418.400000
5520 15460 10522 1 109.50000 418.400000
5520 15460 10523 1 109.50000 418.400000
10398 15460 10522 1 109.50000 418.400000
10398 15460 10523 1 109.50000 418.400000
10522 15460 10523 1 109.50000 418.400000
4798 15461 6333 1 109.50000 418.400000
4798 15461 8425 1 109.50000 418.400000
4798 15461 8839 1 109.50000 418.400000
6333 15461 8425 1 109.50000 418.400000
6333 15461 8839 1 109.50000 418.400000
8425 15461 8839 1 109.50000 418.400000
5658 15462 10447 1 109.50000 418.400000
5658 15462 10524 1 109.50000 418.400000
5658 15462 10525 1 109.50000 418.400000
10447 15462 10524 1 109.50000 418.400000
10447 15462 10525 1 109.50000 418.400000
10524 15462 10525 1 109.50000 418.400000
6771 15463 9040 1 109.50000 418.400000
6771 15463 9325 1 109.50000 418.400000
6771 15463 10526 1 109.50000 418.400000
9040 15463 9325 1 109.50000 418.400000
9040 15463 10526 1 109.50000 418.400000
9325 15463 10526 1 109.50000 418.400000
1418 15464 3305 1 109.50000 418.400000
1418 15464 3516 1 109.50000 418.400000
1418 15464 4147 1 109.50000 418.400000
3305 15464 3516 1 109.50000 418.400000
3305 15464 4147 1 109.50000 418.400000
3516 15464 4147 1 109.50000 418.400000
6612 15465 9076 1 109.50000 418.400000
6612 15465 10373 1 109.50000 418.400000
6612 15465 10527 1 109.50000 418.400000
9076 15465 10373 1 109.50000 418.400000
9076 15465 10527 1 109.50000 418.400000
10373 15465 10527 1 109.50000 418.400000
2353 15466 8421 1 109.50000 418.400000
2353 15466 8847 1 109.50000 418.400000
2353 15466 10528 1 109.50000 418.400000
8421 15466 8847 1 109.50000 418.400000
8421 15466 10528 1 109.50000 418.400000
8847 15466 10528 1 109.50000 418.400000
8436 15467 9330 1 109.50000 418.400000
8436 15467 10051 1 109.50000 418.400000
8436 15467 10171 1 109.50000 418.400000
9330 15467 10051 1 109.50000 418.400000
9330 15467 10171 1 109.50000 418.400000
10051 15467 10171 1 109.50000 418.400000
1906 15468 5364 1 109.50000 418.400000
1906 15468 10482 1 109.50000 418.400000
1906 15468 10529 1 109.50000 418.400000
5364 15468 10482 1 109.50000 418.400000
5364 15468 10529 1 109.50000 418.400000
10482 15468 10529 1 109.50000 418.400000
7042 15469 7431 1 109.50000 418.400000
7042 15469 7432 1 109.50000 418.400000
7042 15469 10530 1 109.50000 418.400000
7431 15469 7432 1 109.50000 418.400000
7431 15469 10530 1 109.50000 418.400000
7432 15469 10530 1 109.50000 418.400000
4589 15470 4590 1 109.50000 418.400000
4589 15470 4591 1 109.50000 418.400000
4589 15470 4592 1 109.50000 418.400000
4590 15470 4591 1 109.50000 418.400000
4590 15470 4592 1 109.50000 418.400000
4591 15470 4592 1 109.50000 418.400000
2050 15471 5022 1 109.50000 418.400000
2050 15471 9619 1 109.50000 418.400000
2050 15471 9988 1 109.50000 418.400000
5022 15471 9619 1 109.50000 418.400000
5022 15471 9988 1 109.50000 418.400000
9619 15471 9988 1 109.50000 418.400000
3107 15472 3108 1 109.50000 418.400000
3107 15472 8883 1 109.50000 418.400000
3107 15472 10533 1 109.50000 418.400000
3108 15472 8883 1 109.50000 418.400000
3108 15472 10533 1 109.50000 418.400000
8883 15472 10533 1 109.50000 418.400000
3916 15473 7272 1 109.50000 418.400000
3916 15473 10534 1 109.50000 418.400000
3916 15473 10535 1 109.50000 418.400000
7272 15473 10534 1 109.50000 418.400000
7272 15473 10535 1 109.50000 418.400000
10534 15473 10535 1 109.50000 418.400000
2295 15474 3121 1 109.50000 418.400000
2295 15474 4767 1 109.50000 418.400000
2295 15474 10536 1 109.50000 418.400000
3121 15474 4767 1 109.50000 418.400000
3121 15474 10536 1 109.50000 418.400000
4767 15474 10536 1 109.50000 418.400000
4099 15475 8229 1 109.50000 418.400000
4099 15475 9169 1 109.50000 418.400000
4099 15475 10537 1 109.50000 418.400000
8229 15475 9169 1 109.50000 418.400000
8229 15475 10537 1 109.50000 418.400000
9169 15475 10537 1 109.50000 418.400000
4248 15476 6373 1 109.50000 418.400000
4248 15476 9742 1 109.50000 418.400000
4248 15476 10538 1 109.50000 418.400000
6373 15476 9742 1 109.50000 418.400000
6373 15476 10538 1 109.50000 418.400000
9742 15476 10538 1 109.50000 418.400000
1825 15477 6002 1 109.50000 418.400000
1825 15477 9226 1 109.50000 418.400000
1825 15477 10539 1 109.50000 418.400000
6002 15477 9226 1 109.50000 418.400000
6002 15477 10539 1 109.50000 418.400000
9226 15477 10539 1 109.50000 418.400000
1267 15478 1846 1 109.50000 418.400000
1267 15478 8972 1 109.50000 418.400000
1267 15478 10540 1 109.50000 418.400000
1846 15478 8972 1 109.50000 418.400000
1846 15478 10540 1 109.50000 418.400000
8972 15478 10540 1 109.50000 418.400000
3280 15479 10304 1 109.50000 418.400000
3280 15479 10541 1 109.50000 418.400000
3280 15479 10542 1 109.50000 418.400000
10304 15479 10541 1 109.50000 418.400000
10304 15479 10542 1 109.50000 418.400000
10541 15479 10542 1 109.50000 418.400000
4471 15480 7494 1 109.50000 418.400000
4471 15480 8023 1 109.50000 418.400000
4471 15480 10543 1 109.50000 418.400000
7494 15480 8023 1 109.50000 418.400000
7494 15480 10543 1 109.50000 418.400000
8023 15480 10543 1 109.50000 418.400000
8313 15481 8315 1 109.50000 418.400000
8313 15481 10516 1 109.50000 418.400000
8313 15481 10544 1 109.50000 418.400000
8315 15481 10516 1 109.50000 418.400000
8315 15481 10544 1 109.50000 418.400000
10516 15481 10544 1 109.50000 418.400000
7688 15482 9124 1 109.50000 418.400000
7688 15482 10032 1 109.50000 418.400000
7688 15482 10545 1 109.50000 418.400000
9124 15482 10032 1 109.50000 418.400000
9124 15482 10545 1 109.50000 418.400000
10032 15482 10545 1 109.50000 418.400000
4071 15483 4438 1 109.50000 418.400000
4071 15483 10546 1 109.50000 418.400000
4071 15483 10547 1 109.50000 418.400000
4438 15483 10546 1 109.50000 418.400000
4438 15483 10547 1 109.50000 418.400000
10546 15483 10547 1 109.50000 418.400000
2337 15484 2339 1 109.50000 418.400000
2337 15484 2340 1 109.50000 418.400000
2337 15484 10548 1 109.50000 418.400000
2339 15484 2340 1 109.50000 418.400000
2339 15484 10548 1 109.50000 418.400000
2340 15484 10548 1 109.50000 418.400000
3375 15485 10550 1 109.50000 418.400000
3375 15485 10551 1 109.50000 418.400000
3375 15485 10552 1 109.50000 418.400000
10550 15485 10551 1 109.50000 418.400000
10550 15485 10552 1 109.50000 418.400000
10551 15485 10552 1 109.50000 418.400000
6628 15486 7326 1 109.50000 418.400000
6628 15486 10243 1 109.50000 418.400000
6628 15486 10252 1 109.50000 418.400000
7326 15486 10243 1 109.50000 418.400000
7326 15486 10252 1 109.50000 418.400000
10243 15486 10252 1 109.50000 418.400000
4820 15487 5515 1 109.50000 418.400000
4820 15487 9136 1 109.50000 418.400000
4820 15487 10553 1 109.50000 418.400000
5515 15487 9136 1 109.50000 418.400000
5515 15487 10553 1 109.50000 418.400000
9136 15487 10553 1 109.50000 418.400000
2194 15488 8668 1 109.50000 418.400000
2194 15488 10554 1 109.50000 418.400000
2194 15488 10555 1 109.50000 418.400000
8668 15488 10554 1 109.50000 418.400000
8668 15488 10555 1 109.50000 418.400000
10554 15488 10555 1 109.50000 418.400000
2544 15489 10556 1 109.50000 418.400000
2544 15489 10557 1 109.50000 418.400000
2544 15489 10558 1 109.50000 418.400000
10556 15489 10557 1 109.50000 418.400000
10556 15489 10558 1 109.50000 418.400000
10557 15489 10558 1 109.50000 418.400000
298 15490 8141 1 109.50000 418.400000
298 15490 10295 1 109.50000 418.400000
298 15490 10486 1 109.50000 418.400000
8141 15490 10295 1 109.50000 418.400000
8141 15490 10486 1 109.50000 418.400000
10295 15490 10486 1 109.50000 418.400000
3125 15491 9116 1 109.50000 418.400000
3125 15491 10380 1 109.50000 418.400000
3125 15491 10559 1 109.50000 418.400000
9116 15491 10380 1 109.50000 418.400000
9116 15491 10559 1 109.50000 418.400000
10380 15491 10559 1 109.50000 418.400000
7871 15492 10562 1 109.50000 418.400000
7871 15492 10563 1 109.50000 418.400000
7871 15492 10564 1 109.50000 418.400000
10562 15492 10563 1 109.50000 418.400000
10562 15492 10564 1 109.50000 418.400000
10563 15492 10564 1 109.50000 418.400000
1553 15493 6858 1 109.50000 418.400000
1553 15493 9887 1 109.50000 418.400000
1553 15493 10565 1 109.50000 418.400000
6858 15493 9887 1 109.50000 418.400000
6858 15493 10565 1 109.50000 418.400000
9887 15493 10565 1 109.50000 418.400000
4358 15494 7137 1 109.50000 418.400000
4358 15494 7817 1 109.50000 418.400000
4358 15494 10566 1 109.50000 418.400000
7137 15494 7817 1 109.50000 418.400000
7137 15494 10566 1 109.50000 418.400000
7817 15494 10566 1 109.50000 418.400000
1525 15495 8743 1 109.50000 418.400000
1525 15495 10233 1 109.50000 418.400000
1525 15495 10568 1 109.50000 418.400000
8743 15495 10233 1 109.50000 418.400000
8743 15495 10568 1 109.50000 418.400000
10233 15495 10568 1 109.50000 418.400000
6006 15496 9919 1 109.50000 418.400000
6006 15496 10569 1 109.50000 418.400000
6006 15496 10570 1 109.50000 418.400000
9919 15496 10569 1 109.50000 418.400000
9919 15496 10570 1 109.50000 418.400000
10569 15496 10570 1 109.50000 418.400000
3924 15497 7261 1 109.50000 418.400000
3924 15497 9703 1 109.50000 418.400000
3924 15497 10571 1 109.50000 418.400000
7261 15497 9703 1 109.50000 418.400000
7261 15497 10571 1 109.50000 418.400000
9703 15497 10571 1 109.50000 418.400000
5174 15498 8482 1 109.50000 418.400000
5174 15498 9031 1 109.50000 418.400000
5174 15498 10558 1 109.50000 418.400000
8482 15498 9031 1 109.50000 418.400000
8482 15498 10558 1 109.50000 418.400000
9031 15498 10558 1 109.50000 418.400000
534 15499 4768 1 109.50000 418.400000
534 15499 6171 1 109.50000 418.400000
534 15499 10009 1 109.50000 418.400000
4768 15499 6171 1 109.50000 418.400000
4768 15499 10009 1 109.50000 418.400000
6171 15499 10009 1 109.50000 418.400000
2169 15500 6712 1 109.50000 418.400000
2169 15500 8060 1 109.50000 418.400000
2169 15500 10573 1 109.50000 418.400000
6712 15500 8060 1 109.50000 418.400000
6712 15500 10573 1 109.50000 418.400000
8060 15500 10573 1 109.50000 418.400000
4666 15501 9753 1 109.50000 418.400000
4666 15501 10506 1 109.50000 418.400000
4666 15501 10574 1 109.50000 418.400000
9753 15501 10506 1 109.50000 418.400000
9753 15501 10574 1 109.50000 418.400000
10506 15501 10574 1 109.50000 418.400000
9303 15502 10575 1 109.50000 418.400000
9303 15502 10576 1 109.50000 418.400000
9303 15502 10577 1 109.50000 418.400000
10575 15502 10576 1 109.50000 418.400000
10575 15502 10577 1 109.50000 418.400000
10576 15502 10577 1 109.50000 418.400000
1358 15503 2035 1 109.50000 418.400000
1358 15503 3304 1 109.50000 418.400000
1358 15503 5865 1 109.50000 418.400000
2035 15503 3304 1 109.50000 418.400000
2035 15503 5865 1 109.50000 418.400000
3304 15503 5865 1 109.50000 418.400000
1350 15504 1352 1 109.50000 418.400000
1350 15504 9334 1 109.50000 418.400000
1350 15504 10578 1 109.50000 418.400000
1352 15504 9334 1 109.50000 418.400000
1352 15504 10578 1 109.50000 418.400000
9334 15504 10578 1 109.50000 418.400000
498 15505 4909 1 109.50000 418.400000
498 15505 8118 1 109.50000 418.400000
498 15505 9495 1 109.50000 418.400000
4909 15505 8118 1 109.50000 418.400000
4909 15505 9495 1 109.50000 418.400000
8118 15505 9495 1 109.50000 418.400000
1860 15506 8059 1 109.50000 418.400000
1860 15506 10579 1 109.50000 418.400000
1860 15506 10580 1 109.50000 418.400000
8059 15506 10579 1 109.50000 418.400000
8059 15506 10580 1 109.50000 418.400000
10579 15506 10580 1 109.50000 418.400000
749 15507 7519 1 109.50000 418.400000
749 15507 9308 1 109.50000 418.400000
749 15507 10173 1 109.50000 418.400000
7519 15507 9308 1 109.50000 418.400000
7519 15507 10173 1 109.50000 418.400000
9308 15507 10173 1 109.50000 418.400000
827 15508 3336 1 109.50000 418.400000
827 15508 10314 1 109.50000 418.400000
827 15508 10583 1 109.50000 418.400000
3336 15508 10314 1 109.50000 418.400000
3336 15508 10583 1 109.50000 418.400000
10314 15508 10583 1 109.50000 418.400000
1513 15509 10262 1 109.50000 418.400000
1513 15509 10584 1 109.50000 418.400000
1513 15509 10585 1 109.50000 418.400000
10262 15509 10584 1 109.50000 418.400000
10262 15509 10585 1 109.50000 418.400000
10584 15509 10585 1 109.50000 418.400000
8249 15510 9072 1 109.50000 418.400000
8249 15510 10316 1 109.50000 418.400000
8249 15510 10586 1 109.50000 418.400000
9072 15510 10316 1 109.50000 418.400000
9072 15510 10586 1 109.50000 418.400000
10316 15510 10586 1 109.50000 418.400000
1040 15511 7285 1 109.50000 418.400000
1040 15511 10587 1 109.50000 418.400000
1040 15511 11353 1 109.50000 418.400000
7285 15511 10587 1 109.50000 418.400000
7285 15511 11353 1 109.50000 418.400000
10587 15511 11353 1 109.50000 418.400000
4110 15512 4812 1 109.50000 418.400000
4110 15512 9873 1 109.50000 418.400000
4110 15512 10588 1 109.50000 418.400000
4812 15512 9873 1 109.50000 418.400000
4812 15512 10588 1 109.50000 418.400000
9873 15512 10588 1 109.50000 418.400000
3526 15513 4610 1 109.50000 418.400000
3526 15513 6491 1 109.50000 418.400000
3526 15513 9551 1 109.50000 418.400000
4610 15513 6491 1 109.50000 418.400000
4610 15513 9551 1 109.50000 418.400000
6491 15513 9551 1 109.50000 418.400000
884 15514 5647 1 109.50000 418.400000
884 15514 8128 1 109.50000 418.400000
884 15514 8348 1 109.50000 418.400000
5647 15514 8128 1 109.50000 418.400000
5647 15514 8348 1 109.50000 418.400000
8128 15514 8348 1 109.50000 418.400000
636 15515 4170 1 109.50000 418.400000
636 15515 8775 1 109.50000 418.400000
636 15515 10589 1 109.50000 418.400000
4170 15515 8775 1 109.50000 418.400000
4170 15515 10589 1 109.50000 418.400000
8775 15515 10589 1 109.50000 418.400000
2568 15516 4033 1 109.50000 418.400000
2568 15516 7493 1 109.50000 418.400000
2568 15516 11393 1 109.50000 418.400000
4033 15516 7493 1 109.50000 418.400000
4033 15516 11393 1 109.50000 418.400000
7493 15516 11393 1 109.50000 418.400000
794 15517 7801 1 109.50000 418.400000
794 15517 8113 1 109.50000 418.400000
794 15517 10590 1 109.50000 418.400000
7801 15517 8113 1 109.50000 418.400000
7801 15517 10590 1 109.50000 418.400000
8113 15517 10590 1 109.50000 418.400000
1184 15518 3868 1 109.50000 418.400000
1184 15518 4616 1 109.50000 418.400000
1184 15518 8197 1 109.50000 418.400000
3868 15518 4616 1 109.50000 418.400000
3868 15518 8197 1 109.50000 418.400000
4616 15518 8197 1 109.50000 418.400000
5991 15519 10515 1 109.50000 418.400000
5991 15519 10591 1 109.50000 418.400000
5991 15519 11141 1 109.50000 418.400000
10515 15519 10591 1 109.50000 418.400000
10515 15519 11141 1 109.50000 418.400000
10591 15519 11141 1 109.50000 418.400000
4348 15520 6540 1 109.50000 418.400000
4348 15520 8165 1 109.50000 418.400000
4348 15520 10594 1 109.50000 418.400000
6540 15520 8165 1 109.50000 418.400000
6540 15520 10594 1 109.50000 418.400000
8165 15520 10594 1 109.50000 418.400000
1140 15521 5803 1 109.50000 418.400000
1140 15521 9840 1 109.50000 418.400000
1140 15521 10595 1 109.50000 418.400000
5803 15521 9840 1 109.50000 418.400000
5803 15521 10595 1 109.50000 418.400000
9840 15521 10595 1 109.50000 418.400000
8329 15522 9014 1 109.50000 418.400000
8329 15522 10530 1 109.50000 418.400000
8329 15522 10596 1 109.50000 418.400000
9014 15522 10530 1 109.50000 418.400000
9014 15522 10596 1 109.50000 418.400000
10530 15522 10596 1 109.50000 418.400000
3881 15523 4476 1 109.50000 418.400000
3881 15523 10508 1 109.50000 418.400000
3881 15523 10597 1 109.50000 418.400000
4476 15523 10508 1 109.50000 418.400000
4476 15523 10597 1 109.50000 418.400000
10508 15523 10597 1 109.50000 418.400000
5108 15524 7532 1 109.50000 418.400000
5108 15524 10478 1 109.50000 418.400000
5108 15524 10598 1 109.50000 418.400000
7532 15524 10478 1 109.50000 418.400000
7532 15524 10598 1 109.50000 418.400000
10478 15524 10598 1 109.50000 418.400000
1408 15525 3486 1 109.50000 418.400000
1408 15525 7430 1 109.50000 418.400000
1408 15525 10599 1 109.50000 418.400000
3486 15525 7430 1 109.50000 418.400000
3486 15525 10599 1 109.50000 418.400000
7430 15525 10599 1 109.50000 418.400000
2478 15526 4142 1 109.50000 418.400000
2478 15526 10600 1 109.50000 418.400000
2478 15526 10601 1 109.50000 418.400000
4142 15526 10600 1 109.50000 418.400000
4142 15526 10601 1 109.50000 418.400000
10600 15526 10601 1 109.50000 418.400000
3183 15527 6937 1 109.50000 418.400000
3183 15527 8350 1 109.50000 418.400000
3183 15527 10566 1 109.50000 418.400000
6937 15527 8350 1 109.50000 418.400000
6937 15527 10566 1 109.50000 418.400000
8350 15527 10566 1 109.50000 418.400000
1748 15528 6738 1 109.50000 418.400000
1748 15528 6981 1 109.50000 418.400000
1748 15528 9900 1 109.50000 418.400000
6738 15528 6981 1 109.50000 418.400000
6738 15528 9900 1 109.50000 418.400000
6981 15528 9900 1 109.50000 418.400000
5461 15529 8471 1 109.50000 418.400000
5461 15529 9234 1 109.50000 418.400000
5461 15529 10602 1 109.50000 418.400000
8471 15529 9234 1 109.50000 418.400000
8471 15529 10602 1 109.50000 418.400000
9234 15529 10602 1 109.50000 418.400000
6938 15530 10068 1 109.50000 418.400000
6938 15530 10603 1 109.50000 418.400000
6938 15530 10604 1 109.50000 418.400000
10068 15530 10603 1 109.50000 418.400000
10068 15530 10604 1 109.50000 418.400000
10603 15530 10604 1 109.50000 418.400000
6763 15531 6773 1 109.50000 418.400000
6763 15531 9970 1 109.50000 418.400000
6763 15531 10605 1 109.50000 418.400000
6773 15531 9970 1 109.50000 418.400000
6773 15531 10605 1 109.50000 418.400000
9970 15531 10605 1 109.50000 418.400000
4524 15532 8510 1 109.50000 418.400000
4524 15532 8959 1 109.50000 418.400000
4524 15532 10606 1 109.50000 418.400000
8510 15532 8959 1 109.50000 418.400000
8510 15532 10606 1 109.50000 418.400000
8959 15532 10606 1 109.50000 418.400000
4351 15533 4669 1 109.50000 418.400000
4351 15533 7078 1 109.50000 418.400000
4351 15533 7337 1 109.50000 418.400000
4669 15533 7078 1 109.50000 418.400000
4669 15533 7337 1 109.50000 418.400000
7078 15533 7337 1 109.50000 418.400000
326 15534 2174 1 109.50000 418.400000
326 15534 8260 1 109.50000 418.400000
326 15534 9627 1 109.50000 418.400000
2174 15534 8260 1 109.50000 418.400000
2174 15534 9627 1 109.50000 418.400000
8260 15534 9627 1 109.50000 418.400000
3970 15535 7312 1 109.50000 418.400000
3970 15535 10608 1 109.50000 418.400000
3970 15535 10609 1 109.50000 418.400000
7312 15535 10608 1 109.50000 418.400000
7312 15535 10609 1 109.50000 418.400000
10608 15535 10609 1 109.50000 418.400000
8354 15536 10591 1 109.50000 418.400000
8354 15536 10610 1 109.50000 418.400000
8354 15536 10611 1 109.50000 418.400000
10591 15536 10610 1 109.50000 418.400000
10591 15536 10611 1 109.50000 418.400000
10610 15536 10611 1 109.50000 418.400000
6134 15537 7281 1 109.50000 418.400000
6134 15537 7282 1 109.50000 418.400000
6134 15537 8964 1 109.50000 418.400000
7281 15537 7282 1 109.50000 418.400000
7281 15537 8964 1 109.50000 418.400000
7282 15537 8964 1 109.50000 418.400000
6596 15538 10585 1 109.50000 418.400000
6596 15538 10612 1 109.50000 418.400000
6596 15538 10613 1 109.50000 418.400000
10585 15538 10612 1 109.50000 418.400000
10585 15538 10613 1 109.50000 418.400000
10612 15538 10613 1 109.50000 418.400000
575 15539 6299 1 109.50000 418.400000
575 15539 8859 1 109.50000 418.400000
575 15539 10251 1 109.50000 418.400000
6299 15539 8859 1 109.50000 418.400000
6299 15539 10251 1 109.50000 418.400000
8859 15539 10251 1 109.50000 418.400000
1598 15540 7689 1 109.50000 418.400000
1598 15540 10257 1 109.50000 418.400000
1598 15540 10614 1 109.50000 418.400000
7689 15540 10257 1 109.50000 418.400000
7689 15540 10614 1 109.50000 418.400000
10257 15540 10614 1 109.50000 418.400000
4043 15541 9909 1 109.50000 418.400000
4043 15541 10382 1 109.50000 418.400000
4043 15541 10519 1 109.50000 418.400000
9909 15541 10382 1 109.50000 418.400000
9909 15541 10519 1 109.50000 418.400000
10382 15541 10519 1 109.50000 418.400000
586 15542 3442 1 109.50000 418.400000
586 15542 7274 1 109.50000 418.400000
586 15542 10615 1 109.50000 418.400000
3442 15542 7274 1 109.50000 418.400000
3442 15542 10615 1 109.50000 418.400000
7274 15542 10615 1 109.50000 418.400000
4122 15543 6022 1 109.50000 418.400000
4122 15543 8533 1 109.50000 418.400000
4122 15543 8951 1 109.50000 418.400000
6022 15543 8533 1 109.50000 418.400000
6022 15543 8951 1 109.50000 418.400000
8533 15543 8951 1 109.50000 418.400000
627 15544 3898 1 109.50000 418.400000
627 15544 10323 1 109.50000 418.400000
627 15544 10616 1 109.50000 418.400000
3898 15544 10323 1 109.50000 418.400000
3898 15544 10616 1 109.50000 418.400000
10323 15544 10616 1 109.50000 418.400000
910 15545 4273 1 109.50000 418.400000
910 15545 10617 1 109.50000 418.400000
910 15545 10618 1 109.50000 418.400000
4273 15545 10617 1 109.50000 418.400000
4273 15545 10618 1 109.50000 418.400000
10617 15545 10618 1 109.50000 418.400000
1537 15546 3582 1 109.50000 418.400000
1537 15546 10430 1 109.50000 418.400000
1537 15546 10619 1 109.50000 418.400000
3582 15546 10430 1 109.50000 418.400000
3582 15546 10619 1 109.50000 418.400000
10430 15546 10619 1 109.50000 418.400000
92 15547 814 1 109.50000 418.400000
92 15547 6854 1 109.50000 418.400000
92 15547 11335 1 109.50000 418.400000
814 15547 6854 1 109.50000 418.400000
814 15547 11335 1 109.50000 418.400000
6854 15547 11335 1 109.50000 418.400000
7172 15548 7521 1 109.50000 418.400000
7172 15548 7522 1 109.50000 418.400000
7172 15548 8953 1 109.50000 418.400000
7521 15548 7522 1 109.50000 418.400000
7521 15548 8953 1 109.50000 418.400000
7522 15548 8953 1 109.50000 418.400000
2282 15549 6762 1 109.50000 418.400000
2282 15549 6763 1 109.50000 418.400000
2282 15549 10526 1 109.50000 418.400000
6762 15549 6763 1 109.50000 418.400000
6762 15549 10526 1 109.50000 418.400000
6763 15549 10526 1 109.50000 418.400000
4282 15550 9442 1 109.50000 418.400000
4282 15550 10620 1 109.50000 418.400000
4282 15550 10621 1 109.50000 418.400000
9442 15550 10620 1 109.50000 418.400000
9442 15550 10621 1 109.50000 418.400000
10620 15550 10621 1 109.50000 418.400000
2837 15551 6315 1 109.50000 418.400000
2837 15551 10008 1 109.50000 418.400000
2837 15551 10622 1 109.50000 418.400000
6315 15551 10008 1 109.50000 418.400000
6315 15551 10622 1 109.50000 418.400000
10008 15551 10622 1 109.50000 418.400000
10188 15552 10623 1 109.50000 418.400000
10188 15552 10624 1 109.50000 418.400000
10188 15552 10647 1 109.50000 418.400000
10623 15552 10624 1 109.50000 418.400000
10623 15552 10647 1 109.50000 418.400000
10624 15552 10647 1 109.50000 418.400000
8082 15553 8749 1 109.50000 418.400000
8082 15553 10147 1 109.50000 418.400000
8082 15553 10627 1 109.50000 418.400000
8749 15553 10147 1 109.50000 418.400000
8749 15553 10627 1 109.50000 418.400000
10147 15553 10627 1 109.50000 418.400000
5231 15554 5233 1 109.50000 418.400000
5231 15554 10629 1 109.50000 418.400000
5231 15554 10630 1 109.50000 418.400000
5233 15554 10629 1 109.50000 418.400000
5233 15554 10630 1 109.50000 418.400000
10629 15554 10630 1 109.50000 418.400000
336 15555 337 1 109.50000 418.400000
336 15555 339 1 109.50000 418.400000
336 15555 10631 1 109.50000 418.400000
337 15555 339 1 109.50000 418.400000
337 15555 10631 1 109.50000 418.400000
339 15555 10631 1 109.50000 418.400000
2699 15556 10076 1 109.50000 418.400000
2699 15556 10139 1 109.50000 418.400000
2699 15556 11333 1 109.50000 418.400000
10076 15556 10139 1 109.50000 418.400000
10076 15556 11333 1 109.50000 418.400000
10139 15556 11333 1 109.50000 418.400000
3277 15557 4188 1 109.50000 418.400000
3277 15557 7117 1 109.50000 418.400000
3277 15557 9737 1 109.50000 418.400000
4188 15557 7117 1 109.50000 418.400000
4188 15557 9737 1 109.50000 418.400000
7117 15557 9737 1 109.50000 418.400000
602 15558 716 1 109.50000 418.400000
602 15558 717 1 109.50000 418.400000
602 15558 9198 1 109.50000 418.400000
716 15558 717 1 109.50000 418.400000
716 15558 9198 1 109.50000 418.400000
717 15558 9198 1 109.50000 418.400000
2418 15559 6080 1 109.50000 418.400000
2418 15559 10432 1 109.50000 418.400000
2418 15559 10632 1 109.50000 418.400000
6080 15559 10432 1 109.50000 418.400000
6080 15559 10632 1 109.50000 418.400000
10432 15559 10632 1 109.50000 418.400000
387 15560 6430 1 109.50000 418.400000
387 15560 10142 1 109.50000 418.400000
387 15560 10633 1 109.50000 418.400000
6430 15560 10142 1 109.50000 418.400000
6430 15560 10633 1 109.50000 418.400000
10142 15560 10633 1 109.50000 418.400000
3229 15561 8247 1 109.50000 418.400000
3229 15561 8301 1 109.50000 418.400000
3229 15561 10121 1 109.50000 418.400000
8247 15561 8301 1 109.50000 418.400000
8247 15561 10121 1 109.50000 418.400000
8301 15561 10121 1 109.50000 418.400000
1512 15562 10342 1 109.50000 418.400000
1512 15562 10627 1 109.50000 418.400000
1512 15562 10634 1 109.50000 418.400000
10342 15562 10627 1 109.50000 418.400000
10342 15562 10634 1 109.50000 418.400000
10627 15562 10634 1 109.50000 418.400000
1061 15563 2228 1 109.50000 418.400000
1061 15563 3426 1 109.50000 418.400000
1061 15563 7005 1 109.50000 418.400000
2228 15563 3426 1 109.50000 418.400000
2228 15563 7005 1 109.50000 418.400000
3426 15563 7005 1 109.50000 418.400000
4566 15564 10131 1 109.50000 418.400000
4566 15564 10635 1 109.50000 418.400000
4566 15564 10636 1 109.50000 418.400000
10131 15564 10635 1 109.50000 418.400000
10131 15564 10636 1 109.50000 418.400000
10635 15564 10636 1 109.50000 418.400000
6153 15565 7610 1 109.50000 418.400000
6153 15565 8341 1 109.50000 418.400000
6153 15565 10485 1 109.50000 418.400000
7610 15565 8341 1 109.50000 418.400000
7610 15565 10485 1 109.50000 418.400000
8341 15565 10485 1 109.50000 418.400000
1332 15566 7959 1 109.50000 418.400000
1332 15566 9628 1 109.50000 418.400000
1332 15566 10637 1 109.50000 418.400000
7959 15566 9628 1 109.50000 418.400000
7959 15566 10637 1 109.50000 418.400000
9628 15566 10637 1 109.50000 418.400000
4582 15567 4619 1 109.50000 418.400000
4582 15567 6934 1 109.50000 418.400000
4582 15567 10638 1 109.50000 418.400000
4619 15567 6934 1 109.50000 418.400000
4619 15567 10638 1 109.50000 418.400000
6934 15567 10638 1 109.50000 418.400000
10639 15568 10640 1 109.50000 418.400000
10639 15568 10641 1 109.50000 418.400000
10639 15568 10642 1 109.50000 418.400000
10640 15568 10641 1 109.50000 418.400000
10640 15568 10642 1 109.50000 418.400000
10641 15568 10642 1 109.50000 418.400000
2352 15569 6169 1 109.50000 418.400000
2352 15569 9994 1 109.50000 418.400000
2352 15569 10643 1 109.50000 418.400000
6169 15569 9994 1 109.50000 418.400000
6169 15569 10643 1 109.50000 418.400000
9994 15569 10643 1 109.50000 418.400000
1487 15570 8677 1 109.50000 418.400000
1487 15570 9791 1 109.50000 418.400000
1487 15570 10644 1 109.50000 418.400000
8677 15570 9791 1 109.50000 418.400000
8677 15570 10644 1 109.50000 418.400000
9791 15570 10644 1 109.50000 418.400000
4749 15571 8505 1 109.50000 418.400000
4749 15571 8935 1 109.50000 418.400000
4749 15571 10361 1 109.50000 418.400000
8505 15571 8935 1 109.50000 418.400000
8505 15571 10361 1 109.50000 418.400000
8935 15571 10361 1 109.50000 418.400000
3552 15572 4699 1 109.50000 418.400000
3552 15572 6692 1 109.50000 418.400000
3552 15572 10552 1 109.50000 418.400000
4699 15572 6692 1 109.50000 418.400000
4699 15572 10552 1 109.50000 418.400000
6692 15572 10552 1 109.50000 418.400000
4246 15573 4486 1 109.50000 418.400000
4246 15573 10645 1 109.50000 418.400000
4246 15573 10646 1 109.50000 418.400000
4486 15573 10645 1 109.50000 418.400000
4486 15573 10646 1 109.50000 418.400000
10645 15573 10646 1 109.50000 418.400000
6830 15574 8292 1 109.50000 418.400000
6830 15574 9759 1 109.50000 418.400000
6830 15574 10647 1 109.50000 418.400000
8292 15574 9759 1 109.50000 418.400000
8292 15574 10647 1 109.50000 418.400000
9759 15574 10647 1 109.50000 418.400000
3726 15575 6710 1 109.50000 418.400000
3726 15575 9077 1 109.50000 418.400000
3726 15575 10648 1 109.50000 418.400000
6710 15575 9077 1 109.50000 418.400000
6710 15575 10648 1 109.50000 418.400000
9077 15575 10648 1 109.50000 418.400000
2588 15576 5888 1 109.50000 418.400000
2588 15576 10276 1 109.50000 418.400000
2588 15576 10649 1 109.50000 418.400000
5888 15576 10276 1 109.50000 418.400000
5888 15576 10649 1 109.50000 418.400000
10276 15576 10649 1 109.50000 418.400000
4917 15577 5769 1 109.50000 418.400000
4917 15577 7647 1 109.50000 418.400000
4917 15577 10650 1 109.50000 418.400000
5769 15577 7647 1 109.50000 418.400000
5769 15577 10650 1 109.50000 418.400000
7647 15577 10650 1 109.50000 418.400000
5539 15578 5724 1 109.50000 418.400000
5539 15578 10651 1 109.50000 418.400000
5539 15578 10652 1 109.50000 418.400000
5724 15578 10651 1 109.50000 418.400000
5724 15578 10652 1 109.50000 418.400000
10651 15578 10652 1 109.50000 418.400000
218 15579 3678 1 109.50000 418.400000
218 15579 7065 1 109.50000 418.400000
218 15579 10653 1 109.50000 418.400000
3678 15579 7065 1 109.50000 418.400000
3678 15579 10653 1 109.50000 418.400000
7065 15579 10653 1 109.50000 418.400000
4897 15580 9483 1 109.50000 418.400000
4897 15580 10604 1 109.50000 418.400000
4897 15580 10654 1 109.50000 418.400000
9483 15580 10604 1 109.50000 418.400000
9483 15580 10654 1 109.50000 418.400000
10604 15580 10654 1 109.50000 418.400000
2765 15581 10655 1 109.50000 418.400000
2765 15581 10656 1 109.50000 418.400000
2765 15581 10657 1 109.50000 418.400000
10655 15581 10656 1 109.50000 418.400000
10655 15581 10657 1 109.50000 418.400000
10656 15581 10657 1 109.50000 418.400000
5128 15582 7171 1 109.50000 418.400000
5128 15582 10538 1 109.50000 418.400000
5128 15582 10658 1 109.50000 418.400000
7171 15582 10538 1 109.50000 418.400000
7171 15582 10658 1 109.50000 418.400000
10538 15582 10658 1 109.50000 418.400000
97 15583 932 1 109.50000 418.400000
97 15583 5185 1 109.50000 418.400000
97 15583 8705 1 109.50000 418.400000
932 15583 5185 1 109.50000 418.400000
932 15583 8705 1 109.50000 418.400000
5185 15583 8705 1 109.50000 418.400000
5497 15584 9305 1 109.50000 418.400000
5497 15584 10035 1 109.50000 418.400000
5497 15584 10540 1 109.50000 418.400000
9305 15584 10035 1 109.50000 418.400000
9305 15584 10540 1 109.50000 418.400000
10035 15584 10540 1 109.50000 418.400000
2812 15585 7344 1 109.50000 418.400000
2812 15585 8592 1 109.50000 418.400000
2812 15585 10659 1 109.50000 418.400000
7344 15585 8592 1 109.50000 418.400000
7344 15585 10659 1 109.50000 418.400000
8592 15585 10659 1 109.50000 418.400000
907 15586 10014 1 109.50000 418.400000
907 15586 10660 1 109.50000 418.400000
907 15586 10661 1 109.50000 418.400000
10014 15586 10660 1 109.50000 418.400000
10014 15586 10661 1 109.50000 418.400000
10660 15586 10661 1 109.50000 418.400000
1029 15587 7636 1 109.50000 418.400000
1029 15587 10586 1 109.50000 418.400000
1029 15587 10662 1 109.50000 418.400000
7636 15587 10586 1 109.50000 418.400000
7636 15587 10662 1 109.50000 418.400000
10586 15587 10662 1 109.50000 418.400000
9028 15588 9867 1 109.50000 418.400000
9028 15588 10477 1 109.50000 418.400000
9028 15588 10663 1 109.50000 418.400000
9867 15588 10477 1 109.50000 418.400000
9867 15588 10663 1 109.50000 418.400000
10477 15588 10663 1 109.50000 418.400000
7630 15589 9929 1 109.50000 418.400000
7630 15589 10328 1 109.50000 418.400000
7630 15589 10664 1 109.50000 418.400000
9929 15589 10328 1 109.50000 418.400000
9929 15589 10664 1 109.50000 418.400000
10328 15589 10664 1 109.50000 418.400000
3258 15590 9883 1 109.50000 418.400000
3258 15590 10522 1 109.50000 418.400000
3258 15590 10665 1 109.50000 418.400000
9883 15590 10522 1 109.50000 418.400000
9883 15590 10665 1 109.50000 418.400000
10522 15590 10665 1 109.50000 418.400000
1130 15591 1483 1 109.50000 418.400000
1130 15591 7520 1 109.50000 418.400000
1130 15591 8072 1 109.50000 418.400000
1483 15591 7520 1 109.50000 418.400000
1483 15591 8072 1 109.50000 418.400000
7520 15591 8072 1 109.50000 418.400000
7926 15592 9773 1 109.50000 418.400000
7926 15592 10081 1 109.50000 418.400000
7926 15592 10666 1 109.50000 418.400000
9773 15592 10081 1 109.50000 418.400000
9773 15592 10666 1 109.50000 418.400000
10081 15592 10666 1 109.50000 418.400000
7713 15593 8019 1 109.50000 418.400000
7713 15593 9677 1 109.50000 418.400000
7713 15593 10648 1 109.50000 418.400000
8019 15593 9677 1 109.50000 418.400000
8019 15593 10648 1 109.50000 418.400000
9677 15593 10648 1 109.50000 418.400000
8641 15594 9275 1 109.50000 418.400000
8641 15594 9955 1 109.50000 418.400000
8641 15594 10667 1 109.50000 418.400000
9275 15594 9955 1 109.50000 418.400000
9275 15594 10667 1 109.50000 418.400000
9955 15594 10667 1 109.50000 418.400000
2130 15595 6375 1 109.50000 418.400000
2130 15595 6849 1 109.50000 418.400000
2130 15595 9810 1 109.50000 418.400000
6375 15595 6849 1 109.50000 418.400000
6375 15595 9810 1 109.50000 418.400000
6849 15595 9810 1 109.50000 418.400000
5060 15596 6049 1 109.50000 418.400000
5060 15596 7966 1 109.50000 418.400000
5060 15596 10668 1 109.50000 418.400000
6049 15596 7966 1 109.50000 418.400000
6049 15596 10668 1 109.50000 418.400000
7966 15596 10668 1 109.50000 418.400000
945 15597 5085 1 109.50000 418.400000
945 15597 5493 1 109.50000 418.400000
945 15597 8069 1 109.50000 418.400000
5085 15597 5493 1 109.50000 418.400000
5085 15597 8069 1 109.50000 418.400000
5493 15597 8069 1 109.50000 418.400000
9212 15598 10669 1 109.50000 418.400000
9212 15598 10670 1 109.50000 418.400000
9212 15598 10671 1 109.50000 418.400000
10669 15598 10670 1 109.50000 418.400000
10669 15598 10671 1 109.50000 418.400000
10670 15598 10671 1 109.50000 418.400000
7006 15599 9162 1 109.50000 418.400000
7006 15599 10062 1 109.50000 418.400000
7006 15599 10672 1 109.50000 418.400000
9162 15599 10062 1 109.50000 418.400000
9162 15599 10672 1 109.50000 418.400000
10062 15599 10672 1 109.50000 418.400000
1126 15600 5966 1 109.50000 418.400000
1126 15600 6603 1 109.50000 418.400000
1126 15600 7749 1 109.50000 418.400000
5966 15600 6603 1 109.50000 418.400000
5966 15600 7749 1 109.50000 418.400000
6603 15600 7749 1 109.50000 418.400000
34 15601 3780 1 109.50000 418.400000
34 15601 7434 1 109.50000 418.400000
34 15601 8508 1 109.50000 418.400000
3780 15601 7434 1 109.50000 418.400000
3780 15601 8508 1 109.50000 418.400000
7434 15601 8508 1 109.50000 418.400000
7377 15602 9590 1 109.50000 418.400000
7377 15602 9861 1 109.50000 418.400000
7377 15602 10336 1 109.50000 418.400000
9590 15602 9861 1 109.50000 418.400000
9590 15602 10336 1 109.50000 418.400000
9861 15602 10336 1 109.50000 418.400000
8836 15603 8892 1 109.50000 418.400000
8836 15603 9043 1 109.50000 418.400000
8836 15603 9738 1 109.50000 418.400000
8892 15603 9043 1 109.50000 418.400000
8892 15603 9738 1 109.50000 418.400000
9043 15603 9738 1 109.50000 418.400000
5612 15604 6818 1 109.50000 418.400000
5612 15604 7210 1 109.50000 418.400000
5612 15604 10673 1 109.50000 418.400000
6818 15604 7210 1 109.50000 418.400000
6818 15604 10673 1 109.50000 418.400000
7210 15604 10673 1 109.50000 418.400000
4608 15605 6361 1 109.50000 418.400000
4608 15605 10002 1 109.50000 418.400000
4608 15605 10674 1 109.50000 418.400000
6361 15605 10002 1 109.50000 418.400000
6361 15605 10674 1 109.50000 418.400000
10002 15605 10674 1 109.50000 418.400000
6454 15606 6667 1 109.50000 418.400000
6454 15606 9686 1 109.50000 418.400000
6454 15606 10675 1 109.50000 418.400000
6667 15606 9686 1 109.50000 418.400000
6667 15606 10675 1 109.50000 418.400000
9686 15606 10675 1 109.50000 418.400000
2795 15607 2797 1 109.50000 418.400000
2795 15607 4598 1 109.50000 418.400000
2795 15607 10476 1 109.50000 418.400000
2797 15607 4598 1 109.50000 418.400000
2797 15607 10476 1 109.50000 418.400000
4598 15607 10476 1 109.50000 418.400000
5426 15608 7429 1 109.50000 418.400000
5426 15608 10417 1 109.50000 418.400000
5426 15608 10677 1 109.50000 418.400000
7429 15608 10417 1 109.50000 418.400000
7429 15608 10677 1 109.50000 418.400000
10417 15608 10677 1 109.50000 418.400000
1591 15609 8771 1 109.50000 418.400000
1591 15609 9695 1 109.50000 418.400000
1591 15609 10668 1 109.50000 418.400000
8771 15609 9695 1 109.50000 418.400000
8771 15609 10668 1 109.50000 418.400000
9695 15609 10668 1 109.50000 418.400000
5641 15610 5809 1 109.50000 418.400000
5641 15610 6009 1 109.50000 418.400000
5641 15610 6478 1 109.50000 418.400000
5809 15610 6009 1 109.50000 418.400000
5809 15610 6478 1 109.50000 418.400000
6009 15610 6478 1 109.50000 418.400000
5335 15611 5337 1 109.50000 418.400000
5335 15611 5338 1 109.50000 418.400000
5335 15611 8456 1 109.50000 418.400000
5337 15611 5338 1 109.50000 418.400000
5337 15611 8456 1 109.50000 418.400000
5338 15611 8456 1 109.50000 418.400000
3685 15612 7577 1 109.50000 418.400000
3685 15612 10155 1 109.50000 418.400000
3685 15612 10682 1 109.50000 418.400000
7577 15612 10155 1 109.50000 418.400000
7577 15612 10682 1 109.50000 418.400000
10155 15612 10682 1 109.50000 418.400000
299 15613 8917 1 109.50000 418.400000
299 15613 10019 1 109.50000 418.400000
299 15613 10683 1 109.50000 418.400000
8917 15613 10019 1 109.50000 418.400000
8917 15613 10683 1 109.50000 418.400000
10019 15613 10683 1 109.50000 418.400000
6442 15614 7947 1 109.50000 418.400000
6442 15614 9482 1 109.50000 418.400000
6442 15614 10684 1 109.50000 418.400000
7947 15614 9482 1 109.50000 418.400000
7947 15614 10684 1 109.50000 418.400000
9482 15614 10684 1 109.50000 418.400000
479 15615 1904 1 109.50000 418.400000
479 15615 9878 1 109.50000 418.400000
479 15615 9926 1 109.50000 418.400000
1904 15615 9878 1 109.50000 418.400000
1904 15615 9926 1 109.50000 418.400000
9878 15615 9926 1 109.50000 418.400000
373 15616 5077 1 109.50000 418.400000
373 15616 10029 1 109.50000 418.400000
373 15616 10687 1 109.50000 418.400000
5077 15616 10029 1 109.50000 418.400000
5077 15616 10687 1 109.50000 418.400000
10029 15616 10687 1 109.50000 418.400000
3894 15617 10688 1 109.50000 418.400000
3894 15617 10689 1 109.50000 418.400000
3894 15617 10690 1 109.50000 418.400000
10688 15617 10689 1 109.50000 418.400000
10688 15617 10690 1 109.50000 418.400000
10689 15617 10690 1 109.50000 418.400000
8704 15618 9252 1 109.50000 418.400000
8704 15618 9446 1 109.50000 418.400000
8704 15618 10691 1 109.50000 418.400000
9252 15618 9446 1 109.50000 418.400000
9252 15618 10691 1 109.50000 418.400000
9446 15618 10691 1 109.50000 418.400000
1998 15619 9413 1 109.50000 418.400000
1998 15619 10692 1 109.50000 418.400000
1998 15619 10693 1 109.50000 418.400000
9413 15619 10692 1 109.50000 418.400000
9413 15619 10693 1 109.50000 418.400000
10692 15619 10693 1 109.50000 418.400000
1530 15620 3989 1 109.50000 418.400000
1530 15620 10123 1 109.50000 418.400000
1530 15620 10186 1 109.50000 418.400000
3989 15620 10123 1 109.50000 418.400000
3989 15620 10186 1 109.50000 418.400000
10123 15620 10186 1 109.50000 418.400000
4009 15621 5954 1 109.50000 418.400000
4009 15621 6897 1 109.50000 418.400000
4009 15621 10695 1 109.50000 418.400000
5954 15621 6897 1 109.50000 418.400000
5954 15621 10695 1 109.50000 418.400000
6897 15621 10695 1 109.50000 418.400000
1821 15622 8644 1 109.50000 418.400000
1821 15622 10384 1 109.50000 418.400000
1821 15622 10696 1 109.50000 418.400000
8644 15622 10384 1 109.50000 418.400000
8644 15622 10696 1 109.50000 418.400000
10384 15622 10696 1 109.50000 418.400000
4130 15623 5075 1 109.50000 418.400000
4130 15623 8245 1 109.50000 418.400000
4130 15623 10431 1 109.50000 418.400000
5075 15623 8245 1 109.50000 418.400000
5075 15623 10431 1 109.50000 418.400000
8245 15623 10431 1 109.50000 418.400000
4180 15624 4567 1 109.50000 418.400000
4180 15624 5341 1 109.50000 418.400000
4180 15624 7693 1 109.50000 418.400000
4567 15624 5341 1 109.50000 418.400000
4567 15624 7693 1 109.50000 418.400000
5341 15624 7693 1 109.50000 418.400000
4058 15625 4830 1 109.50000 418.400000
4058 15625 5883 1 109.50000 418.400000
4058 15625 8393 1 109.50000 418.400000
4830 15625 5883 1 109.50000 418.400000
4830 15625 8393 1 109.50000 418.400000
5883 15625 8393 1 109.50000 418.400000
961 15626 5685 1 109.50000 418.400000
961 15626 9567 1 109.50000 418.400000
961 15626 10697 1 109.50000 418.400000
5685 15626 9567 1 109.50000 418.400000
5685 15626 10697 1 109.50000 418.400000
9567 15626 10697 1 109.50000 418.400000
461 15627 6007 1 109.50000 418.400000
461 15627 10175 1 109.50000 418.400000
461 15627 10179 1 109.50000 418.400000
6007 15627 10175 1 109.50000 418.400000
6007 15627 10179 1 109.50000 418.400000
10175 15627 10179 1 109.50000 418.400000
3978 15628 6273 1 109.50000 418.400000
3978 15628 9414 1 109.50000 418.400000
3978 15628 9779 1 109.50000 418.400000
6273 15628 9414 1 109.50000 418.400000
6273 15628 9779 1 109.50000 418.400000
9414 15628 9779 1 109.50000 418.400000
5048 15629 7967 1 109.50000 418.400000
5048 15629 10699 1 109.50000 418.400000
5048 15629 10700 1 109.50000 418.400000
7967 15629 10699 1 109.50000 418.400000
7967 15629 10700 1 109.50000 418.400000
10699 15629 10700 1 109.50000 418.400000
2777 15630 5662 1 109.50000 418.400000
2777 15630 6484 1 109.50000 418.400000
2777 15630 10511 1 109.50000 418.400000
5662 15630 6484 1 109.50000 418.400000
5662 15630 10511 1 109.50000 418.400000
6484 15630 10511 1 109.50000 418.400000
5111 15631 7538 1 109.50000 418.400000
5111 15631 7593 1 109.50000 418.400000
5111 15631 9932 1 109.50000 418.400000
7538 15631 7593 1 109.50000 418.400000
7538 15631 9932 1 109.50000 418.400000
7593 15631 9932 1 109.50000 418.400000
6067 15632 9537 1 109.50000 418.400000
6067 15632 10246 1 109.50000 418.400000
6067 15632 10702 1 109.50000 418.400000
9537 15632 10246 1 109.50000 418.400000
9537 15632 10702 1 109.50000 418.400000
10246 15632 10702 1 109.50000 418.400000
1561 15633 3744 1 109.50000 418.400000
1561 15633 6300 1 109.50000 418.400000
1561 15633 7179 1 109.50000 418.400000
3744 15633 6300 1 109.50000 418.400000
3744 15633 7179 1 109.50000 418.400000
6300 15633 7179 1 109.50000 418.400000
1337 15634 1456 1 109.50000 418.400000
1337 15634 2776 1 109.50000 418.400000
1337 15634 10369 1 109.50000 418.400000
1456 15634 2776 1 109.50000 418.400000
1456 15634 10369 1 109.50000 418.400000
2776 15634 10369 1 109.50000 418.400000
2220 15635 4124 1 109.50000 418.400000
2220 15635 4951 1 109.50000 418.400000
2220 15635 10418 1 109.50000 418.400000
4124 15635 4951 1 109.50000 418.400000
4124 15635 10418 1 109.50000 418.400000
4951 15635 10418 1 109.50000 418.400000
622 15636 2310 1 109.50000 418.400000
622 15636 7324 1 109.50000 418.400000
622 15636 8256 1 109.50000 418.400000
2310 15636 7324 1 109.50000 418.400000
2310 15636 8256 1 109.50000 418.400000
7324 15636 8256 1 109.50000 418.400000
133 15637 1425 1 109.50000 418.400000
133 15637 1835 1 109.50000 418.400000
133 15637 6806 1 109.50000 418.400000
1425 15637 1835 1 109.50000 418.400000
1425 15637 6806 1 109.50000 418.400000
1835 15637 6806 1 109.50000 418.400000
464 15638 1264 1 109.50000 418.400000
464 15638 10659 1 109.50000 418.400000
464 15638 10703 1 109.50000 418.400000
1264 15638 10659 1 109.50000 418.400000
1264 15638 10703 1 109.50000 418.400000
10659 15638 10703 1 109.50000 418.400000
1736 15639 2965 1 109.50000 418.400000
1736 15639 3899 1 109.50000 418.400000
1736 15639 11257 1 109.50000 418.400000
2965 15639 3899 1 109.50000 418.400000
2965 15639 11257 1 109.50000 418.400000
3899 15639 11257 1 109.50000 418.400000
1296 15640 3079 1 109.50000 418.400000
1296 15640 9801 1 109.50000 418.400000
1296 15640 10704 1 109.50000 418.400000
3079 15640 9801 1 109.50000 418.400000
3079 15640 10704 1 109.50000 418.400000
9801 15640 10704 1 109.50000 418.400000
877 15641 5480 1 109.50000 418.400000
877 15641 9879 1 109.50000 418.400000
877 15641 10352 1 109.50000 418.400000
5480 15641 9879 1 109.50000 418.400000
5480 15641 10352 1 109.50000 418.400000
9879 15641 10352 1 109.50000 418.400000
2866 15642 4702 1 109.50000 418.400000
2866 15642 9378 1 109.50000 418.400000
2866 15642 10706 1 109.50000 418.400000
4702 15642 9378 1 109.50000 418.400000
4702 15642 10706 1 109.50000 418.400000
9378 15642 10706 1 109.50000 418.400000
4500 15643 4921 1 109.50000 418.400000
4500 15643 10707 1 109.50000 418.400000
4500 15643 10708 1 109.50000 418.400000
4921 15643 10707 1 109.50000 418.400000
4921 15643 10708 1 109.50000 418.400000
10707 15643 10708 1 109.50000 418.400000
4062 15644 7873 1 109.50000 418.400000
4062 15644 9633 1 109.50000 418.400000
4062 15644 10709 1 109.50000 418.400000
7873 15644 9633 1 109.50000 418.400000
7873 15644 10709 1 109.50000 418.400000
9633 15644 10709 1 109.50000 418.400000
7323 15645 7325 1 109.50000 418.400000
7323 15645 8600 1 109.50000 418.400000
7323 15645 10423 1 109.50000 418.400000
7325 15645 8600 1 109.50000 418.400000
7325 15645 10423 1 109.50000 418.400000
8600 15645 10423 1 109.50000 418.400000
1867 15646 9005 1 109.50000 418.400000
1867 15646 10710 1 109.50000 418.400000
1867 15646 10711 1 109.50000 418.400000
9005 15646 10710 1 109.50000 418.400000
9005 15646 10711 1 109.50000 418.400000
10710 15646 10711 1 109.50000 418.400000
3642 15647 5090 1 109.50000 418.400000
3642 15647 7849 1 109.50000 418.400000
3642 15647 8562 1 109.50000 418.400000
5090 15647 7849 1 109.50000 418.400000
5090 15647 8562 1 109.50000 418.400000
7849 15647 8562 1 109.50000 418.400000
2486 15648 4394 1 109.50000 418.400000
2486 15648 10712 1 109.50000 418.400000
2486 15648 10713 1 109.50000 418.400000
4394 15648 10712 1 109.50000 418.400000
4394 15648 10713 1 109.50000 418.400000
10712 15648 10713 1 109.50000 418.400000
6011 15649 8466 1 109.50000 418.400000
6011 15649 9937 1 109.50000 418.400000
6011 15649 10571 1 109.50000 418.400000
8466 15649 9937 1 109.50000 418.400000
8466 15649 10571 1 109.50000 418.400000
9937 15649 10571 1 109.50000 418.400000
173 15650 5231 1 109.50000 418.400000
173 15650 10714 1 109.50000 418.400000
173 15650 10715 1 109.50000 418.400000
5231 15650 10714 1 109.50000 418.400000
5231 15650 10715 1 109.50000 418.400000
10714 15650 10715 1 109.50000 418.400000
511 15651 3932 1 109.50000 418.400000
511 15651 5165 1 109.50000 418.400000
511 15651 8694 1 109.50000 418.400000
3932 15651 5165 1 109.50000 418.400000
3932 15651 8694 1 109.50000 418.400000
5165 15651 8694 1 109.50000 418.400000
6625 15652 6685 1 109.50000 418.400000
6625 15652 7404 1 109.50000 418.400000
6625 15652 10716 1 109.50000 418.400000
6685 15652 7404 1 109.50000 418.400000
6685 15652 10716 1 109.50000 418.400000
7404 15652 10716 1 109.50000 418.400000
2252 15653 7293 1 109.50000 418.400000
2252 15653 8188 1 109.50000 418.400000
2252 15653 10717 1 109.50000 418.400000
7293 15653 8188 1 109.50000 418.400000
7293 15653 10717 1 109.50000 418.400000
8188 15653 10717 1 109.50000 418.400000
3136 15654 3681 1 109.50000 418.400000
3136 15654 9453 1 109.50000 418.400000
3136 15654 10718 1 109.50000 418.400000
3681 15654 9453 1 109.50000 418.400000
3681 15654 10718 1 109.50000 418.400000
9453 15654 10718 1 109.50000 418.400000
5139 15655 8589 1 109.50000 418.400000
5139 15655 9245 1 109.50000 418.400000
5139 15655 9770 1 109.50000 418.400000
8589 15655 9245 1 109.50000 418.400000
8589 15655 9770 1 109.50000 418.400000
9245 15655 9770 1 109.50000 418.400000
5371 15656 5377 1 109.50000 418.400000
5371 15656 9881 1 109.50000 418.400000
5371 15656 10719 1 109.50000 418.400000
5377 15656 9881 1 109.50000 418.400000
5377 15656 10719 1 109.50000 418.400000
9881 15656 10719 1 109.50000 418.400000
8156 15657 9741 1 109.50000 418.400000
8156 15657 10664 1 109.50000 418.400000
8156 15657 10720 1 109.50000 418.400000
9741 15657 10664 1 109.50000 418.400000
9741 15657 10720 1 109.50000 418.400000
10664 15657 10720 1 109.50000 418.400000
2947 15658 7602 1 109.50000 418.400000
2947 15658 9799 1 109.50000 418.400000
2947 15658 10721 1 109.50000 418.400000
7602 15658 9799 1 109.50000 418.400000
7602 15658 10721 1 109.50000 418.400000
9799 15658 10721 1 109.50000 418.400000
8337 15659 8730 1 109.50000 418.400000
8337 15659 8781 1 109.50000 418.400000
8337 15659 9377 1 109.50000 418.400000
8730 15659 8781 1 109.50000 418.400000
8730 15659 9377 1 109.50000 418.400000
8781 15659 9377 1 109.50000 418.400000
4002 15660 5596 1 109.50000 418.400000
4002 15660 7560 1 109.50000 418.400000
4002 15660 8140 1 109.50000 418.400000
5596 15660 7560 1 109.50000 418.400000
5596 15660 8140 1 109.50000 418.400000
7560 15660 8140 1 109.50000 418.400000
3243 15661 3864 1 109.50000 418.400000
3243 15661 7987 1 109.50000 418.400000
3243 15661 10652 1 109.50000 418.400000
3864 15661 7987 1 109.50000 418.400000
3864 15661 10652 1 109.50000 418.400000
7987 15661 10652 1 109.50000 418.400000
4311 15662 6816 1 109.50000 418.400000
4311 15662 6898 1 109.50000 418.400000
4311 15662 9315 1 109.50000 418.400000
6816 15662 6898 1 109.50000 418.400000
6816 15662 9315 1 109.50000 418.400000
6898 15662 9315 1 109.50000 418.400000
1662 15663 5791 1 109.50000 418.400000
1662 15663 10722 1 109.50000 418.400000
1662 15663 10723 1 109.50000 418.400000
5791 15663 10722 1 109.50000 418.400000
5791 15663 10723 1 109.50000 418.400000
10722 15663 10723 1 109.50000 418.400000
530 15664 6422 1 109.50000 418.400000
530 15664 8152 1 109.50000 418.400000
530 15664 10325 1 109.50000 418.400000
6422 15664 8152 1 109.50000 418.400000
6422 15664 10325 1 109.50000 418.400000
8152 15664 10325 1 109.50000 418.400000
2424 15665 3591 1 109.50000 418.400000
2424 15665 4183 1 109.50000 418.400000
2424 15665 4957 1 109.50000 418.400000
3591 15665 4183 1 109.50000 418.400000
3591 15665 4957 1 109.50000 418.400000
4183 15665 4957 1 109.50000 418.400000
471 15666 5577 1 109.50000 418.400000
471 15666 5578 1 109.50000 418.400000
471 15666 9997 1 109.50000 418.400000
5577 15666 5578 1 109.50000 418.400000
5577 15666 9997 1 109.50000 418.400000
5578 15666 9997 1 109.50000 418.400000
1762 15667 8789 1 109.50000 418.400000
1762 15667 10724 1 109.50000 418.400000
1762 15667 10725 1 109.50000 418.400000
8789 15667 10724 1 109.50000 418.400000
8789 15667 10725 1 109.50000 418.400000
10724 15667 10725 1 109.50000 418.400000
1746 15668 3030 1 109.50000 418.400000
1746 15668 3887 1 109.50000 418.400000
1746 15668 5988 1 109.50000 418.400000
3030 15668 3887 1 109.50000 418.400000
3030 15668 5988 1 109.50000 418.400000
3887 15668 5988 1 109.50000 418.400000
7792 15669 8239 1 109.50000 418.400000
7792 15669 8548 1 109.50000 418.400000
7792 15669 10726 1 109.50000 418.400000
8239 15669 8548 1 109.50000 418.400000
8239 15669 10726 1 109.50000 418.400000
8548 15669 10726 1 109.50000 418.400000
5279 15670 7203 1 109.50000 418.400000
5279 15670 8584 1 109.50000 418.400000
5279 15670 10728 1 109.50000 418.400000
7203 15670 8584 1 109.50000 418.400000
7203 15670 10728 1 109.50000 418.400000
8584 15670 10728 1 109.50000 418.400000
4036 15671 4038 1 109.50000 418.400000
4036 15671 10218 1 109.50000 418.400000
4036 15671 10302 1 109.50000 418.400000
4038 15671 10218 1 109.50000 418.400000
4038 15671 10302 1 109.50000 418.400000
10218 15671 10302 1 109.50000 418.400000
5788 15672 5806 1 109.50000 418.400000
5788 15672 10322 1 109.50000 418.400000
5788 15672 10507 1 109.50000 418.400000
5806 15672 10322 1 109.50000 418.400000
5806 15672 10507 1 109.50000 418.400000
10322 15672 10507 1 109.50000 418.400000
5984 15673 8991 1 109.50000 418.400000
5984 15673 10412 1 109.50000 418.400000
5984 15673 10729 1 109.50000 418.400000
8991 15673 10412 1 109.50000 418.400000
8991 15673 10729 1 109.50000 418.400000
10412 15673 10729 1 109.50000 418.400000
4950 15674 6705 1 109.50000 418.400000
4950 15674 7879 1 109.50000 418.400000
4950 15674 8636 1 109.50000 418.400000
6705 15674 7879 1 109.50000 418.400000
6705 15674 8636 1 109.50000 418.400000
7879 15674 8636 1 109.50000 418.400000
6541 15675 8214 1 109.50000 418.400000
6541 15675 10654 1 109.50000 418.400000
6541 15675 10730 1 109.50000 418.400000
8214 15675 10654 1 109.50000 418.400000
8214 15675 10730 1 109.50000 418.400000
10654 15675 10730 1 109.50000 418.400000
3475 15676 5583 1 109.50000 418.400000
3475 15676 7482 1 109.50000 418.400000
3475 15676 10731 1 109.50000 418.400000
5583 15676 7482 1 109.50000 418.400000
5583 15676 10731 1 109.50000 418.400000
7482 15676 10731 1 109.50000 418.400000
9324 15677 10122 1 109.50000 418.400000
9324 15677 10341 1 109.50000 418.400000
9324 15677 10732 1 109.50000 418.400000
10122 15677 10341 1 109.50000 418.400000
10122 15677 10732 1 109.50000 418.400000
10341 15677 10732 1 109.50000 418.400000
4149 15678 9655 1 109.50000 418.400000
4149 15678 10733 1 109.50000 418.400000
4149 15678 10734 1 109.50000 418.400000
9655 15678 10733 1 109.50000 418.400000
9655 15678 10734 1 109.50000 418.400000
10733 15678 10734 1 109.50000 418.400000
1053 15679 8541 1 109.50000 418.400000
1053 15679 9785 1 109.50000 418.400000
1053 15679 10735 1 109.50000 418.400000
8541 15679 9785 1 109.50000 418.400000
8541 15679 10735 1 109.50000 418.400000
9785 15679 10735 1 109.50000 418.400000
5763 15680 8044 1 109.50000 418.400000
5763 15680 10736 1 109.50000 418.400000
5763 15680 11287 1 109.50000 418.400000
8044 15680 10736 1 109.50000 418.400000
8044 15680 11287 1 109.50000 418.400000
10736 15680 11287 1 109.50000 418.400000
3320 15681 9340 1 109.50000 418.400000
3320 15681 10126 1 109.50000 418.400000
3320 15681 10738 1 109.50000 418.400000
9340 15681 10126 1 109.50000 418.400000
9340 15681 10738 1 109.50000 418.400000
10126 15681 10738 1 109.50000 418.400000
1724 15682 3866 1 109.50000 418.400000
1724 15682 10132 1 109.50000 418.400000
1724 15682 10739 1 109.50000 418.400000
3866 15682 10132 1 109.50000 418.400000
3866 15682 10739 1 109.50000 418.400000
10132 15682 10739 1 109.50000 418.400000
2 15683 4597 1 109.50000 418.400000
2 15683 8039 1 109.50000 418.400000
2 15683 10396 1 109.50000 418.400000
4597 15683 8039 1 109.50000 418.400000
4597 15683 10396 1 109.50000 418.400000
8039 15683 10396 1 109.50000 418.400000
550 15684 6495 1 109.50000 418.400000
550 15684 7787 1 109.50000 418.400000
550 15684 8364 1 109.50000 418.400000
6495 15684 7787 1 109.50000 418.400000
6495 15684 8364 1 109.50000 418.400000
7787 15684 8364 1 109.50000 418.400000
733 15685 2930 1 109.50000 418.400000
733 15685 9882 1 109.50000 418.400000
733 15685 10740 1 109.50000 418.400000
2930 15685 9882 1 109.50000 418.400000
2930 15685 10740 1 109.50000 418.400000
9882 15685 10740 1 109.50000 418.400000
6681 15686 10247 1 109.50000 418.400000
6681 15686 10675 1 109.50000 418.400000
6681 15686 10741 1 109.50000 418.400000
10247 15686 10675 1 109.50000 418.400000
10247 15686 10741 1 109.50000 418.400000
10675 15686 10741 1 109.50000 418.400000
2197 15687 3782 1 109.50000 418.400000
2197 15687 6115 1 109.50000 418.400000
2197 15687 10598 1 109.50000 418.400000
3782 15687 6115 1 109.50000 418.400000
3782 15687 10598 1 109.50000 418.400000
6115 15687 10598 1 109.50000 418.400000
650 15688 10633 1 109.50000 418.400000
650 15688 10745 1 109.50000 418.400000
650 15688 10746 1 109.50000 418.400000
10633 15688 10745 1 109.50000 418.400000
10633 15688 10746 1 109.50000 418.400000
10745 15688 10746 1 109.50000 418.400000
1725 15689 3269 1 109.50000 418.400000
1725 15689 9301 1 109.50000 418.400000
1725 15689 10748 1 109.50000 418.400000
3269 15689 9301 1 109.50000 418.400000
3269 15689 10748 1 109.50000 418.400000
9301 15689 10748 1 109.50000 418.400000
3630 15690 7542 1 109.50000 418.400000
3630 15690 10749 1 109.50000 418.400000
3630 15690 10877 1 109.50000 418.400000
7542 15690 10749 1 109.50000 418.400000
7542 15690 10877 1 109.50000 418.400000
10749 15690 10877 1 109.50000 418.400000
4877 15691 7437 1 109.50000 418.400000
4877 15691 8264 1 109.50000 418.400000
4877 15691 10750 1 109.50000 418.400000
7437 15691 8264 1 109.50000 418.400000
7437 15691 10750 1 109.50000 418.400000
8264 15691 10750 1 109.50000 418.400000
270 15692 683 1 109.50000 418.400000
270 15692 9323 1 109.50000 418.400000
270 15692 9569 1 109.50000 418.400000
683 15692 9323 1 109.50000 418.400000
683 15692 9569 1 109.50000 418.400000
9323 15692 9569 1 109.50000 418.400000
305 15693 5740 1 109.50000 418.400000
305 15693 7026 1 109.50000 418.400000
305 15693 8762 1 109.50000 418.400000
5740 15693 7026 1 109.50000 418.400000
5740 15693 8762 1 109.50000 418.400000
7026 15693 8762 1 109.50000 418.400000
7900 15694 9173 1 109.50000 418.400000
7900 15694 9175 1 109.50000 418.400000
7900 15694 10751 1 109.50000 418.400000
9173 15694 9175 1 109.50000 418.400000
9173 15694 10751 1 109.50000 418.400000
9175 15694 10751 1 109.50000 418.400000
7366 15695 9038 1 109.50000 418.400000
7366 15695 9311 1 109.50000 418.400000
7366 15695 9849 1 109.50000 418.400000
9038 15695 9311 1 109.50000 418.400000
9038 15695 9849 1 109.50000 418.400000
9311 15695 9849 1 109.50000 418.400000
1119 15696 4042 1 109.50000 418.400000
1119 15696 6594 1 109.50000 418.400000
1119 15696 10634 1 109.50000 418.400000
4042 15696 6594 1 109.50000 418.400000
4042 15696 10634 1 109.50000 418.400000
6594 15696 10634 1 109.50000 418.400000
276 15697 3424 1 109.50000 418.400000
276 15697 9699 1 109.50000 418.400000
276 15697 10752 1 109.50000 418.400000
3424 15697 9699 1 109.50000 418.400000
3424 15697 10752 1 109.50000 418.400000
9699 15697 10752 1 109.50000 418.400000
496 15698 8710 1 109.50000 418.400000
496 15698 10753 1 109.50000 418.400000
496 15698 10754 1 109.50000 418.400000
8710 15698 10753 1 109.50000 418.400000
8710 15698 10754 1 109.50000 418.400000
10753 15698 10754 1 109.50000 418.400000
3036 15699 4719 1 109.50000 418.400000
3036 15699 8718 1 109.50000 418.400000
3036 15699 10616 1 109.50000 418.400000
4719 15699 8718 1 109.50000 418.400000
4719 15699 10616 1 109.50000 418.400000
8718 15699 10616 1 109.50000 418.400000
1385 15700 2138 1 109.50000 418.400000
1385 15700 7884 1 109.50000 418.400000
1385 15700 10050 1 109.50000 418.400000
2138 15700 7884 1 109.50000 418.400000
2138 15700 10050 1 109.50000 418.400000
7884 15700 10050 1 109.50000 418.400000
2283 15701 2886 1 109.50000 418.400000
2283 15701 6991 1 109.50000 418.400000
2283 15701 10666 1 109.50000 418.400000
2886 15701 6991 1 109.50000 418.400000
2886 15701 10666 1 109.50000 418.400000
6991 15701 10666 1 109.50000 418.400000
2838 15702 6053 1 109.50000 418.400000
2838 15702 9459 1 109.50000 418.400000
2838 15702 10618 1 109.50000 418.400000
6053 15702 9459 1 109.50000 418.400000
6053 15702 10618 1 109.50000 418.400000
9459 15702 10618 1 109.50000 418.400000
792 15703 5442 1 109.50000 418.400000
792 15703 9504 1 109.50000 418.400000
792 15703 11390 1 109.50000 418.400000
5442 15703 9504 1 109.50000 418.400000
5442 15703 11390 1 109.50000 418.400000
9504 15703 11390 1 109.50000 418.400000
3460 15704 5860 1 109.50000 418.400000
3460 15704 5861 1 109.50000 418.400000
3460 15704 10111 1 109.50000 418.400000
5860 15704 5861 1 109.50000 418.400000
5860 15704 10111 1 109.50000 418.400000
5861 15704 10111 1 109.50000 418.400000
8437 15705 8439 1 109.50000 418.400000
8437 15705 9746 1 109.50000 418.400000
8437 15705 10755 1 109.50000 418.400000
8439 15705 9746 1 109.50000 418.400000
8439 15705 10755 1 109.50000 418.400000
9746 15705 10755 1 109.50000 418.400000
9499 15706 9658 1 109.50000 418.400000
9499 15706 9869 1 109.50000 418.400000
9499 15706 10154 1 109.50000 418.400000
9658 15706 9869 1 109.50000 418.400000
9658 15706 10154 1 109.50000 418.400000
9869 15706 10154 1 109.50000 418.400000
1669 15707 5286 1 109.50000 418.400000
1669 15707 8885 1 109.50000 418.400000
1669 15707 9197 1 109.50000 418.400000
5286 15707 8885 1 109.50000 418.400000
5286 15707 9197 1 109.50000 418.400000
8885 15707 9197 1 109.50000 418.400000
914 15708 2729 1 109.50000 418.400000
914 15708 9964 1 109.50000 418.400000
914 15708 10759 1 109.50000 418.400000
2729 15708 9964 1 109.50000 418.400000
2729 15708 10759 1 109.50000 418.400000
9964 15708 10759 1 109.50000 418.400000
1877 15709 3338 1 109.50000 418.400000
1877 15709 7979 1 109.50000 418.400000
1877 15709 11298 1 109.50000 418.400000
3338 15709 7979 1 109.50000 418.400000
3338 15709 11298 1 109.50000 418.400000
7979 15709 11298 1 109.50000 418.400000
3053 15710 4235 1 109.50000 418.400000
3053 15710 7821 1 109.50000 418.400000
3053 15710 8742 1 109.50000 418.400000
4235 15710 7821 1 109.50000 418.400000
4235 15710 8742 1 109.50000 418.400000
7821 15710 8742 1 109.50000 418.400000
1592 15711 6516 1 109.50000 418.400000
1592 15711 7964 1 109.50000 418.400000
1592 15711 10760 1 109.50000 418.400000
6516 15711 7964 1 109.50000 418.400000
6516 15711 10760 1 109.50000 418.400000
7964 15711 10760 1 109.50000 418.400000
7207 15712 8624 1 109.50000 418.400000
7207 15712 10750 1 109.50000 418.400000
7207 15712 10761 1 109.50000 418.400000
8624 15712 10750 1 109.50000 418.400000
8624 15712 10761 1 109.50000 418.400000
10750 15712 10761 1 109.50000 418.400000
3422 15713 3680 1 109.50000 418.400000
3422 15713 3835 1 109.50000 418.400000
3422 15713 10762 1 109.50000 418.400000
3680 15713 3835 1 109.50000 418.400000
3680 15713 10762 1 109.50000 418.400000
3835 15713 10762 1 109.50000 418.400000
595 15714 2959 1 109.50000 418.400000
595 15714 8969 1 109.50000 418.400000
595 15714 10665 1 109.50000 418.400000
2959 15714 8969 1 109.50000 418.400000
2959 15714 10665 1 109.50000 418.400000
8969 15714 10665 1 109.50000 418.400000
3154 15715 10621 1 109.50000 418.400000
3154 15715 10723 1 109.50000 418.400000
3154 15715 10763 1 109.50000 418.400000
10621 15715 10723 1 109.50000 418.400000
10621 15715 10763 1 109.50000 418.400000
10723 15715 10763 1 109.50000 418.400000
6343 15716 6344 1 109.50000 418.400000
6343 15716 10003 1 109.50000 418.400000
6343 15716 10326 1 109.50000 418.400000
6344 15716 10003 1 109.50000 418.400000
6344 15716 10326 1 109.50000 418.400000
10003 15716 10326 1 109.50000 418.400000
1250 15717 2005 1 109.50000 418.400000
1250 15717 5598 1 109.50000 418.400000
1250 15717 10362 1 109.50000 418.400000
2005 15717 5598 1 109.50000 418.400000
2005 15717 10362 1 109.50000 418.400000
5598 15717 10362 1 109.50000 418.400000
4078 15718 5616 1 109.50000 418.400000
4078 15718 9389 1 109.50000 418.400000
4078 15718 9512 1 109.50000 418.400000
5616 15718 9389 1 109.50000 418.400000
5616 15718 9512 1 109.50000 418.400000
9389 15718 9512 1 109.50000 418.400000
9003 15719 10764 1 109.50000 418.400000
9003 15719 10765 1 109.50000 418.400000
9003 15719 10766 1 109.50000 418.400000
10764 15719 10765 1 109.50000 418.400000
10764 15719 10766 1 109.50000 418.400000
10765 15719 10766 1 109.50000 418.400000
1281 15720 7499 1 109.50000 418.400000
1281 15720 7920 1 109.50000 418.400000
1281 15720 10767 1 109.50000 418.400000
7499 15720 7920 1 109.50000 418.400000
7499 15720 10767 1 109.50000 418.400000
7920 15720 10767 1 109.50000 418.400000
7383 15721 7709 1 109.50000 418.400000
7383 15721 10517 1 109.50000 418.400000
7383 15721 10768 1 109.50000 418.400000
7709 15721 10517 1 109.50000 418.400000
7709 15721 10768 1 109.50000 418.400000
10517 15721 10768 1 109.50000 418.400000
9729 15722 9730 1 109.50000 418.400000
9729 15722 10767 1 109.50000 418.400000
9729 15722 10769 1 109.50000 418.400000
9730 15722 10767 1 109.50000 418.400000
9730 15722 10769 1 109.50000 418.400000
10767 15722 10769 1 109.50000 418.400000
3770 15723 7017 1 109.50000 418.400000
3770 15723 7421 1 109.50000 418.400000
3770 15723 8811 1 109.50000 418.400000
7017 15723 7421 1 109.50000 418.400000
7017 15723 8811 1 109.50000 418.400000
7421 15723 8811 1 109.50000 418.400000
1220 15724 1857 1 109.50000 418.400000
1220 15724 5896 1 109.50000 418.400000
1220 15724 10770 1 109.50000 418.400000
1857 15724 5896 1 109.50000 418.400000
1857 15724 10770 1 109.50000 418.400000
5896 15724 10770 1 109.50000 418.400000
1678 15725 5509 1 109.50000 418.400000
1678 15725 9739 1 109.50000 418.400000
1678 15725 10771 1 109.50000 418.400000
5509 15725 9739 1 109.50000 418.400000
5509 15725 10771 1 109.50000 418.400000
9739 15725 10771 1 109.50000 418.400000
5455 15726 6847 1 109.50000 418.400000
5455 15726 10108 1 109.50000 418.400000
5455 15726 10772 1 109.50000 418.400000
6847 15726 10108 1 109.50000 418.400000
6847 15726 10772 1 109.50000 418.400000
10108 15726 10772 1 109.50000 418.400000
2312 15727 6954 1 109.50000 418.400000
2312 15727 9607 1 109.50000 418.400000
2312 15727 10773 1 109.50000 418.400000
6954 15727 9607 1 109.50000 418.400000
6954 15727 10773 1 109.50000 418.400000
9607 15727 10773 1 109.50000 418.400000
6951 15728 7734 1 109.50000 418.400000
6951 15728 8512 1 109.50000 418.400000
6951 15728 10774 1 109.50000 418.400000
7734 15728 8512 1 109.50000 418.400000
7734 15728 10774 1 109.50000 418.400000
8512 15728 10774 1 109.50000 418.400000
2825 15729 5457 1 109.50000 418.400000
2825 15729 6729 1 109.50000 418.400000
2825 15729 10775 1 109.50000 418.400000
5457 15729 6729 1 109.50000 418.400000
5457 15729 10775 1 109.50000 418.400000
6729 15729 10775 1 109.50000 418.400000
8259 15730 10690 1 109.50000 418.400000
8259 15730 10776 1 109.50000 418.400000
8259 15730 10777 1 109.50000 418.400000
10690 15730 10776 1 109.50000 418.400000
10690 15730 10777 1 109.50000 418.400000
10776 15730 10777 1 109.50000 418.400000
3585 15731 4202 1 109.50000 418.400000
3585 15731 5899 1 109.50000 418.400000
3585 15731 9087 1 109.50000 418.400000
4202 15731 5899 1 109.50000 418.400000
4202 15731 9087 1 109.50000 418.400000
5899 15731 9087 1 109.50000 418.400000
1160 15732 1377 1 109.50000 418.400000
1160 15732 8800 1 109.50000 418.400000
1160 15732 10778 1 109.50000 418.400000
1377 15732 8800 1 109.50000 418.400000
1377 15732 10778 1 109.50000 418.400000
8800 15732 10778 1 109.50000 418.400000
2509 15733 5471 1 109.50000 418.400000
2509 15733 10779 1 109.50000 418.400000
2509 15733 10780 1 109.50000 418.400000
5471 15733 10779 1 109.50000 418.400000
5471 15733 10780 1 109.50000 418.400000
10779 15733 10780 1 109.50000 418.400000
2427 15734 5908 1 109.50000 418.400000
2427 15734 6220 1 109.50000 418.400000
2427 15734 10765 1 109.50000 418.400000
5908 15734 6220 1 109.50000 418.400000
5908 15734 10765 1 109.50000 418.400000
6220 15734 10765 1 109.50000 418.400000
2571 15735 6785 1 109.50000 418.400000
2571 15735 6787 1 109.50000 418.400000
2571 15735 7329 1 109.50000 418.400000
6785 15735 6787 1 109.50000 418.400000
6785 15735 7329 1 109.50000 418.400000
6787 15735 7329 1 109.50000 418.400000
2924 15736 6549 1 109.50000 418.400000
2924 15736 7187 1 109.50000 418.400000
2924 15736 9112 1 109.50000 418.400000
6549 15736 7187 1 109.50000 418.400000
6549 15736 9112 1 109.50000 418.400000
7187 15736 9112 1 109.50000 418.400000
2065 15737 4665 1 109.50000 418.400000
2065 15737 9752 1 109.50000 418.400000
2065 15737 10781 1 109.50000 418.400000
4665 15737 9752 1 109.50000 418.400000
4665 15737 10781 1 109.50000 418.400000
9752 15737 10781 1 109.50000 418.400000
1238 15738 3147 1 109.50000 418.400000
1238 15738 7851 1 109.50000 418.400000
1238 15738 7852 1 109.50000 418.400000
3147 15738 7851 1 109.50000 418.400000
3147 15738 7852 1 109.50000 418.400000
7851 15738 7852 1 109.50000 418.400000
3451 15739 3942 1 109.50000 418.400000
3451 15739 6513 1 109.50000 418.400000
3451 15739 8305 1 109.50000 418.400000
3942 15739 6513 1 109.50000 418.400000
3942 15739 8305 1 109.50000 418.400000
6513 15739 8305 1 109.50000 418.400000
1667 15740 10327 1 109.50000 418.400000
1667 15740 10782 1 109.50000 418.400000
1667 15740 10783 1 109.50000 418.400000
10327 15740 10782 1 109.50000 418.400000
10327 15740 10783 1 109.50000 418.400000
10782 15740 10783 1 109.50000 418.400000
2476 15741 8099 1 109.50000 418.400000
2476 15741 9987 1 109.50000 418.400000
2476 15741 10584 1 109.50000 418.400000
8099 15741 9987 1 109.50000 418.400000
8099 15741 10584 1 109.50000 418.400000
9987 15741 10584 1 109.50000 418.400000
1292 15742 5036 1 109.50000 418.400000
1292 15742 8590 1 109.50000 418.400000
1292 15742 9953 1 109.50000 418.400000
5036 15742 8590 1 109.50000 418.400000
5036 15742 9953 1 109.50000 418.400000
8590 15742 9953 1 109.50000 418.400000
3127 15743 9527 1 109.50000 418.400000
3127 15743 9949 1 109.50000 418.400000
3127 15743 10784 1 109.50000 418.400000
9527 15743 9949 1 109.50000 418.400000
9527 15743 10784 1 109.50000 418.400000
9949 15743 10784 1 109.50000 418.400000
6269 15744 7016 1 109.50000 418.400000
6269 15744 8651 1 109.50000 418.400000
6269 15744 8832 1 109.50000 418.400000
7016 15744 8651 1 109.50000 418.400000
7016 15744 8832 1 109.50000 418.400000
8651 15744 8832 1 109.50000 418.400000
48 15745 3530 1 109.50000 418.400000
48 15745 7660 1 109.50000 418.400000
48 15745 10474 1 109.50000 418.400000
3530 15745 7660 1 109.50000 418.400000
3530 15745 10474 1 109.50000 418.400000
7660 15745 10474 1 109.50000 418.400000
5145 15746 10752 1 109.50000 418.400000
5145 15746 10785 1 109.50000 418.400000
5145 15746 10786 1 109.50000 418.400000
10752 15746 10785 1 109.50000 418.400000
10752 15746 10786 1 109.50000 418.400000
10785 15746 10786 1 109.50000 418.400000
239 15747 3133 1 109.50000 418.400000
239 15747 8794 1 109.50000 418.400000
239 15747 11344 1 109.50000 418.400000
3133 15747 8794 1 109.50000 418.400000
3133 15747 11344 1 109.50000 418.400000
8794 15747 11344 1 109.50000 418.400000
405 15748 9936 1 109.50000 418.400000
405 15748 10224 1 109.50000 418.400000
405 15748 10578 1 109.50000 418.400000
9936 15748 10224 1 109.50000 418.400000
9936 15748 10578 1 109.50000 418.400000
10224 15748 10578 1 109.50000 418.400000
5342 15749 9497 1 109.50000 418.400000
5342 15749 10782 1 109.50000 418.400000
5342 15749 10787 1 109.50000 418.400000
9497 15749 10782 1 109.50000 418.400000
9497 15749 10787 1 109.50000 418.400000
10782 15749 10787 1 109.50000 418.400000
220 15750 3423 1 109.50000 418.400000
220 15750 8220 1 109.50000 418.400000
220 15750 9328 1 109.50000 418.400000
3423 15750 8220 1 109.50000 418.400000
3423 15750 9328 1 109.50000 418.400000
8220 15750 9328 1 109.50000 418.400000
2558 15751 8416 1 109.50000 418.400000
2558 15751 8968 1 109.50000 418.400000
2558 15751 10740 1 109.50000 418.400000
8416 15751 8968 1 109.50000 418.400000
8416 15751 10740 1 109.50000 418.400000
8968 15751 10740 1 109.50000 418.400000
937 15752 6733 1 109.50000 418.400000
937 15752 9652 1 109.50000 418.400000
937 15752 11361 1 109.50000 418.400000
6733 15752 9652 1 109.50000 418.400000
6733 15752 11361 1 109.50000 418.400000
9652 15752 11361 1 109.50000 418.400000
2569 15753 9993 1 109.50000 418.400000
2569 15753 10450 1 109.50000 418.400000
2569 15753 11350 1 109.50000 418.400000
9993 15753 10450 1 109.50000 418.400000
9993 15753 11350 1 109.50000 418.400000
10450 15753 11350 1 109.50000 418.400000
6473 15754 9153 1 109.50000 418.400000
6473 15754 10099 1 109.50000 418.400000
6473 15754 10788 1 109.50000 418.400000
9153 15754 10099 1 109.50000 418.400000
9153 15754 10788 1 109.50000 418.400000
10099 15754 10788 1 109.50000 418.400000
6859 15755 7753 1 109.50000 418.400000
6859 15755 9027 1 109.50000 418.400000
6859 15755 9613 1 109.50000 418.400000
7753 15755 9027 1 109.50000 418.400000
7753 15755 9613 1 109.50000 418.400000
9027 15755 9613 1 109.50000 418.400000
4518 15756 8633 1 109.50000 418.400000
4518 15756 10783 1 109.50000 418.400000
4518 15756 10789 1 109.50000 418.400000
8633 15756 10783 1 109.50000 418.400000
8633 15756 10789 1 109.50000 418.400000
10783 15756 10789 1 109.50000 418.400000
357 15757 6595 1 109.50000 418.400000
357 15757 10790 1 109.50000 418.400000
357 15757 11142 1 109.50000 418.400000
6595 15757 10790 1 109.50000 418.400000
6595 15757 11142 1 109.50000 418.400000
10790 15757 11142 1 109.50000 418.400000
3869 15758 8207 1 109.50000 418.400000
3869 15758 9952 1 109.50000 418.400000
3869 15758 10791 1 109.50000 418.400000
8207 15758 9952 1 109.50000 418.400000
8207 15758 10791 1 109.50000 418.400000
9952 15758 10791 1 109.50000 418.400000
1589 15759 4739 1 109.50000 418.400000
1589 15759 10792 1 109.50000 418.400000
1589 15759 10793 1 109.50000 418.400000
4739 15759 10792 1 109.50000 418.400000
4739 15759 10793 1 109.50000 418.400000
10792 15759 10793 1 109.50000 418.400000
9555 15760 9944 1 109.50000 418.400000
9555 15760 10237 1 109.50000 418.400000
9555 15760 10794 1 109.50000 418.400000
9944 15760 10237 1 109.50000 418.400000
9944 15760 10794 1 109.50000 418.400000
10237 15760 10794 1 109.50000 418.400000
1013 15761 7856 1 109.50000 418.400000
1013 15761 10399 1 109.50000 418.400000
1013 15761 10796 1 109.50000 418.400000
7856 15761 10399 1 109.50000 418.400000
7856 15761 10796 1 109.50000 418.400000
10399 15761 10796 1 109.50000 418.400000
7811 15762 9697 1 109.50000 418.400000
7811 15762 10797 1 109.50000 418.400000
7811 15762 10798 1 109.50000 418.400000
9697 15762 10797 1 109.50000 418.400000
9697 15762 10798 1 109.50000 418.400000
10797 15762 10798 1 109.50000 418.400000
4063 15763 8707 1 109.50000 418.400000
4063 15763 10461 1 109.50000 418.400000
4063 15763 10549 1 109.50000 418.400000
8707 15763 10461 1 109.50000 418.400000
8707 15763 10549 1 109.50000 418.400000
10461 15763 10549 1 109.50000 418.400000
188 15764 9410 1 109.50000 418.400000
188 15764 9711 1 109.50000 418.400000
188 15764 10799 1 109.50000 418.400000
9410 15764 9711 1 109.50000 418.400000
9410 15764 10799 1 109.50000 418.400000
9711 15764 10799 1 109.50000 418.400000
6900 15765 7459 1 109.50000 418.400000
6900 15765 7668 1 109.50000 418.400000
6900 15765 8008 1 109.50000 418.400000
7459 15765 7668 1 109.50000 418.400000
7459 15765 8008 1 109.50000 418.400000
7668 15765 8008 1 109.50000 418.400000
2784 15766 2905 1 109.50000 418.400000
2784 15766 6807 1 109.50000 418.400000
2784 15766 8728 1 109.50000 418.400000
2905 15766 6807 1 109.50000 418.400000
2905 15766 8728 1 109.50000 418.400000
6807 15766 8728 1 109.50000 418.400000
8223 15767 9616 1 109.50000 418.400000
8223 15767 10800 1 109.50000 418.400000
8223 15767 10801 1 109.50000 418.400000
9616 15767 10800 1 109.50000 418.400000
9616 15767 10801 1 109.50000 418.400000
10800 15767 10801 1 109.50000 418.400000
1438 15768 9146 1 109.50000 418.400000
1438 15768 9147 1 109.50000 418.400000
1438 15768 9148 1 109.50000 418.400000
9146 15768 9147 1 109.50000 418.400000
9146 15768 9148 1 109.50000 418.400000
9147 15768 9148 1 109.50000 418.400000
2884 15769 9804 1 109.50000 418.400000
2884 15769 10802 1 109.50000 418.400000
2884 15769 11402 1 109.50000 418.400000
9804 15769 10802 1 109.50000 418.400000
9804 15769 11402 1 109.50000 418.400000
10802 15769 11402 1 109.50000 418.400000
6879 15770 7011 1 109.50000 418.400000
6879 15770 7744 1 109.50000 418.400000
6879 15770 10547 1 109.50000 418.400000
7011 15770 7744 1 109.50000 418.400000
7011 15770 10547 1 109.50000 418.400000
7744 15770 10547 1 109.50000 418.400000
737 15771 6181 1 109.50000 418.400000
737 15771 6248 1 109.50000 418.400000
737 15771 7720 1 109.50000 418.400000
6181 15771 6248 1 109.50000 418.400000
6181 15771 7720 1 109.50000 418.400000
6248 15771 7720 1 109.50000 418.400000
631 15772 1244 1 109.50000 418.400000
631 15772 8077 1 109.50000 418.400000
631 15772 8982 1 109.50000 418.400000
1244 15772 8077 1 109.50000 418.400000
1244 15772 8982 1 109.50000 418.400000
8077 15772 8982 1 109.50000 418.400000
332 15773 1050 1 109.50000 418.400000
332 15773 8787 1 109.50000 418.400000
332 15773 10803 1 109.50000 418.400000
1050 15773 8787 1 109.50000 418.400000
1050 15773 10803 1 109.50000 418.400000
8787 15773 10803 1 109.50000 418.400000
5343 15774 6942 1 109.50000 418.400000
5343 15774 7676 1 109.50000 418.400000
5343 15774 10805 1 109.50000 418.400000
6942 15774 7676 1 109.50000 418.400000
6942 15774 10805 1 109.50000 418.400000
7676 15774 10805 1 109.50000 418.400000
5565 15775 6070 1 109.50000 418.400000
5565 15775 6548 1 109.50000 418.400000
5565 15775 8222 1 109.50000 418.400000
6070 15775 6548 1 109.50000 418.400000
6070 15775 8222 1 109.50000 418.400000
6548 15775 8222 1 109.50000 418.400000
1694 15776 3638 1 109.50000 418.400000
1694 15776 9215 1 109.50000 418.400000
1694 15776 10806 1 109.50000 418.400000
3638 15776 9215 1 109.50000 418.400000
3638 15776 10806 1 109.50000 418.400000
9215 15776 10806 1 109.50000 418.400000
4129 15777 4944 1 109.50000 418.400000
4129 15777 8746 1 109.50000 418.400000
4129 15777 10605 1 109.50000 418.400000
4944 15777 8746 1 109.50000 418.400000
4944 15777 10605 1 109.50000 418.400000
8746 15777 10605 1 109.50000 418.400000
2227 15778 2916 1 109.50000 418.400000
2227 15778 9156 1 109.50000 418.400000
2227 15778 9326 1 109.50000 418.400000
2916 15778 9156 1 109.50000 418.400000
2916 15778 9326 1 109.50000 418.400000
9156 15778 9326 1 109.50000 418.400000
2537 15779 5170 1 109.50000 418.400000
2537 15779 10625 1 109.50000 418.400000
2537 15779 10807 1 109.50000 418.400000
5170 15779 10625 1 109.50000 418.400000
5170 15779 10807 1 109.50000 418.400000
10625 15779 10807 1 109.50000 418.400000
8174 15780 9670 1 109.50000 418.400000
8174 15780 10400 1 109.50000 418.400000
8174 15780 10808 1 109.50000 418.400000
9670 15780 10400 1 109.50000 418.400000
9670 15780 10808 1 109.50000 418.400000
10400 15780 10808 1 109.50000 418.400000
8107 15781 10521 1 109.50000 418.400000
8107 15781 10809 1 109.50000 418.400000
8107 15781 10810 1 109.50000 418.400000
10521 15781 10809 1 109.50000 418.400000
10521 15781 10810 1 109.50000 418.400000
10809 15781 10810 1 109.50000 418.400000
1894 15782 2390 1 109.50000 418.400000
1894 15782 6700 1 109.50000 418.400000
1894 15782 8457 1 109.50000 418.400000
2390 15782 6700 1 109.50000 418.400000
2390 15782 8457 1 109.50000 418.400000
6700 15782 8457 1 109.50000 418.400000
3622 15783 3662 1 109.50000 418.400000
3622 15783 6627 1 109.50000 418.400000
3622 15783 9615 1 109.50000 418.400000
3662 15783 6627 1 109.50000 418.400000
3662 15783 9615 1 109.50000 418.400000
6627 15783 9615 1 109.50000 418.400000
988 15784 6614 1 109.50000 418.400000
988 15784 9531 1 109.50000 418.400000
988 15784 10811 1 109.50000 418.400000
6614 15784 9531 1 109.50000 418.400000
6614 15784 10811 1 109.50000 418.400000
9531 15784 10811 1 109.50000 418.400000
6042 15785 6356 1 109.50000 418.400000
6042 15785 9834 1 109.50000 418.400000
6042 15785 10189 1 109.50000 418.400000
6356 15785 9834 1 109.50000 418.400000
6356 15785 10189 1 109.50000 418.400000
9834 15785 10189 1 109.50000 418.400000
5379 15786 9715 1 109.50000 418.400000
5379 15786 10448 1 109.50000 418.400000
5379 15786 10812 1 109.50000 418.400000
9715 15786 10448 1 109.50000 418.400000
9715 15786 10812 1 109.50000 418.400000
10448 15786 10812 1 109.50000 418.400000
6517 15787 6519 1 109.50000 418.400000
6517 15787 7094 1 109.50000 418.400000
6517 15787 11327 1 109.50000 418.400000
6519 15787 7094 1 109.50000 418.400000
6519 15787 11327 1 109.50000 418.400000
7094 15787 11327 1 109.50000 418.400000
3581 15788 5810 1 109.50000 418.400000
3581 15788 9248 1 109.50000 418.400000
3581 15788 9416 1 109.50000 418.400000
5810 15788 9248 1 109.50000 418.400000
5810 15788 9416 1 109.50000 418.400000
9248 15788 9416 1 109.50000 418.400000
8138 15789 8514 1 109.50000 418.400000
8138 15789 9860 1 109.50000 418.400000
8138 15789 10324 1 109.50000 418.400000
8514 15789 9860 1 109.50000 418.400000
8514 15789 10324 1 109.50000 418.400000
9860 15789 10324 1 109.50000 418.400000
6826 15790 7396 1 109.50000 418.400000
6826 15790 10105 1 109.50000 418.400000
6826 15790 10813 1 109.50000 418.400000
7396 15790 10105 1 109.50000 418.400000
7396 15790 10813 1 109.50000 418.400000
10105 15790 10813 1 109.50000 418.400000
3689 15791 6670 1 109.50000 418.400000
3689 15791 9731 1 109.50000 418.400000
3689 15791 10200 1 109.50000 418.400000
6670 15791 9731 1 109.50000 418.400000
6670 15791 10200 1 109.50000 418.400000
9731 15791 10200 1 109.50000 418.400000
7387 15792 8750 1 109.50000 418.400000
7387 15792 10541 1 109.50000 418.400000
7387 15792 10725 1 109.50000 418.400000
8750 15792 10541 1 109.50000 418.400000
8750 15792 10725 1 109.50000 418.400000
10541 15792 10725 1 109.50000 418.400000
7 15793 7221 1 109.50000 418.400000
7 15793 10404 1 109.50000 418.400000
7 15793 10667 1 109.50000 418.400000
7221 15793 10404 1 109.50000 418.400000
7221 15793 10667 1 109.50000 418.400000
10404 15793 10667 1 109.50000 418.400000
802 15794 4611 1 109.50000 418.400000
802 15794 8038 1 109.50000 418.400000
802 15794 10472 1 109.50000 418.400000
4611 15794 8038 1 109.50000 418.400000
4611 15794 10472 1 109.50000 418.400000
8038 15794 10472 1 109.50000 418.400000
1122 15795 6507 1 109.50000 418.400000
1122 15795 10259 1 109.50000 418.400000
1122 15795 10815 1 109.50000 418.400000
6507 15795 10259 1 109.50000 418.400000
6507 15795 10815 1 109.50000 418.400000
10259 15795 10815 1 109.50000 418.400000
2016 15796 4308 1 109.50000 418.400000
2016 15796 9290 1 109.50000 418.400000
2016 15796 10816 1 109.50000 418.400000
4308 15796 9290 1 109.50000 418.400000
4308 15796 10816 1 109.50000 418.400000
9290 15796 10816 1 109.50000 418.400000
1349 15797 3639 1 109.50000 418.400000
1349 15797 5176 1 109.50000 418.400000
1349 15797 9973 1 109.50000 418.400000
3639 15797 5176 1 109.50000 418.400000
3639 15797 9973 1 109.50000 418.400000
5176 15797 9973 1 109.50000 418.400000
6223 15798 8596 1 109.50000 418.400000
6223 15798 10817 1 109.50000 418.400000
6223 15798 10818 1 109.50000 418.400000
8596 15798 10817 1 109.50000 418.400000
8596 15798 10818 1 109.50000 418.400000
10817 15798 10818 1 109.50000 418.400000
1895 15799 9507 1 109.50000 418.400000
1895 15799 9984 1 109.50000 418.400000
1895 15799 10161 1 109.50000 418.400000
9507 15799 9984 1 109.50000 418.400000
9507 15799 10161 1 109.50000 418.400000
9984 15799 10161 1 109.50000 418.400000
2754 15800 5618 1 109.50000 418.400000
2754 15800 8708 1 109.50000 418.400000
2754 15800 10819 1 109.50000 418.400000
5618 15800 8708 1 109.50000 418.400000
5618 15800 10819 1 109.50000 418.400000
8708 15800 10819 1 109.50000 418.400000
6745 15801 9154 1 109.50000 418.400000
6745 15801 9391 1 109.50000 418.400000
6745 15801 10100 1 109.50000 418.400000
9154 15801 9391 1 109.50000 418.400000
9154 15801 10100 1 109.50000 418.400000
9391 15801 10100 1 109.50000 418.400000
540 15802 835 1 109.50000 418.400000
540 15802 10231 1 109.50000 418.400000
540 15802 10820 1 109.50000 418.400000
835 15802 10231 1 109.50000 418.400000
835 15802 10820 1 109.50000 418.400000
10231 15802 10820 1 109.50000 418.400000
211 15803 2609 1 109.50000 418.400000
211 15803 7355 1 109.50000 418.400000
211 15803 9361 1 109.50000 418.400000
2609 15803 7355 1 109.50000 418.400000
2609 15803 9361 1 109.50000 418.400000
7355 15803 9361 1 109.50000 418.400000
1612 15804 1838 1 109.50000 418.400000
1612 15804 4372 1 109.50000 418.400000
1612 15804 6162 1 109.50000 418.400000
1838 15804 4372 1 109.50000 418.400000
1838 15804 6162 1 109.50000 418.400000
4372 15804 6162 1 109.50000 418.400000
532 15805 5600 1 109.50000 418.400000
532 15805 6344 1 109.50000 418.400000
532 15805 6360 1 109.50000 418.400000
5600 15805 6344 1 109.50000 418.400000
5600 15805 6360 1 109.50000 418.400000
6344 15805 6360 1 109.50000 418.400000
9306 15806 9594 1 109.50000 418.400000
9306 15806 10823 1 109.50000 418.400000
9306 15806 10824 1 109.50000 418.400000
9594 15806 10823 1 109.50000 418.400000
9594 15806 10824 1 109.50000 418.400000
10823 15806 10824 1 109.50000 418.400000
6272 15807 9914 1 109.50000 418.400000
6272 15807 10479 1 109.50000 418.400000
6272 15807 10825 1 109.50000 418.400000
9914 15807 10479 1 109.50000 418.400000
9914 15807 10825 1 109.50000 418.400000
10479 15807 10825 1 109.50000 418.400000
2635 15808 3456 1 109.50000 418.400000
2635 15808 9961 1 109.50000 418.400000
2635 15808 10826 1 109.50000 418.400000
3456 15808 9961 1 109.50000 418.400000
3456 15808 10826 1 109.50000 418.400000
9961 15808 10826 1 109.50000 418.400000
3276 15809 6908 1 109.50000 418.400000
3276 15809 8179 1 109.50000 418.400000
3276 15809 10546 1 109.50000 418.400000
6908 15809 8179 1 109.50000 418.400000
6908 15809 10546 1 109.50000 418.400000
8179 15809 10546 1 109.50000 418.400000
4781 15810 4783 1 109.50000 418.400000
4781 15810 9045 1 109.50000 418.400000
4781 15810 10720 1 109.50000 418.400000
4783 15810 9045 1 109.50000 418.400000
4783 15810 10720 1 109.50000 418.400000
9045 15810 10720 1 109.50000 418.400000
6605 15811 7983 1 109.50000 418.400000
6605 15811 9637 1 109.50000 418.400000
6605 15811 10499 1 109.50000 418.400000
7983 15811 9637 1 109.50000 418.400000
7983 15811 10499 1 109.50000 418.400000
9637 15811 10499 1 109.50000 418.400000
2493 15812 10813 1 109.50000 418.400000
2493 15812 10827 1 109.50000 418.400000
2493 15812 11297 1 109.50000 418.400000
10813 15812 10827 1 109.50000 418.400000
10813 15812 11297 1 109.50000 418.400000
10827 15812 11297 1 109.50000 418.400000
1411 15813 4673 1 109.50000 418.400000
1411 15813 6860 1 109.50000 418.400000
1411 15813 8689 1 109.50000 418.400000
4673 15813 6860 1 109.50000 418.400000
4673 15813 8689 1 109.50000 418.400000
6860 15813 8689 1 109.50000 418.400000
5252 15814 6953 1 109.50000 418.400000
5252 15814 7774 1 109.50000 418.400000
5252 15814 7776 1 109.50000 418.400000
6953 15814 7774 1 109.50000 418.400000
6953 15814 7776 1 109.50000 418.400000
7774 15814 7776 1 109.50000 418.400000
5153 15815 9356 1 109.50000 418.400000
5153 15815 10268 1 109.50000 418.400000
5153 15815 10588 1 109.50000 418.400000
9356 15815 10268 1 109.50000 418.400000
9356 15815 10588 1 109.50000 418.400000
10268 15815 10588 1 109.50000 418.400000
1023 15816 4198 1 109.50000 418.400000
1023 15816 5365 1 109.50000 418.400000
1023 15816 6261 1 109.50000 418.400000
4198 15816 5365 1 109.50000 418.400000
4198 15816 6261 1 109.50000 418.400000
5365 15816 6261 1 109.50000 418.400000
874 15817 7003 1 109.50000 418.400000
874 15817 7121 1 109.50000 418.400000
874 15817 7760 1 109.50000 418.400000
7003 15817 7121 1 109.50000 418.400000
7003 15817 7760 1 109.50000 418.400000
7121 15817 7760 1 109.50000 418.400000
4450 15818 9493 1 109.50000 418.400000
4450 15818 9517 1 109.50000 418.400000
4450 15818 10829 1 109.50000 418.400000
9493 15818 9517 1 109.50000 418.400000
9493 15818 10829 1 109.50000 418.400000
9517 15818 10829 1 109.50000 418.400000
2516 15819 2744 1 109.50000 418.400000
2516 15819 9283 1 109.50000 418.400000
2516 15819 9795 1 109.50000 418.400000
2744 15819 9283 1 109.50000 418.400000
2744 15819 9795 1 109.50000 418.400000
9283 15819 9795 1 109.50000 418.400000
2949 15820 5368 1 109.50000 418.400000
2949 15820 9710 1 109.50000 418.400000
2949 15820 9728 1 109.50000 418.400000
5368 15820 9710 1 109.50000 418.400000
5368 15820 9728 1 109.50000 418.400000
9710 15820 9728 1 109.50000 418.400000
4573 15821 5767 1 109.50000 418.400000
4573 15821 7701 1 109.50000 418.400000
4573 15821 10830 1 109.50000 418.400000
5767 15821 7701 1 109.50000 418.400000
5767 15821 10830 1 109.50000 418.400000
7701 15821 10830 1 109.50000 418.400000
2992 15822 2993 1 109.50000 418.400000
2992 15822 2994 1 109.50000 418.400000
2992 15822 2995 1 109.50000 418.400000
2993 15822 2994 1 109.50000 418.400000
2993 15822 2995 1 109.50000 418.400000
2994 15822 2995 1 109.50000 418.400000
1060 15823 1062 1 109.50000 418.400000
1060 15823 9158 1 109.50000 418.400000
1060 15823 9327 1 109.50000 418.400000
1062 15823 9158 1 109.50000 418.400000
1062 15823 9327 1 109.50000 418.400000
9158 15823 9327 1 109.50000 418.400000
9258 15824 9632 1 109.50000 418.400000
9258 15824 9633 1 109.50000 418.400000
9258 15824 10831 1 109.50000 418.400000
9632 15824 9633 1 109.50000 418.400000
9632 15824 10831 1 109.50000 418.400000
9633 15824 10831 1 109.50000 418.400000
613 15825 9277 1 109.50000 418.400000
613 15825 10785 1 109.50000 418.400000
613 15825 10832 1 109.50000 418.400000
9277 15825 10785 1 109.50000 418.400000
9277 15825 10832 1 109.50000 418.400000
10785 15825 10832 1 109.50000 418.400000
3624 15826 3625 1 109.50000 418.400000
3624 15826 5320 1 109.50000 418.400000
3624 15826 7063 1 109.50000 418.400000
3625 15826 5320 1 109.50000 418.400000
3625 15826 7063 1 109.50000 418.400000
5320 15826 7063 1 109.50000 418.400000
1713 15827 9018 1 109.50000 418.400000
1713 15827 10491 1 109.50000 418.400000
1713 15827 10833 1 109.50000 418.400000
9018 15827 10491 1 109.50000 418.400000
9018 15827 10833 1 109.50000 418.400000
10491 15827 10833 1 109.50000 418.400000
2779 15828 6399 1 109.50000 418.400000
2779 15828 9815 1 109.50000 418.400000
2779 15828 10392 1 109.50000 418.400000
6399 15828 9815 1 109.50000 418.400000
6399 15828 10392 1 109.50000 418.400000
9815 15828 10392 1 109.50000 418.400000
6455 15829 8047 1 109.50000 418.400000
6455 15829 10834 1 109.50000 418.400000
6455 15829 10835 1 109.50000 418.400000
8047 15829 10834 1 109.50000 418.400000
8047 15829 10835 1 109.50000 418.400000
10834 15829 10835 1 109.50000 418.400000
2702 15830 6941 1 109.50000 418.400000
2702 15830 8650 1 109.50000 418.400000
2702 15830 10787 1 109.50000 418.400000
6941 15830 8650 1 109.50000 418.400000
6941 15830 10787 1 109.50000 418.400000
8650 15830 10787 1 109.50000 418.400000
2688 15831 4833 1 109.50000 418.400000
2688 15831 10836 1 109.50000 418.400000
2688 15831 10837 1 109.50000 418.400000
4833 15831 10836 1 109.50000 418.400000
4833 15831 10837 1 109.50000 418.400000
10836 15831 10837 1 109.50000 418.400000
7289 15832 7291 1 109.50000 418.400000
7289 15832 9510 1 109.50000 418.400000
7289 15832 10838 1 109.50000 418.400000
7291 15832 9510 1 109.50000 418.400000
7291 15832 10838 1 109.50000 418.400000
9510 15832 10838 1 109.50000 418.400000
2649 15833 8048 1 109.50000 418.400000
2649 15833 8580 1 109.50000 418.400000
2649 15833 9272 1 109.50000 418.400000
8048 15833 8580 1 109.50000 418.400000
8048 15833 9272 1 109.50000 418.400000
8580 15833 9272 1 109.50000 418.400000
4501 15834 10840 1 109.50000 418.400000
4501 15834 10841 1 109.50000 418.400000
4501 15834 11338 1 109.50000 418.400000
10840 15834 10841 1 109.50000 418.400000
10840 15834 11338 1 109.50000 418.400000
10841 15834 11338 1 109.50000 418.400000
4612 15835 7935 1 109.50000 418.400000
4612 15835 10842 1 109.50000 418.400000
4612 15835 10843 1 109.50000 418.400000
7935 15835 10842 1 109.50000 418.400000
7935 15835 10843 1 109.50000 418.400000
10842 15835 10843 1 109.50000 418.400000
4527 15836 8423 1 109.50000 418.400000
4527 15836 10339 1 109.50000 418.400000
4527 15836 10340 1 109.50000 418.400000
8423 15836 10339 1 109.50000 418.400000
8423 15836 10340 1 109.50000 418.400000
10339 15836 10340 1 109.50000 418.400000
5082 15837 6147 1 109.50000 418.400000
5082 15837 9168 1 109.50000 418.400000
5082 15837 10701 1 109.50000 418.400000
6147 15837 9168 1 109.50000 418.400000
6147 15837 10701 1 109.50000 418.400000
9168 15837 10701 1 109.50000 418.400000
2548 15838 8998 1 109.50000 418.400000
2548 15838 9337 1 109.50000 418.400000
2548 15838 10844 1 109.50000 418.400000
8998 15838 9337 1 109.50000 418.400000
8998 15838 10844 1 109.50000 418.400000
9337 15838 10844 1 109.50000 418.400000
1573 15839 9266 1 109.50000 418.400000
1573 15839 10845 1 109.50000 418.400000
1573 15839 10846 1 109.50000 418.400000
9266 15839 10845 1 109.50000 418.400000
9266 15839 10846 1 109.50000 418.400000
10845 15839 10846 1 109.50000 418.400000
1942 15840 6428 1 109.50000 418.400000
1942 15840 9150 1 109.50000 418.400000
1942 15840 10847 1 109.50000 418.400000
6428 15840 9150 1 109.50000 418.400000
6428 15840 10847 1 109.50000 418.400000
9150 15840 10847 1 109.50000 418.400000
1973 15841 1974 1 109.50000 418.400000
1973 15841 10405 1 109.50000 418.400000
1973 15841 10773 1 109.50000 418.400000
1974 15841 10405 1 109.50000 418.400000
1974 15841 10773 1 109.50000 418.400000
10405 15841 10773 1 109.50000 418.400000
6475 15842 6744 1 109.50000 418.400000
6475 15842 10710 1 109.50000 418.400000
6475 15842 10848 1 109.50000 418.400000
6744 15842 10710 1 109.50000 418.400000
6744 15842 10848 1 109.50000 418.400000
10710 15842 10848 1 109.50000 418.400000
3254 15843 5660 1 109.50000 418.400000
3254 15843 6674 1 109.50000 418.400000
3254 15843 10731 1 109.50000 418.400000
5660 15843 6674 1 109.50000 418.400000
5660 15843 10731 1 109.50000 418.400000
6674 15843 10731 1 109.50000 418.400000
434 15844 8884 1 109.50000 418.400000
434 15844 9954 1 109.50000 418.400000
434 15844 10564 1 109.50000 418.400000
8884 15844 9954 1 109.50000 418.400000
8884 15844 10564 1 109.50000 418.400000
9954 15844 10564 1 109.50000 418.400000
76 15845 2970 1 109.50000 418.400000
76 15845 5209 1 109.50000 418.400000
76 15845 10849 1 109.50000 418.400000
2970 15845 5209 1 109.50000 418.400000
2970 15845 10849 1 109.50000 418.400000
5209 15845 10849 1 109.50000 418.400000
7024 15846 7076 1 109.50000 418.400000
7024 15846 9866 1 109.50000 418.400000
7024 15846 10267 1 109.50000 418.400000
7076 15846 9866 1 109.50000 418.400000
7076 15846 10267 1 109.50000 418.400000
9866 15846 10267 1 109.50000 418.400000
632 15847 3895 1 109.50000 418.400000
632 15847 10192 1 109.50000 418.400000
632 15847 10839 1 109.50000 418.400000
3895 15847 10192 1 109.50000 418.400000
3895 15847 10839 1 109.50000 418.400000
10192 15847 10839 1 109.50000 418.400000
4929 15848 10286 1 109.50000 418.400000
4929 15848 10500 1 109.50000 418.400000
4929 15848 11293 1 109.50000 418.400000
10286 15848 10500 1 109.50000 418.400000
10286 15848 11293 1 109.50000 418.400000
10500 15848 11293 1 109.50000 418.400000
89 15849 929 1 109.50000 418.400000
89 15849 4657 1 109.50000 418.400000
89 15849 10708 1 109.50000 418.400000
929 15849 4657 1 109.50000 418.400000
929 15849 10708 1 109.50000 418.400000
4657 15849 10708 1 109.50000 418.400000
3050 15850 5924 1 109.50000 418.400000
3050 15850 7157 1 109.50000 418.400000
3050 15850 9365 1 109.50000 418.400000
5924 15850 7157 1 109.50000 418.400000
5924 15850 9365 1 109.50000 418.400000
7157 15850 9365 1 109.50000 418.400000
764 15851 2808 1 109.50000 418.400000
764 15851 10850 1 109.50000 418.400000
764 15851 10851 1 109.50000 418.400000
2808 15851 10850 1 109.50000 418.400000
2808 15851 10851 1 109.50000 418.400000
10850 15851 10851 1 109.50000 418.400000
444 15852 1081 1 109.50000 418.400000
444 15852 6772 1 109.50000 418.400000
444 15852 10470 1 109.50000 418.400000
1081 15852 6772 1 109.50000 418.400000
1081 15852 10470 1 109.50000 418.400000
6772 15852 10470 1 109.50000 418.400000
3287 15853 6885 1 109.50000 418.400000
3287 15853 9951 1 109.50000 418.400000
3287 15853 10178 1 109.50000 418.400000
6885 15853 9951 1 109.50000 418.400000
6885 15853 10178 1 109.50000 418.400000
9951 15853 10178 1 109.50000 418.400000
1754 15854 3370 1 109.50000 418.400000
1754 15854 4968 1 109.50000 418.400000
1754 15854 9407 1 109.50000 418.400000
3370 15854 4968 1 109.50000 418.400000
3370 15854 9407 1 109.50000 418.400000
4968 15854 9407 1 109.50000 418.400000
55 15855 8096 1 109.50000 418.400000
55 15855 10658 1 109.50000 418.400000
55 15855 10852 1 109.50000 418.400000
8096 15855 10658 1 109.50000 418.400000
8096 15855 10852 1 109.50000 418.400000
10658 15855 10852 1 109.50000 418.400000
7997 15856 8736 1 109.50000 418.400000
7997 15856 10066 1 109.50000 418.400000
7997 15856 10853 1 109.50000 418.400000
8736 15856 10066 1 109.50000 418.400000
8736 15856 10853 1 109.50000 418.400000
10066 15856 10853 1 109.50000 418.400000
9560 15857 9685 1 109.50000 418.400000
9560 15857 10854 1 109.50000 418.400000
9560 15857 10901 1 109.50000 418.400000
9685 15857 10854 1 109.50000 418.400000
9685 15857 10901 1 109.50000 418.400000
10854 15857 10901 1 109.50000 418.400000
4159 15858 5857 1 109.50000 418.400000
4159 15858 6855 1 109.50000 418.400000
4159 15858 10855 1 109.50000 418.400000
5857 15858 6855 1 109.50000 418.400000
5857 15858 10855 1 109.50000 418.400000
6855 15858 10855 1 109.50000 418.400000
4066 15859 4067 1 109.50000 418.400000
4066 15859 8150 1 109.50000 418.400000
4066 15859 8440 1 109.50000 418.400000
4067 15859 8150 1 109.50000 418.400000
4067 15859 8440 1 109.50000 418.400000
8150 15859 8440 1 109.50000 418.400000
4379 15860 8713 1 109.50000 418.400000
4379 15860 10856 1 109.50000 418.400000
4379 15860 10857 1 109.50000 418.400000
8713 15860 10856 1 109.50000 418.400000
8713 15860 10857 1 109.50000 418.400000
10856 15860 10857 1 109.50000 418.400000
665 15861 666 1 109.50000 418.400000
665 15861 5447 1 109.50000 418.400000
665 15861 10859 1 109.50000 418.400000
666 15861 5447 1 109.50000 418.400000
666 15861 10859 1 109.50000 418.400000
5447 15861 10859 1 109.50000 418.400000
10300 15862 10302 1 109.50000 418.400000
10300 15862 10860 1 109.50000 418.400000
10300 15862 10861 1 109.50000 418.400000
10302 15862 10860 1 109.50000 418.400000
10302 15862 10861 1 109.50000 418.400000
10860 15862 10861 1 109.50000 418.400000
319 15863 839 1 109.50000 418.400000
319 15863 7000 1 109.50000 418.400000
319 15863 10145 1 109.50000 418.400000
839 15863 7000 1 109.50000 418.400000
839 15863 10145 1 109.50000 418.400000
7000 15863 10145 1 109.50000 418.400000
6391 15864 7276 1 109.50000 418.400000
6391 15864 9687 1 109.50000 418.400000
6391 15864 10859 1 109.50000 418.400000
7276 15864 9687 1 109.50000 418.400000
7276 15864 10859 1 109.50000 418.400000
9687 15864 10859 1 109.50000 418.400000
2689 15865 7068 1 109.50000 418.400000
2689 15865 8826 1 109.50000 418.400000
2689 15865 10862 1 109.50000 418.400000
7068 15865 8826 1 109.50000 418.400000
7068 15865 10862 1 109.50000 418.400000
8826 15865 10862 1 109.50000 418.400000
2682 15866 2683 1 109.50000 418.400000
2682 15866 3534 1 109.50000 418.400000
2682 15866 4979 1 109.50000 418.400000
2683 15866 3534 1 109.50000 418.400000
2683 15866 4979 1 109.50000 418.400000
3534 15866 4979 1 109.50000 418.400000
1760 15867 8105 1 109.50000 418.400000
1760 15867 9004 1 109.50000 418.400000
1760 15867 11201 1 109.50000 418.400000
8105 15867 9004 1 109.50000 418.400000
8105 15867 11201 1 109.50000 418.400000
9004 15867 11201 1 109.50000 418.400000
554 15868 2181 1 109.50000 418.400000
554 15868 6780 1 109.50000 418.400000
554 15868 10863 1 109.50000 418.400000
2181 15868 6780 1 109.50000 418.400000
2181 15868 10863 1 109.50000 418.400000
6780 15868 10863 1 109.50000 418.400000
3 15869 2221 1 109.50000 418.400000
3 15869 2491 1 109.50000 418.400000
3 15869 5872 1 109.50000 418.400000
2221 15869 2491 1 109.50000 418.400000
2221 15869 5872 1 109.50000 418.400000
2491 15869 5872 1 109.50000 418.400000
1389 15870 2641 1 109.50000 418.400000
1389 15870 7408 1 109.50000 418.400000
1389 15870 7410 1 109.50000 418.400000
2641 15870 7408 1 109.50000 418.400000
2641 15870 7410 1 109.50000 418.400000
7408 15870 7410 1 109.50000 418.400000
8449 15871 8450 1 109.50000 418.400000
8449 15871 9655 1 109.50000 418.400000
8449 15871 9656 1 109.50000 418.400000
8450 15871 9655 1 109.50000 418.400000
8450 15871 9656 1 109.50000 418.400000
9655 15871 9656 1 109.50000 418.400000
6684 15872 8316 1 109.50000 418.400000
6684 15872 10209 1 109.50000 418.400000
6684 15872 10865 1 109.50000 418.400000
8316 15872 10209 1 109.50000 418.400000
8316 15872 10865 1 109.50000 418.400000
10209 15872 10865 1 109.50000 418.400000
5516 15873 6417 1 109.50000 418.400000
5516 15873 6418 1 109.50000 418.400000
5516 15873 6795 1 109.50000 418.400000
6417 15873 6418 1 109.50000 418.400000
6417 15873 6795 1 109.50000 418.400000
6418 15873 6795 1 109.50000 418.400000
6045 15874 6856 1 109.50000 418.400000
6045 15874 7588 1 109.50000 418.400000
6045 15874 8284 1 109.50000 418.400000
6856 15874 7588 1 109.50000 418.400000
6856 15874 8284 1 109.50000 418.400000
7588 15874 8284 1 109.50000 418.400000
9876 15875 9977 1 109.50000 418.400000
9876 15875 10349 1 109.50000 418.400000
9876 15875 10870 1 109.50000 418.400000
9977 15875 10349 1 109.50000 418.400000
9977 15875 10870 1 109.50000 418.400000
10349 15875 10870 1 109.50000 418.400000
8597 15876 8932 1 109.50000 418.400000
8597 15876 9397 1 109.50000 418.400000
8597 15876 9472 1 109.50000 418.400000
8932 15876 9397 1 109.50000 418.400000
8932 15876 9472 1 109.50000 418.400000
9397 15876 9472 1 109.50000 418.400000
7461 15877 7814 1 109.50000 418.400000
7461 15877 10212 1 109.50000 418.400000
7461 15877 10753 1 109.50000 418.400000
7814 15877 10212 1 109.50000 418.400000
7814 15877 10753 1 109.50000 418.400000
10212 15877 10753 1 109.50000 418.400000
2751 15878 6833 1 109.50000 418.400000
2751 15878 10381 1 109.50000 418.400000
2751 15878 10539 1 109.50000 418.400000
6833 15878 10381 1 109.50000 418.400000
6833 15878 10539 1 109.50000 418.400000
10381 15878 10539 1 109.50000 418.400000
2636 15879 4620 1 109.50000 418.400000
2636 15879 5686 1 109.50000 418.400000
2636 15879 10771 1 109.50000 418.400000
4620 15879 5686 1 109.50000 418.400000
4620 15879 10771 1 109.50000 418.400000
5686 15879 10771 1 109.50000 418.400000
2507 15880 4879 1 109.50000 418.400000
2507 15880 9747 1 109.50000 418.400000
2507 15880 10768 1 109.50000 418.400000
4879 15880 9747 1 109.50000 418.400000
4879 15880 10768 1 109.50000 418.400000
9747 15880 10768 1 109.50000 418.400000
7644 15881 7645 1 109.50000 418.400000
7644 15881 10534 1 109.50000 418.400000
7644 15881 10871 1 109.50000 418.400000
7645 15881 10534 1 109.50000 418.400000
7645 15881 10871 1 109.50000 418.400000
10534 15881 10871 1 109.50000 418.400000
10437 15882 10873 1 109.50000 418.400000
10437 15882 10874 1 109.50000 418.400000
10437 15882 11231 1 109.50000 418.400000
10873 15882 10874 1 109.50000 418.400000
10873 15882 11231 1 109.50000 418.400000
10874 15882 11231 1 109.50000 418.400000
8723 15883 9467 1 109.50000 418.400000
8723 15883 10774 1 109.50000 418.400000
8723 15883 10875 1 109.50000 418.400000
9467 15883 10774 1 109.50000 418.400000
9467 15883 10875 1 109.50000 418.400000
10774 15883 10875 1 109.50000 418.400000
5409 15884 6266 1 109.50000 418.400000
5409 15884 10241 1 109.50000 418.400000
5409 15884 10876 1 109.50000 418.400000
6266 15884 10241 1 109.50000 418.400000
6266 15884 10876 1 109.50000 418.400000
10241 15884 10876 1 109.50000 418.400000
3211 15885 10459 1 109.50000 418.400000
3211 15885 10698 1 109.50000 418.400000
3211 15885 10749 1 109.50000 418.400000
10459 15885 10698 1 109.50000 418.400000
10459 15885 10749 1 109.50000 418.400000
10698 15885 10749 1 109.50000 418.400000
3099 15886 7458 1 109.50000 418.400000
3099 15886 8901 1 109.50000 418.400000
3099 15886 9649 1 109.50000 418.400000
7458 15886 8901 1 109.50000 418.400000
7458 15886 9649 1 109.50000 418.400000
8901 15886 9649 1 109.50000 418.400000
6632 15887 8328 1 109.50000 418.400000
6632 15887 8761 1 109.50000 418.400000
6632 15887 10828 1 109.50000 418.400000
8328 15887 8761 1 109.50000 418.400000
8328 15887 10828 1 109.50000 418.400000
8761 15887 10828 1 109.50000 418.400000
688 15888 6412 1 109.50000 418.400000
688 15888 6413 1 109.50000 418.400000
688 15888 6414 1 109.50000 418.400000
6412 15888 6413 1 109.50000 418.400000
6412 15888 6414 1 109.50000 418.400000
6413 15888 6414 1 109.50000 418.400000
112 15889 2871 1 109.50000 418.400000
112 15889 10878 1 109.50000 418.400000
112 15889 10879 1 109.50000 418.400000
2871 15889 10878 1 109.50000 418.400000
2871 15889 10879 1 109.50000 418.400000
10878 15889 10879 1 109.50000 418.400000
3158 15890 7183 1 109.50000 418.400000
3158 15890 10184 1 109.50000 418.400000
3158 15890 10880 1 109.50000 418.400000
7183 15890 10184 1 109.50000 418.400000
7183 15890 10880 1 109.50000 418.400000
10184 15890 10880 1 109.50000 418.400000
1498 15891 4158 1 109.50000 418.400000
1498 15891 10060 1 109.50000 418.400000
1498 15891 10881 1 109.50000 418.400000
4158 15891 10060 1 109.50000 418.400000
4158 15891 10881 1 109.50000 418.400000
10060 15891 10881 1 109.50000 418.400000
6411 15892 8063 1 109.50000 418.400000
6411 15892 8344 1 109.50000 418.400000
6411 15892 8830 1 109.50000 418.400000
8063 15892 8344 1 109.50000 418.400000
8063 15892 8830 1 109.50000 418.400000
8344 15892 8830 1 109.50000 418.400000
536 15893 3497 1 109.50000 418.400000
536 15893 7195 1 109.50000 418.400000
536 15893 8572 1 109.50000 418.400000
3497 15893 7195 1 109.50000 418.400000
3497 15893 8572 1 109.50000 418.400000
7195 15893 8572 1 109.50000 418.400000
2196 15894 2308 1 109.50000 418.400000
2196 15894 4635 1 109.50000 418.400000
2196 15894 10882 1 109.50000 418.400000
2308 15894 4635 1 109.50000 418.400000
2308 15894 10882 1 109.50000 418.400000
4635 15894 10882 1 109.50000 418.400000
8679 15895 8680 1 109.50000 418.400000
8679 15895 10883 1 109.50000 418.400000
8679 15895 10885 1 109.50000 418.400000
8680 15895 10883 1 109.50000 418.400000
8680 15895 10885 1 109.50000 418.400000
10883 15895 10885 1 109.50000 418.400000
240 15896 6907 1 109.50000 418.400000
240 15896 10718 1 109.50000 418.400000
240 15896 10886 1 109.50000 418.400000
6907 15896 10718 1 109.50000 418.400000
6907 15896 10886 1 109.50000 418.400000
10718 15896 10886 1 109.50000 418.400000
4333 15897 6286 1 109.50000 418.400000
4333 15897 7937 1 109.50000 418.400000
4333 15897 10575 1 109.50000 418.400000
6286 15897 7937 1 109.50000 418.400000
6286 15897 10575 1 109.50000 418.400000
7937 15897 10575 1 109.50000 418.400000
1674 15898 6466 1 109.50000 418.400000
1674 15898 8379 1 109.50000 418.400000
1674 15898 10390 1 109.50000 418.400000
6466 15898 8379 1 109.50000 418.400000
6466 15898 10390 1 109.50000 418.400000
8379 15898 10390 1 109.50000 418.400000
2407 15899 6119 1 109.50000 418.400000
2407 15899 9161 1 109.50000 418.400000
2407 15899 10464 1 109.50000 418.400000
6119 15899 9161 1 109.50000 418.400000
6119 15899 10464 1 109.50000 418.400000
9161 15899 10464 1 109.50000 418.400000
681 15900 1046 1 109.50000 418.400000
681 15900 7032 1 109.50000 418.400000
681 15900 9532 1 109.50000 418.400000
1046 15900 7032 1 109.50000 418.400000
1046 15900 9532 1 109.50000 418.400000
7032 15900 9532 1 109.50000 418.400000
2152 15901 5190 1 109.50000 418.400000
2152 15901 8272 1 109.50000 418.400000
2152 15901 10882 1 109.50000 418.400000
5190 15901 8272 1 109.50000 418.400000
5190 15901 10882 1 109.50000 418.400000
8272 15901 10882 1 109.50000 418.400000
8032 15902 9905 1 109.50000 418.400000
8032 15902 10644 1 109.50000 418.400000
8032 15902 10888 1 109.50000 418.400000
9905 15902 10644 1 109.50000 418.400000
9905 15902 10888 1 109.50000 418.400000
10644 15902 10888 1 109.50000 418.400000
970 15903 7607 1 109.50000 418.400000
970 15903 10240 1 109.50000 418.400000
970 15903 10889 1 109.50000 418.400000
7607 15903 10240 1 109.50000 418.400000
7607 15903 10889 1 109.50000 418.400000
10240 15903 10889 1 109.50000 418.400000
8887 15904 9233 1 109.50000 418.400000
8887 15904 10089 1 109.50000 418.400000
8887 15904 10890 1 109.50000 418.400000
9233 15904 10089 1 109.50000 418.400000
9233 15904 10890 1 109.50000 418.400000
10089 15904 10890 1 109.50000 418.400000
4694 15905 5411 1 109.50000 418.400000
4694 15905 7096 1 109.50000 418.400000
4694 15905 9232 1 109.50000 418.400000
5411 15905 7096 1 109.50000 418.400000
5411 15905 9232 1 109.50000 418.400000
7096 15905 9232 1 109.50000 418.400000
262 15906 9690 1 109.50000 418.400000
262 15906 10891 1 109.50000 418.400000
262 15906 11395 1 109.50000 418.400000
9690 15906 10891 1 109.50000 418.400000
9690 15906 11395 1 109.50000 418.400000
10891 15906 11395 1 109.50000 418.400000
9719 15907 10892 1 109.50000 418.400000
9719 15907 10893 1 109.50000 418.400000
9719 15907 10894 1 109.50000 418.400000
10892 15907 10893 1 109.50000 418.400000
10892 15907 10894 1 109.50000 418.400000
10893 15907 10894 1 109.50000 418.400000
5738 15908 7691 1 109.50000 418.400000
5738 15908 10772 1 109.50000 418.400000
5738 15908 10895 1 109.50000 418.400000
7691 15908 10772 1 109.50000 418.400000
7691 15908 10895 1 109.50000 418.400000
10772 15908 10895 1 109.50000 418.400000
6296 15909 7705 1 109.50000 418.400000
6296 15909 7886 1 109.50000 418.400000
6296 15909 10321 1 109.50000 418.400000
7705 15909 7886 1 109.50000 418.400000
7705 15909 10321 1 109.50000 418.400000
7886 15909 10321 1 109.50000 418.400000
3462 15910 9082 1 109.50000 418.400000
3462 15910 9083 1 109.50000 418.400000
3462 15910 9911 1 109.50000 418.400000
9082 15910 9083 1 109.50000 418.400000
9082 15910 9911 1 109.50000 418.400000
9083 15910 9911 1 109.50000 418.400000
1137 15911 2092 1 109.50000 418.400000
1137 15911 9448 1 109.50000 418.400000
1137 15911 10896 1 109.50000 418.400000
2092 15911 9448 1 109.50000 418.400000
2092 15911 10896 1 109.50000 418.400000
9448 15911 10896 1 109.50000 418.400000
810 15912 811 1 109.50000 418.400000
810 15912 812 1 109.50000 418.400000
810 15912 813 1 109.50000 418.400000
811 15912 812 1 109.50000 418.400000
811 15912 813 1 109.50000 418.400000
812 15912 813 1 109.50000 418.400000
2927 15913 3343 1 109.50000 418.400000
2927 15913 4403 1 109.50000 418.400000
2927 15913 10416 1 109.50000 418.400000
3343 15913 4403 1 109.50000 418.400000
3343 15913 10416 1 109.50000 418.400000
4403 15913 10416 1 109.50000 418.400000
43 15914 2074 1 109.50000 418.400000
43 15914 8661 1 109.50000 418.400000
43 15914 9958 1 109.50000 418.400000
2074 15914 8661 1 109.50000 418.400000
2074 15914 9958 1 109.50000 418.400000
8661 15914 9958 1 109.50000 418.400000
1630 15915 5698 1 109.50000 418.400000
1630 15915 9236 1 109.50000 418.400000
1630 15915 10897 1 109.50000 418.400000
5698 15915 9236 1 109.50000 418.400000
5698 15915 10897 1 109.50000 418.400000
9236 15915 10897 1 109.50000 418.400000
4826 15916 9994 1 109.50000 418.400000
4826 15916 9995 1 109.50000 418.400000
4826 15916 10868 1 109.50000 418.400000
9994 15916 9995 1 109.50000 418.400000
9994 15916 10868 1 109.50000 418.400000
9995 15916 10868 1 109.50000 418.400000
6581 15917 10870 1 109.50000 418.400000
6581 15917 10898 1 109.50000 418.400000
6581 15917 10899 1 109.50000 418.400000
10870 15917 10898 1 109.50000 418.400000
10870 15917 10899 1 109.50000 418.400000
10898 15917 10899 1 109.50000 418.400000
1031 15918 8769 1 109.50000 418.400000
1031 15918 10865 1 109.50000 418.400000
1031 15918 10900 1 109.50000 418.400000
8769 15918 10865 1 109.50000 418.400000
8769 15918 10900 1 109.50000 418.400000
10865 15918 10900 1 109.50000 418.400000
8012 15919 9286 1 109.50000 418.400000
8012 15919 9606 1 109.50000 418.400000
8012 15919 9724 1 109.50000 418.400000
9286 15919 9606 1 109.50000 418.400000
9286 15919 9724 1 109.50000 418.400000
9606 15919 9724 1 109.50000 418.400000
1738 15920 1740 1 109.50000 418.400000
1738 15920 7174 1 109.50000 418.400000
1738 15920 10854 1 109.50000 418.400000
1740 15920 7174 1 109.50000 418.400000
1740 15920 10854 1 109.50000 418.400000
7174 15920 10854 1 109.50000 418.400000
1340 15921 4200 1 109.50000 418.400000
1340 15921 8003 1 109.50000 418.400000
1340 15921 8345 1 109.50000 418.400000
4200 15921 8003 1 109.50000 418.400000
4200 15921 8345 1 109.50000 418.400000
8003 15921 8345 1 109.50000 418.400000
7544 15922 9126 1 109.50000 418.400000
7544 15922 9296 1 109.50000 418.400000
7544 15922 10673 1 109.50000 418.400000
9126 15922 9296 1 109.50000 418.400000
9126 15922 10673 1 109.50000 418.400000
9296 15922 10673 1 109.50000 418.400000
3521 15923 5349 1 109.50000 418.400000
3521 15923 7816 1 109.50000 418.400000
3521 15923 8221 1 109.50000 418.400000
5349 15923 7816 1 109.50000 418.400000
5349 15923 8221 1 109.50000 418.400000
7816 15923 8221 1 109.50000 418.400000
8120 15924 8780 1 109.50000 418.400000
8120 15924 10855 1 109.50000 418.400000
8120 15924 10903 1 109.50000 418.400000
8780 15924 10855 1 109.50000 418.400000
8780 15924 10903 1 109.50000 418.400000
10855 15924 10903 1 109.50000 418.400000
942 15925 1593 1 109.50000 418.400000
942 15925 10403 1 109.50000 418.400000
942 15925 10779 1 109.50000 418.400000
1593 15925 10403 1 109.50000 418.400000
1593 15925 10779 1 109.50000 418.400000
10403 15925 10779 1 109.50000 418.400000
859 15926 6760 1 109.50000 418.400000
859 15926 10904 1 109.50000 418.400000
859 15926 10905 1 109.50000 418.400000
6760 15926 10904 1 109.50000 418.400000
6760 15926 10905 1 109.50000 418.400000
10904 15926 10905 1 109.50000 418.400000
494 15927 3029 1 109.50000 418.400000
494 15927 9585 1 109.50000 418.400000
494 15927 10906 1 109.50000 418.400000
3029 15927 9585 1 109.50000 418.400000
3029 15927 10906 1 109.50000 418.400000
9585 15927 10906 1 109.50000 418.400000
2110 15928 5221 1 109.50000 418.400000
2110 15928 10907 1 109.50000 418.400000
2110 15928 11185 1 109.50000 418.400000
5221 15928 10907 1 109.50000 418.400000
5221 15928 11185 1 109.50000 418.400000
10907 15928 11185 1 109.50000 418.400000
6158 15929 8858 1 109.50000 418.400000
6158 15929 9775 1 109.50000 418.400000
6158 15929 10908 1 109.50000 418.400000
8858 15929 9775 1 109.50000 418.400000
8858 15929 10908 1 109.50000 418.400000
9775 15929 10908 1 109.50000 418.400000
5473 15930 9104 1 109.50000 418.400000
5473 15930 9471 1 109.50000 418.400000
5473 15930 11241 1 109.50000 418.400000
9104 15930 9471 1 109.50000 418.400000
9104 15930 11241 1 109.50000 418.400000
9471 15930 11241 1 109.50000 418.400000
2969 15931 8399 1 109.50000 418.400000
2969 15931 10909 1 109.50000 418.400000
2969 15931 10910 1 109.50000 418.400000
8399 15931 10909 1 109.50000 418.400000
8399 15931 10910 1 109.50000 418.400000
10909 15931 10910 1 109.50000 418.400000
6480 15932 8869 1 109.50000 418.400000
6480 15932 10867 1 109.50000 418.400000
6480 15932 10912 1 109.50000 418.400000
8869 15932 10867 1 109.50000 418.400000
8869 15932 10912 1 109.50000 418.400000
10867 15932 10912 1 109.50000 418.400000
2790 15933 2799 1 109.50000 418.400000
2790 15933 4006 1 109.50000 418.400000
2790 15933 10617 1 109.50000 418.400000
2799 15933 4006 1 109.50000 418.400000
2799 15933 10617 1 109.50000 418.400000
4006 15933 10617 1 109.50000 418.400000
6330 15934 6891 1 109.50000 418.400000
6330 15934 9789 1 109.50000 418.400000
6330 15934 9819 1 109.50000 418.400000
6891 15934 9789 1 109.50000 418.400000
6891 15934 9819 1 109.50000 418.400000
9789 15934 9819 1 109.50000 418.400000
4697 15935 8967 1 109.50000 418.400000
4697 15935 10889 1 109.50000 418.400000
4697 15935 10914 1 109.50000 418.400000
8967 15935 10889 1 109.50000 418.400000
8967 15935 10914 1 109.50000 418.400000
10889 15935 10914 1 109.50000 418.400000
2103 15936 2411 1 109.50000 418.400000
2103 15936 8577 1 109.50000 418.400000
2103 15936 8706 1 109.50000 418.400000
2411 15936 8577 1 109.50000 418.400000
2411 15936 8706 1 109.50000 418.400000
8577 15936 8706 1 109.50000 418.400000
2102 15937 3651 1 109.50000 418.400000
2102 15937 5999 1 109.50000 418.400000
2102 15937 10884 1 109.50000 418.400000
3651 15937 5999 1 109.50000 418.400000
3651 15937 10884 1 109.50000 418.400000
5999 15937 10884 1 109.50000 418.400000
8911 15938 9425 1 109.50000 418.400000
8911 15938 10211 1 109.50000 418.400000
8911 15938 10915 1 109.50000 418.400000
9425 15938 10211 1 109.50000 418.400000
9425 15938 10915 1 109.50000 418.400000
10211 15938 10915 1 109.50000 418.400000
9582 15939 9593 1 109.50000 418.400000
9582 15939 10832 1 109.50000 418.400000
9582 15939 10916 1 109.50000 418.400000
9593 15939 10832 1 109.50000 418.400000
9593 15939 10916 1 109.50000 418.400000
10832 15939 10916 1 109.50000 418.400000
2373 15940 4155 1 109.50000 418.400000
2373 15940 10138 1 109.50000 418.400000
2373 15940 10917 1 109.50000 418.400000
4155 15940 10138 1 109.50000 418.400000
4155 15940 10917 1 109.50000 418.400000
10138 15940 10917 1 109.50000 418.400000
2769 15941 6783 1 109.50000 418.400000
2769 15941 9772 1 109.50000 418.400000
2769 15941 10714 1 109.50000 418.400000
6783 15941 9772 1 109.50000 418.400000
6783 15941 10714 1 109.50000 418.400000
9772 15941 10714 1 109.50000 418.400000
3149 15942 7071 1 109.50000 418.400000
3149 15942 8531 1 109.50000 418.400000
3149 15942 10282 1 109.50000 418.400000
7071 15942 8531 1 109.50000 418.400000
7071 15942 10282 1 109.50000 418.400000
8531 15942 10282 1 109.50000 418.400000
3060 15943 9600 1 109.50000 418.400000
3060 15943 10597 1 109.50000 418.400000
3060 15943 10918 1 109.50000 418.400000
9600 15943 10597 1 109.50000 418.400000
9600 15943 10918 1 109.50000 418.400000
10597 15943 10918 1 109.50000 418.400000
1876 15944 8050 1 109.50000 418.400000
1876 15944 9047 1 109.50000 418.400000
1876 15944 10581 1 109.50000 418.400000
8050 15944 9047 1 109.50000 418.400000
8050 15944 10581 1 109.50000 418.400000
9047 15944 10581 1 109.50000 418.400000
427 15945 7259 1 109.50000 418.400000
427 15945 7685 1 109.50000 418.400000
427 15945 10797 1 109.50000 418.400000
7259 15945 7685 1 109.50000 418.400000
7259 15945 10797 1 109.50000 418.400000
7685 15945 10797 1 109.50000 418.400000
385 15946 4541 1 109.50000 418.400000
385 15946 8253 1 109.50000 418.400000
385 15946 9618 1 109.50000 418.400000
4541 15946 8253 1 109.50000 418.400000
4541 15946 9618 1 109.50000 418.400000
8253 15946 9618 1 109.50000 418.400000
4529 15947 9957 1 109.50000 418.400000
4529 15947 10150 1 109.50000 418.400000
4529 15947 10151 1 109.50000 418.400000
9957 15947 10150 1 109.50000 418.400000
9957 15947 10151 1 109.50000 418.400000
10150 15947 10151 1 109.50000 418.400000
551 15948 2245 1 109.50000 418.400000
551 15948 4003 1 109.50000 418.400000
551 15948 6297 1 109.50000 418.400000
2245 15948 4003 1 109.50000 418.400000
2245 15948 6297 1 109.50000 418.400000
4003 15948 6297 1 109.50000 418.400000
5049 15949 9041 1 109.50000 418.400000
5049 15949 9042 1 109.50000 418.400000
5049 15949 10919 1 109.50000 418.400000
9041 15949 9042 1 109.50000 418.400000
9041 15949 10919 1 109.50000 418.400000
9042 15949 10919 1 109.50000 418.400000
91 15950 9216 1 109.50000 418.400000
91 15950 9362 1 109.50000 418.400000
91 15950 10903 1 109.50000 418.400000
9216 15950 9362 1 109.50000 418.400000
9216 15950 10903 1 109.50000 418.400000
9362 15950 10903 1 109.50000 418.400000
6200 15951 7505 1 109.50000 418.400000
6200 15951 10687 1 109.50000 418.400000
6200 15951 10876 1 109.50000 418.400000
7505 15951 10687 1 109.50000 418.400000
7505 15951 10876 1 109.50000 418.400000
10687 15951 10876 1 109.50000 418.400000
4825 15952 6168 1 109.50000 418.400000
4825 15952 9103 1 109.50000 418.400000
4825 15952 10532 1 109.50000 418.400000
6168 15952 9103 1 109.50000 418.400000
6168 15952 10532 1 109.50000 418.400000
9103 15952 10532 1 109.50000 418.400000
7407 15953 8716 1 109.50000 418.400000
7407 15953 10921 1 109.50000 418.400000
7407 15953 10922 1 109.50000 418.400000
8716 15953 10921 1 109.50000 418.400000
8716 15953 10922 1 109.50000 418.400000
10921 15953 10922 1 109.50000 418.400000
5252 15954 5253 1 109.50000 418.400000
5252 15954 6619 1 109.50000 418.400000
5252 15954 10001 1 109.50000 418.400000
5253 15954 6619 1 109.50000 418.400000
5253 15954 10001 1 109.50000 418.400000
6619 15954 10001 1 109.50000 418.400000
5786 15955 9740 1 109.50000 418.400000
5786 15955 10814 1 109.50000 418.400000
5786 15955 11274 1 109.50000 418.400000
9740 15955 10814 1 109.50000 418.400000
9740 15955 11274 1 109.50000 418.400000
10814 15955 11274 1 109.50000 418.400000
2523 15956 6872 1 109.50000 418.400000
2523 15956 8185 1 109.50000 418.400000
2523 15956 9259 1 109.50000 418.400000
6872 15956 8185 1 109.50000 418.400000
6872 15956 9259 1 109.50000 418.400000
8185 15956 9259 1 109.50000 418.400000
3509 15957 5943 1 109.50000 418.400000
3509 15957 5944 1 109.50000 418.400000
3509 15957 5945 1 109.50000 418.400000
5943 15957 5944 1 109.50000 418.400000
5943 15957 5945 1 109.50000 418.400000
5944 15957 5945 1 109.50000 418.400000
6441 15958 8569 1 109.50000 418.400000
6441 15958 10759 1 109.50000 418.400000
6441 15958 11404 1 109.50000 418.400000
8569 15958 10759 1 109.50000 418.400000
8569 15958 11404 1 109.50000 418.400000
10759 15958 11404 1 109.50000 418.400000
7975 15959 9989 1 109.50000 418.400000
7975 15959 10269 1 109.50000 418.400000
7975 15959 10924 1 109.50000 418.400000
9989 15959 10269 1 109.50000 418.400000
9989 15959 10924 1 109.50000 418.400000
10269 15959 10924 1 109.50000 418.400000
3889 15960 6295 1 109.50000 418.400000
3889 15960 7887 1 109.50000 418.400000
3889 15960 8411 1 109.50000 418.400000
6295 15960 7887 1 109.50000 418.400000
6295 15960 8411 1 109.50000 418.400000
7887 15960 8411 1 109.50000 418.400000
3570 15961 8709 1 109.50000 418.400000
3570 15961 9743 1 109.50000 418.400000
3570 15961 11359 1 109.50000 418.400000
8709 15961 9743 1 109.50000 418.400000
8709 15961 11359 1 109.50000 418.400000
9743 15961 11359 1 109.50000 418.400000
5237 15962 6122 1 109.50000 418.400000
5237 15962 6784 1 109.50000 418.400000
5237 15962 10629 1 109.50000 418.400000
6122 15962 6784 1 109.50000 418.400000
6122 15962 10629 1 109.50000 418.400000
6784 15962 10629 1 109.50000 418.400000
4279 15963 6109 1 109.50000 418.400000
4279 15963 10376 1 109.50000 418.400000
4279 15963 10925 1 109.50000 418.400000
6109 15963 10376 1 109.50000 418.400000
6109 15963 10925 1 109.50000 418.400000
10376 15963 10925 1 109.50000 418.400000
1436 15964 4389 1 109.50000 418.400000
1436 15964 8757 1 109.50000 418.400000
1436 15964 10712 1 109.50000 418.400000
4389 15964 8757 1 109.50000 418.400000
4389 15964 10712 1 109.50000 418.400000
8757 15964 10712 1 109.50000 418.400000
1870 15965 2546 1 109.50000 418.400000
1870 15965 9122 1 109.50000 418.400000
1870 15965 9518 1 109.50000 418.400000
2546 15965 9122 1 109.50000 418.400000
2546 15965 9518 1 109.50000 418.400000
9122 15965 9518 1 109.50000 418.400000
8298 15966 10570 1 109.50000 418.400000
8298 15966 10926 1 109.50000 418.400000
8298 15966 11227 1 109.50000 418.400000
10570 15966 10926 1 109.50000 418.400000
10570 15966 11227 1 109.50000 418.400000
10926 15966 11227 1 109.50000 418.400000
1844 15967 10453 1 109.50000 418.400000
1844 15967 10908 1 109.50000 418.400000
1844 15967 10927 1 109.50000 418.400000
10453 15967 10908 1 109.50000 418.400000
10453 15967 10927 1 109.50000 418.400000
10908 15967 10927 1 109.50000 418.400000
5550 15968 7615 1 109.50000 418.400000
5550 15968 10928 1 109.50000 418.400000
5550 15968 10929 1 109.50000 418.400000
7615 15968 10928 1 109.50000 418.400000
7615 15968 10929 1 109.50000 418.400000
10928 15968 10929 1 109.50000 418.400000
9300 15969 9349 1 109.50000 418.400000
9300 15969 10930 1 109.50000 418.400000
9300 15969 11017 1 109.50000 418.400000
9349 15969 10930 1 109.50000 418.400000
9349 15969 11017 1 109.50000 418.400000
10930 15969 11017 1 109.50000 418.400000
1462 15970 8608 1 109.50000 418.400000
1462 15970 9525 1 109.50000 418.400000
1462 15970 9947 1 109.50000 418.400000
8608 15970 9525 1 109.50000 418.400000
8608 15970 9947 1 109.50000 418.400000
9525 15970 9947 1 109.50000 418.400000
2156 15971 4857 1 109.50000 418.400000
2156 15971 9074 1 109.50000 418.400000
2156 15971 10426 1 109.50000 418.400000
4857 15971 9074 1 109.50000 418.400000
4857 15971 10426 1 109.50000 418.400000
9074 15971 10426 1 109.50000 418.400000
1828 15972 2231 1 109.50000 418.400000
1828 15972 5705 1 109.50000 418.400000
1828 15972 10042 1 109.50000 418.400000
2231 15972 5705 1 109.50000 418.400000
2231 15972 10042 1 109.50000 418.400000
5705 15972 10042 1 109.50000 418.400000
2028 15973 3313 1 109.50000 418.400000
2028 15973 7727 1 109.50000 418.400000
2028 15973 9359 1 109.50000 418.400000
3313 15973 7727 1 109.50000 418.400000
3313 15973 9359 1 109.50000 418.400000
7727 15973 9359 1 109.50000 418.400000
1452 15974 9647 1 109.50000 418.400000
1452 15974 10487 1 109.50000 418.400000
1452 15974 10657 1 109.50000 418.400000
9647 15974 10487 1 109.50000 418.400000
9647 15974 10657 1 109.50000 418.400000
10487 15974 10657 1 109.50000 418.400000
3043 15975 3046 1 109.50000 418.400000
3043 15975 8683 1 109.50000 418.400000
3043 15975 10025 1 109.50000 418.400000
3046 15975 8683 1 109.50000 418.400000
3046 15975 10025 1 109.50000 418.400000
8683 15975 10025 1 109.50000 418.400000
7435 15976 9528 1 109.50000 418.400000
7435 15976 10334 1 109.50000 418.400000
7435 15976 10931 1 109.50000 418.400000
9528 15976 10334 1 109.50000 418.400000
9528 15976 10931 1 109.50000 418.400000
10334 15976 10931 1 109.50000 418.400000
6047 15977 6552 1 109.50000 418.400000
6047 15977 6587 1 109.50000 418.400000
6047 15977 7963 1 109.50000 418.400000
6552 15977 6587 1 109.50000 418.400000
6552 15977 7963 1 109.50000 418.400000
6587 15977 7963 1 109.50000 418.400000
1362 15978 7116 1 109.50000 418.400000
1362 15978 9829 1 109.50000 418.400000
1362 15978 10732 1 109.50000 418.400000
7116 15978 9829 1 109.50000 418.400000
7116 15978 10732 1 109.50000 418.400000
9829 15978 10732 1 109.50000 418.400000
1149 15979 4240 1 109.50000 418.400000
1149 15979 7147 1 109.50000 418.400000
1149 15979 10834 1 109.50000 418.400000
4240 15979 7147 1 109.50000 418.400000
4240 15979 10834 1 109.50000 418.400000
7147 15979 10834 1 109.50000 418.400000
5381 15980 8630 1 109.50000 418.400000
5381 15980 8700 1 109.50000 418.400000
5381 15980 10932 1 109.50000 418.400000
8630 15980 8700 1 109.50000 418.400000
8630 15980 10932 1 109.50000 418.400000
8700 15980 10932 1 109.50000 418.400000
206 15981 4662 1 109.50000 418.400000
206 15981 10277 1 109.50000 418.400000
206 15981 10737 1 109.50000 418.400000
4662 15981 10277 1 109.50000 418.400000
4662 15981 10737 1 109.50000 418.400000
10277 15981 10737 1 109.50000 418.400000
3515 15982 3826 1 109.50000 418.400000
3515 15982 5072 1 109.50000 418.400000
3515 15982 6175 1 109.50000 418.400000
3826 15982 5072 1 109.50000 418.400000
3826 15982 6175 1 109.50000 418.400000
5072 15982 6175 1 109.50000 418.400000
361 15983 2397 1 109.50000 418.400000
361 15983 10504 1 109.50000 418.400000
361 15983 10933 1 109.50000 418.400000
2397 15983 10504 1 109.50000 418.400000
2397 15983 10933 1 109.50000 418.400000
10504 15983 10933 1 109.50000 418.400000
6108 15984 6197 1 109.50000 418.400000
6108 15984 10801 1 109.50000 418.400000
6108 15984 11195 1 109.50000 418.400000
6197 15984 10801 1 109.50000 418.400000
6197 15984 11195 1 109.50000 418.400000
10801 15984 11195 1 109.50000 418.400000
1294 15985 1443 1 109.50000 418.400000
1294 15985 3468 1 109.50000 418.400000
1294 15985 9661 1 109.50000 418.400000
1443 15985 3468 1 109.50000 418.400000
1443 15985 9661 1 109.50000 418.400000
3468 15985 9661 1 109.50000 418.400000
1904 15986 9358 1 109.50000 418.400000
1904 15986 9901 1 109.50000 418.400000
1904 15986 10934 1 109.50000 418.400000
9358 15986 9901 1 109.50000 418.400000
9358 15986 10934 1 109.50000 418.400000
9901 15986 10934 1 109.50000 418.400000
73 15987 3562 1 109.50000 418.400000
73 15987 3564 1 109.50000 418.400000
73 15987 3565 1 109.50000 418.400000
3562 15987 3564 1 109.50000 418.400000
3562 15987 3565 1 109.50000 418.400000
3564 15987 3565 1 109.50000 418.400000
1975 15988 1977 1 109.50000 418.400000
1975 15988 6247 1 109.50000 418.400000
1975 15988 10636 1 109.50000 418.400000
1977 15988 6247 1 109.50000 418.400000
1977 15988 10636 1 109.50000 418.400000
6247 15988 10636 1 109.50000 418.400000
538 15989 6125 1 109.50000 418.400000
538 15989 7819 1 109.50000 418.400000
538 15989 10443 1 109.50000 418.400000
6125 15989 7819 1 109.50000 418.400000
6125 15989 10443 1 109.50000 418.400000
7819 15989 10443 1 109.50000 418.400000
1176 15990 3705 1 109.50000 418.400000
1176 15990 7655 1 109.50000 418.400000
1176 15990 10493 1 109.50000 418.400000
3705 15990 7655 1 109.50000 418.400000
3705 15990 10493 1 109.50000 418.400000
7655 15990 10493 1 109.50000 418.400000
6317 15991 10681 1 109.50000 418.400000
6317 15991 10863 1 109.50000 418.400000
6317 15991 10935 1 109.50000 418.400000
10681 15991 10863 1 109.50000 418.400000
10681 15991 10935 1 109.50000 418.400000
10863 15991 10935 1 109.50000 418.400000
1357 15992 5585 1 109.50000 418.400000
1357 15992 6812 1 109.50000 418.400000
1357 15992 8417 1 109.50000 418.400000
5585 15992 6812 1 109.50000 418.400000
5585 15992 8417 1 109.50000 418.400000
6812 15992 8417 1 109.50000 418.400000
1575 15993 1576 1 109.50000 418.400000
1575 15993 8450 1 109.50000 418.400000
1575 15993 9851 1 109.50000 418.400000
1576 15993 8450 1 109.50000 418.400000
1576 15993 9851 1 109.50000 418.400000
8450 15993 9851 1 109.50000 418.400000
1485 15994 3481 1 109.50000 418.400000
1485 15994 6803 1 109.50000 418.400000
1485 15994 9706 1 109.50000 418.400000
3481 15994 6803 1 109.50000 418.400000
3481 15994 9706 1 109.50000 418.400000
6803 15994 9706 1 109.50000 418.400000
452 15995 6068 1 109.50000 418.400000
452 15995 8026 1 109.50000 418.400000
452 15995 10878 1 109.50000 418.400000
6068 15995 8026 1 109.50000 418.400000
6068 15995 10878 1 109.50000 418.400000
8026 15995 10878 1 109.50000 418.400000
320 15996 3192 1 109.50000 418.400000
320 15996 7764 1 109.50000 418.400000
320 15996 10337 1 109.50000 418.400000
3192 15996 7764 1 109.50000 418.400000
3192 15996 10337 1 109.50000 418.400000
7764 15996 10337 1 109.50000 418.400000
5505 15997 7125 1 109.50000 418.400000
5505 15997 7222 1 109.50000 418.400000
5505 15997 9985 1 109.50000 418.400000
7125 15997 7222 1 109.50000 418.400000
7125 15997 9985 1 109.50000 418.400000
7222 15997 9985 1 109.50000 418.400000
1070 15998 5255 1 109.50000 418.400000
1070 15998 9608 1 109.50000 418.400000
1070 15998 10875 1 109.50000 418.400000
5255 15998 9608 1 109.50000 418.400000
5255 15998 10875 1 109.50000 418.400000
9608 15998 10875 1 109.50000 418.400000
3388 15999 5659 1 109.50000 418.400000
3388 15999 9333 1 109.50000 418.400000
3388 15999 10045 1 109.50000 418.400000
5659 15999 9333 1 109.50000 418.400000
5659 15999 10045 1 109.50000 418.400000
9333 15999 10045 1 109.50000 418.400000
1632 16000 8767 1 109.50000 418.400000
1632 16000 10715 1 109.50000 418.400000
1632 16000 10936 1 109.50000 418.400000
8767 16000 10715 1 109.50000 418.400000
8767 16000 10936 1 109.50000 418.400000
10715 16000 10936 1 109.50000 418.400000
3801 16001 4804 1 109.50000 418.400000
3801 16001 7027 1 109.50000 418.400000
3801 16001 10683 1 109.50000 418.400000
4804 16001 7027 1 109.50000 418.400000
4804 16001 10683 1 109.50000 418.400000
7027 16001 10683 1 109.50000 418.400000
8611 16002 8614 1 109.50000 418.400000
8611 16002 8840 1 109.50000 418.400000
8611 16002 10937 1 109.50000 418.400000
8614 16002 8840 1 109.50000 418.400000
8614 16002 10937 1 109.50000 418.400000
8840 16002 10937 1 109.50000 418.400000
6142 16003 6337 1 109.50000 418.400000
6142 16003 7735 1 109.50000 418.400000
6142 16003 10938 1 109.50000 418.400000
6337 16003 7735 1 109.50000 418.400000
6337 16003 10938 1 109.50000 418.400000
7735 16003 10938 1 109.50000 418.400000
3318 16004 5479 1 109.50000 418.400000
3318 16004 6064 1 109.50000 418.400000
3318 16004 10320 1 109.50000 418.400000
5479 16004 6064 1 109.50000 418.400000
5479 16004 10320 1 109.50000 418.400000
6064 16004 10320 1 109.50000 418.400000
1178 16005 6597 1 109.50000 418.400000
1178 16005 7702 1 109.50000 418.400000
1178 16005 9832 1 109.50000 418.400000
6597 16005 7702 1 109.50000 418.400000
6597 16005 9832 1 109.50000 418.400000
7702 16005 9832 1 109.50000 418.400000
352 16006 1479 1 109.50000 418.400000
352 16006 7944 1 109.50000 418.400000
352 16006 10939 1 109.50000 418.400000
1479 16006 7944 1 109.50000 418.400000
1479 16006 10939 1 109.50000 418.400000
7944 16006 10939 1 109.50000 418.400000
3844 16007 6584 1 109.50000 418.400000
3844 16007 9265 1 109.50000 418.400000
3844 16007 10941 1 109.50000 418.400000
6584 16007 9265 1 109.50000 418.400000
6584 16007 10941 1 109.50000 418.400000
9265 16007 10941 1 109.50000 418.400000
272 16008 6225 1 109.50000 418.400000
272 16008 9827 1 109.50000 418.400000
272 16008 11405 1 109.50000 418.400000
6225 16008 9827 1 109.50000 418.400000
6225 16008 11405 1 109.50000 418.400000
9827 16008 11405 1 109.50000 418.400000
2961 16009 7423 1 109.50000 418.400000
2961 16009 9013 1 109.50000 418.400000
2961 16009 9369 1 109.50000 418.400000
7423 16009 9013 1 109.50000 418.400000
7423 16009 9369 1 109.50000 418.400000
9013 16009 9369 1 109.50000 418.400000
5567 16010 7131 1 109.50000 418.400000
5567 16010 7132 1 109.50000 418.400000
5567 16010 10084 1 109.50000 418.400000
7131 16010 7132 1 109.50000 418.400000
7131 16010 10084 1 109.50000 418.400000
7132 16010 10084 1 109.50000 418.400000
7825 16011 10058 1 109.50000 418.400000
7825 16011 10217 1 109.50000 418.400000
7825 16011 10456 1 109.50000 418.400000
10058 16011 10217 1 109.50000 418.400000
10058 16011 10456 1 109.50000 418.400000
10217 16011 10456 1 109.50000 418.400000
2629 16012 5862 1 109.50000 418.400000
2629 16012 10943 1 109.50000 418.400000
2629 16012 10944 1 109.50000 418.400000
5862 16012 10943 1 109.50000 418.400000
5862 16012 10944 1 109.50000 418.400000
10943 16012 10944 1 109.50000 418.400000
3737 16013 6679 1 109.50000 418.400000
3737 16013 7679 1 109.50000 418.400000
3737 16013 9708 1 109.50000 418.400000
6679 16013 7679 1 109.50000 418.400000
6679 16013 9708 1 109.50000 418.400000
7679 16013 9708 1 109.50000 418.400000
976 16014 3014 1 109.50000 418.400000
976 16014 10811 1 109.50000 418.400000
976 16014 10945 1 109.50000 418.400000
3014 16014 10811 1 109.50000 418.400000
3014 16014 10945 1 109.50000 418.400000
10811 16014 10945 1 109.50000 418.400000
7228 16015 8653 1 109.50000 418.400000
7228 16015 9113 1 109.50000 418.400000
7228 16015 10946 1 109.50000 418.400000
8653 16015 9113 1 109.50000 418.400000
8653 16015 10946 1 109.50000 418.400000
9113 16015 10946 1 109.50000 418.400000
3716 16016 6459 1 109.50000 418.400000
3716 16016 9341 1 109.50000 418.400000
3716 16016 10947 1 109.50000 418.400000
6459 16016 9341 1 109.50000 418.400000
6459 16016 10947 1 109.50000 418.400000
9341 16016 10947 1 109.50000 418.400000
2822 16017 4848 1 109.50000 418.400000
2822 16017 4849 1 109.50000 418.400000
2822 16017 10948 1 109.50000 418.400000
4848 16017 4849 1 109.50000 418.400000
4848 16017 10948 1 109.50000 418.400000
4849 16017 10948 1 109.50000 418.400000
107 16018 2062 1 109.50000 418.400000
107 16018 2768 1 109.50000 418.400000
107 16018 10527 1 109.50000 418.400000
2062 16018 2768 1 109.50000 418.400000
2062 16018 10527 1 109.50000 418.400000
2768 16018 10527 1 109.50000 418.400000
1017 16019 8550 1 109.50000 418.400000
1017 16019 10475 1 109.50000 418.400000
1017 16019 10857 1 109.50000 418.400000
8550 16019 10475 1 109.50000 418.400000
8550 16019 10857 1 109.50000 418.400000
10475 16019 10857 1 109.50000 418.400000
10219 16020 10860 1 109.50000 418.400000
10219 16020 10951 1 109.50000 418.400000
10219 16020 10952 1 109.50000 418.400000
10860 16020 10951 1 109.50000 418.400000
10860 16020 10952 1 109.50000 418.400000
10951 16020 10952 1 109.50000 418.400000
9066 16021 9976 1 109.50000 418.400000
9066 16021 10348 1 109.50000 418.400000
9066 16021 10953 1 109.50000 418.400000
9976 16021 10348 1 109.50000 418.400000
9976 16021 10953 1 109.50000 418.400000
10348 16021 10953 1 109.50000 418.400000
836 16022 4727 1 109.50000 418.400000
836 16022 10013 1 109.50000 418.400000
836 16022 10900 1 109.50000 418.400000
4727 16022 10013 1 109.50000 418.400000
4727 16022 10900 1 109.50000 418.400000
10013 16022 10900 1 109.50000 418.400000
4139 16023 4361 1 109.50000 418.400000
4139 16023 5260 1 109.50000 418.400000
4139 16023 9654 1 109.50000 418.400000
4361 16023 5260 1 109.50000 418.400000
4361 16023 9654 1 109.50000 418.400000
5260 16023 9654 1 109.50000 418.400000
1826 16024 1989 1 109.50000 418.400000
1826 16024 8164 1 109.50000 418.400000
1826 16024 10954 1 109.50000 418.400000
1989 16024 8164 1 109.50000 418.400000
1989 16024 10954 1 109.50000 418.400000
8164 16024 10954 1 109.50000 418.400000
5545 16025 5547 1 109.50000 418.400000
5545 16025 7949 1 109.50000 418.400000
5545 16025 10955 1 109.50000 418.400000
5547 16025 7949 1 109.50000 418.400000
5547 16025 10955 1 109.50000 418.400000
7949 16025 10955 1 109.50000 418.400000
3075 16026 7994 1 109.50000 418.400000
3075 16026 9302 1 109.50000 418.400000
3075 16026 10640 1 109.50000 418.400000
7994 16026 9302 1 109.50000 418.400000
7994 16026 10640 1 109.50000 418.400000
9302 16026 10640 1 109.50000 418.400000
1057 16027 5507 1 109.50000 418.400000
1057 16027 8477 1 109.50000 418.400000
1057 16027 10956 1 109.50000 418.400000
5507 16027 8477 1 109.50000 418.400000
5507 16027 10956 1 109.50000 418.400000
8477 16027 10956 1 109.50000 418.400000
2816 16028 3206 1 109.50000 418.400000
2816 16028 9998 1 109.50000 418.400000
2816 16028 10141 1 109.50000 418.400000
3206 16028 9998 1 109.50000 418.400000
3206 16028 10141 1 109.50000 418.400000
9998 16028 10141 1 109.50000 418.400000
3855 16029 6298 1 109.50000 418.400000
3855 16029 7566 1 109.50000 418.400000
3855 16029 10242 1 109.50000 418.400000
6298 16029 7566 1 109.50000 418.400000
6298 16029 10242 1 109.50000 418.400000
7566 16029 10242 1 109.50000 418.400000
2206 16030 4940 1 109.50000 418.400000
2206 16030 10074 1 109.50000 418.400000
2206 16030 10825 1 109.50000 418.400000
4940 16030 10074 1 109.50000 418.400000
4940 16030 10825 1 109.50000 418.400000
10074 16030 10825 1 109.50000 418.400000
1419 16031 6711 1 109.50000 418.400000
1419 16031 8831 1 109.50000 418.400000
1419 16031 9121 1 109.50000 418.400000
6711 16031 8831 1 109.50000 418.400000
6711 16031 9121 1 109.50000 418.400000
8831 16031 9121 1 109.50000 418.400000
3524 16032 5373 1 109.50000 418.400000
3524 16032 5772 1 109.50000 418.400000
3524 16032 9263 1 109.50000 418.400000
5373 16032 5772 1 109.50000 418.400000
5373 16032 9263 1 109.50000 418.400000
5772 16032 9263 1 109.50000 418.400000
4265 16033 6654 1 109.50000 418.400000
4265 16033 7372 1 109.50000 418.400000
4265 16033 7750 1 109.50000 418.400000
6654 16033 7372 1 109.50000 418.400000
6654 16033 7750 1 109.50000 418.400000
7372 16033 7750 1 109.50000 418.400000
3987 16034 7079 1 109.50000 418.400000
3987 16034 8625 1 109.50000 418.400000
3987 16034 10631 1 109.50000 418.400000
7079 16034 8625 1 109.50000 418.400000
7079 16034 10631 1 109.50000 418.400000
8625 16034 10631 1 109.50000 418.400000
6724 16035 6974 1 109.50000 418.400000
6724 16035 7164 1 109.50000 418.400000
6724 16035 10958 1 109.50000 418.400000
6974 16035 7164 1 109.50000 418.400000
6974 16035 10958 1 109.50000 418.400000
7164 16035 10958 1 109.50000 418.400000
6390 16036 7754 1 109.50000 418.400000
6390 16036 10565 1 109.50000 418.400000
6390 16036 10842 1 109.50000 418.400000
7754 16036 10565 1 109.50000 418.400000
7754 16036 10842 1 109.50000 418.400000
10565 16036 10842 1 109.50000 418.400000
8492 16037 10959 1 109.50000 418.400000
8492 16037 10960 1 109.50000 418.400000
8492 16037 10961 1 109.50000 418.400000
10959 16037 10960 1 109.50000 418.400000
10959 16037 10961 1 109.50000 418.400000
10960 16037 10961 1 109.50000 418.400000
3137 16038 3523 1 109.50000 418.400000
3137 16038 8977 1 109.50000 418.400000
3137 16038 10962 1 109.50000 418.400000
3523 16038 8977 1 109.50000 418.400000
3523 16038 10962 1 109.50000 418.400000
8977 16038 10962 1 109.50000 418.400000
826 16039 2854 1 109.50000 418.400000
826 16039 5089 1 109.50000 418.400000
826 16039 10223 1 109.50000 418.400000
2854 16039 5089 1 109.50000 418.400000
2854 16039 10223 1 109.50000 418.400000
5089 16039 10223 1 109.50000 418.400000
4818 16040 6211 1 109.50000 418.400000
4818 16040 8183 1 109.50000 418.400000
4818 16040 10963 1 109.50000 418.400000
6211 16040 8183 1 109.50000 418.400000
6211 16040 10963 1 109.50000 418.400000
8183 16040 10963 1 109.50000 418.400000
3683 16041 5574 1 109.50000 418.400000
3683 16041 6864 1 109.50000 418.400000
3683 16041 10966 1 109.50000 418.400000
5574 16041 6864 1 109.50000 418.400000
5574 16041 10966 1 109.50000 418.400000
6864 16041 10966 1 109.50000 418.400000
2519 16042 8821 1 109.50000 418.400000
2519 16042 9714 1 109.50000 418.400000
2519 16042 10113 1 109.50000 418.400000
8821 16042 9714 1 109.50000 418.400000
8821 16042 10113 1 109.50000 418.400000
9714 16042 10113 1 109.50000 418.400000
7033 16043 9109 1 109.50000 418.400000
7033 16043 10729 1 109.50000 418.400000
7033 16043 10967 1 109.50000 418.400000
9109 16043 10729 1 109.50000 418.400000
9109 16043 10967 1 109.50000 418.400000
10729 16043 10967 1 109.50000 418.400000
795 16044 5177 1 109.50000 418.400000
795 16044 10806 1 109.50000 418.400000
795 16044 10968 1 109.50000 418.400000
5177 16044 10806 1 109.50000 418.400000
5177 16044 10968 1 109.50000 418.400000
10806 16044 10968 1 109.50000 418.400000
8740 16045 10744 1 109.50000 418.400000
8740 16045 10824 1 109.50000 418.400000
8740 16045 10969 1 109.50000 418.400000
10744 16045 10824 1 109.50000 418.400000
10744 16045 10969 1 109.50000 418.400000
10824 16045 10969 1 109.50000 418.400000
5353 16046 8112 1 109.50000 418.400000
5353 16046 9774 1 109.50000 418.400000
5353 16046 10970 1 109.50000 418.400000
8112 16046 9774 1 109.50000 418.400000
8112 16046 10970 1 109.50000 418.400000
9774 16046 10970 1 109.50000 418.400000
7758 16047 10365 1 109.50000 418.400000
7758 16047 10388 1 109.50000 418.400000
7758 16047 10971 1 109.50000 418.400000
10365 16047 10388 1 109.50000 418.400000
10365 16047 10971 1 109.50000 418.400000
10388 16047 10971 1 109.50000 418.400000
8233 16048 9723 1 109.50000 418.400000
8233 16048 10130 1 109.50000 418.400000
8233 16048 10972 1 109.50000 418.400000
9723 16048 10130 1 109.50000 418.400000
9723 16048 10972 1 109.50000 418.400000
10130 16048 10972 1 109.50000 418.400000
4243 16049 4965 1 109.50000 418.400000
4243 16049 6556 1 109.50000 418.400000
4243 16049 8993 1 109.50000 418.400000
4965 16049 6556 1 109.50000 418.400000
4965 16049 8993 1 109.50000 418.400000
6556 16049 8993 1 109.50000 418.400000
1104 16050 6947 1 109.50000 418.400000
1104 16050 8109 1 109.50000 418.400000
1104 16050 10128 1 109.50000 418.400000
6947 16050 8109 1 109.50000 418.400000
6947 16050 10128 1 109.50000 418.400000
8109 16050 10128 1 109.50000 418.400000
1989 16051 1990 1 109.50000 418.400000
1989 16051 7199 1 109.50000 418.400000
1989 16051 10973 1 109.50000 418.400000
1990 16051 7199 1 109.50000 418.400000
1990 16051 10973 1 109.50000 418.400000
7199 16051 10973 1 109.50000 418.400000
66 16052 5220 1 109.50000 418.400000
66 16052 8262 1 109.50000 418.400000
66 16052 11181 1 109.50000 418.400000
5220 16052 8262 1 109.50000 418.400000
5220 16052 11181 1 109.50000 418.400000
8262 16052 11181 1 109.50000 418.400000
1306 16053 2398 1 109.50000 418.400000
1306 16053 2401 1 109.50000 418.400000
1306 16053 4936 1 109.50000 418.400000
2398 16053 2401 1 109.50000 418.400000
2398 16053 4936 1 109.50000 418.400000
2401 16053 4936 1 109.50000 418.400000
5454 16054 6877 1 109.50000 418.400000
5454 16054 10020 1 109.50000 418.400000
5454 16054 10975 1 109.50000 418.400000
6877 16054 10020 1 109.50000 418.400000
6877 16054 10975 1 109.50000 418.400000
10020 16054 10975 1 109.50000 418.400000
1572 16055 2632 1 109.50000 418.400000
1572 16055 4967 1 109.50000 418.400000
1572 16055 9026 1 109.50000 418.400000
2632 16055 4967 1 109.50000 418.400000
2632 16055 9026 1 109.50000 418.400000
4967 16055 9026 1 109.50000 418.400000
7881 16056 8818 1 109.50000 418.400000
7881 16056 10205 1 109.50000 418.400000
7881 16056 10763 1 109.50000 418.400000
8818 16056 10205 1 109.50000 418.400000
8818 16056 10763 1 109.50000 418.400000
10205 16056 10763 1 109.50000 418.400000
5394 16057 10592 1 109.50000 418.400000
5394 16057 10976 1 109.50000 418.400000
5394 16057 11215 1 109.50000 418.400000
10592 16057 10976 1 109.50000 418.400000
10592 16057 11215 1 109.50000 418.400000
10976 16057 11215 1 109.50000 418.400000
3224 16058 4080 1 109.50000 418.400000
3224 16058 4495 1 109.50000 418.400000
3224 16058 10736 1 109.50000 418.400000
4080 16058 4495 1 109.50000 418.400000
4080 16058 10736 1 109.50000 418.400000
4495 16058 10736 1 109.50000 418.400000
3467 16059 5385 1 109.50000 418.400000
3467 16059 9023 1 109.50000 418.400000
3467 16059 10769 1 109.50000 418.400000
5385 16059 9023 1 109.50000 418.400000
5385 16059 10769 1 109.50000 418.400000
9023 16059 10769 1 109.50000 418.400000
4613 16060 10919 1 109.50000 418.400000
4613 16060 10977 1 109.50000 418.400000
4613 16060 10978 1 109.50000 418.400000
10919 16060 10977 1 109.50000 418.400000
10919 16060 10978 1 109.50000 418.400000
10977 16060 10978 1 109.50000 418.400000
264 16061 1732 1 109.50000 418.400000
264 16061 10494 1 109.50000 418.400000
264 16061 10979 1 109.50000 418.400000
1732 16061 10494 1 109.50000 418.400000
1732 16061 10979 1 109.50000 418.400000
10494 16061 10979 1 109.50000 418.400000
7021 16062 7345 1 109.50000 418.400000
7021 16062 10964 1 109.50000 418.400000
7021 16062 10981 1 109.50000 418.400000
7345 16062 10964 1 109.50000 418.400000
7345 16062 10981 1 109.50000 418.400000
10964 16062 10981 1 109.50000 418.400000
4856 16063 4889 1 109.50000 418.400000
4856 16063 10367 1 109.50000 418.400000
4856 16063 10982 1 109.50000 418.400000
4889 16063 10367 1 109.50000 418.400000
4889 16063 10982 1 109.50000 418.400000
10367 16063 10982 1 109.50000 418.400000
1221 16064 2349 1 109.50000 418.400000
1221 16064 2602 1 109.50000 418.400000
1221 16064 10694 1 109.50000 418.400000
2349 16064 2602 1 109.50000 418.400000
2349 16064 10694 1 109.50000 418.400000
2602 16064 10694 1 109.50000 418.400000
4605 16065 8535 1 109.50000 418.400000
4605 16065 9573 1 109.50000 418.400000
4605 16065 9855 1 109.50000 418.400000
8535 16065 9573 1 109.50000 418.400000
8535 16065 9855 1 109.50000 418.400000
9573 16065 9855 1 109.50000 418.400000
1125 16066 4127 1 109.50000 418.400000
1125 16066 8807 1 109.50000 418.400000
1125 16066 10676 1 109.50000 418.400000
4127 16066 8807 1 109.50000 418.400000
4127 16066 10676 1 109.50000 418.400000
8807 16066 10676 1 109.50000 418.400000
7390 16067 10983 1 109.50000 418.400000
7390 16067 10984 1 109.50000 418.400000
7390 16067 10985 1 109.50000 418.400000
10983 16067 10984 1 109.50000 418.400000
10983 16067 10985 1 109.50000 418.400000
10984 16067 10985 1 109.50000 418.400000
3428 16068 8103 1 109.50000 418.400000
3428 16068 9157 1 109.50000 418.400000
3428 16068 10986 1 109.50000 418.400000
8103 16068 9157 1 109.50000 418.400000
8103 16068 10986 1 109.50000 418.400000
9157 16068 10986 1 109.50000 418.400000
242 16069 3690 1 109.50000 418.400000
242 16069 4646 1 109.50000 418.400000
242 16069 7486 1 109.50000 418.400000
3690 16069 4646 1 109.50000 418.400000
3690 16069 7486 1 109.50000 418.400000
4646 16069 7486 1 109.50000 418.400000
3546 16070 3888 1 109.50000 418.400000
3546 16070 6828 1 109.50000 418.400000
3546 16070 9203 1 109.50000 418.400000
3888 16070 6828 1 109.50000 418.400000
3888 16070 9203 1 109.50000 418.400000
6828 16070 9203 1 109.50000 418.400000
1528 16071 7517 1 109.50000 418.400000
1528 16071 8509 1 109.50000 418.400000
1528 16071 10874 1 109.50000 418.400000
7517 16071 8509 1 109.50000 418.400000
7517 16071 10874 1 109.50000 418.400000
8509 16071 10874 1 109.50000 418.400000
6531 16072 10395 1 109.50000 418.400000
6531 16072 10780 1 109.50000 418.400000
6531 16072 10987 1 109.50000 418.400000
10395 16072 10780 1 109.50000 418.400000
10395 16072 10987 1 109.50000 418.400000
10780 16072 10987 1 109.50000 418.400000
2639 16073 9480 1 109.50000 418.400000
2639 16073 10956 1 109.50000 418.400000
2639 16073 10989 1 109.50000 418.400000
9480 16073 10956 1 109.50000 418.400000
9480 16073 10989 1 109.50000 418.400000
10956 16073 10989 1 109.50000 418.400000
4504 16074 6012 1 109.50000 418.400000
4504 16074 8560 1 109.50000 418.400000
4504 16074 9704 1 109.50000 418.400000
6012 16074 8560 1 109.50000 418.400000
6012 16074 9704 1 109.50000 418.400000
8560 16074 9704 1 109.50000 418.400000
5816 16075 6239 1 109.50000 418.400000
5816 16075 6378 1 109.50000 418.400000
5816 16075 8142 1 109.50000 418.400000
6239 16075 6378 1 109.50000 418.400000
6239 16075 8142 1 109.50000 418.400000
6378 16075 8142 1 109.50000 418.400000
3242 16076 6114 1 109.50000 418.400000
3242 16076 7513 1 109.50000 418.400000
3242 16076 10669 1 109.50000 418.400000
6114 16076 7513 1 109.50000 418.400000
6114 16076 10669 1 109.50000 418.400000
7513 16076 10669 1 109.50000 418.400000
5671 16077 7291 1 109.50000 418.400000
5671 16077 10536 1 109.50000 418.400000
5671 16077 11294 1 109.50000 418.400000
7291 16077 10536 1 109.50000 418.400000
7291 16077 11294 1 109.50000 418.400000
10536 16077 11294 1 109.50000 418.400000
776 16078 7745 1 109.50000 418.400000
776 16078 9363 1 109.50000 418.400000
776 16078 10990 1 109.50000 418.400000
7745 16078 9363 1 109.50000 418.400000
7745 16078 10990 1 109.50000 418.400000
9363 16078 10990 1 109.50000 418.400000
6287 16079 8544 1 109.50000 418.400000
6287 16079 9431 1 109.50000 418.400000
6287 16079 10692 1 109.50000 418.400000
8544 16079 9431 1 109.50000 418.400000
8544 16079 10692 1 109.50000 418.400000
9431 16079 10692 1 109.50000 418.400000
516 16080 3339 1 109.50000 418.400000
516 16080 3596 1 109.50000 418.400000
516 16080 10982 1 109.50000 418.400000
3339 16080 3596 1 109.50000 418.400000
3339 16080 10982 1 109.50000 418.400000
3596 16080 10982 1 109.50000 418.400000
5627 16081 7257 1 109.50000 418.400000
5627 16081 10991 1 109.50000 418.400000
5627 16081 11163 1 109.50000 418.400000
7257 16081 10991 1 109.50000 418.400000
7257 16081 11163 1 109.50000 418.400000
10991 16081 11163 1 109.50000 418.400000
295 16082 7237 1 109.50000 418.400000
295 16082 9160 1 109.50000 418.400000
295 16082 10775 1 109.50000 418.400000
7237 16082 9160 1 109.50000 418.400000
7237 16082 10775 1 109.50000 418.400000
9160 16082 10775 1 109.50000 418.400000
4863 16083 10333 1 109.50000 418.400000
4863 16083 10444 1 109.50000 418.400000
4863 16083 10724 1 109.50000 418.400000
10333 16083 10444 1 109.50000 418.400000
10333 16083 10724 1 109.50000 418.400000
10444 16083 10724 1 109.50000 418.400000
3785 16084 6140 1 109.50000 418.400000
3785 16084 6252 1 109.50000 418.400000
3785 16084 6504 1 109.50000 418.400000
6140 16084 6252 1 109.50000 418.400000
6140 16084 6504 1 109.50000 418.400000
6252 16084 6504 1 109.50000 418.400000
5923 16085 6104 1 109.50000 418.400000
5923 16085 8209 1 109.50000 418.400000
5923 16085 10951 1 109.50000 418.400000
6104 16085 8209 1 109.50000 418.400000
6104 16085 10951 1 109.50000 418.400000
8209 16085 10951 1 109.50000 418.400000
6564 16086 7545 1 109.50000 418.400000
6564 16086 7599 1 109.50000 418.400000
6564 16086 7998 1 109.50000 418.400000
7545 16086 7599 1 109.50000 418.400000
7545 16086 7998 1 109.50000 418.400000
7599 16086 7998 1 109.50000 418.400000
2119 16087 8387 1 109.50000 418.400000
2119 16087 8690 1 109.50000 418.400000
2119 16087 10641 1 109.50000 418.400000
8387 16087 8690 1 109.50000 418.400000
8387 16087 10641 1 109.50000 418.400000
8690 16087 10641 1 109.50000 418.400000
2056 16088 3636 1 109.50000 418.400000
2056 16088 8099 1 109.50000 418.400000
2056 16088 8101 1 109.50000 418.400000
3636 16088 8099 1 109.50000 418.400000
3636 16088 8101 1 109.50000 418.400000
8099 16088 8101 1 109.50000 418.400000
9199 16089 9595 1 109.50000 418.400000
9199 16089 9597 1 109.50000 418.400000
9199 16089 10643 1 109.50000 418.400000
9595 16089 9597 1 109.50000 418.400000
9595 16089 10643 1 109.50000 418.400000
9597 16089 10643 1 109.50000 418.400000
9200 16090 9871 1 109.50000 418.400000
9200 16090 9894 1 109.50000 418.400000
9200 16090 10531 1 109.50000 418.400000
9871 16090 9894 1 109.50000 418.400000
9871 16090 10531 1 109.50000 418.400000
9894 16090 10531 1 109.50000 418.400000
3033 16091 4759 1 109.50000 418.400000
3033 16091 10622 1 109.50000 418.400000
3033 16091 10662 1 109.50000 418.400000
4759 16091 10622 1 109.50000 418.400000
4759 16091 10662 1 109.50000 418.400000
10622 16091 10662 1 109.50000 418.400000
7752 16092 10460 1 109.50000 418.400000
7752 16092 10663 1 109.50000 418.400000
7752 16092 10992 1 109.50000 418.400000
10460 16092 10663 1 109.50000 418.400000
10460 16092 10992 1 109.50000 418.400000
10663 16092 10992 1 109.50000 418.400000
2737 16093 5238 1 109.50000 418.400000
2737 16093 5239 1 109.50000 418.400000
2737 16093 9820 1 109.50000 418.400000
5238 16093 5239 1 109.50000 418.400000
5238 16093 9820 1 109.50000 418.400000
5239 16093 9820 1 109.50000 418.400000
6644 16094 8276 1 109.50000 418.400000
6644 16094 9778 1 109.50000 418.400000
6644 16094 10838 1 109.50000 418.400000
8276 16094 9778 1 109.50000 418.400000
8276 16094 10838 1 109.50000 418.400000
9778 16094 10838 1 109.50000 418.400000
5886 16095 8266 1 109.50000 418.400000
5886 16095 10738 1 109.50000 418.400000
5886 16095 10993 1 109.50000 418.400000
8266 16095 10738 1 109.50000 418.400000
8266 16095 10993 1 109.50000 418.400000
10738 16095 10993 1 109.50000 418.400000
3314 16096 6979 1 109.50000 418.400000
3314 16096 8698 1 109.50000 418.400000
3314 16096 9409 1 109.50000 418.400000
6979 16096 8698 1 109.50000 418.400000
6979 16096 9409 1 109.50000 418.400000
8698 16096 9409 1 109.50000 418.400000
5850 16097 6958 1 109.50000 418.400000
5850 16097 10727 1 109.50000 418.400000
5850 16097 10994 1 109.50000 418.400000
6958 16097 10727 1 109.50000 418.400000
6958 16097 10994 1 109.50000 418.400000
10727 16097 10994 1 109.50000 418.400000
67 16098 1300 1 109.50000 418.400000
67 16098 6408 1 109.50000 418.400000
67 16098 10816 1 109.50000 418.400000
1300 16098 6408 1 109.50000 418.400000
1300 16098 10816 1 109.50000 418.400000
6408 16098 10816 1 109.50000 418.400000
182 16099 8148 1 109.50000 418.400000
182 16099 8149 1 109.50000 418.400000
182 16099 10970 1 109.50000 418.400000
8148 16099 8149 1 109.50000 418.400000
8148 16099 10970 1 109.50000 418.400000
8149 16099 10970 1 109.50000 418.400000
3085 16100 5476 1 109.50000 418.400000
3085 16100 5553 1 109.50000 418.400000
3085 16100 8907 1 109.50000 418.400000
5476 16100 5553 1 109.50000 418.400000
5476 16100 8907 1 109.50000 418.400000
5553 16100 8907 1 109.50000 418.400000
2113 16101 7148 1 109.50000 418.400000
2113 16101 9667 1 109.50000 418.400000
2113 16101 9920 1 109.50000 418.400000
7148 16101 9667 1 109.50000 418.400000
7148 16101 9920 1 109.50000 418.400000
9667 16101 9920 1 109.50000 418.400000
7917 16102 8894 1 109.50000 418.400000
7917 16102 9196 1 109.50000 418.400000
7917 16102 10434 1 109.50000 418.400000
8894 16102 9196 1 109.50000 418.400000
8894 16102 10434 1 109.50000 418.400000
9196 16102 10434 1 109.50000 418.400000
852 16103 7932 1 109.50000 418.400000
852 16103 9921 1 109.50000 418.400000
852 16103 10635 1 109.50000 418.400000
7932 16103 9921 1 109.50000 418.400000
7932 16103 10635 1 109.50000 418.400000
9921 16103 10635 1 109.50000 418.400000
5362 16104 6722 1 109.50000 418.400000
5362 16104 7263 1 109.50000 418.400000
5362 16104 10656 1 109.50000 418.400000
6722 16104 7263 1 109.50000 418.400000
6722 16104 10656 1 109.50000 418.400000
7263 16104 10656 1 109.50000 418.400000
3080 16105 8376 1 109.50000 418.400000
3080 16105 9345 1 109.50000 418.400000
3080 16105 10612 1 109.50000 418.400000
8376 16105 9345 1 109.50000 418.400000
8376 16105 10612 1 109.50000 418.400000
9345 16105 10612 1 109.50000 418.400000
7575 16106 9945 1 109.50000 418.400000
7575 16106 10018 1 109.50000 418.400000
7575 16106 10109 1 109.50000 418.400000
9945 16106 10018 1 109.50000 418.400000
9945 16106 10109 1 109.50000 418.400000
10018 16106 10109 1 109.50000 418.400000
730 16107 6566 1 109.50000 418.400000
730 16107 10067 1 109.50000 418.400000
730 16107 10996 1 109.50000 418.400000
6566 16107 10067 1 109.50000 418.400000
6566 16107 10996 1 109.50000 418.400000
10067 16107 10996 1 109.50000 418.400000
1488 16108 3765 1 109.50000 418.400000
1488 16108 10469 1 109.50000 418.400000
1488 16108 10997 1 109.50000 418.400000
3765 16108 10469 1 109.50000 418.400000
3765 16108 10997 1 109.50000 418.400000
10469 16108 10997 1 109.50000 418.400000
1637 16109 5766 1 109.50000 418.400000
1637 16109 5989 1 109.50000 418.400000
1637 16109 9182 1 109.50000 418.400000
5766 16109 5989 1 109.50000 418.400000
5766 16109 9182 1 109.50000 418.400000
5989 16109 9182 1 109.50000 418.400000
4339 16110 9625 1 109.50000 418.400000
4339 16110 10427 1 109.50000 418.400000
4339 16110 10820 1 109.50000 418.400000
9625 16110 10427 1 109.50000 418.400000
9625 16110 10820 1 109.50000 418.400000
10427 16110 10820 1 109.50000 418.400000
4380 16111 5548 1 109.50000 418.400000
4380 16111 9705 1 109.50000 418.400000
4380 16111 9707 1 109.50000 418.400000
5548 16111 9705 1 109.50000 418.400000
5548 16111 9707 1 109.50000 418.400000
9705 16111 9707 1 109.50000 418.400000
1183 16112 6799 1 109.50000 418.400000
1183 16112 7163 1 109.50000 418.400000
1183 16112 10977 1 109.50000 418.400000
6799 16112 7163 1 109.50000 418.400000
6799 16112 10977 1 109.50000 418.400000
7163 16112 10977 1 109.50000 418.400000
4190 16113 7090 1 109.50000 418.400000
4190 16113 7634 1 109.50000 418.400000
4190 16113 10599 1 109.50000 418.400000
7090 16113 7634 1 109.50000 418.400000
7090 16113 10599 1 109.50000 418.400000
7634 16113 10599 1 109.50000 418.400000
4217 16114 6060 1 109.50000 418.400000
4217 16114 10735 1 109.50000 418.400000
4217 16114 10998 1 109.50000 418.400000
6060 16114 10735 1 109.50000 418.400000
6060 16114 10998 1 109.50000 418.400000
10735 16114 10998 1 109.50000 418.400000
100 16115 4258 1 109.50000 418.400000
100 16115 7890 1 109.50000 418.400000
100 16115 9996 1 109.50000 418.400000
4258 16115 7890 1 109.50000 418.400000
4258 16115 9996 1 109.50000 418.400000
7890 16115 9996 1 109.50000 418.400000
5289 16116 7853 1 109.50000 418.400000
5289 16116 10999 1 109.50000 418.400000
5289 16116 11000 1 109.50000 418.400000
7853 16116 10999 1 109.50000 418.400000
7853 16116 11000 1 109.50000 418.400000
10999 16116 11000 1 109.50000 418.400000
7047 16117 7541 1 109.50000 418.400000
7047 16117 11001 1 109.50000 418.400000
7047 16117 11002 1 109.50000 418.400000
7541 16117 11001 1 109.50000 418.400000
7541 16117 11002 1 109.50000 418.400000
11001 16117 11002 1 109.50000 418.400000
1179 16118 5263 1 109.50000 418.400000
1179 16118 5636 1 109.50000 418.400000
1179 16118 7160 1 109.50000 418.400000
5263 16118 5636 1 109.50000 418.400000
5263 16118 7160 1 109.50000 418.400000
5636 16118 7160 1 109.50000 418.400000
2409 16119 4398 1 109.50000 418.400000
2409 16119 11003 1 109.50000 418.400000
2409 16119 11004 1 109.50000 418.400000
4398 16119 11003 1 109.50000 418.400000
4398 16119 11004 1 109.50000 418.400000
11003 16119 11004 1 109.50000 418.400000
5244 16120 6271 1 109.50000 418.400000
5244 16120 9675 1 109.50000 418.400000
5244 16120 10204 1 109.50000 418.400000
6271 16120 9675 1 109.50000 418.400000
6271 16120 10204 1 109.50000 418.400000
9675 16120 10204 1 109.50000 418.400000
901 16121 4360 1 109.50000 418.400000
901 16121 6944 1 109.50000 418.400000
901 16121 8640 1 109.50000 418.400000
4360 16121 6944 1 109.50000 418.400000
4360 16121 8640 1 109.50000 418.400000
6944 16121 8640 1 109.50000 418.400000
6432 16122 8889 1 109.50000 418.400000
6432 16122 9221 1 109.50000 418.400000
6432 16122 9786 1 109.50000 418.400000
8889 16122 9221 1 109.50000 418.400000
8889 16122 9786 1 109.50000 418.400000
9221 16122 9786 1 109.50000 418.400000
231 16123 6718 1 109.50000 418.400000
231 16123 9372 1 109.50000 418.400000
231 16123 10016 1 109.50000 418.400000
6718 16123 9372 1 109.50000 418.400000
6718 16123 10016 1 109.50000 418.400000
9372 16123 10016 1 109.50000 418.400000
1784 16124 2536 1 109.50000 418.400000
1784 16124 4410 1 109.50000 418.400000
1784 16124 4757 1 109.50000 418.400000
2536 16124 4410 1 109.50000 418.400000
2536 16124 4757 1 109.50000 418.400000
4410 16124 4757 1 109.50000 418.400000
1728 16125 9257 1 109.50000 418.400000
1728 16125 9435 1 109.50000 418.400000
1728 16125 9726 1 109.50000 418.400000
9257 16125 9435 1 109.50000 418.400000
9257 16125 9726 1 109.50000 418.400000
9435 16125 9726 1 109.50000 418.400000
1700 16126 3399 1 109.50000 418.400000
1700 16126 10535 1 109.50000 418.400000
1700 16126 11005 1 109.50000 418.400000
3399 16126 10535 1 109.50000 418.400000
3399 16126 11005 1 109.50000 418.400000
10535 16126 11005 1 109.50000 418.400000
6680 16127 7140 1 109.50000 418.400000
6680 16127 10926 1 109.50000 418.400000
6680 16127 10928 1 109.50000 418.400000
7140 16127 10926 1 109.50000 418.400000
7140 16127 10928 1 109.50000 418.400000
10926 16127 10928 1 109.50000 418.400000
3795 16128 4990 1 109.50000 418.400000
3795 16128 8824 1 109.50000 418.400000
3795 16128 10962 1 109.50000 418.400000
4990 16128 8824 1 109.50000 418.400000
4990 16128 10962 1 109.50000 418.400000
8824 16128 10962 1 109.50000 418.400000
2259 16129 5129 1 109.50000 418.400000
2259 16129 7335 1 109.50000 418.400000
2259 16129 9294 1 109.50000 418.400000
5129 16129 7335 1 109.50000 418.400000
5129 16129 9294 1 109.50000 418.400000
7335 16129 9294 1 109.50000 418.400000
2198 16130 3711 1 109.50000 418.400000
2198 16130 6114 1 109.50000 418.400000
2198 16130 10275 1 109.50000 418.400000
3711 16130 6114 1 109.50000 418.400000
3711 16130 10275 1 109.50000 418.400000
6114 16130 10275 1 109.50000 418.400000
4852 16131 8378 1 109.50000 418.400000
4852 16131 8933 1 109.50000 418.400000
4852 16131 9279 1 109.50000 418.400000
8378 16131 8933 1 109.50000 418.400000
8378 16131 9279 1 109.50000 418.400000
8933 16131 9279 1 109.50000 418.400000
8429 16132 11007 1 109.50000 418.400000
8429 16132 11008 1 109.50000 418.400000
8429 16132 11204 1 109.50000 418.400000
11007 16132 11008 1 109.50000 418.400000
11007 16132 11204 1 109.50000 418.400000
11008 16132 11204 1 109.50000 418.400000
1293 16133 8472 1 109.50000 418.400000
1293 16133 9646 1 109.50000 418.400000
1293 16133 10563 1 109.50000 418.400000
8472 16133 9646 1 109.50000 418.400000
8472 16133 10563 1 109.50000 418.400000
9646 16133 10563 1 109.50000 418.400000
789 16134 1245 1 109.50000 418.400000
789 16134 10484 1 109.50000 418.400000
789 16134 10955 1 109.50000 418.400000
1245 16134 10484 1 109.50000 418.400000
1245 16134 10955 1 109.50000 418.400000
10484 16134 10955 1 109.50000 418.400000
6425 16135 10611 1 109.50000 418.400000
6425 16135 11009 1 109.50000 418.400000
6425 16135 11323 1 109.50000 418.400000
10611 16135 11009 1 109.50000 418.400000
10611 16135 11323 1 109.50000 418.400000
11009 16135 11323 1 109.50000 418.400000
5058 16136 9500 1 109.50000 418.400000
5058 16136 9650 1 109.50000 418.400000
5058 16136 10758 1 109.50000 418.400000
9500 16136 9650 1 109.50000 418.400000
9500 16136 10758 1 109.50000 418.400000
9650 16136 10758 1 109.50000 418.400000
6091 16137 8522 1 109.50000 418.400000
6091 16137 8902 1 109.50000 418.400000
6091 16137 10925 1 109.50000 418.400000
8522 16137 8902 1 109.50000 418.400000
8522 16137 10925 1 109.50000 418.400000
8902 16137 10925 1 109.50000 418.400000
2354 16138 6078 1 109.50000 418.400000
2354 16138 9913 1 109.50000 418.400000
2354 16138 10969 1 109.50000 418.400000
6078 16138 9913 1 109.50000 418.400000
6078 16138 10969 1 109.50000 418.400000
9913 16138 10969 1 109.50000 418.400000
2518 16139 3100 1 109.50000 418.400000
2518 16139 10950 1 109.50000 418.400000
2518 16139 11217 1 109.50000 418.400000
3100 16139 10950 1 109.50000 418.400000
3100 16139 11217 1 109.50000 418.400000
10950 16139 11217 1 109.50000 418.400000
4416 16140 8402 1 109.50000 418.400000
4416 16140 10187 1 109.50000 418.400000
4416 16140 10435 1 109.50000 418.400000
8402 16140 10187 1 109.50000 418.400000
8402 16140 10435 1 109.50000 418.400000
10187 16140 10435 1 109.50000 418.400000
5080 16141 7318 1 109.50000 418.400000
5080 16141 8888 1 109.50000 418.400000
5080 16141 10543 1 109.50000 418.400000
7318 16141 8888 1 109.50000 418.400000
7318 16141 10543 1 109.50000 418.400000
8888 16141 10543 1 109.50000 418.400000
4899 16142 10466 1 109.50000 418.400000
4899 16142 10523 1 109.50000 418.400000
4899 16142 11010 1 109.50000 418.400000
10466 16142 10523 1 109.50000 418.400000
10466 16142 11010 1 109.50000 418.400000
10523 16142 11010 1 109.50000 418.400000
998 16143 2402 1 109.50000 418.400000
998 16143 8006 1 109.50000 418.400000
998 16143 9185 1 109.50000 418.400000
2402 16143 8006 1 109.50000 418.400000
2402 16143 9185 1 109.50000 418.400000
8006 16143 9185 1 109.50000 418.400000
8574 16144 8583 1 109.50000 418.400000
8574 16144 9543 1 109.50000 418.400000
8574 16144 10905 1 109.50000 418.400000
8583 16144 9543 1 109.50000 418.400000
8583 16144 10905 1 109.50000 418.400000
9543 16144 10905 1 109.50000 418.400000
2599 16145 5100 1 109.50000 418.400000
2599 16145 11011 1 109.50000 418.400000
2599 16145 11072 1 109.50000 418.400000
5100 16145 11011 1 109.50000 418.400000
5100 16145 11072 1 109.50000 418.400000
11011 16145 11072 1 109.50000 418.400000
879 16146 5096 1 109.50000 418.400000
879 16146 7642 1 109.50000 418.400000
879 16146 10136 1 109.50000 418.400000
5096 16146 7642 1 109.50000 418.400000
5096 16146 10136 1 109.50000 418.400000
7642 16146 10136 1 109.50000 418.400000
1967 16147 4386 1 109.50000 418.400000
1967 16147 8123 1 109.50000 418.400000
1967 16147 9794 1 109.50000 418.400000
4386 16147 8123 1 109.50000 418.400000
4386 16147 9794 1 109.50000 418.400000
8123 16147 9794 1 109.50000 418.400000
548 16148 1880 1 109.50000 418.400000
548 16148 3857 1 109.50000 418.400000
548 16148 11012 1 109.50000 418.400000
1880 16148 3857 1 109.50000 418.400000
1880 16148 11012 1 109.50000 418.400000
3857 16148 11012 1 109.50000 418.400000
2242 16149 9120 1 109.50000 418.400000
2242 16149 10927 1 109.50000 418.400000
2242 16149 11013 1 109.50000 418.400000
9120 16149 10927 1 109.50000 418.400000
9120 16149 11013 1 109.50000 418.400000
10927 16149 11013 1 109.50000 418.400000
5366 16150 5725 1 109.50000 418.400000
5366 16150 10980 1 109.50000 418.400000
5366 16150 11014 1 109.50000 418.400000
5725 16150 10980 1 109.50000 418.400000
5725 16150 11014 1 109.50000 418.400000
10980 16150 11014 1 109.50000 418.400000
5632 16151 5633 1 109.50000 418.400000
5632 16151 10169 1 109.50000 418.400000
5632 16151 11015 1 109.50000 418.400000
5633 16151 10169 1 109.50000 418.400000
5633 16151 11015 1 109.50000 418.400000
10169 16151 11015 1 109.50000 418.400000
2006 16152 7362 1 109.50000 418.400000
2006 16152 7915 1 109.50000 418.400000
2006 16152 11016 1 109.50000 418.400000
7362 16152 7915 1 109.50000 418.400000
7362 16152 11016 1 109.50000 418.400000
7915 16152 11016 1 109.50000 418.400000
1403 16153 4357 1 109.50000 418.400000
1403 16153 10739 1 109.50000 418.400000
1403 16153 10930 1 109.50000 418.400000
4357 16153 10739 1 109.50000 418.400000
4357 16153 10930 1 109.50000 418.400000
10739 16153 10930 1 109.50000 418.400000
9604 16154 10163 1 109.50000 418.400000
9604 16154 11018 1 109.50000 418.400000
9604 16154 11019 1 109.50000 418.400000
10163 16154 11018 1 109.50000 418.400000
10163 16154 11019 1 109.50000 418.400000
11018 16154 11019 1 109.50000 418.400000
6848 16155 7155 1 109.50000 418.400000
6848 16155 10697 1 109.50000 418.400000
6848 16155 10952 1 109.50000 418.400000
7155 16155 10697 1 109.50000 418.400000
7155 16155 10952 1 109.50000 418.400000
10697 16155 10952 1 109.50000 418.400000
661 16156 1304 1 109.50000 418.400000
661 16156 7350 1 109.50000 418.400000
661 16156 10338 1 109.50000 418.400000
1304 16156 7350 1 109.50000 418.400000
1304 16156 10338 1 109.50000 418.400000
7350 16156 10338 1 109.50000 418.400000
3021 16157 7052 1 109.50000 418.400000
3021 16157 9781 1 109.50000 418.400000
3021 16157 9930 1 109.50000 418.400000
7052 16157 9781 1 109.50000 418.400000
7052 16157 9930 1 109.50000 418.400000
9781 16157 9930 1 109.50000 418.400000
4790 16158 9021 1 109.50000 418.400000
4790 16158 10756 1 109.50000 418.400000
4790 16158 11168 1 109.50000 418.400000
9021 16158 10756 1 109.50000 418.400000
9021 16158 11168 1 109.50000 418.400000
10756 16158 11168 1 109.50000 418.400000
7091 16159 7092 1 109.50000 418.400000
7091 16159 8208 1 109.50000 418.400000
7091 16159 10301 1 109.50000 418.400000
7092 16159 8208 1 109.50000 418.400000
7092 16159 10301 1 109.50000 418.400000
8208 16159 10301 1 109.50000 418.400000
5699 16160 8064 1 109.50000 418.400000
5699 16160 10372 1 109.50000 418.400000
5699 16160 10936 1 109.50000 418.400000
8064 16160 10372 1 109.50000 418.400000
8064 16160 10936 1 109.50000 418.400000
10372 16160 10936 1 109.50000 418.400000
919 16161 2926 1 109.50000 418.400000
919 16161 9611 1 109.50000 418.400000
919 16161 10260 1 109.50000 418.400000
2926 16161 9611 1 109.50000 418.400000
2926 16161 10260 1 109.50000 418.400000
9611 16161 10260 1 109.50000 418.400000
8274 16162 8943 1 109.50000 418.400000
8274 16162 10730 1 109.50000 418.400000
8274 16162 11020 1 109.50000 418.400000
8943 16162 10730 1 109.50000 418.400000
8943 16162 11020 1 109.50000 418.400000
10730 16162 11020 1 109.50000 418.400000
5695 16163 8490 1 109.50000 418.400000
5695 16163 10319 1 109.50000 418.400000
5695 16163 11022 1 109.50000 418.400000
8490 16163 10319 1 109.50000 418.400000
8490 16163 11022 1 109.50000 418.400000
10319 16163 11022 1 109.50000 418.400000
183 16164 9733 1 109.50000 418.400000
183 16164 10364 1 109.50000 418.400000
183 16164 11023 1 109.50000 418.400000
9733 16164 10364 1 109.50000 418.400000
9733 16164 11023 1 109.50000 418.400000
10364 16164 11023 1 109.50000 418.400000
7108 16165 7789 1 109.50000 418.400000
7108 16165 10915 1 109.50000 418.400000
7108 16165 10966 1 109.50000 418.400000
7789 16165 10915 1 109.50000 418.400000
7789 16165 10966 1 109.50000 418.400000
10915 16165 10966 1 109.50000 418.400000
585 16166 2153 1 109.50000 418.400000
585 16166 2204 1 109.50000 418.400000
585 16166 2820 1 109.50000 418.400000
2153 16166 2204 1 109.50000 418.400000
2153 16166 2820 1 109.50000 418.400000
2204 16166 2820 1 109.50000 418.400000
4585 16167 7277 1 109.50000 418.400000
4585 16167 7279 1 109.50000 418.400000
4585 16167 10346 1 109.50000 418.400000
7277 16167 7279 1 109.50000 418.400000
7277 16167 10346 1 109.50000 418.400000
7279 16167 10346 1 109.50000 418.400000
2430 16168 2946 1 109.50000 418.400000
2430 16168 4298 1 109.50000 418.400000
2430 16168 7417 1 109.50000 418.400000
2946 16168 4298 1 109.50000 418.400000
2946 16168 7417 1 109.50000 418.400000
4298 16168 7417 1 109.50000 418.400000
115 16169 4165 1 109.50000 418.400000
115 16169 8098 1 109.50000 418.400000
115 16169 10208 1 109.50000 418.400000
4165 16169 8098 1 109.50000 418.400000
4165 16169 10208 1 109.50000 418.400000
8098 16169 10208 1 109.50000 418.400000
2742 16170 9553 1 109.50000 418.400000
2742 16170 11024 1 109.50000 418.400000
2742 16170 11025 1 109.50000 418.400000
9553 16170 11024 1 109.50000 418.400000
9553 16170 11025 1 109.50000 418.400000
11024 16170 11025 1 109.50000 418.400000
5755 16171 6206 1 109.50000 418.400000
5755 16171 9536 1 109.50000 418.400000
5755 16171 11026 1 109.50000 418.400000
6206 16171 9536 1 109.50000 418.400000
6206 16171 11026 1 109.50000 418.400000
9536 16171 11026 1 109.50000 418.400000
7473 16172 8803 1 109.50000 418.400000
7473 16172 10091 1 109.50000 418.400000
7473 16172 10871 1 109.50000 418.400000
8803 16172 10091 1 109.50000 418.400000
8803 16172 10871 1 109.50000 418.400000
10091 16172 10871 1 109.50000 418.400000
7060 16173 7649 1 109.50000 418.400000
7060 16173 9462 1 109.50000 418.400000
7060 16173 10458 1 109.50000 418.400000
7649 16173 9462 1 109.50000 418.400000
7649 16173 10458 1 109.50000 418.400000
9462 16173 10458 1 109.50000 418.400000
7586 16174 9111 1 109.50000 418.400000
7586 16174 10442 1 109.50000 418.400000
7586 16174 10607 1 109.50000 418.400000
9111 16174 10442 1 109.50000 418.400000
9111 16174 10607 1 109.50000 418.400000
10442 16174 10607 1 109.50000 418.400000
7924 16175 8988 1 109.50000 418.400000
7924 16175 10490 1 109.50000 418.400000
7924 16175 11027 1 109.50000 418.400000
8988 16175 10490 1 109.50000 418.400000
8988 16175 11027 1 109.50000 418.400000
10490 16175 11027 1 109.50000 418.400000
7411 16176 8403 1 109.50000 418.400000
7411 16176 9134 1 109.50000 418.400000
7411 16176 10305 1 109.50000 418.400000
8403 16176 9134 1 109.50000 418.400000
8403 16176 10305 1 109.50000 418.400000
9134 16176 10305 1 109.50000 418.400000
1930 16177 9177 1 109.50000 418.400000
1930 16177 10318 1 109.50000 418.400000
1930 16177 11028 1 109.50000 418.400000
9177 16177 10318 1 109.50000 418.400000
9177 16177 11028 1 109.50000 418.400000
10318 16177 11028 1 109.50000 418.400000
7472 16178 7895 1 109.50000 418.400000
7472 16178 11029 1 109.50000 418.400000
7472 16178 11030 1 109.50000 418.400000
7895 16178 11029 1 109.50000 418.400000
7895 16178 11030 1 109.50000 418.400000
11029 16178 11030 1 109.50000 418.400000
9108 16179 10483 1 109.50000 418.400000
9108 16179 10498 1 109.50000 418.400000
9108 16179 11031 1 109.50000 418.400000
10483 16179 10498 1 109.50000 418.400000
10483 16179 11031 1 109.50000 418.400000
10498 16179 11031 1 109.50000 418.400000
2086 16180 9664 1 109.50000 418.400000
2086 16180 10655 1 109.50000 418.400000
2086 16180 10770 1 109.50000 418.400000
9664 16180 10655 1 109.50000 418.400000
9664 16180 10770 1 109.50000 418.400000
10655 16180 10770 1 109.50000 418.400000
1871 16181 6659 1 109.50000 418.400000
1871 16181 7015 1 109.50000 418.400000
1871 16181 7723 1 109.50000 418.400000
6659 16181 7015 1 109.50000 418.400000
6659 16181 7723 1 109.50000 418.400000
7015 16181 7723 1 109.50000 418.400000
110 16182 1198 1 109.50000 418.400000
110 16182 4754 1 109.50000 418.400000
110 16182 4755 1 109.50000 418.400000
1198 16182 4754 1 109.50000 418.400000
1198 16182 4755 1 109.50000 418.400000
4754 16182 4755 1 109.50000 418.400000
5867 16183 10177 1 109.50000 418.400000
5867 16183 10520 1 109.50000 418.400000
5867 16183 10893 1 109.50000 418.400000
10177 16183 10520 1 109.50000 418.400000
10177 16183 10893 1 109.50000 418.400000
10520 16183 10893 1 109.50000 418.400000
3742 16184 8121 1 109.50000 418.400000
3742 16184 11012 1 109.50000 418.400000
3742 16184 11033 1 109.50000 418.400000
8121 16184 11012 1 109.50000 418.400000
8121 16184 11033 1 109.50000 418.400000
11012 16184 11033 1 109.50000 418.400000
1614 16185 6305 1 109.50000 418.400000
1614 16185 6993 1 109.50000 418.400000
1614 16185 10751 1 109.50000 418.400000
6305 16185 6993 1 109.50000 418.400000
6305 16185 10751 1 109.50000 418.400000
6993 16185 10751 1 109.50000 418.400000
7874 16186 10144 1 109.50000 418.400000
7874 16186 10462 1 109.50000 418.400000
7874 16186 10831 1 109.50000 418.400000
10144 16186 10462 1 109.50000 418.400000
10144 16186 10831 1 109.50000 418.400000
10462 16186 10831 1 109.50000 418.400000
2106 16187 5597 1 109.50000 418.400000
2106 16187 7319 1 109.50000 418.400000
2106 16187 10856 1 109.50000 418.400000
5597 16187 7319 1 109.50000 418.400000
5597 16187 10856 1 109.50000 418.400000
7319 16187 10856 1 109.50000 418.400000
4176 16188 5339 1 109.50000 418.400000
4176 16188 9155 1 109.50000 418.400000
4176 16188 10693 1 109.50000 418.400000
5339 16188 9155 1 109.50000 418.400000
5339 16188 10693 1 109.50000 418.400000
9155 16188 10693 1 109.50000 418.400000
1932 16189 3611 1 109.50000 418.400000
1932 16189 9101 1 109.50000 418.400000
1932 16189 10999 1 109.50000 418.400000
3611 16189 9101 1 109.50000 418.400000
3611 16189 10999 1 109.50000 418.400000
9101 16189 10999 1 109.50000 418.400000
2904 16190 7294 1 109.50000 418.400000
2904 16190 8561 1 109.50000 418.400000
2904 16190 10061 1 109.50000 418.400000
7294 16190 8561 1 109.50000 418.400000
7294 16190 10061 1 109.50000 418.400000
8561 16190 10061 1 109.50000 418.400000
165 16191 2621 1 109.50000 418.400000
165 16191 3505 1 109.50000 418.400000
165 16191 10182 1 109.50000 418.400000
2621 16191 3505 1 109.50000 418.400000
2621 16191 10182 1 109.50000 418.400000
3505 16191 10182 1 109.50000 418.400000
6118 16192 8756 1 109.50000 418.400000
6118 16192 9208 1 109.50000 418.400000
6118 16192 11034 1 109.50000 418.400000
8756 16192 9208 1 109.50000 418.400000
8756 16192 11034 1 109.50000 418.400000
9208 16192 11034 1 109.50000 418.400000
1853 16193 6289 1 109.50000 418.400000
1853 16193 6316 1 109.50000 418.400000
1853 16193 10883 1 109.50000 418.400000
6289 16193 6316 1 109.50000 418.400000
6289 16193 10883 1 109.50000 418.400000
6316 16193 10883 1 109.50000 418.400000
1323 16194 1342 1 109.50000 418.400000
1323 16194 2830 1 109.50000 418.400000
1323 16194 9036 1 109.50000 418.400000
1342 16194 2830 1 109.50000 418.400000
1342 16194 9036 1 109.50000 418.400000
2830 16194 9036 1 109.50000 418.400000
5702 16195 8566 1 109.50000 418.400000
5702 16195 9367 1 109.50000 418.400000
5702 16195 10890 1 109.50000 418.400000
8566 16195 9367 1 109.50000 418.400000
8566 16195 10890 1 109.50000 418.400000
9367 16195 10890 1 109.50000 418.400000
1157 16196 1468 1 109.50000 418.400000
1157 16196 8843 1 109.50000 418.400000
1157 16196 10143 1 109.50000 418.400000
1468 16196 8843 1 109.50000 418.400000
1468 16196 10143 1 109.50000 418.400000
8843 16196 10143 1 109.50000 418.400000
6570 16197 8267 1 109.50000 418.400000
6570 16197 9478 1 109.50000 418.400000
6570 16197 11004 1 109.50000 418.400000
8267 16197 9478 1 109.50000 418.400000
8267 16197 11004 1 109.50000 418.400000
9478 16197 11004 1 109.50000 418.400000
1521 16198 10452 1 109.50000 418.400000
1521 16198 10879 1 109.50000 418.400000
1521 16198 11035 1 109.50000 418.400000
10452 16198 10879 1 109.50000 418.400000
10452 16198 11035 1 109.50000 418.400000
10879 16198 11035 1 109.50000 418.400000
3671 16199 3763 1 109.50000 418.400000
3671 16199 4800 1 109.50000 418.400000
3671 16199 9444 1 109.50000 418.400000
3763 16199 4800 1 109.50000 418.400000
3763 16199 9444 1 109.50000 418.400000
4800 16199 9444 1 109.50000 418.400000
1310 16200 3155 1 109.50000 418.400000
1310 16200 7965 1 109.50000 418.400000
1310 16200 11036 1 109.50000 418.400000
3155 16200 7965 1 109.50000 418.400000
3155 16200 11036 1 109.50000 418.400000
7965 16200 11036 1 109.50000 418.400000
7639 16201 9055 1 109.50000 418.400000
7639 16201 9587 1 109.50000 418.400000
7639 16201 10679 1 109.50000 418.400000
9055 16201 9587 1 109.50000 418.400000
9055 16201 10679 1 109.50000 418.400000
9587 16201 10679 1 109.50000 418.400000
913 16202 8250 1 109.50000 418.400000
913 16202 10236 1 109.50000 418.400000
913 16202 11037 1 109.50000 418.400000
8250 16202 10236 1 109.50000 418.400000
8250 16202 11037 1 109.50000 418.400000
10236 16202 11037 1 109.50000 418.400000
2724 16203 4970 1 109.50000 418.400000
2724 16203 8598 1 109.50000 418.400000
2724 16203 9599 1 109.50000 418.400000
4970 16203 8598 1 109.50000 418.400000
4970 16203 9599 1 109.50000 418.400000
8598 16203 9599 1 109.50000 418.400000
607 16204 7211 1 109.50000 418.400000
607 16204 8921 1 109.50000 418.400000
607 16204 11038 1 109.50000 418.400000
7211 16204 8921 1 109.50000 418.400000
7211 16204 11038 1 109.50000 418.400000
8921 16204 11038 1 109.50000 418.400000
23 16205 10199 1 109.50000 418.400000
23 16205 10685 1 109.50000 418.400000
23 16205 10971 1 109.50000 418.400000
10199 16205 10685 1 109.50000 418.400000
10199 16205 10971 1 109.50000 418.400000
10685 16205 10971 1 109.50000 418.400000
6617 16206 8588 1 109.50000 418.400000
6617 16206 9756 1 109.50000 418.400000
6617 16206 11348 1 109.50000 418.400000
8588 16206 9756 1 109.50000 418.400000
8588 16206 11348 1 109.50000 418.400000
9756 16206 11348 1 109.50000 418.400000
1721 16207 5573 1 109.50000 418.400000
1721 16207 8732 1 109.50000 418.400000
1721 16207 10064 1 109.50000 418.400000
5573 16207 8732 1 109.50000 418.400000
5573 16207 10064 1 109.50000 418.400000
8732 16207 10064 1 109.50000 418.400000
6031 16208 6032 1 109.50000 418.400000
6031 16208 6494 1 109.50000 418.400000
6031 16208 10495 1 109.50000 418.400000
6032 16208 6494 1 109.50000 418.400000
6032 16208 10495 1 109.50000 418.400000
6494 16208 10495 1 109.50000 418.400000
2262 16209 8745 1 109.50000 418.400000
2262 16209 9373 1 109.50000 418.400000
2262 16209 10308 1 109.50000 418.400000
8745 16209 9373 1 109.50000 418.400000
8745 16209 10308 1 109.50000 418.400000
9373 16209 10308 1 109.50000 418.400000
1024 16210 1908 1 109.50000 418.400000
1024 16210 4101 1 109.50000 418.400000
1024 16210 10728 1 109.50000 418.400000
1908 16210 4101 1 109.50000 418.400000
1908 16210 10728 1 109.50000 418.400000
4101 16210 10728 1 109.50000 418.400000
233 16211 3059 1 109.50000 418.400000
233 16211 4478 1 109.50000 418.400000
233 16211 10185 1 109.50000 418.400000
3059 16211 4478 1 109.50000 418.400000
3059 16211 10185 1 109.50000 418.400000
4478 16211 10185 1 109.50000 418.400000
2539 16212 4469 1 109.50000 418.400000
2539 16212 10958 1 109.50000 418.400000
2539 16212 11039 1 109.50000 418.400000
4469 16212 10958 1 109.50000 418.400000
4469 16212 11039 1 109.50000 418.400000
10958 16212 11039 1 109.50000 418.400000
7130 16213 8470 1 109.50000 418.400000
7130 16213 8990 1 109.50000 418.400000
7130 16213 10946 1 109.50000 418.400000
8470 16213 8990 1 109.50000 418.400000
8470 16213 10946 1 109.50000 418.400000
8990 16213 10946 1 109.50000 418.400000
5635 16214 5805 1 109.50000 418.400000
5635 16214 10473 1 109.50000 418.400000
5635 16214 10810 1 109.50000 418.400000
5805 16214 10473 1 109.50000 418.400000
5805 16214 10810 1 109.50000 418.400000
10473 16214 10810 1 109.50000 418.400000
3159 16215 6420 1 109.50000 418.400000
3159 16215 7240 1 109.50000 418.400000
3159 16215 7241 1 109.50000 418.400000
6420 16215 7240 1 109.50000 418.400000
6420 16215 7241 1 109.50000 418.400000
7240 16215 7241 1 109.50000 418.400000
2129 16216 3870 1 109.50000 418.400000
2129 16216 4465 1 109.50000 418.400000
2129 16216 8486 1 109.50000 418.400000
3870 16216 4465 1 109.50000 418.400000
3870 16216 8486 1 109.50000 418.400000
4465 16216 8486 1 109.50000 418.400000
1509 16217 5818 1 109.50000 418.400000
1509 16217 10387 1 109.50000 418.400000
1509 16217 10885 1 109.50000 418.400000
5818 16217 10387 1 109.50000 418.400000
5818 16217 10885 1 109.50000 418.400000
10387 16217 10885 1 109.50000 418.400000
4316 16218 5316 1 109.50000 418.400000
4316 16218 6284 1 109.50000 418.400000
4316 16218 8992 1 109.50000 418.400000
5316 16218 6284 1 109.50000 418.400000
5316 16218 8992 1 109.50000 418.400000
6284 16218 8992 1 109.50000 418.400000
4022 16219 4025 1 109.50000 418.400000
4022 16219 9388 1 109.50000 418.400000
4022 16219 11040 1 109.50000 418.400000
4025 16219 9388 1 109.50000 418.400000
4025 16219 11040 1 109.50000 418.400000
9388 16219 11040 1 109.50000 418.400000
4505 16220 8126 1 109.50000 418.400000
4505 16220 8270 1 109.50000 418.400000
4505 16220 8495 1 109.50000 418.400000
8126 16220 8270 1 109.50000 418.400000
8126 16220 8495 1 109.50000 418.400000
8270 16220 8495 1 109.50000 418.400000
179 16221 4317 1 109.50000 418.400000
179 16221 8773 1 109.50000 418.400000
179 16221 10777 1 109.50000 418.400000
4317 16221 8773 1 109.50000 418.400000
4317 16221 10777 1 109.50000 418.400000
8773 16221 10777 1 109.50000 418.400000
3861 16222 10761 1 109.50000 418.400000
3861 16222 10924 1 109.50000 418.400000
3861 16222 10963 1 109.50000 418.400000
10761 16222 10924 1 109.50000 418.400000
10761 16222 10963 1 109.50000 418.400000
10924 16222 10963 1 109.50000 418.400000
4695 16223 9933 1 109.50000 418.400000
4695 16223 11041 1 109.50000 418.400000
4695 16223 11042 1 109.50000 418.400000
9933 16223 11041 1 109.50000 418.400000
9933 16223 11042 1 109.50000 418.400000
11041 16223 11042 1 109.50000 418.400000
4763 16224 5742 1 109.50000 418.400000
4763 16224 5744 1 109.50000 418.400000
4763 16224 9888 1 109.50000 418.400000
5742 16224 5744 1 109.50000 418.400000
5742 16224 9888 1 109.50000 418.400000
5744 16224 9888 1 109.50000 418.400000
2346 16225 4641 1 109.50000 418.400000
2346 16225 6227 1 109.50000 418.400000
2346 16225 7082 1 109.50000 418.400000
4641 16225 6227 1 109.50000 418.400000
4641 16225 7082 1 109.50000 418.400000
6227 16225 7082 1 109.50000 418.400000
1933 16226 10313 1 109.50000 418.400000
1933 16226 10721 1 109.50000 418.400000
1933 16226 10746 1 109.50000 418.400000
10313 16226 10721 1 109.50000 418.400000
10313 16226 10746 1 109.50000 418.400000
10721 16226 10746 1 109.50000 418.400000
309 16227 938 1 109.50000 418.400000
309 16227 11003 1 109.50000 418.400000
309 16227 11230 1 109.50000 418.400000
938 16227 11003 1 109.50000 418.400000
938 16227 11230 1 109.50000 418.400000
11003 16227 11230 1 109.50000 418.400000
964 16228 4784 1 109.50000 418.400000
964 16228 5898 1 109.50000 418.400000
964 16228 11043 1 109.50000 418.400000
4784 16228 5898 1 109.50000 418.400000
4784 16228 11043 1 109.50000 418.400000
5898 16228 11043 1 109.50000 418.400000
819 16229 6030 1 109.50000 418.400000
819 16229 9470 1 109.50000 418.400000
819 16229 10826 1 109.50000 418.400000
6030 16229 9470 1 109.50000 418.400000
6030 16229 10826 1 109.50000 418.400000
9470 16229 10826 1 109.50000 418.400000
2057 16230 4117 1 109.50000 418.400000
2057 16230 10343 1 109.50000 418.400000
2057 16230 10613 1 109.50000 418.400000
4117 16230 10343 1 109.50000 418.400000
4117 16230 10613 1 109.50000 418.400000
10343 16230 10613 1 109.50000 418.400000
8647 16231 10085 1 109.50000 418.400000
8647 16231 10303 1 109.50000 418.400000
8647 16231 11045 1 109.50000 418.400000
10085 16231 10303 1 109.50000 418.400000
10085 16231 11045 1 109.50000 418.400000
10303 16231 11045 1 109.50000 418.400000
4725 16232 7388 1 109.50000 418.400000
4725 16232 10070 1 109.50000 418.400000
4725 16232 10210 1 109.50000 418.400000
7388 16232 10070 1 109.50000 418.400000
7388 16232 10210 1 109.50000 418.400000
10070 16232 10210 1 109.50000 418.400000
5928 16233 7858 1 109.50000 418.400000
5928 16233 7896 1 109.50000 418.400000
5928 16233 8295 1 109.50000 418.400000
7858 16233 7896 1 109.50000 418.400000
7858 16233 8295 1 109.50000 418.400000
7896 16233 8295 1 109.50000 418.400000
6304 16234 10619 1 109.50000 418.400000
6304 16234 11046 1 109.50000 418.400000
6304 16234 11047 1 109.50000 418.400000
10619 16234 11046 1 109.50000 418.400000
10619 16234 11047 1 109.50000 418.400000
11046 16234 11047 1 109.50000 418.400000
1915 16235 6291 1 109.50000 418.400000
1915 16235 8446 1 109.50000 418.400000
1915 16235 10794 1 109.50000 418.400000
6291 16235 8446 1 109.50000 418.400000
6291 16235 10794 1 109.50000 418.400000
8446 16235 10794 1 109.50000 418.400000
9928 16236 10702 1 109.50000 418.400000
9928 16236 10745 1 109.50000 418.400000
9928 16236 11048 1 109.50000 418.400000
10702 16236 10745 1 109.50000 418.400000
10702 16236 11048 1 109.50000 418.400000
10745 16236 11048 1 109.50000 418.400000
3494 16237 5449 1 109.50000 418.400000
3494 16237 8321 1 109.50000 418.400000
3494 16237 11049 1 109.50000 418.400000
5449 16237 8321 1 109.50000 418.400000
5449 16237 11049 1 109.50000 418.400000
8321 16237 11049 1 109.50000 418.400000
1568 16238 2824 1 109.50000 418.400000
1568 16238 8451 1 109.50000 418.400000
1568 16238 8454 1 109.50000 418.400000
2824 16238 8451 1 109.50000 418.400000
2824 16238 8454 1 109.50000 418.400000
8451 16238 8454 1 109.50000 418.400000
1002 16239 2189 1 109.50000 418.400000
1002 16239 10799 1 109.50000 418.400000
1002 16239 11050 1 109.50000 418.400000
2189 16239 10799 1 109.50000 418.400000
2189 16239 11050 1 109.50000 418.400000
10799 16239 11050 1 109.50000 418.400000
2915 16240 7696 1 109.50000 418.400000
2915 16240 10529 1 109.50000 418.400000
2915 16240 10778 1 109.50000 418.400000
7696 16240 10529 1 109.50000 418.400000
7696 16240 10778 1 109.50000 418.400000
10529 16240 10778 1 109.50000 418.400000
3140 16241 6874 1 109.50000 418.400000
3140 16241 8903 1 109.50000 418.400000
3140 16241 9242 1 109.50000 418.400000
6874 16241 8903 1 109.50000 418.400000
6874 16241 9242 1 109.50000 418.400000
8903 16241 9242 1 109.50000 418.400000
8922 16242 9295 1 109.50000 418.400000
8922 16242 10273 1 109.50000 418.400000
8922 16242 10645 1 109.50000 418.400000
9295 16242 10273 1 109.50000 418.400000
9295 16242 10645 1 109.50000 418.400000
10273 16242 10645 1 109.50000 418.400000
791 16243 4491 1 109.50000 418.400000
791 16243 5413 1 109.50000 418.400000
791 16243 10230 1 109.50000 418.400000
4491 16243 5413 1 109.50000 418.400000
4491 16243 10230 1 109.50000 418.400000
5413 16243 10230 1 109.50000 418.400000
834 16244 1924 1 109.50000 418.400000
834 16244 8236 1 109.50000 418.400000
834 16244 10660 1 109.50000 418.400000
1924 16244 8236 1 109.50000 418.400000
1924 16244 10660 1 109.50000 418.400000
8236 16244 10660 1 109.50000 418.400000
7716 16245 8712 1 109.50000 418.400000
7716 16245 10553 1 109.50000 418.400000
7716 16245 11051 1 109.50000 418.400000
8712 16245 10553 1 109.50000 418.400000
8712 16245 11051 1 109.50000 418.400000
10553 16245 11051 1 109.50000 418.400000
4538 16246 5790 1 109.50000 418.400000
4538 16246 6640 1 109.50000 418.400000
4538 16246 8656 1 109.50000 418.400000
5790 16246 6640 1 109.50000 418.400000
5790 16246 8656 1 109.50000 418.400000
6640 16246 8656 1 109.50000 418.400000
95 16247 495 1 109.50000 418.400000
95 16247 4558 1 109.50000 418.400000
95 16247 9552 1 109.50000 418.400000
495 16247 4558 1 109.50000 418.400000
495 16247 9552 1 109.50000 418.400000
4558 16247 9552 1 109.50000 418.400000
2907 16248 2908 1 109.50000 418.400000
2907 16248 8540 1 109.50000 418.400000
2907 16248 10378 1 109.50000 418.400000
2908 16248 8540 1 109.50000 418.400000
2908 16248 10378 1 109.50000 418.400000
8540 16248 10378 1 109.50000 418.400000
4651 16249 10422 1 109.50000 418.400000
4651 16249 10760 1 109.50000 418.400000
4651 16249 11023 1 109.50000 418.400000
10422 16249 10760 1 109.50000 418.400000
10422 16249 11023 1 109.50000 418.400000
10760 16249 11023 1 109.50000 418.400000
10389 16250 10594 1 109.50000 418.400000
10389 16250 11020 1 109.50000 418.400000
10389 16250 11021 1 109.50000 418.400000
10594 16250 11020 1 109.50000 418.400000
10594 16250 11021 1 109.50000 418.400000
11020 16250 11021 1 109.50000 418.400000
4961 16251 10119 1 109.50000 418.400000
4961 16251 10306 1 109.50000 418.400000
4961 16251 11052 1 109.50000 418.400000
10119 16251 10306 1 109.50000 418.400000
10119 16251 11052 1 109.50000 418.400000
10306 16251 11052 1 109.50000 418.400000
2687 16252 4740 1 109.50000 418.400000
2687 16252 9745 1 109.50000 418.400000
2687 16252 11053 1 109.50000 418.400000
4740 16252 9745 1 109.50000 418.400000
4740 16252 11053 1 109.50000 418.400000
9745 16252 11053 1 109.50000 418.400000
4480 16253 4481 1 109.50000 418.400000
4480 16253 6824 1 109.50000 418.400000
4480 16253 11008 1 109.50000 418.400000
4481 16253 6824 1 109.50000 418.400000
4481 16253 11008 1 109.50000 418.400000
6824 16253 11008 1 109.50000 418.400000
5483 16254 8119 1 109.50000 418.400000
5483 16254 8947 1 109.50000 418.400000
5483 16254 9630 1 109.50000 418.400000
8119 16254 8947 1 109.50000 418.400000
8119 16254 9630 1 109.50000 418.400000
8947 16254 9630 1 109.50000 418.400000
7405 16255 9609 1 109.50000 418.400000
7405 16255 9610 1 109.50000 418.400000
7405 16255 9611 1 109.50000 418.400000
9609 16255 9610 1 109.50000 418.400000
9609 16255 9611 1 109.50000 418.400000
9610 16255 9611 1 109.50000 418.400000
104 16256 7826 1 109.50000 418.400000
104 16256 9079 1 109.50000 418.400000
104 16256 11056 1 109.50000 418.400000
7826 16256 9079 1 109.50000 418.400000
7826 16256 11056 1 109.50000 418.400000
9079 16256 11056 1 109.50000 418.400000
4423 16257 5226 1 109.50000 418.400000
4423 16257 5956 1 109.50000 418.400000
4423 16257 9872 1 109.50000 418.400000
5226 16257 5956 1 109.50000 418.400000
5226 16257 9872 1 109.50000 418.400000
5956 16257 9872 1 109.50000 418.400000
2456 16258 6621 1 109.50000 418.400000
2456 16258 8648 1 109.50000 418.400000
2456 16258 10357 1 109.50000 418.400000
6621 16258 8648 1 109.50000 418.400000
6621 16258 10357 1 109.50000 418.400000
8648 16258 10357 1 109.50000 418.400000
108 16259 170 1 109.50000 418.400000
108 16259 3078 1 109.50000 418.400000
108 16259 8065 1 109.50000 418.400000
170 16259 3078 1 109.50000 418.400000
170 16259 8065 1 109.50000 418.400000
3078 16259 8065 1 109.50000 418.400000
7761 16260 7829 1 109.50000 418.400000
7761 16260 8613 1 109.50000 418.400000
7761 16260 11038 1 109.50000 418.400000
7829 16260 8613 1 109.50000 418.400000
7829 16260 11038 1 109.50000 418.400000
8613 16260 11038 1 109.50000 418.400000
3194 16261 3196 1 109.50000 418.400000
3194 16261 8374 1 109.50000 418.400000
3194 16261 11037 1 109.50000 418.400000
3196 16261 8374 1 109.50000 418.400000
3196 16261 11037 1 109.50000 418.400000
8374 16261 11037 1 109.50000 418.400000
7869 16262 9450 1 109.50000 418.400000
7869 16262 10227 1 109.50000 418.400000
7869 16262 11006 1 109.50000 418.400000
9450 16262 10227 1 109.50000 418.400000
9450 16262 11006 1 109.50000 418.400000
10227 16262 11006 1 109.50000 418.400000
2929 16263 5227 1 109.50000 418.400000
2929 16263 9353 1 109.50000 418.400000
2929 16263 10190 1 109.50000 418.400000
5227 16263 9353 1 109.50000 418.400000
5227 16263 10190 1 109.50000 418.400000
9353 16263 10190 1 109.50000 418.400000
3321 16264 3718 1 109.50000 418.400000
3321 16264 10630 1 109.50000 418.400000
3321 16264 11057 1 109.50000 418.400000
3718 16264 10630 1 109.50000 418.400000
3718 16264 11057 1 109.50000 418.400000
10630 16264 11057 1 109.50000 418.400000
7095 16265 7670 1 109.50000 418.400000
7095 16265 9443 1 109.50000 418.400000
7095 16265 10722 1 109.50000 418.400000
7670 16265 9443 1 109.50000 418.400000
7670 16265 10722 1 109.50000 418.400000
9443 16265 10722 1 109.50000 418.400000
892 16266 8281 1 109.50000 418.400000
892 16266 10401 1 109.50000 418.400000
892 16266 11058 1 109.50000 418.400000
8281 16266 10401 1 109.50000 418.400000
8281 16266 11058 1 109.50000 418.400000
10401 16266 11058 1 109.50000 418.400000
4745 16267 8610 1 109.50000 418.400000
4745 16267 9692 1 109.50000 418.400000
4745 16267 10501 1 109.50000 418.400000
8610 16267 9692 1 109.50000 418.400000
8610 16267 10501 1 109.50000 418.400000
9692 16267 10501 1 109.50000 418.400000
2305 16268 8861 1 109.50000 418.400000
2305 16268 8970 1 109.50000 418.400000
2305 16268 11059 1 109.50000 418.400000
8861 16268 8970 1 109.50000 418.400000
8861 16268 11059 1 109.50000 418.400000
8970 16268 11059 1 109.50000 418.400000
7526 16269 9050 1 109.50000 418.400000
7526 16269 11060 1 109.50000 418.400000
7526 16269 11061 1 109.50000 418.400000
9050 16269 11060 1 109.50000 418.400000
9050 16269 11061 1 109.50000 418.400000
11060 16269 11061 1 109.50000 418.400000
1615 16270 3457 1 109.50000 418.400000
1615 16270 9099 1 109.50000 418.400000
1615 16270 10339 1 109.50000 418.400000
3457 16270 9099 1 109.50000 418.400000
3457 16270 10339 1 109.50000 418.400000
9099 16270 10339 1 109.50000 418.400000
3082 16271 7300 1 109.50000 418.400000
3082 16271 9941 1 109.50000 418.400000
3082 16271 11063 1 109.50000 418.400000
7300 16271 9941 1 109.50000 418.400000
7300 16271 11063 1 109.50000 418.400000
9941 16271 11063 1 109.50000 418.400000
3355 16272 5225 1 109.50000 418.400000
3355 16272 8226 1 109.50000 418.400000
3355 16272 10803 1 109.50000 418.400000
5225 16272 8226 1 109.50000 418.400000
5225 16272 10803 1 109.50000 418.400000
8226 16272 10803 1 109.50000 418.400000
7357 16273 8145 1 109.50000 418.400000
7357 16273 10354 1 109.50000 418.400000
7357 16273 10700 1 109.50000 418.400000
8145 16273 10354 1 109.50000 418.400000
8145 16273 10700 1 109.50000 418.400000
10354 16273 10700 1 109.50000 418.400000
3757 16274 8606 1 109.50000 418.400000
3757 16274 8691 1 109.50000 418.400000
3757 16274 10505 1 109.50000 418.400000
8606 16274 8691 1 109.50000 418.400000
8606 16274 10505 1 109.50000 418.400000
8691 16274 10505 1 109.50000 418.400000
2564 16275 3312 1 109.50000 418.400000
2564 16275 3684 1 109.50000 418.400000
2564 16275 8882 1 109.50000 418.400000
3312 16275 3684 1 109.50000 418.400000
3312 16275 8882 1 109.50000 418.400000
3684 16275 8882 1 109.50000 418.400000
2083 16276 2339 1 109.50000 418.400000
2083 16276 3316 1 109.50000 418.400000
2083 16276 11064 1 109.50000 418.400000
2339 16276 3316 1 109.50000 418.400000
2339 16276 11064 1 109.50000 418.400000
3316 16276 11064 1 109.50000 418.400000
489 16277 7798 1 109.50000 418.400000
489 16277 9610 1 109.50000 418.400000
489 16277 10642 1 109.50000 418.400000
7798 16277 9610 1 109.50000 418.400000
7798 16277 10642 1 109.50000 418.400000
9610 16277 10642 1 109.50000 418.400000
4373 16278 5576 1 109.50000 418.400000
4373 16278 7904 1 109.50000 418.400000
4373 16278 11065 1 109.50000 418.400000
5576 16278 7904 1 109.50000 418.400000
5576 16278 11065 1 109.50000 418.400000
7904 16278 11065 1 109.50000 418.400000
5195 16279 5503 1 109.50000 418.400000
5195 16279 9375 1 109.50000 418.400000
5195 16279 10561 1 109.50000 418.400000
5503 16279 9375 1 109.50000 418.400000
5503 16279 10561 1 109.50000 418.400000
9375 16279 10561 1 109.50000 418.400000
6571 16280 10073 1 109.50000 418.400000
6571 16280 10976 1 109.50000 418.400000
6571 16280 11066 1 109.50000 418.400000
10073 16280 10976 1 109.50000 418.400000
10073 16280 11066 1 109.50000 418.400000
10976 16280 11066 1 109.50000 418.400000
5680 16281 8147 1 109.50000 418.400000
5680 16281 9141 1 109.50000 418.400000
5680 16281 10524 1 109.50000 418.400000
8147 16281 9141 1 109.50000 418.400000
8147 16281 10524 1 109.50000 418.400000
9141 16281 10524 1 109.50000 418.400000
44 16282 807 1 109.50000 418.400000
44 16282 4858 1 109.50000 418.400000
44 16282 4988 1 109.50000 418.400000
807 16282 4858 1 109.50000 418.400000
807 16282 4988 1 109.50000 418.400000
4858 16282 4988 1 109.50000 418.400000
6059 16283 10041 1 109.50000 418.400000
6059 16283 10379 1 109.50000 418.400000
6059 16283 11068 1 109.50000 418.400000
10041 16283 10379 1 109.50000 418.400000
10041 16283 11068 1 109.50000 418.400000
10379 16283 11068 1 109.50000 418.400000
3529 16284 7111 1 109.50000 418.400000
3529 16284 8333 1 109.50000 418.400000
3529 16284 10682 1 109.50000 418.400000
7111 16284 8333 1 109.50000 418.400000
7111 16284 10682 1 109.50000 418.400000
8333 16284 10682 1 109.50000 418.400000
10030 16285 10544 1 109.50000 418.400000
10030 16285 11069 1 109.50000 418.400000
10030 16285 11368 1 109.50000 418.400000
10544 16285 11069 1 109.50000 418.400000
10544 16285 11368 1 109.50000 418.400000
11069 16285 11368 1 109.50000 418.400000
3406 16286 5580 1 109.50000 418.400000
3406 16286 6416 1 109.50000 418.400000
3406 16286 11070 1 109.50000 418.400000
5580 16286 6416 1 109.50000 418.400000
5580 16286 11070 1 109.50000 418.400000
6416 16286 11070 1 109.50000 418.400000
1092 16287 9907 1 109.50000 418.400000
1092 16287 10160 1 109.50000 418.400000
1092 16287 11071 1 109.50000 418.400000
9907 16287 10160 1 109.50000 418.400000
9907 16287 11071 1 109.50000 418.400000
10160 16287 11071 1 109.50000 418.400000
6863 16288 10933 1 109.50000 418.400000
6863 16288 11072 1 109.50000 418.400000
6863 16288 11073 1 109.50000 418.400000
10933 16288 11072 1 109.50000 418.400000
10933 16288 11073 1 109.50000 418.400000
11072 16288 11073 1 109.50000 418.400000
323 16289 2317 1 109.50000 418.400000
323 16289 5853 1 109.50000 418.400000
323 16289 11050 1 109.50000 418.400000
2317 16289 5853 1 109.50000 418.400000
2317 16289 11050 1 109.50000 418.400000
5853 16289 11050 1 109.50000 418.400000
8454 16290 10608 1 109.50000 418.400000
8454 16290 10943 1 109.50000 418.400000
8454 16290 10948 1 109.50000 418.400000
10608 16290 10943 1 109.50000 418.400000
10608 16290 10948 1 109.50000 418.400000
10943 16290 10948 1 109.50000 418.400000
4507 16291 7643 1 109.50000 418.400000
4507 16291 10095 1 109.50000 418.400000
4507 16291 10798 1 109.50000 418.400000
7643 16291 10095 1 109.50000 418.400000
7643 16291 10798 1 109.50000 418.400000
10095 16291 10798 1 109.50000 418.400000
833 16292 1720 1 109.50000 418.400000
833 16292 3848 1 109.50000 418.400000
833 16292 9624 1 109.50000 418.400000
1720 16292 3848 1 109.50000 418.400000
1720 16292 9624 1 109.50000 418.400000
3848 16292 9624 1 109.50000 418.400000
5544 16293 6401 1 109.50000 418.400000
5544 16293 7038 1 109.50000 418.400000
5544 16293 11074 1 109.50000 418.400000
6401 16293 7038 1 109.50000 418.400000
6401 16293 11074 1 109.50000 418.400000
7038 16293 11074 1 109.50000 418.400000
7982 16294 8934 1 109.50000 418.400000
7982 16294 9862 1 109.50000 418.400000
7982 16294 10429 1 109.50000 418.400000
8934 16294 9862 1 109.50000 418.400000
8934 16294 10429 1 109.50000 418.400000
9862 16294 10429 1 109.50000 418.400000
2522 16295 4681 1 109.50000 418.400000
2522 16295 7190 1 109.50000 418.400000
2522 16295 10717 1 109.50000 418.400000
4681 16295 7190 1 109.50000 418.400000
4681 16295 10717 1 109.50000 418.400000
7190 16295 10717 1 109.50000 418.400000
4106 16296 6040 1 109.50000 418.400000
4106 16296 9125 1 109.50000 418.400000
4106 16296 9126 1 109.50000 418.400000
6040 16296 9125 1 109.50000 418.400000
6040 16296 9126 1 109.50000 418.400000
9125 16296 9126 1 109.50000 418.400000
7802 16297 8130 1 109.50000 418.400000
7802 16297 9818 1 109.50000 418.400000
7802 16297 10968 1 109.50000 418.400000
8130 16297 9818 1 109.50000 418.400000
8130 16297 10968 1 109.50000 418.400000
9818 16297 10968 1 109.50000 418.400000
4748 16298 8538 1 109.50000 418.400000
4748 16298 9332 1 109.50000 418.400000
4748 16298 9863 1 109.50000 418.400000
8538 16298 9332 1 109.50000 418.400000
8538 16298 9863 1 109.50000 418.400000
9332 16298 9863 1 109.50000 418.400000
9064 16299 10861 1 109.50000 418.400000
9064 16299 10895 1 109.50000 418.400000
9064 16299 10975 1 109.50000 418.400000
10861 16299 10895 1 109.50000 418.400000
10861 16299 10975 1 109.50000 418.400000
10895 16299 10975 1 109.50000 418.400000
1257 16300 1577 1 109.50000 418.400000
1257 16300 8612 1 109.50000 418.400000
1257 16300 11076 1 109.50000 418.400000
1577 16300 8612 1 109.50000 418.400000
1577 16300 11076 1 109.50000 418.400000
8612 16300 11076 1 109.50000 418.400000
2500 16301 2921 1 109.50000 418.400000
2500 16301 7708 1 109.50000 418.400000
2500 16301 11401 1 109.50000 418.400000
2921 16301 7708 1 109.50000 418.400000
2921 16301 11401 1 109.50000 418.400000
7708 16301 11401 1 109.50000 418.400000
9139 16302 10411 1 109.50000 418.400000
9139 16302 10858 1 109.50000 418.400000
9139 16302 11075 1 109.50000 418.400000
10411 16302 10858 1 109.50000 418.400000
10411 16302 11075 1 109.50000 418.400000
10858 16302 11075 1 109.50000 418.400000
4074 16303 4313 1 109.50000 418.400000
4074 16303 4680 1 109.50000 418.400000
4074 16303 5906 1 109.50000 418.400000
4313 16303 4680 1 109.50000 418.400000
4313 16303 5906 1 109.50000 418.400000
4680 16303 5906 1 109.50000 418.400000
8228 16304 8812 1 109.50000 418.400000
8228 16304 10528 1 109.50000 418.400000
8228 16304 11028 1 109.50000 418.400000
8812 16304 10528 1 109.50000 418.400000
8812 16304 11028 1 109.50000 418.400000
10528 16304 11028 1 109.50000 418.400000
2355 16305 4004 1 109.50000 418.400000
2355 16305 9117 1 109.50000 418.400000
2355 16305 9285 1 109.50000 418.400000
4004 16305 9117 1 109.50000 418.400000
4004 16305 9285 1 109.50000 418.400000
9117 16305 9285 1 109.50000 418.400000
7536 16306 9106 1 109.50000 418.400000
7536 16306 10279 1 109.50000 418.400000
7536 16306 10310 1 109.50000 418.400000
9106 16306 10279 1 109.50000 418.400000
9106 16306 10310 1 109.50000 418.400000
10279 16306 10310 1 109.50000 418.400000
6302 16307 11009 1 109.50000 418.400000
6302 16307 11052 1 109.50000 418.400000
6302 16307 11219 1 109.50000 418.400000
11009 16307 11052 1 109.50000 418.400000
11009 16307 11219 1 109.50000 418.400000
11052 16307 11219 1 109.50000 418.400000
912 16308 2798 1 109.50000 418.400000
912 16308 6520 1 109.50000 418.400000
912 16308 11000 1 109.50000 418.400000
2798 16308 6520 1 109.50000 418.400000
2798 16308 11000 1 109.50000 418.400000
6520 16308 11000 1 109.50000 418.400000
3007 16309 5512 1 109.50000 418.400000
3007 16309 7916 1 109.50000 418.400000
3007 16309 11077 1 109.50000 418.400000
5512 16309 7916 1 109.50000 418.400000
5512 16309 11077 1 109.50000 418.400000
7916 16309 11077 1 109.50000 418.400000
1758 16310 5737 1 109.50000 418.400000
1758 16310 8731 1 109.50000 418.400000
1758 16310 9623 1 109.50000 418.400000
5737 16310 8731 1 109.50000 418.400000
5737 16310 9623 1 109.50000 418.400000
8731 16310 9623 1 109.50000 418.400000
3841 16311 7004 1 109.50000 418.400000
3841 16311 10904 1 109.50000 418.400000
3841 16311 10994 1 109.50000 418.400000
7004 16311 10904 1 109.50000 418.400000
7004 16311 10994 1 109.50000 418.400000
10904 16311 10994 1 109.50000 418.400000
365 16312 556 1 109.50000 418.400000
365 16312 1992 1 109.50000 418.400000
365 16312 10840 1 109.50000 418.400000
556 16312 1992 1 109.50000 418.400000
556 16312 10840 1 109.50000 418.400000
1992 16312 10840 1 109.50000 418.400000
6353 16313 8303 1 109.50000 418.400000
6353 16313 8809 1 109.50000 418.400000
6353 16313 10807 1 109.50000 418.400000
8303 16313 8809 1 109.50000 418.400000
8303 16313 10807 1 109.50000 418.400000
8809 16313 10807 1 109.50000 418.400000
3107 16314 8975 1 109.50000 418.400000
3107 16314 10194 1 109.50000 418.400000
3107 16314 10195 1 109.50000 418.400000
8975 16314 10194 1 109.50000 418.400000
8975 16314 10195 1 109.50000 418.400000
10194 16314 10195 1 109.50000 418.400000
2318 16315 3731 1 109.50000 418.400000
2318 16315 9396 1 109.50000 418.400000
2318 16315 10987 1 109.50000 418.400000
3731 16315 9396 1 109.50000 418.400000
3731 16315 10987 1 109.50000 418.400000
9396 16315 10987 1 109.50000 418.400000
5536 16316 9566 1 109.50000 418.400000
5536 16316 10918 1 109.50000 418.400000
5536 16316 11035 1 109.50000 418.400000
9566 16316 10918 1 109.50000 418.400000
9566 16316 11035 1 109.50000 418.400000
10918 16316 11035 1 109.50000 418.400000
8817 16317 9689 1 109.50000 418.400000
8817 16317 9890 1 109.50000 418.400000
8817 16317 10935 1 109.50000 418.400000
9689 16317 9890 1 109.50000 418.400000
9689 16317 10935 1 109.50000 418.400000
9890 16317 10935 1 109.50000 418.400000
7471 16318 8124 1 109.50000 418.400000
7471 16318 9317 1 109.50000 418.400000
7471 16318 10096 1 109.50000 418.400000
8124 16318 9317 1 109.50000 418.400000
8124 16318 10096 1 109.50000 418.400000
9317 16318 10096 1 109.50000 418.400000
4337 16319 11071 1 109.50000 418.400000
4337 16319 11079 1 109.50000 418.400000
4337 16319 11080 1 109.50000 418.400000
11071 16319 11079 1 109.50000 418.400000
11071 16319 11080 1 109.50000 418.400000
11079 16319 11080 1 109.50000 418.400000
2963 16320 5043 1 109.50000 418.400000
2963 16320 8444 1 109.50000 418.400000
2963 16320 11372 1 109.50000 418.400000
5043 16320 8444 1 109.50000 418.400000
5043 16320 11372 1 109.50000 418.400000
8444 16320 11372 1 109.50000 418.400000
5701 16321 7692 1 109.50000 418.400000
5701 16321 9217 1 109.50000 418.400000
5701 16321 9917 1 109.50000 418.400000
7692 16321 9217 1 109.50000 418.400000
7692 16321 9917 1 109.50000 418.400000
9217 16321 9917 1 109.50000 418.400000
2457 16322 2708 1 109.50000 418.400000
2457 16322 4603 1 109.50000 418.400000
2457 16322 11081 1 109.50000 418.400000
2708 16322 4603 1 109.50000 418.400000
2708 16322 11081 1 109.50000 418.400000
4603 16322 11081 1 109.50000 418.400000
2437 16323 3256 1 109.50000 418.400000
2437 16323 9826 1 109.50000 418.400000
2437 16323 10005 1 109.50000 418.400000
3256 16323 9826 1 109.50000 418.400000
3256 16323 10005 1 109.50000 418.400000
9826 16323 10005 1 109.50000 418.400000
5116 16324 9651 1 109.50000 418.400000
5116 16324 9700 1 109.50000 418.400000
5116 16324 11077 1 109.50000 418.400000
9651 16324 9700 1 109.50000 418.400000
9651 16324 11077 1 109.50000 418.400000
9700 16324 11077 1 109.50000 418.400000
4940 16325 4942 1 109.50000 418.400000
4940 16325 8358 1 109.50000 418.400000
4940 16325 10481 1 109.50000 418.400000
4942 16325 8358 1 109.50000 418.400000
4942 16325 10481 1 109.50000 418.400000
8358 16325 10481 1 109.50000 418.400000
4045 16326 5614 1 109.50000 418.400000
4045 16326 10595 1 109.50000 418.400000
4045 16326 11082 1 109.50000 418.400000
5614 16326 10595 1 109.50000 418.400000
5614 16326 11082 1 109.50000 418.400000
10595 16326 11082 1 109.50000 418.400000
5691 16327 7796 1 109.50000 418.400000
5691 16327 9382 1 109.50000 418.400000
5691 16327 11080 1 109.50000 418.400000
7796 16327 9382 1 109.50000 418.400000
7796 16327 11080 1 109.50000 418.400000
9382 16327 11080 1 109.50000 418.400000
5282 16328 5376 1 109.50000 418.400000
5282 16328 8870 1 109.50000 418.400000
5282 16328 10216 1 109.50000 418.400000
5376 16328 8870 1 109.50000 418.400000
5376 16328 10216 1 109.50000 418.400000
8870 16328 10216 1 109.50000 418.400000
812 16329 5064 1 109.50000 418.400000
812 16329 8201 1 109.50000 418.400000
812 16329 10017 1 109.50000 418.400000
5064 16329 8201 1 109.50000 418.400000
5064 16329 10017 1 109.50000 418.400000
8201 16329 10017 1 109.50000 418.400000
3640 16330 9376 1 109.50000 418.400000
3640 16330 10913 1 109.50000 418.400000
3640 16330 10920 1 109.50000 418.400000
9376 16330 10913 1 109.50000 418.400000
9376 16330 10920 1 109.50000 418.400000
10913 16330 10920 1 109.50000 418.400000
1797 16331 5186 1 109.50000 418.400000
1797 16331 6339 1 109.50000 418.400000
1797 16331 10846 1 109.50000 418.400000
5186 16331 6339 1 109.50000 418.400000
5186 16331 10846 1 109.50000 418.400000
6339 16331 10846 1 109.50000 418.400000
1127 16332 7880 1 109.50000 418.400000
1127 16332 9660 1 109.50000 418.400000
1127 16332 11083 1 109.50000 418.400000
7880 16332 9660 1 109.50000 418.400000
7880 16332 11083 1 109.50000 418.400000
9660 16332 11083 1 109.50000 418.400000
731 16333 6766 1 109.50000 418.400000
731 16333 10228 1 109.50000 418.400000
731 16333 10568 1 109.50000 418.400000
6766 16333 10228 1 109.50000 418.400000
6766 16333 10568 1 109.50000 418.400000
10228 16333 10568 1 109.50000 418.400000
235 16334 842 1 109.50000 418.400000
235 16334 9780 1 109.50000 418.400000
235 16334 10691 1 109.50000 418.400000
842 16334 9780 1 109.50000 418.400000
842 16334 10691 1 109.50000 418.400000
9780 16334 10691 1 109.50000 418.400000
1384 16335 4385 1 109.50000 418.400000
1384 16335 5213 1 109.50000 418.400000
1384 16335 6280 1 109.50000 418.400000
4385 16335 5213 1 109.50000 418.400000
4385 16335 6280 1 109.50000 418.400000
5213 16335 6280 1 109.50000 418.400000
4969 16336 8335 1 109.50000 418.400000
4969 16336 9962 1 109.50000 418.400000
4969 16336 10653 1 109.50000 418.400000
8335 16336 9962 1 109.50000 418.400000
8335 16336 10653 1 109.50000 418.400000
9962 16336 10653 1 109.50000 418.400000
6046 16337 6381 1 109.50000 418.400000
6046 16337 9612 1 109.50000 418.400000
6046 16337 10696 1 109.50000 418.400000
6381 16337 9612 1 109.50000 418.400000
6381 16337 10696 1 109.50000 418.400000
9612 16337 10696 1 109.50000 418.400000
1230 16338 8864 1 109.50000 418.400000
1230 16338 11025 1 109.50000 418.400000
1230 16338 11045 1 109.50000 418.400000
8864 16338 11025 1 109.50000 418.400000
8864 16338 11045 1 109.50000 418.400000
11025 16338 11045 1 109.50000 418.400000
1531 16339 2481 1 109.50000 418.400000
1531 16339 8352 1 109.50000 418.400000
1531 16339 9342 1 109.50000 418.400000
2481 16339 8352 1 109.50000 418.400000
2481 16339 9342 1 109.50000 418.400000
8352 16339 9342 1 109.50000 418.400000
6992 16340 7845 1 109.50000 418.400000
6992 16340 8420 1 109.50000 418.400000
6992 16340 11084 1 109.50000 418.400000
7845 16340 8420 1 109.50000 418.400000
7845 16340 11084 1 109.50000 418.400000
8420 16340 11084 1 109.50000 418.400000
3410 16341 8170 1 109.50000 418.400000
3410 16341 8346 1 109.50000 418.400000
3410 16341 9626 1 109.50000 418.400000
8170 16341 8346 1 109.50000 418.400000
8170 16341 9626 1 109.50000 418.400000
8346 16341 9626 1 109.50000 418.400000
7244 16342 7464 1 109.50000 418.400000
7244 16342 8015 1 109.50000 418.400000
7244 16342 11085 1 109.50000 418.400000
7464 16342 8015 1 109.50000 418.400000
7464 16342 11085 1 109.50000 418.400000
8015 16342 11085 1 109.50000 418.400000
8166 16343 8434 1 109.50000 418.400000
8166 16343 8436 1 109.50000 418.400000
8166 16343 9790 1 109.50000 418.400000
8434 16343 8436 1 109.50000 418.400000
8434 16343 9790 1 109.50000 418.400000
8436 16343 9790 1 109.50000 418.400000
368 16344 369 1 109.50000 418.400000
368 16344 370 1 109.50000 418.400000
368 16344 9982 1 109.50000 418.400000
369 16344 370 1 109.50000 418.400000
369 16344 9982 1 109.50000 418.400000
370 16344 9982 1 109.50000 418.400000
1901 16345 5626 1 109.50000 418.400000
1901 16345 9931 1 109.50000 418.400000
1901 16345 10294 1 109.50000 418.400000
5626 16345 9931 1 109.50000 418.400000
5626 16345 10294 1 109.50000 418.400000
9931 16345 10294 1 109.50000 418.400000
4160 16346 4215 1 109.50000 418.400000
4160 16346 10057 1 109.50000 418.400000
4160 16346 11086 1 109.50000 418.400000
4215 16346 10057 1 109.50000 418.400000
4215 16346 11086 1 109.50000 418.400000
10057 16346 11086 1 109.50000 418.400000
1095 16347 4802 1 109.50000 418.400000
1095 16347 10726 1 109.50000 418.400000
1095 16347 10937 1 109.50000 418.400000
4802 16347 10726 1 109.50000 418.400000
4802 16347 10937 1 109.50000 418.400000
10726 16347 10937 1 109.50000 418.400000
6177 16348 8820 1 109.50000 418.400000
6177 16348 10026 1 109.50000 418.400000
6177 16348 11087 1 109.50000 418.400000
8820 16348 10026 1 109.50000 418.400000
8820 16348 11087 1 109.50000 418.400000
10026 16348 11087 1 109.50000 418.400000
5943 16349 7934 1 109.50000 418.400000
5943 16349 9268 1 109.50000 418.400000
5943 16349 9408 1 109.50000 418.400000
7934 16349 9268 1 109.50000 418.400000
7934 16349 9408 1 109.50000 418.400000
9268 16349 9408 1 109.50000 418.400000
2610 16350 4204 1 109.50000 418.400000
2610 16350 6245 1 109.50000 418.400000
2610 16350 9411 1 109.50000 418.400000
4204 16350 6245 1 109.50000 418.400000
4204 16350 9411 1 109.50000 418.400000
6245 16350 9411 1 109.50000 418.400000
3854 16351 5842 1 109.50000 418.400000
3854 16351 10170 1 109.50000 418.400000
3854 16351 10285 1 109.50000 418.400000
5842 16351 10170 1 109.50000 418.400000
5842 16351 10285 1 109.50000 418.400000
10170 16351 10285 1 109.50000 418.400000
4208 16352 8473 1 109.50000 418.400000
4208 16352 9009 1 109.50000 418.400000
4208 16352 10424 1 109.50000 418.400000
8473 16352 9009 1 109.50000 418.400000
8473 16352 10424 1 109.50000 418.400000
9009 16352 10424 1 109.50000 418.400000
7882 16353 10620 1 109.50000 418.400000
7882 16353 10851 1 109.50000 418.400000
7882 16353 11088 1 109.50000 418.400000
10620 16353 10851 1 109.50000 418.400000
10620 16353 11088 1 109.50000 418.400000
10851 16353 11088 1 109.50000 418.400000
3580 16354 7041 1 109.50000 418.400000
3580 16354 9959 1 109.50000 418.400000
3580 16354 10941 1 109.50000 418.400000
7041 16354 9959 1 109.50000 418.400000
7041 16354 10941 1 109.50000 418.400000
9959 16354 10941 1 109.50000 418.400000
9857 16355 10719 1 109.50000 418.400000
9857 16355 11089 1 109.50000 418.400000
9857 16355 11090 1 109.50000 418.400000
10719 16355 11089 1 109.50000 418.400000
10719 16355 11090 1 109.50000 418.400000
11089 16355 11090 1 109.50000 418.400000
1215 16356 3499 1 109.50000 418.400000
1215 16356 9825 1 109.50000 418.400000
1215 16356 11091 1 109.50000 418.400000
3499 16356 9825 1 109.50000 418.400000
3499 16356 11091 1 109.50000 418.400000
9825 16356 11091 1 109.50000 418.400000
1843 16357 5477 1 109.50000 418.400000
1843 16357 10823 1 109.50000 418.400000
1843 16357 11051 1 109.50000 418.400000
5477 16357 10823 1 109.50000 418.400000
5477 16357 11051 1 109.50000 418.400000
10823 16357 11051 1 109.50000 418.400000
2279 16358 3225 1 109.50000 418.400000
2279 16358 6345 1 109.50000 418.400000
2279 16358 9291 1 109.50000 418.400000
3225 16358 6345 1 109.50000 418.400000
3225 16358 9291 1 109.50000 418.400000
6345 16358 9291 1 109.50000 418.400000
4029 16359 7771 1 109.50000 418.400000
4029 16359 8373 1 109.50000 418.400000
4029 16359 10415 1 109.50000 418.400000
7771 16359 8373 1 109.50000 418.400000
7771 16359 10415 1 109.50000 418.400000
8373 16359 10415 1 109.50000 418.400000
735 16360 3185 1 109.50000 418.400000
735 16360 10191 1 109.50000 418.400000
735 16360 10393 1 109.50000 418.400000
3185 16360 10191 1 109.50000 418.400000
3185 16360 10393 1 109.50000 418.400000
10191 16360 10393 1 109.50000 418.400000
4668 16361 6117 1 109.50000 418.400000
4668 16361 9254 1 109.50000 418.400000
4668 16361 10898 1 109.50000 418.400000
6117 16361 9254 1 109.50000 418.400000
6117 16361 10898 1 109.50000 418.400000
9254 16361 10898 1 109.50000 418.400000
466 16362 6821 1 109.50000 418.400000
466 16362 8167 1 109.50000 418.400000
466 16362 11061 1 109.50000 418.400000
6821 16362 8167 1 109.50000 418.400000
6821 16362 11061 1 109.50000 418.400000
8167 16362 11061 1 109.50000 418.400000
1750 16363 10502 1 109.50000 418.400000
1750 16363 10574 1 109.50000 418.400000
1750 16363 10583 1 109.50000 418.400000
10502 16363 10574 1 109.50000 418.400000
10502 16363 10583 1 109.50000 418.400000
10574 16363 10583 1 109.50000 418.400000
2300 16364 7197 1 109.50000 418.400000
2300 16364 8846 1 109.50000 418.400000
2300 16364 11093 1 109.50000 418.400000
7197 16364 8846 1 109.50000 418.400000
7197 16364 11093 1 109.50000 418.400000
8846 16364 11093 1 109.50000 418.400000
412 16365 1026 1 109.50000 418.400000
412 16365 2829 1 109.50000 418.400000
412 16365 5278 1 109.50000 418.400000
1026 16365 2829 1 109.50000 418.400000
1026 16365 5278 1 109.50000 418.400000
2829 16365 5278 1 109.50000 418.400000
3052 16366 7671 1 109.50000 418.400000
3052 16366 7672 1 109.50000 418.400000
3052 16366 10366 1 109.50000 418.400000
7671 16366 7672 1 109.50000 418.400000
7671 16366 10366 1 109.50000 418.400000
7672 16366 10366 1 109.50000 418.400000
2678 16367 4864 1 109.50000 418.400000
2678 16367 8945 1 109.50000 418.400000
2678 16367 10445 1 109.50000 418.400000
4864 16367 8945 1 109.50000 418.400000
4864 16367 10445 1 109.50000 418.400000
8945 16367 10445 1 109.50000 418.400000
1227 16368 1319 1 109.50000 418.400000
1227 16368 3083 1 109.50000 418.400000
1227 16368 3653 1 109.50000 418.400000
1319 16368 3083 1 109.50000 418.400000
1319 16368 3653 1 109.50000 418.400000
3083 16368 3653 1 109.50000 418.400000
928 16369 1014 1 109.50000 418.400000
928 16369 5720 1 109.50000 418.400000
928 16369 10198 1 109.50000 418.400000
1014 16369 5720 1 109.50000 418.400000
1014 16369 10198 1 109.50000 418.400000
5720 16369 10198 1 109.50000 418.400000
6095 16370 8537 1 109.50000 418.400000
6095 16370 8854 1 109.50000 418.400000
6095 16370 9096 1 109.50000 418.400000
8537 16370 8854 1 109.50000 418.400000
8537 16370 9096 1 109.50000 418.400000
8854 16370 9096 1 109.50000 418.400000
4607 16371 6525 1 109.50000 418.400000
4607 16371 8280 1 109.50000 418.400000
4607 16371 9313 1 109.50000 418.400000
6525 16371 8280 1 109.50000 418.400000
6525 16371 9313 1 109.50000 418.400000
8280 16371 9313 1 109.50000 418.400000
6782 16372 7105 1 109.50000 418.400000
6782 16372 9420 1 109.50000 418.400000
6782 16372 10249 1 109.50000 418.400000
7105 16372 9420 1 109.50000 418.400000
7105 16372 10249 1 109.50000 418.400000
9420 16372 10249 1 109.50000 418.400000
5417 16373 7568 1 109.50000 418.400000
5417 16373 9505 1 109.50000 418.400000
5417 16373 10795 1 109.50000 418.400000
7568 16373 9505 1 109.50000 418.400000
7568 16373 10795 1 109.50000 418.400000
9505 16373 10795 1 109.50000 418.400000
9399 16374 10762 1 109.50000 418.400000
9399 16374 10818 1 109.50000 418.400000
9399 16374 10979 1 109.50000 418.400000
10762 16374 10818 1 109.50000 418.400000
10762 16374 10979 1 109.50000 418.400000
10818 16374 10979 1 109.50000 418.400000
3974 16375 4432 1 109.50000 418.400000
3974 16375 4519 1 109.50000 418.400000
3974 16375 11299 1 109.50000 418.400000
4432 16375 4519 1 109.50000 418.400000
4432 16375 11299 1 109.50000 418.400000
4519 16375 11299 1 109.50000 418.400000
3658 16376 5167 1 109.50000 418.400000
3658 16376 6505 1 109.50000 418.400000
3658 16376 8860 1 109.50000 418.400000
5167 16376 6505 1 109.50000 418.400000
5167 16376 8860 1 109.50000 418.400000
6505 16376 8860 1 109.50000 418.400000
1631 16377 1633 1 109.50000 418.400000
1631 16377 2956 1 109.50000 418.400000
1631 16377 11057 1 109.50000 418.400000
1633 16377 2956 1 109.50000 418.400000
1633 16377 11057 1 109.50000 418.400000
2956 16377 11057 1 109.50000 418.400000
2462 16378 8028 1 109.50000 418.400000
2462 16378 8308 1 109.50000 418.400000
2462 16378 10330 1 109.50000 418.400000
8028 16378 8308 1 109.50000 418.400000
8028 16378 10330 1 109.50000 418.400000
8308 16378 10330 1 109.50000 418.400000
2461 16379 8205 1 109.50000 418.400000
2461 16379 10562 1 109.50000 418.400000
2461 16379 11094 1 109.50000 418.400000
8205 16379 10562 1 109.50000 418.400000
8205 16379 11094 1 109.50000 418.400000
10562 16379 11094 1 109.50000 418.400000
1696 16380 2144 1 109.50000 418.400000
1696 16380 9002 1 109.50000 418.400000
1696 16380 9181 1 109.50000 418.400000
2144 16380 9002 1 109.50000 418.400000
2144 16380 9181 1 109.50000 418.400000
9002 16380 9181 1 109.50000 418.400000
3784 16381 7442 1 109.50000 418.400000
3784 16381 10533 1 109.50000 418.400000
3784 16381 10572 1 109.50000 418.400000
7442 16381 10533 1 109.50000 418.400000
7442 16381 10572 1 109.50000 418.400000
10533 16381 10572 1 109.50000 418.400000
4404 16382 5045 1 109.50000 418.400000
4404 16382 6021 1 109.50000 418.400000
4404 16382 10646 1 109.50000 418.400000
5045 16382 6021 1 109.50000 418.400000
5045 16382 10646 1 109.50000 418.400000
6021 16382 10646 1 109.50000 418.400000
6801 16383 7522 1 109.50000 418.400000
6801 16383 8845 1 109.50000 418.400000
6801 16383 10901 1 109.50000 418.400000
7522 16383 8845 1 109.50000 418.400000
7522 16383 10901 1 109.50000 418.400000
8845 16383 10901 1 109.50000 418.400000
544 16384 9461 1 109.50000 418.400000
544 16384 10877 1 109.50000 418.400000
544 16384 11002 1 109.50000 418.400000
9461 16384 10877 1 109.50000 418.400000
9461 16384 11002 1 109.50000 418.400000
10877 16384 11002 1 109.50000 418.400000
1190 16385 9058 1 109.50000 418.400000
1190 16385 10589 1 109.50000 418.400000
1190 16385 10983 1 109.50000 418.400000
9058 16385 10589 1 109.50000 418.400000
9058 16385 10983 1 109.50000 418.400000
10589 16385 10983 1 109.50000 418.400000
6182 16386 6886 1 109.50000 418.400000
6182 16386 10288 1 109.50000 418.400000
6182 16386 10791 1 109.50000 418.400000
6886 16386 10288 1 109.50000 418.400000
6886 16386 10791 1 109.50000 418.400000
10288 16386 10791 1 109.50000 418.400000
7229 16387 7784 1 109.50000 418.400000
7229 16387 9589 1 109.50000 418.400000
7229 16387 11095 1 109.50000 418.400000
7784 16387 9589 1 109.50000 418.400000
7784 16387 11095 1 109.50000 418.400000
9589 16387 11095 1 109.50000 418.400000
2384 16388 9588 1 109.50000 418.400000
2384 16388 10580 1 109.50000 418.400000
2384 16388 11086 1 109.50000 418.400000
9588 16388 10580 1 109.50000 418.400000
9588 16388 11086 1 109.50000 418.400000
10580 16388 11086 1 109.50000 418.400000
2104 16389 5823 1 109.50000 418.400000
2104 16389 8139 1 109.50000 418.400000
2104 16389 9831 1 109.50000 418.400000
5823 16389 8139 1 109.50000 418.400000
5823 16389 9831 1 109.50000 418.400000
8139 16389 9831 1 109.50000 418.400000
2157 16390 2435 1 109.50000 418.400000
2157 16390 3800 1 109.50000 418.400000
2157 16390 5721 1 109.50000 418.400000
2435 16390 3800 1 109.50000 418.400000
2435 16390 5721 1 109.50000 418.400000
3800 16390 5721 1 109.50000 418.400000
2868 16391 4881 1 109.50000 418.400000
2868 16391 5560 1 109.50000 418.400000
2868 16391 7631 1 109.50000 418.400000
4881 16391 5560 1 109.50000 418.400000
4881 16391 7631 1 109.50000 418.400000
5560 16391 7631 1 109.50000 418.400000
1355 16392 7690 1 109.50000 418.400000
1355 16392 8314 1 109.50000 418.400000
1355 16392 11096 1 109.50000 418.400000
7690 16392 8314 1 109.50000 418.400000
7690 16392 11096 1 109.50000 418.400000
8314 16392 11096 1 109.50000 418.400000
1165 16393 3860 1 109.50000 418.400000
1165 16393 9135 1 109.50000 418.400000
1165 16393 10637 1 109.50000 418.400000
3860 16393 9135 1 109.50000 418.400000
3860 16393 10637 1 109.50000 418.400000
9135 16393 10637 1 109.50000 418.400000
8311 16394 9474 1 109.50000 418.400000
8311 16394 10990 1 109.50000 418.400000
8311 16394 11011 1 109.50000 418.400000
9474 16394 10990 1 109.50000 418.400000
9474 16394 11011 1 109.50000 418.400000
10990 16394 11011 1 109.50000 418.400000
6748 16395 6775 1 109.50000 418.400000
6748 16395 8432 1 109.50000 418.400000
6748 16395 9231 1 109.50000 418.400000
6775 16395 8432 1 109.50000 418.400000
6775 16395 9231 1 109.50000 418.400000
8432 16395 9231 1 109.50000 418.400000
590 16396 3761 1 109.50000 418.400000
590 16396 8966 1 109.50000 418.400000
590 16396 10235 1 109.50000 418.400000
3761 16396 8966 1 109.50000 418.400000
3761 16396 10235 1 109.50000 418.400000
8966 16396 10235 1 109.50000 418.400000
72 16397 5126 1 109.50000 418.400000
72 16397 8720 1 109.50000 418.400000
72 16397 11034 1 109.50000 418.400000
5126 16397 8720 1 109.50000 418.400000
5126 16397 11034 1 109.50000 418.400000
8720 16397 11034 1 109.50000 418.400000
3362 16398 6823 1 109.50000 418.400000
3362 16398 8429 1 109.50000 418.400000
3362 16398 8431 1 109.50000 418.400000
6823 16398 8429 1 109.50000 418.400000
6823 16398 8431 1 109.50000 418.400000
8429 16398 8431 1 109.50000 418.400000
3576 16399 4257 1 109.50000 418.400000
3576 16399 6043 1 109.50000 418.400000
3576 16399 10845 1 109.50000 418.400000
4257 16399 6043 1 109.50000 418.400000
4257 16399 10845 1 109.50000 418.400000
6043 16399 10845 1 109.50000 418.400000
2155 16400 7531 1 109.50000 418.400000
2155 16400 7592 1 109.50000 418.400000
2155 16400 10615 1 109.50000 418.400000
7531 16400 7592 1 109.50000 418.400000
7531 16400 10615 1 109.50000 418.400000
7592 16400 10615 1 109.50000 418.400000
4682 16401 6393 1 109.50000 418.400000
4682 16401 6866 1 109.50000 418.400000
4682 16401 10754 1 109.50000 418.400000
6393 16401 6866 1 109.50000 418.400000
6393 16401 10754 1 109.50000 418.400000
6866 16401 10754 1 109.50000 418.400000
4718 16402 6260 1 109.50000 418.400000
4718 16402 6805 1 109.50000 418.400000
4718 16402 10922 1 109.50000 418.400000
6260 16402 6805 1 109.50000 418.400000
6260 16402 10922 1 109.50000 418.400000
6805 16402 10922 1 109.50000 418.400000
1442 16403 8676 1 109.50000 418.400000
1442 16403 10967 1 109.50000 418.400000
1442 16403 10997 1 109.50000 418.400000
8676 16403 10967 1 109.50000 418.400000
8676 16403 10997 1 109.50000 418.400000
10967 16403 10997 1 109.50000 418.400000
3066 16404 5551 1 109.50000 418.400000
3066 16404 8013 1 109.50000 418.400000
3066 16404 9808 1 109.50000 418.400000
5551 16404 8013 1 109.50000 418.400000
5551 16404 9808 1 109.50000 418.400000
8013 16404 9808 1 109.50000 418.400000
7338 16405 8532 1 109.50000 418.400000
7338 16405 9895 1 109.50000 418.400000
7338 16405 11098 1 109.50000 418.400000
8532 16405 9895 1 109.50000 418.400000
8532 16405 11098 1 109.50000 418.400000
9895 16405 11098 1 109.50000 418.400000
525 16406 969 1 109.50000 418.400000
525 16406 5525 1 109.50000 418.400000
525 16406 6559 1 109.50000 418.400000
969 16406 5525 1 109.50000 418.400000
969 16406 6559 1 109.50000 418.400000
5525 16406 6559 1 109.50000 418.400000
5012 16407 5013 1 109.50000 418.400000
5012 16407 7621 1 109.50000 418.400000
5012 16407 7828 1 109.50000 418.400000
5013 16407 7621 1 109.50000 418.400000
5013 16407 7828 1 109.50000 418.400000
7621 16407 7828 1 109.50000 418.400000
7192 16408 8326 1 109.50000 418.400000
7192 16408 10650 1 109.50000 418.400000
7192 16408 10716 1 109.50000 418.400000
8326 16408 10650 1 109.50000 418.400000
8326 16408 10716 1 109.50000 418.400000
10650 16408 10716 1 109.50000 418.400000
2950 16409 5643 1 109.50000 418.400000
2950 16409 10980 1 109.50000 418.400000
2950 16409 10981 1 109.50000 418.400000
5643 16409 10980 1 109.50000 418.400000
5643 16409 10981 1 109.50000 418.400000
10980 16409 10981 1 109.50000 418.400000
2694 16410 7097 1 109.50000 418.400000
2694 16410 9966 1 109.50000 418.400000
2694 16410 11041 1 109.50000 418.400000
7097 16410 9966 1 109.50000 418.400000
7097 16410 11041 1 109.50000 418.400000
9966 16410 11041 1 109.50000 418.400000
978 16411 2313 1 109.50000 418.400000
978 16411 4530 1 109.50000 418.400000
978 16411 11352 1 109.50000 418.400000
2313 16411 4530 1 109.50000 418.400000
2313 16411 11352 1 109.50000 418.400000
4530 16411 11352 1 109.50000 418.400000
862 16412 1274 1 109.50000 418.400000
862 16412 1914 1 109.50000 418.400000
862 16412 10577 1 109.50000 418.400000
1274 16412 1914 1 109.50000 418.400000
1274 16412 10577 1 109.50000 418.400000
1914 16412 10577 1 109.50000 418.400000
1780 16413 3555 1 109.50000 418.400000
1780 16413 8772 1 109.50000 418.400000
1780 16413 8940 1 109.50000 418.400000
3555 16413 8772 1 109.50000 418.400000
3555 16413 8940 1 109.50000 418.400000
8772 16413 8940 1 109.50000 418.400000
1348 16414 1459 1 109.50000 418.400000
1348 16414 4992 1 109.50000 418.400000
1348 16414 8734 1 109.50000 418.400000
1459 16414 4992 1 109.50000 418.400000
1459 16414 8734 1 109.50000 418.400000
4992 16414 8734 1 109.50000 418.400000
4911 16415 4948 1 109.50000 418.400000
4911 16415 6213 1 109.50000 418.400000
4911 16415 7216 1 109.50000 418.400000
4948 16415 6213 1 109.50000 418.400000
4948 16415 7216 1 109.50000 418.400000
6213 16415 7216 1 109.50000 418.400000
3353 16416 10075 1 109.50000 418.400000
3353 16416 10974 1 109.50000 418.400000
3353 16416 11248 1 109.50000 418.400000
10075 16416 10974 1 109.50000 418.400000
10075 16416 11248 1 109.50000 418.400000
10974 16416 11248 1 109.50000 418.400000
1562 16417 7902 1 109.50000 418.400000
1562 16417 8187 1 109.50000 418.400000
1562 16417 11099 1 109.50000 418.400000
7902 16417 8187 1 109.50000 418.400000
7902 16417 11099 1 109.50000 418.400000
8187 16417 11099 1 109.50000 418.400000
212 16418 1875 1 109.50000 418.400000
212 16418 10098 1 109.50000 418.400000
212 16418 11100 1 109.50000 418.400000
1875 16418 10098 1 109.50000 418.400000
1875 16418 11100 1 109.50000 418.400000
10098 16418 11100 1 109.50000 418.400000
481 16419 7280 1 109.50000 418.400000
481 16419 9238 1 109.50000 418.400000
481 16419 10557 1 109.50000 418.400000
7280 16419 9238 1 109.50000 418.400000
7280 16419 10557 1 109.50000 418.400000
9238 16419 10557 1 109.50000 418.400000
3413 16420 7957 1 109.50000 418.400000
3413 16420 11101 1 109.50000 418.400000
3413 16420 11102 1 109.50000 418.400000
7957 16420 11101 1 109.50000 418.400000
7957 16420 11102 1 109.50000 418.400000
11101 16420 11102 1 109.50000 418.400000
355 16421 3513 1 109.50000 418.400000
355 16421 3829 1 109.50000 418.400000
355 16421 11103 1 109.50000 418.400000
3513 16421 3829 1 109.50000 418.400000
3513 16421 11103 1 109.50000 418.400000
3829 16421 11103 1 109.50000 418.400000
7951 16422 8929 1 109.50000 418.400000
7951 16422 11074 1 109.50000 418.400000
7951 16422 11104 1 109.50000 418.400000
8929 16422 11074 1 109.50000 418.400000
8929 16422 11104 1 109.50000 418.400000
11074 16422 11104 1 109.50000 418.400000
2193 16423 4831 1 109.50000 418.400000
2193 16423 8666 1 109.50000 418.400000
2193 16423 8826 1 109.50000 418.400000
4831 16423 8666 1 109.50000 418.400000
4831 16423 8826 1 109.50000 418.400000
8666 16423 8826 1 109.50000 418.400000
1928 16424 6167 1 109.50000 418.400000
1928 16424 7245 1 109.50000 418.400000
1928 16424 11105 1 109.50000 418.400000
6167 16424 7245 1 109.50000 418.400000
6167 16424 11105 1 109.50000 418.400000
7245 16424 11105 1 109.50000 418.400000
790 16425 8671 1 109.50000 418.400000
790 16425 8984 1 109.50000 418.400000
790 16425 11106 1 109.50000 418.400000
8671 16425 8984 1 109.50000 418.400000
8671 16425 11106 1 109.50000 418.400000
8984 16425 11106 1 109.50000 418.400000
3587 16426 4365 1 109.50000 418.400000
3587 16426 6308 1 109.50000 418.400000
3587 16426 7463 1 109.50000 418.400000
4365 16426 6308 1 109.50000 418.400000
4365 16426 7463 1 109.50000 418.400000
6308 16426 7463 1 109.50000 418.400000
197 16427 9584 1 109.50000 418.400000
197 16427 10623 1 109.50000 418.400000
197 16427 11107 1 109.50000 418.400000
9584 16427 10623 1 109.50000 418.400000
9584 16427 11107 1 109.50000 418.400000
10623 16427 11107 1 109.50000 418.400000
2271 16428 6811 1 109.50000 418.400000
2271 16428 10117 1 109.50000 418.400000
2271 16428 10628 1 109.50000 418.400000
6811 16428 10117 1 109.50000 418.400000
6811 16428 10628 1 109.50000 418.400000
10117 16428 10628 1 109.50000 418.400000
5057 16429 6019 1 109.50000 418.400000
5057 16429 6189 1 109.50000 418.400000
5057 16429 8900 1 109.50000 418.400000
6019 16429 6189 1 109.50000 418.400000
6019 16429 8900 1 109.50000 418.400000
6189 16429 8900 1 109.50000 418.400000
5059 16430 8895 1 109.50000 418.400000
5059 16430 10077 1 109.50000 418.400000
5059 16430 11073 1 109.50000 418.400000
8895 16430 10077 1 109.50000 418.400000
8895 16430 11073 1 109.50000 418.400000
10077 16430 11073 1 109.50000 418.400000
223 16431 6437 1 109.50000 418.400000
223 16431 9978 1 109.50000 418.400000
223 16431 10023 1 109.50000 418.400000
6437 16431 9978 1 109.50000 418.400000
6437 16431 10023 1 109.50000 418.400000
9978 16431 10023 1 109.50000 418.400000
8867 16432 10043 1 109.50000 418.400000
8867 16432 10954 1 109.50000 418.400000
8867 16432 11224 1 109.50000 418.400000
10043 16432 10954 1 109.50000 418.400000
10043 16432 11224 1 109.50000 418.400000
10954 16432 11224 1 109.50000 418.400000
4125 16433 10512 1 109.50000 418.400000
4125 16433 10992 1 109.50000 418.400000
4125 16433 11083 1 109.50000 418.400000
10512 16433 10992 1 109.50000 418.400000
10512 16433 11083 1 109.50000 418.400000
10992 16433 11083 1 109.50000 418.400000
4021 16434 6994 1 109.50000 418.400000
4021 16434 8603 1 109.50000 418.400000
4021 16434 11108 1 109.50000 418.400000
6994 16434 8603 1 109.50000 418.400000
6994 16434 11108 1 109.50000 418.400000
8603 16434 11108 1 109.50000 418.400000
4027 16435 4145 1 109.50000 418.400000
4027 16435 10684 1 109.50000 418.400000
4027 16435 11107 1 109.50000 418.400000
4145 16435 10684 1 109.50000 418.400000
4145 16435 11107 1 109.50000 418.400000
10684 16435 11107 1 109.50000 418.400000
934 16436 1361 1 109.50000 418.400000
934 16436 8687 1 109.50000 418.400000
934 16436 9354 1 109.50000 418.400000
1361 16436 8687 1 109.50000 418.400000
1361 16436 9354 1 109.50000 418.400000
8687 16436 9354 1 109.50000 418.400000
1446 16437 8380 1 109.50000 418.400000
1446 16437 11021 1 109.50000 418.400000
1446 16437 11098 1 109.50000 418.400000
8380 16437 11021 1 109.50000 418.400000
8380 16437 11098 1 109.50000 418.400000
11021 16437 11098 1 109.50000 418.400000
1920 16438 8426 1 109.50000 418.400000
1920 16438 8427 1 109.50000 418.400000
1920 16438 8428 1 109.50000 418.400000
8426 16438 8427 1 109.50000 418.400000
8426 16438 8428 1 109.50000 418.400000
8427 16438 8428 1 109.50000 418.400000
2710 16439 4978 1 109.50000 418.400000
2710 16439 6332 1 109.50000 418.400000
2710 16439 11104 1 109.50000 418.400000
4978 16439 6332 1 109.50000 418.400000
4978 16439 11104 1 109.50000 418.400000
6332 16439 11104 1 109.50000 418.400000
459 16440 817 1 109.50000 418.400000
459 16440 8365 1 109.50000 418.400000
459 16440 10833 1 109.50000 418.400000
817 16440 8365 1 109.50000 418.400000
817 16440 10833 1 109.50000 418.400000
8365 16440 10833 1 109.50000 418.400000
1415 16441 7911 1 109.50000 418.400000
1415 16441 10264 1 109.50000 418.400000
1415 16441 11109 1 109.50000 418.400000
7911 16441 10264 1 109.50000 418.400000
7911 16441 11109 1 109.50000 418.400000
10264 16441 11109 1 109.50000 418.400000
9100 16442 9146 1 109.50000 418.400000
9100 16442 9960 1 109.50000 418.400000
9100 16442 11046 1 109.50000 418.400000
9146 16442 9960 1 109.50000 418.400000
9146 16442 11046 1 109.50000 418.400000
9960 16442 11046 1 109.50000 418.400000
5919 16443 9644 1 109.50000 418.400000
5919 16443 11042 1 109.50000 418.400000
5919 16443 11110 1 109.50000 418.400000
9644 16443 11042 1 109.50000 418.400000
9644 16443 11110 1 109.50000 418.400000
11042 16443 11110 1 109.50000 418.400000
2194 16444 2195 1 109.50000 418.400000
2194 16444 7368 1 109.50000 418.400000
2194 16444 10609 1 109.50000 418.400000
2195 16444 7368 1 109.50000 418.400000
2195 16444 10609 1 109.50000 418.400000
7368 16444 10609 1 109.50000 418.400000
5995 16445 8663 1 109.50000 418.400000
5995 16445 10394 1 109.50000 418.400000
5995 16445 10892 1 109.50000 418.400000
8663 16445 10394 1 109.50000 418.400000
8663 16445 10892 1 109.50000 418.400000
10394 16445 10892 1 109.50000 418.400000
6575 16446 8460 1 109.50000 418.400000
6575 16446 8461 1 109.50000 418.400000
6575 16446 10172 1 109.50000 418.400000
8460 16446 8461 1 109.50000 418.400000
8460 16446 10172 1 109.50000 418.400000
8461 16446 10172 1 109.50000 418.400000
4195 16447 4251 1 109.50000 418.400000
4195 16447 5222 1 109.50000 418.400000
4195 16447 10910 1 109.50000 418.400000
4251 16447 5222 1 109.50000 418.400000
4251 16447 10910 1 109.50000 418.400000
5222 16447 10910 1 109.50000 418.400000
1113 16448 1114 1 109.50000 418.400000
1113 16448 1314 1 109.50000 418.400000
1113 16448 6693 1 109.50000 418.400000
1114 16448 1314 1 109.50000 418.400000
1114 16448 6693 1 109.50000 418.400000
1314 16448 6693 1 109.50000 418.400000
2557 16449 2928 1 109.50000 418.400000
2557 16449 6921 1 109.50000 418.400000
2557 16449 10942 1 109.50000 418.400000
2928 16449 6921 1 109.50000 418.400000
2928 16449 10942 1 109.50000 418.400000
6921 16449 10942 1 109.50000 418.400000
10707 16450 10844 1 109.50000 418.400000
10707 16450 11027 1 109.50000 418.400000
10707 16450 11111 1 109.50000 418.400000
10844 16450 11027 1 109.50000 418.400000
10844 16450 11111 1 109.50000 418.400000
11027 16450 11111 1 109.50000 418.400000
4916 16451 7700 1 109.50000 418.400000
4916 16451 9309 1 109.50000 418.400000
4916 16451 11103 1 109.50000 418.400000
7700 16451 9309 1 109.50000 418.400000
7700 16451 11103 1 109.50000 418.400000
9309 16451 11103 1 109.50000 418.400000
3110 16452 7832 1 109.50000 418.400000
3110 16452 8559 1 109.50000 418.400000
3110 16452 10610 1 109.50000 418.400000
7832 16452 8559 1 109.50000 418.400000
7832 16452 10610 1 109.50000 418.400000
8559 16452 10610 1 109.50000 418.400000
3162 16453 5481 1 109.50000 418.400000
3162 16453 6512 1 109.50000 418.400000
3162 16453 7360 1 109.50000 418.400000
5481 16453 6512 1 109.50000 418.400000
5481 16453 7360 1 109.50000 418.400000
6512 16453 7360 1 109.50000 418.400000
227 16454 4639 1 109.50000 418.400000
227 16454 4910 1 109.50000 418.400000
227 16454 11001 1 109.50000 418.400000
4639 16454 4910 1 109.50000 418.400000
4639 16454 11001 1 109.50000 418.400000
4910 16454 11001 1 109.50000 418.400000
10542 16455 10706 1 109.50000 418.400000
10542 16455 11067 1 109.50000 418.400000
10542 16455 11112 1 109.50000 418.400000
10706 16455 11067 1 109.50000 418.400000
10706 16455 11112 1 109.50000 418.400000
11067 16455 11112 1 109.50000 418.400000
3676 16456 10932 1 109.50000 418.400000
3676 16456 11092 1 109.50000 418.400000
3676 16456 11113 1 109.50000 418.400000
10932 16456 11092 1 109.50000 418.400000
10932 16456 11113 1 109.50000 418.400000
11092 16456 11113 1 109.50000 418.400000
7583 16457 9243 1 109.50000 418.400000
7583 16457 10525 1 109.50000 418.400000
7583 16457 11114 1 109.50000 418.400000
9243 16457 10525 1 109.50000 418.400000
9243 16457 11114 1 109.50000 418.400000
10525 16457 11114 1 109.50000 418.400000
6776 16458 7030 1 109.50000 418.400000
6776 16458 10284 1 109.50000 418.400000
6776 16458 11030 1 109.50000 418.400000
7030 16458 10284 1 109.50000 418.400000
7030 16458 11030 1 109.50000 418.400000
10284 16458 11030 1 109.50000 418.400000
3557 16459 4786 1 109.50000 418.400000
3557 16459 5423 1 109.50000 418.400000
3557 16459 5869 1 109.50000 418.400000
4786 16459 5423 1 109.50000 418.400000
4786 16459 5869 1 109.50000 418.400000
5423 16459 5869 1 109.50000 418.400000
4531 16460 6578 1 109.50000 418.400000
4531 16460 7072 1 109.50000 418.400000
4531 16460 11106 1 109.50000 418.400000
6578 16460 7072 1 109.50000 418.400000
6578 16460 11106 1 109.50000 418.400000
7072 16460 11106 1 109.50000 418.400000
863 16461 2511 1 109.50000 418.400000
863 16461 9891 1 109.50000 418.400000
863 16461 11060 1 109.50000 418.400000
2511 16461 9891 1 109.50000 418.400000
2511 16461 11060 1 109.50000 418.400000
9891 16461 11060 1 109.50000 418.400000
527 16462 9008 1 109.50000 418.400000
527 16462 10986 1 109.50000 418.400000
527 16462 11026 1 109.50000 418.400000
9008 16462 10986 1 109.50000 418.400000
9008 16462 11026 1 109.50000 418.400000
10986 16462 11026 1 109.50000 418.400000
2520 16463 8218 1 109.50000 418.400000
2520 16463 8931 1 109.50000 418.400000
2520 16463 9387 1 109.50000 418.400000
8218 16463 8931 1 109.50000 418.400000
8218 16463 9387 1 109.50000 418.400000
8931 16463 9387 1 109.50000 418.400000
5324 16464 7154 1 109.50000 418.400000
5324 16464 8979 1 109.50000 418.400000
5324 16464 10556 1 109.50000 418.400000
7154 16464 8979 1 109.50000 418.400000
7154 16464 10556 1 109.50000 418.400000
8979 16464 10556 1 109.50000 418.400000
5819 16465 8576 1 109.50000 418.400000
5819 16465 10065 1 109.50000 418.400000
5819 16465 11115 1 109.50000 418.400000
8576 16465 10065 1 109.50000 418.400000
8576 16465 11115 1 109.50000 418.400000
10065 16465 11115 1 109.50000 418.400000
1818 16466 2863 1 109.50000 418.400000
1818 16466 3073 1 109.50000 418.400000
1818 16466 10891 1 109.50000 418.400000
2863 16466 3073 1 109.50000 418.400000
2863 16466 10891 1 109.50000 418.400000
3073 16466 10891 1 109.50000 418.400000
5332 16467 9586 1 109.50000 418.400000
5332 16467 10788 1 109.50000 418.400000
5332 16467 11063 1 109.50000 418.400000
9586 16467 10788 1 109.50000 418.400000
9586 16467 11063 1 109.50000 418.400000
10788 16467 11063 1 109.50000 418.400000
997 16468 4485 1 109.50000 418.400000
997 16468 8556 1 109.50000 418.400000
997 16468 10225 1 109.50000 418.400000
4485 16468 8556 1 109.50000 418.400000
4485 16468 10225 1 109.50000 418.400000
8556 16468 10225 1 109.50000 418.400000
2711 16469 4976 1 109.50000 418.400000
2711 16469 9912 1 109.50000 418.400000
2711 16469 11117 1 109.50000 418.400000
4976 16469 9912 1 109.50000 418.400000
4976 16469 11117 1 109.50000 418.400000
9912 16469 11117 1 109.50000 418.400000
572 16470 1188 1 109.50000 418.400000
572 16470 8563 1 109.50000 418.400000
572 16470 10972 1 109.50000 418.400000
1188 16470 8563 1 109.50000 418.400000
1188 16470 10972 1 109.50000 418.400000
8563 16470 10972 1 109.50000 418.400000
680 16471 1538 1 109.50000 418.400000
680 16471 6543 1 109.50000 418.400000
680 16471 8073 1 109.50000 418.400000
1538 16471 6543 1 109.50000 418.400000
1538 16471 8073 1 109.50000 418.400000
6543 16471 8073 1 109.50000 418.400000
1651 16472 8398 1 109.50000 418.400000
1651 16472 8564 1 109.50000 418.400000
1651 16472 11069 1 109.50000 418.400000
8398 16472 8564 1 109.50000 418.400000
8398 16472 11069 1 109.50000 418.400000
8564 16472 11069 1 109.50000 418.400000
4549 16473 6861 1 109.50000 418.400000
4549 16473 8819 1 109.50000 418.400000
4549 16473 11093 1 109.50000 418.400000
6861 16473 8819 1 109.50000 418.400000
6861 16473 11093 1 109.50000 418.400000
8819 16473 11093 1 109.50000 418.400000
3694 16474 4683 1 109.50000 418.400000
3694 16474 8517 1 109.50000 418.400000
3694 16474 11118 1 109.50000 418.400000
4683 16474 8517 1 109.50000 418.400000
4683 16474 11118 1 109.50000 418.400000
8517 16474 11118 1 109.50000 418.400000
2150 16475 3626 1 109.50000 418.400000
2150 16475 11110 1 109.50000 418.400000
2150 16475 11240 1 109.50000 418.400000
3626 16475 11110 1 109.50000 418.400000
3626 16475 11240 1 109.50000 418.400000
11110 16475 11240 1 109.50000 418.400000
8240 16476 8242 1 109.50000 418.400000
8240 16476 9782 1 109.50000 418.400000
8240 16476 10044 1 109.50000 418.400000
8242 16476 9782 1 109.50000 418.400000
8242 16476 10044 1 109.50000 418.400000
9782 16476 10044 1 109.50000 418.400000
1108 16477 2925 1 109.50000 418.400000
1108 16477 6072 1 109.50000 418.400000
1108 16477 6322 1 109.50000 418.400000
2925 16477 6072 1 109.50000 418.400000
2925 16477 6322 1 109.50000 418.400000
6072 16477 6322 1 109.50000 418.400000
2951 16478 2952 1 109.50000 418.400000
2951 16478 2953 1 109.50000 418.400000
2951 16478 2954 1 109.50000 418.400000
2952 16478 2953 1 109.50000 418.400000
2952 16478 2954 1 109.50000 418.400000
2953 16478 2954 1 109.50000 418.400000
8605 16479 8693 1 109.50000 418.400000
8605 16479 9171 1 109.50000 418.400000
8605 16479 11119 1 109.50000 418.400000
8693 16479 9171 1 109.50000 418.400000
8693 16479 11119 1 109.50000 418.400000
9171 16479 11119 1 109.50000 418.400000
5103 16480 10078 1 109.50000 418.400000
5103 16480 11102 1 109.50000 418.400000
5103 16480 11120 1 109.50000 418.400000
10078 16480 11102 1 109.50000 418.400000
10078 16480 11120 1 109.50000 418.400000
11102 16480 11120 1 109.50000 418.400000
1726 16481 2981 1 109.50000 418.400000
1726 16481 7778 1 109.50000 418.400000
1726 16481 10651 1 109.50000 418.400000
2981 16481 7778 1 109.50000 418.400000
2981 16481 10651 1 109.50000 418.400000
7778 16481 10651 1 109.50000 418.400000
5500 16482 7929 1 109.50000 418.400000
5500 16482 9783 1 109.50000 418.400000
5500 16482 10914 1 109.50000 418.400000
7929 16482 9783 1 109.50000 418.400000
7929 16482 10914 1 109.50000 418.400000
9783 16482 10914 1 109.50000 418.400000
29 16483 782 1 109.50000 418.400000
29 16483 11070 1 109.50000 418.400000
29 16483 11121 1 109.50000 418.400000
782 16483 11070 1 109.50000 418.400000
782 16483 11121 1 109.50000 418.400000
11070 16483 11121 1 109.50000 418.400000
3027 16484 6288 1 109.50000 418.400000
3027 16484 9017 1 109.50000 418.400000
3027 16484 10363 1 109.50000 418.400000
6288 16484 9017 1 109.50000 418.400000
6288 16484 10363 1 109.50000 418.400000
9017 16484 10363 1 109.50000 418.400000
5839 16485 5840 1 109.50000 418.400000
5839 16485 5841 1 109.50000 418.400000
5839 16485 5842 1 109.50000 418.400000
5840 16485 5841 1 109.50000 418.400000
5840 16485 5842 1 109.50000 418.400000
5841 16485 5842 1 109.50000 418.400000
7782 16486 10299 1 109.50000 418.400000
7782 16486 10420 1 109.50000 418.400000
7782 16486 10872 1 109.50000 418.400000
10299 16486 10420 1 109.50000 418.400000
10299 16486 10872 1 109.50000 418.400000
10420 16486 10872 1 109.50000 418.400000
989 16487 3441 1 109.50000 418.400000
989 16487 4555 1 109.50000 418.400000
989 16487 11005 1 109.50000 418.400000
3441 16487 4555 1 109.50000 418.400000
3441 16487 11005 1 109.50000 418.400000
4555 16487 11005 1 109.50000 418.400000
4452 16488 8927 1 109.50000 418.400000
4452 16488 10776 1 109.50000 418.400000
4452 16488 11140 1 109.50000 418.400000
8927 16488 10776 1 109.50000 418.400000
8927 16488 11140 1 109.50000 418.400000
10776 16488 11140 1 109.50000 418.400000
1706 16489 2034 1 109.50000 418.400000
1706 16489 3366 1 109.50000 418.400000
1706 16489 8133 1 109.50000 418.400000
2034 16489 3366 1 109.50000 418.400000
2034 16489 8133 1 109.50000 418.400000
3366 16489 8133 1 109.50000 418.400000
3198 16490 8534 1 109.50000 418.400000
3198 16490 9524 1 109.50000 418.400000
3198 16490 9845 1 109.50000 418.400000
8534 16490 9524 1 109.50000 418.400000
8534 16490 9845 1 109.50000 418.400000
9524 16490 9845 1 109.50000 418.400000
1146 16491 2648 1 109.50000 418.400000
1146 16491 2649 1 109.50000 418.400000
1146 16491 5400 1 109.50000 418.400000
2648 16491 2649 1 109.50000 418.400000
2648 16491 5400 1 109.50000 418.400000
2649 16491 5400 1 109.50000 418.400000
825 16492 826 1 109.50000 418.400000
825 16492 8046 1 109.50000 418.400000
825 16492 8595 1 109.50000 418.400000
826 16492 8046 1 109.50000 418.400000
826 16492 8595 1 109.50000 418.400000
8046 16492 8595 1 109.50000 418.400000
3697 16493 5445 1 109.50000 418.400000
3697 16493 5931 1 109.50000 418.400000
3697 16493 9762 1 109.50000 418.400000
5445 16493 5931 1 109.50000 418.400000
5445 16493 9762 1 109.50000 418.400000
5931 16493 9762 1 109.50000 418.400000
6290 16494 6374 1 109.50000 418.400000
6290 16494 7955 1 109.50000 418.400000
6290 16494 8488 1 109.50000 418.400000
6374 16494 7955 1 109.50000 418.400000
6374 16494 8488 1 109.50000 418.400000
7955 16494 8488 1 109.50000 418.400000
6268 16495 8904 1 109.50000 418.400000
6268 16495 10127 1 109.50000 418.400000
6268 16495 11109 1 109.50000 418.400000
8904 16495 10127 1 109.50000 418.400000
8904 16495 11109 1 109.50000 418.400000
10127 16495 11109 1 109.50000 418.400000
1596 16496 3116 1 109.50000 418.400000
1596 16496 7715 1 109.50000 418.400000
1596 16496 8738 1 109.50000 418.400000
3116 16496 7715 1 109.50000 418.400000
3116 16496 8738 1 109.50000 418.400000
7715 16496 8738 1 109.50000 418.400000
419 16497 1168 1 109.50000 418.400000
419 16497 4116 1 109.50000 418.400000
419 16497 9673 1 109.50000 418.400000
1168 16497 4116 1 109.50000 418.400000
1168 16497 9673 1 109.50000 418.400000
4116 16497 9673 1 109.50000 418.400000
5496 16498 7539 1 109.50000 418.400000
5496 16498 9565 1 109.50000 418.400000
5496 16498 11013 1 109.50000 418.400000
7539 16498 9565 1 109.50000 418.400000
7539 16498 11013 1 109.50000 418.400000
9565 16498 11013 1 109.50000 418.400000
920 16499 8578 1 109.50000 418.400000
920 16499 11055 1 109.50000 418.400000
920 16499 11122 1 109.50000 418.400000
8578 16499 11055 1 109.50000 418.400000
8578 16499 11122 1 109.50000 418.400000
11055 16499 11122 1 109.50000 418.400000
1458 16500 5012 1 109.50000 418.400000
1458 16500 10734 1 109.50000 418.400000
1458 16500 11076 1 109.50000 418.400000
5012 16500 10734 1 109.50000 418.400000
5012 16500 11076 1 109.50000 418.400000
10734 16500 11076 1 109.50000 418.400000
2538 16501 6352 1 109.50000 418.400000
2538 16501 6530 1 109.50000 418.400000
2538 16501 7018 1 109.50000 418.400000
6352 16501 6530 1 109.50000 418.400000
6352 16501 7018 1 109.50000 418.400000
6530 16501 7018 1 109.50000 418.400000
1966 16502 3814 1 109.50000 418.400000
1966 16502 10103 1 109.50000 418.400000
1966 16502 11123 1 109.50000 418.400000
3814 16502 10103 1 109.50000 418.400000
3814 16502 11123 1 109.50000 418.400000
10103 16502 11123 1 109.50000 418.400000
2098 16503 2099 1 109.50000 418.400000
2098 16503 5776 1 109.50000 418.400000
2098 16503 10419 1 109.50000 418.400000
2099 16503 5776 1 109.50000 418.400000
2099 16503 10419 1 109.50000 418.400000
5776 16503 10419 1 109.50000 418.400000
3062 16504 5161 1 109.50000 418.400000
3062 16504 5162 1 109.50000 418.400000
3062 16504 10984 1 109.50000 418.400000
5161 16504 5162 1 109.50000 418.400000
5161 16504 10984 1 109.50000 418.400000
5162 16504 10984 1 109.50000 418.400000
4205 16505 7226 1 109.50000 418.400000
4205 16505 9368 1 109.50000 418.400000
4205 16505 11010 1 109.50000 418.400000
7226 16505 9368 1 109.50000 418.400000
7226 16505 11010 1 109.50000 418.400000
9368 16505 11010 1 109.50000 418.400000
994 16506 6005 1 109.50000 418.400000
994 16506 10929 1 109.50000 418.400000
994 16506 10960 1 109.50000 418.400000
6005 16506 10929 1 109.50000 418.400000
6005 16506 10960 1 109.50000 418.400000
10929 16506 10960 1 109.50000 418.400000
2934 16507 9186 1 109.50000 418.400000
2934 16507 10261 1 109.50000 418.400000
2934 16507 10351 1 109.50000 418.400000
9186 16507 10261 1 109.50000 418.400000
9186 16507 10351 1 109.50000 418.400000
10261 16507 10351 1 109.50000 418.400000
1656 16508 5198 1 109.50000 418.400000
1656 16508 8110 1 109.50000 418.400000
1656 16508 9833 1 109.50000 418.400000
5198 16508 8110 1 109.50000 418.400000
5198 16508 9833 1 109.50000 418.400000
8110 16508 9833 1 109.50000 418.400000
2619 16509 3128 1 109.50000 418.400000
2619 16509 7023 1 109.50000 418.400000
2619 16509 10965 1 109.50000 418.400000
3128 16509 7023 1 109.50000 418.400000
3128 16509 10965 1 109.50000 418.400000
7023 16509 10965 1 109.50000 418.400000
428 16510 4508 1 109.50000 418.400000
428 16510 5681 1 109.50000 418.400000
428 16510 11087 1 109.50000 418.400000
4508 16510 5681 1 109.50000 418.400000
4508 16510 11087 1 109.50000 418.400000
5681 16510 11087 1 109.50000 418.400000
4414 16511 5987 1 109.50000 418.400000
4414 16511 8401 1 109.50000 418.400000
4414 16511 10624 1 109.50000 418.400000
5987 16511 8401 1 109.50000 418.400000
5987 16511 10624 1 109.50000 418.400000
8401 16511 10624 1 109.50000 418.400000
5015 16512 7322 1 109.50000 418.400000
5015 16512 7889 1 109.50000 418.400000
5015 16512 10973 1 109.50000 418.400000
7322 16512 7889 1 109.50000 418.400000
7322 16512 10973 1 109.50000 418.400000
7889 16512 10973 1 109.50000 418.400000
3411 16513 10079 1 109.50000 418.400000
3411 16513 10680 1 109.50000 418.400000
3411 16513 11053 1 109.50000 418.400000
10079 16513 10680 1 109.50000 418.400000
10079 16513 11053 1 109.50000 418.400000
10680 16513 11053 1 109.50000 418.400000
2940 16514 4320 1 109.50000 418.400000
2940 16514 4652 1 109.50000 418.400000
2940 16514 9735 1 109.50000 418.400000
4320 16514 4652 1 109.50000 418.400000
4320 16514 9735 1 109.50000 418.400000
4652 16514 9735 1 109.50000 418.400000
520 16515 2176 1 109.50000 418.400000
520 16515 2178 1 109.50000 418.400000
520 16515 11124 1 109.50000 418.400000
2176 16515 2178 1 109.50000 418.400000
2176 16515 11124 1 109.50000 418.400000
2178 16515 11124 1 109.50000 418.400000
10377 16516 10639 1 109.50000 418.400000
10377 16516 11054 1 109.50000 418.400000
10377 16516 11115 1 109.50000 418.400000
10639 16516 11054 1 109.50000 418.400000
10639 16516 11115 1 109.50000 418.400000
11054 16516 11115 1 109.50000 418.400000
3837 16517 7972 1 109.50000 418.400000
3837 16517 7973 1 109.50000 418.400000
3837 16517 7974 1 109.50000 418.400000
7972 16517 7973 1 109.50000 418.400000
7972 16517 7974 1 109.50000 418.400000
7973 16517 7974 1 109.50000 418.400000
85 16518 2406 1 109.50000 418.400000
85 16518 6731 1 109.50000 418.400000
85 16518 10062 1 109.50000 418.400000
2406 16518 6731 1 109.50000 418.400000
2406 16518 10062 1 109.50000 418.400000
6731 16518 10062 1 109.50000 418.400000
3489 16519 9205 1 109.50000 418.400000
3489 16519 10386 1 109.50000 418.400000
3489 16519 10907 1 109.50000 418.400000
9205 16519 10386 1 109.50000 418.400000
9205 16519 10907 1 109.50000 418.400000
10386 16519 10907 1 109.50000 418.400000
2108 16520 3589 1 109.50000 418.400000
2108 16520 5844 1 109.50000 418.400000
2108 16520 8994 1 109.50000 418.400000
3589 16520 5844 1 109.50000 418.400000
3589 16520 8994 1 109.50000 418.400000
5844 16520 8994 1 109.50000 418.400000
6648 16521 7954 1 109.50000 418.400000
6648 16521 10359 1 109.50000 418.400000
6648 16521 10537 1 109.50000 418.400000
7954 16521 10359 1 109.50000 418.400000
7954 16521 10537 1 109.50000 418.400000
10359 16521 10537 1 109.50000 418.400000
6778 16522 9546 1 109.50000 418.400000
6778 16522 9814 1 109.50000 418.400000
6778 16522 10510 1 109.50000 418.400000
9546 16522 9814 1 109.50000 418.400000
9546 16522 10510 1 109.50000 418.400000
9814 16522 10510 1 109.50000 418.400000
1543 16523 9207 1 109.50000 418.400000
1543 16523 9274 1 109.50000 418.400000
1543 16523 10850 1 109.50000 418.400000
9207 16523 9274 1 109.50000 418.400000
9207 16523 10850 1 109.50000 418.400000
9274 16523 10850 1 109.50000 418.400000
824 16524 6394 1 109.50000 418.400000
824 16524 10601 1 109.50000 418.400000
824 16524 11065 1 109.50000 418.400000
6394 16524 10601 1 109.50000 418.400000
6394 16524 11065 1 109.50000 418.400000
10601 16524 11065 1 109.50000 418.400000
1284 16525 1285 1 109.50000 418.400000
1284 16525 5949 1 109.50000 418.400000
1284 16525 10699 1 109.50000 418.400000
1285 16525 5949 1 109.50000 418.400000
1285 16525 10699 1 109.50000 418.400000
5949 16525 10699 1 109.50000 418.400000
4105 16526 5215 1 109.50000 418.400000
4105 16526 9539 1 109.50000 418.400000
4105 16526 11018 1 109.50000 418.400000
5215 16526 9539 1 109.50000 418.400000
5215 16526 11018 1 109.50000 418.400000
9539 16526 11018 1 109.50000 418.400000
7523 16527 9123 1 109.50000 418.400000
7523 16527 10809 1 109.50000 418.400000
7523 16527 11082 1 109.50000 418.400000
9123 16527 10809 1 109.50000 418.400000
9123 16527 11082 1 109.50000 418.400000
10809 16527 11082 1 109.50000 418.400000
338 16528 4532 1 109.50000 418.400000
338 16528 8670 1 109.50000 418.400000
338 16528 9680 1 109.50000 418.400000
4532 16528 8670 1 109.50000 418.400000
4532 16528 9680 1 109.50000 418.400000
8670 16528 9680 1 109.50000 418.400000
382 16529 10509 1 109.50000 418.400000
382 16529 10796 1 109.50000 418.400000
382 16529 10978 1 109.50000 418.400000
10509 16529 10796 1 109.50000 418.400000
10509 16529 10978 1 109.50000 418.400000
10796 16529 10978 1 109.50000 418.400000
1295 16530 2041 1 109.50000 418.400000
1295 16530 3752 1 109.50000 418.400000
1295 16530 4326 1 109.50000 418.400000
2041 16530 3752 1 109.50000 418.400000
2041 16530 4326 1 109.50000 418.400000
3752 16530 4326 1 109.50000 418.400000
1449 16531 5760 1 109.50000 418.400000
1449 16531 5815 1 109.50000 418.400000
1449 16531 7336 1 109.50000 418.400000
5760 16531 5815 1 109.50000 418.400000
5760 16531 7336 1 109.50000 418.400000
5815 16531 7336 1 109.50000 418.400000
2173 16532 7382 1 109.50000 418.400000
2173 16532 8025 1 109.50000 418.400000
2173 16532 10039 1 109.50000 418.400000
7382 16532 8025 1 109.50000 418.400000
7382 16532 10039 1 109.50000 418.400000
8025 16532 10039 1 109.50000 418.400000
247 16533 587 1 109.50000 418.400000
247 16533 7961 1 109.50000 418.400000
247 16533 10709 1 109.50000 418.400000
587 16533 7961 1 109.50000 418.400000
587 16533 10709 1 109.50000 418.400000
7961 16533 10709 1 109.50000 418.400000
947 16534 2466 1 109.50000 418.400000
947 16534 6955 1 109.50000 418.400000
947 16534 9488 1 109.50000 418.400000
2466 16534 6955 1 109.50000 418.400000
2466 16534 9488 1 109.50000 418.400000
6955 16534 9488 1 109.50000 418.400000
4107 16535 8159 1 109.50000 418.400000
4107 16535 10436 1 109.50000 418.400000
4107 16535 11126 1 109.50000 418.400000
8159 16535 10436 1 109.50000 418.400000
8159 16535 11126 1 109.50000 418.400000
10436 16535 11126 1 109.50000 418.400000
2395 16536 2397 1 109.50000 418.400000
2395 16536 4283 1 109.50000 418.400000
2395 16536 8310 1 109.50000 418.400000
2397 16536 4283 1 109.50000 418.400000
2397 16536 8310 1 109.50000 418.400000
4283 16536 8310 1 109.50000 418.400000
364 16537 4503 1 109.50000 418.400000
364 16537 6325 1 109.50000 418.400000
364 16537 7134 1 109.50000 418.400000
4503 16537 6325 1 109.50000 418.400000
4503 16537 7134 1 109.50000 418.400000
6325 16537 7134 1 109.50000 418.400000
5435 16538 6804 1 109.50000 418.400000
5435 16538 7587 1 109.50000 418.400000
5435 16538 10921 1 109.50000 418.400000
6804 16538 7587 1 109.50000 418.400000
6804 16538 10921 1 109.50000 418.400000
7587 16538 10921 1 109.50000 418.400000
1103 16539 7537 1 109.50000 418.400000
1103 16539 10107 1 109.50000 418.400000
1103 16539 11127 1 109.50000 418.400000
7537 16539 10107 1 109.50000 418.400000
7537 16539 11127 1 109.50000 418.400000
10107 16539 11127 1 109.50000 418.400000
1079 16540 1890 1 109.50000 418.400000
1079 16540 7150 1 109.50000 418.400000
1079 16540 7759 1 109.50000 418.400000
1890 16540 7150 1 109.50000 418.400000
1890 16540 7759 1 109.50000 418.400000
7150 16540 7759 1 109.50000 418.400000
6328 16541 8332 1 109.50000 418.400000
6328 16541 9638 1 109.50000 418.400000
6328 16541 11128 1 109.50000 418.400000
8332 16541 9638 1 109.50000 418.400000
8332 16541 11128 1 109.50000 418.400000
9638 16541 11128 1 109.50000 418.400000
6278 16542 9381 1 109.50000 418.400000
6278 16542 10102 1 109.50000 418.400000
6278 16542 10897 1 109.50000 418.400000
9381 16542 10102 1 109.50000 418.400000
9381 16542 10897 1 109.50000 418.400000
10102 16542 10897 1 109.50000 418.400000
2980 16543 9149 1 109.50000 418.400000
2980 16543 11017 1 109.50000 418.400000
2980 16543 11129 1 109.50000 418.400000
9149 16543 11017 1 109.50000 418.400000
9149 16543 11129 1 109.50000 418.400000
11017 16543 11129 1 109.50000 418.400000
2477 16544 2479 1 109.50000 418.400000
2477 16544 3081 1 109.50000 418.400000
2477 16544 9339 1 109.50000 418.400000
2479 16544 3081 1 109.50000 418.400000
2479 16544 9339 1 109.50000 418.400000
3081 16544 9339 1 109.50000 418.400000
6061 16545 7684 1 109.50000 418.400000
6061 16545 10847 1 109.50000 418.400000
6061 16545 11031 1 109.50000 418.400000
7684 16545 10847 1 109.50000 418.400000
7684 16545 11031 1 109.50000 418.400000
10847 16545 11031 1 109.50000 418.400000
2634 16546 7729 1 109.50000 418.400000
2634 16546 9088 1 109.50000 418.400000
2634 16546 9868 1 109.50000 418.400000
7729 16546 9088 1 109.50000 418.400000
7729 16546 9868 1 109.50000 418.400000
9088 16546 9868 1 109.50000 418.400000
2828 16547 4120 1 109.50000 418.400000
2828 16547 9523 1 109.50000 418.400000
2828 16547 11114 1 109.50000 418.400000
4120 16547 9523 1 109.50000 418.400000
4120 16547 11114 1 109.50000 418.400000
9523 16547 11114 1 109.50000 418.400000
10579 16548 10887 1 109.50000 418.400000
10579 16548 11095 1 109.50000 418.400000
10579 16548 11097 1 109.50000 418.400000
10887 16548 11095 1 109.50000 418.400000
10887 16548 11097 1 109.50000 418.400000
11095 16548 11097 1 109.50000 418.400000
6241 16549 6351 1 109.50000 418.400000
6241 16549 6404 1 109.50000 418.400000
6241 16549 9875 1 109.50000 418.400000
6351 16549 6404 1 109.50000 418.400000
6351 16549 9875 1 109.50000 418.400000
6404 16549 9875 1 109.50000 418.400000
124 16550 2331 1 109.50000 418.400000
124 16550 8116 1 109.50000 418.400000
124 16550 11130 1 109.50000 418.400000
2331 16550 8116 1 109.50000 418.400000
2331 16550 11130 1 109.50000 418.400000
8116 16550 11130 1 109.50000 418.400000
8735 16551 10446 1 109.50000 418.400000
8735 16551 10733 1 109.50000 418.400000
8735 16551 11113 1 109.50000 418.400000
10446 16551 10733 1 109.50000 418.400000
10446 16551 11113 1 109.50000 418.400000
10733 16551 11113 1 109.50000 418.400000
2608 16552 3982 1 109.50000 418.400000
2608 16552 10848 1 109.50000 418.400000
2608 16552 11100 1 109.50000 418.400000
3982 16552 10848 1 109.50000 418.400000
3982 16552 11100 1 109.50000 418.400000
10848 16552 11100 1 109.50000 418.400000
3732 16553 10938 1 109.50000 418.400000
3732 16553 10989 1 109.50000 418.400000
3732 16553 11066 1 109.50000 418.400000
10938 16553 10989 1 109.50000 418.400000
10938 16553 11066 1 109.50000 418.400000
10989 16553 11066 1 109.50000 418.400000
2124 16554 3528 1 109.50000 418.400000
2124 16554 7972 1 109.50000 418.400000
2124 16554 10156 1 109.50000 418.400000
3528 16554 7972 1 109.50000 418.400000
3528 16554 10156 1 109.50000 418.400000
7972 16554 10156 1 109.50000 418.400000
1001 16555 4931 1 109.50000 418.400000
1001 16555 9451 1 109.50000 418.400000
1001 16555 10909 1 109.50000 418.400000
4931 16555 9451 1 109.50000 418.400000
4931 16555 10909 1 109.50000 418.400000
9451 16555 10909 1 109.50000 418.400000
2291 16556 9617 1 109.50000 418.400000
2291 16556 10215 1 109.50000 418.400000
2291 16556 10812 1 109.50000 418.400000
9617 16556 10215 1 109.50000 418.400000
9617 16556 10812 1 109.50000 418.400000
10215 16556 10812 1 109.50000 418.400000
4300 16557 4445 1 109.50000 418.400000
4300 16557 8557 1 109.50000 418.400000
4300 16557 11127 1 109.50000 418.400000
4445 16557 8557 1 109.50000 418.400000
4445 16557 11127 1 109.50000 418.400000
8557 16557 11127 1 109.50000 418.400000
3865 16558 5537 1 109.50000 418.400000
3865 16558 5668 1 109.50000 418.400000
3865 16558 8996 1 109.50000 418.400000
5537 16558 5668 1 109.50000 418.400000
5537 16558 8996 1 109.50000 418.400000
5668 16558 8996 1 109.50000 418.400000
5623 16559 9503 1 109.50000 418.400000
5623 16559 9924 1 109.50000 418.400000
5623 16559 11048 1 109.50000 418.400000
9503 16559 9924 1 109.50000 418.400000
9503 16559 11048 1 109.50000 418.400000
9924 16559 11048 1 109.50000 418.400000
4520 16560 8697 1 109.50000 418.400000
4520 16560 10827 1 109.50000 418.400000
4520 16560 11131 1 109.50000 418.400000
8697 16560 10827 1 109.50000 418.400000
8697 16560 11131 1 109.50000 418.400000
10827 16560 11131 1 109.50000 418.400000
4726 16561 7378 1 109.50000 418.400000
4726 16561 8319 1 109.50000 418.400000
4726 16561 8516 1 109.50000 418.400000
7378 16561 8319 1 109.50000 418.400000
7378 16561 8516 1 109.50000 418.400000
8319 16561 8516 1 109.50000 418.400000
1287 16562 1897 1 109.50000 418.400000
1287 16562 3833 1 109.50000 418.400000
1287 16562 10899 1 109.50000 418.400000
1897 16562 3833 1 109.50000 418.400000
1897 16562 10899 1 109.50000 418.400000
3833 16562 10899 1 109.50000 418.400000
7654 16563 8739 1 109.50000 418.400000
7654 16563 10454 1 109.50000 418.400000
7654 16563 11096 1 109.50000 418.400000
8739 16563 10454 1 109.50000 418.400000
8739 16563 11096 1 109.50000 418.400000
10454 16563 11096 1 109.50000 418.400000
465 16564 8347 1 109.50000 418.400000
465 16564 10007 1 109.50000 418.400000
465 16564 10792 1 109.50000 418.400000
8347 16564 10007 1 109.50000 418.400000
8347 16564 10792 1 109.50000 418.400000
10007 16564 10792 1 109.50000 418.400000
2269 16565 2270 1 109.50000 418.400000
2269 16565 6796 1 109.50000 418.400000
2269 16565 11123 1 109.50000 418.400000
2270 16565 6796 1 109.50000 418.400000
2270 16565 11123 1 109.50000 418.400000
6796 16565 11123 1 109.50000 418.400000
2951 16566 5399 1 109.50000 418.400000
2951 16566 10106 1 109.50000 418.400000
2951 16566 10596 1 109.50000 418.400000
5399 16566 10106 1 109.50000 418.400000
5399 16566 10596 1 109.50000 418.400000
10106 16566 10596 1 109.50000 418.400000
4277 16567 8607 1 109.50000 418.400000
4277 16567 10503 1 109.50000 418.400000
4277 16567 10548 1 109.50000 418.400000
8607 16567 10503 1 109.50000 418.400000
8607 16567 10548 1 109.50000 418.400000
10503 16567 10548 1 109.50000 418.400000
6673 16568 7561 1 109.50000 418.400000
6673 16568 9850 1 109.50000 418.400000
6673 16568 11079 1 109.50000 418.400000
7561 16568 9850 1 109.50000 418.400000
7561 16568 11079 1 109.50000 418.400000
9850 16568 11079 1 109.50000 418.400000
3398 16569 8542 1 109.50000 418.400000
3398 16569 11084 1 109.50000 418.400000
3398 16569 11130 1 109.50000 418.400000
8542 16569 11084 1 109.50000 418.400000
8542 16569 11130 1 109.50000 418.400000
11084 16569 11130 1 109.50000 418.400000
2989 16570 4560 1 109.50000 418.400000
2989 16570 5262 1 109.50000 418.400000
2989 16570 5266 1 109.50000 418.400000
4560 16570 5262 1 109.50000 418.400000
4560 16570 5266 1 109.50000 418.400000
5262 16570 5266 1 109.50000 418.400000
6529 16571 10287 1 109.50000 418.400000
6529 16571 10789 1 109.50000 418.400000
6529 16571 11132 1 109.50000 418.400000
10287 16571 10789 1 109.50000 418.400000
10287 16571 11132 1 109.50000 418.400000
10789 16571 11132 1 109.50000 418.400000
2162 16572 2595 1 109.50000 418.400000
2162 16572 9456 1 109.50000 418.400000
2162 16572 11007 1 109.50000 418.400000
2595 16572 9456 1 109.50000 418.400000
2595 16572 11007 1 109.50000 418.400000
9456 16572 11007 1 109.50000 418.400000
224 16573 3114 1 109.50000 418.400000
224 16573 6829 1 109.50000 418.400000
224 16573 10455 1 109.50000 418.400000
3114 16573 6829 1 109.50000 418.400000
3114 16573 10455 1 109.50000 418.400000
6829 16573 10455 1 109.50000 418.400000
1071 16574 6221 1 109.50000 418.400000
1071 16574 9174 1 109.50000 418.400000
1071 16574 10115 1 109.50000 418.400000
6221 16574 9174 1 109.50000 418.400000
6221 16574 10115 1 109.50000 418.400000
9174 16574 10115 1 109.50000 418.400000
1262 16575 5418 1 109.50000 418.400000
1262 16575 6751 1 109.50000 418.400000
1262 16575 9880 1 109.50000 418.400000
5418 16575 6751 1 109.50000 418.400000
5418 16575 9880 1 109.50000 418.400000
6751 16575 9880 1 109.50000 418.400000
7988 16576 8127 1 109.50000 418.400000
7988 16576 10234 1 109.50000 418.400000
7988 16576 11129 1 109.50000 418.400000
8127 16576 10234 1 109.50000 418.400000
8127 16576 11129 1 109.50000 418.400000
10234 16576 11129 1 109.50000 418.400000
2999 16577 3997 1 109.50000 418.400000
2999 16577 8855 1 109.50000 418.400000
2999 16577 10245 1 109.50000 418.400000
3997 16577 8855 1 109.50000 418.400000
3997 16577 10245 1 109.50000 418.400000
8855 16577 10245 1 109.50000 418.400000
8210 16578 9001 1 109.50000 418.400000
8210 16578 10356 1 109.50000 418.400000
8210 16578 11196 1 109.50000 418.400000
9001 16578 10356 1 109.50000 418.400000
9001 16578 11196 1 109.50000 418.400000
10356 16578 11196 1 109.50000 418.400000
3748 16579 4413 1 109.50000 418.400000
3748 16579 10093 1 109.50000 418.400000
3748 16579 11126 1 109.50000 418.400000
4413 16579 10093 1 109.50000 418.400000
4413 16579 11126 1 109.50000 418.400000
10093 16579 11126 1 109.50000 418.400000
213 16580 2717 1 109.50000 418.400000
213 16580 5168 1 109.50000 418.400000
213 16580 7175 1 109.50000 418.400000
2717 16580 5168 1 109.50000 418.400000
2717 16580 7175 1 109.50000 418.400000
5168 16580 7175 1 109.50000 418.400000
122 16581 867 1 109.50000 418.400000
122 16581 10945 1 109.50000 418.400000
122 16581 11396 1 109.50000 418.400000
867 16581 10945 1 109.50000 418.400000
867 16581 11396 1 109.50000 418.400000
10945 16581 11396 1 109.50000 418.400000
2657 16582 6688 1 109.50000 418.400000
2657 16582 10353 1 109.50000 418.400000
2657 16582 11122 1 109.50000 418.400000
6688 16582 10353 1 109.50000 418.400000
6688 16582 11122 1 109.50000 418.400000
10353 16582 11122 1 109.50000 418.400000
4977 16583 8238 1 109.50000 418.400000
4977 16583 10024 1 109.50000 418.400000
4977 16583 10272 1 109.50000 418.400000
8238 16583 10024 1 109.50000 418.400000
8238 16583 10272 1 109.50000 418.400000
10024 16583 10272 1 109.50000 418.400000
2826 16584 8949 1 109.50000 418.400000
2826 16584 10011 1 109.50000 418.400000
2826 16584 10993 1 109.50000 418.400000
8949 16584 10011 1 109.50000 418.400000
8949 16584 10993 1 109.50000 418.400000
10011 16584 10993 1 109.50000 418.400000
7258 16585 7940 1 109.50000 418.400000
7258 16585 9297 1 109.50000 418.400000
7258 16585 9696 1 109.50000 418.400000
7940 16585 9297 1 109.50000 418.400000
7940 16585 9696 1 109.50000 418.400000
9297 16585 9696 1 109.50000 418.400000
2598 16586 7439 1 109.50000 418.400000
2598 16586 10101 1 109.50000 418.400000
2598 16586 11120 1 109.50000 418.400000
7439 16586 10101 1 109.50000 418.400000
7439 16586 11120 1 109.50000 418.400000
10101 16586 11120 1 109.50000 418.400000
3282 16587 4561 1 109.50000 418.400000
3282 16587 9683 1 109.50000 418.400000
3282 16587 11085 1 109.50000 418.400000
4561 16587 9683 1 109.50000 418.400000
4561 16587 11085 1 109.50000 418.400000
9683 16587 11085 1 109.50000 418.400000
1587 16588 1588 1 109.50000 418.400000
1587 16588 9166 1 109.50000 418.400000
1587 16588 11089 1 109.50000 418.400000
1588 16588 9166 1 109.50000 418.400000
1588 16588 11089 1 109.50000 418.400000
9166 16588 11089 1 109.50000 418.400000
5649 16589 7718 1 109.50000 418.400000
5649 16589 8206 1 109.50000 418.400000
5649 16589 9620 1 109.50000 418.400000
7718 16589 8206 1 109.50000 418.400000
7718 16589 9620 1 109.50000 418.400000
8206 16589 9620 1 109.50000 418.400000
3129 16590 7347 1 109.50000 418.400000
3129 16590 10931 1 109.50000 418.400000
3129 16590 10985 1 109.50000 418.400000
7347 16590 10931 1 109.50000 418.400000
7347 16590 10985 1 109.50000 418.400000
10931 16590 10985 1 109.50000 418.400000
9319 16591 9776 1 109.50000 418.400000
9319 16591 10375 1 109.50000 418.400000
9319 16591 11133 1 109.50000 418.400000
9776 16591 10375 1 109.50000 418.400000
9776 16591 11133 1 109.50000 418.400000
10375 16591 11133 1 109.50000 418.400000
7757 16592 10606 1 109.50000 418.400000
7757 16592 10742 1 109.50000 418.400000
7757 16592 11125 1 109.50000 418.400000
10606 16592 10742 1 109.50000 418.400000
10606 16592 11125 1 109.50000 418.400000
10742 16592 11125 1 109.50000 418.400000
3735 16593 9853 1 109.50000 418.400000
3735 16593 10593 1 109.50000 418.400000
3735 16593 10991 1 109.50000 418.400000
9853 16593 10593 1 109.50000 418.400000
9853 16593 10991 1 109.50000 418.400000
10593 16593 10991 1 109.50000 418.400000
2078 16594 3750 1 109.50000 418.400000
2078 16594 10368 1 109.50000 418.400000
2078 16594 10703 1 109.50000 418.400000
3750 16594 10368 1 109.50000 418.400000
3750 16594 10703 1 109.50000 418.400000
10368 16594 10703 1 109.50000 418.400000
210 16595 6704 1 109.50000 418.400000
210 16595 9070 1 109.50000 418.400000
210 16595 9127 1 109.50000 418.400000
6704 16595 9070 1 109.50000 418.400000
6704 16595 9127 1 109.50000 418.400000
9070 16595 9127 1 109.50000 418.400000
562 16596 7447 1 109.50000 418.400000
562 16596 8946 1 109.50000 418.400000
562 16596 9577 1 109.50000 418.400000
7447 16596 8946 1 109.50000 418.400000
7447 16596 9577 1 109.50000 418.400000
8946 16596 9577 1 109.50000 418.400000
2125 16597 4502 1 109.50000 418.400000
2125 16597 6562 1 109.50000 418.400000
2125 16597 6867 1 109.50000 418.400000
4502 16597 6562 1 109.50000 418.400000
4502 16597 6867 1 109.50000 418.400000
6562 16597 6867 1 109.50000 418.400000
3047 16598 6001 1 109.50000 418.400000
3047 16598 8554 1 109.50000 418.400000
3047 16598 10888 1 109.50000 418.400000
6001 16598 8554 1 109.50000 418.400000
6001 16598 10888 1 109.50000 418.400000
8554 16598 10888 1 109.50000 418.400000
1153 16599 6016 1 109.50000 418.400000
1153 16599 11101 1 109.50000 418.400000
1153 16599 11124 1 109.50000 418.400000
6016 16599 11101 1 109.50000 418.400000
6016 16599 11124 1 109.50000 418.400000
11101 16599 11124 1 109.50000 418.400000
5358 16600 9748 1 109.50000 418.400000
5358 16600 10497 1 109.50000 418.400000
5358 16600 11091 1 109.50000 418.400000
9748 16600 10497 1 109.50000 418.400000
9748 16600 11091 1 109.50000 418.400000
10497 16600 11091 1 109.50000 418.400000
4667 16601 6066 1 109.50000 418.400000
4667 16601 8216 1 109.50000 418.400000
4667 16601 8925 1 109.50000 418.400000
6066 16601 8216 1 109.50000 418.400000
6066 16601 8925 1 109.50000 418.400000
8216 16601 8925 1 109.50000 418.400000
9812 16602 10052 1 109.50000 418.400000
9812 16602 11064 1 109.50000 418.400000
9812 16602 11134 1 109.50000 418.400000
10052 16602 11064 1 109.50000 418.400000
10052 16602 11134 1 109.50000 418.400000
11064 16602 11134 1 109.50000 418.400000
662 16603 663 1 109.50000 418.400000
662 16603 6282 1 109.50000 418.400000
662 16603 7349 1 109.50000 418.400000
663 16603 6282 1 109.50000 418.400000
663 16603 7349 1 109.50000 418.400000
6282 16603 7349 1 109.50000 418.400000
313 16604 3016 1 109.50000 418.400000
313 16604 6103 1 109.50000 418.400000
313 16604 11135 1 109.50000 418.400000
3016 16604 6103 1 109.50000 418.400000
3016 16604 11135 1 109.50000 418.400000
6103 16604 11135 1 109.50000 418.400000
2556 16605 6329 1 109.50000 418.400000
2556 16605 10602 1 109.50000 418.400000
2556 16605 10953 1 109.50000 418.400000
6329 16605 10602 1 109.50000 418.400000
6329 16605 10953 1 109.50000 418.400000
10602 16605 10953 1 109.50000 418.400000
6050 16606 8783 1 109.50000 418.400000
6050 16606 8965 1 109.50000 418.400000
6050 16606 9693 1 109.50000 418.400000
8783 16606 8965 1 109.50000 418.400000
8783 16606 9693 1 109.50000 418.400000
8965 16606 9693 1 109.50000 418.400000
4489 16607 6242 1 109.50000 418.400000
4489 16607 6880 1 109.50000 418.400000
4489 16607 9749 1 109.50000 418.400000
6242 16607 6880 1 109.50000 418.400000
6242 16607 9749 1 109.50000 418.400000
6880 16607 9749 1 109.50000 418.400000
7535 16608 8020 1 109.50000 418.400000
7535 16608 10781 1 109.50000 418.400000
7535 16608 11056 1 109.50000 418.400000
8020 16608 10781 1 109.50000 418.400000
8020 16608 11056 1 109.50000 418.400000
10781 16608 11056 1 109.50000 418.400000
8 16609 2247 1 109.50000 418.400000
8 16609 5024 1 109.50000 418.400000
8 16609 9052 1 109.50000 418.400000
2247 16609 5024 1 109.50000 418.400000
2247 16609 9052 1 109.50000 418.400000
5024 16609 9052 1 109.50000 418.400000
3921 16610 4342 1 109.50000 418.400000
3921 16610 10695 1 109.50000 418.400000
3921 16610 10849 1 109.50000 418.400000
4342 16610 10695 1 109.50000 418.400000
4342 16610 10849 1 109.50000 418.400000
10695 16610 10849 1 109.50000 418.400000
3538 16611 6348 1 109.50000 418.400000
3538 16611 7868 1 109.50000 418.400000
3538 16611 11121 1 109.50000 418.400000
6348 16611 7868 1 109.50000 418.400000
6348 16611 11121 1 109.50000 418.400000
7868 16611 11121 1 109.50000 418.400000
3562 16612 5652 1 109.50000 418.400000
3562 16612 7962 1 109.50000 418.400000
3562 16612 11094 1 109.50000 418.400000
5652 16612 7962 1 109.50000 418.400000
5652 16612 11094 1 109.50000 418.400000
7962 16612 11094 1 109.50000 418.400000
526 16613 8467 1 109.50000 418.400000
526 16613 9195 1 109.50000 418.400000
526 16613 10056 1 109.50000 418.400000
8467 16613 9195 1 109.50000 418.400000
8467 16613 10056 1 109.50000 418.400000
9195 16613 10056 1 109.50000 418.400000
1083 16614 4636 1 109.50000 418.400000
1083 16614 5142 1 109.50000 418.400000
1083 16614 11232 1 109.50000 418.400000
4636 16614 5142 1 109.50000 418.400000
4636 16614 11232 1 109.50000 418.400000
5142 16614 11232 1 109.50000 418.400000
2725 16615 3394 1 109.50000 418.400000
2725 16615 8850 1 109.50000 418.400000
2725 16615 10805 1 109.50000 418.400000
3394 16615 8850 1 109.50000 418.400000
3394 16615 10805 1 109.50000 418.400000
8850 16615 10805 1 109.50000 418.400000
330 16616 996 1 109.50000 418.400000
330 16616 10347 1 109.50000 418.400000
330 16616 10959 1 109.50000 418.400000
996 16616 10347 1 109.50000 418.400000
996 16616 10959 1 109.50000 418.400000
10347 16616 10959 1 109.50000 418.400000
106 16617 7827 1 109.50000 418.400000
106 16617 10374 1 109.50000 418.400000
106 16617 10880 1 109.50000 418.400000
7827 16617 10374 1 109.50000 418.400000
7827 16617 10880 1 109.50000 418.400000
10374 16617 10880 1 109.50000 418.400000
2413 16618 7984 1 109.50000 418.400000
2413 16618 10614 1 109.50000 418.400000
2413 16618 11058 1 109.50000 418.400000
7984 16618 10614 1 109.50000 418.400000
7984 16618 11058 1 109.50000 418.400000
10614 16618 11058 1 109.50000 418.400000
9293 16619 9484 1 109.50000 418.400000
9293 16619 9516 1 109.50000 418.400000
9293 16619 10894 1 109.50000 418.400000
9484 16619 9516 1 109.50000 418.400000
9484 16619 10894 1 109.50000 418.400000
9516 16619 10894 1 109.50000 418.400000
403 16620 9687 1 109.50000 418.400000
403 16620 9688 1 109.50000 418.400000
403 16620 10600 1 109.50000 418.400000
9687 16620 9688 1 109.50000 418.400000
9687 16620 10600 1 109.50000 418.400000
9688 16620 10600 1 109.50000 418.400000
8930 16621 9281 1 109.50000 418.400000
8930 16621 9385 1 109.50000 418.400000
8930 16621 10817 1 109.50000 418.400000
9281 16621 9385 1 109.50000 418.400000
9281 16621 10817 1 109.50000 418.400000
9385 16621 10817 1 109.50000 418.400000
2215 16622 7755 1 109.50000 418.400000
2215 16622 9211 1 109.50000 418.400000
2215 16622 10590 1 109.50000 418.400000
7755 16622 9211 1 109.50000 418.400000
7755 16622 10590 1 109.50000 418.400000
9211 16622 10590 1 109.50000 418.400000
3458 16623 10713 1 109.50000 418.400000
3458 16623 11047 1 109.50000 418.400000
3458 16623 11108 1 109.50000 418.400000
10713 16623 11047 1 109.50000 418.400000
10713 16623 11108 1 109.50000 418.400000
11047 16623 11108 1 109.50000 418.400000
1968 16624 2771 1 109.50000 418.400000
1968 16624 7055 1 109.50000 418.400000
1968 16624 9322 1 109.50000 418.400000
2771 16624 7055 1 109.50000 418.400000
2771 16624 9322 1 109.50000 418.400000
7055 16624 9322 1 109.50000 418.400000
7697 16625 7699 1 109.50000 418.400000
7697 16625 9436 1 109.50000 418.400000
7697 16625 9634 1 109.50000 418.400000
7699 16625 9436 1 109.50000 418.400000
7699 16625 9634 1 109.50000 418.400000
9436 16625 9634 1 109.50000 418.400000
3901 16626 9639 1 109.50000 418.400000
3901 16626 10757 1 109.50000 418.400000
3901 16626 11039 1 109.50000 418.400000
9639 16626 10757 1 109.50000 418.400000
9639 16626 11039 1 109.50000 418.400000
10757 16626 11039 1 109.50000 418.400000
7240 16627 7304 1 109.50000 418.400000
7240 16627 8480 1 109.50000 418.400000
7240 16627 11024 1 109.50000 418.400000
7304 16627 8480 1 109.50000 418.400000
7304 16627 11024 1 109.50000 418.400000
8480 16627 11024 1 109.50000 418.400000
4218 16628 7824 1 109.50000 418.400000
4218 16628 9986 1 109.50000 418.400000
4218 16628 10559 1 109.50000 418.400000
7824 16628 9986 1 109.50000 418.400000
7824 16628 10559 1 109.50000 418.400000
9986 16628 10559 1 109.50000 418.400000
2192 16629 2653 1 109.50000 418.400000
2192 16629 8291 1 109.50000 418.400000
2192 16629 10837 1 109.50000 418.400000
2653 16629 8291 1 109.50000 418.400000
2653 16629 10837 1 109.50000 418.400000
8291 16629 10837 1 109.50000 418.400000
1263 16630 7341 1 109.50000 418.400000
1263 16630 8672 1 109.50000 418.400000
1263 16630 10554 1 109.50000 418.400000
7341 16630 8672 1 109.50000 418.400000
7341 16630 10554 1 109.50000 418.400000
8672 16630 10554 1 109.50000 418.400000
1869 16631 8017 1 109.50000 418.400000
1869 16631 8627 1 109.50000 418.400000
1869 16631 11111 1 109.50000 418.400000
8017 16631 8627 1 109.50000 418.400000
8017 16631 11111 1 109.50000 418.400000
8627 16631 11111 1 109.50000 418.400000
2748 16632 10317 1 109.50000 418.400000
2748 16632 11043 1 109.50000 418.400000
2748 16632 11153 1 109.50000 418.400000
10317 16632 11043 1 109.50000 418.400000
10317 16632 11153 1 109.50000 418.400000
11043 16632 11153 1 109.50000 418.400000
7353 16633 8230 1 109.50000 418.400000
7353 16633 10465 1 109.50000 418.400000
7353 16633 11136 1 109.50000 418.400000
8230 16633 10465 1 109.50000 418.400000
8230 16633 11136 1 109.50000 418.400000
10465 16633 11136 1 109.50000 418.400000
3710 16634 10743 1 109.50000 418.400000
3710 16634 10873 1 109.50000 418.400000
3710 16634 10988 1 109.50000 418.400000
10743 16634 10873 1 109.50000 418.400000
10743 16634 10988 1 109.50000 418.400000
10873 16634 10988 1 109.50000 418.400000
1866 16635 2606 1 109.50000 418.400000
1866 16635 2607 1 109.50000 418.400000
1866 16635 11128 1 109.50000 418.400000
2606 16635 2607 1 109.50000 418.400000
2606 16635 11128 1 109.50000 418.400000
2607 16635 11128 1 109.50000 418.400000
3048 16636 8030 1 109.50000 418.400000
3048 16636 8715 1 109.50000 418.400000
3048 16636 11116 1 109.50000 418.400000
8030 16636 8715 1 109.50000 418.400000
8030 16636 11116 1 109.50000 418.400000
8715 16636 11116 1 109.50000 418.400000
2186 16637 10689 1 109.50000 418.400000
2186 16637 10853 1 109.50000 418.400000
2186 16637 11016 1 109.50000 418.400000
10689 16637 10853 1 109.50000 418.400000
10689 16637 11016 1 109.50000 418.400000
10853 16637 11016 1 109.50000 418.400000
68 16638 121 1 109.50000 418.400000
68 16638 9771 1 109.50000 418.400000
68 16638 11137 1 109.50000 418.400000
121 16638 9771 1 109.50000 418.400000
121 16638 11137 1 109.50000 418.400000
9771 16638 11137 1 109.50000 418.400000
414 16639 493 1 109.50000 418.400000
414 16639 3746 1 109.50000 418.400000
414 16639 4109 1 109.50000 418.400000
493 16639 3746 1 109.50000 418.400000
493 16639 4109 1 109.50000 418.400000
3746 16639 4109 1 109.50000 418.400000
266 16640 8394 1 109.50000 418.400000
266 16640 8905 1 109.50000 418.400000
266 16640 10830 1 109.50000 418.400000
8394 16640 8905 1 109.50000 418.400000
8394 16640 10830 1 109.50000 418.400000
8905 16640 10830 1 109.50000 418.400000
4570 16641 9007 1 109.50000 418.400000
4570 16641 9580 1 109.50000 418.400000
4570 16641 11117 1 109.50000 418.400000
9007 16641 9580 1 109.50000 418.400000
9007 16641 11117 1 109.50000 418.400000
9580 16641 11117 1 109.50000 418.400000
4660 16642 5456 1 109.50000 418.400000
4660 16642 5517 1 109.50000 418.400000
4660 16642 8952 1 109.50000 418.400000
5456 16642 5517 1 109.50000 418.400000
5456 16642 8952 1 109.50000 418.400000
5517 16642 8952 1 109.50000 418.400000
4037 16643 5590 1 109.50000 418.400000
4037 16643 9133 1 109.50000 418.400000
4037 16643 9534 1 109.50000 418.400000
5590 16643 9133 1 109.50000 418.400000
5590 16643 9534 1 109.50000 418.400000
9133 16643 9534 1 109.50000 418.400000
5049 16644 5050 1 109.50000 418.400000
5049 16644 6764 1 109.50000 418.400000
5049 16644 7554 1 109.50000 418.400000
5050 16644 6764 1 109.50000 418.400000
5050 16644 7554 1 109.50000 418.400000
6764 16644 7554 1 109.50000 418.400000
6809 16645 7056 1 109.50000 418.400000
6809 16645 7794 1 109.50000 418.400000
6809 16645 10152 1 109.50000 418.400000
7056 16645 7794 1 109.50000 418.400000
7056 16645 10152 1 109.50000 418.400000
7794 16645 10152 1 109.50000 418.400000
2743 16646 3812 1 109.50000 418.400000
2743 16646 8479 1 109.50000 418.400000
2743 16646 10255 1 109.50000 418.400000
3812 16646 8479 1 109.50000 418.400000
3812 16646 10255 1 109.50000 418.400000
8479 16646 10255 1 109.50000 418.400000
3776 16647 6735 1 109.50000 418.400000
3776 16647 10626 1 109.50000 418.400000
3776 16647 11245 1 109.50000 418.400000
6735 16647 10626 1 109.50000 418.400000
6735 16647 11245 1 109.50000 418.400000
10626 16647 11245 1 109.50000 418.400000
6838 16648 7425 1 109.50000 418.400000
6838 16648 10449 1 109.50000 418.400000
6838 16648 10912 1 109.50000 418.400000
7425 16648 10449 1 109.50000 418.400000
7425 16648 10912 1 109.50000 418.400000
10449 16648 10912 1 109.50000 418.400000
3738 16649 4384 1 109.50000 418.400000
3738 16649 5974 1 109.50000 418.400000
3738 16649 11145 1 109.50000 418.400000
4384 16649 5974 1 109.50000 418.400000
4384 16649 11145 1 109.50000 418.400000
5974 16649 11145 1 109.50000 418.400000
1106 16650 5200 1 109.50000 418.400000
1106 16650 9078 1 109.50000 418.400000
1106 16650 11133 1 109.50000 418.400000
5200 16650 9078 1 109.50000 418.400000
5200 16650 11133 1 109.50000 418.400000
9078 16650 11133 1 109.50000 418.400000
3161 16651 5611 1 109.50000 418.400000
3161 16651 8406 1 109.50000 418.400000
3161 16651 10688 1 109.50000 418.400000
5611 16651 8406 1 109.50000 418.400000
5611 16651 10688 1 109.50000 418.400000
8406 16651 10688 1 109.50000 418.400000
2887 16652 8382 1 109.50000 418.400000
2887 16652 9886 1 109.50000 418.400000
2887 16652 11068 1 109.50000 418.400000
8382 16652 9886 1 109.50000 418.400000
8382 16652 11068 1 109.50000 418.400000
9886 16652 11068 1 109.50000 418.400000
1428 16653 2920 1 109.50000 418.400000
1428 16653 3069 1 109.50000 418.400000
1428 16653 9897 1 109.50000 418.400000
2920 16653 3069 1 109.50000 418.400000
2920 16653 9897 1 109.50000 418.400000
3069 16653 9897 1 109.50000 418.400000
4264 16654 9434 1 109.50000 418.400000
4264 16654 9854 1 109.50000 418.400000
4264 16654 11112 1 109.50000 418.400000
9434 16654 9854 1 109.50000 418.400000
9434 16654 11112 1 109.50000 418.400000
9854 16654 11112 1 109.50000 418.400000
7348 16655 7864 1 109.50000 418.400000
7348 16655 9885 1 109.50000 418.400000
7348 16655 10804 1 109.50000 418.400000
7864 16655 9885 1 109.50000 418.400000
7864 16655 10804 1 109.50000 418.400000
9885 16655 10804 1 109.50000 418.400000
4836 16656 8688 1 109.50000 418.400000
4836 16656 9253 1 109.50000 418.400000
4836 16656 9923 1 109.50000 418.400000
8688 16656 9253 1 109.50000 418.400000
8688 16656 9923 1 109.50000 418.400000
9253 16656 9923 1 109.50000 418.400000
4477 16657 6230 1 109.50000 418.400000
4477 16657 10274 1 109.50000 418.400000
4477 16657 11059 1 109.50000 418.400000
6230 16657 10274 1 109.50000 418.400000
6230 16657 11059 1 109.50000 418.400000
10274 16657 11059 1 109.50000 418.400000
7400 16658 7765 1 109.50000 418.400000
7400 16658 7790 1 109.50000 418.400000
7400 16658 10258 1 109.50000 418.400000
7765 16658 7790 1 109.50000 418.400000
7765 16658 10258 1 109.50000 418.400000
7790 16658 10258 1 109.50000 418.400000
7242 16659 10168 1 109.50000 418.400000
7242 16659 10183 1 109.50000 418.400000
7242 16659 11118 1 109.50000 418.400000
10168 16659 10183 1 109.50000 418.400000
10168 16659 11118 1 109.50000 418.400000
10183 16659 11118 1 109.50000 418.400000
1670 16660 5285 1 109.50000 418.400000
1670 16660 10180 1 109.50000 418.400000
1670 16660 10391 1 109.50000 418.400000
5285 16660 10180 1 109.50000 418.400000
5285 16660 10391 1 109.50000 418.400000
10180 16660 10391 1 109.50000 418.400000
1878 16661 4887 1 109.50000 418.400000
1878 16661 7927 1 109.50000 418.400000
1878 16661 8571 1 109.50000 418.400000
4887 16661 7927 1 109.50000 418.400000
4887 16661 8571 1 109.50000 418.400000
7927 16661 8571 1 109.50000 418.400000
1739 16662 1741 1 109.50000 418.400000
1739 16662 6036 1 109.50000 418.400000
1739 16662 11088 1 109.50000 418.400000
1741 16662 6036 1 109.50000 418.400000
1741 16662 11088 1 109.50000 418.400000
6036 16662 11088 1 109.50000 418.400000
9278 16663 10174 1 109.50000 418.400000
9278 16663 11019 1 109.50000 418.400000
9278 16663 11135 1 109.50000 418.400000
10174 16663 11019 1 109.50000 418.400000
10174 16663 11135 1 109.50000 418.400000
11019 16663 11135 1 109.50000 418.400000
77 16664 6088 1 109.50000 418.400000
77 16664 10869 1 109.50000 418.400000
77 16664 11105 1 109.50000 418.400000
6088 16664 10869 1 109.50000 418.400000
6088 16664 11105 1 109.50000 418.400000
10869 16664 11105 1 109.50000 418.400000
3275 16665 4647 1 109.50000 418.400000
3275 16665 9806 1 109.50000 418.400000
3275 16665 10886 1 109.50000 418.400000
4647 16665 9806 1 109.50000 418.400000
4647 16665 10886 1 109.50000 418.400000
9806 16665 10886 1 109.50000 418.400000
712 16666 8255 1 109.50000 418.400000
712 16666 8336 1 109.50000 418.400000
712 16666 10881 1 109.50000 418.400000
8255 16666 8336 1 109.50000 418.400000
8255 16666 10881 1 109.50000 418.400000
8336 16666 10881 1 109.50000 418.400000
83 16667 9429 1 109.50000 418.400000
83 16667 9716 1 109.50000 418.400000
83 16667 10157 1 109.50000 418.400000
9429 16667 9716 1 109.50000 418.400000
9429 16667 10157 1 109.50000 418.400000
9716 16667 10157 1 109.50000 418.400000
10280 16668 10298 1 109.50000 418.400000
10280 16668 10309 1 109.50000 418.400000
10280 16668 10748 1 109.50000 418.400000
10298 16668 10309 1 109.50000 418.400000
10298 16668 10748 1 109.50000 418.400000
10309 16668 10748 1 109.50000 418.400000
6076 16669 7112 1 109.50000 418.400000
6076 16669 8312 1 109.50000 418.400000
6076 16669 10939 1 109.50000 418.400000
7112 16669 8312 1 109.50000 418.400000
7112 16669 10939 1 109.50000 418.400000
8312 16669 10939 1 109.50000 418.400000
7616 16670 10226 1 109.50000 418.400000
7616 16670 10896 1 109.50000 418.400000
7616 16670 10961 1 109.50000 418.400000
10226 16670 10896 1 109.50000 418.400000
10226 16670 10961 1 109.50000 418.400000
10896 16670 10961 1 109.50000 418.400000
2389 16671 10037 1 109.50000 418.400000
2389 16671 11131 1 109.50000 418.400000
2389 16671 11132 1 109.50000 418.400000
10037 16671 11131 1 109.50000 418.400000
10037 16671 11132 1 109.50000 418.400000
11131 16671 11132 1 109.50000 418.400000
614 16672 7832 1 109.50000 418.400000
614 16672 7833 1 109.50000 418.400000
614 16672 10256 1 109.50000 418.400000
7832 16672 7833 1 109.50000 418.400000
7832 16672 10256 1 109.50000 418.400000
7833 16672 10256 1 109.50000 418.400000
5117 16673 5513 1 109.50000 418.400000
5117 16673 8971 1 109.50000 418.400000
5117 16673 10350 1 109.50000 418.400000
5513 16673 8971 1 109.50000 418.400000
5513 16673 10350 1 109.50000 418.400000
8971 16673 10350 1 109.50000 418.400000
8225 16674 10196 1 109.50000 418.400000
8225 16674 10573 1 109.50000 418.400000
8225 16674 11015 1 109.50000 418.400000
10196 16674 10573 1 109.50000 418.400000
10196 16674 11015 1 109.50000 418.400000
10573 16674 11015 1 109.50000 418.400000
990 16675 3918 1 109.50000 418.400000
990 16675 5487 1 109.50000 418.400000
990 16675 7552 1 109.50000 418.400000
3918 16675 5487 1 109.50000 418.400000
3918 16675 7552 1 109.50000 418.400000
5487 16675 7552 1 109.50000 418.400000
2823 16676 3283 1 109.50000 418.400000
2823 16676 8524 1 109.50000 418.400000
2823 16676 8987 1 109.50000 418.400000
3283 16676 8524 1 109.50000 418.400000
3283 16676 8987 1 109.50000 418.400000
8524 16676 8987 1 109.50000 418.400000
6677 16677 10059 1 109.50000 418.400000
6677 16677 11033 1 109.50000 418.400000
6677 16677 11099 1 109.50000 418.400000
10059 16677 11033 1 109.50000 418.400000
10059 16677 11099 1 109.50000 418.400000
11033 16677 11099 1 109.50000 418.400000
2663 16678 6355 1 109.50000 418.400000
2663 16678 6959 1 109.50000 418.400000
2663 16678 8963 1 109.50000 418.400000
6355 16678 6959 1 109.50000 418.400000
6355 16678 8963 1 109.50000 418.400000
6959 16678 8963 1 109.50000 418.400000
660 16679 1902 1 109.50000 418.400000
660 16679 10934 1 109.50000 418.400000
660 16679 11134 1 109.50000 418.400000
1902 16679 10934 1 109.50000 418.400000
1902 16679 11134 1 109.50000 418.400000
10934 16679 11134 1 109.50000 418.400000
2923 16680 5081 1 109.50000 418.400000
2923 16680 5436 1 109.50000 418.400000
2923 16680 9475 1 109.50000 418.400000
5081 16680 5436 1 109.50000 418.400000
5081 16680 9475 1 109.50000 418.400000
5436 16680 9475 1 109.50000 418.400000
1776 16681 3011 1 109.50000 418.400000
1776 16681 8518 1 109.50000 418.400000
1776 16681 10947 1 109.50000 418.400000
3011 16681 8518 1 109.50000 418.400000
3011 16681 10947 1 109.50000 418.400000
8518 16681 10947 1 109.50000 418.400000
2644 16682 3986 1 109.50000 418.400000
2644 16682 6752 1 109.50000 418.400000
2644 16682 9439 1 109.50000 418.400000
3986 16682 6752 1 109.50000 418.400000
3986 16682 9439 1 109.50000 418.400000
6752 16682 9439 1 109.50000 418.400000
1074 16683 1661 1 109.50000 418.400000
1074 16683 4448 1 109.50000 418.400000
1074 16683 11036 1 109.50000 418.400000
1661 16683 4448 1 109.50000 418.400000
1661 16683 11036 1 109.50000 418.400000
4448 16683 11036 1 109.50000 418.400000
4661 16684 5106 1 109.50000 418.400000
4661 16684 7454 1 109.50000 418.400000
4661 16684 8268 1 109.50000 418.400000
5106 16684 7454 1 109.50000 418.400000
5106 16684 8268 1 109.50000 418.400000
7454 16684 8268 1 109.50000 418.400000
3485 16685 3536 1 109.50000 418.400000
3485 16685 4290 1 109.50000 418.400000
3485 16685 10360 1 109.50000 418.400000
3536 16685 4290 1 109.50000 418.400000
3536 16685 10360 1 109.50000 418.400000
4290 16685 10360 1 109.50000 418.400000
177 16686 1271 1 109.50000 418.400000
177 16686 1805 1 109.50000 418.400000
177 16686 3357 1 109.50000 418.400000
1271 16686 1805 1 109.50000 418.400000
1271 16686 3357 1 109.50000 418.400000
1805 16686 3357 1 109.50000 418.400000
948 16687 6340 1 109.50000 418.400000
948 16687 8958 1 109.50000 418.400000
948 16687 10292 1 109.50000 418.400000
6340 16687 8958 1 109.50000 418.400000
6340 16687 10292 1 109.50000 418.400000
8958 16687 10292 1 109.50000 418.400000
645 16688 2721 1 109.50000 418.400000
645 16688 6714 1 109.50000 418.400000
645 16688 9793 1 109.50000 418.400000
2721 16688 6714 1 109.50000 418.400000
2721 16688 9793 1 109.50000 418.400000
6714 16688 9793 1 109.50000 418.400000
5591 16689 7331 1 109.50000 418.400000
5591 16689 10202 1 109.50000 418.400000
5591 16689 11136 1 109.50000 418.400000
7331 16689 10202 1 109.50000 418.400000
7331 16689 11136 1 109.50000 418.400000
10202 16689 11136 1 109.50000 418.400000
1447 16690 1824 1 109.50000 418.400000
1447 16690 2794 1 109.50000 418.400000
1447 16690 3201 1 109.50000 418.400000
1824 16690 2794 1 109.50000 418.400000
1824 16690 3201 1 109.50000 418.400000
2794 16690 3201 1 109.50000 418.400000
9165 16691 10229 1 109.50000 418.400000
9165 16691 10402 1 109.50000 418.400000
9165 16691 10800 1 109.50000 418.400000
10229 16691 10402 1 109.50000 418.400000
10229 16691 10800 1 109.50000 418.400000
10402 16691 10800 1 109.50000 418.400000
8160 16692 9522 1 109.50000 418.400000
8160 16692 10244 1 109.50000 418.400000
8160 16692 11119 1 109.50000 418.400000
9522 16692 10244 1 109.50000 418.400000
9522 16692 11119 1 109.50000 418.400000
10244 16692 11119 1 109.50000 418.400000
4866 16693 5887 1 109.50000 418.400000
4866 16693 7830 1 109.50000 418.400000
4866 16693 10996 1 109.50000 418.400000
5887 16693 7830 1 109.50000 418.400000
5887 16693 10996 1 109.50000 418.400000
7830 16693 10996 1 109.50000 418.400000
3238 16694 4431 1 109.50000 418.400000
3238 16694 9080 1 109.50000 418.400000
3238 16694 10297 1 109.50000 418.400000
4431 16694 9080 1 109.50000 418.400000
4431 16694 10297 1 109.50000 418.400000
9080 16694 10297 1 109.50000 418.400000
8273 16695 9095 1 109.50000 418.400000
8273 16695 9418 1 109.50000 418.400000
8273 16695 10344 1 109.50000 418.400000
9095 16695 9418 1 109.50000 418.400000
9095 16695 10344 1 109.50000 418.400000
9418 16695 10344 1 109.50000 418.400000
5071 16696 6175 1 109.50000 418.400000
5071 16696 6178 1 109.50000 418.400000
5071 16696 6787 1 109.50000 418.400000
6175 16696 6178 1 109.50000 418.400000
6175 16696 6787 1 109.50000 418.400000
6178 16696 6787 1 109.50000 418.400000
16697 16698 16699 1 119.8800511 375.723200
16697 16698 16707 1 119.8800511 375.723200
16699 16698 16707 1 120.0200517 532.790560
16698 16699 16700 1 121.3800518 83.010560
16698 16699 16701 1 120.0200517 532.790560
16700 16699 16701 1 121.3800518 83.010560
1750 16700 4922 1 109.50000 418.400000
1750 16700 16699 1 103.70004 836.800000
1750 16700 16709 1 109.50000 418.400000
4922 16700 16699 1 103.70004 836.800000
4922 16700 16709 1 109.50000 418.400000
16699 16700 16709 1 103.70004 1034.033760
16699 16701 16702 1 119.8800511 375.723200
16699 16701 16703 1 120.0200517 532.790560
16702 16701 16703 1 119.8800511 375.723200
16701 16703 16704 1 119.8800511 375.723200
16701 16703 16705 1 120.0200517 532.790560
16704 16703 16705 1 119.8800511 375.723200
16703 16705 16706 1 119.8800511 375.723200
16703 16705 16707 1 120.0200517 532.790560
16706 16705 16707 1 119.8800511 375.723200
16698 16707 16705 1 120.0200517 532.790560
16698 16707 16708 1 119.8800511 375.723200
16705 16707 16708 1 119.8800511 375.723200
16700 16709 16710 1 115.00000 209.200000
16711 16712 16713 1 119.8800511 375.723200
16711 16712 16721 1 119.8800511 375.723200
16713 16712 16721 1 120.0200517 532.790560
16712 16713 16714 1 121.3800518 83.010560
16712 16713 16715 1 120.0200517 532.790560
16714 16713 16715 1 121.3800518 83.010560
5175 16714 6186 1 109.50000 418.400000
5175 16714 16713 1 103.70004 836.800000
5175 16714 16723 1 109.50000 418.400000
6186 16714 16713 1 103.70004 836.800000
6186 16714 16723 1 109.50000 418.400000
16713 16714 16723 1 103.70004 1034.033760
16713 16715 16716 1 119.8800511 375.723200
16713 16715 16717 1 120.0200517 532.790560
16716 16715 16717 1 119.8800511 375.723200
16715 16717 16718 1 119.8800511 375.723200
16715 16717 16719 1 120.0200517 532.790560
16718 16717 16719 1 119.8800511 375.723200
16717 16719 16720 1 119.8800511 375.723200
16717 16719 16721 1 120.0200517 532.790560
16720 16719 16721 1 119.8800511 375.723200
16712 16721 16719 1 120.0200517 532.790560
16712 16721 16722 1 119.8800511 375.723200
16719 16721 16722 1 119.8800511 375.723200
16714 16723 16724 1 115.00000 209.200000
16725 16726 16727 1 119.8800511 375.723200
16725 16726 16735 1 119.8800511 375.723200
16727 16726 16735 1 120.0200517 532.790560
16726 16727 16728 1 121.3800518 83.010560
16726 16727 16729 1 120.0200517 532.790560
16728 16727 16729 1 121.3800518 83.010560
601 16728 8459 1 109.50000 418.400000
601 16728 16727 1 103.70004 836.800000
601 16728 16737 1 109.50000 418.400000
8459 16728 16727 1 103.70004 836.800000
8459 16728 16737 1 109.50000 418.400000
16727 16728 16737 1 103.70004 1034.033760
16727 16729 16730 1 119.8800511 375.723200
16727 16729 16731 1 120.0200517 532.790560
16730 16729 16731 1 119.8800511 375.723200
16729 16731 16732 1 119.8800511 375.723200
16729 16731 16733 1 120.0200517 532.790560
16732 16731 16733 1 119.8800511 375.723200
16731 16733 16734 1 119.8800511 375.723200
16731 16733 16735 1 120.0200517 532.790560
16734 16733 16735 1 119.8800511 375.723200
16726 16735 16733 1 120.0200517 532.790560
16726 16735 16736 1 119.8800511 375.723200
16733 16735 16736 1 119.8800511 375.723200
16728 16737 16738 1 115.00000 209.200000
16739 16740 16741 1 119.8800511 375.723200
16739 16740 16749 1 119.8800511 375.723200
16741 16740 16749 1 120.0200517 532.790560
16740 16741 16742 1 121.3800518 83.010560
16740 16741 16743 1 120.0200517 532.790560
16742 16741 16743 1 121.3800518 83.010560
8289 16742 9035 1 109.50000 418.400000
8289 16742 16741 1 103.70004 836.800000
8289 16742 16751 1 109.50000 418.400000
9035 16742 16741 1 103.70004 836.800000
9035 16742 16751 1 109.50000 418.400000
16741 16742 16751 1 103.70004 1034.033760
16741 16743 16744 1 119.8800511 375.723200
16741 16743 16745 1 120.0200517 532.790560
16744 16743 16745 1 119.8800511 375.723200
16743 16745 16746 1 119.8800511 375.723200
16743 16745 16747 1 120.0200517 532.790560
16746 16745 16747 1 119.8800511 375.723200
16745 16747 16748 1 119.8800511 375.723200
16745 16747 16749 1 120.0200517 532.790560
16748 16747 16749 1 119.8800511 375.723200
16740 16749 16747 1 120.0200517 532.790560
16740 16749 16750 1 119.8800511 375.723200
16747 16749 16750 1 119.8800511 375.723200
16742 16751 16752 1 115.00000 209.200000
16753 16754 16755 1 119.8800511 375.723200
16753 16754 16763 1 119.8800511 375.723200
16755 16754 16763 1 120.0200517 532.790560
16754 16755 16756 1 121.3800518 83.010560
16754 16755 16757 1 120.0200517 532.790560
16756 16755 16757 1 121.3800518 83.010560
5133 16756 9067 1 109.50000 418.400000
5133 16756 16755 1 103.70004 836.800000
5133 16756 16765 1 109.50000 418.400000
9067 16756 16755 1 103.70004 836.800000
9067 16756 16765 1 109.50000 418.400000
16755 16756 16765 1 103.70004 1034.033760
16755 16757 16758 1 119.8800511 375.723200
16755 16757 16759 1 120.0200517 532.790560
16758 16757 16759 1 119.8800511 375.723200
16757 16759 16760 1 119.8800511 375.723200
16757 16759 16761 1 120.0200517 532.790560
16760 16759 16761 1 119.8800511 375.723200
16759 16761 16762 1 119.8800511 375.723200
16759 16761 16763 1 120.0200517 532.790560
16762 16761 16763 1 119.8800511 375.723200
16754 16763 16761 1 120.0200517 532.790560
16754 16763 16764 1 119.8800511 375.723200
16761 16763 16764 1 119.8800511 375.723200
16756 16765 16766 1 115.00000 209.200000
16767 16768 16769 1 119.8800511 375.723200
16767 16768 16777 1 119.8800511 375.723200
16769 16768 16777 1 120.0200517 532.790560
16768 16769 16770 1 121.3800518 83.010560
16768 16769 16771 1 120.0200517 532.790560
16770 16769 16771 1 121.3800518 83.010560
8173 16770 9098 1 109.50000 418.400000
8173 16770 16769 1 103.70004 836.800000
8173 16770 16779 1 109.50000 418.400000
9098 16770 16769 1 103.70004 836.800000
9098 16770 16779 1 109.50000 418.400000
16769 16770 16779 1 103.70004 1034.033760
16769 16771 16772 1 119.8800511 375.723200
16769 16771 16773 1 120.0200517 532.790560
16772 16771 16773 1 119.8800511 375.723200
16771 16773 16774 1 119.8800511 375.723200
16771 16773 16775 1 120.0200517 532.790560
16774 16773 16775 1 119.8800511 375.723200
16773 16775 16776 1 119.8800511 375.723200
16773 16775 16777 1 120.0200517 532.790560
16776 16775 16777 1 119.8800511 375.723200
16768 16777 16775 1 120.0200517 532.790560
16768 16777 16778 1 119.8800511 375.723200
16775 16777 16778 1 119.8800511 375.723200
16770 16779 16780 1 115.00000 209.200000
16781 16782 16783 1 119.8800511 375.723200
16781 16782 16791 1 119.8800511 375.723200
16783 16782 16791 1 120.0200517 532.790560
16782 16783 16784 1 121.3800518 83.010560
16782 16783 16785 1 120.0200517 532.790560
16784 16783 16785 1 121.3800518 83.010560
3540 16784 9193 1 109.50000 418.400000
3540 16784 16783 1 103.70004 836.800000
3540 16784 16793 1 109.50000 418.400000
9193 16784 16783 1 103.70004 836.800000
9193 16784 16793 1 109.50000 418.400000
16783 16784 16793 1 103.70004 1034.033760
16783 16785 16786 1 119.8800511 375.723200
16783 16785 16787 1 120.0200517 532.790560
16786 16785 16787 1 119.8800511 375.723200
16785 16787 16788 1 119.8800511 375.723200
16785 16787 16789 1 120.0200517 532.790560
16788 16787 16789 1 119.8800511 375.723200
16787 16789 16790 1 119.8800511 375.723200
16787 16789 16791 1 120.0200517 532.790560
16790 16789 16791 1 119.8800511 375.723200
16782 16791 16789 1 120.0200517 532.790560
16782 16791 16792 1 119.8800511 375.723200
16789 16791 16792 1 119.8800511 375.723200
16784 16793 16794 1 115.00000 209.200000
16795 16796 16797 1 119.8800511 375.723200
16795 16796 16805 1 119.8800511 375.723200
16797 16796 16805 1 120.0200517 532.790560
16796 16797 16798 1 121.3800518 83.010560
16796 16797 16799 1 120.0200517 532.790560
16798 16797 16799 1 121.3800518 83.010560
598 16798 9194 1 109.50000 418.400000
598 16798 16797 1 103.70004 836.800000
598 16798 16807 1 109.50000 418.400000
9194 16798 16797 1 103.70004 836.800000
9194 16798 16807 1 109.50000 418.400000
16797 16798 16807 1 103.70004 1034.033760
16797 16799 16800 1 119.8800511 375.723200
16797 16799 16801 1 120.0200517 532.790560
16800 16799 16801 1 119.8800511 375.723200
16799 16801 16802 1 119.8800511 375.723200
16799 16801 16803 1 120.0200517 532.790560
16802 16801 16803 1 119.8800511 375.723200
16801 16803 16804 1 119.8800511 375.723200
16801 16803 16805 1 120.0200517 532.790560
16804 16803 16805 1 119.8800511 375.723200
16796 16805 16803 1 120.0200517 532.790560
16796 16805 16806 1 119.8800511 375.723200
16803 16805 16806 1 119.8800511 375.723200
16798 16807 16808 1 115.00000 209.200000
16809 16810 16811 1 119.8800511 375.723200
16809 16810 16819 1 119.8800511 375.723200
16811 16810 16819 1 120.0200517 532.790560
16810 16811 16812 1 121.3800518 83.010560
16810 16811 16813 1 120.0200517 532.790560
16812 16811 16813 1 121.3800518 83.010560
1034 16812 4378 1 109.50000 418.400000
1034 16812 16811 1 103.70004 836.800000
1034 16812 16821 1 109.50000 418.400000
4378 16812 16811 1 103.70004 836.800000
4378 16812 16821 1 109.50000 418.400000
16811 16812 16821 1 103.70004 1034.033760
16811 16813 16814 1 119.8800511 375.723200
16811 16813 16815 1 120.0200517 532.790560
16814 16813 16815 1 119.8800511 375.723200
16813 16815 16816 1 119.8800511 375.723200
16813 16815 16817 1 120.0200517 532.790560
16816 16815 16817 1 119.8800511 375.723200
16815 16817 16818 1 119.8800511 375.723200
16815 16817 16819 1 120.0200517 532.790560
16818 16817 16819 1 119.8800511 375.723200
16810 16819 16817 1 120.0200517 532.790560
16810 16819 16820 1 119.8800511 375.723200
16817 16819 16820 1 119.8800511 375.723200
16812 16821 16822 1 115.00000 209.200000
16823 16824 16825 1 119.8800511 375.723200
16823 16824 16833 1 119.8800511 375.723200
16825 16824 16833 1 120.0200517 532.790560
16824 16825 16826 1 121.3800518 83.010560
16824 16825 16827 1 120.0200517 532.790560
16826 16825 16827 1 121.3800518 83.010560
306 16826 8635 1 109.50000 418.400000
306 16826 16825 1 103.70004 836.800000
306 16826 16835 1 109.50000 418.400000
8635 16826 16825 1 103.70004 836.800000
8635 16826 16835 1 109.50000 418.400000
16825 16826 16835 1 103.70004 1034.033760
16825 16827 16828 1 119.8800511 375.723200
16825 16827 16829 1 120.0200517 532.790560
16828 16827 16829 1 119.8800511 375.723200
16827 16829 16830 1 119.8800511 375.723200
16827 16829 16831 1 120.0200517 532.790560
16830 16829 16831 1 119.8800511 375.723200
16829 16831 16832 1 119.8800511 375.723200
16829 16831 16833 1 120.0200517 532.790560
16832 16831 16833 1 119.8800511 375.723200
16824 16833 16831 1 120.0200517 532.790560
16824 16833 16834 1 119.8800511 375.723200
16831 16833 16834 1 119.8800511 375.723200
16826 16835 16836 1 115.00000 209.200000
16837 16838 16839 1 119.8800511 375.723200
16837 16838 16847 1 119.8800511 375.723200
16839 16838 16847 1 120.0200517 532.790560
16838 16839 16840 1 121.3800518 83.010560
16838 16839 16841 1 120.0200517 532.790560
16840 16839 16841 1 121.3800518 83.010560
9263 16840 9264 1 109.50000 418.400000
9263 16840 16839 1 103.70004 836.800000
9263 16840 16849 1 109.50000 418.400000
9264 16840 16839 1 103.70004 836.800000
9264 16840 16849 1 109.50000 418.400000
16839 16840 16849 1 103.70004 1034.033760
16839 16841 16842 1 119.8800511 375.723200
16839 16841 16843 1 120.0200517 532.790560
16842 16841 16843 1 119.8800511 375.723200
16841 16843 16844 1 119.8800511 375.723200
16841 16843 16845 1 120.0200517 532.790560
16844 16843 16845 1 119.8800511 375.723200
16843 16845 16846 1 119.8800511 375.723200
16843 16845 16847 1 120.0200517 532.790560
16846 16845 16847 1 119.8800511 375.723200
16838 16847 16845 1 120.0200517 532.790560
16838 16847 16848 1 119.8800511 375.723200
16845 16847 16848 1 119.8800511 375.723200
16840 16849 16850 1 115.00000 209.200000
16851 16852 16853 1 119.8800511 375.723200
16851 16852 16861 1 119.8800511 375.723200
16853 16852 16861 1 120.0200517 532.790560
16852 16853 16854 1 121.3800518 83.010560
16852 16853 16855 1 120.0200517 532.790560
16854 16853 16855 1 121.3800518 83.010560
5069 16854 7625 1 109.50000 418.400000
5069 16854 16853 1 103.70004 836.800000
5069 16854 16863 1 109.50000 418.400000
7625 16854 16853 1 103.70004 836.800000
7625 16854 16863 1 109.50000 418.400000
16853 16854 16863 1 103.70004 1034.033760
16853 16855 16856 1 119.8800511 375.723200
16853 16855 16857 1 120.0200517 532.790560
16856 16855 16857 1 119.8800511 375.723200
16855 16857 16858 1 119.8800511 375.723200
16855 16857 16859 1 120.0200517 532.790560
16858 16857 16859 1 119.8800511 375.723200
16857 16859 16860 1 119.8800511 375.723200
16857 16859 16861 1 120.0200517 532.790560
16860 16859 16861 1 119.8800511 375.723200
16852 16861 16859 1 120.0200517 532.790560
16852 16861 16862 1 119.8800511 375.723200
16859 16861 16862 1 119.8800511 375.723200
16854 16863 16864 1 115.00000 209.200000
16865 16866 16867 1 119.8800511 375.723200
16865 16866 16875 1 119.8800511 375.723200
16867 16866 16875 1 120.0200517 532.790560
16866 16867 16868 1 121.3800518 83.010560
16866 16867 16869 1 120.0200517 532.790560
16868 16867 16869 1 121.3800518 83.010560
1207 16868 3332 1 109.50000 418.400000
1207 16868 16867 1 103.70004 836.800000
1207 16868 16877 1 109.50000 418.400000
3332 16868 16867 1 103.70004 836.800000
3332 16868 16877 1 109.50000 418.400000
16867 16868 16877 1 103.70004 1034.033760
16867 16869 16870 1 119.8800511 375.723200
16867 16869 16871 1 120.0200517 532.790560
16870 16869 16871 1 119.8800511 375.723200
16869 16871 16872 1 119.8800511 375.723200
16869 16871 16873 1 120.0200517 532.790560
16872 16871 16873 1 119.8800511 375.723200
16871 16873 16874 1 119.8800511 375.723200
16871 16873 16875 1 120.0200517 532.790560
16874 16873 16875 1 119.8800511 375.723200
16866 16875 16873 1 120.0200517 532.790560
16866 16875 16876 1 119.8800511 375.723200
16873 16875 16876 1 119.8800511 375.723200
16868 16877 16878 1 115.00000 209.200000
16879 16880 16881 1 119.8800511 375.723200
16879 16880 16889 1 119.8800511 375.723200
16881 16880 16889 1 120.0200517 532.790560
16880 16881 16882 1 121.3800518 83.010560
16880 16881 16883 1 120.0200517 532.790560
16882 16881 16883 1 121.3800518 83.010560
2298 16882 9090 1 109.50000 418.400000
2298 16882 16881 1 103.70004 836.800000
2298 16882 16891 1 109.50000 418.400000
9090 16882 16881 1 103.70004 836.800000
9090 16882 16891 1 109.50000 418.400000
16881 16882 16891 1 103.70004 1034.033760
16881 16883 16884 1 119.8800511 375.723200
16881 16883 16885 1 120.0200517 532.790560
16884 16883 16885 1 119.8800511 375.723200
16883 16885 16886 1 119.8800511 375.723200
16883 16885 16887 1 120.0200517 532.790560
16886 16885 16887 1 119.8800511 375.723200
16885 16887 16888 1 119.8800511 375.723200
16885 16887 16889 1 120.0200517 532.790560
16888 16887 16889 1 119.8800511 375.723200
16880 16889 16887 1 120.0200517 532.790560
16880 16889 16890 1 119.8800511 375.723200
16887 16889 16890 1 119.8800511 375.723200
16882 16891 16892 1 115.00000 209.200000
16893 16894 16895 1 119.8800511 375.723200
16893 16894 16903 1 119.8800511 375.723200
16895 16894 16903 1 120.0200517 532.790560
16894 16895 16896 1 121.3800518 83.010560
16894 16895 16897 1 120.0200517 532.790560
16896 16895 16897 1 121.3800518 83.010560
442 16896 5141 1 109.50000 418.400000
442 16896 16895 1 103.70004 836.800000
442 16896 16905 1 109.50000 418.400000
5141 16896 16895 1 103.70004 836.800000
5141 16896 16905 1 109.50000 418.400000
16895 16896 16905 1 103.70004 1034.033760
16895 16897 16898 1 119.8800511 375.723200
16895 16897 16899 1 120.0200517 532.790560
16898 16897 16899 1 119.8800511 375.723200
16897 16899 16900 1 119.8800511 375.723200
16897 16899 16901 1 120.0200517 532.790560
16900 16899 16901 1 119.8800511 375.723200
16899 16901 16902 1 119.8800511 375.723200
16899 16901 16903 1 120.0200517 532.790560
16902 16901 16903 1 119.8800511 375.723200
16894 16903 16901 1 120.0200517 532.790560
16894 16903 16904 1 119.8800511 375.723200
16901 16903 16904 1 119.8800511 375.723200
16896 16905 16906 1 115.00000 209.200000
16907 16908 16909 1 119.8800511 375.723200
16907 16908 16917 1 119.8800511 375.723200
16909 16908 16917 1 120.0200517 532.790560
16908 16909 16910 1 121.3800518 83.010560
16908 16909 16911 1 120.0200517 532.790560
16910 16909 16911 1 121.3800518 83.010560
4102 16910 9375 1 109.50000 418.400000
4102 16910 16909 1 103.70004 836.800000
4102 16910 16919 1 109.50000 418.400000
9375 16910 16909 1 103.70004 836.800000
9375 16910 16919 1 109.50000 418.400000
16909 16910 16919 1 103.70004 1034.033760
16909 16911 16912 1 119.8800511 375.723200
16909 16911 16913 1 120.0200517 532.790560
16912 16911 16913 1 119.8800511 375.723200
16911 16913 16914 1 119.8800511 375.723200
16911 16913 16915 1 120.0200517 532.790560
16914 16913 16915 1 119.8800511 375.723200
16913 16915 16916 1 119.8800511 375.723200
16913 16915 16917 1 120.0200517 532.790560
16916 16915 16917 1 119.8800511 375.723200
16908 16917 16915 1 120.0200517 532.790560
16908 16917 16918 1 119.8800511 375.723200
16915 16917 16918 1 119.8800511 375.723200
16910 16919 16920 1 115.00000 209.200000
16921 16922 16923 1 119.8800511 375.723200
16921 16922 16931 1 119.8800511 375.723200
16923 16922 16931 1 120.0200517 532.790560
16922 16923 16924 1 121.3800518 83.010560
16922 16923 16925 1 120.0200517 532.790560
16924 16923 16925 1 121.3800518 83.010560
6737 16924 9405 1 109.50000 418.400000
6737 16924 16923 1 103.70004 836.800000
6737 16924 16933 1 109.50000 418.400000
9405 16924 16923 1 103.70004 836.800000
9405 16924 16933 1 109.50000 418.400000
16923 16924 16933 1 103.70004 1034.033760
16923 16925 16926 1 119.8800511 375.723200
16923 16925 16927 1 120.0200517 532.790560
16926 16925 16927 1 119.8800511 375.723200
16925 16927 16928 1 119.8800511 375.723200
16925 16927 16929 1 120.0200517 532.790560
16928 16927 16929 1 119.8800511 375.723200
16927 16929 16930 1 119.8800511 375.723200
16927 16929 16931 1 120.0200517 532.790560
16930 16929 16931 1 119.8800511 375.723200
16922 16931 16929 1 120.0200517 532.790560
16922 16931 16932 1 119.8800511 375.723200
16929 16931 16932 1 119.8800511 375.723200
16924 16933 16934 1 115.00000 209.200000
16935 16936 16937 1 119.8800511 375.723200
16935 16936 16945 1 119.8800511 375.723200
16937 16936 16945 1 120.0200517 532.790560
16936 16937 16938 1 121.3800518 83.010560
16936 16937 16939 1 120.0200517 532.790560
16938 16937 16939 1 121.3800518 83.010560
5504 16938 9430 1 109.50000 418.400000
5504 16938 16937 1 103.70004 836.800000
5504 16938 16947 1 109.50000 418.400000
9430 16938 16937 1 103.70004 836.800000
9430 16938 16947 1 109.50000 418.400000
16937 16938 16947 1 103.70004 1034.033760
16937 16939 16940 1 119.8800511 375.723200
16937 16939 16941 1 120.0200517 532.790560
16940 16939 16941 1 119.8800511 375.723200
16939 16941 16942 1 119.8800511 375.723200
16939 16941 16943 1 120.0200517 532.790560
16942 16941 16943 1 119.8800511 375.723200
16941 16943 16944 1 119.8800511 375.723200
16941 16943 16945 1 120.0200517 532.790560
16944 16943 16945 1 119.8800511 375.723200
16936 16945 16943 1 120.0200517 532.790560
16936 16945 16946 1 119.8800511 375.723200
16943 16945 16946 1 119.8800511 375.723200
16938 16947 16948 1 115.00000 209.200000
16949 16950 16951 1 119.8800511 375.723200
16949 16950 16959 1 119.8800511 375.723200
16951 16950 16959 1 120.0200517 532.790560
16950 16951 16952 1 121.3800518 83.010560
16950 16951 16953 1 120.0200517 532.790560
16952 16951 16953 1 121.3800518 83.010560
4811 16952 9464 1 109.50000 418.400000
4811 16952 16951 1 103.70004 836.800000
4811 16952 16961 1 109.50000 418.400000
9464 16952 16951 1 103.70004 836.800000
9464 16952 16961 1 109.50000 418.400000
16951 16952 16961 1 103.70004 1034.033760
16951 16953 16954 1 119.8800511 375.723200
16951 16953 16955 1 120.0200517 532.790560
16954 16953 16955 1 119.8800511 375.723200
16953 16955 16956 1 119.8800511 375.723200
16953 16955 16957 1 120.0200517 532.790560
16956 16955 16957 1 119.8800511 375.723200
16955 16957 16958 1 119.8800511 375.723200
16955 16957 16959 1 120.0200517 532.790560
16958 16957 16959 1 119.8800511 375.723200
16950 16959 16957 1 120.0200517 532.790560
16950 16959 16960 1 119.8800511 375.723200
16957 16959 16960 1 119.8800511 375.723200
16952 16961 16962 1 115.00000 209.200000
16963 16964 16965 1 119.8800511 375.723200
16963 16964 16973 1 119.8800511 375.723200
16965 16964 16973 1 120.0200517 532.790560
16964 16965 16966 1 121.3800518 83.010560
16964 16965 16967 1 120.0200517 532.790560
16966 16965 16967 1 121.3800518 83.010560
5257 16966 5448 1 109.50000 418.400000
5257 16966 16965 1 103.70004 836.800000
5257 16966 16975 1 109.50000 418.400000
5448 16966 16965 1 103.70004 836.800000
5448 16966 16975 1 109.50000 418.400000
16965 16966 16975 1 103.70004 1034.033760
16965 16967 16968 1 119.8800511 375.723200
16965 16967 16969 1 120.0200517 532.790560
16968 16967 16969 1 119.8800511 375.723200
16967 16969 16970 1 119.8800511 375.723200
16967 16969 16971 1 120.0200517 532.790560
16970 16969 16971 1 119.8800511 375.723200
16969 16971 16972 1 119.8800511 375.723200
16969 16971 16973 1 120.0200517 532.790560
16972 16971 16973 1 119.8800511 375.723200
16964 16973 16971 1 120.0200517 532.790560
16964 16973 16974 1 119.8800511 375.723200
16971 16973 16974 1 119.8800511 375.723200
16966 16975 16976 1 115.00000 209.200000
16977 16978 16979 1 119.8800511 375.723200
16977 16978 16987 1 119.8800511 375.723200
16979 16978 16987 1 120.0200517 532.790560
16978 16979 16980 1 121.3800518 83.010560
16978 16979 16981 1 120.0200517 532.790560
16980 16979 16981 1 121.3800518 83.010560
4318 16980 9492 1 109.50000 418.400000
4318 16980 16979 1 103.70004 836.800000
4318 16980 16989 1 109.50000 418.400000
9492 16980 16979 1 103.70004 836.800000
9492 16980 16989 1 109.50000 418.400000
16979 16980 16989 1 103.70004 1034.033760
16979 16981 16982 1 119.8800511 375.723200
16979 16981 16983 1 120.0200517 532.790560
16982 16981 16983 1 119.8800511 375.723200
16981 16983 16984 1 119.8800511 375.723200
16981 16983 16985 1 120.0200517 532.790560
16984 16983 16985 1 119.8800511 375.723200
16983 16985 16986 1 119.8800511 375.723200
16983 16985 16987 1 120.0200517 532.790560
16986 16985 16987 1 119.8800511 375.723200
16978 16987 16985 1 120.0200517 532.790560
16978 16987 16988 1 119.8800511 375.723200
16985 16987 16988 1 119.8800511 375.723200
16980 16989 16990 1 115.00000 209.200000
16991 16992 16993 1 119.8800511 375.723200
16991 16992 17001 1 119.8800511 375.723200
16993 16992 17001 1 120.0200517 532.790560
16992 16993 16994 1 121.3800518 83.010560
16992 16993 16995 1 120.0200517 532.790560
16994 16993 16995 1 121.3800518 83.010560
2176 16994 9500 1 109.50000 418.400000
2176 16994 16993 1 103.70004 836.800000
2176 16994 17003 1 109.50000 418.400000
9500 16994 16993 1 103.70004 836.800000
9500 16994 17003 1 109.50000 418.400000
16993 16994 17003 1 103.70004 1034.033760
16993 16995 16996 1 119.8800511 375.723200
16993 16995 16997 1 120.0200517 532.790560
16996 16995 16997 1 119.8800511 375.723200
16995 16997 16998 1 119.8800511 375.723200
16995 16997 16999 1 120.0200517 532.790560
16998 16997 16999 1 119.8800511 375.723200
16997 16999 17000 1 119.8800511 375.723200
16997 16999 17001 1 120.0200517 532.790560
17000 16999 17001 1 119.8800511 375.723200
16992 17001 16999 1 120.0200517 532.790560
16992 17001 17002 1 119.8800511 375.723200
16999 17001 17002 1 119.8800511 375.723200
16994 17003 17004 1 115.00000 209.200000
17005 17006 17007 1 119.8800511 375.723200
17005 17006 17015 1 119.8800511 375.723200
17007 17006 17015 1 120.0200517 532.790560
17006 17007 17008 1 121.3800518 83.010560
17006 17007 17009 1 120.0200517 532.790560
17008 17007 17009 1 121.3800518 83.010560
9547 17008 9548 1 109.50000 418.400000
9547 17008 17007 1 103.70004 836.800000
9547 17008 17017 1 109.50000 418.400000
9548 17008 17007 1 103.70004 836.800000
9548 17008 17017 1 109.50000 418.400000
17007 17008 17017 1 103.70004 1034.033760
17007 17009 17010 1 119.8800511 375.723200
17007 17009 17011 1 120.0200517 532.790560
17010 17009 17011 1 119.8800511 375.723200
17009 17011 17012 1 119.8800511 375.723200
17009 17011 17013 1 120.0200517 532.790560
17012 17011 17013 1 119.8800511 375.723200
17011 17013 17014 1 119.8800511 375.723200
17011 17013 17015 1 120.0200517 532.790560
17014 17013 17015 1 119.8800511 375.723200
17006 17015 17013 1 120.0200517 532.790560
17006 17015 17016 1 119.8800511 375.723200
17013 17015 17016 1 119.8800511 375.723200
17008 17017 17018 1 115.00000 209.200000
17019 17020 17021 1 119.8800511 375.723200
17019 17020 17029 1 119.8800511 375.723200
17021 17020 17029 1 120.0200517 532.790560
17020 17021 17022 1 121.3800518 83.010560
17020 17021 17023 1 120.0200517 532.790560
17022 17021 17023 1 121.3800518 83.010560
2986 17022 4060 1 109.50000 418.400000
2986 17022 17021 1 103.70004 836.800000
2986 17022 17031 1 109.50000 418.400000
4060 17022 17021 1 103.70004 836.800000
4060 17022 17031 1 109.50000 418.400000
17021 17022 17031 1 103.70004 1034.033760
17021 17023 17024 1 119.8800511 375.723200
17021 17023 17025 1 120.0200517 532.790560
17024 17023 17025 1 119.8800511 375.723200
17023 17025 17026 1 119.8800511 375.723200
17023 17025 17027 1 120.0200517 532.790560
17026 17025 17027 1 119.8800511 375.723200
17025 17027 17028 1 119.8800511 375.723200
17025 17027 17029 1 120.0200517 532.790560
17028 17027 17029 1 119.8800511 375.723200
17020 17029 17027 1 120.0200517 532.790560
17020 17029 17030 1 119.8800511 375.723200
17027 17029 17030 1 119.8800511 375.723200
17022 17031 17032 1 115.00000 209.200000
17033 17034 17035 1 119.8800511 375.723200
17033 17034 17043 1 119.8800511 375.723200
17035 17034 17043 1 120.0200517 532.790560
17034 17035 17036 1 121.3800518 83.010560
17034 17035 17037 1 120.0200517 532.790560
17036 17035 17037 1 121.3800518 83.010560
5462 17036 9563 1 109.50000 418.400000
5462 17036 17035 1 103.70004 836.800000
5462 17036 17045 1 109.50000 418.400000
9563 17036 17035 1 103.70004 836.800000
9563 17036 17045 1 109.50000 418.400000
17035 17036 17045 1 103.70004 1034.033760
17035 17037 17038 1 119.8800511 375.723200
17035 17037 17039 1 120.0200517 532.790560
17038 17037 17039 1 119.8800511 375.723200
17037 17039 17040 1 119.8800511 375.723200
17037 17039 17041 1 120.0200517 532.790560
17040 17039 17041 1 119.8800511 375.723200
17039 17041 17042 1 119.8800511 375.723200
17039 17041 17043 1 120.0200517 532.790560
17042 17041 17043 1 119.8800511 375.723200
17034 17043 17041 1 120.0200517 532.790560
17034 17043 17044 1 119.8800511 375.723200
17041 17043 17044 1 119.8800511 375.723200
17036 17045 17046 1 115.00000 209.200000
17047 17048 17049 1 119.8800511 375.723200
17047 17048 17057 1 119.8800511 375.723200
17049 17048 17057 1 120.0200517 532.790560
17048 17049 17050 1 121.3800518 83.010560
17048 17049 17051 1 120.0200517 532.790560
17050 17049 17051 1 121.3800518 83.010560
2498 17050 9568 1 109.50000 418.400000
2498 17050 17049 1 103.70004 836.800000
2498 17050 17059 1 109.50000 418.400000
9568 17050 17049 1 103.70004 836.800000
9568 17050 17059 1 109.50000 418.400000
17049 17050 17059 1 103.70004 1034.033760
17049 17051 17052 1 119.8800511 375.723200
17049 17051 17053 1 120.0200517 532.790560
17052 17051 17053 1 119.8800511 375.723200
17051 17053 17054 1 119.8800511 375.723200
17051 17053 17055 1 120.0200517 532.790560
17054 17053 17055 1 119.8800511 375.723200
17053 17055 17056 1 119.8800511 375.723200
17053 17055 17057 1 120.0200517 532.790560
17056 17055 17057 1 119.8800511 375.723200
17048 17057 17055 1 120.0200517 532.790560
17048 17057 17058 1 119.8800511 375.723200
17055 17057 17058 1 119.8800511 375.723200
17050 17059 17060 1 115.00000 209.200000
17061 17062 17063 1 119.8800511 375.723200
17061 17062 17071 1 119.8800511 375.723200
17063 17062 17071 1 120.0200517 532.790560
17062 17063 17064 1 121.3800518 83.010560
17062 17063 17065 1 120.0200517 532.790560
17064 17063 17065 1 121.3800518 83.010560
3184 17064 6126 1 109.50000 418.400000
3184 17064 17063 1 103.70004 836.800000
3184 17064 17073 1 109.50000 418.400000
6126 17064 17063 1 103.70004 836.800000
6126 17064 17073 1 109.50000 418.400000
17063 17064 17073 1 103.70004 1034.033760
17063 17065 17066 1 119.8800511 375.723200
17063 17065 17067 1 120.0200517 532.790560
17066 17065 17067 1 119.8800511 375.723200
17065 17067 17068 1 119.8800511 375.723200
17065 17067 17069 1 120.0200517 532.790560
17068 17067 17069 1 119.8800511 375.723200
17067 17069 17070 1 119.8800511 375.723200
17067 17069 17071 1 120.0200517 532.790560
17070 17069 17071 1 119.8800511 375.723200
17062 17071 17069 1 120.0200517 532.790560
17062 17071 17072 1 119.8800511 375.723200
17069 17071 17072 1 119.8800511 375.723200
17064 17073 17074 1 115.00000 209.200000
17075 17076 17077 1 119.8800511 375.723200
17075 17076 17085 1 119.8800511 375.723200
17077 17076 17085 1 120.0200517 532.790560
17076 17077 17078 1 121.3800518 83.010560
17076 17077 17079 1 120.0200517 532.790560
17078 17077 17079 1 121.3800518 83.010560
1960 17078 9622 1 109.50000 418.400000
1960 17078 17077 1 103.70004 836.800000
1960 17078 17087 1 109.50000 418.400000
9622 17078 17077 1 103.70004 836.800000
9622 17078 17087 1 109.50000 418.400000
17077 17078 17087 1 103.70004 1034.033760
17077 17079 17080 1 119.8800511 375.723200
17077 17079 17081 1 120.0200517 532.790560
17080 17079 17081 1 119.8800511 375.723200
17079 17081 17082 1 119.8800511 375.723200
17079 17081 17083 1 120.0200517 532.790560
17082 17081 17083 1 119.8800511 375.723200
17081 17083 17084 1 119.8800511 375.723200
17081 17083 17085 1 120.0200517 532.790560
17084 17083 17085 1 119.8800511 375.723200
17076 17085 17083 1 120.0200517 532.790560
17076 17085 17086 1 119.8800511 375.723200
17083 17085 17086 1 119.8800511 375.723200
17078 17087 17088 1 115.00000 209.200000
17089 17090 17091 1 119.8800511 375.723200
17089 17090 17099 1 119.8800511 375.723200
17091 17090 17099 1 120.0200517 532.790560
17090 17091 17092 1 121.3800518 83.010560
17090 17091 17093 1 120.0200517 532.790560
17092 17091 17093 1 121.3800518 83.010560
9644 17092 9645 1 109.50000 418.400000
9644 17092 17091 1 103.70004 836.800000
9644 17092 17101 1 109.50000 418.400000
9645 17092 17091 1 103.70004 836.800000
9645 17092 17101 1 109.50000 418.400000
17091 17092 17101 1 103.70004 1034.033760
17091 17093 17094 1 119.8800511 375.723200
17091 17093 17095 1 120.0200517 532.790560
17094 17093 17095 1 119.8800511 375.723200
17093 17095 17096 1 119.8800511 375.723200
17093 17095 17097 1 120.0200517 532.790560
17096 17095 17097 1 119.8800511 375.723200
17095 17097 17098 1 119.8800511 375.723200
17095 17097 17099 1 120.0200517 532.790560
17098 17097 17099 1 119.8800511 375.723200
17090 17099 17097 1 120.0200517 532.790560
17090 17099 17100 1 119.8800511 375.723200
17097 17099 17100 1 119.8800511 375.723200
17092 17101 17102 1 115.00000 209.200000
17103 17104 17105 1 119.8800511 375.723200
17103 17104 17113 1 119.8800511 375.723200
17105 17104 17113 1 120.0200517 532.790560
17104 17105 17106 1 121.3800518 83.010560
17104 17105 17107 1 120.0200517 532.790560
17106 17105 17107 1 121.3800518 83.010560
5173 17106 9032 1 109.50000 418.400000
5173 17106 17105 1 103.70004 836.800000
5173 17106 17115 1 109.50000 418.400000
9032 17106 17105 1 103.70004 836.800000
9032 17106 17115 1 109.50000 418.400000
17105 17106 17115 1 103.70004 1034.033760
17105 17107 17108 1 119.8800511 375.723200
17105 17107 17109 1 120.0200517 532.790560
17108 17107 17109 1 119.8800511 375.723200
17107 17109 17110 1 119.8800511 375.723200
17107 17109 17111 1 120.0200517 532.790560
17110 17109 17111 1 119.8800511 375.723200
17109 17111 17112 1 119.8800511 375.723200
17109 17111 17113 1 120.0200517 532.790560
17112 17111 17113 1 119.8800511 375.723200
17104 17113 17111 1 120.0200517 532.790560
17104 17113 17114 1 119.8800511 375.723200
17111 17113 17114 1 119.8800511 375.723200
17106 17115 17116 1 115.00000 209.200000
17117 17118 17119 1 119.8800511 375.723200
17117 17118 17127 1 119.8800511 375.723200
17119 17118 17127 1 120.0200517 532.790560
17118 17119 17120 1 121.3800518 83.010560
17118 17119 17121 1 120.0200517 532.790560
17120 17119 17121 1 121.3800518 83.010560
603 17120 7772 1 109.50000 418.400000
603 17120 17119 1 103.70004 836.800000
603 17120 17129 1 109.50000 418.400000
7772 17120 17119 1 103.70004 836.800000
7772 17120 17129 1 109.50000 418.400000
17119 17120 17129 1 103.70004 1034.033760
17119 17121 17122 1 119.8800511 375.723200
17119 17121 17123 1 120.0200517 532.790560
17122 17121 17123 1 119.8800511 375.723200
17121 17123 17124 1 119.8800511 375.723200
17121 17123 17125 1 120.0200517 532.790560
17124 17123 17125 1 119.8800511 375.723200
17123 17125 17126 1 119.8800511 375.723200
17123 17125 17127 1 120.0200517 532.790560
17126 17125 17127 1 119.8800511 375.723200
17118 17127 17125 1 120.0200517 532.790560
17118 17127 17128 1 119.8800511 375.723200
17125 17127 17128 1 119.8800511 375.723200
17120 17129 17130 1 115.00000 209.200000
17131 17132 17133 1 119.8800511 375.723200
17131 17132 17141 1 119.8800511 375.723200
17133 17132 17141 1 120.0200517 532.790560
17132 17133 17134 1 121.3800518 83.010560
17132 17133 17135 1 120.0200517 532.790560
17134 17133 17135 1 121.3800518 83.010560
9764 17134 9765 1 109.50000 418.400000
9764 17134 17133 1 103.70004 836.800000
9764 17134 17143 1 109.50000 418.400000
9765 17134 17133 1 103.70004 836.800000
9765 17134 17143 1 109.50000 418.400000
17133 17134 17143 1 103.70004 1034.033760
17133 17135 17136 1 119.8800511 375.723200
17133 17135 17137 1 120.0200517 532.790560
17136 17135 17137 1 119.8800511 375.723200
17135 17137 17138 1 119.8800511 375.723200
17135 17137 17139 1 120.0200517 532.790560
17138 17137 17139 1 119.8800511 375.723200
17137 17139 17140 1 119.8800511 375.723200
17137 17139 17141 1 120.0200517 532.790560
17140 17139 17141 1 119.8800511 375.723200
17132 17141 17139 1 120.0200517 532.790560
17132 17141 17142 1 119.8800511 375.723200
17139 17141 17142 1 119.8800511 375.723200
17134 17143 17144 1 115.00000 209.200000
17145 17146 17147 1 119.8800511 375.723200
17145 17146 17155 1 119.8800511 375.723200
17147 17146 17155 1 120.0200517 532.790560
17146 17147 17148 1 121.3800518 83.010560
17146 17147 17149 1 120.0200517 532.790560
17148 17147 17149 1 121.3800518 83.010560
7732 17148 8725 1 109.50000 418.400000
7732 17148 17147 1 103.70004 836.800000
7732 17148 17157 1 109.50000 418.400000
8725 17148 17147 1 103.70004 836.800000
8725 17148 17157 1 109.50000 418.400000
17147 17148 17157 1 103.70004 1034.033760
17147 17149 17150 1 119.8800511 375.723200
17147 17149 17151 1 120.0200517 532.790560
17150 17149 17151 1 119.8800511 375.723200
17149 17151 17152 1 119.8800511 375.723200
17149 17151 17153 1 120.0200517 532.790560
17152 17151 17153 1 119.8800511 375.723200
17151 17153 17154 1 119.8800511 375.723200
17151 17153 17155 1 120.0200517 532.790560
17154 17153 17155 1 119.8800511 375.723200
17146 17155 17153 1 120.0200517 532.790560
17146 17155 17156 1 119.8800511 375.723200
17153 17155 17156 1 119.8800511 375.723200
17148 17157 17158 1 115.00000 209.200000
17159 17160 17161 1 119.8800511 375.723200
17159 17160 17169 1 119.8800511 375.723200
17161 17160 17169 1 120.0200517 532.790560
17160 17161 17162 1 121.3800518 83.010560
17160 17161 17163 1 120.0200517 532.790560
17162 17161 17163 1 121.3800518 83.010560
395 17162 9825 1 109.50000 418.400000
395 17162 17161 1 103.70004 836.800000
395 17162 17171 1 109.50000 418.400000
9825 17162 17161 1 103.70004 836.800000
9825 17162 17171 1 109.50000 418.400000
17161 17162 17171 1 103.70004 1034.033760
17161 17163 17164 1 119.8800511 375.723200
17161 17163 17165 1 120.0200517 532.790560
17164 17163 17165 1 119.8800511 375.723200
17163 17165 17166 1 119.8800511 375.723200
17163 17165 17167 1 120.0200517 532.790560
17166 17165 17167 1 119.8800511 375.723200
17165 17167 17168 1 119.8800511 375.723200
17165 17167 17169 1 120.0200517 532.790560
17168 17167 17169 1 119.8800511 375.723200
17160 17169 17167 1 120.0200517 532.790560
17160 17169 17170 1 119.8800511 375.723200
17167 17169 17170 1 119.8800511 375.723200
17162 17171 17172 1 115.00000 209.200000
17173 17174 17175 1 119.8800511 375.723200
17173 17174 17183 1 119.8800511 375.723200
17175 17174 17183 1 120.0200517 532.790560
17174 17175 17176 1 121.3800518 83.010560
17174 17175 17177 1 120.0200517 532.790560
17176 17175 17177 1 121.3800518 83.010560
3956 17176 4014 1 109.50000 418.400000
3956 17176 17175 1 103.70004 836.800000
3956 17176 17185 1 109.50000 418.400000
4014 17176 17175 1 103.70004 836.800000
4014 17176 17185 1 109.50000 418.400000
17175 17176 17185 1 103.70004 1034.033760
17175 17177 17178 1 119.8800511 375.723200
17175 17177 17179 1 120.0200517 532.790560
17178 17177 17179 1 119.8800511 375.723200
17177 17179 17180 1 119.8800511 375.723200
17177 17179 17181 1 120.0200517 532.790560
17180 17179 17181 1 119.8800511 375.723200
17179 17181 17182 1 119.8800511 375.723200
17179 17181 17183 1 120.0200517 532.790560
17182 17181 17183 1 119.8800511 375.723200
17174 17183 17181 1 120.0200517 532.790560
17174 17183 17184 1 119.8800511 375.723200
17181 17183 17184 1 119.8800511 375.723200
17176 17185 17186 1 115.00000 209.200000
17187 17188 17189 1 119.8800511 375.723200
17187 17188 17197 1 119.8800511 375.723200
17189 17188 17197 1 120.0200517 532.790560
17188 17189 17190 1 121.3800518 83.010560
17188 17189 17191 1 120.0200517 532.790560
17190 17189 17191 1 121.3800518 83.010560
5580 17190 5581 1 109.50000 418.400000
5580 17190 17189 1 103.70004 836.800000
5580 17190 17199 1 109.50000 418.400000
5581 17190 17189 1 103.70004 836.800000
5581 17190 17199 1 109.50000 418.400000
17189 17190 17199 1 103.70004 1034.033760
17189 17191 17192 1 119.8800511 375.723200
17189 17191 17193 1 120.0200517 532.790560
17192 17191 17193 1 119.8800511 375.723200
17191 17193 17194 1 119.8800511 375.723200
17191 17193 17195 1 120.0200517 532.790560
17194 17193 17195 1 119.8800511 375.723200
17193 17195 17196 1 119.8800511 375.723200
17193 17195 17197 1 120.0200517 532.790560
17196 17195 17197 1 119.8800511 375.723200
17188 17197 17195 1 120.0200517 532.790560
17188 17197 17198 1 119.8800511 375.723200
17195 17197 17198 1 119.8800511 375.723200
17190 17199 17200 1 115.00000 209.200000
17201 17202 17203 1 119.8800511 375.723200
17201 17202 17211 1 119.8800511 375.723200
17203 17202 17211 1 120.0200517 532.790560
17202 17203 17204 1 121.3800518 83.010560
17202 17203 17205 1 120.0200517 532.790560
17204 17203 17205 1 121.3800518 83.010560
5437 17204 8438 1 109.50000 418.400000
5437 17204 17203 1 103.70004 836.800000
5437 17204 17213 1 109.50000 418.400000
8438 17204 17203 1 103.70004 836.800000
8438 17204 17213 1 109.50000 418.400000
17203 17204 17213 1 103.70004 1034.033760
17203 17205 17206 1 119.8800511 375.723200
17203 17205 17207 1 120.0200517 532.790560
17206 17205 17207 1 119.8800511 375.723200
17205 17207 17208 1 119.8800511 375.723200
17205 17207 17209 1 120.0200517 532.790560
17208 17207 17209 1 119.8800511 375.723200
17207 17209 17210 1 119.8800511 375.723200
17207 17209 17211 1 120.0200517 532.790560
17210 17209 17211 1 119.8800511 375.723200
17202 17211 17209 1 120.0200517 532.790560
17202 17211 17212 1 119.8800511 375.723200
17209 17211 17212 1 119.8800511 375.723200
17204 17213 17214 1 115.00000 209.200000
17215 17216 17217 1 119.8800511 375.723200
17215 17216 17225 1 119.8800511 375.723200
17217 17216 17225 1 120.0200517 532.790560
17216 17217 17218 1 121.3800518 83.010560
17216 17217 17219 1 120.0200517 532.790560
17218 17217 17219 1 121.3800518 83.010560
7020 17218 9542 1 109.50000 418.400000
7020 17218 17217 1 103.70004 836.800000
7020 17218 17227 1 109.50000 418.400000
9542 17218 17217 1 103.70004 836.800000
9542 17218 17227 1 109.50000 418.400000
17217 17218 17227 1 103.70004 1034.033760
17217 17219 17220 1 119.8800511 375.723200
17217 17219 17221 1 120.0200517 532.790560
17220 17219 17221 1 119.8800511 375.723200
17219 17221 17222 1 119.8800511 375.723200
17219 17221 17223 1 120.0200517 532.790560
17222 17221 17223 1 119.8800511 375.723200
17221 17223 17224 1 119.8800511 375.723200
17221 17223 17225 1 120.0200517 532.790560
17224 17223 17225 1 119.8800511 375.723200
17216 17225 17223 1 120.0200517 532.790560
17216 17225 17226 1 119.8800511 375.723200
17223 17225 17226 1 119.8800511 375.723200
17218 17227 17228 1 115.00000 209.200000
17229 17230 17231 1 119.8800511 375.723200
17229 17230 17239 1 119.8800511 375.723200
17231 17230 17239 1 120.0200517 532.790560
17230 17231 17232 1 121.3800518 83.010560
17230 17231 17233 1 120.0200517 532.790560
17232 17231 17233 1 121.3800518 83.010560
7981 17232 9990 1 109.50000 418.400000
7981 17232 17231 1 103.70004 836.800000
7981 17232 17241 1 109.50000 418.400000
9990 17232 17231 1 103.70004 836.800000
9990 17232 17241 1 109.50000 418.400000
17231 17232 17241 1 103.70004 1034.033760
17231 17233 17234 1 119.8800511 375.723200
17231 17233 17235 1 120.0200517 532.790560
17234 17233 17235 1 119.8800511 375.723200
17233 17235 17236 1 119.8800511 375.723200
17233 17235 17237 1 120.0200517 532.790560
17236 17235 17237 1 119.8800511 375.723200
17235 17237 17238 1 119.8800511 375.723200
17235 17237 17239 1 120.0200517 532.790560
17238 17237 17239 1 119.8800511 375.723200
17230 17239 17237 1 120.0200517 532.790560
17230 17239 17240 1 119.8800511 375.723200
17237 17239 17240 1 119.8800511 375.723200
17232 17241 17242 1 115.00000 209.200000
17243 17244 17245 1 119.8800511 375.723200
17243 17244 17253 1 119.8800511 375.723200
17245 17244 17253 1 120.0200517 532.790560
17244 17245 17246 1 121.3800518 83.010560
17244 17245 17247 1 120.0200517 532.790560
17246 17245 17247 1 121.3800518 83.010560
2148 17246 8296 1 109.50000 418.400000
2148 17246 17245 1 103.70004 836.800000
2148 17246 17255 1 109.50000 418.400000
8296 17246 17245 1 103.70004 836.800000
8296 17246 17255 1 109.50000 418.400000
17245 17246 17255 1 103.70004 1034.033760
17245 17247 17248 1 119.8800511 375.723200
17245 17247 17249 1 120.0200517 532.790560
17248 17247 17249 1 119.8800511 375.723200
17247 17249 17250 1 119.8800511 375.723200
17247 17249 17251 1 120.0200517 532.790560
17250 17249 17251 1 119.8800511 375.723200
17249 17251 17252 1 119.8800511 375.723200
17249 17251 17253 1 120.0200517 532.790560
17252 17251 17253 1 119.8800511 375.723200
17244 17253 17251 1 120.0200517 532.790560
17244 17253 17254 1 119.8800511 375.723200
17251 17253 17254 1 119.8800511 375.723200
17246 17255 17256 1 115.00000 209.200000
17257 17258 17259 1 119.8800511 375.723200
17257 17258 17267 1 119.8800511 375.723200
17259 17258 17267 1 120.0200517 532.790560
17258 17259 17260 1 121.3800518 83.010560
17258 17259 17261 1 120.0200517 532.790560
17260 17259 17261 1 121.3800518 83.010560
2421 17260 2591 1 109.50000 418.400000
2421 17260 17259 1 103.70004 836.800000
2421 17260 17269 1 109.50000 418.400000
2591 17260 17259 1 103.70004 836.800000
2591 17260 17269 1 109.50000 418.400000
17259 17260 17269 1 103.70004 1034.033760
17259 17261 17262 1 119.8800511 375.723200
17259 17261 17263 1 120.0200517 532.790560
17262 17261 17263 1 119.8800511 375.723200
17261 17263 17264 1 119.8800511 375.723200
17261 17263 17265 1 120.0200517 532.790560
17264 17263 17265 1 119.8800511 375.723200
17263 17265 17266 1 119.8800511 375.723200
17263 17265 17267 1 120.0200517 532.790560
17266 17265 17267 1 119.8800511 375.723200
17258 17267 17265 1 120.0200517 532.790560
17258 17267 17268 1 119.8800511 375.723200
17265 17267 17268 1 119.8800511 375.723200
17260 17269 17270 1 115.00000 209.200000
17271 17272 17273 1 119.8800511 375.723200
17271 17272 17281 1 119.8800511 375.723200
17273 17272 17281 1 120.0200517 532.790560
17272 17273 17274 1 121.3800518 83.010560
17272 17273 17275 1 120.0200517 532.790560
17274 17273 17275 1 121.3800518 83.010560
8095 17274 10083 1 109.50000 418.400000
8095 17274 17273 1 103.70004 836.800000
8095 17274 17283 1 109.50000 418.400000
10083 17274 17273 1 103.70004 836.800000
10083 17274 17283 1 109.50000 418.400000
17273 17274 17283 1 103.70004 1034.033760
17273 17275 17276 1 119.8800511 375.723200
17273 17275 17277 1 120.0200517 532.790560
17276 17275 17277 1 119.8800511 375.723200
17275 17277 17278 1 119.8800511 375.723200
17275 17277 17279 1 120.0200517 532.790560
17278 17277 17279 1 119.8800511 375.723200
17277 17279 17280 1 119.8800511 375.723200
17277 17279 17281 1 120.0200517 532.790560
17280 17279 17281 1 119.8800511 375.723200
17272 17281 17279 1 120.0200517 532.790560
17272 17281 17282 1 119.8800511 375.723200
17279 17281 17282 1 119.8800511 375.723200
17274 17283 17284 1 115.00000 209.200000
17285 17286 17287 1 119.8800511 375.723200
17285 17286 17295 1 119.8800511 375.723200
17287 17286 17295 1 120.0200517 532.790560
17286 17287 17288 1 121.3800518 83.010560
17286 17287 17289 1 120.0200517 532.790560
17288 17287 17289 1 121.3800518 83.010560
1481 17288 3644 1 109.50000 418.400000
1481 17288 17287 1 103.70004 836.800000
1481 17288 17297 1 109.50000 418.400000
3644 17288 17287 1 103.70004 836.800000
3644 17288 17297 1 109.50000 418.400000
17287 17288 17297 1 103.70004 1034.033760
17287 17289 17290 1 119.8800511 375.723200
17287 17289 17291 1 120.0200517 532.790560
17290 17289 17291 1 119.8800511 375.723200
17289 17291 17292 1 119.8800511 375.723200
17289 17291 17293 1 120.0200517 532.790560
17292 17291 17293 1 119.8800511 375.723200
17291 17293 17294 1 119.8800511 375.723200
17291 17293 17295 1 120.0200517 532.790560
17294 17293 17295 1 119.8800511 375.723200
17286 17295 17293 1 120.0200517 532.790560
17286 17295 17296 1 119.8800511 375.723200
17293 17295 17296 1 119.8800511 375.723200
17288 17297 17298 1 115.00000 209.200000
17299 17300 17301 1 119.8800511 375.723200
17299 17300 17309 1 119.8800511 375.723200
17301 17300 17309 1 120.0200517 532.790560
17300 17301 17302 1 121.3800518 83.010560
17300 17301 17303 1 120.0200517 532.790560
17302 17301 17303 1 121.3800518 83.010560
3635 17302 7073 1 109.50000 418.400000
3635 17302 17301 1 103.70004 836.800000
3635 17302 17311 1 109.50000 418.400000
7073 17302 17301 1 103.70004 836.800000
7073 17302 17311 1 109.50000 418.400000
17301 17302 17311 1 103.70004 1034.033760
17301 17303 17304 1 119.8800511 375.723200
17301 17303 17305 1 120.0200517 532.790560
17304 17303 17305 1 119.8800511 375.723200
17303 17305 17306 1 119.8800511 375.723200
17303 17305 17307 1 120.0200517 532.790560
17306 17305 17307 1 119.8800511 375.723200
17305 17307 17308 1 119.8800511 375.723200
17305 17307 17309 1 120.0200517 532.790560
17308 17307 17309 1 119.8800511 375.723200
17300 17309 17307 1 120.0200517 532.790560
17300 17309 17310 1 119.8800511 375.723200
17307 17309 17310 1 119.8800511 375.723200
17302 17311 17312 1 115.00000 209.200000
17313 17314 17315 1 119.8800511 375.723200
17313 17314 17323 1 119.8800511 375.723200
17315 17314 17323 1 120.0200517 532.790560
17314 17315 17316 1 121.3800518 83.010560
17314 17315 17317 1 120.0200517 532.790560
17316 17315 17317 1 121.3800518 83.010560
2624 17316 10143 1 109.50000 418.400000
2624 17316 17315 1 103.70004 836.800000
2624 17316 17325 1 109.50000 418.400000
10143 17316 17315 1 103.70004 836.800000
10143 17316 17325 1 109.50000 418.400000
17315 17316 17325 1 103.70004 1034.033760
17315 17317 17318 1 119.8800511 375.723200
17315 17317 17319 1 120.0200517 532.790560
17318 17317 17319 1 119.8800511 375.723200
17317 17319 17320 1 119.8800511 375.723200
17317 17319 17321 1 120.0200517 532.790560
17320 17319 17321 1 119.8800511 375.723200
17319 17321 17322 1 119.8800511 375.723200
17319 17321 17323 1 120.0200517 532.790560
17322 17321 17323 1 119.8800511 375.723200
17314 17323 17321 1 120.0200517 532.790560
17314 17323 17324 1 119.8800511 375.723200
17321 17323 17324 1 119.8800511 375.723200
17316 17325 17326 1 115.00000 209.200000
17327 17328 17329 1 119.8800511 375.723200
17327 17328 17337 1 119.8800511 375.723200
17329 17328 17337 1 120.0200517 532.790560
17328 17329 17330 1 121.3800518 83.010560
17328 17329 17331 1 120.0200517 532.790560
17330 17329 17331 1 121.3800518 83.010560
241 17330 9643 1 109.50000 418.400000
241 17330 17329 1 103.70004 836.800000
241 17330 17339 1 109.50000 418.400000
9643 17330 17329 1 103.70004 836.800000
9643 17330 17339 1 109.50000 418.400000
17329 17330 17339 1 103.70004 1034.033760
17329 17331 17332 1 119.8800511 375.723200
17329 17331 17333 1 120.0200517 532.790560
17332 17331 17333 1 119.8800511 375.723200
17331 17333 17334 1 119.8800511 375.723200
17331 17333 17335 1 120.0200517 532.790560
17334 17333 17335 1 119.8800511 375.723200
17333 17335 17336 1 119.8800511 375.723200
17333 17335 17337 1 120.0200517 532.790560
17336 17335 17337 1 119.8800511 375.723200
17328 17337 17335 1 120.0200517 532.790560
17328 17337 17338 1 119.8800511 375.723200
17335 17337 17338 1 119.8800511 375.723200
17330 17339 17340 1 115.00000 209.200000
17341 17342 17343 1 119.8800511 375.723200
17341 17342 17351 1 119.8800511 375.723200
17343 17342 17351 1 120.0200517 532.790560
17342 17343 17344 1 121.3800518 83.010560
17342 17343 17345 1 120.0200517 532.790560
17344 17343 17345 1 121.3800518 83.010560
6892 17344 8331 1 109.50000 418.400000
6892 17344 17343 1 103.70004 836.800000
6892 17344 17353 1 109.50000 418.400000
8331 17344 17343 1 103.70004 836.800000
8331 17344 17353 1 109.50000 418.400000
17343 17344 17353 1 103.70004 1034.033760
17343 17345 17346 1 119.8800511 375.723200
17343 17345 17347 1 120.0200517 532.790560
17346 17345 17347 1 119.8800511 375.723200
17345 17347 17348 1 119.8800511 375.723200
17345 17347 17349 1 120.0200517 532.790560
17348 17347 17349 1 119.8800511 375.723200
17347 17349 17350 1 119.8800511 375.723200
17347 17349 17351 1 120.0200517 532.790560
17350 17349 17351 1 119.8800511 375.723200
17342 17351 17349 1 120.0200517 532.790560
17342 17351 17352 1 119.8800511 375.723200
17349 17351 17352 1 119.8800511 375.723200
17344 17353 17354 1 115.00000 209.200000
17355 17356 17357 1 119.8800511 375.723200
17355 17356 17365 1 119.8800511 375.723200
17357 17356 17365 1 120.0200517 532.790560
17356 17357 17358 1 121.3800518 83.010560
17356 17357 17359 1 120.0200517 532.790560
17358 17357 17359 1 121.3800518 83.010560
5709 17358 6741 1 109.50000 418.400000
5709 17358 17357 1 103.70004 836.800000
5709 17358 17367 1 109.50000 418.400000
6741 17358 17357 1 103.70004 836.800000
6741 17358 17367 1 109.50000 418.400000
17357 17358 17367 1 103.70004 1034.033760
17357 17359 17360 1 119.8800511 375.723200
17357 17359 17361 1 120.0200517 532.790560
17360 17359 17361 1 119.8800511 375.723200
17359 17361 17362 1 119.8800511 375.723200
17359 17361 17363 1 120.0200517 532.790560
17362 17361 17363 1 119.8800511 375.723200
17361 17363 17364 1 119.8800511 375.723200
17361 17363 17365 1 120.0200517 532.790560
17364 17363 17365 1 119.8800511 375.723200
17356 17365 17363 1 120.0200517 532.790560
17356 17365 17366 1 119.8800511 375.723200
17363 17365 17366 1 119.8800511 375.723200
17358 17367 17368 1 115.00000 209.200000
17369 17370 17371 1 119.8800511 375.723200
17369 17370 17379 1 119.8800511 375.723200
17371 17370 17379 1 120.0200517 532.790560
17370 17371 17372 1 121.3800518 83.010560
17370 17371 17373 1 120.0200517 532.790560
17372 17371 17373 1 121.3800518 83.010560
8942 17372 10276 1 109.50000 418.400000
8942 17372 17371 1 103.70004 836.800000
8942 17372 17381 1 109.50000 418.400000
10276 17372 17371 1 103.70004 836.800000
10276 17372 17381 1 109.50000 418.400000
17371 17372 17381 1 103.70004 1034.033760
17371 17373 17374 1 119.8800511 375.723200
17371 17373 17375 1 120.0200517 532.790560
17374 17373 17375 1 119.8800511 375.723200
17373 17375 17376 1 119.8800511 375.723200
17373 17375 17377 1 120.0200517 532.790560
17376 17375 17377 1 119.8800511 375.723200
17375 17377 17378 1 119.8800511 375.723200
17375 17377 17379 1 120.0200517 532.790560
17378 17377 17379 1 119.8800511 375.723200
17370 17379 17377 1 120.0200517 532.790560
17370 17379 17380 1 119.8800511 375.723200
17377 17379 17380 1 119.8800511 375.723200
17372 17381 17382 1 115.00000 209.200000
17383 17384 17385 1 119.8800511 375.723200
17383 17384 17393 1 119.8800511 375.723200
17385 17384 17393 1 120.0200517 532.790560
17384 17385 17386 1 121.3800518 83.010560
17384 17385 17387 1 120.0200517 532.790560
17386 17385 17387 1 121.3800518 83.010560
4363 17386 9648 1 109.50000 418.400000
4363 17386 17385 1 103.70004 836.800000
4363 17386 17395 1 109.50000 418.400000
9648 17386 17385 1 103.70004 836.800000
9648 17386 17395 1 109.50000 418.400000
17385 17386 17395 1 103.70004 1034.033760
17385 17387 17388 1 119.8800511 375.723200
17385 17387 17389 1 120.0200517 532.790560
17388 17387 17389 1 119.8800511 375.723200
17387 17389 17390 1 119.8800511 375.723200
17387 17389 17391 1 120.0200517 532.790560
17390 17389 17391 1 119.8800511 375.723200
17389 17391 17392 1 119.8800511 375.723200
17389 17391 17393 1 120.0200517 532.790560
17392 17391 17393 1 119.8800511 375.723200
17384 17393 17391 1 120.0200517 532.790560
17384 17393 17394 1 119.8800511 375.723200
17391 17393 17394 1 119.8800511 375.723200
17386 17395 17396 1 115.00000 209.200000
17397 17398 17399 1 119.8800511 375.723200
17397 17398 17407 1 119.8800511 375.723200
17399 17398 17407 1 120.0200517 532.790560
17398 17399 17400 1 121.3800518 83.010560
17398 17399 17401 1 120.0200517 532.790560
17400 17399 17401 1 121.3800518 83.010560
6492 17400 10307 1 109.50000 418.400000
6492 17400 17399 1 103.70004 836.800000
6492 17400 17409 1 109.50000 418.400000
10307 17400 17399 1 103.70004 836.800000
10307 17400 17409 1 109.50000 418.400000
17399 17400 17409 1 103.70004 1034.033760
17399 17401 17402 1 119.8800511 375.723200
17399 17401 17403 1 120.0200517 532.790560
17402 17401 17403 1 119.8800511 375.723200
17401 17403 17404 1 119.8800511 375.723200
17401 17403 17405 1 120.0200517 532.790560
17404 17403 17405 1 119.8800511 375.723200
17403 17405 17406 1 119.8800511 375.723200
17403 17405 17407 1 120.0200517 532.790560
17406 17405 17407 1 119.8800511 375.723200
17398 17407 17405 1 120.0200517 532.790560
17398 17407 17408 1 119.8800511 375.723200
17405 17407 17408 1 119.8800511 375.723200
17400 17409 17410 1 115.00000 209.200000
17411 17412 17413 1 119.8800511 375.723200
17411 17412 17421 1 119.8800511 375.723200
17413 17412 17421 1 120.0200517 532.790560
17412 17413 17414 1 121.3800518 83.010560
17412 17413 17415 1 120.0200517 532.790560
17414 17413 17415 1 121.3800518 83.010560
4051 17414 10314 1 109.50000 418.400000
4051 17414 17413 1 103.70004 836.800000
4051 17414 17423 1 109.50000 418.400000
10314 17414 17413 1 103.70004 836.800000
10314 17414 17423 1 109.50000 418.400000
17413 17414 17423 1 103.70004 1034.033760
17413 17415 17416 1 119.8800511 375.723200
17413 17415 17417 1 120.0200517 532.790560
17416 17415 17417 1 119.8800511 375.723200
17415 17417 17418 1 119.8800511 375.723200
17415 17417 17419 1 120.0200517 532.790560
17418 17417 17419 1 119.8800511 375.723200
17417 17419 17420 1 119.8800511 375.723200
17417 17419 17421 1 120.0200517 532.790560
17420 17419 17421 1 119.8800511 375.723200
17412 17421 17419 1 120.0200517 532.790560
17412 17421 17422 1 119.8800511 375.723200
17419 17421 17422 1 119.8800511 375.723200
17414 17423 17424 1 115.00000 209.200000
17425 17426 17427 1 119.8800511 375.723200
17425 17426 17435 1 119.8800511 375.723200
17427 17426 17435 1 120.0200517 532.790560
17426 17427 17428 1 121.3800518 83.010560
17426 17427 17429 1 120.0200517 532.790560
17428 17427 17429 1 121.3800518 83.010560
6219 17428 10329 1 109.50000 418.400000
6219 17428 17427 1 103.70004 836.800000
6219 17428 17437 1 109.50000 418.400000
10329 17428 17427 1 103.70004 836.800000
10329 17428 17437 1 109.50000 418.400000
17427 17428 17437 1 103.70004 1034.033760
17427 17429 17430 1 119.8800511 375.723200
17427 17429 17431 1 120.0200517 532.790560
17430 17429 17431 1 119.8800511 375.723200
17429 17431 17432 1 119.8800511 375.723200
17429 17431 17433 1 120.0200517 532.790560
17432 17431 17433 1 119.8800511 375.723200
17431 17433 17434 1 119.8800511 375.723200
17431 17433 17435 1 120.0200517 532.790560
17434 17433 17435 1 119.8800511 375.723200
17426 17435 17433 1 120.0200517 532.790560
17426 17435 17436 1 119.8800511 375.723200
17433 17435 17436 1 119.8800511 375.723200
17428 17437 17438 1 115.00000 209.200000
17439 17440 17441 1 119.8800511 375.723200
17439 17440 17449 1 119.8800511 375.723200
17441 17440 17449 1 120.0200517 532.790560
17440 17441 17442 1 121.3800518 83.010560
17440 17441 17443 1 120.0200517 532.790560
17442 17441 17443 1 121.3800518 83.010560
6642 17442 10330 1 109.50000 418.400000
6642 17442 17441 1 103.70004 836.800000
6642 17442 17451 1 109.50000 418.400000
10330 17442 17441 1 103.70004 836.800000
10330 17442 17451 1 109.50000 418.400000
17441 17442 17451 1 103.70004 1034.033760
17441 17443 17444 1 119.8800511 375.723200
17441 17443 17445 1 120.0200517 532.790560
17444 17443 17445 1 119.8800511 375.723200
17443 17445 17446 1 119.8800511 375.723200
17443 17445 17447 1 120.0200517 532.790560
17446 17445 17447 1 119.8800511 375.723200
17445 17447 17448 1 119.8800511 375.723200
17445 17447 17449 1 120.0200517 532.790560
17448 17447 17449 1 119.8800511 375.723200
17440 17449 17447 1 120.0200517 532.790560
17440 17449 17450 1 119.8800511 375.723200
17447 17449 17450 1 119.8800511 375.723200
17442 17451 17452 1 115.00000 209.200000
17453 17454 17455 1 119.8800511 375.723200
17453 17454 17463 1 119.8800511 375.723200
17455 17454 17463 1 120.0200517 532.790560
17454 17455 17456 1 121.3800518 83.010560
17454 17455 17457 1 120.0200517 532.790560
17456 17455 17457 1 121.3800518 83.010560
178 17456 6130 1 109.50000 418.400000
178 17456 17455 1 103.70004 836.800000
178 17456 17465 1 109.50000 418.400000
6130 17456 17455 1 103.70004 836.800000
6130 17456 17465 1 109.50000 418.400000
17455 17456 17465 1 103.70004 1034.033760
17455 17457 17458 1 119.8800511 375.723200
17455 17457 17459 1 120.0200517 532.790560
17458 17457 17459 1 119.8800511 375.723200
17457 17459 17460 1 119.8800511 375.723200
17457 17459 17461 1 120.0200517 532.790560
17460 17459 17461 1 119.8800511 375.723200
17459 17461 17462 1 119.8800511 375.723200
17459 17461 17463 1 120.0200517 532.790560
17462 17461 17463 1 119.8800511 375.723200
17454 17463 17461 1 120.0200517 532.790560
17454 17463 17464 1 119.8800511 375.723200
17461 17463 17464 1 119.8800511 375.723200
17456 17465 17466 1 115.00000 209.200000
17467 17468 17469 1 119.8800511 375.723200
17467 17468 17477 1 119.8800511 375.723200
17469 17468 17477 1 120.0200517 532.790560
17468 17469 17470 1 121.3800518 83.010560
17468 17469 17471 1 120.0200517 532.790560
17470 17469 17471 1 121.3800518 83.010560
5333 17470 8617 1 109.50000 418.400000
5333 17470 17469 1 103.70004 836.800000
5333 17470 17479 1 109.50000 418.400000
8617 17470 17469 1 103.70004 836.800000
8617 17470 17479 1 109.50000 418.400000
17469 17470 17479 1 103.70004 1034.033760
17469 17471 17472 1 119.8800511 375.723200
17469 17471 17473 1 120.0200517 532.790560
17472 17471 17473 1 119.8800511 375.723200
17471 17473 17474 1 119.8800511 375.723200
17471 17473 17475 1 120.0200517 532.790560
17474 17473 17475 1 119.8800511 375.723200
17473 17475 17476 1 119.8800511 375.723200
17473 17475 17477 1 120.0200517 532.790560
17476 17475 17477 1 119.8800511 375.723200
17468 17477 17475 1 120.0200517 532.790560
17468 17477 17478 1 119.8800511 375.723200
17475 17477 17478 1 119.8800511 375.723200
17470 17479 17480 1 115.00000 209.200000
17481 17482 17483 1 119.8800511 375.723200
17481 17482 17491 1 119.8800511 375.723200
17483 17482 17491 1 120.0200517 532.790560
17482 17483 17484 1 121.3800518 83.010560
17482 17483 17485 1 120.0200517 532.790560
17484 17483 17485 1 121.3800518 83.010560
1180 17484 2990 1 109.50000 418.400000
1180 17484 17483 1 103.70004 836.800000
1180 17484 17493 1 109.50000 418.400000
2990 17484 17483 1 103.70004 836.800000
2990 17484 17493 1 109.50000 418.400000
17483 17484 17493 1 103.70004 1034.033760
17483 17485 17486 1 119.8800511 375.723200
17483 17485 17487 1 120.0200517 532.790560
17486 17485 17487 1 119.8800511 375.723200
17485 17487 17488 1 119.8800511 375.723200
17485 17487 17489 1 120.0200517 532.790560
17488 17487 17489 1 119.8800511 375.723200
17487 17489 17490 1 119.8800511 375.723200
17487 17489 17491 1 120.0200517 532.790560
17490 17489 17491 1 119.8800511 375.723200
17482 17491 17489 1 120.0200517 532.790560
17482 17491 17492 1 119.8800511 375.723200
17489 17491 17492 1 119.8800511 375.723200
17484 17493 17494 1 115.00000 209.200000
17495 17496 17497 1 119.8800511 375.723200
17495 17496 17505 1 119.8800511 375.723200
17497 17496 17505 1 120.0200517 532.790560
17496 17497 17498 1 121.3800518 83.010560
17496 17497 17499 1 120.0200517 532.790560
17498 17497 17499 1 121.3800518 83.010560
9456 17498 10397 1 109.50000 418.400000
9456 17498 17497 1 103.70004 836.800000
9456 17498 17507 1 109.50000 418.400000
10397 17498 17497 1 103.70004 836.800000
10397 17498 17507 1 109.50000 418.400000
17497 17498 17507 1 103.70004 1034.033760
17497 17499 17500 1 119.8800511 375.723200
17497 17499 17501 1 120.0200517 532.790560
17500 17499 17501 1 119.8800511 375.723200
17499 17501 17502 1 119.8800511 375.723200
17499 17501 17503 1 120.0200517 532.790560
17502 17501 17503 1 119.8800511 375.723200
17501 17503 17504 1 119.8800511 375.723200
17501 17503 17505 1 120.0200517 532.790560
17504 17503 17505 1 119.8800511 375.723200
17496 17505 17503 1 120.0200517 532.790560
17496 17505 17506 1 119.8800511 375.723200
17503 17505 17506 1 119.8800511 375.723200
17498 17507 17508 1 115.00000 209.200000
17509 17510 17511 1 119.8800511 375.723200
17509 17510 17519 1 119.8800511 375.723200
17511 17510 17519 1 120.0200517 532.790560
17510 17511 17512 1 121.3800518 83.010560
17510 17511 17513 1 120.0200517 532.790560
17512 17511 17513 1 121.3800518 83.010560
6440 17512 6664 1 109.50000 418.400000
6440 17512 17511 1 103.70004 836.800000
6440 17512 17521 1 109.50000 418.400000
6664 17512 17511 1 103.70004 836.800000
6664 17512 17521 1 109.50000 418.400000
17511 17512 17521 1 103.70004 1034.033760
17511 17513 17514 1 119.8800511 375.723200
17511 17513 17515 1 120.0200517 532.790560
17514 17513 17515 1 119.8800511 375.723200
17513 17515 17516 1 119.8800511 375.723200
17513 17515 17517 1 120.0200517 532.790560
17516 17515 17517 1 119.8800511 375.723200
17515 17517 17518 1 119.8800511 375.723200
17515 17517 17519 1 120.0200517 532.790560
17518 17517 17519 1 119.8800511 375.723200
17510 17519 17517 1 120.0200517 532.790560
17510 17519 17520 1 119.8800511 375.723200
17517 17519 17520 1 119.8800511 375.723200
17512 17521 17522 1 115.00000 209.200000
17523 17524 17525 1 119.8800511 375.723200
17523 17524 17533 1 119.8800511 375.723200
17525 17524 17533 1 120.0200517 532.790560
17524 17525 17526 1 121.3800518 83.010560
17524 17525 17527 1 120.0200517 532.790560
17526 17525 17527 1 121.3800518 83.010560
8363 17526 9558 1 109.50000 418.400000
8363 17526 17525 1 103.70004 836.800000
8363 17526 17535 1 109.50000 418.400000
9558 17526 17525 1 103.70004 836.800000
9558 17526 17535 1 109.50000 418.400000
17525 17526 17535 1 103.70004 1034.033760
17525 17527 17528 1 119.8800511 375.723200
17525 17527 17529 1 120.0200517 532.790560
17528 17527 17529 1 119.8800511 375.723200
17527 17529 17530 1 119.8800511 375.723200
17527 17529 17531 1 120.0200517 532.790560
17530 17529 17531 1 119.8800511 375.723200
17529 17531 17532 1 119.8800511 375.723200
17529 17531 17533 1 120.0200517 532.790560
17532 17531 17533 1 119.8800511 375.723200
17524 17533 17531 1 120.0200517 532.790560
17524 17533 17534 1 119.8800511 375.723200
17531 17533 17534 1 119.8800511 375.723200
17526 17535 17536 1 115.00000 209.200000
17537 17538 17539 1 119.8800511 375.723200
17537 17538 17547 1 119.8800511 375.723200
17539 17538 17547 1 120.0200517 532.790560
17538 17539 17540 1 121.3800518 83.010560
17538 17539 17541 1 120.0200517 532.790560
17540 17539 17541 1 121.3800518 83.010560
3560 17540 8785 1 109.50000 418.400000
3560 17540 17539 1 103.70004 836.800000
3560 17540 17549 1 109.50000 418.400000
8785 17540 17539 1 103.70004 836.800000
8785 17540 17549 1 109.50000 418.400000
17539 17540 17549 1 103.70004 1034.033760
17539 17541 17542 1 119.8800511 375.723200
17539 17541 17543 1 120.0200517 532.790560
17542 17541 17543 1 119.8800511 375.723200
17541 17543 17544 1 119.8800511 375.723200
17541 17543 17545 1 120.0200517 532.790560
17544 17543 17545 1 119.8800511 375.723200
17543 17545 17546 1 119.8800511 375.723200
17543 17545 17547 1 120.0200517 532.790560
17546 17545 17547 1 119.8800511 375.723200
17538 17547 17545 1 120.0200517 532.790560
17538 17547 17548 1 119.8800511 375.723200
17545 17547 17548 1 119.8800511 375.723200
17540 17549 17550 1 115.00000 209.200000
17551 17552 17553 1 119.8800511 375.723200
17551 17552 17561 1 119.8800511 375.723200
17553 17552 17561 1 120.0200517 532.790560
17552 17553 17554 1 121.3800518 83.010560
17552 17553 17555 1 120.0200517 532.790560
17554 17553 17555 1 121.3800518 83.010560
6235 17554 9622 1 109.50000 418.400000
6235 17554 17553 1 103.70004 836.800000
6235 17554 17563 1 109.50000 418.400000
9622 17554 17553 1 103.70004 836.800000
9622 17554 17563 1 109.50000 418.400000
17553 17554 17563 1 103.70004 1034.033760
17553 17555 17556 1 119.8800511 375.723200
17553 17555 17557 1 120.0200517 532.790560
17556 17555 17557 1 119.8800511 375.723200
17555 17557 17558 1 119.8800511 375.723200
17555 17557 17559 1 120.0200517 532.790560
17558 17557 17559 1 119.8800511 375.723200
17557 17559 17560 1 119.8800511 375.723200
17557 17559 17561 1 120.0200517 532.790560
17560 17559 17561 1 119.8800511 375.723200
17552 17561 17559 1 120.0200517 532.790560
17552 17561 17562 1 119.8800511 375.723200
17559 17561 17562 1 119.8800511 375.723200
17554 17563 17564 1 115.00000 209.200000
17565 17566 17567 1 119.8800511 375.723200
17565 17566 17575 1 119.8800511 375.723200
17567 17566 17575 1 120.0200517 532.790560
17566 17567 17568 1 121.3800518 83.010560
17566 17567 17569 1 120.0200517 532.790560
17568 17567 17569 1 121.3800518 83.010560
779 17568 9193 1 109.50000 418.400000
779 17568 17567 1 103.70004 836.800000
779 17568 17577 1 109.50000 418.400000
9193 17568 17567 1 103.70004 836.800000
9193 17568 17577 1 109.50000 418.400000
17567 17568 17577 1 103.70004 1034.033760
17567 17569 17570 1 119.8800511 375.723200
17567 17569 17571 1 120.0200517 532.790560
17570 17569 17571 1 119.8800511 375.723200
17569 17571 17572 1 119.8800511 375.723200
17569 17571 17573 1 120.0200517 532.790560
17572 17571 17573 1 119.8800511 375.723200
17571 17573 17574 1 119.8800511 375.723200
17571 17573 17575 1 120.0200517 532.790560
17574 17573 17575 1 119.8800511 375.723200
17566 17575 17573 1 120.0200517 532.790560
17566 17575 17576 1 119.8800511 375.723200
17573 17575 17576 1 119.8800511 375.723200
17568 17577 17578 1 115.00000 209.200000
17579 17580 17581 1 119.8800511 375.723200
17579 17580 17589 1 119.8800511 375.723200
17581 17580 17589 1 120.0200517 532.790560
17580 17581 17582 1 121.3800518 83.010560
17580 17581 17583 1 120.0200517 532.790560
17582 17581 17583 1 121.3800518 83.010560
31 17582 10549 1 109.50000 418.400000
31 17582 17581 1 103.70004 836.800000
31 17582 17591 1 109.50000 418.400000
10549 17582 17581 1 103.70004 836.800000
10549 17582 17591 1 109.50000 418.400000
17581 17582 17591 1 103.70004 1034.033760
17581 17583 17584 1 119.8800511 375.723200
17581 17583 17585 1 120.0200517 532.790560
17584 17583 17585 1 119.8800511 375.723200
17583 17585 17586 1 119.8800511 375.723200
17583 17585 17587 1 120.0200517 532.790560
17586 17585 17587 1 119.8800511 375.723200
17585 17587 17588 1 119.8800511 375.723200
17585 17587 17589 1 120.0200517 532.790560
17588 17587 17589 1 119.8800511 375.723200
17580 17589 17587 1 120.0200517 532.790560
17580 17589 17590 1 119.8800511 375.723200
17587 17589 17590 1 119.8800511 375.723200
17582 17591 17592 1 115.00000 209.200000
17593 17594 17595 1 119.8800511 375.723200
17593 17594 17603 1 119.8800511 375.723200
17595 17594 17603 1 120.0200517 532.790560
17594 17595 17596 1 121.3800518 83.010560
17594 17595 17597 1 120.0200517 532.790560
17596 17595 17597 1 121.3800518 83.010560
514 17596 3976 1 109.50000 418.400000
514 17596 17595 1 103.70004 836.800000
514 17596 17605 1 109.50000 418.400000
3976 17596 17595 1 103.70004 836.800000
3976 17596 17605 1 109.50000 418.400000
17595 17596 17605 1 103.70004 1034.033760
17595 17597 17598 1 119.8800511 375.723200
17595 17597 17599 1 120.0200517 532.790560
17598 17597 17599 1 119.8800511 375.723200
17597 17599 17600 1 119.8800511 375.723200
17597 17599 17601 1 120.0200517 532.790560
17600 17599 17601 1 119.8800511 375.723200
17599 17601 17602 1 119.8800511 375.723200
17599 17601 17603 1 120.0200517 532.790560
17602 17601 17603 1 119.8800511 375.723200
17594 17603 17601 1 120.0200517 532.790560
17594 17603 17604 1 119.8800511 375.723200
17601 17603 17604 1 119.8800511 375.723200
17596 17605 17606 1 115.00000 209.200000
17607 17608 17609 1 119.8800511 375.723200
17607 17608 17617 1 119.8800511 375.723200
17609 17608 17617 1 120.0200517 532.790560
17608 17609 17610 1 121.3800518 83.010560
17608 17609 17611 1 120.0200517 532.790560
17610 17609 17611 1 121.3800518 83.010560
2839 17610 9765 1 109.50000 418.400000
2839 17610 17609 1 103.70004 836.800000
2839 17610 17619 1 109.50000 418.400000
9765 17610 17609 1 103.70004 836.800000
9765 17610 17619 1 109.50000 418.400000
17609 17610 17619 1 103.70004 1034.033760
17609 17611 17612 1 119.8800511 375.723200
17609 17611 17613 1 120.0200517 532.790560
17612 17611 17613 1 119.8800511 375.723200
17611 17613 17614 1 119.8800511 375.723200
17611 17613 17615 1 120.0200517 532.790560
17614 17613 17615 1 119.8800511 375.723200
17613 17615 17616 1 119.8800511 375.723200
17613 17615 17617 1 120.0200517 532.790560
17616 17615 17617 1 119.8800511 375.723200
17608 17617 17615 1 120.0200517 532.790560
17608 17617 17618 1 119.8800511 375.723200
17615 17617 17618 1 119.8800511 375.723200
17610 17619 17620 1 115.00000 209.200000
17621 17622 17623 1 119.8800511 375.723200
17621 17622 17631 1 119.8800511 375.723200
17623 17622 17631 1 120.0200517 532.790560
17622 17623 17624 1 121.3800518 83.010560
17622 17623 17625 1 120.0200517 532.790560
17624 17623 17625 1 121.3800518 83.010560
4050 17624 10033 1 109.50000 418.400000
4050 17624 17623 1 103.70004 836.800000
4050 17624 17633 1 109.50000 418.400000
10033 17624 17623 1 103.70004 836.800000
10033 17624 17633 1 109.50000 418.400000
17623 17624 17633 1 103.70004 1034.033760
17623 17625 17626 1 119.8800511 375.723200
17623 17625 17627 1 120.0200517 532.790560
17626 17625 17627 1 119.8800511 375.723200
17625 17627 17628 1 119.8800511 375.723200
17625 17627 17629 1 120.0200517 532.790560
17628 17627 17629 1 119.8800511 375.723200
17627 17629 17630 1 119.8800511 375.723200
17627 17629 17631 1 120.0200517 532.790560
17630 17629 17631 1 119.8800511 375.723200
17622 17631 17629 1 120.0200517 532.790560
17622 17631 17632 1 119.8800511 375.723200
17629 17631 17632 1 119.8800511 375.723200
17624 17633 17634 1 115.00000 209.200000
17635 17636 17637 1 119.8800511 375.723200
17635 17636 17645 1 119.8800511 375.723200
17637 17636 17645 1 120.0200517 532.790560
17636 17637 17638 1 121.3800518 83.010560
17636 17637 17639 1 120.0200517 532.790560
17638 17637 17639 1 121.3800518 83.010560
416 17638 7933 1 109.50000 418.400000
416 17638 17637 1 103.70004 836.800000
416 17638 17647 1 109.50000 418.400000
7933 17638 17637 1 103.70004 836.800000
7933 17638 17647 1 109.50000 418.400000
17637 17638 17647 1 103.70004 1034.033760
17637 17639 17640 1 119.8800511 375.723200
17637 17639 17641 1 120.0200517 532.790560
17640 17639 17641 1 119.8800511 375.723200
17639 17641 17642 1 119.8800511 375.723200
17639 17641 17643 1 120.0200517 532.790560
17642 17641 17643 1 119.8800511 375.723200
17641 17643 17644 1 119.8800511 375.723200
17641 17643 17645 1 120.0200517 532.790560
17644 17643 17645 1 119.8800511 375.723200
17636 17645 17643 1 120.0200517 532.790560
17636 17645 17646 1 119.8800511 375.723200
17643 17645 17646 1 119.8800511 375.723200
17638 17647 17648 1 115.00000 209.200000
17649 17650 17651 1 119.8800511 375.723200
17649 17650 17659 1 119.8800511 375.723200
17651 17650 17659 1 120.0200517 532.790560
17650 17651 17652 1 121.3800518 83.010560
17650 17651 17653 1 120.0200517 532.790560
17652 17651 17653 1 121.3800518 83.010560
10409 17652 10694 1 109.50000 418.400000
10409 17652 17651 1 103.70004 836.800000
10409 17652 17661 1 109.50000 418.400000
10694 17652 17651 1 103.70004 836.800000
10694 17652 17661 1 109.50000 418.400000
17651 17652 17661 1 103.70004 1034.033760
17651 17653 17654 1 119.8800511 375.723200
17651 17653 17655 1 120.0200517 532.790560
17654 17653 17655 1 119.8800511 375.723200
17653 17655 17656 1 119.8800511 375.723200
17653 17655 17657 1 120.0200517 532.790560
17656 17655 17657 1 119.8800511 375.723200
17655 17657 17658 1 119.8800511 375.723200
17655 17657 17659 1 120.0200517 532.790560
17658 17657 17659 1 119.8800511 375.723200
17650 17659 17657 1 120.0200517 532.790560
17650 17659 17660 1 119.8800511 375.723200
17657 17659 17660 1 119.8800511 375.723200
17652 17661 17662 1 115.00000 209.200000
17663 17664 17665 1 119.8800511 375.723200
17663 17664 17673 1 119.8800511 375.723200
17665 17664 17673 1 120.0200517 532.790560
17664 17665 17666 1 121.3800518 83.010560
17664 17665 17667 1 120.0200517 532.790560
17666 17665 17667 1 121.3800518 83.010560
8938 17666 9991 1 109.50000 418.400000
8938 17666 17665 1 103.70004 836.800000
8938 17666 17675 1 109.50000 418.400000
9991 17666 17665 1 103.70004 836.800000
9991 17666 17675 1 109.50000 418.400000
17665 17666 17675 1 103.70004 1034.033760
17665 17667 17668 1 119.8800511 375.723200
17665 17667 17669 1 120.0200517 532.790560
17668 17667 17669 1 119.8800511 375.723200
17667 17669 17670 1 119.8800511 375.723200
17667 17669 17671 1 120.0200517 532.790560
17670 17669 17671 1 119.8800511 375.723200
17669 17671 17672 1 119.8800511 375.723200
17669 17671 17673 1 120.0200517 532.790560
17672 17671 17673 1 119.8800511 375.723200
17664 17673 17671 1 120.0200517 532.790560
17664 17673 17674 1 119.8800511 375.723200
17671 17673 17674 1 119.8800511 375.723200
17666 17675 17676 1 115.00000 209.200000
17677 17678 17679 1 119.8800511 375.723200
17677 17678 17687 1 119.8800511 375.723200
17679 17678 17687 1 120.0200517 532.790560
17678 17679 17680 1 121.3800518 83.010560
17678 17679 17681 1 120.0200517 532.790560
17680 17679 17681 1 121.3800518 83.010560
1382 17680 10701 1 109.50000 418.400000
1382 17680 17679 1 103.70004 836.800000
1382 17680 17689 1 109.50000 418.400000
10701 17680 17679 1 103.70004 836.800000
10701 17680 17689 1 109.50000 418.400000
17679 17680 17689 1 103.70004 1034.033760
17679 17681 17682 1 119.8800511 375.723200
17679 17681 17683 1 120.0200517 532.790560
17682 17681 17683 1 119.8800511 375.723200
17681 17683 17684 1 119.8800511 375.723200
17681 17683 17685 1 120.0200517 532.790560
17684 17683 17685 1 119.8800511 375.723200
17683 17685 17686 1 119.8800511 375.723200
17683 17685 17687 1 120.0200517 532.790560
17686 17685 17687 1 119.8800511 375.723200
17678 17687 17685 1 120.0200517 532.790560
17678 17687 17688 1 119.8800511 375.723200
17685 17687 17688 1 119.8800511 375.723200
17680 17689 17690 1 115.00000 209.200000
17691 17692 17693 1 119.8800511 375.723200
17691 17692 17701 1 119.8800511 375.723200
17693 17692 17701 1 120.0200517 532.790560
17692 17693 17694 1 121.3800518 83.010560
17692 17693 17695 1 120.0200517 532.790560
17694 17693 17695 1 121.3800518 83.010560
2100 17694 5001 1 109.50000 418.400000
2100 17694 17693 1 103.70004 836.800000
2100 17694 17703 1 109.50000 418.400000
5001 17694 17693 1 103.70004 836.800000
5001 17694 17703 1 109.50000 418.400000
17693 17694 17703 1 103.70004 1034.033760
17693 17695 17696 1 119.8800511 375.723200
17693 17695 17697 1 120.0200517 532.790560
17696 17695 17697 1 119.8800511 375.723200
17695 17697 17698 1 119.8800511 375.723200
17695 17697 17699 1 120.0200517 532.790560
17698 17697 17699 1 119.8800511 375.723200
17697 17699 17700 1 119.8800511 375.723200
17697 17699 17701 1 120.0200517 532.790560
17700 17699 17701 1 119.8800511 375.723200
17692 17701 17699 1 120.0200517 532.790560
17692 17701 17702 1 119.8800511 375.723200
17699 17701 17702 1 119.8800511 375.723200
17694 17703 17704 1 115.00000 209.200000
17705 17706 17707 1 119.8800511 375.723200
17705 17706 17715 1 119.8800511 375.723200
17707 17706 17715 1 120.0200517 532.790560
17706 17707 17708 1 121.3800518 83.010560
17706 17707 17709 1 120.0200517 532.790560
17708 17707 17709 1 121.3800518 83.010560
1969 17708 3039 1 109.50000 418.400000
1969 17708 17707 1 103.70004 836.800000
1969 17708 17717 1 109.50000 418.400000
3039 17708 17707 1 103.70004 836.800000
3039 17708 17717 1 109.50000 418.400000
17707 17708 17717 1 103.70004 1034.033760
17707 17709 17710 1 119.8800511 375.723200
17707 17709 17711 1 120.0200517 532.790560
17710 17709 17711 1 119.8800511 375.723200
17709 17711 17712 1 119.8800511 375.723200
17709 17711 17713 1 120.0200517 532.790560
17712 17711 17713 1 119.8800511 375.723200
17711 17713 17714 1 119.8800511 375.723200
17711 17713 17715 1 120.0200517 532.790560
17714 17713 17715 1 119.8800511 375.723200
17706 17715 17713 1 120.0200517 532.790560
17706 17715 17716 1 119.8800511 375.723200
17713 17715 17716 1 119.8800511 375.723200
17708 17717 17718 1 115.00000 209.200000
17719 17720 17721 1 119.8800511 375.723200
17719 17720 17729 1 119.8800511 375.723200
17721 17720 17729 1 120.0200517 532.790560
17720 17721 17722 1 121.3800518 83.010560
17720 17721 17723 1 120.0200517 532.790560
17722 17721 17723 1 121.3800518 83.010560
6417 17722 10082 1 109.50000 418.400000
6417 17722 17721 1 103.70004 836.800000
6417 17722 17731 1 109.50000 418.400000
10082 17722 17721 1 103.70004 836.800000
10082 17722 17731 1 109.50000 418.400000
17721 17722 17731 1 103.70004 1034.033760
17721 17723 17724 1 119.8800511 375.723200
17721 17723 17725 1 120.0200517 532.790560
17724 17723 17725 1 119.8800511 375.723200
17723 17725 17726 1 119.8800511 375.723200
17723 17725 17727 1 120.0200517 532.790560
17726 17725 17727 1 119.8800511 375.723200
17725 17727 17728 1 119.8800511 375.723200
17725 17727 17729 1 120.0200517 532.790560
17728 17727 17729 1 119.8800511 375.723200
17720 17729 17727 1 120.0200517 532.790560
17720 17729 17730 1 119.8800511 375.723200
17727 17729 17730 1 119.8800511 375.723200
17722 17731 17732 1 115.00000 209.200000
17733 17734 17735 1 119.8800511 375.723200
17733 17734 17743 1 119.8800511 375.723200
17735 17734 17743 1 120.0200517 532.790560
17734 17735 17736 1 121.3800518 83.010560
17734 17735 17737 1 120.0200517 532.790560
17736 17735 17737 1 121.3800518 83.010560
9189 17736 10440 1 109.50000 418.400000
9189 17736 17735 1 103.70004 836.800000
9189 17736 17745 1 109.50000 418.400000
10440 17736 17735 1 103.70004 836.800000
10440 17736 17745 1 109.50000 418.400000
17735 17736 17745 1 103.70004 1034.033760
17735 17737 17738 1 119.8800511 375.723200
17735 17737 17739 1 120.0200517 532.790560
17738 17737 17739 1 119.8800511 375.723200
17737 17739 17740 1 119.8800511 375.723200
17737 17739 17741 1 120.0200517 532.790560
17740 17739 17741 1 119.8800511 375.723200
17739 17741 17742 1 119.8800511 375.723200
17739 17741 17743 1 120.0200517 532.790560
17742 17741 17743 1 119.8800511 375.723200
17734 17743 17741 1 120.0200517 532.790560
17734 17743 17744 1 119.8800511 375.723200
17741 17743 17744 1 119.8800511 375.723200
17736 17745 17746 1 115.00000 209.200000
17747 17748 17749 1 119.8800511 375.723200
17747 17748 17757 1 119.8800511 375.723200
17749 17748 17757 1 120.0200517 532.790560
17748 17749 17750 1 121.3800518 83.010560
17748 17749 17751 1 120.0200517 532.790560
17750 17749 17751 1 121.3800518 83.010560
1327 17750 10140 1 109.50000 418.400000
1327 17750 17749 1 103.70004 836.800000
1327 17750 17759 1 109.50000 418.400000
10140 17750 17749 1 103.70004 836.800000
10140 17750 17759 1 109.50000 418.400000
17749 17750 17759 1 103.70004 1034.033760
17749 17751 17752 1 119.8800511 375.723200
17749 17751 17753 1 120.0200517 532.790560
17752 17751 17753 1 119.8800511 375.723200
17751 17753 17754 1 119.8800511 375.723200
17751 17753 17755 1 120.0200517 532.790560
17754 17753 17755 1 119.8800511 375.723200
17753 17755 17756 1 119.8800511 375.723200
17753 17755 17757 1 120.0200517 532.790560
17756 17755 17757 1 119.8800511 375.723200
17748 17757 17755 1 120.0200517 532.790560
17748 17757 17758 1 119.8800511 375.723200
17755 17757 17758 1 119.8800511 375.723200
17750 17759 17760 1 115.00000 209.200000
17761 17762 17763 1 119.8800511 375.723200
17761 17762 17771 1 119.8800511 375.723200
17763 17762 17771 1 120.0200517 532.790560
17762 17763 17764 1 121.3800518 83.010560
17762 17763 17765 1 120.0200517 532.790560
17764 17763 17765 1 121.3800518 83.010560
1259 17764 10795 1 109.50000 418.400000
1259 17764 17763 1 103.70004 836.800000
1259 17764 17773 1 109.50000 418.400000
10795 17764 17763 1 103.70004 836.800000
10795 17764 17773 1 109.50000 418.400000
17763 17764 17773 1 103.70004 1034.033760
17763 17765 17766 1 119.8800511 375.723200
17763 17765 17767 1 120.0200517 532.790560
17766 17765 17767 1 119.8800511 375.723200
17765 17767 17768 1 119.8800511 375.723200
17765 17767 17769 1 120.0200517 532.790560
17768 17767 17769 1 119.8800511 375.723200
17767 17769 17770 1 119.8800511 375.723200
17767 17769 17771 1 120.0200517 532.790560
17770 17769 17771 1 119.8800511 375.723200
17762 17771 17769 1 120.0200517 532.790560
17762 17771 17772 1 119.8800511 375.723200
17769 17771 17772 1 119.8800511 375.723200
17764 17773 17774 1 115.00000 209.200000
17775 17776 17777 1 119.8800511 375.723200
17775 17776 17785 1 119.8800511 375.723200
17777 17776 17785 1 120.0200517 532.790560
17776 17777 17778 1 121.3800518 83.010560
17776 17777 17779 1 120.0200517 532.790560
17778 17777 17779 1 121.3800518 83.010560
6835 17778 8634 1 109.50000 418.400000
6835 17778 17777 1 103.70004 836.800000
6835 17778 17787 1 109.50000 418.400000
8634 17778 17777 1 103.70004 836.800000
8634 17778 17787 1 109.50000 418.400000
17777 17778 17787 1 103.70004 1034.033760
17777 17779 17780 1 119.8800511 375.723200
17777 17779 17781 1 120.0200517 532.790560
17780 17779 17781 1 119.8800511 375.723200
17779 17781 17782 1 119.8800511 375.723200
17779 17781 17783 1 120.0200517 532.790560
17782 17781 17783 1 119.8800511 375.723200
17781 17783 17784 1 119.8800511 375.723200
17781 17783 17785 1 120.0200517 532.790560
17784 17783 17785 1 119.8800511 375.723200
17776 17785 17783 1 120.0200517 532.790560
17776 17785 17786 1 119.8800511 375.723200
17783 17785 17786 1 119.8800511 375.723200
17778 17787 17788 1 115.00000 209.200000
17789 17790 17791 1 119.8800511 375.723200
17789 17790 17799 1 119.8800511 375.723200
17791 17790 17799 1 120.0200517 532.790560
17790 17791 17792 1 121.3800518 83.010560
17790 17791 17793 1 120.0200517 532.790560
17792 17791 17793 1 121.3800518 83.010560
8234 17792 9048 1 109.50000 418.400000
8234 17792 17791 1 103.70004 836.800000
8234 17792 17801 1 109.50000 418.400000
9048 17792 17791 1 103.70004 836.800000
9048 17792 17801 1 109.50000 418.400000
17791 17792 17801 1 103.70004 1034.033760
17791 17793 17794 1 119.8800511 375.723200
17791 17793 17795 1 120.0200517 532.790560
17794 17793 17795 1 119.8800511 375.723200
17793 17795 17796 1 119.8800511 375.723200
17793 17795 17797 1 120.0200517 532.790560
17796 17795 17797 1 119.8800511 375.723200
17795 17797 17798 1 119.8800511 375.723200
17795 17797 17799 1 120.0200517 532.790560
17798 17797 17799 1 119.8800511 375.723200
17790 17799 17797 1 120.0200517 532.790560
17790 17799 17800 1 119.8800511 375.723200
17797 17799 17800 1 119.8800511 375.723200
17792 17801 17802 1 115.00000 209.200000
17803 17804 17805 1 119.8800511 375.723200
17803 17804 17813 1 119.8800511 375.723200
17805 17804 17813 1 120.0200517 532.790560
17804 17805 17806 1 121.3800518 83.010560
17804 17805 17807 1 120.0200517 532.790560
17806 17805 17807 1 121.3800518 83.010560
441 17806 7427 1 109.50000 418.400000
441 17806 17805 1 103.70004 836.800000
441 17806 17815 1 109.50000 418.400000
7427 17806 17805 1 103.70004 836.800000
7427 17806 17815 1 109.50000 418.400000
17805 17806 17815 1 103.70004 1034.033760
17805 17807 17808 1 119.8800511 375.723200
17805 17807 17809 1 120.0200517 532.790560
17808 17807 17809 1 119.8800511 375.723200
17807 17809 17810 1 119.8800511 375.723200
17807 17809 17811 1 120.0200517 532.790560
17810 17809 17811 1 119.8800511 375.723200
17809 17811 17812 1 119.8800511 375.723200
17809 17811 17813 1 120.0200517 532.790560
17812 17811 17813 1 119.8800511 375.723200
17804 17813 17811 1 120.0200517 532.790560
17804 17813 17814 1 119.8800511 375.723200
17811 17813 17814 1 119.8800511 375.723200
17806 17815 17816 1 115.00000 209.200000
17817 17818 17819 1 119.8800511 375.723200
17817 17818 17827 1 119.8800511 375.723200
17819 17818 17827 1 120.0200517 532.790560
17818 17819 17820 1 121.3800518 83.010560
17818 17819 17821 1 120.0200517 532.790560
17820 17819 17821 1 121.3800518 83.010560
8497 17820 9348 1 109.50000 418.400000
8497 17820 17819 1 103.70004 836.800000
8497 17820 17829 1 109.50000 418.400000
9348 17820 17819 1 103.70004 836.800000
9348 17820 17829 1 109.50000 418.400000
17819 17820 17829 1 103.70004 1034.033760
17819 17821 17822 1 119.8800511 375.723200
17819 17821 17823 1 120.0200517 532.790560
17822 17821 17823 1 119.8800511 375.723200
17821 17823 17824 1 119.8800511 375.723200
17821 17823 17825 1 120.0200517 532.790560
17824 17823 17825 1 119.8800511 375.723200
17823 17825 17826 1 119.8800511 375.723200
17823 17825 17827 1 120.0200517 532.790560
17826 17825 17827 1 119.8800511 375.723200
17818 17827 17825 1 120.0200517 532.790560
17818 17827 17828 1 119.8800511 375.723200
17825 17827 17828 1 119.8800511 375.723200
17820 17829 17830 1 115.00000 209.200000
17831 17832 17833 1 119.8800511 375.723200
17831 17832 17841 1 119.8800511 375.723200
17833 17832 17841 1 120.0200517 532.790560
17832 17833 17834 1 121.3800518 83.010560
17832 17833 17835 1 120.0200517 532.790560
17834 17833 17835 1 121.3800518 83.010560
4150 17834 8405 1 109.50000 418.400000
4150 17834 17833 1 103.70004 836.800000
4150 17834 17843 1 109.50000 418.400000
8405 17834 17833 1 103.70004 836.800000
8405 17834 17843 1 109.50000 418.400000
17833 17834 17843 1 103.70004 1034.033760
17833 17835 17836 1 119.8800511 375.723200
17833 17835 17837 1 120.0200517 532.790560
17836 17835 17837 1 119.8800511 375.723200
17835 17837 17838 1 119.8800511 375.723200
17835 17837 17839 1 120.0200517 532.790560
17838 17837 17839 1 119.8800511 375.723200
17837 17839 17840 1 119.8800511 375.723200
17837 17839 17841 1 120.0200517 532.790560
17840 17839 17841 1 119.8800511 375.723200
17832 17841 17839 1 120.0200517 532.790560
17832 17841 17842 1 119.8800511 375.723200
17839 17841 17842 1 119.8800511 375.723200
17834 17843 17844 1 115.00000 209.200000
17845 17846 17847 1 119.8800511 375.723200
17845 17846 17855 1 119.8800511 375.723200
17847 17846 17855 1 120.0200517 532.790560
17846 17847 17848 1 121.3800518 83.010560
17846 17847 17849 1 120.0200517 532.790560
17848 17847 17849 1 121.3800518 83.010560
3993 17848 8879 1 109.50000 418.400000
3993 17848 17847 1 103.70004 836.800000
3993 17848 17857 1 109.50000 418.400000
8879 17848 17847 1 103.70004 836.800000
8879 17848 17857 1 109.50000 418.400000
17847 17848 17857 1 103.70004 1034.033760
17847 17849 17850 1 119.8800511 375.723200
17847 17849 17851 1 120.0200517 532.790560
17850 17849 17851 1 119.8800511 375.723200
17849 17851 17852 1 119.8800511 375.723200
17849 17851 17853 1 120.0200517 532.790560
17852 17851 17853 1 119.8800511 375.723200
17851 17853 17854 1 119.8800511 375.723200
17851 17853 17855 1 120.0200517 532.790560
17854 17853 17855 1 119.8800511 375.723200
17846 17855 17853 1 120.0200517 532.790560
17846 17855 17856 1 119.8800511 375.723200
17853 17855 17856 1 119.8800511 375.723200
17848 17857 17858 1 115.00000 209.200000
17859 17860 17861 1 119.8800511 375.723200
17859 17860 17869 1 119.8800511 375.723200
17861 17860 17869 1 120.0200517 532.790560
17860 17861 17862 1 121.3800518 83.010560
17860 17861 17863 1 120.0200517 532.790560
17862 17861 17863 1 121.3800518 83.010560
10868 17862 10869 1 109.50000 418.400000
10868 17862 17861 1 103.70004 836.800000
10868 17862 17871 1 109.50000 418.400000
10869 17862 17861 1 103.70004 836.800000
10869 17862 17871 1 109.50000 418.400000
17861 17862 17871 1 103.70004 1034.033760
17861 17863 17864 1 119.8800511 375.723200
17861 17863 17865 1 120.0200517 532.790560
17864 17863 17865 1 119.8800511 375.723200
17863 17865 17866 1 119.8800511 375.723200
17863 17865 17867 1 120.0200517 532.790560
17866 17865 17867 1 119.8800511 375.723200
17865 17867 17868 1 119.8800511 375.723200
17865 17867 17869 1 120.0200517 532.790560
17868 17867 17869 1 119.8800511 375.723200
17860 17869 17867 1 120.0200517 532.790560
17860 17869 17870 1 119.8800511 375.723200
17867 17869 17870 1 119.8800511 375.723200
17862 17871 17872 1 115.00000 209.200000
17873 17874 17875 1 119.8800511 375.723200
17873 17874 17883 1 119.8800511 375.723200
17875 17874 17883 1 120.0200517 532.790560
17874 17875 17876 1 121.3800518 83.010560
17874 17875 17877 1 120.0200517 532.790560
17876 17875 17877 1 121.3800518 83.010560
10433 17876 10815 1 109.50000 418.400000
10433 17876 17875 1 103.70004 836.800000
10433 17876 17885 1 109.50000 418.400000
10815 17876 17875 1 103.70004 836.800000
10815 17876 17885 1 109.50000 418.400000
17875 17876 17885 1 103.70004 1034.033760
17875 17877 17878 1 119.8800511 375.723200
17875 17877 17879 1 120.0200517 532.790560
17878 17877 17879 1 119.8800511 375.723200
17877 17879 17880 1 119.8800511 375.723200
17877 17879 17881 1 120.0200517 532.790560
17880 17879 17881 1 119.8800511 375.723200
17879 17881 17882 1 119.8800511 375.723200
17879 17881 17883 1 120.0200517 532.790560
17882 17881 17883 1 119.8800511 375.723200
17874 17883 17881 1 120.0200517 532.790560
17874 17883 17884 1 119.8800511 375.723200
17881 17883 17884 1 119.8800511 375.723200
17876 17885 17886 1 115.00000 209.200000
17887 17888 17889 1 119.8800511 375.723200
17887 17888 17897 1 119.8800511 375.723200
17889 17888 17897 1 120.0200517 532.790560
17888 17889 17890 1 121.3800518 83.010560
17888 17889 17891 1 120.0200517 532.790560
17890 17889 17891 1 121.3800518 83.010560
6303 17890 9852 1 109.50000 418.400000
6303 17890 17889 1 103.70004 836.800000
6303 17890 17899 1 109.50000 418.400000
9852 17890 17889 1 103.70004 836.800000
9852 17890 17899 1 109.50000 418.400000
17889 17890 17899 1 103.70004 1034.033760
17889 17891 17892 1 119.8800511 375.723200
17889 17891 17893 1 120.0200517 532.790560
17892 17891 17893 1 119.8800511 375.723200
17891 17893 17894 1 119.8800511 375.723200
17891 17893 17895 1 120.0200517 532.790560
17894 17893 17895 1 119.8800511 375.723200
17893 17895 17896 1 119.8800511 375.723200
17893 17895 17897 1 120.0200517 532.790560
17896 17895 17897 1 119.8800511 375.723200
17888 17897 17895 1 120.0200517 532.790560
17888 17897 17898 1 119.8800511 375.723200
17895 17897 17898 1 119.8800511 375.723200
17890 17899 17900 1 115.00000 209.200000
17901 17902 17903 1 119.8800511 375.723200
17901 17902 17911 1 119.8800511 375.723200
17903 17902 17911 1 120.0200517 532.790560
17902 17903 17904 1 121.3800518 83.010560
17902 17903 17905 1 120.0200517 532.790560
17904 17903 17905 1 121.3800518 83.010560
7113 17904 9899 1 109.50000 418.400000
7113 17904 17903 1 103.70004 836.800000
7113 17904 17913 1 109.50000 418.400000
9899 17904 17903 1 103.70004 836.800000
9899 17904 17913 1 109.50000 418.400000
17903 17904 17913 1 103.70004 1034.033760
17903 17905 17906 1 119.8800511 375.723200
17903 17905 17907 1 120.0200517 532.790560
17906 17905 17907 1 119.8800511 375.723200
17905 17907 17908 1 119.8800511 375.723200
17905 17907 17909 1 120.0200517 532.790560
17908 17907 17909 1 119.8800511 375.723200
17907 17909 17910 1 119.8800511 375.723200
17907 17909 17911 1 120.0200517 532.790560
17910 17909 17911 1 119.8800511 375.723200
17902 17911 17909 1 120.0200517 532.790560
17902 17911 17912 1 119.8800511 375.723200
17909 17911 17912 1 119.8800511 375.723200
17904 17913 17914 1 115.00000 209.200000
17915 17916 17917 1 119.8800511 375.723200
17915 17916 17925 1 119.8800511 375.723200
17917 17916 17925 1 120.0200517 532.790560
17916 17917 17918 1 121.3800518 83.010560
17916 17917 17919 1 120.0200517 532.790560
17918 17917 17919 1 121.3800518 83.010560
3041 17918 6187 1 109.50000 418.400000
3041 17918 17917 1 103.70004 836.800000
3041 17918 17927 1 109.50000 418.400000
6187 17918 17917 1 103.70004 836.800000
6187 17918 17927 1 109.50000 418.400000
17917 17918 17927 1 103.70004 1034.033760
17917 17919 17920 1 119.8800511 375.723200
17917 17919 17921 1 120.0200517 532.790560
17920 17919 17921 1 119.8800511 375.723200
17919 17921 17922 1 119.8800511 375.723200
17919 17921 17923 1 120.0200517 532.790560
17922 17921 17923 1 119.8800511 375.723200
17921 17923 17924 1 119.8800511 375.723200
17921 17923 17925 1 120.0200517 532.790560
17924 17923 17925 1 119.8800511 375.723200
17916 17925 17923 1 120.0200517 532.790560
17916 17925 17926 1 119.8800511 375.723200
17923 17925 17926 1 119.8800511 375.723200
17918 17927 17928 1 115.00000 209.200000
17929 17930 17931 1 119.8800511 375.723200
17929 17930 17939 1 119.8800511 375.723200
17931 17930 17939 1 120.0200517 532.790560
17930 17931 17932 1 121.3800518 83.010560
17930 17931 17933 1 120.0200517 532.790560
17932 17931 17933 1 121.3800518 83.010560
6939 17932 9172 1 109.50000 418.400000
6939 17932 17931 1 103.70004 836.800000
6939 17932 17941 1 109.50000 418.400000
9172 17932 17931 1 103.70004 836.800000
9172 17932 17941 1 109.50000 418.400000
17931 17932 17941 1 103.70004 1034.033760
17931 17933 17934 1 119.8800511 375.723200
17931 17933 17935 1 120.0200517 532.790560
17934 17933 17935 1 119.8800511 375.723200
17933 17935 17936 1 119.8800511 375.723200
17933 17935 17937 1 120.0200517 532.790560
17936 17935 17937 1 119.8800511 375.723200
17935 17937 17938 1 119.8800511 375.723200
17935 17937 17939 1 120.0200517 532.790560
17938 17937 17939 1 119.8800511 375.723200
17930 17939 17937 1 120.0200517 532.790560
17930 17939 17940 1 119.8800511 375.723200
17937 17939 17940 1 119.8800511 375.723200
17932 17941 17942 1 115.00000 209.200000
17943 17944 17945 1 119.8800511 375.723200
17943 17944 17953 1 119.8800511 375.723200
17945 17944 17953 1 120.0200517 532.790560
17944 17945 17946 1 121.3800518 83.010560
17944 17945 17947 1 120.0200517 532.790560
17946 17945 17947 1 121.3800518 83.010560
1684 17946 5566 1 109.50000 418.400000
1684 17946 17945 1 103.70004 836.800000
1684 17946 17955 1 109.50000 418.400000
5566 17946 17945 1 103.70004 836.800000
5566 17946 17955 1 109.50000 418.400000
17945 17946 17955 1 103.70004 1034.033760
17945 17947 17948 1 119.8800511 375.723200
17945 17947 17949 1 120.0200517 532.790560
17948 17947 17949 1 119.8800511 375.723200
17947 17949 17950 1 119.8800511 375.723200
17947 17949 17951 1 120.0200517 532.790560
17950 17949 17951 1 119.8800511 375.723200
17949 17951 17952 1 119.8800511 375.723200
17949 17951 17953 1 120.0200517 532.790560
17952 17951 17953 1 119.8800511 375.723200
17944 17953 17951 1 120.0200517 532.790560
17944 17953 17954 1 119.8800511 375.723200
17951 17953 17954 1 119.8800511 375.723200
17946 17955 17956 1 115.00000 209.200000
17957 17958 17959 1 119.8800511 375.723200
17957 17958 17967 1 119.8800511 375.723200
17959 17958 17967 1 120.0200517 532.790560
17958 17959 17960 1 121.3800518 83.010560
17958 17959 17961 1 120.0200517 532.790560
17960 17959 17961 1 121.3800518 83.010560
2009 17960 10063 1 109.50000 418.400000
2009 17960 17959 1 103.70004 836.800000
2009 17960 17969 1 109.50000 418.400000
10063 17960 17959 1 103.70004 836.800000
10063 17960 17969 1 109.50000 418.400000
17959 17960 17969 1 103.70004 1034.033760
17959 17961 17962 1 119.8800511 375.723200
17959 17961 17963 1 120.0200517 532.790560
17962 17961 17963 1 119.8800511 375.723200
17961 17963 17964 1 119.8800511 375.723200
17961 17963 17965 1 120.0200517 532.790560
17964 17963 17965 1 119.8800511 375.723200
17963 17965 17966 1 119.8800511 375.723200
17963 17965 17967 1 120.0200517 532.790560
17966 17965 17967 1 119.8800511 375.723200
17958 17967 17965 1 120.0200517 532.790560
17958 17967 17968 1 119.8800511 375.723200
17965 17967 17968 1 119.8800511 375.723200
17960 17969 17970 1 115.00000 209.200000
17971 17972 17973 1 119.8800511 375.723200
17971 17972 17981 1 119.8800511 375.723200
17973 17972 17981 1 120.0200517 532.790560
17972 17973 17974 1 121.3800518 83.010560
17972 17973 17975 1 120.0200517 532.790560
17974 17973 17975 1 121.3800518 83.010560
3347 17974 10567 1 109.50000 418.400000
3347 17974 17973 1 103.70004 836.800000
3347 17974 17983 1 109.50000 418.400000
10567 17974 17973 1 103.70004 836.800000
10567 17974 17983 1 109.50000 418.400000
17973 17974 17983 1 103.70004 1034.033760
17973 17975 17976 1 119.8800511 375.723200
17973 17975 17977 1 120.0200517 532.790560
17976 17975 17977 1 119.8800511 375.723200
17975 17977 17978 1 119.8800511 375.723200
17975 17977 17979 1 120.0200517 532.790560
17978 17977 17979 1 119.8800511 375.723200
17977 17979 17980 1 119.8800511 375.723200
17977 17979 17981 1 120.0200517 532.790560
17980 17979 17981 1 119.8800511 375.723200
17972 17981 17979 1 120.0200517 532.790560
17972 17981 17982 1 119.8800511 375.723200
17979 17981 17982 1 119.8800511 375.723200
17974 17983 17984 1 115.00000 209.200000
17985 17986 17987 1 119.8800511 375.723200
17985 17986 17995 1 119.8800511 375.723200
17987 17986 17995 1 120.0200517 532.790560
17986 17987 17988 1 121.3800518 83.010560
17986 17987 17989 1 120.0200517 532.790560
17988 17987 17989 1 121.3800518 83.010560
8412 17988 10940 1 109.50000 418.400000
8412 17988 17987 1 103.70004 836.800000
8412 17988 17997 1 109.50000 418.400000
10940 17988 17987 1 103.70004 836.800000
10940 17988 17997 1 109.50000 418.400000
17987 17988 17997 1 103.70004 1034.033760
17987 17989 17990 1 119.8800511 375.723200
17987 17989 17991 1 120.0200517 532.790560
17990 17989 17991 1 119.8800511 375.723200
17989 17991 17992 1 119.8800511 375.723200
17989 17991 17993 1 120.0200517 532.790560
17992 17991 17993 1 119.8800511 375.723200
17991 17993 17994 1 119.8800511 375.723200
17991 17993 17995 1 120.0200517 532.790560
17994 17993 17995 1 119.8800511 375.723200
17986 17995 17993 1 120.0200517 532.790560
17986 17995 17996 1 119.8800511 375.723200
17993 17995 17996 1 119.8800511 375.723200
17988 17997 17998 1 115.00000 209.200000
17999 18000 18001 1 119.8800511 375.723200
17999 18000 18009 1 119.8800511 375.723200
18001 18000 18009 1 120.0200517 532.790560
18000 18001 18002 1 121.3800518 83.010560
18000 18001 18003 1 120.0200517 532.790560
18002 18001 18003 1 121.3800518 83.010560
10829 18002 10957 1 109.50000 418.400000
10829 18002 18001 1 103.70004 836.800000
10829 18002 18011 1 109.50000 418.400000
10957 18002 18001 1 103.70004 836.800000
10957 18002 18011 1 109.50000 418.400000
18001 18002 18011 1 103.70004 1034.033760
18001 18003 18004 1 119.8800511 375.723200
18001 18003 18005 1 120.0200517 532.790560
18004 18003 18005 1 119.8800511 375.723200
18003 18005 18006 1 119.8800511 375.723200
18003 18005 18007 1 120.0200517 532.790560
18006 18005 18007 1 119.8800511 375.723200
18005 18007 18008 1 119.8800511 375.723200
18005 18007 18009 1 120.0200517 532.790560
18008 18007 18009 1 119.8800511 375.723200
18000 18009 18007 1 120.0200517 532.790560
18000 18009 18010 1 119.8800511 375.723200
18007 18009 18010 1 119.8800511 375.723200
18002 18011 18012 1 115.00000 209.200000
18013 18014 18015 1 119.8800511 375.723200
18013 18014 18023 1 119.8800511 375.723200
18015 18014 18023 1 120.0200517 532.790560
18014 18015 18016 1 121.3800518 83.010560
18014 18015 18017 1 120.0200517 532.790560
18016 18015 18017 1 121.3800518 83.010560
985 18016 10949 1 109.50000 418.400000
985 18016 18015 1 103.70004 836.800000
985 18016 18025 1 109.50000 418.400000
10949 18016 18015 1 103.70004 836.800000
10949 18016 18025 1 109.50000 418.400000
18015 18016 18025 1 103.70004 1034.033760
18015 18017 18018 1 119.8800511 375.723200
18015 18017 18019 1 120.0200517 532.790560
18018 18017 18019 1 119.8800511 375.723200
18017 18019 18020 1 119.8800511 375.723200
18017 18019 18021 1 120.0200517 532.790560
18020 18019 18021 1 119.8800511 375.723200
18019 18021 18022 1 119.8800511 375.723200
18019 18021 18023 1 120.0200517 532.790560
18022 18021 18023 1 119.8800511 375.723200
18014 18023 18021 1 120.0200517 532.790560
18014 18023 18024 1 119.8800511 375.723200
18021 18023 18024 1 119.8800511 375.723200
18016 18025 18026 1 115.00000 209.200000
18027 18028 18029 1 119.8800511 375.723200
18027 18028 18037 1 119.8800511 375.723200
18029 18028 18037 1 120.0200517 532.790560
18028 18029 18030 1 121.3800518 83.010560
18028 18029 18031 1 120.0200517 532.790560
18030 18029 18031 1 121.3800518 83.010560
3537 18030 9859 1 109.50000 418.400000
3537 18030 18029 1 103.70004 836.800000
3537 18030 18039 1 109.50000 418.400000
9859 18030 18029 1 103.70004 836.800000
9859 18030 18039 1 109.50000 418.400000
18029 18030 18039 1 103.70004 1034.033760
18029 18031 18032 1 119.8800511 375.723200
18029 18031 18033 1 120.0200517 532.790560
18032 18031 18033 1 119.8800511 375.723200
18031 18033 18034 1 119.8800511 375.723200
18031 18033 18035 1 120.0200517 532.790560
18034 18033 18035 1 119.8800511 375.723200
18033 18035 18036 1 119.8800511 375.723200
18033 18035 18037 1 120.0200517 532.790560
18036 18035 18037 1 119.8800511 375.723200
18028 18037 18035 1 120.0200517 532.790560
18028 18037 18038 1 119.8800511 375.723200
18035 18037 18038 1 119.8800511 375.723200
18030 18039 18040 1 115.00000 209.200000
18041 18042 18043 1 119.8800511 375.723200
18041 18042 18051 1 119.8800511 375.723200
18043 18042 18051 1 120.0200517 532.790560
18042 18043 18044 1 121.3800518 83.010560
18042 18043 18045 1 120.0200517 532.790560
18044 18043 18045 1 121.3800518 83.010560
2026 18044 5542 1 109.50000 418.400000
2026 18044 18043 1 103.70004 836.800000
2026 18044 18053 1 109.50000 418.400000
5542 18044 18043 1 103.70004 836.800000
5542 18044 18053 1 109.50000 418.400000
18043 18044 18053 1 103.70004 1034.033760
18043 18045 18046 1 119.8800511 375.723200
18043 18045 18047 1 120.0200517 532.790560
18046 18045 18047 1 119.8800511 375.723200
18045 18047 18048 1 119.8800511 375.723200
18045 18047 18049 1 120.0200517 532.790560
18048 18047 18049 1 119.8800511 375.723200
18047 18049 18050 1 119.8800511 375.723200
18047 18049 18051 1 120.0200517 532.790560
18050 18049 18051 1 119.8800511 375.723200
18042 18051 18049 1 120.0200517 532.790560
18042 18051 18052 1 119.8800511 375.723200
18049 18051 18052 1 119.8800511 375.723200
18044 18053 18054 1 115.00000 209.200000
18055 18056 18057 1 119.8800511 375.723200
18055 18056 18065 1 119.8800511 375.723200
18057 18056 18065 1 120.0200517 532.790560
18056 18057 18058 1 121.3800518 83.010560
18056 18057 18059 1 120.0200517 532.790560
18058 18057 18059 1 121.3800518 83.010560
178 18058 179 1 109.50000 418.400000
178 18058 11140 1 109.50000 418.400000
178 18058 18057 1 103.70004 836.800000
179 18058 11140 1 109.50000 418.400000
179 18058 18057 1 103.70004 836.800000
11140 18058 18057 1 103.70004 836.800000
18057 18059 18060 1 119.8800511 375.723200
18057 18059 18061 1 120.0200517 532.790560
18060 18059 18061 1 119.8800511 375.723200
18059 18061 18062 1 119.8800511 375.723200
18059 18061 18063 1 120.0200517 532.790560
18062 18061 18063 1 119.8800511 375.723200
18061 18063 18064 1 119.8800511 375.723200
18061 18063 18065 1 120.0200517 532.790560
18064 18063 18065 1 119.8800511 375.723200
18056 18065 18063 1 120.0200517 532.790560
18056 18065 18066 1 119.8800511 375.723200
18063 18065 18066 1 119.8800511 375.723200
18067 18068 18069 1 119.8800511 375.723200
18067 18068 18077 1 119.8800511 375.723200
18069 18068 18077 1 120.0200517 532.790560
18068 18069 18070 1 121.3800518 83.010560
18068 18069 18071 1 120.0200517 532.790560
18070 18069 18071 1 121.3800518 83.010560
837 18070 838 1 109.50000 418.400000
837 18070 839 1 109.50000 418.400000
837 18070 18069 1 103.70004 836.800000
838 18070 839 1 109.50000 418.400000
838 18070 18069 1 103.70004 836.800000
839 18070 18069 1 103.70004 836.800000
18069 18071 18072 1 119.8800511 375.723200
18069 18071 18073 1 120.0200517 532.790560
18072 18071 18073 1 119.8800511 375.723200
18071 18073 18074 1 119.8800511 375.723200
18071 18073 18075 1 120.0200517 532.790560
18074 18073 18075 1 119.8800511 375.723200
18073 18075 18076 1 119.8800511 375.723200
18073 18075 18077 1 120.0200517 532.790560
18076 18075 18077 1 119.8800511 375.723200
18068 18077 18075 1 120.0200517 532.790560
18068 18077 18078 1 119.8800511 375.723200
18075 18077 18078 1 119.8800511 375.723200
18079 18080 18081 1 119.8800511 375.723200
18079 18080 18089 1 119.8800511 375.723200
18081 18080 18089 1 120.0200517 532.790560
18080 18081 18082 1 121.3800518 83.010560
18080 18081 18083 1 120.0200517 532.790560
18082 18081 18083 1 121.3800518 83.010560
964 18082 965 1 109.50000 418.400000
964 18082 11153 1 109.50000 418.400000
964 18082 18081 1 103.70004 836.800000
965 18082 11153 1 109.50000 418.400000
965 18082 18081 1 103.70004 836.800000
11153 18082 18081 1 103.70004 836.800000
18081 18083 18084 1 119.8800511 375.723200
18081 18083 18085 1 120.0200517 532.790560
18084 18083 18085 1 119.8800511 375.723200
18083 18085 18086 1 119.8800511 375.723200
18083 18085 18087 1 120.0200517 532.790560
18086 18085 18087 1 119.8800511 375.723200
18085 18087 18088 1 119.8800511 375.723200
18085 18087 18089 1 120.0200517 532.790560
18088 18087 18089 1 119.8800511 375.723200
18080 18089 18087 1 120.0200517 532.790560
18080 18089 18090 1 119.8800511 375.723200
18087 18089 18090 1 119.8800511 375.723200
18091 18092 18093 1 119.8800511 375.723200
18091 18092 18101 1 119.8800511 375.723200
18093 18092 18101 1 120.0200517 532.790560
18092 18093 18094 1 121.3800518 83.010560
18092 18093 18095 1 120.0200517 532.790560
18094 18093 18095 1 121.3800518 83.010560
1623 18094 1624 1 109.50000 418.400000
1623 18094 1625 1 109.50000 418.400000
1623 18094 18093 1 103.70004 836.800000
1624 18094 1625 1 109.50000 418.400000
1624 18094 18093 1 103.70004 836.800000
1625 18094 18093 1 103.70004 836.800000
18093 18095 18096 1 119.8800511 375.723200
18093 18095 18097 1 120.0200517 532.790560
18096 18095 18097 1 119.8800511 375.723200
18095 18097 18098 1 119.8800511 375.723200
18095 18097 18099 1 120.0200517 532.790560
18098 18097 18099 1 119.8800511 375.723200
18097 18099 18100 1 119.8800511 375.723200
18097 18099 18101 1 120.0200517 532.790560
18100 18099 18101 1 119.8800511 375.723200
18092 18101 18099 1 120.0200517 532.790560
18092 18101 18102 1 119.8800511 375.723200
18099 18101 18102 1 119.8800511 375.723200
18103 18104 18105 1 119.8800511 375.723200
18103 18104 18113 1 119.8800511 375.723200
18105 18104 18113 1 120.0200517 532.790560
18104 18105 18106 1 121.3800518 83.010560
18104 18105 18107 1 120.0200517 532.790560
18106 18105 18107 1 121.3800518 83.010560
1644 18106 1645 1 109.50000 418.400000
1644 18106 1646 1 109.50000 418.400000
1644 18106 18105 1 103.70004 836.800000
1645 18106 1646 1 109.50000 418.400000
1645 18106 18105 1 103.70004 836.800000
1646 18106 18105 1 103.70004 836.800000
18105 18107 18108 1 119.8800511 375.723200
18105 18107 18109 1 120.0200517 532.790560
18108 18107 18109 1 119.8800511 375.723200
18107 18109 18110 1 119.8800511 375.723200
18107 18109 18111 1 120.0200517 532.790560
18110 18109 18111 1 119.8800511 375.723200
18109 18111 18112 1 119.8800511 375.723200
18109 18111 18113 1 120.0200517 532.790560
18112 18111 18113 1 119.8800511 375.723200
18104 18113 18111 1 120.0200517 532.790560
18104 18113 18114 1 119.8800511 375.723200
18111 18113 18114 1 119.8800511 375.723200
18115 18116 18117 1 119.8800511 375.723200
18115 18116 18125 1 119.8800511 375.723200
18117 18116 18125 1 120.0200517 532.790560
18116 18117 18118 1 121.3800518 83.010560
18116 18117 18119 1 120.0200517 532.790560
18118 18117 18119 1 121.3800518 83.010560
1652 18118 1655 1 109.50000 418.400000
1652 18118 11164 1 109.50000 418.400000
1652 18118 18117 1 103.70004 836.800000
1655 18118 11164 1 109.50000 418.400000
1655 18118 18117 1 103.70004 836.800000
11164 18118 18117 1 103.70004 836.800000
18117 18119 18120 1 119.8800511 375.723200
18117 18119 18121 1 120.0200517 532.790560
18120 18119 18121 1 119.8800511 375.723200
18119 18121 18122 1 119.8800511 375.723200
18119 18121 18123 1 120.0200517 532.790560
18122 18121 18123 1 119.8800511 375.723200
18121 18123 18124 1 119.8800511 375.723200
18121 18123 18125 1 120.0200517 532.790560
18124 18123 18125 1 119.8800511 375.723200
18116 18125 18123 1 120.0200517 532.790560
18116 18125 18126 1 119.8800511 375.723200
18123 18125 18126 1 119.8800511 375.723200
18127 18128 18129 1 119.8800511 375.723200
18127 18128 18137 1 119.8800511 375.723200
18129 18128 18137 1 120.0200517 532.790560
18128 18129 18130 1 121.3800518 83.010560
18128 18129 18131 1 120.0200517 532.790560
18130 18129 18131 1 121.3800518 83.010560
1685 18130 7198 1 109.50000 418.400000
1685 18130 10902 1 109.50000 418.400000
1685 18130 18129 1 103.70004 836.800000
7198 18130 10902 1 109.50000 418.400000
7198 18130 18129 1 103.70004 836.800000
10902 18130 18129 1 103.70004 836.800000
18129 18131 18132 1 119.8800511 375.723200
18129 18131 18133 1 120.0200517 532.790560
18132 18131 18133 1 119.8800511 375.723200
18131 18133 18134 1 119.8800511 375.723200
18131 18133 18135 1 120.0200517 532.790560
18134 18133 18135 1 119.8800511 375.723200
18133 18135 18136 1 119.8800511 375.723200
18133 18135 18137 1 120.0200517 532.790560
18136 18135 18137 1 119.8800511 375.723200
18128 18137 18135 1 120.0200517 532.790560
18128 18137 18138 1 119.8800511 375.723200
18135 18137 18138 1 119.8800511 375.723200
18139 18140 18141 1 119.8800511 375.723200
18139 18140 18149 1 119.8800511 375.723200
18141 18140 18149 1 120.0200517 532.790560
18140 18141 18142 1 121.3800518 83.010560
18140 18141 18143 1 120.0200517 532.790560
18142 18141 18143 1 121.3800518 83.010560
1829 18142 1830 1 109.50000 418.400000
1829 18142 1831 1 109.50000 418.400000
1829 18142 18141 1 103.70004 836.800000
1830 18142 1831 1 109.50000 418.400000
1830 18142 18141 1 103.70004 836.800000
1831 18142 18141 1 103.70004 836.800000
18141 18143 18144 1 119.8800511 375.723200
18141 18143 18145 1 120.0200517 532.790560
18144 18143 18145 1 119.8800511 375.723200
18143 18145 18146 1 119.8800511 375.723200
18143 18145 18147 1 120.0200517 532.790560
18146 18145 18147 1 119.8800511 375.723200
18145 18147 18148 1 119.8800511 375.723200
18145 18147 18149 1 120.0200517 532.790560
18148 18147 18149 1 119.8800511 375.723200
18140 18149 18147 1 120.0200517 532.790560
18140 18149 18150 1 119.8800511 375.723200
18147 18149 18150 1 119.8800511 375.723200
18151 18152 18153 1 119.8800511 375.723200
18151 18152 18161 1 119.8800511 375.723200
18153 18152 18161 1 120.0200517 532.790560
18152 18153 18154 1 121.3800518 83.010560
18152 18153 18155 1 120.0200517 532.790560
18154 18153 18155 1 121.3800518 83.010560
320 18154 1044 1 109.50000 418.400000
320 18154 11176 1 109.50000 418.400000
320 18154 18153 1 103.70004 836.800000
1044 18154 11176 1 109.50000 418.400000
1044 18154 18153 1 103.70004 836.800000
11176 18154 18153 1 103.70004 836.800000
18153 18155 18156 1 119.8800511 375.723200
18153 18155 18157 1 120.0200517 532.790560
18156 18155 18157 1 119.8800511 375.723200
18155 18157 18158 1 119.8800511 375.723200
18155 18157 18159 1 120.0200517 532.790560
18158 18157 18159 1 119.8800511 375.723200
18157 18159 18160 1 119.8800511 375.723200
18157 18159 18161 1 120.0200517 532.790560
18160 18159 18161 1 119.8800511 375.723200
18152 18161 18159 1 120.0200517 532.790560
18152 18161 18162 1 119.8800511 375.723200
18159 18161 18162 1 119.8800511 375.723200
18163 18164 18165 1 119.8800511 375.723200
18163 18164 18173 1 119.8800511 375.723200
18165 18164 18173 1 120.0200517 532.790560
18164 18165 18166 1 121.3800518 83.010560
18164 18165 18167 1 120.0200517 532.790560
18166 18165 18167 1 121.3800518 83.010560
2493 18166 2494 1 109.50000 418.400000
2493 18166 2495 1 109.50000 418.400000
2493 18166 18165 1 103.70004 836.800000
2494 18166 2495 1 109.50000 418.400000
2494 18166 18165 1 103.70004 836.800000
2495 18166 18165 1 103.70004 836.800000
18165 18167 18168 1 119.8800511 375.723200
18165 18167 18169 1 120.0200517 532.790560
18168 18167 18169 1 119.8800511 375.723200
18167 18169 18170 1 119.8800511 375.723200
18167 18169 18171 1 120.0200517 532.790560
18170 18169 18171 1 119.8800511 375.723200
18169 18171 18172 1 119.8800511 375.723200
18169 18171 18173 1 120.0200517 532.790560
18172 18171 18173 1 119.8800511 375.723200
18164 18173 18171 1 120.0200517 532.790560
18164 18173 18174 1 119.8800511 375.723200
18171 18173 18174 1 119.8800511 375.723200
18175 18176 18177 1 119.8800511 375.723200
18175 18176 18185 1 119.8800511 375.723200
18177 18176 18185 1 120.0200517 532.790560
18176 18177 18178 1 121.3800518 83.010560
18176 18177 18179 1 120.0200517 532.790560
18178 18177 18179 1 121.3800518 83.010560
2604 18178 2605 1 109.50000 418.400000
2604 18178 2991 1 109.50000 418.400000
2604 18178 18177 1 103.70004 836.800000
2605 18178 2991 1 109.50000 418.400000
2605 18178 18177 1 103.70004 836.800000
2991 18178 18177 1 103.70004 836.800000
18177 18179 18180 1 119.8800511 375.723200
18177 18179 18181 1 120.0200517 532.790560
18180 18179 18181 1 119.8800511 375.723200
18179 18181 18182 1 119.8800511 375.723200
18179 18181 18183 1 120.0200517 532.790560
18182 18181 18183 1 119.8800511 375.723200
18181 18183 18184 1 119.8800511 375.723200
18181 18183 18185 1 120.0200517 532.790560
18184 18183 18185 1 119.8800511 375.723200
18176 18185 18183 1 120.0200517 532.790560
18176 18185 18186 1 119.8800511 375.723200
18183 18185 18186 1 119.8800511 375.723200
18187 18188 18189 1 119.8800511 375.723200
18187 18188 18197 1 119.8800511 375.723200
18189 18188 18197 1 120.0200517 532.790560
18188 18189 18190 1 121.3800518 83.010560
18188 18189 18191 1 120.0200517 532.790560
18190 18189 18191 1 121.3800518 83.010560
579 18190 3434 1 109.50000 418.400000
579 18190 5660 1 109.50000 418.400000
579 18190 18189 1 103.70004 836.800000
3434 18190 5660 1 109.50000 418.400000
3434 18190 18189 1 103.70004 836.800000
5660 18190 18189 1 103.70004 836.800000
18189 18191 18192 1 119.8800511 375.723200
18189 18191 18193 1 120.0200517 532.790560
18192 18191 18193 1 119.8800511 375.723200
18191 18193 18194 1 119.8800511 375.723200
18191 18193 18195 1 120.0200517 532.790560
18194 18193 18195 1 119.8800511 375.723200
18193 18195 18196 1 119.8800511 375.723200
18193 18195 18197 1 120.0200517 532.790560
18196 18195 18197 1 119.8800511 375.723200
18188 18197 18195 1 120.0200517 532.790560
18188 18197 18198 1 119.8800511 375.723200
18195 18197 18198 1 119.8800511 375.723200
18199 18200 18201 1 119.8800511 375.723200
18199 18200 18209 1 119.8800511 375.723200
18201 18200 18209 1 120.0200517 532.790560
18200 18201 18202 1 121.3800518 83.010560
18200 18201 18203 1 120.0200517 532.790560
18202 18201 18203 1 121.3800518 83.010560
3104 18202 3105 1 109.50000 418.400000
3104 18202 3106 1 109.50000 418.400000
3104 18202 18201 1 103.70004 836.800000
3105 18202 3106 1 109.50000 418.400000
3105 18202 18201 1 103.70004 836.800000
3106 18202 18201 1 103.70004 836.800000
18201 18203 18204 1 119.8800511 375.723200
18201 18203 18205 1 120.0200517 532.790560
18204 18203 18205 1 119.8800511 375.723200
18203 18205 18206 1 119.8800511 375.723200
18203 18205 18207 1 120.0200517 532.790560
18206 18205 18207 1 119.8800511 375.723200
18205 18207 18208 1 119.8800511 375.723200
18205 18207 18209 1 120.0200517 532.790560
18208 18207 18209 1 119.8800511 375.723200
18200 18209 18207 1 120.0200517 532.790560
18200 18209 18210 1 119.8800511 375.723200
18207 18209 18210 1 119.8800511 375.723200
18211 18212 18213 1 119.8800511 375.723200
18211 18212 18221 1 119.8800511 375.723200
18213 18212 18221 1 120.0200517 532.790560
18212 18213 18214 1 121.3800518 83.010560
18212 18213 18215 1 120.0200517 532.790560
18214 18213 18215 1 121.3800518 83.010560
3147 18214 6233 1 109.50000 418.400000
3147 18214 11188 1 109.50000 418.400000
3147 18214 18213 1 103.70004 836.800000
6233 18214 11188 1 109.50000 418.400000
6233 18214 18213 1 103.70004 836.800000
11188 18214 18213 1 103.70004 836.800000
18213 18215 18216 1 119.8800511 375.723200
18213 18215 18217 1 120.0200517 532.790560
18216 18215 18217 1 119.8800511 375.723200
18215 18217 18218 1 119.8800511 375.723200
18215 18217 18219 1 120.0200517 532.790560
18218 18217 18219 1 119.8800511 375.723200
18217 18219 18220 1 119.8800511 375.723200
18217 18219 18221 1 120.0200517 532.790560
18220 18219 18221 1 119.8800511 375.723200
18212 18221 18219 1 120.0200517 532.790560
18212 18221 18222 1 119.8800511 375.723200
18219 18221 18222 1 119.8800511 375.723200
18223 18224 18225 1 119.8800511 375.723200
18223 18224 18233 1 119.8800511 375.723200
18225 18224 18233 1 120.0200517 532.790560
18224 18225 18226 1 121.3800518 83.010560
18224 18225 18227 1 120.0200517 532.790560
18226 18225 18227 1 121.3800518 83.010560
3148 18226 3149 1 109.50000 418.400000
3148 18226 11189 1 109.50000 418.400000
3148 18226 18225 1 103.70004 836.800000
3149 18226 11189 1 109.50000 418.400000
3149 18226 18225 1 103.70004 836.800000
11189 18226 18225 1 103.70004 836.800000
18225 18227 18228 1 119.8800511 375.723200
18225 18227 18229 1 120.0200517 532.790560
18228 18227 18229 1 119.8800511 375.723200
18227 18229 18230 1 119.8800511 375.723200
18227 18229 18231 1 120.0200517 532.790560
18230 18229 18231 1 119.8800511 375.723200
18229 18231 18232 1 119.8800511 375.723200
18229 18231 18233 1 120.0200517 532.790560
18232 18231 18233 1 119.8800511 375.723200
18224 18233 18231 1 120.0200517 532.790560
18224 18233 18234 1 119.8800511 375.723200
18231 18233 18234 1 119.8800511 375.723200
18235 18236 18237 1 119.8800511 375.723200
18235 18236 18245 1 119.8800511 375.723200
18237 18236 18245 1 120.0200517 532.790560
18236 18237 18238 1 121.3800518 83.010560
18236 18237 18239 1 120.0200517 532.790560
18238 18237 18239 1 121.3800518 83.010560
3109 18238 3161 1 109.50000 418.400000
3109 18238 11190 1 109.50000 418.400000
3109 18238 18237 1 103.70004 836.800000
3161 18238 11190 1 109.50000 418.400000
3161 18238 18237 1 103.70004 836.800000
11190 18238 18237 1 103.70004 836.800000
18237 18239 18240 1 119.8800511 375.723200
18237 18239 18241 1 120.0200517 532.790560
18240 18239 18241 1 119.8800511 375.723200
18239 18241 18242 1 119.8800511 375.723200
18239 18241 18243 1 120.0200517 532.790560
18242 18241 18243 1 119.8800511 375.723200
18241 18243 18244 1 119.8800511 375.723200
18241 18243 18245 1 120.0200517 532.790560
18244 18243 18245 1 119.8800511 375.723200
18236 18245 18243 1 120.0200517 532.790560
18236 18245 18246 1 119.8800511 375.723200
18243 18245 18246 1 119.8800511 375.723200
18247 18248 18249 1 119.8800511 375.723200
18247 18248 18257 1 119.8800511 375.723200
18249 18248 18257 1 120.0200517 532.790560
18248 18249 18250 1 121.3800518 83.010560
18248 18249 18251 1 120.0200517 532.790560
18250 18249 18251 1 121.3800518 83.010560
3188 18250 3189 1 109.50000 418.400000
3188 18250 3248 1 109.50000 418.400000
3188 18250 18249 1 103.70004 836.800000
3189 18250 3248 1 109.50000 418.400000
3189 18250 18249 1 103.70004 836.800000
3248 18250 18249 1 103.70004 836.800000
18249 18251 18252 1 119.8800511 375.723200
18249 18251 18253 1 120.0200517 532.790560
18252 18251 18253 1 119.8800511 375.723200
18251 18253 18254 1 119.8800511 375.723200
18251 18253 18255 1 120.0200517 532.790560
18254 18253 18255 1 119.8800511 375.723200
18253 18255 18256 1 119.8800511 375.723200
18253 18255 18257 1 120.0200517 532.790560
18256 18255 18257 1 119.8800511 375.723200
18248 18257 18255 1 120.0200517 532.790560
18248 18257 18258 1 119.8800511 375.723200
18255 18257 18258 1 119.8800511 375.723200
18259 18260 18261 1 119.8800511 375.723200
18259 18260 18269 1 119.8800511 375.723200
18261 18260 18269 1 120.0200517 532.790560
18260 18261 18262 1 121.3800518 83.010560
18260 18261 18263 1 120.0200517 532.790560
18262 18261 18263 1 121.3800518 83.010560
3223 18262 3224 1 109.50000 418.400000
3223 18262 11191 1 109.50000 418.400000
3223 18262 18261 1 103.70004 836.800000
3224 18262 11191 1 109.50000 418.400000
3224 18262 18261 1 103.70004 836.800000
11191 18262 18261 1 103.70004 836.800000
18261 18263 18264 1 119.8800511 375.723200
18261 18263 18265 1 120.0200517 532.790560
18264 18263 18265 1 119.8800511 375.723200
18263 18265 18266 1 119.8800511 375.723200
18263 18265 18267 1 120.0200517 532.790560
18266 18265 18267 1 119.8800511 375.723200
18265 18267 18268 1 119.8800511 375.723200
18265 18267 18269 1 120.0200517 532.790560
18268 18267 18269 1 119.8800511 375.723200
18260 18269 18267 1 120.0200517 532.790560
18260 18269 18270 1 119.8800511 375.723200
18267 18269 18270 1 119.8800511 375.723200
18271 18272 18273 1 119.8800511 375.723200
18271 18272 18281 1 119.8800511 375.723200
18273 18272 18281 1 120.0200517 532.790560
18272 18273 18274 1 121.3800518 83.010560
18272 18273 18275 1 120.0200517 532.790560
18274 18273 18275 1 121.3800518 83.010560
3284 18274 3285 1 109.50000 418.400000
3284 18274 11192 1 109.50000 418.400000
3284 18274 18273 1 103.70004 836.800000
3285 18274 11192 1 109.50000 418.400000
3285 18274 18273 1 103.70004 836.800000
11192 18274 18273 1 103.70004 836.800000
18273 18275 18276 1 119.8800511 375.723200
18273 18275 18277 1 120.0200517 532.790560
18276 18275 18277 1 119.8800511 375.723200
18275 18277 18278 1 119.8800511 375.723200
18275 18277 18279 1 120.0200517 532.790560
18278 18277 18279 1 119.8800511 375.723200
18277 18279 18280 1 119.8800511 375.723200
18277 18279 18281 1 120.0200517 532.790560
18280 18279 18281 1 119.8800511 375.723200
18272 18281 18279 1 120.0200517 532.790560
18272 18281 18282 1 119.8800511 375.723200
18279 18281 18282 1 119.8800511 375.723200
18283 18284 18285 1 119.8800511 375.723200
18283 18284 18293 1 119.8800511 375.723200
18285 18284 18293 1 120.0200517 532.790560
18284 18285 18286 1 121.3800518 83.010560
18284 18285 18287 1 120.0200517 532.790560
18286 18285 18287 1 121.3800518 83.010560
3302 18286 3303 1 109.50000 418.400000
3302 18286 3304 1 109.50000 418.400000
3302 18286 18285 1 103.70004 836.800000
3303 18286 3304 1 109.50000 418.400000
3303 18286 18285 1 103.70004 836.800000
3304 18286 18285 1 103.70004 836.800000
18285 18287 18288 1 119.8800511 375.723200
18285 18287 18289 1 120.0200517 532.790560
18288 18287 18289 1 119.8800511 375.723200
18287 18289 18290 1 119.8800511 375.723200
18287 18289 18291 1 120.0200517 532.790560
18290 18289 18291 1 119.8800511 375.723200
18289 18291 18292 1 119.8800511 375.723200
18289 18291 18293 1 120.0200517 532.790560
18292 18291 18293 1 119.8800511 375.723200
18284 18293 18291 1 120.0200517 532.790560
18284 18293 18294 1 119.8800511 375.723200
18291 18293 18294 1 119.8800511 375.723200
18295 18296 18297 1 119.8800511 375.723200
18295 18296 18305 1 119.8800511 375.723200
18297 18296 18305 1 120.0200517 532.790560
18296 18297 18298 1 121.3800518 83.010560
18296 18297 18299 1 120.0200517 532.790560
18298 18297 18299 1 121.3800518 83.010560
3333 18298 3334 1 109.50000 418.400000
3333 18298 3335 1 109.50000 418.400000
3333 18298 18297 1 103.70004 836.800000
3334 18298 3335 1 109.50000 418.400000
3334 18298 18297 1 103.70004 836.800000
3335 18298 18297 1 103.70004 836.800000
18297 18299 18300 1 119.8800511 375.723200
18297 18299 18301 1 120.0200517 532.790560
18300 18299 18301 1 119.8800511 375.723200
18299 18301 18302 1 119.8800511 375.723200
18299 18301 18303 1 120.0200517 532.790560
18302 18301 18303 1 119.8800511 375.723200
18301 18303 18304 1 119.8800511 375.723200
18301 18303 18305 1 120.0200517 532.790560
18304 18303 18305 1 119.8800511 375.723200
18296 18305 18303 1 120.0200517 532.790560
18296 18305 18306 1 119.8800511 375.723200
18303 18305 18306 1 119.8800511 375.723200
18307 18308 18309 1 119.8800511 375.723200
18307 18308 18317 1 119.8800511 375.723200
18309 18308 18317 1 120.0200517 532.790560
18308 18309 18310 1 121.3800518 83.010560
18308 18309 18311 1 120.0200517 532.790560
18310 18309 18311 1 121.3800518 83.010560
3351 18310 3352 1 109.50000 418.400000
3351 18310 3353 1 109.50000 418.400000
3351 18310 18309 1 103.70004 836.800000
3352 18310 3353 1 109.50000 418.400000
3352 18310 18309 1 103.70004 836.800000
3353 18310 18309 1 103.70004 836.800000
18309 18311 18312 1 119.8800511 375.723200
18309 18311 18313 1 120.0200517 532.790560
18312 18311 18313 1 119.8800511 375.723200
18311 18313 18314 1 119.8800511 375.723200
18311 18313 18315 1 120.0200517 532.790560
18314 18313 18315 1 119.8800511 375.723200
18313 18315 18316 1 119.8800511 375.723200
18313 18315 18317 1 120.0200517 532.790560
18316 18315 18317 1 119.8800511 375.723200
18308 18317 18315 1 120.0200517 532.790560
18308 18317 18318 1 119.8800511 375.723200
18315 18317 18318 1 119.8800511 375.723200
18319 18320 18321 1 119.8800511 375.723200
18319 18320 18329 1 119.8800511 375.723200
18321 18320 18329 1 120.0200517 532.790560
18320 18321 18322 1 121.3800518 83.010560
18320 18321 18323 1 120.0200517 532.790560
18322 18321 18323 1 121.3800518 83.010560
125 18322 3371 1 109.50000 418.400000
125 18322 11193 1 109.50000 418.400000
125 18322 18321 1 103.70004 836.800000
3371 18322 11193 1 109.50000 418.400000
3371 18322 18321 1 103.70004 836.800000
11193 18322 18321 1 103.70004 836.800000
18321 18323 18324 1 119.8800511 375.723200
18321 18323 18325 1 120.0200517 532.790560
18324 18323 18325 1 119.8800511 375.723200
18323 18325 18326 1 119.8800511 375.723200
18323 18325 18327 1 120.0200517 532.790560
18326 18325 18327 1 119.8800511 375.723200
18325 18327 18328 1 119.8800511 375.723200
18325 18327 18329 1 120.0200517 532.790560
18328 18327 18329 1 119.8800511 375.723200
18320 18329 18327 1 120.0200517 532.790560
18320 18329 18330 1 119.8800511 375.723200
18327 18329 18330 1 119.8800511 375.723200
18331 18332 18333 1 119.8800511 375.723200
18331 18332 18341 1 119.8800511 375.723200
18333 18332 18341 1 120.0200517 532.790560
18332 18333 18334 1 121.3800518 83.010560
18332 18333 18335 1 120.0200517 532.790560
18334 18333 18335 1 121.3800518 83.010560
3376 18334 3377 1 109.50000 418.400000
3376 18334 3378 1 109.50000 418.400000
3376 18334 18333 1 103.70004 836.800000
3377 18334 3378 1 109.50000 418.400000
3377 18334 18333 1 103.70004 836.800000
3378 18334 18333 1 103.70004 836.800000
18333 18335 18336 1 119.8800511 375.723200
18333 18335 18337 1 120.0200517 532.790560
18336 18335 18337 1 119.8800511 375.723200
18335 18337 18338 1 119.8800511 375.723200
18335 18337 18339 1 120.0200517 532.790560
18338 18337 18339 1 119.8800511 375.723200
18337 18339 18340 1 119.8800511 375.723200
18337 18339 18341 1 120.0200517 532.790560
18340 18339 18341 1 119.8800511 375.723200
18332 18341 18339 1 120.0200517 532.790560
18332 18341 18342 1 119.8800511 375.723200
18339 18341 18342 1 119.8800511 375.723200
18343 18344 18345 1 119.8800511 375.723200
18343 18344 18353 1 119.8800511 375.723200
18345 18344 18353 1 120.0200517 532.790560
18344 18345 18346 1 121.3800518 83.010560
18344 18345 18347 1 120.0200517 532.790560
18346 18345 18347 1 121.3800518 83.010560
3379 18346 3380 1 109.50000 418.400000
3379 18346 11194 1 109.50000 418.400000
3379 18346 18345 1 103.70004 836.800000
3380 18346 11194 1 109.50000 418.400000
3380 18346 18345 1 103.70004 836.800000
11194 18346 18345 1 103.70004 836.800000
18345 18347 18348 1 119.8800511 375.723200
18345 18347 18349 1 120.0200517 532.790560
18348 18347 18349 1 119.8800511 375.723200
18347 18349 18350 1 119.8800511 375.723200
18347 18349 18351 1 120.0200517 532.790560
18350 18349 18351 1 119.8800511 375.723200
18349 18351 18352 1 119.8800511 375.723200
18349 18351 18353 1 120.0200517 532.790560
18352 18351 18353 1 119.8800511 375.723200
18344 18353 18351 1 120.0200517 532.790560
18344 18353 18354 1 119.8800511 375.723200
18351 18353 18354 1 119.8800511 375.723200
18355 18356 18357 1 119.8800511 375.723200
18355 18356 18365 1 119.8800511 375.723200
18357 18356 18365 1 120.0200517 532.790560
18356 18357 18358 1 121.3800518 83.010560
18356 18357 18359 1 120.0200517 532.790560
18358 18357 18359 1 121.3800518 83.010560
3385 18358 3386 1 109.50000 418.400000
3385 18358 3387 1 109.50000 418.400000
3385 18358 18357 1 103.70004 836.800000
3386 18358 3387 1 109.50000 418.400000
3386 18358 18357 1 103.70004 836.800000
3387 18358 18357 1 103.70004 836.800000
18357 18359 18360 1 119.8800511 375.723200
18357 18359 18361 1 120.0200517 532.790560
18360 18359 18361 1 119.8800511 375.723200
18359 18361 18362 1 119.8800511 375.723200
18359 18361 18363 1 120.0200517 532.790560
18362 18361 18363 1 119.8800511 375.723200
18361 18363 18364 1 119.8800511 375.723200
18361 18363 18365 1 120.0200517 532.790560
18364 18363 18365 1 119.8800511 375.723200
18356 18365 18363 1 120.0200517 532.790560
18356 18365 18366 1 119.8800511 375.723200
18363 18365 18366 1 119.8800511 375.723200
18367 18368 18369 1 119.8800511 375.723200
18367 18368 18377 1 119.8800511 375.723200
18369 18368 18377 1 120.0200517 532.790560
18368 18369 18370 1 121.3800518 83.010560
18368 18369 18371 1 120.0200517 532.790560
18370 18369 18371 1 121.3800518 83.010560
3417 18370 3418 1 109.50000 418.400000
3417 18370 3419 1 109.50000 418.400000
3417 18370 18369 1 103.70004 836.800000
3418 18370 3419 1 109.50000 418.400000
3418 18370 18369 1 103.70004 836.800000
3419 18370 18369 1 103.70004 836.800000
18369 18371 18372 1 119.8800511 375.723200
18369 18371 18373 1 120.0200517 532.790560
18372 18371 18373 1 119.8800511 375.723200
18371 18373 18374 1 119.8800511 375.723200
18371 18373 18375 1 120.0200517 532.790560
18374 18373 18375 1 119.8800511 375.723200
18373 18375 18376 1 119.8800511 375.723200
18373 18375 18377 1 120.0200517 532.790560
18376 18375 18377 1 119.8800511 375.723200
18368 18377 18375 1 120.0200517 532.790560
18368 18377 18378 1 119.8800511 375.723200
18375 18377 18378 1 119.8800511 375.723200
18379 18380 18381 1 119.8800511 375.723200
18379 18380 18389 1 119.8800511 375.723200
18381 18380 18389 1 120.0200517 532.790560
18380 18381 18382 1 121.3800518 83.010560
18380 18381 18383 1 120.0200517 532.790560
18382 18381 18383 1 121.3800518 83.010560
3430 18382 3431 1 109.50000 418.400000
3430 18382 11195 1 109.50000 418.400000
3430 18382 18381 1 103.70004 836.800000
3431 18382 11195 1 109.50000 418.400000
3431 18382 18381 1 103.70004 836.800000
11195 18382 18381 1 103.70004 836.800000
18381 18383 18384 1 119.8800511 375.723200
18381 18383 18385 1 120.0200517 532.790560
18384 18383 18385 1 119.8800511 375.723200
18383 18385 18386 1 119.8800511 375.723200
18383 18385 18387 1 120.0200517 532.790560
18386 18385 18387 1 119.8800511 375.723200
18385 18387 18388 1 119.8800511 375.723200
18385 18387 18389 1 120.0200517 532.790560
18388 18387 18389 1 119.8800511 375.723200
18380 18389 18387 1 120.0200517 532.790560
18380 18389 18390 1 119.8800511 375.723200
18387 18389 18390 1 119.8800511 375.723200
18391 18392 18393 1 119.8800511 375.723200
18391 18392 18401 1 119.8800511 375.723200
18393 18392 18401 1 120.0200517 532.790560
18392 18393 18394 1 121.3800518 83.010560
18392 18393 18395 1 120.0200517 532.790560
18394 18393 18395 1 121.3800518 83.010560
3477 18394 3478 1 109.50000 418.400000
3477 18394 3479 1 109.50000 418.400000
3477 18394 18393 1 103.70004 836.800000
3478 18394 3479 1 109.50000 418.400000
3478 18394 18393 1 103.70004 836.800000
3479 18394 18393 1 103.70004 836.800000
18393 18395 18396 1 119.8800511 375.723200
18393 18395 18397 1 120.0200517 532.790560
18396 18395 18397 1 119.8800511 375.723200
18395 18397 18398 1 119.8800511 375.723200
18395 18397 18399 1 120.0200517 532.790560
18398 18397 18399 1 119.8800511 375.723200
18397 18399 18400 1 119.8800511 375.723200
18397 18399 18401 1 120.0200517 532.790560
18400 18399 18401 1 119.8800511 375.723200
18392 18401 18399 1 120.0200517 532.790560
18392 18401 18402 1 119.8800511 375.723200
18399 18401 18402 1 119.8800511 375.723200
18403 18404 18405 1 119.8800511 375.723200
18403 18404 18413 1 119.8800511 375.723200
18405 18404 18413 1 120.0200517 532.790560
18404 18405 18406 1 121.3800518 83.010560
18404 18405 18407 1 120.0200517 532.790560
18406 18405 18407 1 121.3800518 83.010560
3559 18406 3560 1 109.50000 418.400000
3559 18406 3561 1 109.50000 418.400000
3559 18406 18405 1 103.70004 836.800000
3560 18406 3561 1 109.50000 418.400000
3560 18406 18405 1 103.70004 836.800000
3561 18406 18405 1 103.70004 836.800000
18405 18407 18408 1 119.8800511 375.723200
18405 18407 18409 1 120.0200517 532.790560
18408 18407 18409 1 119.8800511 375.723200
18407 18409 18410 1 119.8800511 375.723200
18407 18409 18411 1 120.0200517 532.790560
18410 18409 18411 1 119.8800511 375.723200
18409 18411 18412 1 119.8800511 375.723200
18409 18411 18413 1 120.0200517 532.790560
18412 18411 18413 1 119.8800511 375.723200
18404 18413 18411 1 120.0200517 532.790560
18404 18413 18414 1 119.8800511 375.723200
18411 18413 18414 1 119.8800511 375.723200
18415 18416 18417 1 119.8800511 375.723200
18415 18416 18425 1 119.8800511 375.723200
18417 18416 18425 1 120.0200517 532.790560
18416 18417 18418 1 121.3800518 83.010560
18416 18417 18419 1 120.0200517 532.790560
18418 18417 18419 1 121.3800518 83.010560
3566 18418 3567 1 109.50000 418.400000
3566 18418 3568 1 109.50000 418.400000
3566 18418 18417 1 103.70004 836.800000
3567 18418 3568 1 109.50000 418.400000
3567 18418 18417 1 103.70004 836.800000
3568 18418 18417 1 103.70004 836.800000
18417 18419 18420 1 119.8800511 375.723200
18417 18419 18421 1 120.0200517 532.790560
18420 18419 18421 1 119.8800511 375.723200
18419 18421 18422 1 119.8800511 375.723200
18419 18421 18423 1 120.0200517 532.790560
18422 18421 18423 1 119.8800511 375.723200
18421 18423 18424 1 119.8800511 375.723200
18421 18423 18425 1 120.0200517 532.790560
18424 18423 18425 1 119.8800511 375.723200
18416 18425 18423 1 120.0200517 532.790560
18416 18425 18426 1 119.8800511 375.723200
18423 18425 18426 1 119.8800511 375.723200
18427 18428 18429 1 119.8800511 375.723200
18427 18428 18437 1 119.8800511 375.723200
18429 18428 18437 1 120.0200517 532.790560
18428 18429 18430 1 121.3800518 83.010560
18428 18429 18431 1 120.0200517 532.790560
18430 18429 18431 1 121.3800518 83.010560
3569 18430 3570 1 109.50000 418.400000
3569 18430 11264 1 109.50000 418.400000
3569 18430 18429 1 103.70004 836.800000
3570 18430 11264 1 109.50000 418.400000
3570 18430 18429 1 103.70004 836.800000
11264 18430 18429 1 103.70004 836.800000
18429 18431 18432 1 119.8800511 375.723200
18429 18431 18433 1 120.0200517 532.790560
18432 18431 18433 1 119.8800511 375.723200
18431 18433 18434 1 119.8800511 375.723200
18431 18433 18435 1 120.0200517 532.790560
18434 18433 18435 1 119.8800511 375.723200
18433 18435 18436 1 119.8800511 375.723200
18433 18435 18437 1 120.0200517 532.790560
18436 18435 18437 1 119.8800511 375.723200
18428 18437 18435 1 120.0200517 532.790560
18428 18437 18438 1 119.8800511 375.723200
18435 18437 18438 1 119.8800511 375.723200
18439 18440 18441 1 119.8800511 375.723200
18439 18440 18449 1 119.8800511 375.723200
18441 18440 18449 1 120.0200517 532.790560
18440 18441 18442 1 121.3800518 83.010560
18440 18441 18443 1 120.0200517 532.790560
18442 18441 18443 1 121.3800518 83.010560
1123 18442 3601 1 109.50000 418.400000
1123 18442 11270 1 109.50000 418.400000
1123 18442 18441 1 103.70004 836.800000
3601 18442 11270 1 109.50000 418.400000
3601 18442 18441 1 103.70004 836.800000
11270 18442 18441 1 103.70004 836.800000
18441 18443 18444 1 119.8800511 375.723200
18441 18443 18445 1 120.0200517 532.790560
18444 18443 18445 1 119.8800511 375.723200
18443 18445 18446 1 119.8800511 375.723200
18443 18445 18447 1 120.0200517 532.790560
18446 18445 18447 1 119.8800511 375.723200
18445 18447 18448 1 119.8800511 375.723200
18445 18447 18449 1 120.0200517 532.790560
18448 18447 18449 1 119.8800511 375.723200
18440 18449 18447 1 120.0200517 532.790560
18440 18449 18450 1 119.8800511 375.723200
18447 18449 18450 1 119.8800511 375.723200
18451 18452 18453 1 119.8800511 375.723200
18451 18452 18461 1 119.8800511 375.723200
18453 18452 18461 1 120.0200517 532.790560
18452 18453 18454 1 121.3800518 83.010560
18452 18453 18455 1 120.0200517 532.790560
18454 18453 18455 1 121.3800518 83.010560
3676 18454 3677 1 109.50000 418.400000
3676 18454 11197 1 109.50000 418.400000
3676 18454 18453 1 103.70004 836.800000
3677 18454 11197 1 109.50000 418.400000
3677 18454 18453 1 103.70004 836.800000
11197 18454 18453 1 103.70004 836.800000
18453 18455 18456 1 119.8800511 375.723200
18453 18455 18457 1 120.0200517 532.790560
18456 18455 18457 1 119.8800511 375.723200
18455 18457 18458 1 119.8800511 375.723200
18455 18457 18459 1 120.0200517 532.790560
18458 18457 18459 1 119.8800511 375.723200
18457 18459 18460 1 119.8800511 375.723200
18457 18459 18461 1 120.0200517 532.790560
18460 18459 18461 1 119.8800511 375.723200
18452 18461 18459 1 120.0200517 532.790560
18452 18461 18462 1 119.8800511 375.723200
18459 18461 18462 1 119.8800511 375.723200
18463 18464 18465 1 119.8800511 375.723200
18463 18464 18473 1 119.8800511 375.723200
18465 18464 18473 1 120.0200517 532.790560
18464 18465 18466 1 121.3800518 83.010560
18464 18465 18467 1 120.0200517 532.790560
18466 18465 18467 1 121.3800518 83.010560
2095 18466 3736 1 109.50000 418.400000
2095 18466 3737 1 109.50000 418.400000
2095 18466 18465 1 103.70004 836.800000
3736 18466 3737 1 109.50000 418.400000
3736 18466 18465 1 103.70004 836.800000
3737 18466 18465 1 103.70004 836.800000
18465 18467 18468 1 119.8800511 375.723200
18465 18467 18469 1 120.0200517 532.790560
18468 18467 18469 1 119.8800511 375.723200
18467 18469 18470 1 119.8800511 375.723200
18467 18469 18471 1 120.0200517 532.790560
18470 18469 18471 1 119.8800511 375.723200
18469 18471 18472 1 119.8800511 375.723200
18469 18471 18473 1 120.0200517 532.790560
18472 18471 18473 1 119.8800511 375.723200
18464 18473 18471 1 120.0200517 532.790560
18464 18473 18474 1 119.8800511 375.723200
18471 18473 18474 1 119.8800511 375.723200
18475 18476 18477 1 119.8800511 375.723200
18475 18476 18485 1 119.8800511 375.723200
18477 18476 18485 1 120.0200517 532.790560
18476 18477 18478 1 121.3800518 83.010560
18476 18477 18479 1 120.0200517 532.790560
18478 18477 18479 1 121.3800518 83.010560
458 18478 3771 1 109.50000 418.400000
458 18478 3772 1 109.50000 418.400000
458 18478 18477 1 103.70004 836.800000
3771 18478 3772 1 109.50000 418.400000
3771 18478 18477 1 103.70004 836.800000
3772 18478 18477 1 103.70004 836.800000
18477 18479 18480 1 119.8800511 375.723200
18477 18479 18481 1 120.0200517 532.790560
18480 18479 18481 1 119.8800511 375.723200
18479 18481 18482 1 119.8800511 375.723200
18479 18481 18483 1 120.0200517 532.790560
18482 18481 18483 1 119.8800511 375.723200
18481 18483 18484 1 119.8800511 375.723200
18481 18483 18485 1 120.0200517 532.790560
18484 18483 18485 1 119.8800511 375.723200
18476 18485 18483 1 120.0200517 532.790560
18476 18485 18486 1 119.8800511 375.723200
18483 18485 18486 1 119.8800511 375.723200
18487 18488 18489 1 119.8800511 375.723200
18487 18488 18497 1 119.8800511 375.723200
18489 18488 18497 1 120.0200517 532.790560
18488 18489 18490 1 121.3800518 83.010560
18488 18489 18491 1 120.0200517 532.790560
18490 18489 18491 1 121.3800518 83.010560
2097 18490 3877 1 109.50000 418.400000
2097 18490 3878 1 109.50000 418.400000
2097 18490 18489 1 103.70004 836.800000
3877 18490 3878 1 109.50000 418.400000
3877 18490 18489 1 103.70004 836.800000
3878 18490 18489 1 103.70004 836.800000
18489 18491 18492 1 119.8800511 375.723200
18489 18491 18493 1 120.0200517 532.790560
18492 18491 18493 1 119.8800511 375.723200
18491 18493 18494 1 119.8800511 375.723200
18491 18493 18495 1 120.0200517 532.790560
18494 18493 18495 1 119.8800511 375.723200
18493 18495 18496 1 119.8800511 375.723200
18493 18495 18497 1 120.0200517 532.790560
18496 18495 18497 1 119.8800511 375.723200
18488 18497 18495 1 120.0200517 532.790560
18488 18497 18498 1 119.8800511 375.723200
18495 18497 18498 1 119.8800511 375.723200
18499 18500 18501 1 119.8800511 375.723200
18499 18500 18509 1 119.8800511 375.723200
18501 18500 18509 1 120.0200517 532.790560
18500 18501 18502 1 121.3800518 83.010560
18500 18501 18503 1 120.0200517 532.790560
18502 18501 18503 1 121.3800518 83.010560
3879 18502 3880 1 109.50000 418.400000
3879 18502 3881 1 109.50000 418.400000
3879 18502 18501 1 103.70004 836.800000
3880 18502 3881 1 109.50000 418.400000
3880 18502 18501 1 103.70004 836.800000
3881 18502 18501 1 103.70004 836.800000
18501 18503 18504 1 119.8800511 375.723200
18501 18503 18505 1 120.0200517 532.790560
18504 18503 18505 1 119.8800511 375.723200
18503 18505 18506 1 119.8800511 375.723200
18503 18505 18507 1 120.0200517 532.790560
18506 18505 18507 1 119.8800511 375.723200
18505 18507 18508 1 119.8800511 375.723200
18505 18507 18509 1 120.0200517 532.790560
18508 18507 18509 1 119.8800511 375.723200
18500 18509 18507 1 120.0200517 532.790560
18500 18509 18510 1 119.8800511 375.723200
18507 18509 18510 1 119.8800511 375.723200
18511 18512 18513 1 119.8800511 375.723200
18511 18512 18521 1 119.8800511 375.723200
18513 18512 18521 1 120.0200517 532.790560
18512 18513 18514 1 121.3800518 83.010560
18512 18513 18515 1 120.0200517 532.790560
18514 18513 18515 1 121.3800518 83.010560
1929 18514 3929 1 109.50000 418.400000
1929 18514 3930 1 109.50000 418.400000
1929 18514 18513 1 103.70004 836.800000
3929 18514 3930 1 109.50000 418.400000
3929 18514 18513 1 103.70004 836.800000
3930 18514 18513 1 103.70004 836.800000
18513 18515 18516 1 119.8800511 375.723200
18513 18515 18517 1 120.0200517 532.790560
18516 18515 18517 1 119.8800511 375.723200
18515 18517 18518 1 119.8800511 375.723200
18515 18517 18519 1 120.0200517 532.790560
18518 18517 18519 1 119.8800511 375.723200
18517 18519 18520 1 119.8800511 375.723200
18517 18519 18521 1 120.0200517 532.790560
18520 18519 18521 1 119.8800511 375.723200
18512 18521 18519 1 120.0200517 532.790560
18512 18521 18522 1 119.8800511 375.723200
18519 18521 18522 1 119.8800511 375.723200
18523 18524 18525 1 119.8800511 375.723200
18523 18524 18533 1 119.8800511 375.723200
18525 18524 18533 1 120.0200517 532.790560
18524 18525 18526 1 121.3800518 83.010560
18524 18525 18527 1 120.0200517 532.790560
18526 18525 18527 1 121.3800518 83.010560
986 18526 3936 1 109.50000 418.400000
986 18526 11198 1 109.50000 418.400000
986 18526 18525 1 103.70004 836.800000
3936 18526 11198 1 109.50000 418.400000
3936 18526 18525 1 103.70004 836.800000
11198 18526 18525 1 103.70004 836.800000
18525 18527 18528 1 119.8800511 375.723200
18525 18527 18529 1 120.0200517 532.790560
18528 18527 18529 1 119.8800511 375.723200
18527 18529 18530 1 119.8800511 375.723200
18527 18529 18531 1 120.0200517 532.790560
18530 18529 18531 1 119.8800511 375.723200
18529 18531 18532 1 119.8800511 375.723200
18529 18531 18533 1 120.0200517 532.790560
18532 18531 18533 1 119.8800511 375.723200
18524 18533 18531 1 120.0200517 532.790560
18524 18533 18534 1 119.8800511 375.723200
18531 18533 18534 1 119.8800511 375.723200
18535 18536 18537 1 119.8800511 375.723200
18535 18536 18545 1 119.8800511 375.723200
18537 18536 18545 1 120.0200517 532.790560
18536 18537 18538 1 121.3800518 83.010560
18536 18537 18539 1 120.0200517 532.790560
18538 18537 18539 1 121.3800518 83.010560
1689 18538 4017 1 109.50000 418.400000
1689 18538 4018 1 109.50000 418.400000
1689 18538 18537 1 103.70004 836.800000
4017 18538 4018 1 109.50000 418.400000
4017 18538 18537 1 103.70004 836.800000
4018 18538 18537 1 103.70004 836.800000
18537 18539 18540 1 119.8800511 375.723200
18537 18539 18541 1 120.0200517 532.790560
18540 18539 18541 1 119.8800511 375.723200
18539 18541 18542 1 119.8800511 375.723200
18539 18541 18543 1 120.0200517 532.790560
18542 18541 18543 1 119.8800511 375.723200
18541 18543 18544 1 119.8800511 375.723200
18541 18543 18545 1 120.0200517 532.790560
18544 18543 18545 1 119.8800511 375.723200
18536 18545 18543 1 120.0200517 532.790560
18536 18545 18546 1 119.8800511 375.723200
18543 18545 18546 1 119.8800511 375.723200
18547 18548 18549 1 119.8800511 375.723200
18547 18548 18557 1 119.8800511 375.723200
18549 18548 18557 1 120.0200517 532.790560
18548 18549 18550 1 121.3800518 83.010560
18548 18549 18551 1 120.0200517 532.790560
18550 18549 18551 1 121.3800518 83.010560
718 18550 4028 1 109.50000 418.400000
718 18550 4029 1 109.50000 418.400000
718 18550 18549 1 103.70004 836.800000
4028 18550 4029 1 109.50000 418.400000
4028 18550 18549 1 103.70004 836.800000
4029 18550 18549 1 103.70004 836.800000
18549 18551 18552 1 119.8800511 375.723200
18549 18551 18553 1 120.0200517 532.790560
18552 18551 18553 1 119.8800511 375.723200
18551 18553 18554 1 119.8800511 375.723200
18551 18553 18555 1 120.0200517 532.790560
18554 18553 18555 1 119.8800511 375.723200
18553 18555 18556 1 119.8800511 375.723200
18553 18555 18557 1 120.0200517 532.790560
18556 18555 18557 1 119.8800511 375.723200
18548 18557 18555 1 120.0200517 532.790560
18548 18557 18558 1 119.8800511 375.723200
18555 18557 18558 1 119.8800511 375.723200
18559 18560 18561 1 119.8800511 375.723200
18559 18560 18569 1 119.8800511 375.723200
18561 18560 18569 1 120.0200517 532.790560
18560 18561 18562 1 121.3800518 83.010560
18560 18561 18563 1 120.0200517 532.790560
18562 18561 18563 1 121.3800518 83.010560
840 18562 4033 1 109.50000 418.400000
840 18562 4034 1 109.50000 418.400000
840 18562 18561 1 103.70004 836.800000
4033 18562 4034 1 109.50000 418.400000
4033 18562 18561 1 103.70004 836.800000
4034 18562 18561 1 103.70004 836.800000
18561 18563 18564 1 119.8800511 375.723200
18561 18563 18565 1 120.0200517 532.790560
18564 18563 18565 1 119.8800511 375.723200
18563 18565 18566 1 119.8800511 375.723200
18563 18565 18567 1 120.0200517 532.790560
18566 18565 18567 1 119.8800511 375.723200
18565 18567 18568 1 119.8800511 375.723200
18565 18567 18569 1 120.0200517 532.790560
18568 18567 18569 1 119.8800511 375.723200
18560 18569 18567 1 120.0200517 532.790560
18560 18569 18570 1 119.8800511 375.723200
18567 18569 18570 1 119.8800511 375.723200
18571 18572 18573 1 119.8800511 375.723200
18571 18572 18581 1 119.8800511 375.723200
18573 18572 18581 1 120.0200517 532.790560
18572 18573 18574 1 121.3800518 83.010560
18572 18573 18575 1 120.0200517 532.790560
18574 18573 18575 1 121.3800518 83.010560
480 18574 3500 1 109.50000 418.400000
480 18574 4167 1 109.50000 418.400000
480 18574 18573 1 103.70004 836.800000
3500 18574 4167 1 109.50000 418.400000
3500 18574 18573 1 103.70004 836.800000
4167 18574 18573 1 103.70004 836.800000
18573 18575 18576 1 119.8800511 375.723200
18573 18575 18577 1 120.0200517 532.790560
18576 18575 18577 1 119.8800511 375.723200
18575 18577 18578 1 119.8800511 375.723200
18575 18577 18579 1 120.0200517 532.790560
18578 18577 18579 1 119.8800511 375.723200
18577 18579 18580 1 119.8800511 375.723200
18577 18579 18581 1 120.0200517 532.790560
18580 18579 18581 1 119.8800511 375.723200
18572 18581 18579 1 120.0200517 532.790560
18572 18581 18582 1 119.8800511 375.723200
18579 18581 18582 1 119.8800511 375.723200
18583 18584 18585 1 119.8800511 375.723200
18583 18584 18593 1 119.8800511 375.723200
18585 18584 18593 1 120.0200517 532.790560
18584 18585 18586 1 121.3800518 83.010560
18584 18585 18587 1 120.0200517 532.790560
18586 18585 18587 1 121.3800518 83.010560
2684 18586 4172 1 109.50000 418.400000
2684 18586 11199 1 109.50000 418.400000
2684 18586 18585 1 103.70004 836.800000
4172 18586 11199 1 109.50000 418.400000
4172 18586 18585 1 103.70004 836.800000
11199 18586 18585 1 103.70004 836.800000
18585 18587 18588 1 119.8800511 375.723200
18585 18587 18589 1 120.0200517 532.790560
18588 18587 18589 1 119.8800511 375.723200
18587 18589 18590 1 119.8800511 375.723200
18587 18589 18591 1 120.0200517 532.790560
18590 18589 18591 1 119.8800511 375.723200
18589 18591 18592 1 119.8800511 375.723200
18589 18591 18593 1 120.0200517 532.790560
18592 18591 18593 1 119.8800511 375.723200
18584 18593 18591 1 120.0200517 532.790560
18584 18593 18594 1 119.8800511 375.723200
18591 18593 18594 1 119.8800511 375.723200
18595 18596 18597 1 119.8800511 375.723200
18595 18596 18605 1 119.8800511 375.723200
18597 18596 18605 1 120.0200517 532.790560
18596 18597 18598 1 121.3800518 83.010560
18596 18597 18599 1 120.0200517 532.790560
18598 18597 18599 1 121.3800518 83.010560
4208 18598 4209 1 109.50000 418.400000
4208 18598 11200 1 109.50000 418.400000
4208 18598 18597 1 103.70004 836.800000
4209 18598 11200 1 109.50000 418.400000
4209 18598 18597 1 103.70004 836.800000
11200 18598 18597 1 103.70004 836.800000
18597 18599 18600 1 119.8800511 375.723200
18597 18599 18601 1 120.0200517 532.790560
18600 18599 18601 1 119.8800511 375.723200
18599 18601 18602 1 119.8800511 375.723200
18599 18601 18603 1 120.0200517 532.790560
18602 18601 18603 1 119.8800511 375.723200
18601 18603 18604 1 119.8800511 375.723200
18601 18603 18605 1 120.0200517 532.790560
18604 18603 18605 1 119.8800511 375.723200
18596 18605 18603 1 120.0200517 532.790560
18596 18605 18606 1 119.8800511 375.723200
18603 18605 18606 1 119.8800511 375.723200
18607 18608 18609 1 119.8800511 375.723200
18607 18608 18617 1 119.8800511 375.723200
18609 18608 18617 1 120.0200517 532.790560
18608 18609 18610 1 121.3800518 83.010560
18608 18609 18611 1 120.0200517 532.790560
18610 18609 18611 1 121.3800518 83.010560
4241 18610 4242 1 109.50000 418.400000
4241 18610 4243 1 109.50000 418.400000
4241 18610 18609 1 103.70004 836.800000
4242 18610 4243 1 109.50000 418.400000
4242 18610 18609 1 103.70004 836.800000
4243 18610 18609 1 103.70004 836.800000
18609 18611 18612 1 119.8800511 375.723200
18609 18611 18613 1 120.0200517 532.790560
18612 18611 18613 1 119.8800511 375.723200
18611 18613 18614 1 119.8800511 375.723200
18611 18613 18615 1 120.0200517 532.790560
18614 18613 18615 1 119.8800511 375.723200
18613 18615 18616 1 119.8800511 375.723200
18613 18615 18617 1 120.0200517 532.790560
18616 18615 18617 1 119.8800511 375.723200
18608 18617 18615 1 120.0200517 532.790560
18608 18617 18618 1 119.8800511 375.723200
18615 18617 18618 1 119.8800511 375.723200
18619 18620 18621 1 119.8800511 375.723200
18619 18620 18629 1 119.8800511 375.723200
18621 18620 18629 1 120.0200517 532.790560
18620 18621 18622 1 121.3800518 83.010560
18620 18621 18623 1 120.0200517 532.790560
18622 18621 18623 1 121.3800518 83.010560
4398 18622 4399 1 109.50000 418.400000
4398 18622 4400 1 109.50000 418.400000
4398 18622 18621 1 103.70004 836.800000
4399 18622 4400 1 109.50000 418.400000
4399 18622 18621 1 103.70004 836.800000
4400 18622 18621 1 103.70004 836.800000
18621 18623 18624 1 119.8800511 375.723200
18621 18623 18625 1 120.0200517 532.790560
18624 18623 18625 1 119.8800511 375.723200
18623 18625 18626 1 119.8800511 375.723200
18623 18625 18627 1 120.0200517 532.790560
18626 18625 18627 1 119.8800511 375.723200
18625 18627 18628 1 119.8800511 375.723200
18625 18627 18629 1 120.0200517 532.790560
18628 18627 18629 1 119.8800511 375.723200
18620 18629 18627 1 120.0200517 532.790560
18620 18629 18630 1 119.8800511 375.723200
18627 18629 18630 1 119.8800511 375.723200
18631 18632 18633 1 119.8800511 375.723200
18631 18632 18641 1 119.8800511 375.723200
18633 18632 18641 1 120.0200517 532.790560
18632 18633 18634 1 121.3800518 83.010560
18632 18633 18635 1 120.0200517 532.790560
18634 18633 18635 1 121.3800518 83.010560
4432 18634 4433 1 109.50000 418.400000
4432 18634 4434 1 109.50000 418.400000
4432 18634 18633 1 103.70004 836.800000
4433 18634 4434 1 109.50000 418.400000
4433 18634 18633 1 103.70004 836.800000
4434 18634 18633 1 103.70004 836.800000
18633 18635 18636 1 119.8800511 375.723200
18633 18635 18637 1 120.0200517 532.790560
18636 18635 18637 1 119.8800511 375.723200
18635 18637 18638 1 119.8800511 375.723200
18635 18637 18639 1 120.0200517 532.790560
18638 18637 18639 1 119.8800511 375.723200
18637 18639 18640 1 119.8800511 375.723200
18637 18639 18641 1 120.0200517 532.790560
18640 18639 18641 1 119.8800511 375.723200
18632 18641 18639 1 120.0200517 532.790560
18632 18641 18642 1 119.8800511 375.723200
18639 18641 18642 1 119.8800511 375.723200
18643 18644 18645 1 119.8800511 375.723200
18643 18644 18653 1 119.8800511 375.723200
18645 18644 18653 1 120.0200517 532.790560
18644 18645 18646 1 121.3800518 83.010560
18644 18645 18647 1 120.0200517 532.790560
18646 18645 18647 1 121.3800518 83.010560
4479 18646 4481 1 109.50000 418.400000
4479 18646 11204 1 109.50000 418.400000
4479 18646 18645 1 103.70004 836.800000
4481 18646 11204 1 109.50000 418.400000
4481 18646 18645 1 103.70004 836.800000
11204 18646 18645 1 103.70004 836.800000
18645 18647 18648 1 119.8800511 375.723200
18645 18647 18649 1 120.0200517 532.790560
18648 18647 18649 1 119.8800511 375.723200
18647 18649 18650 1 119.8800511 375.723200
18647 18649 18651 1 120.0200517 532.790560
18650 18649 18651 1 119.8800511 375.723200
18649 18651 18652 1 119.8800511 375.723200
18649 18651 18653 1 120.0200517 532.790560
18652 18651 18653 1 119.8800511 375.723200
18644 18653 18651 1 120.0200517 532.790560
18644 18653 18654 1 119.8800511 375.723200
18651 18653 18654 1 119.8800511 375.723200
18655 18656 18657 1 119.8800511 375.723200
18655 18656 18665 1 119.8800511 375.723200
18657 18656 18665 1 120.0200517 532.790560
18656 18657 18658 1 121.3800518 83.010560
18656 18657 18659 1 120.0200517 532.790560
18658 18657 18659 1 121.3800518 83.010560
3303 18658 3365 1 109.50000 418.400000
3303 18658 11205 1 109.50000 418.400000
3303 18658 18657 1 103.70004 836.800000
3365 18658 11205 1 109.50000 418.400000
3365 18658 18657 1 103.70004 836.800000
11205 18658 18657 1 103.70004 836.800000
18657 18659 18660 1 119.8800511 375.723200
18657 18659 18661 1 120.0200517 532.790560
18660 18659 18661 1 119.8800511 375.723200
18659 18661 18662 1 119.8800511 375.723200
18659 18661 18663 1 120.0200517 532.790560
18662 18661 18663 1 119.8800511 375.723200
18661 18663 18664 1 119.8800511 375.723200
18661 18663 18665 1 120.0200517 532.790560
18664 18663 18665 1 119.8800511 375.723200
18656 18665 18663 1 120.0200517 532.790560
18656 18665 18666 1 119.8800511 375.723200
18663 18665 18666 1 119.8800511 375.723200
18667 18668 18669 1 119.8800511 375.723200
18667 18668 18677 1 119.8800511 375.723200
18669 18668 18677 1 120.0200517 532.790560
18668 18669 18670 1 121.3800518 83.010560
18668 18669 18671 1 120.0200517 532.790560
18670 18669 18671 1 121.3800518 83.010560
4509 18670 4510 1 109.50000 418.400000
4509 18670 11206 1 109.50000 418.400000
4509 18670 18669 1 103.70004 836.800000
4510 18670 11206 1 109.50000 418.400000
4510 18670 18669 1 103.70004 836.800000
11206 18670 18669 1 103.70004 836.800000
18669 18671 18672 1 119.8800511 375.723200
18669 18671 18673 1 120.0200517 532.790560
18672 18671 18673 1 119.8800511 375.723200
18671 18673 18674 1 119.8800511 375.723200
18671 18673 18675 1 120.0200517 532.790560
18674 18673 18675 1 119.8800511 375.723200
18673 18675 18676 1 119.8800511 375.723200
18673 18675 18677 1 120.0200517 532.790560
18676 18675 18677 1 119.8800511 375.723200
18668 18677 18675 1 120.0200517 532.790560
18668 18677 18678 1 119.8800511 375.723200
18675 18677 18678 1 119.8800511 375.723200
18679 18680 18681 1 119.8800511 375.723200
18679 18680 18689 1 119.8800511 375.723200
18681 18680 18689 1 120.0200517 532.790560
18680 18681 18682 1 121.3800518 83.010560
18680 18681 18683 1 120.0200517 532.790560
18682 18681 18683 1 121.3800518 83.010560
4511 18682 4512 1 109.50000 418.400000
4511 18682 4513 1 109.50000 418.400000
4511 18682 18681 1 103.70004 836.800000
4512 18682 4513 1 109.50000 418.400000
4512 18682 18681 1 103.70004 836.800000
4513 18682 18681 1 103.70004 836.800000
18681 18683 18684 1 119.8800511 375.723200
18681 18683 18685 1 120.0200517 532.790560
18684 18683 18685 1 119.8800511 375.723200
18683 18685 18686 1 119.8800511 375.723200
18683 18685 18687 1 120.0200517 532.790560
18686 18685 18687 1 119.8800511 375.723200
18685 18687 18688 1 119.8800511 375.723200
18685 18687 18689 1 120.0200517 532.790560
18688 18687 18689 1 119.8800511 375.723200
18680 18689 18687 1 120.0200517 532.790560
18680 18689 18690 1 119.8800511 375.723200
18687 18689 18690 1 119.8800511 375.723200
18691 18692 18693 1 119.8800511 375.723200
18691 18692 18701 1 119.8800511 375.723200
18693 18692 18701 1 120.0200517 532.790560
18692 18693 18694 1 121.3800518 83.010560
18692 18693 18695 1 120.0200517 532.790560
18694 18693 18695 1 121.3800518 83.010560
4515 18694 4516 1 109.50000 418.400000
4515 18694 4517 1 109.50000 418.400000
4515 18694 18693 1 103.70004 836.800000
4516 18694 4517 1 109.50000 418.400000
4516 18694 18693 1 103.70004 836.800000
4517 18694 18693 1 103.70004 836.800000
18693 18695 18696 1 119.8800511 375.723200
18693 18695 18697 1 120.0200517 532.790560
18696 18695 18697 1 119.8800511 375.723200
18695 18697 18698 1 119.8800511 375.723200
18695 18697 18699 1 120.0200517 532.790560
18698 18697 18699 1 119.8800511 375.723200
18697 18699 18700 1 119.8800511 375.723200
18697 18699 18701 1 120.0200517 532.790560
18700 18699 18701 1 119.8800511 375.723200
18692 18701 18699 1 120.0200517 532.790560
18692 18701 18702 1 119.8800511 375.723200
18699 18701 18702 1 119.8800511 375.723200
18703 18704 18705 1 119.8800511 375.723200
18703 18704 18713 1 119.8800511 375.723200
18705 18704 18713 1 120.0200517 532.790560
18704 18705 18706 1 121.3800518 83.010560
18704 18705 18707 1 120.0200517 532.790560
18706 18705 18707 1 121.3800518 83.010560
4586 18706 4587 1 109.50000 418.400000
4586 18706 4588 1 109.50000 418.400000
4586 18706 18705 1 103.70004 836.800000
4587 18706 4588 1 109.50000 418.400000
4587 18706 18705 1 103.70004 836.800000
4588 18706 18705 1 103.70004 836.800000
18705 18707 18708 1 119.8800511 375.723200
18705 18707 18709 1 120.0200517 532.790560
18708 18707 18709 1 119.8800511 375.723200
18707 18709 18710 1 119.8800511 375.723200
18707 18709 18711 1 120.0200517 532.790560
18710 18709 18711 1 119.8800511 375.723200
18709 18711 18712 1 119.8800511 375.723200
18709 18711 18713 1 120.0200517 532.790560
18712 18711 18713 1 119.8800511 375.723200
18704 18713 18711 1 120.0200517 532.790560
18704 18713 18714 1 119.8800511 375.723200
18711 18713 18714 1 119.8800511 375.723200
18715 18716 18717 1 119.8800511 375.723200
18715 18716 18725 1 119.8800511 375.723200
18717 18716 18725 1 120.0200517 532.790560
18716 18717 18718 1 121.3800518 83.010560
18716 18717 18719 1 120.0200517 532.790560
18718 18717 18719 1 121.3800518 83.010560
4418 18718 4623 1 109.50000 418.400000
4418 18718 4624 1 109.50000 418.400000
4418 18718 18717 1 103.70004 836.800000
4623 18718 4624 1 109.50000 418.400000
4623 18718 18717 1 103.70004 836.800000
4624 18718 18717 1 103.70004 836.800000
18717 18719 18720 1 119.8800511 375.723200
18717 18719 18721 1 120.0200517 532.790560
18720 18719 18721 1 119.8800511 375.723200
18719 18721 18722 1 119.8800511 375.723200
18719 18721 18723 1 120.0200517 532.790560
18722 18721 18723 1 119.8800511 375.723200
18721 18723 18724 1 119.8800511 375.723200
18721 18723 18725 1 120.0200517 532.790560
18724 18723 18725 1 119.8800511 375.723200
18716 18725 18723 1 120.0200517 532.790560
18716 18725 18726 1 119.8800511 375.723200
18723 18725 18726 1 119.8800511 375.723200
18727 18728 18729 1 119.8800511 375.723200
18727 18728 18737 1 119.8800511 375.723200
18729 18728 18737 1 120.0200517 532.790560
18728 18729 18730 1 121.3800518 83.010560
18728 18729 18731 1 120.0200517 532.790560
18730 18729 18731 1 121.3800518 83.010560
4636 18730 4637 1 109.50000 418.400000
4636 18730 4638 1 109.50000 418.400000
4636 18730 18729 1 103.70004 836.800000
4637 18730 4638 1 109.50000 418.400000
4637 18730 18729 1 103.70004 836.800000
4638 18730 18729 1 103.70004 836.800000
18729 18731 18732 1 119.8800511 375.723200
18729 18731 18733 1 120.0200517 532.790560
18732 18731 18733 1 119.8800511 375.723200
18731 18733 18734 1 119.8800511 375.723200
18731 18733 18735 1 120.0200517 532.790560
18734 18733 18735 1 119.8800511 375.723200
18733 18735 18736 1 119.8800511 375.723200
18733 18735 18737 1 120.0200517 532.790560
18736 18735 18737 1 119.8800511 375.723200
18728 18737 18735 1 120.0200517 532.790560
18728 18737 18738 1 119.8800511 375.723200
18735 18737 18738 1 119.8800511 375.723200
18739 18740 18741 1 119.8800511 375.723200
18739 18740 18749 1 119.8800511 375.723200
18741 18740 18749 1 120.0200517 532.790560
18740 18741 18742 1 121.3800518 83.010560
18740 18741 18743 1 120.0200517 532.790560
18742 18741 18743 1 121.3800518 83.010560
4691 18742 4692 1 109.50000 418.400000
4691 18742 4693 1 109.50000 418.400000
4691 18742 18741 1 103.70004 836.800000
4692 18742 4693 1 109.50000 418.400000
4692 18742 18741 1 103.70004 836.800000
4693 18742 18741 1 103.70004 836.800000
18741 18743 18744 1 119.8800511 375.723200
18741 18743 18745 1 120.0200517 532.790560
18744 18743 18745 1 119.8800511 375.723200
18743 18745 18746 1 119.8800511 375.723200
18743 18745 18747 1 120.0200517 532.790560
18746 18745 18747 1 119.8800511 375.723200
18745 18747 18748 1 119.8800511 375.723200
18745 18747 18749 1 120.0200517 532.790560
18748 18747 18749 1 119.8800511 375.723200
18740 18749 18747 1 120.0200517 532.790560
18740 18749 18750 1 119.8800511 375.723200
18747 18749 18750 1 119.8800511 375.723200
18751 18752 18753 1 119.8800511 375.723200
18751 18752 18761 1 119.8800511 375.723200
18753 18752 18761 1 120.0200517 532.790560
18752 18753 18754 1 121.3800518 83.010560
18752 18753 18755 1 120.0200517 532.790560
18754 18753 18755 1 121.3800518 83.010560
4648 18754 4700 1 109.50000 418.400000
4648 18754 4701 1 109.50000 418.400000
4648 18754 18753 1 103.70004 836.800000
4700 18754 4701 1 109.50000 418.400000
4700 18754 18753 1 103.70004 836.800000
4701 18754 18753 1 103.70004 836.800000
18753 18755 18756 1 119.8800511 375.723200
18753 18755 18757 1 120.0200517 532.790560
18756 18755 18757 1 119.8800511 375.723200
18755 18757 18758 1 119.8800511 375.723200
18755 18757 18759 1 120.0200517 532.790560
18758 18757 18759 1 119.8800511 375.723200
18757 18759 18760 1 119.8800511 375.723200
18757 18759 18761 1 120.0200517 532.790560
18760 18759 18761 1 119.8800511 375.723200
18752 18761 18759 1 120.0200517 532.790560
18752 18761 18762 1 119.8800511 375.723200
18759 18761 18762 1 119.8800511 375.723200
18763 18764 18765 1 119.8800511 375.723200
18763 18764 18773 1 119.8800511 375.723200
18765 18764 18773 1 120.0200517 532.790560
18764 18765 18766 1 121.3800518 83.010560
18764 18765 18767 1 120.0200517 532.790560
18766 18765 18767 1 121.3800518 83.010560
519 18766 4736 1 109.50000 418.400000
519 18766 4737 1 109.50000 418.400000
519 18766 18765 1 103.70004 836.800000
4736 18766 4737 1 109.50000 418.400000
4736 18766 18765 1 103.70004 836.800000
4737 18766 18765 1 103.70004 836.800000
18765 18767 18768 1 119.8800511 375.723200
18765 18767 18769 1 120.0200517 532.790560
18768 18767 18769 1 119.8800511 375.723200
18767 18769 18770 1 119.8800511 375.723200
18767 18769 18771 1 120.0200517 532.790560
18770 18769 18771 1 119.8800511 375.723200
18769 18771 18772 1 119.8800511 375.723200
18769 18771 18773 1 120.0200517 532.790560
18772 18771 18773 1 119.8800511 375.723200
18764 18773 18771 1 120.0200517 532.790560
18764 18773 18774 1 119.8800511 375.723200
18771 18773 18774 1 119.8800511 375.723200
18775 18776 18777 1 119.8800511 375.723200
18775 18776 18785 1 119.8800511 375.723200
18777 18776 18785 1 120.0200517 532.790560
18776 18777 18778 1 121.3800518 83.010560
18776 18777 18779 1 120.0200517 532.790560
18778 18777 18779 1 121.3800518 83.010560
4771 18778 4772 1 109.50000 418.400000
4771 18778 11209 1 109.50000 418.400000
4771 18778 18777 1 103.70004 836.800000
4772 18778 11209 1 109.50000 418.400000
4772 18778 18777 1 103.70004 836.800000
11209 18778 18777 1 103.70004 836.800000
18777 18779 18780 1 119.8800511 375.723200
18777 18779 18781 1 120.0200517 532.790560
18780 18779 18781 1 119.8800511 375.723200
18779 18781 18782 1 119.8800511 375.723200
18779 18781 18783 1 120.0200517 532.790560
18782 18781 18783 1 119.8800511 375.723200
18781 18783 18784 1 119.8800511 375.723200
18781 18783 18785 1 120.0200517 532.790560
18784 18783 18785 1 119.8800511 375.723200
18776 18785 18783 1 120.0200517 532.790560
18776 18785 18786 1 119.8800511 375.723200
18783 18785 18786 1 119.8800511 375.723200
18787 18788 18789 1 119.8800511 375.723200
18787 18788 18797 1 119.8800511 375.723200
18789 18788 18797 1 120.0200517 532.790560
18788 18789 18790 1 121.3800518 83.010560
18788 18789 18791 1 120.0200517 532.790560
18790 18789 18791 1 121.3800518 83.010560
837 18790 4795 1 109.50000 418.400000
837 18790 11210 1 109.50000 418.400000
837 18790 18789 1 103.70004 836.800000
4795 18790 11210 1 109.50000 418.400000
4795 18790 18789 1 103.70004 836.800000
11210 18790 18789 1 103.70004 836.800000
18789 18791 18792 1 119.8800511 375.723200
18789 18791 18793 1 120.0200517 532.790560
18792 18791 18793 1 119.8800511 375.723200
18791 18793 18794 1 119.8800511 375.723200
18791 18793 18795 1 120.0200517 532.790560
18794 18793 18795 1 119.8800511 375.723200
18793 18795 18796 1 119.8800511 375.723200
18793 18795 18797 1 120.0200517 532.790560
18796 18795 18797 1 119.8800511 375.723200
18788 18797 18795 1 120.0200517 532.790560
18788 18797 18798 1 119.8800511 375.723200
18795 18797 18798 1 119.8800511 375.723200
18799 18800 18801 1 119.8800511 375.723200
18799 18800 18809 1 119.8800511 375.723200
18801 18800 18809 1 120.0200517 532.790560
18800 18801 18802 1 121.3800518 83.010560
18800 18801 18803 1 120.0200517 532.790560
18802 18801 18803 1 121.3800518 83.010560
4807 18802 4808 1 109.50000 418.400000
4807 18802 4809 1 109.50000 418.400000
4807 18802 18801 1 103.70004 836.800000
4808 18802 4809 1 109.50000 418.400000
4808 18802 18801 1 103.70004 836.800000
4809 18802 18801 1 103.70004 836.800000
18801 18803 18804 1 119.8800511 375.723200
18801 18803 18805 1 120.0200517 532.790560
18804 18803 18805 1 119.8800511 375.723200
18803 18805 18806 1 119.8800511 375.723200
18803 18805 18807 1 120.0200517 532.790560
18806 18805 18807 1 119.8800511 375.723200
18805 18807 18808 1 119.8800511 375.723200
18805 18807 18809 1 120.0200517 532.790560
18808 18807 18809 1 119.8800511 375.723200
18800 18809 18807 1 120.0200517 532.790560
18800 18809 18810 1 119.8800511 375.723200
18807 18809 18810 1 119.8800511 375.723200
18811 18812 18813 1 119.8800511 375.723200
18811 18812 18821 1 119.8800511 375.723200
18813 18812 18821 1 120.0200517 532.790560
18812 18813 18814 1 121.3800518 83.010560
18812 18813 18815 1 120.0200517 532.790560
18814 18813 18815 1 121.3800518 83.010560
274 18814 4813 1 109.50000 418.400000
274 18814 4814 1 109.50000 418.400000
274 18814 18813 1 103.70004 836.800000
4813 18814 4814 1 109.50000 418.400000
4813 18814 18813 1 103.70004 836.800000
4814 18814 18813 1 103.70004 836.800000
18813 18815 18816 1 119.8800511 375.723200
18813 18815 18817 1 120.0200517 532.790560
18816 18815 18817 1 119.8800511 375.723200
18815 18817 18818 1 119.8800511 375.723200
18815 18817 18819 1 120.0200517 532.790560
18818 18817 18819 1 119.8800511 375.723200
18817 18819 18820 1 119.8800511 375.723200
18817 18819 18821 1 120.0200517 532.790560
18820 18819 18821 1 119.8800511 375.723200
18812 18821 18819 1 120.0200517 532.790560
18812 18821 18822 1 119.8800511 375.723200
18819 18821 18822 1 119.8800511 375.723200
18823 18824 18825 1 119.8800511 375.723200
18823 18824 18833 1 119.8800511 375.723200
18825 18824 18833 1 120.0200517 532.790560
18824 18825 18826 1 121.3800518 83.010560
18824 18825 18827 1 120.0200517 532.790560
18826 18825 18827 1 121.3800518 83.010560
4032 18826 4817 1 109.50000 418.400000
4032 18826 11212 1 109.50000 418.400000
4032 18826 18825 1 103.70004 836.800000
4817 18826 11212 1 109.50000 418.400000
4817 18826 18825 1 103.70004 836.800000
11212 18826 18825 1 103.70004 836.800000
18825 18827 18828 1 119.8800511 375.723200
18825 18827 18829 1 120.0200517 532.790560
18828 18827 18829 1 119.8800511 375.723200
18827 18829 18830 1 119.8800511 375.723200
18827 18829 18831 1 120.0200517 532.790560
18830 18829 18831 1 119.8800511 375.723200
18829 18831 18832 1 119.8800511 375.723200
18829 18831 18833 1 120.0200517 532.790560
18832 18831 18833 1 119.8800511 375.723200
18824 18833 18831 1 120.0200517 532.790560
18824 18833 18834 1 119.8800511 375.723200
18831 18833 18834 1 119.8800511 375.723200
18835 18836 18837 1 119.8800511 375.723200
18835 18836 18845 1 119.8800511 375.723200
18837 18836 18845 1 120.0200517 532.790560
18836 18837 18838 1 121.3800518 83.010560
18836 18837 18839 1 120.0200517 532.790560
18838 18837 18839 1 121.3800518 83.010560
2324 18838 3904 1 109.50000 418.400000
2324 18838 4792 1 109.50000 418.400000
2324 18838 18837 1 103.70004 836.800000
3904 18838 4792 1 109.50000 418.400000
3904 18838 18837 1 103.70004 836.800000
4792 18838 18837 1 103.70004 836.800000
18837 18839 18840 1 119.8800511 375.723200
18837 18839 18841 1 120.0200517 532.790560
18840 18839 18841 1 119.8800511 375.723200
18839 18841 18842 1 119.8800511 375.723200
18839 18841 18843 1 120.0200517 532.790560
18842 18841 18843 1 119.8800511 375.723200
18841 18843 18844 1 119.8800511 375.723200
18841 18843 18845 1 120.0200517 532.790560
18844 18843 18845 1 119.8800511 375.723200
18836 18845 18843 1 120.0200517 532.790560
18836 18845 18846 1 119.8800511 375.723200
18843 18845 18846 1 119.8800511 375.723200
18847 18848 18849 1 119.8800511 375.723200
18847 18848 18857 1 119.8800511 375.723200
18849 18848 18857 1 120.0200517 532.790560
18848 18849 18850 1 121.3800518 83.010560
18848 18849 18851 1 120.0200517 532.790560
18850 18849 18851 1 121.3800518 83.010560
4861 18850 4862 1 109.50000 418.400000
4861 18850 11214 1 109.50000 418.400000
4861 18850 18849 1 103.70004 836.800000
4862 18850 11214 1 109.50000 418.400000
4862 18850 18849 1 103.70004 836.800000
11214 18850 18849 1 103.70004 836.800000
18849 18851 18852 1 119.8800511 375.723200
18849 18851 18853 1 120.0200517 532.790560
18852 18851 18853 1 119.8800511 375.723200
18851 18853 18854 1 119.8800511 375.723200
18851 18853 18855 1 120.0200517 532.790560
18854 18853 18855 1 119.8800511 375.723200
18853 18855 18856 1 119.8800511 375.723200
18853 18855 18857 1 120.0200517 532.790560
18856 18855 18857 1 119.8800511 375.723200
18848 18857 18855 1 120.0200517 532.790560
18848 18857 18858 1 119.8800511 375.723200
18855 18857 18858 1 119.8800511 375.723200
18859 18860 18861 1 119.8800511 375.723200
18859 18860 18869 1 119.8800511 375.723200
18861 18860 18869 1 120.0200517 532.790560
18860 18861 18862 1 121.3800518 83.010560
18860 18861 18863 1 120.0200517 532.790560
18862 18861 18863 1 121.3800518 83.010560
460 18862 4886 1 109.50000 418.400000
460 18862 11216 1 109.50000 418.400000
460 18862 18861 1 103.70004 836.800000
4886 18862 11216 1 109.50000 418.400000
4886 18862 18861 1 103.70004 836.800000
11216 18862 18861 1 103.70004 836.800000
18861 18863 18864 1 119.8800511 375.723200
18861 18863 18865 1 120.0200517 532.790560
18864 18863 18865 1 119.8800511 375.723200
18863 18865 18866 1 119.8800511 375.723200
18863 18865 18867 1 120.0200517 532.790560
18866 18865 18867 1 119.8800511 375.723200
18865 18867 18868 1 119.8800511 375.723200
18865 18867 18869 1 120.0200517 532.790560
18868 18867 18869 1 119.8800511 375.723200
18860 18869 18867 1 120.0200517 532.790560
18860 18869 18870 1 119.8800511 375.723200
18867 18869 18870 1 119.8800511 375.723200
18871 18872 18873 1 119.8800511 375.723200
18871 18872 18881 1 119.8800511 375.723200
18873 18872 18881 1 120.0200517 532.790560
18872 18873 18874 1 121.3800518 83.010560
18872 18873 18875 1 120.0200517 532.790560
18874 18873 18875 1 121.3800518 83.010560
2517 18874 4894 1 109.50000 418.400000
2517 18874 11217 1 109.50000 418.400000
2517 18874 18873 1 103.70004 836.800000
4894 18874 11217 1 109.50000 418.400000
4894 18874 18873 1 103.70004 836.800000
11217 18874 18873 1 103.70004 836.800000
18873 18875 18876 1 119.8800511 375.723200
18873 18875 18877 1 120.0200517 532.790560
18876 18875 18877 1 119.8800511 375.723200
18875 18877 18878 1 119.8800511 375.723200
18875 18877 18879 1 120.0200517 532.790560
18878 18877 18879 1 119.8800511 375.723200
18877 18879 18880 1 119.8800511 375.723200
18877 18879 18881 1 120.0200517 532.790560
18880 18879 18881 1 119.8800511 375.723200
18872 18881 18879 1 120.0200517 532.790560
18872 18881 18882 1 119.8800511 375.723200
18879 18881 18882 1 119.8800511 375.723200
18883 18884 18885 1 119.8800511 375.723200
18883 18884 18893 1 119.8800511 375.723200
18885 18884 18893 1 120.0200517 532.790560
18884 18885 18886 1 121.3800518 83.010560
18884 18885 18887 1 120.0200517 532.790560
18886 18885 18887 1 121.3800518 83.010560
4895 18886 4896 1 109.50000 418.400000
4895 18886 11218 1 109.50000 418.400000
4895 18886 18885 1 103.70004 836.800000
4896 18886 11218 1 109.50000 418.400000
4896 18886 18885 1 103.70004 836.800000
11218 18886 18885 1 103.70004 836.800000
18885 18887 18888 1 119.8800511 375.723200
18885 18887 18889 1 120.0200517 532.790560
18888 18887 18889 1 119.8800511 375.723200
18887 18889 18890 1 119.8800511 375.723200
18887 18889 18891 1 120.0200517 532.790560
18890 18889 18891 1 119.8800511 375.723200
18889 18891 18892 1 119.8800511 375.723200
18889 18891 18893 1 120.0200517 532.790560
18892 18891 18893 1 119.8800511 375.723200
18884 18893 18891 1 120.0200517 532.790560
18884 18893 18894 1 119.8800511 375.723200
18891 18893 18894 1 119.8800511 375.723200
18895 18896 18897 1 119.8800511 375.723200
18895 18896 18905 1 119.8800511 375.723200
18897 18896 18905 1 120.0200517 532.790560
18896 18897 18898 1 121.3800518 83.010560
18896 18897 18899 1 120.0200517 532.790560
18898 18897 18899 1 121.3800518 83.010560
2297 18898 2633 1 109.50000 418.400000
2297 18898 4932 1 109.50000 418.400000
2297 18898 18897 1 103.70004 836.800000
2633 18898 4932 1 109.50000 418.400000
2633 18898 18897 1 103.70004 836.800000
4932 18898 18897 1 103.70004 836.800000
18897 18899 18900 1 119.8800511 375.723200
18897 18899 18901 1 120.0200517 532.790560
18900 18899 18901 1 119.8800511 375.723200
18899 18901 18902 1 119.8800511 375.723200
18899 18901 18903 1 120.0200517 532.790560
18902 18901 18903 1 119.8800511 375.723200
18901 18903 18904 1 119.8800511 375.723200
18901 18903 18905 1 120.0200517 532.790560
18904 18903 18905 1 119.8800511 375.723200
18896 18905 18903 1 120.0200517 532.790560
18896 18905 18906 1 119.8800511 375.723200
18903 18905 18906 1 119.8800511 375.723200
18907 18908 18909 1 119.8800511 375.723200
18907 18908 18917 1 119.8800511 375.723200
18909 18908 18917 1 120.0200517 532.790560
18908 18909 18910 1 121.3800518 83.010560
18908 18909 18911 1 120.0200517 532.790560
18910 18909 18911 1 121.3800518 83.010560
4938 18910 4939 1 109.50000 418.400000
4938 18910 10105 1 109.50000 418.400000
4938 18910 18909 1 103.70004 836.800000
4939 18910 10105 1 109.50000 418.400000
4939 18910 18909 1 103.70004 836.800000
10105 18910 18909 1 103.70004 836.800000
18909 18911 18912 1 119.8800511 375.723200
18909 18911 18913 1 120.0200517 532.790560
18912 18911 18913 1 119.8800511 375.723200
18911 18913 18914 1 119.8800511 375.723200
18911 18913 18915 1 120.0200517 532.790560
18914 18913 18915 1 119.8800511 375.723200
18913 18915 18916 1 119.8800511 375.723200
18913 18915 18917 1 120.0200517 532.790560
18916 18915 18917 1 119.8800511 375.723200
18908 18917 18915 1 120.0200517 532.790560
18908 18917 18918 1 119.8800511 375.723200
18915 18917 18918 1 119.8800511 375.723200
18919 18920 18921 1 119.8800511 375.723200
18919 18920 18929 1 119.8800511 375.723200
18921 18920 18929 1 120.0200517 532.790560
18920 18921 18922 1 121.3800518 83.010560
18920 18921 18923 1 120.0200517 532.790560
18922 18921 18923 1 121.3800518 83.010560
4454 18922 4961 1 109.50000 418.400000
4454 18922 11219 1 109.50000 418.400000
4454 18922 18921 1 103.70004 836.800000
4961 18922 11219 1 109.50000 418.400000
4961 18922 18921 1 103.70004 836.800000
11219 18922 18921 1 103.70004 836.800000
18921 18923 18924 1 119.8800511 375.723200
18921 18923 18925 1 120.0200517 532.790560
18924 18923 18925 1 119.8800511 375.723200
18923 18925 18926 1 119.8800511 375.723200
18923 18925 18927 1 120.0200517 532.790560
18926 18925 18927 1 119.8800511 375.723200
18925 18927 18928 1 119.8800511 375.723200
18925 18927 18929 1 120.0200517 532.790560
18928 18927 18929 1 119.8800511 375.723200
18920 18929 18927 1 120.0200517 532.790560
18920 18929 18930 1 119.8800511 375.723200
18927 18929 18930 1 119.8800511 375.723200
18931 18932 18933 1 119.8800511 375.723200
18931 18932 18941 1 119.8800511 375.723200
18933 18932 18941 1 120.0200517 532.790560
18932 18933 18934 1 121.3800518 83.010560
18932 18933 18935 1 120.0200517 532.790560
18934 18933 18935 1 121.3800518 83.010560
4981 18934 4982 1 109.50000 418.400000
4981 18934 11220 1 109.50000 418.400000
4981 18934 18933 1 103.70004 836.800000
4982 18934 11220 1 109.50000 418.400000
4982 18934 18933 1 103.70004 836.800000
11220 18934 18933 1 103.70004 836.800000
18933 18935 18936 1 119.8800511 375.723200
18933 18935 18937 1 120.0200517 532.790560
18936 18935 18937 1 119.8800511 375.723200
18935 18937 18938 1 119.8800511 375.723200
18935 18937 18939 1 120.0200517 532.790560
18938 18937 18939 1 119.8800511 375.723200
18937 18939 18940 1 119.8800511 375.723200
18937 18939 18941 1 120.0200517 532.790560
18940 18939 18941 1 119.8800511 375.723200
18932 18941 18939 1 120.0200517 532.790560
18932 18941 18942 1 119.8800511 375.723200
18939 18941 18942 1 119.8800511 375.723200
18943 18944 18945 1 119.8800511 375.723200
18943 18944 18953 1 119.8800511 375.723200
18945 18944 18953 1 120.0200517 532.790560
18944 18945 18946 1 121.3800518 83.010560
18944 18945 18947 1 120.0200517 532.790560
18946 18945 18947 1 121.3800518 83.010560
3627 18946 4990 1 109.50000 418.400000
3627 18946 4991 1 109.50000 418.400000
3627 18946 18945 1 103.70004 836.800000
4990 18946 4991 1 109.50000 418.400000
4990 18946 18945 1 103.70004 836.800000
4991 18946 18945 1 103.70004 836.800000
18945 18947 18948 1 119.8800511 375.723200
18945 18947 18949 1 120.0200517 532.790560
18948 18947 18949 1 119.8800511 375.723200
18947 18949 18950 1 119.8800511 375.723200
18947 18949 18951 1 120.0200517 532.790560
18950 18949 18951 1 119.8800511 375.723200
18949 18951 18952 1 119.8800511 375.723200
18949 18951 18953 1 120.0200517 532.790560
18952 18951 18953 1 119.8800511 375.723200
18944 18953 18951 1 120.0200517 532.790560
18944 18953 18954 1 119.8800511 375.723200
18951 18953 18954 1 119.8800511 375.723200
18955 18956 18957 1 119.8800511 375.723200
18955 18956 18965 1 119.8800511 375.723200
18957 18956 18965 1 120.0200517 532.790560
18956 18957 18958 1 121.3800518 83.010560
18956 18957 18959 1 120.0200517 532.790560
18958 18957 18959 1 121.3800518 83.010560
4994 18958 4995 1 109.50000 418.400000
4994 18958 5969 1 109.50000 418.400000
4994 18958 18957 1 103.70004 836.800000
4995 18958 5969 1 109.50000 418.400000
4995 18958 18957 1 103.70004 836.800000
5969 18958 18957 1 103.70004 836.800000
18957 18959 18960 1 119.8800511 375.723200
18957 18959 18961 1 120.0200517 532.790560
18960 18959 18961 1 119.8800511 375.723200
18959 18961 18962 1 119.8800511 375.723200
18959 18961 18963 1 120.0200517 532.790560
18962 18961 18963 1 119.8800511 375.723200
18961 18963 18964 1 119.8800511 375.723200
18961 18963 18965 1 120.0200517 532.790560
18964 18963 18965 1 119.8800511 375.723200
18956 18965 18963 1 120.0200517 532.790560
18956 18965 18966 1 119.8800511 375.723200
18963 18965 18966 1 119.8800511 375.723200
18967 18968 18969 1 119.8800511 375.723200
18967 18968 18977 1 119.8800511 375.723200
18969 18968 18977 1 120.0200517 532.790560
18968 18969 18970 1 121.3800518 83.010560
18968 18969 18971 1 120.0200517 532.790560
18970 18969 18971 1 121.3800518 83.010560
1972 18970 5030 1 109.50000 418.400000
1972 18970 5031 1 109.50000 418.400000
1972 18970 18969 1 103.70004 836.800000
5030 18970 5031 1 109.50000 418.400000
5030 18970 18969 1 103.70004 836.800000
5031 18970 18969 1 103.70004 836.800000
18969 18971 18972 1 119.8800511 375.723200
18969 18971 18973 1 120.0200517 532.790560
18972 18971 18973 1 119.8800511 375.723200
18971 18973 18974 1 119.8800511 375.723200
18971 18973 18975 1 120.0200517 532.790560
18974 18973 18975 1 119.8800511 375.723200
18973 18975 18976 1 119.8800511 375.723200
18973 18975 18977 1 120.0200517 532.790560
18976 18975 18977 1 119.8800511 375.723200
18968 18977 18975 1 120.0200517 532.790560
18968 18977 18978 1 119.8800511 375.723200
18975 18977 18978 1 119.8800511 375.723200
18979 18980 18981 1 119.8800511 375.723200
18979 18980 18989 1 119.8800511 375.723200
18981 18980 18989 1 120.0200517 532.790560
18980 18981 18982 1 121.3800518 83.010560
18980 18981 18983 1 120.0200517 532.790560
18982 18981 18983 1 121.3800518 83.010560
2014 18982 5038 1 109.50000 418.400000
2014 18982 11222 1 109.50000 418.400000
2014 18982 18981 1 103.70004 836.800000
5038 18982 11222 1 109.50000 418.400000
5038 18982 18981 1 103.70004 836.800000
11222 18982 18981 1 103.70004 836.800000
18981 18983 18984 1 119.8800511 375.723200
18981 18983 18985 1 120.0200517 532.790560
18984 18983 18985 1 119.8800511 375.723200
18983 18985 18986 1 119.8800511 375.723200
18983 18985 18987 1 120.0200517 532.790560
18986 18985 18987 1 119.8800511 375.723200
18985 18987 18988 1 119.8800511 375.723200
18985 18987 18989 1 120.0200517 532.790560
18988 18987 18989 1 119.8800511 375.723200
18980 18989 18987 1 120.0200517 532.790560
18980 18989 18990 1 119.8800511 375.723200
18987 18989 18990 1 119.8800511 375.723200
18991 18992 18993 1 119.8800511 375.723200
18991 18992 19001 1 119.8800511 375.723200
18993 18992 19001 1 120.0200517 532.790560
18992 18993 18994 1 121.3800518 83.010560
18992 18993 18995 1 120.0200517 532.790560
18994 18993 18995 1 121.3800518 83.010560
5043 18994 5044 1 109.50000 418.400000
5043 18994 11223 1 109.50000 418.400000
5043 18994 18993 1 103.70004 836.800000
5044 18994 11223 1 109.50000 418.400000
5044 18994 18993 1 103.70004 836.800000
11223 18994 18993 1 103.70004 836.800000
18993 18995 18996 1 119.8800511 375.723200
18993 18995 18997 1 120.0200517 532.790560
18996 18995 18997 1 119.8800511 375.723200
18995 18997 18998 1 119.8800511 375.723200
18995 18997 18999 1 120.0200517 532.790560
18998 18997 18999 1 119.8800511 375.723200
18997 18999 19000 1 119.8800511 375.723200
18997 18999 19001 1 120.0200517 532.790560
19000 18999 19001 1 119.8800511 375.723200
18992 19001 18999 1 120.0200517 532.790560
18992 19001 19002 1 119.8800511 375.723200
18999 19001 19002 1 119.8800511 375.723200
19003 19004 19005 1 119.8800511 375.723200
19003 19004 19013 1 119.8800511 375.723200
19005 19004 19013 1 120.0200517 532.790560
19004 19005 19006 1 121.3800518 83.010560
19004 19005 19007 1 120.0200517 532.790560
19006 19005 19007 1 121.3800518 83.010560
654 19006 5054 1 109.50000 418.400000
654 19006 5055 1 109.50000 418.400000
654 19006 19005 1 103.70004 836.800000
5054 19006 5055 1 109.50000 418.400000
5054 19006 19005 1 103.70004 836.800000
5055 19006 19005 1 103.70004 836.800000
19005 19007 19008 1 119.8800511 375.723200
19005 19007 19009 1 120.0200517 532.790560
19008 19007 19009 1 119.8800511 375.723200
19007 19009 19010 1 119.8800511 375.723200
19007 19009 19011 1 120.0200517 532.790560
19010 19009 19011 1 119.8800511 375.723200
19009 19011 19012 1 119.8800511 375.723200
19009 19011 19013 1 120.0200517 532.790560
19012 19011 19013 1 119.8800511 375.723200
19004 19013 19011 1 120.0200517 532.790560
19004 19013 19014 1 119.8800511 375.723200
19011 19013 19014 1 119.8800511 375.723200
19015 19016 19017 1 119.8800511 375.723200
19015 19016 19025 1 119.8800511 375.723200
19017 19016 19025 1 120.0200517 532.790560
19016 19017 19018 1 121.3800518 83.010560
19016 19017 19019 1 120.0200517 532.790560
19018 19017 19019 1 121.3800518 83.010560
4709 19018 5104 1 109.50000 418.400000
4709 19018 5105 1 109.50000 418.400000
4709 19018 19017 1 103.70004 836.800000
5104 19018 5105 1 109.50000 418.400000
5104 19018 19017 1 103.70004 836.800000
5105 19018 19017 1 103.70004 836.800000
19017 19019 19020 1 119.8800511 375.723200
19017 19019 19021 1 120.0200517 532.790560
19020 19019 19021 1 119.8800511 375.723200
19019 19021 19022 1 119.8800511 375.723200
19019 19021 19023 1 120.0200517 532.790560
19022 19021 19023 1 119.8800511 375.723200
19021 19023 19024 1 119.8800511 375.723200
19021 19023 19025 1 120.0200517 532.790560
19024 19023 19025 1 119.8800511 375.723200
19016 19025 19023 1 120.0200517 532.790560
19016 19025 19026 1 119.8800511 375.723200
19023 19025 19026 1 119.8800511 375.723200
19027 19028 19029 1 119.8800511 375.723200
19027 19028 19037 1 119.8800511 375.723200
19029 19028 19037 1 120.0200517 532.790560
19028 19029 19030 1 121.3800518 83.010560
19028 19029 19031 1 120.0200517 532.790560
19030 19029 19031 1 121.3800518 83.010560
5130 19030 5131 1 109.50000 418.400000
5130 19030 5132 1 109.50000 418.400000
5130 19030 19029 1 103.70004 836.800000
5131 19030 5132 1 109.50000 418.400000
5131 19030 19029 1 103.70004 836.800000
5132 19030 19029 1 103.70004 836.800000
19029 19031 19032 1 119.8800511 375.723200
19029 19031 19033 1 120.0200517 532.790560
19032 19031 19033 1 119.8800511 375.723200
19031 19033 19034 1 119.8800511 375.723200
19031 19033 19035 1 120.0200517 532.790560
19034 19033 19035 1 119.8800511 375.723200
19033 19035 19036 1 119.8800511 375.723200
19033 19035 19037 1 120.0200517 532.790560
19036 19035 19037 1 119.8800511 375.723200
19028 19037 19035 1 120.0200517 532.790560
19028 19037 19038 1 119.8800511 375.723200
19035 19037 19038 1 119.8800511 375.723200
19039 19040 19041 1 119.8800511 375.723200
19039 19040 19049 1 119.8800511 375.723200
19041 19040 19049 1 120.0200517 532.790560
19040 19041 19042 1 121.3800518 83.010560
19040 19041 19043 1 120.0200517 532.790560
19042 19041 19043 1 121.3800518 83.010560
5135 19042 5136 1 109.50000 418.400000
5135 19042 9621 1 109.50000 418.400000
5135 19042 19041 1 103.70004 836.800000
5136 19042 9621 1 109.50000 418.400000
5136 19042 19041 1 103.70004 836.800000
9621 19042 19041 1 103.70004 836.800000
19041 19043 19044 1 119.8800511 375.723200
19041 19043 19045 1 120.0200517 532.790560
19044 19043 19045 1 119.8800511 375.723200
19043 19045 19046 1 119.8800511 375.723200
19043 19045 19047 1 120.0200517 532.790560
19046 19045 19047 1 119.8800511 375.723200
19045 19047 19048 1 119.8800511 375.723200
19045 19047 19049 1 120.0200517 532.790560
19048 19047 19049 1 119.8800511 375.723200
19040 19049 19047 1 120.0200517 532.790560
19040 19049 19050 1 119.8800511 375.723200
19047 19049 19050 1 119.8800511 375.723200
19051 19052 19053 1 119.8800511 375.723200
19051 19052 19061 1 119.8800511 375.723200
19053 19052 19061 1 120.0200517 532.790560
19052 19053 19054 1 121.3800518 83.010560
19052 19053 19055 1 120.0200517 532.790560
19054 19053 19055 1 121.3800518 83.010560
5141 19054 5142 1 109.50000 418.400000
5141 19054 5143 1 109.50000 418.400000
5141 19054 19053 1 103.70004 836.800000
5142 19054 5143 1 109.50000 418.400000
5142 19054 19053 1 103.70004 836.800000
5143 19054 19053 1 103.70004 836.800000
19053 19055 19056 1 119.8800511 375.723200
19053 19055 19057 1 120.0200517 532.790560
19056 19055 19057 1 119.8800511 375.723200
19055 19057 19058 1 119.8800511 375.723200
19055 19057 19059 1 120.0200517 532.790560
19058 19057 19059 1 119.8800511 375.723200
19057 19059 19060 1 119.8800511 375.723200
19057 19059 19061 1 120.0200517 532.790560
19060 19059 19061 1 119.8800511 375.723200
19052 19061 19059 1 120.0200517 532.790560
19052 19061 19062 1 119.8800511 375.723200
19059 19061 19062 1 119.8800511 375.723200
19063 19064 19065 1 119.8800511 375.723200
19063 19064 19073 1 119.8800511 375.723200
19065 19064 19073 1 120.0200517 532.790560
19064 19065 19066 1 121.3800518 83.010560
19064 19065 19067 1 120.0200517 532.790560
19066 19065 19067 1 121.3800518 83.010560
1864 19066 1987 1 109.50000 418.400000
1864 19066 11224 1 109.50000 418.400000
1864 19066 19065 1 103.70004 836.800000
1987 19066 11224 1 109.50000 418.400000
1987 19066 19065 1 103.70004 836.800000
11224 19066 19065 1 103.70004 836.800000
19065 19067 19068 1 119.8800511 375.723200
19065 19067 19069 1 120.0200517 532.790560
19068 19067 19069 1 119.8800511 375.723200
19067 19069 19070 1 119.8800511 375.723200
19067 19069 19071 1 120.0200517 532.790560
19070 19069 19071 1 119.8800511 375.723200
19069 19071 19072 1 119.8800511 375.723200
19069 19071 19073 1 120.0200517 532.790560
19072 19071 19073 1 119.8800511 375.723200
19064 19073 19071 1 120.0200517 532.790560
19064 19073 19074 1 119.8800511 375.723200
19071 19073 19074 1 119.8800511 375.723200
19075 19076 19077 1 119.8800511 375.723200
19075 19076 19085 1 119.8800511 375.723200
19077 19076 19085 1 120.0200517 532.790560
19076 19077 19078 1 121.3800518 83.010560
19076 19077 19079 1 120.0200517 532.790560
19078 19077 19079 1 121.3800518 83.010560
2443 19078 5172 1 109.50000 418.400000
2443 19078 11225 1 109.50000 418.400000
2443 19078 19077 1 103.70004 836.800000
5172 19078 11225 1 109.50000 418.400000
5172 19078 19077 1 103.70004 836.800000
11225 19078 19077 1 103.70004 836.800000
19077 19079 19080 1 119.8800511 375.723200
19077 19079 19081 1 120.0200517 532.790560
19080 19079 19081 1 119.8800511 375.723200
19079 19081 19082 1 119.8800511 375.723200
19079 19081 19083 1 120.0200517 532.790560
19082 19081 19083 1 119.8800511 375.723200
19081 19083 19084 1 119.8800511 375.723200
19081 19083 19085 1 120.0200517 532.790560
19084 19083 19085 1 119.8800511 375.723200
19076 19085 19083 1 120.0200517 532.790560
19076 19085 19086 1 119.8800511 375.723200
19083 19085 19086 1 119.8800511 375.723200
19087 19088 19089 1 119.8800511 375.723200
19087 19088 19097 1 119.8800511 375.723200
19089 19088 19097 1 120.0200517 532.790560
19088 19089 19090 1 121.3800518 83.010560
19088 19089 19091 1 120.0200517 532.790560
19090 19089 19091 1 121.3800518 83.010560
5173 19090 5174 1 109.50000 418.400000
5173 19090 11226 1 109.50000 418.400000
5173 19090 19089 1 103.70004 836.800000
5174 19090 11226 1 109.50000 418.400000
5174 19090 19089 1 103.70004 836.800000
11226 19090 19089 1 103.70004 836.800000
19089 19091 19092 1 119.8800511 375.723200
19089 19091 19093 1 120.0200517 532.790560
19092 19091 19093 1 119.8800511 375.723200
19091 19093 19094 1 119.8800511 375.723200
19091 19093 19095 1 120.0200517 532.790560
19094 19093 19095 1 119.8800511 375.723200
19093 19095 19096 1 119.8800511 375.723200
19093 19095 19097 1 120.0200517 532.790560
19096 19095 19097 1 119.8800511 375.723200
19088 19097 19095 1 120.0200517 532.790560
19088 19097 19098 1 119.8800511 375.723200
19095 19097 19098 1 119.8800511 375.723200
19099 19100 19101 1 119.8800511 375.723200
19099 19100 19109 1 119.8800511 375.723200
19101 19100 19109 1 120.0200517 532.790560
19100 19101 19102 1 121.3800518 83.010560
19100 19101 19103 1 120.0200517 532.790560
19102 19101 19103 1 121.3800518 83.010560
1643 19102 5134 1 109.50000 418.400000
1643 19102 5221 1 109.50000 418.400000
1643 19102 19101 1 103.70004 836.800000
5134 19102 5221 1 109.50000 418.400000
5134 19102 19101 1 103.70004 836.800000
5221 19102 19101 1 103.70004 836.800000
19101 19103 19104 1 119.8800511 375.723200
19101 19103 19105 1 120.0200517 532.790560
19104 19103 19105 1 119.8800511 375.723200
19103 19105 19106 1 119.8800511 375.723200
19103 19105 19107 1 120.0200517 532.790560
19106 19105 19107 1 119.8800511 375.723200
19105 19107 19108 1 119.8800511 375.723200
19105 19107 19109 1 120.0200517 532.790560
19108 19107 19109 1 119.8800511 375.723200
19100 19109 19107 1 120.0200517 532.790560
19100 19109 19110 1 119.8800511 375.723200
19107 19109 19110 1 119.8800511 375.723200
19111 19112 19113 1 119.8800511 375.723200
19111 19112 19121 1 119.8800511 375.723200
19113 19112 19121 1 120.0200517 532.790560
19112 19113 19114 1 121.3800518 83.010560
19112 19113 19115 1 120.0200517 532.790560
19114 19113 19115 1 121.3800518 83.010560
1288 19114 5234 1 109.50000 418.400000
1288 19114 5235 1 109.50000 418.400000
1288 19114 19113 1 103.70004 836.800000
5234 19114 5235 1 109.50000 418.400000
5234 19114 19113 1 103.70004 836.800000
5235 19114 19113 1 103.70004 836.800000
19113 19115 19116 1 119.8800511 375.723200
19113 19115 19117 1 120.0200517 532.790560
19116 19115 19117 1 119.8800511 375.723200
19115 19117 19118 1 119.8800511 375.723200
19115 19117 19119 1 120.0200517 532.790560
19118 19117 19119 1 119.8800511 375.723200
19117 19119 19120 1 119.8800511 375.723200
19117 19119 19121 1 120.0200517 532.790560
19120 19119 19121 1 119.8800511 375.723200
19112 19121 19119 1 120.0200517 532.790560
19112 19121 19122 1 119.8800511 375.723200
19119 19121 19122 1 119.8800511 375.723200
19123 19124 19125 1 119.8800511 375.723200
19123 19124 19133 1 119.8800511 375.723200
19125 19124 19133 1 120.0200517 532.790560
19124 19125 19126 1 121.3800518 83.010560
19124 19125 19127 1 120.0200517 532.790560
19126 19125 19127 1 121.3800518 83.010560
356 19126 5260 1 109.50000 418.400000
356 19126 5261 1 109.50000 418.400000
356 19126 19125 1 103.70004 836.800000
5260 19126 5261 1 109.50000 418.400000
5260 19126 19125 1 103.70004 836.800000
5261 19126 19125 1 103.70004 836.800000
19125 19127 19128 1 119.8800511 375.723200
19125 19127 19129 1 120.0200517 532.790560
19128 19127 19129 1 119.8800511 375.723200
19127 19129 19130 1 119.8800511 375.723200
19127 19129 19131 1 120.0200517 532.790560
19130 19129 19131 1 119.8800511 375.723200
19129 19131 19132 1 119.8800511 375.723200
19129 19131 19133 1 120.0200517 532.790560
19132 19131 19133 1 119.8800511 375.723200
19124 19133 19131 1 120.0200517 532.790560
19124 19133 19134 1 119.8800511 375.723200
19131 19133 19134 1 119.8800511 375.723200
19135 19136 19137 1 119.8800511 375.723200
19135 19136 19145 1 119.8800511 375.723200
19137 19136 19145 1 120.0200517 532.790560
19136 19137 19138 1 121.3800518 83.010560
19136 19137 19139 1 120.0200517 532.790560
19138 19137 19139 1 121.3800518 83.010560
5298 19138 5299 1 109.50000 418.400000
5298 19138 11227 1 109.50000 418.400000
5298 19138 19137 1 103.70004 836.800000
5299 19138 11227 1 109.50000 418.400000
5299 19138 19137 1 103.70004 836.800000
11227 19138 19137 1 103.70004 836.800000
19137 19139 19140 1 119.8800511 375.723200
19137 19139 19141 1 120.0200517 532.790560
19140 19139 19141 1 119.8800511 375.723200
19139 19141 19142 1 119.8800511 375.723200
19139 19141 19143 1 120.0200517 532.790560
19142 19141 19143 1 119.8800511 375.723200
19141 19143 19144 1 119.8800511 375.723200
19141 19143 19145 1 120.0200517 532.790560
19144 19143 19145 1 119.8800511 375.723200
19136 19145 19143 1 120.0200517 532.790560
19136 19145 19146 1 119.8800511 375.723200
19143 19145 19146 1 119.8800511 375.723200
19147 19148 19149 1 119.8800511 375.723200
19147 19148 19157 1 119.8800511 375.723200
19149 19148 19157 1 120.0200517 532.790560
19148 19149 19150 1 121.3800518 83.010560
19148 19149 19151 1 120.0200517 532.790560
19150 19149 19151 1 121.3800518 83.010560
5324 19150 5325 1 109.50000 418.400000
5324 19150 11228 1 109.50000 418.400000
5324 19150 19149 1 103.70004 836.800000
5325 19150 11228 1 109.50000 418.400000
5325 19150 19149 1 103.70004 836.800000
11228 19150 19149 1 103.70004 836.800000
19149 19151 19152 1 119.8800511 375.723200
19149 19151 19153 1 120.0200517 532.790560
19152 19151 19153 1 119.8800511 375.723200
19151 19153 19154 1 119.8800511 375.723200
19151 19153 19155 1 120.0200517 532.790560
19154 19153 19155 1 119.8800511 375.723200
19153 19155 19156 1 119.8800511 375.723200
19153 19155 19157 1 120.0200517 532.790560
19156 19155 19157 1 119.8800511 375.723200
19148 19157 19155 1 120.0200517 532.790560
19148 19157 19158 1 119.8800511 375.723200
19155 19157 19158 1 119.8800511 375.723200
19159 19160 19161 1 119.8800511 375.723200
19159 19160 19169 1 119.8800511 375.723200
19161 19160 19169 1 120.0200517 532.790560
19160 19161 19162 1 121.3800518 83.010560
19160 19161 19163 1 120.0200517 532.790560
19162 19161 19163 1 121.3800518 83.010560
5019 19162 5344 1 109.50000 418.400000
5019 19162 11229 1 109.50000 418.400000
5019 19162 19161 1 103.70004 836.800000
5344 19162 11229 1 109.50000 418.400000
5344 19162 19161 1 103.70004 836.800000
11229 19162 19161 1 103.70004 836.800000
19161 19163 19164 1 119.8800511 375.723200
19161 19163 19165 1 120.0200517 532.790560
19164 19163 19165 1 119.8800511 375.723200
19163 19165 19166 1 119.8800511 375.723200
19163 19165 19167 1 120.0200517 532.790560
19166 19165 19167 1 119.8800511 375.723200
19165 19167 19168 1 119.8800511 375.723200
19165 19167 19169 1 120.0200517 532.790560
19168 19167 19169 1 119.8800511 375.723200
19160 19169 19167 1 120.0200517 532.790560
19160 19169 19170 1 119.8800511 375.723200
19167 19169 19170 1 119.8800511 375.723200
19171 19172 19173 1 119.8800511 375.723200
19171 19172 19181 1 119.8800511 375.723200
19173 19172 19181 1 120.0200517 532.790560
19172 19173 19174 1 121.3800518 83.010560
19172 19173 19175 1 120.0200517 532.790560
19174 19173 19175 1 121.3800518 83.010560
940 19174 5352 1 109.50000 418.400000
940 19174 11230 1 109.50000 418.400000
940 19174 19173 1 103.70004 836.800000
5352 19174 11230 1 109.50000 418.400000
5352 19174 19173 1 103.70004 836.800000
11230 19174 19173 1 103.70004 836.800000
19173 19175 19176 1 119.8800511 375.723200
19173 19175 19177 1 120.0200517 532.790560
19176 19175 19177 1 119.8800511 375.723200
19175 19177 19178 1 119.8800511 375.723200
19175 19177 19179 1 120.0200517 532.790560
19178 19177 19179 1 119.8800511 375.723200
19177 19179 19180 1 119.8800511 375.723200
19177 19179 19181 1 120.0200517 532.790560
19180 19179 19181 1 119.8800511 375.723200
19172 19181 19179 1 120.0200517 532.790560
19172 19181 19182 1 119.8800511 375.723200
19179 19181 19182 1 119.8800511 375.723200
19183 19184 19185 1 119.8800511 375.723200
19183 19184 19193 1 119.8800511 375.723200
19185 19184 19193 1 120.0200517 532.790560
19184 19185 19186 1 121.3800518 83.010560
19184 19185 19187 1 120.0200517 532.790560
19186 19185 19187 1 121.3800518 83.010560
3034 19186 4956 1 109.50000 418.400000
3034 19186 5353 1 109.50000 418.400000
3034 19186 19185 1 103.70004 836.800000
4956 19186 5353 1 109.50000 418.400000
4956 19186 19185 1 103.70004 836.800000
5353 19186 19185 1 103.70004 836.800000
19185 19187 19188 1 119.8800511 375.723200
19185 19187 19189 1 120.0200517 532.790560
19188 19187 19189 1 119.8800511 375.723200
19187 19189 19190 1 119.8800511 375.723200
19187 19189 19191 1 120.0200517 532.790560
19190 19189 19191 1 119.8800511 375.723200
19189 19191 19192 1 119.8800511 375.723200
19189 19191 19193 1 120.0200517 532.790560
19192 19191 19193 1 119.8800511 375.723200
19184 19193 19191 1 120.0200517 532.790560
19184 19193 19194 1 119.8800511 375.723200
19191 19193 19194 1 119.8800511 375.723200
19195 19196 19197 1 119.8800511 375.723200
19195 19196 19205 1 119.8800511 375.723200
19197 19196 19205 1 120.0200517 532.790560
19196 19197 19198 1 121.3800518 83.010560
19196 19197 19199 1 120.0200517 532.790560
19198 19197 19199 1 121.3800518 83.010560
1526 19198 5356 1 109.50000 418.400000
1526 19198 11231 1 109.50000 418.400000
1526 19198 19197 1 103.70004 836.800000
5356 19198 11231 1 109.50000 418.400000
5356 19198 19197 1 103.70004 836.800000
11231 19198 19197 1 103.70004 836.800000
19197 19199 19200 1 119.8800511 375.723200
19197 19199 19201 1 120.0200517 532.790560
19200 19199 19201 1 119.8800511 375.723200
19199 19201 19202 1 119.8800511 375.723200
19199 19201 19203 1 120.0200517 532.790560
19202 19201 19203 1 119.8800511 375.723200
19201 19203 19204 1 119.8800511 375.723200
19201 19203 19205 1 120.0200517 532.790560
19204 19203 19205 1 119.8800511 375.723200
19196 19205 19203 1 120.0200517 532.790560
19196 19205 19206 1 119.8800511 375.723200
19203 19205 19206 1 119.8800511 375.723200
19207 19208 19209 1 119.8800511 375.723200
19207 19208 19217 1 119.8800511 375.723200
19209 19208 19217 1 120.0200517 532.790560
19208 19209 19210 1 121.3800518 83.010560
19208 19209 19211 1 120.0200517 532.790560
19210 19209 19211 1 121.3800518 83.010560
5373 19210 5374 1 109.50000 418.400000
5373 19210 11232 1 109.50000 418.400000
5373 19210 19209 1 103.70004 836.800000
5374 19210 11232 1 109.50000 418.400000
5374 19210 19209 1 103.70004 836.800000
11232 19210 19209 1 103.70004 836.800000
19209 19211 19212 1 119.8800511 375.723200
19209 19211 19213 1 120.0200517 532.790560
19212 19211 19213 1 119.8800511 375.723200
19211 19213 19214 1 119.8800511 375.723200
19211 19213 19215 1 120.0200517 532.790560
19214 19213 19215 1 119.8800511 375.723200
19213 19215 19216 1 119.8800511 375.723200
19213 19215 19217 1 120.0200517 532.790560
19216 19215 19217 1 119.8800511 375.723200
19208 19217 19215 1 120.0200517 532.790560
19208 19217 19218 1 119.8800511 375.723200
19215 19217 19218 1 119.8800511 375.723200
19219 19220 19221 1 119.8800511 375.723200
19219 19220 19229 1 119.8800511 375.723200
19221 19220 19229 1 120.0200517 532.790560
19220 19221 19222 1 121.3800518 83.010560
19220 19221 19223 1 120.0200517 532.790560
19222 19221 19223 1 121.3800518 83.010560
3301 19222 5391 1 109.50000 418.400000
3301 19222 5392 1 109.50000 418.400000
3301 19222 19221 1 103.70004 836.800000
5391 19222 5392 1 109.50000 418.400000
5391 19222 19221 1 103.70004 836.800000
5392 19222 19221 1 103.70004 836.800000
19221 19223 19224 1 119.8800511 375.723200
19221 19223 19225 1 120.0200517 532.790560
19224 19223 19225 1 119.8800511 375.723200
19223 19225 19226 1 119.8800511 375.723200
19223 19225 19227 1 120.0200517 532.790560
19226 19225 19227 1 119.8800511 375.723200
19225 19227 19228 1 119.8800511 375.723200
19225 19227 19229 1 120.0200517 532.790560
19228 19227 19229 1 119.8800511 375.723200
19220 19229 19227 1 120.0200517 532.790560
19220 19229 19230 1 119.8800511 375.723200
19227 19229 19230 1 119.8800511 375.723200
19231 19232 19233 1 119.8800511 375.723200
19231 19232 19241 1 119.8800511 375.723200
19233 19232 19241 1 120.0200517 532.790560
19232 19233 19234 1 121.3800518 83.010560
19232 19233 19235 1 120.0200517 532.790560
19234 19233 19235 1 121.3800518 83.010560
5393 19234 5394 1 109.50000 418.400000
5393 19234 11233 1 109.50000 418.400000
5393 19234 19233 1 103.70004 836.800000
5394 19234 11233 1 109.50000 418.400000
5394 19234 19233 1 103.70004 836.800000
11233 19234 19233 1 103.70004 836.800000
19233 19235 19236 1 119.8800511 375.723200
19233 19235 19237 1 120.0200517 532.790560
19236 19235 19237 1 119.8800511 375.723200
19235 19237 19238 1 119.8800511 375.723200
19235 19237 19239 1 120.0200517 532.790560
19238 19237 19239 1 119.8800511 375.723200
19237 19239 19240 1 119.8800511 375.723200
19237 19239 19241 1 120.0200517 532.790560
19240 19239 19241 1 119.8800511 375.723200
19232 19241 19239 1 120.0200517 532.790560
19232 19241 19242 1 119.8800511 375.723200
19239 19241 19242 1 119.8800511 375.723200
19243 19244 19245 1 119.8800511 375.723200
19243 19244 19253 1 119.8800511 375.723200
19245 19244 19253 1 120.0200517 532.790560
19244 19245 19246 1 121.3800518 83.010560
19244 19245 19247 1 120.0200517 532.790560
19246 19245 19247 1 121.3800518 83.010560
1414 19246 4971 1 109.50000 418.400000
1414 19246 11234 1 109.50000 418.400000
1414 19246 19245 1 103.70004 836.800000
4971 19246 11234 1 109.50000 418.400000
4971 19246 19245 1 103.70004 836.800000
11234 19246 19245 1 103.70004 836.800000
19245 19247 19248 1 119.8800511 375.723200
19245 19247 19249 1 120.0200517 532.790560
19248 19247 19249 1 119.8800511 375.723200
19247 19249 19250 1 119.8800511 375.723200
19247 19249 19251 1 120.0200517 532.790560
19250 19249 19251 1 119.8800511 375.723200
19249 19251 19252 1 119.8800511 375.723200
19249 19251 19253 1 120.0200517 532.790560
19252 19251 19253 1 119.8800511 375.723200
19244 19253 19251 1 120.0200517 532.790560
19244 19253 19254 1 119.8800511 375.723200
19251 19253 19254 1 119.8800511 375.723200
19255 19256 19257 1 119.8800511 375.723200
19255 19256 19265 1 119.8800511 375.723200
19257 19256 19265 1 120.0200517 532.790560
19256 19257 19258 1 121.3800518 83.010560
19256 19257 19259 1 120.0200517 532.790560
19258 19257 19259 1 121.3800518 83.010560
4427 19258 5427 1 109.50000 418.400000
4427 19258 5428 1 109.50000 418.400000
4427 19258 19257 1 103.70004 836.800000
5427 19258 5428 1 109.50000 418.400000
5427 19258 19257 1 103.70004 836.800000
5428 19258 19257 1 103.70004 836.800000
19257 19259 19260 1 119.8800511 375.723200
19257 19259 19261 1 120.0200517 532.790560
19260 19259 19261 1 119.8800511 375.723200
19259 19261 19262 1 119.8800511 375.723200
19259 19261 19263 1 120.0200517 532.790560
19262 19261 19263 1 119.8800511 375.723200
19261 19263 19264 1 119.8800511 375.723200
19261 19263 19265 1 120.0200517 532.790560
19264 19263 19265 1 119.8800511 375.723200
19256 19265 19263 1 120.0200517 532.790560
19256 19265 19266 1 119.8800511 375.723200
19263 19265 19266 1 119.8800511 375.723200
19267 19268 19269 1 119.8800511 375.723200
19267 19268 19277 1 119.8800511 375.723200
19269 19268 19277 1 120.0200517 532.790560
19268 19269 19270 1 121.3800518 83.010560
19268 19269 19271 1 120.0200517 532.790560
19270 19269 19271 1 121.3800518 83.010560
5467 19270 5468 1 109.50000 418.400000
5467 19270 5469 1 109.50000 418.400000
5467 19270 19269 1 103.70004 836.800000
5468 19270 5469 1 109.50000 418.400000
5468 19270 19269 1 103.70004 836.800000
5469 19270 19269 1 103.70004 836.800000
19269 19271 19272 1 119.8800511 375.723200
19269 19271 19273 1 120.0200517 532.790560
19272 19271 19273 1 119.8800511 375.723200
19271 19273 19274 1 119.8800511 375.723200
19271 19273 19275 1 120.0200517 532.790560
19274 19273 19275 1 119.8800511 375.723200
19273 19275 19276 1 119.8800511 375.723200
19273 19275 19277 1 120.0200517 532.790560
19276 19275 19277 1 119.8800511 375.723200
19268 19277 19275 1 120.0200517 532.790560
19268 19277 19278 1 119.8800511 375.723200
19275 19277 19278 1 119.8800511 375.723200
19279 19280 19281 1 119.8800511 375.723200
19279 19280 19289 1 119.8800511 375.723200
19281 19280 19289 1 120.0200517 532.790560
19280 19281 19282 1 121.3800518 83.010560
19280 19281 19283 1 120.0200517 532.790560
19282 19281 19283 1 121.3800518 83.010560
4589 19282 5472 1 109.50000 418.400000
4589 19282 5473 1 109.50000 418.400000
4589 19282 19281 1 103.70004 836.800000
5472 19282 5473 1 109.50000 418.400000
5472 19282 19281 1 103.70004 836.800000
5473 19282 19281 1 103.70004 836.800000
19281 19283 19284 1 119.8800511 375.723200
19281 19283 19285 1 120.0200517 532.790560
19284 19283 19285 1 119.8800511 375.723200
19283 19285 19286 1 119.8800511 375.723200
19283 19285 19287 1 120.0200517 532.790560
19286 19285 19287 1 119.8800511 375.723200
19285 19287 19288 1 119.8800511 375.723200
19285 19287 19289 1 120.0200517 532.790560
19288 19287 19289 1 119.8800511 375.723200
19280 19289 19287 1 120.0200517 532.790560
19280 19289 19290 1 119.8800511 375.723200
19287 19289 19290 1 119.8800511 375.723200
19291 19292 19293 1 119.8800511 375.723200
19291 19292 19301 1 119.8800511 375.723200
19293 19292 19301 1 120.0200517 532.790560
19292 19293 19294 1 121.3800518 83.010560
19292 19293 19295 1 120.0200517 532.790560
19294 19293 19295 1 121.3800518 83.010560
5496 19294 5497 1 109.50000 418.400000
5496 19294 5498 1 109.50000 418.400000
5496 19294 19293 1 103.70004 836.800000
5497 19294 5498 1 109.50000 418.400000
5497 19294 19293 1 103.70004 836.800000
5498 19294 19293 1 103.70004 836.800000
19293 19295 19296 1 119.8800511 375.723200
19293 19295 19297 1 120.0200517 532.790560
19296 19295 19297 1 119.8800511 375.723200
19295 19297 19298 1 119.8800511 375.723200
19295 19297 19299 1 120.0200517 532.790560
19298 19297 19299 1 119.8800511 375.723200
19297 19299 19300 1 119.8800511 375.723200
19297 19299 19301 1 120.0200517 532.790560
19300 19299 19301 1 119.8800511 375.723200
19292 19301 19299 1 120.0200517 532.790560
19292 19301 19302 1 119.8800511 375.723200
19299 19301 19302 1 119.8800511 375.723200
19303 19304 19305 1 119.8800511 375.723200
19303 19304 19313 1 119.8800511 375.723200
19305 19304 19313 1 120.0200517 532.790560
19304 19305 19306 1 121.3800518 83.010560
19304 19305 19307 1 120.0200517 532.790560
19306 19305 19307 1 121.3800518 83.010560
5501 19306 5502 1 109.50000 418.400000
5501 19306 5503 1 109.50000 418.400000
5501 19306 19305 1 103.70004 836.800000
5502 19306 5503 1 109.50000 418.400000
5502 19306 19305 1 103.70004 836.800000
5503 19306 19305 1 103.70004 836.800000
19305 19307 19308 1 119.8800511 375.723200
19305 19307 19309 1 120.0200517 532.790560
19308 19307 19309 1 119.8800511 375.723200
19307 19309 19310 1 119.8800511 375.723200
19307 19309 19311 1 120.0200517 532.790560
19310 19309 19311 1 119.8800511 375.723200
19309 19311 19312 1 119.8800511 375.723200
19309 19311 19313 1 120.0200517 532.790560
19312 19311 19313 1 119.8800511 375.723200
19304 19313 19311 1 120.0200517 532.790560
19304 19313 19314 1 119.8800511 375.723200
19311 19313 19314 1 119.8800511 375.723200
19315 19316 19317 1 119.8800511 375.723200
19315 19316 19325 1 119.8800511 375.723200
19317 19316 19325 1 120.0200517 532.790560
19316 19317 19318 1 121.3800518 83.010560
19316 19317 19319 1 120.0200517 532.790560
19318 19317 19319 1 121.3800518 83.010560
1387 19318 3539 1 109.50000 418.400000
1387 19318 5516 1 109.50000 418.400000
1387 19318 19317 1 103.70004 836.800000
3539 19318 5516 1 109.50000 418.400000
3539 19318 19317 1 103.70004 836.800000
5516 19318 19317 1 103.70004 836.800000
19317 19319 19320 1 119.8800511 375.723200
19317 19319 19321 1 120.0200517 532.790560
19320 19319 19321 1 119.8800511 375.723200
19319 19321 19322 1 119.8800511 375.723200
19319 19321 19323 1 120.0200517 532.790560
19322 19321 19323 1 119.8800511 375.723200
19321 19323 19324 1 119.8800511 375.723200
19321 19323 19325 1 120.0200517 532.790560
19324 19323 19325 1 119.8800511 375.723200
19316 19325 19323 1 120.0200517 532.790560
19316 19325 19326 1 119.8800511 375.723200
19323 19325 19326 1 119.8800511 375.723200
19327 19328 19329 1 119.8800511 375.723200
19327 19328 19337 1 119.8800511 375.723200
19329 19328 19337 1 120.0200517 532.790560
19328 19329 19330 1 121.3800518 83.010560
19328 19329 19331 1 120.0200517 532.790560
19330 19329 19331 1 121.3800518 83.010560
5172 19330 5526 1 109.50000 418.400000
5172 19330 5527 1 109.50000 418.400000
5172 19330 19329 1 103.70004 836.800000
5526 19330 5527 1 109.50000 418.400000
5526 19330 19329 1 103.70004 836.800000
5527 19330 19329 1 103.70004 836.800000
19329 19331 19332 1 119.8800511 375.723200
19329 19331 19333 1 120.0200517 532.790560
19332 19331 19333 1 119.8800511 375.723200
19331 19333 19334 1 119.8800511 375.723200
19331 19333 19335 1 120.0200517 532.790560
19334 19333 19335 1 119.8800511 375.723200
19333 19335 19336 1 119.8800511 375.723200
19333 19335 19337 1 120.0200517 532.790560
19336 19335 19337 1 119.8800511 375.723200
19328 19337 19335 1 120.0200517 532.790560
19328 19337 19338 1 119.8800511 375.723200
19335 19337 19338 1 119.8800511 375.723200
19339 19340 19341 1 119.8800511 375.723200
19339 19340 19349 1 119.8800511 375.723200
19341 19340 19349 1 120.0200517 532.790560
19340 19341 19342 1 121.3800518 83.010560
19340 19341 19343 1 120.0200517 532.790560
19342 19341 19343 1 121.3800518 83.010560
742 19342 5551 1 109.50000 418.400000
742 19342 5552 1 109.50000 418.400000
742 19342 19341 1 103.70004 836.800000
5551 19342 5552 1 109.50000 418.400000
5551 19342 19341 1 103.70004 836.800000
5552 19342 19341 1 103.70004 836.800000
19341 19343 19344 1 119.8800511 375.723200
19341 19343 19345 1 120.0200517 532.790560
19344 19343 19345 1 119.8800511 375.723200
19343 19345 19346 1 119.8800511 375.723200
19343 19345 19347 1 120.0200517 532.790560
19346 19345 19347 1 119.8800511 375.723200
19345 19347 19348 1 119.8800511 375.723200
19345 19347 19349 1 120.0200517 532.790560
19348 19347 19349 1 119.8800511 375.723200
19340 19349 19347 1 120.0200517 532.790560
19340 19349 19350 1 119.8800511 375.723200
19347 19349 19350 1 119.8800511 375.723200
19351 19352 19353 1 119.8800511 375.723200
19351 19352 19361 1 119.8800511 375.723200
19353 19352 19361 1 120.0200517 532.790560
19352 19353 19354 1 121.3800518 83.010560
19352 19353 19355 1 120.0200517 532.790560
19354 19353 19355 1 121.3800518 83.010560
1329 19354 1330 1 109.50000 418.400000
1329 19354 2716 1 109.50000 418.400000
1329 19354 19353 1 103.70004 836.800000
1330 19354 2716 1 109.50000 418.400000
1330 19354 19353 1 103.70004 836.800000
2716 19354 19353 1 103.70004 836.800000
19353 19355 19356 1 119.8800511 375.723200
19353 19355 19357 1 120.0200517 532.790560
19356 19355 19357 1 119.8800511 375.723200
19355 19357 19358 1 119.8800511 375.723200
19355 19357 19359 1 120.0200517 532.790560
19358 19357 19359 1 119.8800511 375.723200
19357 19359 19360 1 119.8800511 375.723200
19357 19359 19361 1 120.0200517 532.790560
19360 19359 19361 1 119.8800511 375.723200
19352 19361 19359 1 120.0200517 532.790560
19352 19361 19362 1 119.8800511 375.723200
19359 19361 19362 1 119.8800511 375.723200
19363 19364 19365 1 119.8800511 375.723200
19363 19364 19373 1 119.8800511 375.723200
19365 19364 19373 1 120.0200517 532.790560
19364 19365 19366 1 121.3800518 83.010560
19364 19365 19367 1 120.0200517 532.790560
19366 19365 19367 1 121.3800518 83.010560
3847 19366 5572 1 109.50000 418.400000
3847 19366 5573 1 109.50000 418.400000
3847 19366 19365 1 103.70004 836.800000
5572 19366 5573 1 109.50000 418.400000
5572 19366 19365 1 103.70004 836.800000
5573 19366 19365 1 103.70004 836.800000
19365 19367 19368 1 119.8800511 375.723200
19365 19367 19369 1 120.0200517 532.790560
19368 19367 19369 1 119.8800511 375.723200
19367 19369 19370 1 119.8800511 375.723200
19367 19369 19371 1 120.0200517 532.790560
19370 19369 19371 1 119.8800511 375.723200
19369 19371 19372 1 119.8800511 375.723200
19369 19371 19373 1 120.0200517 532.790560
19372 19371 19373 1 119.8800511 375.723200
19364 19373 19371 1 120.0200517 532.790560
19364 19373 19374 1 119.8800511 375.723200
19371 19373 19374 1 119.8800511 375.723200
19375 19376 19377 1 119.8800511 375.723200
19375 19376 19385 1 119.8800511 375.723200
19377 19376 19385 1 120.0200517 532.790560
19376 19377 19378 1 121.3800518 83.010560
19376 19377 19379 1 120.0200517 532.790560
19378 19377 19379 1 121.3800518 83.010560
2431 19378 5578 1 109.50000 418.400000
2431 19378 11237 1 109.50000 418.400000
2431 19378 19377 1 103.70004 836.800000
5578 19378 11237 1 109.50000 418.400000
5578 19378 19377 1 103.70004 836.800000
11237 19378 19377 1 103.70004 836.800000
19377 19379 19380 1 119.8800511 375.723200
19377 19379 19381 1 120.0200517 532.790560
19380 19379 19381 1 119.8800511 375.723200
19379 19381 19382 1 119.8800511 375.723200
19379 19381 19383 1 120.0200517 532.790560
19382 19381 19383 1 119.8800511 375.723200
19381 19383 19384 1 119.8800511 375.723200
19381 19383 19385 1 120.0200517 532.790560
19384 19383 19385 1 119.8800511 375.723200
19376 19385 19383 1 120.0200517 532.790560
19376 19385 19386 1 119.8800511 375.723200
19383 19385 19386 1 119.8800511 375.723200
19387 19388 19389 1 119.8800511 375.723200
19387 19388 19397 1 119.8800511 375.723200
19389 19388 19397 1 120.0200517 532.790560
19388 19389 19390 1 121.3800518 83.010560
19388 19389 19391 1 120.0200517 532.790560
19390 19389 19391 1 121.3800518 83.010560
5506 19390 5579 1 109.50000 418.400000
5506 19390 5581 1 109.50000 418.400000
5506 19390 19389 1 103.70004 836.800000
5579 19390 5581 1 109.50000 418.400000
5579 19390 19389 1 103.70004 836.800000
5581 19390 19389 1 103.70004 836.800000
19389 19391 19392 1 119.8800511 375.723200
19389 19391 19393 1 120.0200517 532.790560
19392 19391 19393 1 119.8800511 375.723200
19391 19393 19394 1 119.8800511 375.723200
19391 19393 19395 1 120.0200517 532.790560
19394 19393 19395 1 119.8800511 375.723200
19393 19395 19396 1 119.8800511 375.723200
19393 19395 19397 1 120.0200517 532.790560
19396 19395 19397 1 119.8800511 375.723200
19388 19397 19395 1 120.0200517 532.790560
19388 19397 19398 1 119.8800511 375.723200
19395 19397 19398 1 119.8800511 375.723200
19399 19400 19401 1 119.8800511 375.723200
19399 19400 19409 1 119.8800511 375.723200
19401 19400 19409 1 120.0200517 532.790560
19400 19401 19402 1 121.3800518 83.010560
19400 19401 19403 1 120.0200517 532.790560
19402 19401 19403 1 121.3800518 83.010560
4184 19402 5630 1 109.50000 418.400000
4184 19402 7614 1 109.50000 418.400000
4184 19402 19401 1 103.70004 836.800000
5630 19402 7614 1 109.50000 418.400000
5630 19402 19401 1 103.70004 836.800000
7614 19402 19401 1 103.70004 836.800000
19401 19403 19404 1 119.8800511 375.723200
19401 19403 19405 1 120.0200517 532.790560
19404 19403 19405 1 119.8800511 375.723200
19403 19405 19406 1 119.8800511 375.723200
19403 19405 19407 1 120.0200517 532.790560
19406 19405 19407 1 119.8800511 375.723200
19405 19407 19408 1 119.8800511 375.723200
19405 19407 19409 1 120.0200517 532.790560
19408 19407 19409 1 119.8800511 375.723200
19400 19409 19407 1 120.0200517 532.790560
19400 19409 19410 1 119.8800511 375.723200
19407 19409 19410 1 119.8800511 375.723200
19411 19412 19413 1 119.8800511 375.723200
19411 19412 19421 1 119.8800511 375.723200
19413 19412 19421 1 120.0200517 532.790560
19412 19413 19414 1 121.3800518 83.010560
19412 19413 19415 1 120.0200517 532.790560
19414 19413 19415 1 121.3800518 83.010560
1703 19414 5713 1 109.50000 418.400000
1703 19414 5714 1 109.50000 418.400000
1703 19414 19413 1 103.70004 836.800000
5713 19414 5714 1 109.50000 418.400000
5713 19414 19413 1 103.70004 836.800000
5714 19414 19413 1 103.70004 836.800000
19413 19415 19416 1 119.8800511 375.723200
19413 19415 19417 1 120.0200517 532.790560
19416 19415 19417 1 119.8800511 375.723200
19415 19417 19418 1 119.8800511 375.723200
19415 19417 19419 1 120.0200517 532.790560
19418 19417 19419 1 119.8800511 375.723200
19417 19419 19420 1 119.8800511 375.723200
19417 19419 19421 1 120.0200517 532.790560
19420 19419 19421 1 119.8800511 375.723200
19412 19421 19419 1 120.0200517 532.790560
19412 19421 19422 1 119.8800511 375.723200
19419 19421 19422 1 119.8800511 375.723200
19423 19424 19425 1 119.8800511 375.723200
19423 19424 19433 1 119.8800511 375.723200
19425 19424 19433 1 120.0200517 532.790560
19424 19425 19426 1 121.3800518 83.010560
19424 19425 19427 1 120.0200517 532.790560
19426 19425 19427 1 121.3800518 83.010560
5715 19426 5716 1 109.50000 418.400000
5715 19426 5717 1 109.50000 418.400000
5715 19426 19425 1 103.70004 836.800000
5716 19426 5717 1 109.50000 418.400000
5716 19426 19425 1 103.70004 836.800000
5717 19426 19425 1 103.70004 836.800000
19425 19427 19428 1 119.8800511 375.723200
19425 19427 19429 1 120.0200517 532.790560
19428 19427 19429 1 119.8800511 375.723200
19427 19429 19430 1 119.8800511 375.723200
19427 19429 19431 1 120.0200517 532.790560
19430 19429 19431 1 119.8800511 375.723200
19429 19431 19432 1 119.8800511 375.723200
19429 19431 19433 1 120.0200517 532.790560
19432 19431 19433 1 119.8800511 375.723200
19424 19433 19431 1 120.0200517 532.790560
19424 19433 19434 1 119.8800511 375.723200
19431 19433 19434 1 119.8800511 375.723200
19435 19436 19437 1 119.8800511 375.723200
19435 19436 19445 1 119.8800511 375.723200
19437 19436 19445 1 120.0200517 532.790560
19436 19437 19438 1 121.3800518 83.010560
19436 19437 19439 1 120.0200517 532.790560
19438 19437 19439 1 121.3800518 83.010560
5725 19438 5726 1 109.50000 418.400000
5725 19438 5727 1 109.50000 418.400000
5725 19438 19437 1 103.70004 836.800000
5726 19438 5727 1 109.50000 418.400000
5726 19438 19437 1 103.70004 836.800000
5727 19438 19437 1 103.70004 836.800000
19437 19439 19440 1 119.8800511 375.723200
19437 19439 19441 1 120.0200517 532.790560
19440 19439 19441 1 119.8800511 375.723200
19439 19441 19442 1 119.8800511 375.723200
19439 19441 19443 1 120.0200517 532.790560
19442 19441 19443 1 119.8800511 375.723200
19441 19443 19444 1 119.8800511 375.723200
19441 19443 19445 1 120.0200517 532.790560
19444 19443 19445 1 119.8800511 375.723200
19436 19445 19443 1 120.0200517 532.790560
19436 19445 19446 1 119.8800511 375.723200
19443 19445 19446 1 119.8800511 375.723200
19447 19448 19449 1 119.8800511 375.723200
19447 19448 19457 1 119.8800511 375.723200
19449 19448 19457 1 120.0200517 532.790560
19448 19449 19450 1 121.3800518 83.010560
19448 19449 19451 1 120.0200517 532.790560
19450 19449 19451 1 121.3800518 83.010560
5105 19450 5751 1 109.50000 418.400000
5105 19450 5752 1 109.50000 418.400000
5105 19450 19449 1 103.70004 836.800000
5751 19450 5752 1 109.50000 418.400000
5751 19450 19449 1 103.70004 836.800000
5752 19450 19449 1 103.70004 836.800000
19449 19451 19452 1 119.8800511 375.723200
19449 19451 19453 1 120.0200517 532.790560
19452 19451 19453 1 119.8800511 375.723200
19451 19453 19454 1 119.8800511 375.723200
19451 19453 19455 1 120.0200517 532.790560
19454 19453 19455 1 119.8800511 375.723200
19453 19455 19456 1 119.8800511 375.723200
19453 19455 19457 1 120.0200517 532.790560
19456 19455 19457 1 119.8800511 375.723200
19448 19457 19455 1 120.0200517 532.790560
19448 19457 19458 1 119.8800511 375.723200
19455 19457 19458 1 119.8800511 375.723200
19459 19460 19461 1 119.8800511 375.723200
19459 19460 19469 1 119.8800511 375.723200
19461 19460 19469 1 120.0200517 532.790560
19460 19461 19462 1 121.3800518 83.010560
19460 19461 19463 1 120.0200517 532.790560
19462 19461 19463 1 121.3800518 83.010560
5774 19462 5775 1 109.50000 418.400000
5774 19462 5776 1 109.50000 418.400000
5774 19462 19461 1 103.70004 836.800000
5775 19462 5776 1 109.50000 418.400000
5775 19462 19461 1 103.70004 836.800000
5776 19462 19461 1 103.70004 836.800000
19461 19463 19464 1 119.8800511 375.723200
19461 19463 19465 1 120.0200517 532.790560
19464 19463 19465 1 119.8800511 375.723200
19463 19465 19466 1 119.8800511 375.723200
19463 19465 19467 1 120.0200517 532.790560
19466 19465 19467 1 119.8800511 375.723200
19465 19467 19468 1 119.8800511 375.723200
19465 19467 19469 1 120.0200517 532.790560
19468 19467 19469 1 119.8800511 375.723200
19460 19469 19467 1 120.0200517 532.790560
19460 19469 19470 1 119.8800511 375.723200
19467 19469 19470 1 119.8800511 375.723200
19471 19472 19473 1 119.8800511 375.723200
19471 19472 19481 1 119.8800511 375.723200
19473 19472 19481 1 120.0200517 532.790560
19472 19473 19474 1 121.3800518 83.010560
19472 19473 19475 1 120.0200517 532.790560
19474 19473 19475 1 121.3800518 83.010560
980 19474 4224 1 109.50000 418.400000
980 19474 5829 1 109.50000 418.400000
980 19474 19473 1 103.70004 836.800000
4224 19474 5829 1 109.50000 418.400000
4224 19474 19473 1 103.70004 836.800000
5829 19474 19473 1 103.70004 836.800000
19473 19475 19476 1 119.8800511 375.723200
19473 19475 19477 1 120.0200517 532.790560
19476 19475 19477 1 119.8800511 375.723200
19475 19477 19478 1 119.8800511 375.723200
19475 19477 19479 1 120.0200517 532.790560
19478 19477 19479 1 119.8800511 375.723200
19477 19479 19480 1 119.8800511 375.723200
19477 19479 19481 1 120.0200517 532.790560
19480 19479 19481 1 119.8800511 375.723200
19472 19481 19479 1 120.0200517 532.790560
19472 19481 19482 1 119.8800511 375.723200
19479 19481 19482 1 119.8800511 375.723200
19483 19484 19485 1 119.8800511 375.723200
19483 19484 19493 1 119.8800511 375.723200
19485 19484 19493 1 120.0200517 532.790560
19484 19485 19486 1 121.3800518 83.010560
19484 19485 19487 1 120.0200517 532.790560
19486 19485 19487 1 121.3800518 83.010560
4111 19486 5830 1 109.50000 418.400000
4111 19486 11239 1 109.50000 418.400000
4111 19486 19485 1 103.70004 836.800000
5830 19486 11239 1 109.50000 418.400000
5830 19486 19485 1 103.70004 836.800000
11239 19486 19485 1 103.70004 836.800000
19485 19487 19488 1 119.8800511 375.723200
19485 19487 19489 1 120.0200517 532.790560
19488 19487 19489 1 119.8800511 375.723200
19487 19489 19490 1 119.8800511 375.723200
19487 19489 19491 1 120.0200517 532.790560
19490 19489 19491 1 119.8800511 375.723200
19489 19491 19492 1 119.8800511 375.723200
19489 19491 19493 1 120.0200517 532.790560
19492 19491 19493 1 119.8800511 375.723200
19484 19493 19491 1 120.0200517 532.790560
19484 19493 19494 1 119.8800511 375.723200
19491 19493 19494 1 119.8800511 375.723200
19495 19496 19497 1 119.8800511 375.723200
19495 19496 19505 1 119.8800511 375.723200
19497 19496 19505 1 120.0200517 532.790560
19496 19497 19498 1 121.3800518 83.010560
19496 19497 19499 1 120.0200517 532.790560
19498 19497 19499 1 121.3800518 83.010560
5832 19498 5833 1 109.50000 418.400000
5832 19498 5834 1 109.50000 418.400000
5832 19498 19497 1 103.70004 836.800000
5833 19498 5834 1 109.50000 418.400000
5833 19498 19497 1 103.70004 836.800000
5834 19498 19497 1 103.70004 836.800000
19497 19499 19500 1 119.8800511 375.723200
19497 19499 19501 1 120.0200517 532.790560
19500 19499 19501 1 119.8800511 375.723200
19499 19501 19502 1 119.8800511 375.723200
19499 19501 19503 1 120.0200517 532.790560
19502 19501 19503 1 119.8800511 375.723200
19501 19503 19504 1 119.8800511 375.723200
19501 19503 19505 1 120.0200517 532.790560
19504 19503 19505 1 119.8800511 375.723200
19496 19505 19503 1 120.0200517 532.790560
19496 19505 19506 1 119.8800511 375.723200
19503 19505 19506 1 119.8800511 375.723200
19507 19508 19509 1 119.8800511 375.723200
19507 19508 19517 1 119.8800511 375.723200
19509 19508 19517 1 120.0200517 532.790560
19508 19509 19510 1 121.3800518 83.010560
19508 19509 19511 1 120.0200517 532.790560
19510 19509 19511 1 121.3800518 83.010560
864 19510 2451 1 109.50000 418.400000
864 19510 5839 1 109.50000 418.400000
864 19510 19509 1 103.70004 836.800000
2451 19510 5839 1 109.50000 418.400000
2451 19510 19509 1 103.70004 836.800000
5839 19510 19509 1 103.70004 836.800000
19509 19511 19512 1 119.8800511 375.723200
19509 19511 19513 1 120.0200517 532.790560
19512 19511 19513 1 119.8800511 375.723200
19511 19513 19514 1 119.8800511 375.723200
19511 19513 19515 1 120.0200517 532.790560
19514 19513 19515 1 119.8800511 375.723200
19513 19515 19516 1 119.8800511 375.723200
19513 19515 19517 1 120.0200517 532.790560
19516 19515 19517 1 119.8800511 375.723200
19508 19517 19515 1 120.0200517 532.790560
19508 19517 19518 1 119.8800511 375.723200
19515 19517 19518 1 119.8800511 375.723200
19519 19520 19521 1 119.8800511 375.723200
19519 19520 19529 1 119.8800511 375.723200
19521 19520 19529 1 120.0200517 532.790560
19520 19521 19522 1 121.3800518 83.010560
19520 19521 19523 1 120.0200517 532.790560
19522 19521 19523 1 121.3800518 83.010560
5892 19522 5893 1 109.50000 418.400000
5892 19522 5894 1 109.50000 418.400000
5892 19522 19521 1 103.70004 836.800000
5893 19522 5894 1 109.50000 418.400000
5893 19522 19521 1 103.70004 836.800000
5894 19522 19521 1 103.70004 836.800000
19521 19523 19524 1 119.8800511 375.723200
19521 19523 19525 1 120.0200517 532.790560
19524 19523 19525 1 119.8800511 375.723200
19523 19525 19526 1 119.8800511 375.723200
19523 19525 19527 1 120.0200517 532.790560
19526 19525 19527 1 119.8800511 375.723200
19525 19527 19528 1 119.8800511 375.723200
19525 19527 19529 1 120.0200517 532.790560
19528 19527 19529 1 119.8800511 375.723200
19520 19529 19527 1 120.0200517 532.790560
19520 19529 19530 1 119.8800511 375.723200
19527 19529 19530 1 119.8800511 375.723200
19531 19532 19533 1 119.8800511 375.723200
19531 19532 19541 1 119.8800511 375.723200
19533 19532 19541 1 120.0200517 532.790560
19532 19533 19534 1 121.3800518 83.010560
19532 19533 19535 1 120.0200517 532.790560
19534 19533 19535 1 121.3800518 83.010560
4650 19534 5919 1 109.50000 418.400000
4650 19534 11240 1 109.50000 418.400000
4650 19534 19533 1 103.70004 836.800000
5919 19534 11240 1 109.50000 418.400000
5919 19534 19533 1 103.70004 836.800000
11240 19534 19533 1 103.70004 836.800000
19533 19535 19536 1 119.8800511 375.723200
19533 19535 19537 1 120.0200517 532.790560
19536 19535 19537 1 119.8800511 375.723200
19535 19537 19538 1 119.8800511 375.723200
19535 19537 19539 1 120.0200517 532.790560
19538 19537 19539 1 119.8800511 375.723200
19537 19539 19540 1 119.8800511 375.723200
19537 19539 19541 1 120.0200517 532.790560
19540 19539 19541 1 119.8800511 375.723200
19532 19541 19539 1 120.0200517 532.790560
19532 19541 19542 1 119.8800511 375.723200
19539 19541 19542 1 119.8800511 375.723200
19543 19544 19545 1 119.8800511 375.723200
19543 19544 19553 1 119.8800511 375.723200
19545 19544 19553 1 120.0200517 532.790560
19544 19545 19546 1 121.3800518 83.010560
19544 19545 19547 1 120.0200517 532.790560
19546 19545 19547 1 121.3800518 83.010560
2420 19546 5964 1 109.50000 418.400000
2420 19546 5965 1 109.50000 418.400000
2420 19546 19545 1 103.70004 836.800000
5964 19546 5965 1 109.50000 418.400000
5964 19546 19545 1 103.70004 836.800000
5965 19546 19545 1 103.70004 836.800000
19545 19547 19548 1 119.8800511 375.723200
19545 19547 19549 1 120.0200517 532.790560
19548 19547 19549 1 119.8800511 375.723200
19547 19549 19550 1 119.8800511 375.723200
19547 19549 19551 1 120.0200517 532.790560
19550 19549 19551 1 119.8800511 375.723200
19549 19551 19552 1 119.8800511 375.723200
19549 19551 19553 1 120.0200517 532.790560
19552 19551 19553 1 119.8800511 375.723200
19544 19553 19551 1 120.0200517 532.790560
19544 19553 19554 1 119.8800511 375.723200
19551 19553 19554 1 119.8800511 375.723200
19555 19556 19557 1 119.8800511 375.723200
19555 19556 19565 1 119.8800511 375.723200
19557 19556 19565 1 120.0200517 532.790560
19556 19557 19558 1 121.3800518 83.010560
19556 19557 19559 1 120.0200517 532.790560
19558 19557 19559 1 121.3800518 83.010560
3358 19558 5974 1 109.50000 418.400000
3358 19558 5975 1 109.50000 418.400000
3358 19558 19557 1 103.70004 836.800000
5974 19558 5975 1 109.50000 418.400000
5974 19558 19557 1 103.70004 836.800000
5975 19558 19557 1 103.70004 836.800000
19557 19559 19560 1 119.8800511 375.723200
19557 19559 19561 1 120.0200517 532.790560
19560 19559 19561 1 119.8800511 375.723200
19559 19561 19562 1 119.8800511 375.723200
19559 19561 19563 1 120.0200517 532.790560
19562 19561 19563 1 119.8800511 375.723200
19561 19563 19564 1 119.8800511 375.723200
19561 19563 19565 1 120.0200517 532.790560
19564 19563 19565 1 119.8800511 375.723200
19556 19565 19563 1 120.0200517 532.790560
19556 19565 19566 1 119.8800511 375.723200
19563 19565 19566 1 119.8800511 375.723200
19567 19568 19569 1 119.8800511 375.723200
19567 19568 19577 1 119.8800511 375.723200
19569 19568 19577 1 120.0200517 532.790560
19568 19569 19570 1 121.3800518 83.010560
19568 19569 19571 1 120.0200517 532.790560
19570 19569 19571 1 121.3800518 83.010560
3604 19570 5991 1 109.50000 418.400000
3604 19570 5992 1 109.50000 418.400000
3604 19570 19569 1 103.70004 836.800000
5991 19570 5992 1 109.50000 418.400000
5991 19570 19569 1 103.70004 836.800000
5992 19570 19569 1 103.70004 836.800000
19569 19571 19572 1 119.8800511 375.723200
19569 19571 19573 1 120.0200517 532.790560
19572 19571 19573 1 119.8800511 375.723200
19571 19573 19574 1 119.8800511 375.723200
19571 19573 19575 1 120.0200517 532.790560
19574 19573 19575 1 119.8800511 375.723200
19573 19575 19576 1 119.8800511 375.723200
19573 19575 19577 1 120.0200517 532.790560
19576 19575 19577 1 119.8800511 375.723200
19568 19577 19575 1 120.0200517 532.790560
19568 19577 19578 1 119.8800511 375.723200
19575 19577 19578 1 119.8800511 375.723200
19579 19580 19581 1 119.8800511 375.723200
19579 19580 19589 1 119.8800511 375.723200
19581 19580 19589 1 120.0200517 532.790560
19580 19581 19582 1 121.3800518 83.010560
19580 19581 19583 1 120.0200517 532.790560
19582 19581 19583 1 121.3800518 83.010560
3603 19582 5997 1 109.50000 418.400000
3603 19582 5998 1 109.50000 418.400000
3603 19582 19581 1 103.70004 836.800000
5997 19582 5998 1 109.50000 418.400000
5997 19582 19581 1 103.70004 836.800000
5998 19582 19581 1 103.70004 836.800000
19581 19583 19584 1 119.8800511 375.723200
19581 19583 19585 1 120.0200517 532.790560
19584 19583 19585 1 119.8800511 375.723200
19583 19585 19586 1 119.8800511 375.723200
19583 19585 19587 1 120.0200517 532.790560
19586 19585 19587 1 119.8800511 375.723200
19585 19587 19588 1 119.8800511 375.723200
19585 19587 19589 1 120.0200517 532.790560
19588 19587 19589 1 119.8800511 375.723200
19580 19589 19587 1 120.0200517 532.790560
19580 19589 19590 1 119.8800511 375.723200
19587 19589 19590 1 119.8800511 375.723200
19591 19592 19593 1 119.8800511 375.723200
19591 19592 19601 1 119.8800511 375.723200
19593 19592 19601 1 120.0200517 532.790560
19592 19593 19594 1 121.3800518 83.010560
19592 19593 19595 1 120.0200517 532.790560
19594 19593 19595 1 121.3800518 83.010560
1685 19594 6005 1 109.50000 418.400000
1685 19594 6006 1 109.50000 418.400000
1685 19594 19593 1 103.70004 836.800000
6005 19594 6006 1 109.50000 418.400000
6005 19594 19593 1 103.70004 836.800000
6006 19594 19593 1 103.70004 836.800000
19593 19595 19596 1 119.8800511 375.723200
19593 19595 19597 1 120.0200517 532.790560
19596 19595 19597 1 119.8800511 375.723200
19595 19597 19598 1 119.8800511 375.723200
19595 19597 19599 1 120.0200517 532.790560
19598 19597 19599 1 119.8800511 375.723200
19597 19599 19600 1 119.8800511 375.723200
19597 19599 19601 1 120.0200517 532.790560
19600 19599 19601 1 119.8800511 375.723200
19592 19601 19599 1 120.0200517 532.790560
19592 19601 19602 1 119.8800511 375.723200
19599 19601 19602 1 119.8800511 375.723200
19603 19604 19605 1 119.8800511 375.723200
19603 19604 19613 1 119.8800511 375.723200
19605 19604 19613 1 120.0200517 532.790560
19604 19605 19606 1 121.3800518 83.010560
19604 19605 19607 1 120.0200517 532.790560
19606 19605 19607 1 121.3800518 83.010560
1148 19606 6026 1 109.50000 418.400000
1148 19606 6027 1 109.50000 418.400000
1148 19606 19605 1 103.70004 836.800000
6026 19606 6027 1 109.50000 418.400000
6026 19606 19605 1 103.70004 836.800000
6027 19606 19605 1 103.70004 836.800000
19605 19607 19608 1 119.8800511 375.723200
19605 19607 19609 1 120.0200517 532.790560
19608 19607 19609 1 119.8800511 375.723200
19607 19609 19610 1 119.8800511 375.723200
19607 19609 19611 1 120.0200517 532.790560
19610 19609 19611 1 119.8800511 375.723200
19609 19611 19612 1 119.8800511 375.723200
19609 19611 19613 1 120.0200517 532.790560
19612 19611 19613 1 119.8800511 375.723200
19604 19613 19611 1 120.0200517 532.790560
19604 19613 19614 1 119.8800511 375.723200
19611 19613 19614 1 119.8800511 375.723200
19615 19616 19617 1 119.8800511 375.723200
19615 19616 19625 1 119.8800511 375.723200
19617 19616 19625 1 120.0200517 532.790560
19616 19617 19618 1 121.3800518 83.010560
19616 19617 19619 1 120.0200517 532.790560
19618 19617 19619 1 121.3800518 83.010560
3645 19618 6032 1 109.50000 418.400000
3645 19618 9558 1 109.50000 418.400000
3645 19618 19617 1 103.70004 836.800000
6032 19618 9558 1 109.50000 418.400000
6032 19618 19617 1 103.70004 836.800000
9558 19618 19617 1 103.70004 836.800000
19617 19619 19620 1 119.8800511 375.723200
19617 19619 19621 1 120.0200517 532.790560
19620 19619 19621 1 119.8800511 375.723200
19619 19621 19622 1 119.8800511 375.723200
19619 19621 19623 1 120.0200517 532.790560
19622 19621 19623 1 119.8800511 375.723200
19621 19623 19624 1 119.8800511 375.723200
19621 19623 19625 1 120.0200517 532.790560
19624 19623 19625 1 119.8800511 375.723200
19616 19625 19623 1 120.0200517 532.790560
19616 19625 19626 1 119.8800511 375.723200
19623 19625 19626 1 119.8800511 375.723200
19627 19628 19629 1 119.8800511 375.723200
19627 19628 19637 1 119.8800511 375.723200
19629 19628 19637 1 120.0200517 532.790560
19628 19629 19630 1 121.3800518 83.010560
19628 19629 19631 1 120.0200517 532.790560
19630 19629 19631 1 121.3800518 83.010560
2163 19630 2164 1 109.50000 418.400000
2163 19630 6038 1 109.50000 418.400000
2163 19630 19629 1 103.70004 836.800000
2164 19630 6038 1 109.50000 418.400000
2164 19630 19629 1 103.70004 836.800000
6038 19630 19629 1 103.70004 836.800000
19629 19631 19632 1 119.8800511 375.723200
19629 19631 19633 1 120.0200517 532.790560
19632 19631 19633 1 119.8800511 375.723200
19631 19633 19634 1 119.8800511 375.723200
19631 19633 19635 1 120.0200517 532.790560
19634 19633 19635 1 119.8800511 375.723200
19633 19635 19636 1 119.8800511 375.723200
19633 19635 19637 1 120.0200517 532.790560
19636 19635 19637 1 119.8800511 375.723200
19628 19637 19635 1 120.0200517 532.790560
19628 19637 19638 1 119.8800511 375.723200
19635 19637 19638 1 119.8800511 375.723200
19639 19640 19641 1 119.8800511 375.723200
19639 19640 19649 1 119.8800511 375.723200
19641 19640 19649 1 120.0200517 532.790560
19640 19641 19642 1 121.3800518 83.010560
19640 19641 19643 1 120.0200517 532.790560
19642 19641 19643 1 121.3800518 83.010560
5472 19642 6051 1 109.50000 418.400000
5472 19642 11241 1 109.50000 418.400000
5472 19642 19641 1 103.70004 836.800000
6051 19642 11241 1 109.50000 418.400000
6051 19642 19641 1 103.70004 836.800000
11241 19642 19641 1 103.70004 836.800000
19641 19643 19644 1 119.8800511 375.723200
19641 19643 19645 1 120.0200517 532.790560
19644 19643 19645 1 119.8800511 375.723200
19643 19645 19646 1 119.8800511 375.723200
19643 19645 19647 1 120.0200517 532.790560
19646 19645 19647 1 119.8800511 375.723200
19645 19647 19648 1 119.8800511 375.723200
19645 19647 19649 1 120.0200517 532.790560
19648 19647 19649 1 119.8800511 375.723200
19640 19649 19647 1 120.0200517 532.790560
19640 19649 19650 1 119.8800511 375.723200
19647 19649 19650 1 119.8800511 375.723200
19651 19652 19653 1 119.8800511 375.723200
19651 19652 19661 1 119.8800511 375.723200
19653 19652 19661 1 120.0200517 532.790560
19652 19653 19654 1 121.3800518 83.010560
19652 19653 19655 1 120.0200517 532.790560
19654 19653 19655 1 121.3800518 83.010560
5030 19654 5268 1 109.50000 418.400000
5030 19654 11242 1 109.50000 418.400000
5030 19654 19653 1 103.70004 836.800000
5268 19654 11242 1 109.50000 418.400000
5268 19654 19653 1 103.70004 836.800000
11242 19654 19653 1 103.70004 836.800000
19653 19655 19656 1 119.8800511 375.723200
19653 19655 19657 1 120.0200517 532.790560
19656 19655 19657 1 119.8800511 375.723200
19655 19657 19658 1 119.8800511 375.723200
19655 19657 19659 1 120.0200517 532.790560
19658 19657 19659 1 119.8800511 375.723200
19657 19659 19660 1 119.8800511 375.723200
19657 19659 19661 1 120.0200517 532.790560
19660 19659 19661 1 119.8800511 375.723200
19652 19661 19659 1 120.0200517 532.790560
19652 19661 19662 1 119.8800511 375.723200
19659 19661 19662 1 119.8800511 375.723200
19663 19664 19665 1 119.8800511 375.723200
19663 19664 19673 1 119.8800511 375.723200
19665 19664 19673 1 120.0200517 532.790560
19664 19665 19666 1 121.3800518 83.010560
19664 19665 19667 1 120.0200517 532.790560
19666 19665 19667 1 121.3800518 83.010560
6079 19666 6080 1 109.50000 418.400000
6079 19666 11243 1 109.50000 418.400000
6079 19666 19665 1 103.70004 836.800000
6080 19666 11243 1 109.50000 418.400000
6080 19666 19665 1 103.70004 836.800000
11243 19666 19665 1 103.70004 836.800000
19665 19667 19668 1 119.8800511 375.723200
19665 19667 19669 1 120.0200517 532.790560
19668 19667 19669 1 119.8800511 375.723200
19667 19669 19670 1 119.8800511 375.723200
19667 19669 19671 1 120.0200517 532.790560
19670 19669 19671 1 119.8800511 375.723200
19669 19671 19672 1 119.8800511 375.723200
19669 19671 19673 1 120.0200517 532.790560
19672 19671 19673 1 119.8800511 375.723200
19664 19673 19671 1 120.0200517 532.790560
19664 19673 19674 1 119.8800511 375.723200
19671 19673 19674 1 119.8800511 375.723200
19675 19676 19677 1 119.8800511 375.723200
19675 19676 19685 1 119.8800511 375.723200
19677 19676 19685 1 120.0200517 532.790560
19676 19677 19678 1 121.3800518 83.010560
19676 19677 19679 1 120.0200517 532.790560
19678 19677 19679 1 121.3800518 83.010560
6088 19678 6089 1 109.50000 418.400000
6088 19678 8294 1 109.50000 418.400000
6088 19678 19677 1 103.70004 836.800000
6089 19678 8294 1 109.50000 418.400000
6089 19678 19677 1 103.70004 836.800000
8294 19678 19677 1 103.70004 836.800000
19677 19679 19680 1 119.8800511 375.723200
19677 19679 19681 1 120.0200517 532.790560
19680 19679 19681 1 119.8800511 375.723200
19679 19681 19682 1 119.8800511 375.723200
19679 19681 19683 1 120.0200517 532.790560
19682 19681 19683 1 119.8800511 375.723200
19681 19683 19684 1 119.8800511 375.723200
19681 19683 19685 1 120.0200517 532.790560
19684 19683 19685 1 119.8800511 375.723200
19676 19685 19683 1 120.0200517 532.790560
19676 19685 19686 1 119.8800511 375.723200
19683 19685 19686 1 119.8800511 375.723200
19687 19688 19689 1 119.8800511 375.723200
19687 19688 19697 1 119.8800511 375.723200
19689 19688 19697 1 120.0200517 532.790560
19688 19689 19690 1 121.3800518 83.010560
19688 19689 19691 1 120.0200517 532.790560
19690 19689 19691 1 121.3800518 83.010560
521 19690 523 1 109.50000 418.400000
521 19690 2066 1 109.50000 418.400000
521 19690 19689 1 103.70004 836.800000
523 19690 2066 1 109.50000 418.400000
523 19690 19689 1 103.70004 836.800000
2066 19690 19689 1 103.70004 836.800000
19689 19691 19692 1 119.8800511 375.723200
19689 19691 19693 1 120.0200517 532.790560
19692 19691 19693 1 119.8800511 375.723200
19691 19693 19694 1 119.8800511 375.723200
19691 19693 19695 1 120.0200517 532.790560
19694 19693 19695 1 119.8800511 375.723200
19693 19695 19696 1 119.8800511 375.723200
19693 19695 19697 1 120.0200517 532.790560
19696 19695 19697 1 119.8800511 375.723200
19688 19697 19695 1 120.0200517 532.790560
19688 19697 19698 1 119.8800511 375.723200
19695 19697 19698 1 119.8800511 375.723200
19699 19700 19701 1 119.8800511 375.723200
19699 19700 19709 1 119.8800511 375.723200
19701 19700 19709 1 120.0200517 532.790560
19700 19701 19702 1 121.3800518 83.010560
19700 19701 19703 1 120.0200517 532.790560
19702 19701 19703 1 121.3800518 83.010560
6099 19702 6100 1 109.50000 418.400000
6099 19702 6101 1 109.50000 418.400000
6099 19702 19701 1 103.70004 836.800000
6100 19702 6101 1 109.50000 418.400000
6100 19702 19701 1 103.70004 836.800000
6101 19702 19701 1 103.70004 836.800000
19701 19703 19704 1 119.8800511 375.723200
19701 19703 19705 1 120.0200517 532.790560
19704 19703 19705 1 119.8800511 375.723200
19703 19705 19706 1 119.8800511 375.723200
19703 19705 19707 1 120.0200517 532.790560
19706 19705 19707 1 119.8800511 375.723200
19705 19707 19708 1 119.8800511 375.723200
19705 19707 19709 1 120.0200517 532.790560
19708 19707 19709 1 119.8800511 375.723200
19700 19709 19707 1 120.0200517 532.790560
19700 19709 19710 1 119.8800511 375.723200
19707 19709 19710 1 119.8800511 375.723200
19711 19712 19713 1 119.8800511 375.723200
19711 19712 19721 1 119.8800511 375.723200
19713 19712 19721 1 120.0200517 532.790560
19712 19713 19714 1 121.3800518 83.010560
19712 19713 19715 1 120.0200517 532.790560
19714 19713 19715 1 121.3800518 83.010560
6108 19714 6109 1 109.50000 418.400000
6108 19714 6110 1 109.50000 418.400000
6108 19714 19713 1 103.70004 836.800000
6109 19714 6110 1 109.50000 418.400000
6109 19714 19713 1 103.70004 836.800000
6110 19714 19713 1 103.70004 836.800000
19713 19715 19716 1 119.8800511 375.723200
19713 19715 19717 1 120.0200517 532.790560
19716 19715 19717 1 119.8800511 375.723200
19715 19717 19718 1 119.8800511 375.723200
19715 19717 19719 1 120.0200517 532.790560
19718 19717 19719 1 119.8800511 375.723200
19717 19719 19720 1 119.8800511 375.723200
19717 19719 19721 1 120.0200517 532.790560
19720 19719 19721 1 119.8800511 375.723200
19712 19721 19719 1 120.0200517 532.790560
19712 19721 19722 1 119.8800511 375.723200
19719 19721 19722 1 119.8800511 375.723200
19723 19724 19725 1 119.8800511 375.723200
19723 19724 19733 1 119.8800511 375.723200
19725 19724 19733 1 120.0200517 532.790560
19724 19725 19726 1 121.3800518 83.010560
19724 19725 19727 1 120.0200517 532.790560
19726 19725 19727 1 121.3800518 83.010560
2620 19726 6148 1 109.50000 418.400000
2620 19726 6149 1 109.50000 418.400000
2620 19726 19725 1 103.70004 836.800000
6148 19726 6149 1 109.50000 418.400000
6148 19726 19725 1 103.70004 836.800000
6149 19726 19725 1 103.70004 836.800000
19725 19727 19728 1 119.8800511 375.723200
19725 19727 19729 1 120.0200517 532.790560
19728 19727 19729 1 119.8800511 375.723200
19727 19729 19730 1 119.8800511 375.723200
19727 19729 19731 1 120.0200517 532.790560
19730 19729 19731 1 119.8800511 375.723200
19729 19731 19732 1 119.8800511 375.723200
19729 19731 19733 1 120.0200517 532.790560
19732 19731 19733 1 119.8800511 375.723200
19724 19733 19731 1 120.0200517 532.790560
19724 19733 19734 1 119.8800511 375.723200
19731 19733 19734 1 119.8800511 375.723200
19735 19736 19737 1 119.8800511 375.723200
19735 19736 19745 1 119.8800511 375.723200
19737 19736 19745 1 120.0200517 532.790560
19736 19737 19738 1 121.3800518 83.010560
19736 19737 19739 1 120.0200517 532.790560
19738 19737 19739 1 121.3800518 83.010560
6038 19738 6173 1 109.50000 418.400000
6038 19738 6174 1 109.50000 418.400000
6038 19738 19737 1 103.70004 836.800000
6173 19738 6174 1 109.50000 418.400000
6173 19738 19737 1 103.70004 836.800000
6174 19738 19737 1 103.70004 836.800000
19737 19739 19740 1 119.8800511 375.723200
19737 19739 19741 1 120.0200517 532.790560
19740 19739 19741 1 119.8800511 375.723200
19739 19741 19742 1 119.8800511 375.723200
19739 19741 19743 1 120.0200517 532.790560
19742 19741 19743 1 119.8800511 375.723200
19741 19743 19744 1 119.8800511 375.723200
19741 19743 19745 1 120.0200517 532.790560
19744 19743 19745 1 119.8800511 375.723200
19736 19745 19743 1 120.0200517 532.790560
19736 19745 19746 1 119.8800511 375.723200
19743 19745 19746 1 119.8800511 375.723200
19747 19748 19749 1 119.8800511 375.723200
19747 19748 19757 1 119.8800511 375.723200
19749 19748 19757 1 120.0200517 532.790560
19748 19749 19750 1 121.3800518 83.010560
19748 19749 19751 1 120.0200517 532.790560
19750 19749 19751 1 121.3800518 83.010560
2045 19750 6197 1 109.50000 418.400000
2045 19750 6198 1 109.50000 418.400000
2045 19750 19749 1 103.70004 836.800000
6197 19750 6198 1 109.50000 418.400000
6197 19750 19749 1 103.70004 836.800000
6198 19750 19749 1 103.70004 836.800000
19749 19751 19752 1 119.8800511 375.723200
19749 19751 19753 1 120.0200517 532.790560
19752 19751 19753 1 119.8800511 375.723200
19751 19753 19754 1 119.8800511 375.723200
19751 19753 19755 1 120.0200517 532.790560
19754 19753 19755 1 119.8800511 375.723200
19753 19755 19756 1 119.8800511 375.723200
19753 19755 19757 1 120.0200517 532.790560
19756 19755 19757 1 119.8800511 375.723200
19748 19757 19755 1 120.0200517 532.790560
19748 19757 19758 1 119.8800511 375.723200
19755 19757 19758 1 119.8800511 375.723200
19759 19760 19761 1 119.8800511 375.723200
19759 19760 19769 1 119.8800511 375.723200
19761 19760 19769 1 120.0200517 532.790560
19760 19761 19762 1 121.3800518 83.010560
19760 19761 19763 1 120.0200517 532.790560
19762 19761 19763 1 121.3800518 83.010560
5498 19762 6229 1 109.50000 418.400000
5498 19762 11244 1 109.50000 418.400000
5498 19762 19761 1 103.70004 836.800000
6229 19762 11244 1 109.50000 418.400000
6229 19762 19761 1 103.70004 836.800000
11244 19762 19761 1 103.70004 836.800000
19761 19763 19764 1 119.8800511 375.723200
19761 19763 19765 1 120.0200517 532.790560
19764 19763 19765 1 119.8800511 375.723200
19763 19765 19766 1 119.8800511 375.723200
19763 19765 19767 1 120.0200517 532.790560
19766 19765 19767 1 119.8800511 375.723200
19765 19767 19768 1 119.8800511 375.723200
19765 19767 19769 1 120.0200517 532.790560
19768 19767 19769 1 119.8800511 375.723200
19760 19769 19767 1 120.0200517 532.790560
19760 19769 19770 1 119.8800511 375.723200
19767 19769 19770 1 119.8800511 375.723200
19771 19772 19773 1 119.8800511 375.723200
19771 19772 19781 1 119.8800511 375.723200
19773 19772 19781 1 120.0200517 532.790560
19772 19773 19774 1 121.3800518 83.010560
19772 19773 19775 1 120.0200517 532.790560
19774 19773 19775 1 121.3800518 83.010560
6230 19774 6231 1 109.50000 418.400000
6230 19774 6232 1 109.50000 418.400000
6230 19774 19773 1 103.70004 836.800000
6231 19774 6232 1 109.50000 418.400000
6231 19774 19773 1 103.70004 836.800000
6232 19774 19773 1 103.70004 836.800000
19773 19775 19776 1 119.8800511 375.723200
19773 19775 19777 1 120.0200517 532.790560
19776 19775 19777 1 119.8800511 375.723200
19775 19777 19778 1 119.8800511 375.723200
19775 19777 19779 1 120.0200517 532.790560
19778 19777 19779 1 119.8800511 375.723200
19777 19779 19780 1 119.8800511 375.723200
19777 19779 19781 1 120.0200517 532.790560
19780 19779 19781 1 119.8800511 375.723200
19772 19781 19779 1 120.0200517 532.790560
19772 19781 19782 1 119.8800511 375.723200
19779 19781 19782 1 119.8800511 375.723200
19783 19784 19785 1 119.8800511 375.723200
19783 19784 19793 1 119.8800511 375.723200
19785 19784 19793 1 120.0200517 532.790560
19784 19785 19786 1 121.3800518 83.010560
19784 19785 19787 1 120.0200517 532.790560
19786 19785 19787 1 121.3800518 83.010560
4278 19786 4930 1 109.50000 418.400000
4278 19786 6233 1 109.50000 418.400000
4278 19786 19785 1 103.70004 836.800000
4930 19786 6233 1 109.50000 418.400000
4930 19786 19785 1 103.70004 836.800000
6233 19786 19785 1 103.70004 836.800000
19785 19787 19788 1 119.8800511 375.723200
19785 19787 19789 1 120.0200517 532.790560
19788 19787 19789 1 119.8800511 375.723200
19787 19789 19790 1 119.8800511 375.723200
19787 19789 19791 1 120.0200517 532.790560
19790 19789 19791 1 119.8800511 375.723200
19789 19791 19792 1 119.8800511 375.723200
19789 19791 19793 1 120.0200517 532.790560
19792 19791 19793 1 119.8800511 375.723200
19784 19793 19791 1 120.0200517 532.790560
19784 19793 19794 1 119.8800511 375.723200
19791 19793 19794 1 119.8800511 375.723200
19795 19796 19797 1 119.8800511 375.723200
19795 19796 19805 1 119.8800511 375.723200
19797 19796 19805 1 120.0200517 532.790560
19796 19797 19798 1 121.3800518 83.010560
19796 19797 19799 1 120.0200517 532.790560
19798 19797 19799 1 121.3800518 83.010560
6262 19798 6263 1 109.50000 418.400000
6262 19798 6264 1 109.50000 418.400000
6262 19798 19797 1 103.70004 836.800000
6263 19798 6264 1 109.50000 418.400000
6263 19798 19797 1 103.70004 836.800000
6264 19798 19797 1 103.70004 836.800000
19797 19799 19800 1 119.8800511 375.723200
19797 19799 19801 1 120.0200517 532.790560
19800 19799 19801 1 119.8800511 375.723200
19799 19801 19802 1 119.8800511 375.723200
19799 19801 19803 1 120.0200517 532.790560
19802 19801 19803 1 119.8800511 375.723200
19801 19803 19804 1 119.8800511 375.723200
19801 19803 19805 1 120.0200517 532.790560
19804 19803 19805 1 119.8800511 375.723200
19796 19805 19803 1 120.0200517 532.790560
19796 19805 19806 1 119.8800511 375.723200
19803 19805 19806 1 119.8800511 375.723200
19807 19808 19809 1 119.8800511 375.723200
19807 19808 19817 1 119.8800511 375.723200
19809 19808 19817 1 120.0200517 532.790560
19808 19809 19810 1 121.3800518 83.010560
19808 19809 19811 1 120.0200517 532.790560
19810 19809 19811 1 121.3800518 83.010560
5000 19810 6267 1 109.50000 418.400000
5000 19810 11245 1 109.50000 418.400000
5000 19810 19809 1 103.70004 836.800000
6267 19810 11245 1 109.50000 418.400000
6267 19810 19809 1 103.70004 836.800000
11245 19810 19809 1 103.70004 836.800000
19809 19811 19812 1 119.8800511 375.723200
19809 19811 19813 1 120.0200517 532.790560
19812 19811 19813 1 119.8800511 375.723200
19811 19813 19814 1 119.8800511 375.723200
19811 19813 19815 1 120.0200517 532.790560
19814 19813 19815 1 119.8800511 375.723200
19813 19815 19816 1 119.8800511 375.723200
19813 19815 19817 1 120.0200517 532.790560
19816 19815 19817 1 119.8800511 375.723200
19808 19817 19815 1 120.0200517 532.790560
19808 19817 19818 1 119.8800511 375.723200
19815 19817 19818 1 119.8800511 375.723200
19819 19820 19821 1 119.8800511 375.723200
19819 19820 19829 1 119.8800511 375.723200
19821 19820 19829 1 120.0200517 532.790560
19820 19821 19822 1 121.3800518 83.010560
19820 19821 19823 1 120.0200517 532.790560
19822 19821 19823 1 121.3800518 83.010560
6314 19822 6315 1 109.50000 418.400000
6314 19822 11246 1 109.50000 418.400000
6314 19822 19821 1 103.70004 836.800000
6315 19822 11246 1 109.50000 418.400000
6315 19822 19821 1 103.70004 836.800000
11246 19822 19821 1 103.70004 836.800000
19821 19823 19824 1 119.8800511 375.723200
19821 19823 19825 1 120.0200517 532.790560
19824 19823 19825 1 119.8800511 375.723200
19823 19825 19826 1 119.8800511 375.723200
19823 19825 19827 1 120.0200517 532.790560
19826 19825 19827 1 119.8800511 375.723200
19825 19827 19828 1 119.8800511 375.723200
19825 19827 19829 1 120.0200517 532.790560
19828 19827 19829 1 119.8800511 375.723200
19820 19829 19827 1 120.0200517 532.790560
19820 19829 19830 1 119.8800511 375.723200
19827 19829 19830 1 119.8800511 375.723200
19831 19832 19833 1 119.8800511 375.723200
19831 19832 19841 1 119.8800511 375.723200
19833 19832 19841 1 120.0200517 532.790560
19832 19833 19834 1 121.3800518 83.010560
19832 19833 19835 1 120.0200517 532.790560
19834 19833 19835 1 121.3800518 83.010560
2557 19834 2560 1 109.50000 418.400000
2557 19834 6335 1 109.50000 418.400000
2557 19834 19833 1 103.70004 836.800000
2560 19834 6335 1 109.50000 418.400000
2560 19834 19833 1 103.70004 836.800000
6335 19834 19833 1 103.70004 836.800000
19833 19835 19836 1 119.8800511 375.723200
19833 19835 19837 1 120.0200517 532.790560
19836 19835 19837 1 119.8800511 375.723200
19835 19837 19838 1 119.8800511 375.723200
19835 19837 19839 1 120.0200517 532.790560
19838 19837 19839 1 119.8800511 375.723200
19837 19839 19840 1 119.8800511 375.723200
19837 19839 19841 1 120.0200517 532.790560
19840 19839 19841 1 119.8800511 375.723200
19832 19841 19839 1 120.0200517 532.790560
19832 19841 19842 1 119.8800511 375.723200
19839 19841 19842 1 119.8800511 375.723200
19843 19844 19845 1 119.8800511 375.723200
19843 19844 19853 1 119.8800511 375.723200
19845 19844 19853 1 120.0200517 532.790560
19844 19845 19846 1 121.3800518 83.010560
19844 19845 19847 1 120.0200517 532.790560
19846 19845 19847 1 121.3800518 83.010560
6350 19846 6351 1 109.50000 418.400000
6350 19846 11247 1 109.50000 418.400000
6350 19846 19845 1 103.70004 836.800000
6351 19846 11247 1 109.50000 418.400000
6351 19846 19845 1 103.70004 836.800000
11247 19846 19845 1 103.70004 836.800000
19845 19847 19848 1 119.8800511 375.723200
19845 19847 19849 1 120.0200517 532.790560
19848 19847 19849 1 119.8800511 375.723200
19847 19849 19850 1 119.8800511 375.723200
19847 19849 19851 1 120.0200517 532.790560
19850 19849 19851 1 119.8800511 375.723200
19849 19851 19852 1 119.8800511 375.723200
19849 19851 19853 1 120.0200517 532.790560
19852 19851 19853 1 119.8800511 375.723200
19844 19853 19851 1 120.0200517 532.790560
19844 19853 19854 1 119.8800511 375.723200
19851 19853 19854 1 119.8800511 375.723200
19855 19856 19857 1 119.8800511 375.723200
19855 19856 19865 1 119.8800511 375.723200
19857 19856 19865 1 120.0200517 532.790560
19856 19857 19858 1 121.3800518 83.010560
19856 19857 19859 1 120.0200517 532.790560
19858 19857 19859 1 121.3800518 83.010560
4513 19858 6383 1 109.50000 418.400000
4513 19858 6384 1 109.50000 418.400000
4513 19858 19857 1 103.70004 836.800000
6383 19858 6384 1 109.50000 418.400000
6383 19858 19857 1 103.70004 836.800000
6384 19858 19857 1 103.70004 836.800000
19857 19859 19860 1 119.8800511 375.723200
19857 19859 19861 1 120.0200517 532.790560
19860 19859 19861 1 119.8800511 375.723200
19859 19861 19862 1 119.8800511 375.723200
19859 19861 19863 1 120.0200517 532.790560
19862 19861 19863 1 119.8800511 375.723200
19861 19863 19864 1 119.8800511 375.723200
19861 19863 19865 1 120.0200517 532.790560
19864 19863 19865 1 119.8800511 375.723200
19856 19865 19863 1 120.0200517 532.790560
19856 19865 19866 1 119.8800511 375.723200
19863 19865 19866 1 119.8800511 375.723200
19867 19868 19869 1 119.8800511 375.723200
19867 19868 19877 1 119.8800511 375.723200
19869 19868 19877 1 120.0200517 532.790560
19868 19869 19870 1 121.3800518 83.010560
19868 19869 19871 1 120.0200517 532.790560
19870 19869 19871 1 121.3800518 83.010560
2730 19870 6385 1 109.50000 418.400000
2730 19870 6386 1 109.50000 418.400000
2730 19870 19869 1 103.70004 836.800000
6385 19870 6386 1 109.50000 418.400000
6385 19870 19869 1 103.70004 836.800000
6386 19870 19869 1 103.70004 836.800000
19869 19871 19872 1 119.8800511 375.723200
19869 19871 19873 1 120.0200517 532.790560
19872 19871 19873 1 119.8800511 375.723200
19871 19873 19874 1 119.8800511 375.723200
19871 19873 19875 1 120.0200517 532.790560
19874 19873 19875 1 119.8800511 375.723200
19873 19875 19876 1 119.8800511 375.723200
19873 19875 19877 1 120.0200517 532.790560
19876 19875 19877 1 119.8800511 375.723200
19868 19877 19875 1 120.0200517 532.790560
19868 19877 19878 1 119.8800511 375.723200
19875 19877 19878 1 119.8800511 375.723200
19879 19880 19881 1 119.8800511 375.723200
19879 19880 19889 1 119.8800511 375.723200
19881 19880 19889 1 120.0200517 532.790560
19880 19881 19882 1 121.3800518 83.010560
19880 19881 19883 1 120.0200517 532.790560
19882 19881 19883 1 121.3800518 83.010560
6395 19882 6396 1 109.50000 418.400000
6395 19882 6397 1 109.50000 418.400000
6395 19882 19881 1 103.70004 836.800000
6396 19882 6397 1 109.50000 418.400000
6396 19882 19881 1 103.70004 836.800000
6397 19882 19881 1 103.70004 836.800000
19881 19883 19884 1 119.8800511 375.723200
19881 19883 19885 1 120.0200517 532.790560
19884 19883 19885 1 119.8800511 375.723200
19883 19885 19886 1 119.8800511 375.723200
19883 19885 19887 1 120.0200517 532.790560
19886 19885 19887 1 119.8800511 375.723200
19885 19887 19888 1 119.8800511 375.723200
19885 19887 19889 1 120.0200517 532.790560
19888 19887 19889 1 119.8800511 375.723200
19880 19889 19887 1 120.0200517 532.790560
19880 19889 19890 1 119.8800511 375.723200
19887 19889 19890 1 119.8800511 375.723200
19891 19892 19893 1 119.8800511 375.723200
19891 19892 19901 1 119.8800511 375.723200
19893 19892 19901 1 120.0200517 532.790560
19892 19893 19894 1 121.3800518 83.010560
19892 19893 19895 1 120.0200517 532.790560
19894 19893 19895 1 121.3800518 83.010560
5361 19894 6026 1 109.50000 418.400000
5361 19894 11249 1 109.50000 418.400000
5361 19894 19893 1 103.70004 836.800000
6026 19894 11249 1 109.50000 418.400000
6026 19894 19893 1 103.70004 836.800000
11249 19894 19893 1 103.70004 836.800000
19893 19895 19896 1 119.8800511 375.723200
19893 19895 19897 1 120.0200517 532.790560
19896 19895 19897 1 119.8800511 375.723200
19895 19897 19898 1 119.8800511 375.723200
19895 19897 19899 1 120.0200517 532.790560
19898 19897 19899 1 119.8800511 375.723200
19897 19899 19900 1 119.8800511 375.723200
19897 19899 19901 1 120.0200517 532.790560
19900 19899 19901 1 119.8800511 375.723200
19892 19901 19899 1 120.0200517 532.790560
19892 19901 19902 1 119.8800511 375.723200
19899 19901 19902 1 119.8800511 375.723200
19903 19904 19905 1 119.8800511 375.723200
19903 19904 19913 1 119.8800511 375.723200
19905 19904 19913 1 120.0200517 532.790560
19904 19905 19906 1 121.3800518 83.010560
19904 19905 19907 1 120.0200517 532.790560
19906 19905 19907 1 121.3800518 83.010560
6486 19906 6487 1 109.50000 418.400000
6486 19906 7783 1 109.50000 418.400000
6486 19906 19905 1 103.70004 836.800000
6487 19906 7783 1 109.50000 418.400000
6487 19906 19905 1 103.70004 836.800000
7783 19906 19905 1 103.70004 836.800000
19905 19907 19908 1 119.8800511 375.723200
19905 19907 19909 1 120.0200517 532.790560
19908 19907 19909 1 119.8800511 375.723200
19907 19909 19910 1 119.8800511 375.723200
19907 19909 19911 1 120.0200517 532.790560
19910 19909 19911 1 119.8800511 375.723200
19909 19911 19912 1 119.8800511 375.723200
19909 19911 19913 1 120.0200517 532.790560
19912 19911 19913 1 119.8800511 375.723200
19904 19913 19911 1 120.0200517 532.790560
19904 19913 19914 1 119.8800511 375.723200
19911 19913 19914 1 119.8800511 375.723200
19915 19916 19917 1 119.8800511 375.723200
19915 19916 19925 1 119.8800511 375.723200
19917 19916 19925 1 120.0200517 532.790560
19916 19917 19918 1 121.3800518 83.010560
19916 19917 19919 1 120.0200517 532.790560
19918 19917 19919 1 121.3800518 83.010560
491 19918 5846 1 109.50000 418.400000
491 19918 11250 1 109.50000 418.400000
491 19918 19917 1 103.70004 836.800000
5846 19918 11250 1 109.50000 418.400000
5846 19918 19917 1 103.70004 836.800000
11250 19918 19917 1 103.70004 836.800000
19917 19919 19920 1 119.8800511 375.723200
19917 19919 19921 1 120.0200517 532.790560
19920 19919 19921 1 119.8800511 375.723200
19919 19921 19922 1 119.8800511 375.723200
19919 19921 19923 1 120.0200517 532.790560
19922 19921 19923 1 119.8800511 375.723200
19921 19923 19924 1 119.8800511 375.723200
19921 19923 19925 1 120.0200517 532.790560
19924 19923 19925 1 119.8800511 375.723200
19916 19925 19923 1 120.0200517 532.790560
19916 19925 19926 1 119.8800511 375.723200
19923 19925 19926 1 119.8800511 375.723200
19927 19928 19929 1 119.8800511 375.723200
19927 19928 19937 1 119.8800511 375.723200
19929 19928 19937 1 120.0200517 532.790560
19928 19929 19930 1 121.3800518 83.010560
19928 19929 19931 1 120.0200517 532.790560
19930 19929 19931 1 121.3800518 83.010560
4777 19930 5251 1 109.50000 418.400000
4777 19930 6526 1 109.50000 418.400000
4777 19930 19929 1 103.70004 836.800000
5251 19930 6526 1 109.50000 418.400000
5251 19930 19929 1 103.70004 836.800000
6526 19930 19929 1 103.70004 836.800000
19929 19931 19932 1 119.8800511 375.723200
19929 19931 19933 1 120.0200517 532.790560
19932 19931 19933 1 119.8800511 375.723200
19931 19933 19934 1 119.8800511 375.723200
19931 19933 19935 1 120.0200517 532.790560
19934 19933 19935 1 119.8800511 375.723200
19933 19935 19936 1 119.8800511 375.723200
19933 19935 19937 1 120.0200517 532.790560
19936 19935 19937 1 119.8800511 375.723200
19928 19937 19935 1 120.0200517 532.790560
19928 19937 19938 1 119.8800511 375.723200
19935 19937 19938 1 119.8800511 375.723200
2490 19939 2492 1 109.50000 418.400000
2490 19939 4374 1 109.50000 418.400000
2490 19939 19940 1 109.50000 418.400000
2492 19939 4374 1 109.50000 418.400000
2492 19939 19940 1 109.50000 418.400000
4374 19939 19940 1 109.50000 418.400000
19939 19940 19941 1 115.00000 209.200000
2107 19942 6556 1 109.50000 418.400000
2107 19942 6557 1 109.50000 418.400000
2107 19942 19943 1 109.50000 418.400000
6556 19942 6557 1 109.50000 418.400000
6556 19942 19943 1 109.50000 418.400000
6557 19942 19943 1 109.50000 418.400000
19942 19943 19944 1 115.00000 209.200000
499 19945 6558 1 109.50000 418.400000
499 19945 11251 1 109.50000 418.400000
499 19945 19946 1 109.50000 418.400000
6558 19945 11251 1 109.50000 418.400000
6558 19945 19946 1 109.50000 418.400000
11251 19945 19946 1 109.50000 418.400000
19945 19946 19947 1 115.00000 209.200000
1945 19948 6569 1 109.50000 418.400000
1945 19948 6570 1 109.50000 418.400000
1945 19948 19949 1 109.50000 418.400000
6569 19948 6570 1 109.50000 418.400000
6569 19948 19949 1 109.50000 418.400000
6570 19948 19949 1 109.50000 418.400000
19948 19949 19950 1 115.00000 209.200000
6572 19951 6573 1 109.50000 418.400000
6572 19951 10080 1 109.50000 418.400000
6572 19951 19952 1 109.50000 418.400000
6573 19951 10080 1 109.50000 418.400000
6573 19951 19952 1 109.50000 418.400000
10080 19951 19952 1 109.50000 418.400000
19951 19952 19953 1 115.00000 209.200000
1896 19954 6581 1 109.50000 418.400000
1896 19954 11252 1 109.50000 418.400000
1896 19954 19955 1 109.50000 418.400000
6581 19954 11252 1 109.50000 418.400000
6581 19954 19955 1 109.50000 418.400000
11252 19954 19955 1 109.50000 418.400000
19954 19955 19956 1 115.00000 209.200000
6560 19957 6600 1 109.50000 418.400000
6560 19957 6601 1 109.50000 418.400000
6560 19957 19958 1 109.50000 418.400000
6600 19957 6601 1 109.50000 418.400000
6600 19957 19958 1 109.50000 418.400000
6601 19957 19958 1 109.50000 418.400000
19957 19958 19959 1 115.00000 209.200000
512 19960 6639 1 109.50000 418.400000
512 19960 11253 1 109.50000 418.400000
512 19960 19961 1 109.50000 418.400000
6639 19960 11253 1 109.50000 418.400000
6639 19960 19961 1 109.50000 418.400000
11253 19960 19961 1 109.50000 418.400000
19960 19961 19962 1 115.00000 209.200000
174 19963 6557 1 109.50000 418.400000
174 19963 6647 1 109.50000 418.400000
174 19963 19964 1 109.50000 418.400000
6557 19963 6647 1 109.50000 418.400000
6557 19963 19964 1 109.50000 418.400000
6647 19963 19964 1 109.50000 418.400000
19963 19964 19965 1 115.00000 209.200000
6648 19966 6649 1 109.50000 418.400000
6648 19966 6650 1 109.50000 418.400000
6648 19966 19967 1 109.50000 418.400000
6649 19966 6650 1 109.50000 418.400000
6649 19966 19967 1 109.50000 418.400000
6650 19966 19967 1 109.50000 418.400000
19966 19967 19968 1 115.00000 209.200000
6383 19969 6658 1 109.50000 418.400000
6383 19969 11254 1 109.50000 418.400000
6383 19969 19970 1 109.50000 418.400000
6658 19969 11254 1 109.50000 418.400000
6658 19969 19970 1 109.50000 418.400000
11254 19969 19970 1 109.50000 418.400000
19969 19970 19971 1 115.00000 209.200000
4991 19972 6726 1 109.50000 418.400000
4991 19972 11256 1 109.50000 418.400000
4991 19972 19973 1 109.50000 418.400000
6726 19972 11256 1 109.50000 418.400000
6726 19972 19973 1 109.50000 418.400000
11256 19972 19973 1 109.50000 418.400000
19972 19973 19974 1 115.00000 209.200000
5582 19975 6741 1 109.50000 418.400000
5582 19975 6742 1 109.50000 418.400000
5582 19975 19976 1 109.50000 418.400000
6741 19975 6742 1 109.50000 418.400000
6741 19975 19976 1 109.50000 418.400000
6742 19975 19976 1 109.50000 418.400000
19975 19976 19977 1 115.00000 209.200000
30 19978 3779 1 109.50000 418.400000
30 19978 5714 1 109.50000 418.400000
30 19978 19979 1 109.50000 418.400000
3779 19978 5714 1 109.50000 418.400000
3779 19978 19979 1 109.50000 418.400000
5714 19978 19979 1 109.50000 418.400000
19978 19979 19980 1 115.00000 209.200000
2540 19981 6901 1 109.50000 418.400000
2540 19981 11257 1 109.50000 418.400000
2540 19981 19982 1 109.50000 418.400000
6901 19981 11257 1 109.50000 418.400000
6901 19981 19982 1 109.50000 418.400000
11257 19981 19982 1 109.50000 418.400000
19981 19982 19983 1 115.00000 209.200000
2046 19984 6921 1 109.50000 418.400000
2046 19984 11258 1 109.50000 418.400000
2046 19984 19985 1 109.50000 418.400000
6921 19984 11258 1 109.50000 418.400000
6921 19984 19985 1 109.50000 418.400000
11258 19984 19985 1 109.50000 418.400000
19984 19985 19986 1 115.00000 209.200000
1717 19987 6926 1 109.50000 418.400000
1717 19987 11314 1 109.50000 418.400000
1717 19987 19988 1 109.50000 418.400000
6926 19987 11314 1 109.50000 418.400000
6926 19987 19988 1 109.50000 418.400000
11314 19987 19988 1 109.50000 418.400000
19987 19988 19989 1 115.00000 209.200000
2952 19990 6931 1 109.50000 418.400000
2952 19990 6932 1 109.50000 418.400000
2952 19990 19991 1 109.50000 418.400000
6931 19990 6932 1 109.50000 418.400000
6931 19990 19991 1 109.50000 418.400000
6932 19990 19991 1 109.50000 418.400000
19990 19991 19992 1 115.00000 209.200000
1962 19993 6950 1 109.50000 418.400000
1962 19993 10032 1 109.50000 418.400000
1962 19993 19994 1 109.50000 418.400000
6950 19993 10032 1 109.50000 418.400000
6950 19993 19994 1 109.50000 418.400000
10032 19993 19994 1 109.50000 418.400000
19993 19994 19995 1 115.00000 209.200000
2240 19996 6978 1 109.50000 418.400000
2240 19996 11259 1 109.50000 418.400000
2240 19996 19997 1 109.50000 418.400000
6978 19996 11259 1 109.50000 418.400000
6978 19996 19997 1 109.50000 418.400000
11259 19996 19997 1 109.50000 418.400000
19996 19997 19998 1 115.00000 209.200000
3492 19999 3493 1 109.50000 418.400000
3492 19999 7714 1 109.50000 418.400000
3492 19999 20000 1 109.50000 418.400000
3493 19999 7714 1 109.50000 418.400000
3493 19999 20000 1 109.50000 418.400000
7714 19999 20000 1 109.50000 418.400000
19999 20000 20001 1 115.00000 209.200000
1495 20002 4981 1 109.50000 418.400000
1495 20002 11260 1 109.50000 418.400000
1495 20002 20003 1 109.50000 418.400000
4981 20002 11260 1 109.50000 418.400000
4981 20002 20003 1 109.50000 418.400000
11260 20002 20003 1 109.50000 418.400000
20002 20003 20004 1 115.00000 209.200000
5093 20005 5322 1 109.50000 418.400000
5093 20005 7052 1 109.50000 418.400000
5093 20005 20006 1 109.50000 418.400000
5322 20005 7052 1 109.50000 418.400000
5322 20005 20006 1 109.50000 418.400000
7052 20005 20006 1 109.50000 418.400000
20005 20006 20007 1 115.00000 209.200000
4938 20008 5866 1 109.50000 418.400000
4938 20008 7098 1 109.50000 418.400000
4938 20008 20009 1 109.50000 418.400000
5866 20008 7098 1 109.50000 418.400000
5866 20008 20009 1 109.50000 418.400000
7098 20008 20009 1 109.50000 418.400000
20008 20009 20010 1 115.00000 209.200000
4514 20011 4576 1 109.50000 418.400000
4514 20011 11262 1 109.50000 418.400000
4514 20011 20012 1 109.50000 418.400000
4576 20011 11262 1 109.50000 418.400000
4576 20011 20012 1 109.50000 418.400000
11262 20011 20012 1 109.50000 418.400000
20011 20012 20013 1 115.00000 209.200000
5039 20014 7141 1 109.50000 418.400000
5039 20014 7142 1 109.50000 418.400000
5039 20014 20015 1 109.50000 418.400000
7141 20014 7142 1 109.50000 418.400000
7141 20014 20015 1 109.50000 418.400000
7142 20014 20015 1 109.50000 418.400000
20014 20015 20016 1 115.00000 209.200000
4870 20017 7153 1 109.50000 418.400000
4870 20017 7154 1 109.50000 418.400000
4870 20017 20018 1 109.50000 418.400000
7153 20017 7154 1 109.50000 418.400000
7153 20017 20018 1 109.50000 418.400000
7154 20017 20018 1 109.50000 418.400000
20017 20018 20019 1 115.00000 209.200000
1455 20020 7180 1 109.50000 418.400000
1455 20020 11265 1 109.50000 418.400000
1455 20020 20021 1 109.50000 418.400000
7180 20020 11265 1 109.50000 418.400000
7180 20020 20021 1 109.50000 418.400000
11265 20020 20021 1 109.50000 418.400000
20020 20021 20022 1 115.00000 209.200000
1291 20023 1684 1 109.50000 418.400000
1291 20023 7198 1 109.50000 418.400000
1291 20023 20024 1 109.50000 418.400000
1684 20023 7198 1 109.50000 418.400000
1684 20023 20024 1 109.50000 418.400000
7198 20023 20024 1 109.50000 418.400000
20023 20024 20025 1 115.00000 209.200000
1171 20026 7222 1 109.50000 418.400000
1171 20026 7223 1 109.50000 418.400000
1171 20026 20027 1 109.50000 418.400000
7222 20026 7223 1 109.50000 418.400000
7222 20026 20027 1 109.50000 418.400000
7223 20026 20027 1 109.50000 418.400000
20026 20027 20028 1 115.00000 209.200000
1858 20029 6427 1 109.50000 418.400000
1858 20029 7257 1 109.50000 418.400000
1858 20029 20030 1 109.50000 418.400000
6427 20029 7257 1 109.50000 418.400000
6427 20029 20030 1 109.50000 418.400000
7257 20029 20030 1 109.50000 418.400000
20029 20030 20031 1 115.00000 209.200000
285 20032 6031 1 109.50000 418.400000
285 20032 11266 1 109.50000 418.400000
285 20032 20033 1 109.50000 418.400000
6031 20032 11266 1 109.50000 418.400000
6031 20032 20033 1 109.50000 418.400000
11266 20032 20033 1 109.50000 418.400000
20032 20033 20034 1 115.00000 209.200000
1110 20035 2651 1 109.50000 418.400000
1110 20035 2690 1 109.50000 418.400000
1110 20035 20036 1 109.50000 418.400000
2651 20035 2690 1 109.50000 418.400000
2651 20035 20036 1 109.50000 418.400000
2690 20035 20036 1 109.50000 418.400000
20035 20036 20037 1 115.00000 209.200000
3504 20038 6148 1 109.50000 418.400000
3504 20038 11267 1 109.50000 418.400000
3504 20038 20039 1 109.50000 418.400000
6148 20038 11267 1 109.50000 418.400000
6148 20038 20039 1 109.50000 418.400000
11267 20038 20039 1 109.50000 418.400000
20038 20039 20040 1 115.00000 209.200000
3148 20041 7375 1 109.50000 418.400000
3148 20041 7376 1 109.50000 418.400000
3148 20041 20042 1 109.50000 418.400000
7375 20041 7376 1 109.50000 418.400000
7375 20041 20042 1 109.50000 418.400000
7376 20041 20042 1 109.50000 418.400000
20041 20042 20043 1 115.00000 209.200000
3771 20044 5460 1 109.50000 418.400000
3771 20044 11271 1 109.50000 418.400000
3771 20044 20045 1 109.50000 418.400000
5460 20044 11271 1 109.50000 418.400000
5460 20044 20045 1 109.50000 418.400000
11271 20044 20045 1 109.50000 418.400000
20044 20045 20046 1 115.00000 209.200000
7066 20047 7470 1 109.50000 418.400000
7066 20047 11272 1 109.50000 418.400000
7066 20047 20048 1 109.50000 418.400000
7470 20047 11272 1 109.50000 418.400000
7470 20047 20048 1 109.50000 418.400000
11272 20047 20048 1 109.50000 418.400000
20047 20048 20049 1 115.00000 209.200000
5288 20050 7485 1 109.50000 418.400000
5288 20050 7486 1 109.50000 418.400000
5288 20050 20051 1 109.50000 418.400000
7485 20050 7486 1 109.50000 418.400000
7485 20050 20051 1 109.50000 418.400000
7486 20050 20051 1 109.50000 418.400000
20050 20051 20052 1 115.00000 209.200000
3479 20053 7341 1 109.50000 418.400000
3479 20053 7342 1 109.50000 418.400000
3479 20053 20054 1 109.50000 418.400000
7341 20053 7342 1 109.50000 418.400000
7341 20053 20054 1 109.50000 418.400000
7342 20053 20054 1 109.50000 418.400000
20053 20054 20055 1 115.00000 209.200000
2746 20056 4785 1 109.50000 418.400000
2746 20056 7497 1 109.50000 418.400000
2746 20056 20057 1 109.50000 418.400000
4785 20056 7497 1 109.50000 418.400000
4785 20056 20057 1 109.50000 418.400000
7497 20056 20057 1 109.50000 418.400000
20056 20057 20058 1 115.00000 209.200000
3106 20059 5095 1 109.50000 418.400000
3106 20059 5501 1 109.50000 418.400000
3106 20059 20060 1 109.50000 418.400000
5095 20059 5501 1 109.50000 418.400000
5095 20059 20060 1 109.50000 418.400000
5501 20059 20060 1 109.50000 418.400000
20059 20060 20061 1 115.00000 209.200000
5834 20062 7510 1 109.50000 418.400000
5834 20062 11273 1 109.50000 418.400000
5834 20062 20063 1 109.50000 418.400000
7510 20062 11273 1 109.50000 418.400000
7510 20062 20063 1 109.50000 418.400000
11273 20062 20063 1 109.50000 418.400000
20062 20063 20064 1 115.00000 209.200000
7528 20065 7529 1 109.50000 418.400000
7528 20065 11274 1 109.50000 418.400000
7528 20065 20066 1 109.50000 418.400000
7529 20065 11274 1 109.50000 418.400000
7529 20065 20066 1 109.50000 418.400000
11274 20065 20066 1 109.50000 418.400000
20065 20066 20067 1 115.00000 209.200000
5845 20068 7559 1 109.50000 418.400000
5845 20068 11275 1 109.50000 418.400000
5845 20068 20069 1 109.50000 418.400000
7559 20068 11275 1 109.50000 418.400000
7559 20068 20069 1 109.50000 418.400000
11275 20068 20069 1 109.50000 418.400000
20068 20069 20070 1 115.00000 209.200000
6486 20071 7363 1 109.50000 418.400000
6486 20071 11276 1 109.50000 418.400000
6486 20071 20072 1 109.50000 418.400000
7363 20071 11276 1 109.50000 418.400000
7363 20071 20072 1 109.50000 418.400000
11276 20071 20072 1 109.50000 418.400000
20071 20072 20073 1 115.00000 209.200000
7624 20074 7625 1 109.50000 418.400000
7624 20074 7626 1 109.50000 418.400000
7624 20074 20075 1 109.50000 418.400000
7625 20074 7626 1 109.50000 418.400000
7625 20074 20075 1 109.50000 418.400000
7626 20074 20075 1 109.50000 418.400000
20074 20075 20076 1 115.00000 209.200000
7209 20077 7627 1 109.50000 418.400000
7209 20077 7628 1 109.50000 418.400000
7209 20077 20078 1 109.50000 418.400000
7627 20077 7628 1 109.50000 418.400000
7627 20077 20078 1 109.50000 418.400000
7628 20077 20078 1 109.50000 418.400000
20077 20078 20079 1 115.00000 209.200000
3189 20080 6057 1 109.50000 418.400000
3189 20080 11277 1 109.50000 418.400000
3189 20080 20081 1 109.50000 418.400000
6057 20080 11277 1 109.50000 418.400000
6057 20080 20081 1 109.50000 418.400000
11277 20080 20081 1 109.50000 418.400000
20080 20081 20082 1 115.00000 209.200000
3035 20083 7636 1 109.50000 418.400000
3035 20083 11278 1 109.50000 418.400000
3035 20083 20084 1 109.50000 418.400000
7636 20083 11278 1 109.50000 418.400000
7636 20083 20084 1 109.50000 418.400000
11278 20083 20084 1 109.50000 418.400000
20083 20084 20085 1 115.00000 209.200000
7661 20086 7662 1 109.50000 418.400000
7661 20086 11279 1 109.50000 418.400000
7661 20086 20087 1 109.50000 418.400000
7662 20086 11279 1 109.50000 418.400000
7662 20086 20087 1 109.50000 418.400000
11279 20086 20087 1 109.50000 418.400000
20086 20087 20088 1 115.00000 209.200000
6574 20089 7665 1 109.50000 418.400000
6574 20089 7666 1 109.50000 418.400000
6574 20089 20090 1 109.50000 418.400000
7665 20089 7666 1 109.50000 418.400000
7665 20089 20090 1 109.50000 418.400000
7666 20089 20090 1 109.50000 418.400000
20089 20090 20091 1 115.00000 209.200000
6379 20092 7686 1 109.50000 418.400000
6379 20092 11281 1 109.50000 418.400000
6379 20092 20093 1 109.50000 418.400000
7686 20092 11281 1 109.50000 418.400000
7686 20092 20093 1 109.50000 418.400000
11281 20092 20093 1 109.50000 418.400000
20092 20093 20094 1 115.00000 209.200000
5041 20095 7687 1 109.50000 418.400000
5041 20095 7688 1 109.50000 418.400000
5041 20095 20096 1 109.50000 418.400000
7687 20095 7688 1 109.50000 418.400000
7687 20095 20096 1 109.50000 418.400000
7688 20095 20096 1 109.50000 418.400000
20095 20096 20097 1 115.00000 209.200000
7711 20098 7712 1 109.50000 418.400000
7711 20098 9111 1 109.50000 418.400000
7711 20098 20099 1 109.50000 418.400000
7712 20098 9111 1 109.50000 418.400000
7712 20098 20099 1 109.50000 418.400000
9111 20098 20099 1 109.50000 418.400000
20098 20099 20100 1 115.00000 209.200000
7732 20101 7733 1 109.50000 418.400000
7732 20101 7734 1 109.50000 418.400000
7732 20101 20102 1 109.50000 418.400000
7733 20101 7734 1 109.50000 418.400000
7733 20101 20102 1 109.50000 418.400000
7734 20101 20102 1 109.50000 418.400000
20101 20102 20103 1 115.00000 209.200000
6364 20104 7769 1 109.50000 418.400000
6364 20104 7770 1 109.50000 418.400000
6364 20104 20105 1 109.50000 418.400000
7769 20104 7770 1 109.50000 418.400000
7769 20104 20105 1 109.50000 418.400000
7770 20104 20105 1 109.50000 418.400000
20104 20105 20106 1 115.00000 209.200000
383 20107 1830 1 109.50000 418.400000
383 20107 7800 1 109.50000 418.400000
383 20107 20108 1 109.50000 418.400000
1830 20107 7800 1 109.50000 418.400000
1830 20107 20108 1 109.50000 418.400000
7800 20107 20108 1 109.50000 418.400000
20107 20108 20109 1 115.00000 209.200000
3549 20110 7805 1 109.50000 418.400000
3549 20110 7806 1 109.50000 418.400000
3549 20110 20111 1 109.50000 418.400000
7805 20110 7806 1 109.50000 418.400000
7805 20110 20111 1 109.50000 418.400000
7806 20110 20111 1 109.50000 418.400000
20110 20111 20112 1 115.00000 209.200000
7812 20113 7813 1 109.50000 418.400000
7812 20113 11282 1 109.50000 418.400000
7812 20113 20114 1 109.50000 418.400000
7813 20113 11282 1 109.50000 418.400000
7813 20113 20114 1 109.50000 418.400000
11282 20113 20114 1 109.50000 418.400000
20113 20114 20115 1 115.00000 209.200000
4771 20116 7099 1 109.50000 418.400000
4771 20116 7842 1 109.50000 418.400000
4771 20116 20117 1 109.50000 418.400000
7099 20116 7842 1 109.50000 418.400000
7099 20116 20117 1 109.50000 418.400000
7842 20116 20117 1 109.50000 418.400000
20116 20117 20118 1 115.00000 209.200000
3425 20119 7859 1 109.50000 418.400000
3425 20119 11283 1 109.50000 418.400000
3425 20119 20120 1 109.50000 418.400000
7859 20119 11283 1 109.50000 418.400000
7859 20119 20120 1 109.50000 418.400000
11283 20119 20120 1 109.50000 418.400000
20119 20120 20121 1 115.00000 209.200000
2419 20122 3922 1 109.50000 418.400000
2419 20122 7908 1 109.50000 418.400000
2419 20122 20123 1 109.50000 418.400000
3922 20122 7908 1 109.50000 418.400000
3922 20122 20123 1 109.50000 418.400000
7908 20122 20123 1 109.50000 418.400000
20122 20123 20124 1 115.00000 209.200000
2899 20125 7932 1 109.50000 418.400000
2899 20125 7933 1 109.50000 418.400000
2899 20125 20126 1 109.50000 418.400000
7932 20125 7933 1 109.50000 418.400000
7932 20125 20126 1 109.50000 418.400000
7933 20125 20126 1 109.50000 418.400000
20125 20126 20127 1 115.00000 209.200000
4207 20128 7945 1 109.50000 418.400000
4207 20128 11284 1 109.50000 418.400000
4207 20128 20129 1 109.50000 418.400000
7945 20128 11284 1 109.50000 418.400000
7945 20128 20129 1 109.50000 418.400000
11284 20128 20129 1 109.50000 418.400000
20128 20129 20130 1 115.00000 209.200000
181 20131 6515 1 109.50000 418.400000
181 20131 7956 1 109.50000 418.400000
181 20131 20132 1 109.50000 418.400000
6515 20131 7956 1 109.50000 418.400000
6515 20131 20132 1 109.50000 418.400000
7956 20131 20132 1 109.50000 418.400000
20131 20132 20133 1 115.00000 209.200000
7580 20134 9549 1 109.50000 418.400000
7580 20134 11285 1 109.50000 418.400000
7580 20134 20135 1 109.50000 418.400000
9549 20134 11285 1 109.50000 418.400000
9549 20134 20135 1 109.50000 418.400000
11285 20134 20135 1 109.50000 418.400000
20134 20135 20136 1 115.00000 209.200000
8012 20137 8013 1 109.50000 418.400000
8012 20137 11286 1 109.50000 418.400000
8012 20137 20138 1 109.50000 418.400000
8013 20137 11286 1 109.50000 418.400000
8013 20137 20138 1 109.50000 418.400000
11286 20137 20138 1 109.50000 418.400000
20137 20138 20139 1 115.00000 209.200000
6646 20140 8043 1 109.50000 418.400000
6646 20140 11287 1 109.50000 418.400000
6646 20140 20141 1 109.50000 418.400000
8043 20140 11287 1 109.50000 418.400000
8043 20140 20141 1 109.50000 418.400000
11287 20140 20141 1 109.50000 418.400000
20140 20141 20142 1 115.00000 209.200000
4607 20143 4608 1 109.50000 418.400000
4607 20143 8045 1 109.50000 418.400000
4607 20143 20144 1 109.50000 418.400000
4608 20143 8045 1 109.50000 418.400000
4608 20143 20144 1 109.50000 418.400000
8045 20143 20144 1 109.50000 418.400000
20143 20144 20145 1 115.00000 209.200000
24 20146 8067 1 109.50000 418.400000
24 20146 11288 1 109.50000 418.400000
24 20146 20147 1 109.50000 418.400000
8067 20146 11288 1 109.50000 418.400000
8067 20146 20147 1 109.50000 418.400000
11288 20146 20147 1 109.50000 418.400000
20146 20147 20148 1 115.00000 209.200000
4023 20149 5727 1 109.50000 418.400000
4023 20149 8081 1 109.50000 418.400000
4023 20149 20150 1 109.50000 418.400000
5727 20149 8081 1 109.50000 418.400000
5727 20149 20150 1 109.50000 418.400000
8081 20149 20150 1 109.50000 418.400000
20149 20150 20151 1 115.00000 209.200000
8089 20152 8090 1 109.50000 418.400000
8089 20152 10514 1 109.50000 418.400000
8089 20152 20153 1 109.50000 418.400000
8090 20152 10514 1 109.50000 418.400000
8090 20152 20153 1 109.50000 418.400000
10514 20152 20153 1 109.50000 418.400000
20152 20153 20154 1 115.00000 209.200000
8091 20155 8092 1 109.50000 418.400000
8091 20155 8093 1 109.50000 418.400000
8091 20155 20156 1 109.50000 418.400000
8092 20155 8093 1 109.50000 418.400000
8092 20155 20156 1 109.50000 418.400000
8093 20155 20156 1 109.50000 418.400000
20155 20156 20157 1 115.00000 209.200000
4236 20158 8106 1 109.50000 418.400000
4236 20158 9180 1 109.50000 418.400000
4236 20158 20159 1 109.50000 418.400000
8106 20158 9180 1 109.50000 418.400000
8106 20158 20159 1 109.50000 418.400000
9180 20158 20159 1 109.50000 418.400000
20158 20159 20160 1 115.00000 209.200000
8172 20161 8173 1 109.50000 418.400000
8172 20161 8174 1 109.50000 418.400000
8172 20161 20162 1 109.50000 418.400000
8173 20161 8174 1 109.50000 418.400000
8173 20161 20162 1 109.50000 418.400000
8174 20161 20162 1 109.50000 418.400000
20161 20162 20163 1 115.00000 209.200000
5561 20164 8198 1 109.50000 418.400000
5561 20164 11289 1 109.50000 418.400000
5561 20164 20165 1 109.50000 418.400000
8198 20164 11289 1 109.50000 418.400000
8198 20164 20165 1 109.50000 418.400000
11289 20164 20165 1 109.50000 418.400000
20164 20165 20166 1 115.00000 209.200000
7860 20167 8222 1 109.50000 418.400000
7860 20167 11290 1 109.50000 418.400000
7860 20167 20168 1 109.50000 418.400000
8222 20167 11290 1 109.50000 418.400000
8222 20167 20168 1 109.50000 418.400000
11290 20167 20168 1 109.50000 418.400000
20167 20168 20169 1 115.00000 209.200000
5352 20170 8237 1 109.50000 418.400000
5352 20170 8373 1 109.50000 418.400000
5352 20170 20171 1 109.50000 418.400000
8237 20170 8373 1 109.50000 418.400000
8237 20170 20171 1 109.50000 418.400000
8373 20170 20171 1 109.50000 418.400000
20170 20171 20172 1 115.00000 209.200000
4516 20173 6448 1 109.50000 418.400000
4516 20173 8246 1 109.50000 418.400000
4516 20173 20174 1 109.50000 418.400000
6448 20173 8246 1 109.50000 418.400000
6448 20173 20174 1 109.50000 418.400000
8246 20173 20174 1 109.50000 418.400000
20173 20174 20175 1 115.00000 209.200000
205 20176 1944 1 109.50000 418.400000
205 20176 11291 1 109.50000 418.400000
205 20176 20177 1 109.50000 418.400000
1944 20176 11291 1 109.50000 418.400000
1944 20176 20177 1 109.50000 418.400000
11291 20176 20177 1 109.50000 418.400000
20176 20177 20178 1 115.00000 209.200000
775 20179 8265 1 109.50000 418.400000
775 20179 11293 1 109.50000 418.400000
775 20179 20180 1 109.50000 418.400000
8265 20179 11293 1 109.50000 418.400000
8265 20179 20180 1 109.50000 418.400000
11293 20179 20180 1 109.50000 418.400000
20179 20180 20181 1 115.00000 209.200000
4707 20182 5374 1 109.50000 418.400000
4707 20182 7666 1 109.50000 418.400000
4707 20182 20183 1 109.50000 418.400000
5374 20182 7666 1 109.50000 418.400000
5374 20182 20183 1 109.50000 418.400000
7666 20182 20183 1 109.50000 418.400000
20182 20183 20184 1 115.00000 209.200000
8276 20185 10397 1 109.50000 418.400000
8276 20185 11294 1 109.50000 418.400000
8276 20185 20186 1 109.50000 418.400000
10397 20185 11294 1 109.50000 418.400000
10397 20185 20186 1 109.50000 418.400000
11294 20185 20186 1 109.50000 418.400000
20185 20186 20187 1 115.00000 209.200000
8288 20188 8289 1 109.50000 418.400000
8288 20188 11295 1 109.50000 418.400000
8288 20188 20189 1 109.50000 418.400000
8289 20188 11295 1 109.50000 418.400000
8289 20188 20189 1 109.50000 418.400000
11295 20188 20189 1 109.50000 418.400000
20188 20189 20190 1 115.00000 209.200000
6 20191 7818 1 109.50000 418.400000
6 20191 7819 1 109.50000 418.400000
6 20191 20192 1 109.50000 418.400000
7818 20191 7819 1 109.50000 418.400000
7818 20191 20192 1 109.50000 418.400000
7819 20191 20192 1 109.50000 418.400000
20191 20192 20193 1 115.00000 209.200000
5299 20194 6666 1 109.50000 418.400000
5299 20194 8298 1 109.50000 418.400000
5299 20194 20195 1 109.50000 418.400000
6666 20194 8298 1 109.50000 418.400000
6666 20194 20195 1 109.50000 418.400000
8298 20194 20195 1 109.50000 418.400000
20194 20195 20196 1 115.00000 209.200000
5998 20197 7217 1 109.50000 418.400000
5998 20197 8354 1 109.50000 418.400000
5998 20197 20198 1 109.50000 418.400000
7217 20197 8354 1 109.50000 418.400000
7217 20197 20198 1 109.50000 418.400000
8354 20197 20198 1 109.50000 418.400000
20197 20198 20199 1 115.00000 209.200000
943 20200 8371 1 109.50000 418.400000
943 20200 11296 1 109.50000 418.400000
943 20200 20201 1 109.50000 418.400000
8371 20200 11296 1 109.50000 418.400000
8371 20200 20201 1 109.50000 418.400000
11296 20200 20201 1 109.50000 418.400000
20200 20201 20202 1 115.00000 209.200000
7805 20203 8404 1 109.50000 418.400000
7805 20203 8405 1 109.50000 418.400000
7805 20203 20204 1 109.50000 418.400000
8404 20203 8405 1 109.50000 418.400000
8404 20203 20204 1 109.50000 418.400000
8405 20203 20204 1 109.50000 418.400000
20203 20204 20205 1 115.00000 209.200000
2494 20206 6827 1 109.50000 418.400000
2494 20206 11297 1 109.50000 418.400000
2494 20206 20207 1 109.50000 418.400000
6827 20206 11297 1 109.50000 418.400000
6827 20206 20207 1 109.50000 418.400000
11297 20206 20207 1 109.50000 418.400000
20206 20207 20208 1 115.00000 209.200000
8473 20209 8474 1 109.50000 418.400000
8473 20209 8829 1 109.50000 418.400000
8473 20209 20210 1 109.50000 418.400000
8474 20209 8829 1 109.50000 418.400000
8474 20209 20210 1 109.50000 418.400000
8829 20209 20210 1 109.50000 418.400000
20209 20210 20211 1 115.00000 209.200000
1137 20212 4896 1 109.50000 418.400000
1137 20212 8492 1 109.50000 418.400000
1137 20212 20213 1 109.50000 418.400000
4896 20212 8492 1 109.50000 418.400000
4896 20212 20213 1 109.50000 418.400000
8492 20212 20213 1 109.50000 418.400000
20212 20213 20214 1 115.00000 209.200000
7980 20215 8501 1 109.50000 418.400000
7980 20215 11298 1 109.50000 418.400000
7980 20215 20216 1 109.50000 418.400000
8501 20215 11298 1 109.50000 418.400000
8501 20215 20216 1 109.50000 418.400000
11298 20215 20216 1 109.50000 418.400000
20215 20216 20217 1 115.00000 209.200000
3914 20218 4325 1 109.50000 418.400000
3914 20218 6721 1 109.50000 418.400000
3914 20218 20219 1 109.50000 418.400000
4325 20218 6721 1 109.50000 418.400000
4325 20218 20219 1 109.50000 418.400000
6721 20218 20219 1 109.50000 418.400000
20218 20219 20220 1 115.00000 209.200000
3773 20221 8511 1 109.50000 418.400000
3773 20221 8512 1 109.50000 418.400000
3773 20221 20222 1 109.50000 418.400000
8511 20221 8512 1 109.50000 418.400000
8511 20221 20222 1 109.50000 418.400000
8512 20221 20222 1 109.50000 418.400000
20221 20222 20223 1 115.00000 209.200000
5258 20224 6199 1 109.50000 418.400000
5258 20224 11299 1 109.50000 418.400000
5258 20224 20225 1 109.50000 418.400000
6199 20224 11299 1 109.50000 418.400000
6199 20224 20225 1 109.50000 418.400000
11299 20224 20225 1 109.50000 418.400000
20224 20225 20226 1 115.00000 209.200000
2733 20227 8562 1 109.50000 418.400000
2733 20227 11302 1 109.50000 418.400000
2733 20227 20228 1 109.50000 418.400000
8562 20227 11302 1 109.50000 418.400000
8562 20227 20228 1 109.50000 418.400000
11302 20227 20228 1 109.50000 418.400000
20227 20228 20229 1 115.00000 209.200000
5440 20230 8573 1 109.50000 418.400000
5440 20230 8574 1 109.50000 418.400000
5440 20230 20231 1 109.50000 418.400000
8573 20230 8574 1 109.50000 418.400000
8573 20230 20231 1 109.50000 418.400000
8574 20230 20231 1 109.50000 418.400000
20230 20231 20232 1 115.00000 209.200000
8617 20233 8618 1 109.50000 418.400000
8617 20233 11303 1 109.50000 418.400000
8617 20233 20234 1 109.50000 418.400000
8618 20233 11303 1 109.50000 418.400000
8618 20233 20234 1 109.50000 418.400000
11303 20233 20234 1 109.50000 418.400000
20233 20234 20235 1 115.00000 209.200000
4281 20236 8621 1 109.50000 418.400000
4281 20236 11304 1 109.50000 418.400000
4281 20236 20237 1 109.50000 418.400000
8621 20236 11304 1 109.50000 418.400000
8621 20236 20237 1 109.50000 418.400000
11304 20236 20237 1 109.50000 418.400000
20236 20237 20238 1 115.00000 209.200000
8634 20239 8635 1 109.50000 418.400000
8634 20239 8636 1 109.50000 418.400000
8634 20239 20240 1 109.50000 418.400000
8635 20239 8636 1 109.50000 418.400000
8635 20239 20240 1 109.50000 418.400000
8636 20239 20240 1 109.50000 418.400000
20239 20240 20241 1 115.00000 209.200000
6899 20242 8647 1 109.50000 418.400000
6899 20242 8648 1 109.50000 418.400000
6899 20242 20243 1 109.50000 418.400000
8647 20242 8648 1 109.50000 418.400000
8647 20242 20243 1 109.50000 418.400000
8648 20242 20243 1 109.50000 418.400000
20242 20243 20244 1 115.00000 209.200000
6932 20245 8760 1 109.50000 418.400000
6932 20245 8761 1 109.50000 418.400000
6932 20245 20246 1 109.50000 418.400000
8760 20245 8761 1 109.50000 418.400000
8760 20245 20246 1 109.50000 418.400000
8761 20245 20246 1 109.50000 418.400000
20245 20246 20247 1 115.00000 209.200000
1772 20248 7302 1 109.50000 418.400000
1772 20248 11305 1 109.50000 418.400000
1772 20248 20249 1 109.50000 418.400000
7302 20248 11305 1 109.50000 418.400000
7302 20248 20249 1 109.50000 418.400000
11305 20248 20249 1 109.50000 418.400000
20248 20249 20250 1 115.00000 209.200000
1686 20251 8093 1 109.50000 418.400000
1686 20251 11306 1 109.50000 418.400000
1686 20251 20252 1 109.50000 418.400000
8093 20251 11306 1 109.50000 418.400000
8093 20251 20252 1 109.50000 418.400000
11306 20251 20252 1 109.50000 418.400000
20251 20252 20253 1 115.00000 209.200000
4330 20254 6695 1 109.50000 418.400000
4330 20254 8777 1 109.50000 418.400000
4330 20254 20255 1 109.50000 418.400000
6695 20254 8777 1 109.50000 418.400000
6695 20254 20255 1 109.50000 418.400000
8777 20254 20255 1 109.50000 418.400000
20254 20255 20256 1 115.00000 209.200000
7218 20257 8371 1 109.50000 418.400000
7218 20257 8813 1 109.50000 418.400000
7218 20257 20258 1 109.50000 418.400000
8371 20257 8813 1 109.50000 418.400000
8371 20257 20258 1 109.50000 418.400000
8813 20257 20258 1 109.50000 418.400000
20257 20258 20259 1 115.00000 209.200000
7286 20260 8822 1 109.50000 418.400000
7286 20260 11308 1 109.50000 418.400000
7286 20260 20261 1 109.50000 418.400000
8822 20260 11308 1 109.50000 418.400000
8822 20260 20261 1 109.50000 418.400000
11308 20260 20261 1 109.50000 418.400000
20260 20261 20262 1 115.00000 209.200000
4419 20263 4577 1 109.50000 418.400000
4419 20263 11310 1 109.50000 418.400000
4419 20263 20264 1 109.50000 418.400000
4577 20263 11310 1 109.50000 418.400000
4577 20263 20264 1 109.50000 418.400000
11310 20263 20264 1 109.50000 418.400000
20263 20264 20265 1 115.00000 209.200000
8045 20266 8851 1 109.50000 418.400000
8045 20266 11311 1 109.50000 418.400000
8045 20266 20267 1 109.50000 418.400000
8851 20266 11311 1 109.50000 418.400000
8851 20266 20267 1 109.50000 418.400000
11311 20266 20267 1 109.50000 418.400000
20266 20267 20268 1 115.00000 209.200000
4894 20269 8864 1 109.50000 418.400000
4894 20269 8865 1 109.50000 418.400000
4894 20269 20270 1 109.50000 418.400000
8864 20269 8865 1 109.50000 418.400000
8864 20269 20270 1 109.50000 418.400000
8865 20269 20270 1 109.50000 418.400000
20269 20270 20271 1 115.00000 209.200000
799 20272 1269 1 109.50000 418.400000
799 20272 8876 1 109.50000 418.400000
799 20272 20273 1 109.50000 418.400000
1269 20272 8876 1 109.50000 418.400000
1269 20272 20273 1 109.50000 418.400000
8876 20272 20273 1 109.50000 418.400000
20272 20273 20274 1 115.00000 209.200000
6836 20275 8237 1 109.50000 418.400000
6836 20275 8908 1 109.50000 418.400000
6836 20275 20276 1 109.50000 418.400000
8237 20275 8908 1 109.50000 418.400000
8237 20275 20276 1 109.50000 418.400000
8908 20275 20276 1 109.50000 418.400000
20275 20276 20277 1 115.00000 209.200000
2246 20278 7770 1 109.50000 418.400000
2246 20278 11315 1 109.50000 418.400000
2246 20278 20279 1 109.50000 418.400000
7770 20278 11315 1 109.50000 418.400000
7770 20278 20279 1 109.50000 418.400000
11315 20278 20279 1 109.50000 418.400000
20278 20279 20280 1 115.00000 209.200000
3494 20281 5256 1 109.50000 418.400000
3494 20281 8913 1 109.50000 418.400000
3494 20281 20282 1 109.50000 418.400000
5256 20281 8913 1 109.50000 418.400000
5256 20281 20282 1 109.50000 418.400000
8913 20281 20282 1 109.50000 418.400000
20281 20282 20283 1 115.00000 209.200000
61 20284 8916 1 109.50000 418.400000
61 20284 11316 1 109.50000 418.400000
61 20284 20285 1 109.50000 418.400000
8916 20284 11316 1 109.50000 418.400000
8916 20284 20285 1 109.50000 418.400000
11316 20284 20285 1 109.50000 418.400000
20284 20285 20286 1 115.00000 209.200000
3922 20287 3923 1 109.50000 418.400000
3922 20287 8923 1 109.50000 418.400000
3922 20287 20288 1 109.50000 418.400000
3923 20287 8923 1 109.50000 418.400000
3923 20287 20288 1 109.50000 418.400000
8923 20287 20288 1 109.50000 418.400000
20287 20288 20289 1 115.00000 209.200000
5054 20290 8928 1 109.50000 418.400000
5054 20290 11317 1 109.50000 418.400000
5054 20290 20291 1 109.50000 418.400000
8928 20290 11317 1 109.50000 418.400000
8928 20290 20291 1 109.50000 418.400000
11317 20290 20291 1 109.50000 418.400000
20290 20291 20292 1 115.00000 209.200000
6310 20293 6568 1 109.50000 418.400000
6310 20293 8942 1 109.50000 418.400000
6310 20293 20294 1 109.50000 418.400000
6568 20293 8942 1 109.50000 418.400000
6568 20293 20294 1 109.50000 418.400000
8942 20293 20294 1 109.50000 418.400000
20293 20294 20295 1 115.00000 209.200000
7288 20296 8084 1 109.50000 418.400000
7288 20296 8961 1 109.50000 418.400000
7288 20296 20297 1 109.50000 418.400000
8084 20296 8961 1 109.50000 418.400000
8084 20296 20297 1 109.50000 418.400000
8961 20296 20297 1 109.50000 418.400000
20296 20297 20298 1 115.00000 209.200000
8962 20299 9672 1 109.50000 418.400000
8962 20299 11318 1 109.50000 418.400000
8962 20299 20300 1 109.50000 418.400000
9672 20299 11318 1 109.50000 418.400000
9672 20299 20300 1 109.50000 418.400000
11318 20299 20300 1 109.50000 418.400000
20299 20300 20301 1 115.00000 209.200000
4172 20302 8974 1 109.50000 418.400000
4172 20302 11319 1 109.50000 418.400000
4172 20302 20303 1 109.50000 418.400000
8974 20302 11319 1 109.50000 418.400000
8974 20302 20303 1 109.50000 418.400000
11319 20302 20303 1 109.50000 418.400000
20302 20303 20304 1 115.00000 209.200000
3333 20305 3930 1 109.50000 418.400000
3333 20305 8975 1 109.50000 418.400000
3333 20305 20306 1 109.50000 418.400000
3930 20305 8975 1 109.50000 418.400000
3930 20305 20306 1 109.50000 418.400000
8975 20305 20306 1 109.50000 418.400000
20305 20306 20307 1 115.00000 209.200000
3845 20308 4340 1 109.50000 418.400000
3845 20308 9010 1 109.50000 418.400000
3845 20308 20309 1 109.50000 418.400000
4340 20308 9010 1 109.50000 418.400000
4340 20308 20309 1 109.50000 418.400000
9010 20308 20309 1 109.50000 418.400000
20308 20309 20310 1 115.00000 209.200000
75 20311 9011 1 109.50000 418.400000
75 20311 9012 1 109.50000 418.400000
75 20311 20312 1 109.50000 418.400000
9011 20311 9012 1 109.50000 418.400000
9011 20311 20312 1 109.50000 418.400000
9012 20311 20312 1 109.50000 418.400000
20311 20312 20313 1 115.00000 209.200000
5344 20314 9024 1 109.50000 418.400000
5344 20314 9025 1 109.50000 418.400000
5344 20314 20315 1 109.50000 418.400000
9024 20314 9025 1 109.50000 418.400000
9024 20314 20315 1 109.50000 418.400000
9025 20314 20315 1 109.50000 418.400000
20314 20315 20316 1 115.00000 209.200000
3443 20317 8413 1 109.50000 418.400000
3443 20317 9048 1 109.50000 418.400000
3443 20317 20318 1 109.50000 418.400000
8413 20317 9048 1 109.50000 418.400000
8413 20317 20318 1 109.50000 418.400000
9048 20317 20318 1 109.50000 418.400000
20317 20318 20319 1 115.00000 209.200000
9088 20320 9089 1 109.50000 418.400000
9088 20320 9090 1 109.50000 418.400000
9088 20320 20321 1 109.50000 418.400000
9089 20320 9090 1 109.50000 418.400000
9089 20320 20321 1 109.50000 418.400000
9090 20320 20321 1 109.50000 418.400000
20320 20321 20322 1 115.00000 209.200000
74 20323 9103 1 109.50000 418.400000
74 20323 9104 1 109.50000 418.400000
74 20323 20324 1 109.50000 418.400000
9103 20323 9104 1 109.50000 418.400000
9103 20323 20324 1 109.50000 418.400000
9104 20323 20324 1 109.50000 418.400000
20323 20324 20325 1 115.00000 209.200000
3223 20326 9139 1 109.50000 418.400000
3223 20326 9140 1 109.50000 418.400000
3223 20326 20327 1 109.50000 418.400000
9139 20326 9140 1 109.50000 418.400000
9139 20326 20327 1 109.50000 418.400000
9140 20326 20327 1 109.50000 418.400000
20326 20327 20328 1 115.00000 209.200000
3880 20329 9143 1 109.50000 418.400000
3880 20329 9144 1 109.50000 418.400000
3880 20329 20330 1 109.50000 418.400000
9143 20329 9144 1 109.50000 418.400000
9143 20329 20330 1 109.50000 418.400000
9144 20329 20330 1 109.50000 418.400000
20329 20330 20331 1 115.00000 209.200000
5216 20332 7142 1 109.50000 418.400000
5216 20332 7842 1 109.50000 418.400000
5216 20332 20333 1 109.50000 418.400000
7142 20332 7842 1 109.50000 418.400000
7142 20332 20333 1 109.50000 418.400000
7842 20332 20333 1 109.50000 418.400000
20332 20333 20334 1 115.00000 209.200000
6073 20335 6173 1 109.50000 418.400000
6073 20335 9168 1 109.50000 418.400000
6073 20335 20336 1 109.50000 418.400000
6173 20335 9168 1 109.50000 418.400000
6173 20335 20336 1 109.50000 418.400000
9168 20335 20336 1 109.50000 418.400000
20335 20336 20337 1 115.00000 209.200000
4391 20338 4392 1 109.50000 418.400000
4391 20338 7180 1 109.50000 418.400000
4391 20338 20339 1 109.50000 418.400000
4392 20338 7180 1 109.50000 418.400000
4392 20338 20339 1 109.50000 418.400000
7180 20338 20339 1 109.50000 418.400000
20338 20339 20340 1 115.00000 209.200000
9189 20341 9190 1 109.50000 418.400000
9189 20341 9191 1 109.50000 418.400000
9189 20341 20342 1 109.50000 418.400000
9190 20341 9191 1 109.50000 418.400000
9190 20341 20342 1 109.50000 418.400000
9191 20341 20342 1 109.50000 418.400000
20341 20342 20343 1 115.00000 209.200000
4691 20344 5963 1 109.50000 418.400000
4691 20344 5965 1 109.50000 418.400000
4691 20344 20345 1 109.50000 418.400000
5963 20344 5965 1 109.50000 418.400000
5963 20344 20345 1 109.50000 418.400000
5965 20344 20345 1 109.50000 418.400000
20344 20345 20346 1 115.00000 209.200000
6350 20347 6380 1 109.50000 418.400000
6350 20347 9254 1 109.50000 418.400000
6350 20347 20348 1 109.50000 418.400000
6380 20347 9254 1 109.50000 418.400000
6380 20347 20348 1 109.50000 418.400000
9254 20347 20348 1 109.50000 418.400000
20347 20348 20349 1 115.00000 209.200000
3101 20350 7657 1 109.50000 418.400000
3101 20350 9284 1 109.50000 418.400000
3101 20350 20351 1 109.50000 418.400000
7657 20350 9284 1 109.50000 418.400000
7657 20350 20351 1 109.50000 418.400000
9284 20350 20351 1 109.50000 418.400000
20350 20351 20352 1 115.00000 209.200000
3220 20353 8389 1 109.50000 418.400000
3220 20353 9286 1 109.50000 418.400000
3220 20353 20354 1 109.50000 418.400000
8389 20353 9286 1 109.50000 418.400000
8389 20353 20354 1 109.50000 418.400000
9286 20353 20354 1 109.50000 418.400000
20353 20354 20355 1 115.00000 209.200000
8368 20356 9054 1 109.50000 418.400000
8368 20356 9348 1 109.50000 418.400000
8368 20356 20357 1 109.50000 418.400000
9054 20356 9348 1 109.50000 418.400000
9054 20356 20357 1 109.50000 418.400000
9348 20356 20357 1 109.50000 418.400000
20356 20357 20358 1 115.00000 209.200000
845 20359 3628 1 109.50000 418.400000
845 20359 5348 1 109.50000 418.400000
845 20359 20360 1 109.50000 418.400000
3628 20359 5348 1 109.50000 418.400000
3628 20359 20360 1 109.50000 418.400000
5348 20359 20360 1 109.50000 418.400000
20359 20360 20361 1 115.00000 209.200000
232 20362 6232 1 109.50000 418.400000
232 20362 9388 1 109.50000 418.400000
232 20362 20363 1 109.50000 418.400000
6232 20362 9388 1 109.50000 418.400000
6232 20362 20363 1 109.50000 418.400000
9388 20362 20363 1 109.50000 418.400000
20362 20363 20364 1 115.00000 209.200000
4425 20365 9506 1 109.50000 418.400000
4425 20365 10887 1 109.50000 418.400000
4425 20365 20366 1 109.50000 418.400000
9506 20365 10887 1 109.50000 418.400000
9506 20365 20366 1 109.50000 418.400000
10887 20365 20366 1 109.50000 418.400000
20365 20366 20367 1 115.00000 209.200000
7200 20368 7301 1 109.50000 418.400000
7200 20368 9520 1 109.50000 418.400000
7200 20368 20369 1 109.50000 418.400000
7301 20368 9520 1 109.50000 418.400000
7301 20368 20369 1 109.50000 418.400000
9520 20368 20369 1 109.50000 418.400000
20368 20369 20370 1 115.00000 209.200000
8011 20371 9479 1 109.50000 418.400000
8011 20371 9526 1 109.50000 418.400000
8011 20371 20372 1 109.50000 418.400000
9479 20371 9526 1 109.50000 418.400000
9479 20371 20372 1 109.50000 418.400000
9526 20371 20372 1 109.50000 418.400000
20371 20372 20373 1 115.00000 209.200000
8658 20374 9601 1 109.50000 418.400000
8658 20374 9602 1 109.50000 418.400000
8658 20374 20375 1 109.50000 418.400000
9601 20374 9602 1 109.50000 418.400000
9601 20374 20375 1 109.50000 418.400000
9602 20374 20375 1 109.50000 418.400000
20374 20375 20376 1 115.00000 209.200000
205 20377 207 1 109.50000 418.400000
205 20377 4963 1 109.50000 418.400000
205 20377 20378 1 109.50000 418.400000
207 20377 4963 1 109.50000 418.400000
207 20377 20378 1 109.50000 418.400000
4963 20377 20378 1 109.50000 418.400000
20377 20378 20379 1 115.00000 209.200000
6558 20380 7278 1 109.50000 418.400000
6558 20380 9648 1 109.50000 418.400000
6558 20380 20381 1 109.50000 418.400000
7278 20380 9648 1 109.50000 418.400000
7278 20380 20381 1 109.50000 418.400000
9648 20380 20381 1 109.50000 418.400000
20380 20381 20382 1 115.00000 209.200000
3885 20383 5130 1 109.50000 418.400000
3885 20383 9653 1 109.50000 418.400000
3885 20383 20384 1 109.50000 418.400000
5130 20383 9653 1 109.50000 418.400000
5130 20383 20384 1 109.50000 418.400000
9653 20383 20384 1 109.50000 418.400000
20383 20384 20385 1 115.00000 209.200000
8483 20386 9270 1 109.50000 418.400000
8483 20386 9271 1 109.50000 418.400000
8483 20386 20387 1 109.50000 418.400000
9270 20386 9271 1 109.50000 418.400000
9270 20386 20387 1 109.50000 418.400000
9271 20386 20387 1 109.50000 418.400000
20386 20387 20388 1 115.00000 209.200000
2455 20389 8091 1 109.50000 418.400000
2455 20389 9654 1 109.50000 418.400000
2455 20389 20390 1 109.50000 418.400000
8091 20389 9654 1 109.50000 418.400000
8091 20389 20390 1 109.50000 418.400000
9654 20389 20390 1 109.50000 418.400000
20389 20390 20391 1 115.00000 209.200000
4553 20392 4556 1 109.50000 418.400000
4553 20392 9672 1 109.50000 418.400000
4553 20392 20393 1 109.50000 418.400000
4556 20392 9672 1 109.50000 418.400000
4556 20392 20393 1 109.50000 418.400000
9672 20392 20393 1 109.50000 418.400000
20392 20393 20394 1 115.00000 209.200000
7126 20395 7862 1 109.50000 418.400000
7126 20395 9673 1 109.50000 418.400000
7126 20395 20396 1 109.50000 418.400000
7862 20395 9673 1 109.50000 418.400000
7862 20395 20396 1 109.50000 418.400000
9673 20395 20396 1 109.50000 418.400000
20395 20396 20397 1 115.00000 209.200000
314 20398 6889 1 109.50000 418.400000
314 20398 9690 1 109.50000 418.400000
314 20398 20399 1 109.50000 418.400000
6889 20398 9690 1 109.50000 418.400000
6889 20398 20399 1 109.50000 418.400000
9690 20398 20399 1 109.50000 418.400000
20398 20399 20400 1 115.00000 209.200000
1237 20401 4076 1 109.50000 418.400000
1237 20401 5414 1 109.50000 418.400000
1237 20401 20402 1 109.50000 418.400000
4076 20401 5414 1 109.50000 418.400000
4076 20401 20402 1 109.50000 418.400000
5414 20401 20402 1 109.50000 418.400000
20401 20402 20403 1 115.00000 209.200000
5427 20404 8058 1 109.50000 418.400000
5427 20404 9727 1 109.50000 418.400000
5427 20404 20405 1 109.50000 418.400000
8058 20404 9727 1 109.50000 418.400000
8058 20404 20405 1 109.50000 418.400000
9727 20404 20405 1 109.50000 418.400000
20404 20405 20406 1 115.00000 209.200000
783 20407 3119 1 109.50000 418.400000
783 20407 6172 1 109.50000 418.400000
783 20407 20408 1 109.50000 418.400000
3119 20407 6172 1 109.50000 418.400000
3119 20407 20408 1 109.50000 418.400000
6172 20407 20408 1 109.50000 418.400000
20407 20408 20409 1 115.00000 209.200000
2469 20410 6734 1 109.50000 418.400000
2469 20410 9557 1 109.50000 418.400000
2469 20410 20411 1 109.50000 418.400000
6734 20410 9557 1 109.50000 418.400000
6734 20410 20411 1 109.50000 418.400000
9557 20410 20411 1 109.50000 418.400000
20410 20411 20412 1 115.00000 209.200000
7742 20413 9665 1 109.50000 418.400000
7742 20413 9806 1 109.50000 418.400000
7742 20413 20414 1 109.50000 418.400000
9665 20413 9806 1 109.50000 418.400000
9665 20413 20414 1 109.50000 418.400000
9806 20413 20414 1 109.50000 418.400000
20413 20414 20415 1 115.00000 209.200000
3601 20416 6014 1 109.50000 418.400000
3601 20416 9808 1 109.50000 418.400000
3601 20416 20417 1 109.50000 418.400000
6014 20416 9808 1 109.50000 418.400000
6014 20416 20417 1 109.50000 418.400000
9808 20416 20417 1 109.50000 418.400000
20416 20417 20418 1 115.00000 209.200000
1926 20419 1927 1 109.50000 418.400000
1926 20419 9824 1 109.50000 418.400000
1926 20419 20420 1 109.50000 418.400000
1927 20419 9824 1 109.50000 418.400000
1927 20419 20420 1 109.50000 418.400000
9824 20419 20420 1 109.50000 418.400000
20419 20420 20421 1 115.00000 209.200000
481 20422 482 1 109.50000 418.400000
481 20422 5325 1 109.50000 418.400000
481 20422 20423 1 109.50000 418.400000
482 20422 5325 1 109.50000 418.400000
482 20422 20423 1 109.50000 418.400000
5325 20422 20423 1 109.50000 418.400000
20422 20423 20424 1 115.00000 209.200000
4776 20425 9852 1 109.50000 418.400000
4776 20425 9853 1 109.50000 418.400000
4776 20425 20426 1 109.50000 418.400000
9852 20425 9853 1 109.50000 418.400000
9852 20425 20426 1 109.50000 418.400000
9853 20425 20426 1 109.50000 418.400000
20425 20426 20427 1 115.00000 209.200000
6314 20428 6615 1 109.50000 418.400000
6314 20428 8111 1 109.50000 418.400000
6314 20428 20429 1 109.50000 418.400000
6615 20428 8111 1 109.50000 418.400000
6615 20428 20429 1 109.50000 418.400000
8111 20428 20429 1 109.50000 418.400000
20428 20429 20430 1 115.00000 209.200000
3677 20431 6601 1 109.50000 418.400000
3677 20431 6868 1 109.50000 418.400000
3677 20431 20432 1 109.50000 418.400000
6601 20431 6868 1 109.50000 418.400000
6601 20431 20432 1 109.50000 418.400000
6868 20431 20432 1 109.50000 418.400000
20431 20432 20433 1 115.00000 209.200000
371 20434 8875 1 109.50000 418.400000
371 20434 9091 1 109.50000 418.400000
371 20434 20435 1 109.50000 418.400000
8875 20434 9091 1 109.50000 418.400000
8875 20434 20435 1 109.50000 418.400000
9091 20434 20435 1 109.50000 418.400000
20434 20435 20436 1 115.00000 209.200000
9903 20437 9904 1 109.50000 418.400000
9903 20437 9905 1 109.50000 418.400000
9903 20437 20438 1 109.50000 418.400000
9904 20437 9905 1 109.50000 418.400000
9904 20437 20438 1 109.50000 418.400000
9905 20437 20438 1 109.50000 418.400000
20437 20438 20439 1 115.00000 209.200000
2499 20440 4539 1 109.50000 418.400000
2499 20440 8362 1 109.50000 418.400000
2499 20440 20441 1 109.50000 418.400000
4539 20440 8362 1 109.50000 418.400000
4539 20440 20441 1 109.50000 418.400000
8362 20440 20441 1 109.50000 418.400000
20440 20441 20442 1 115.00000 209.200000
6519 20443 7624 1 109.50000 418.400000
6519 20443 9930 1 109.50000 418.400000
6519 20443 20444 1 109.50000 418.400000
7624 20443 9930 1 109.50000 418.400000
7624 20443 20444 1 109.50000 418.400000
9930 20443 20444 1 109.50000 418.400000
20443 20444 20445 1 115.00000 209.200000
3285 20446 5981 1 109.50000 418.400000
3285 20446 9933 1 109.50000 418.400000
3285 20446 20447 1 109.50000 418.400000
5981 20446 9933 1 109.50000 418.400000
5981 20446 20447 1 109.50000 418.400000
9933 20446 20447 1 109.50000 418.400000
20446 20447 20448 1 115.00000 209.200000
2253 20449 9949 1 109.50000 418.400000
2253 20449 9950 1 109.50000 418.400000
2253 20449 20450 1 109.50000 418.400000
9949 20449 9950 1 109.50000 418.400000
9949 20449 20450 1 109.50000 418.400000
9950 20449 20450 1 109.50000 418.400000
20449 20450 20451 1 115.00000 209.200000
7834 20452 9965 1 109.50000 418.400000
7834 20452 9966 1 109.50000 418.400000
7834 20452 20453 1 109.50000 418.400000
9965 20452 9966 1 109.50000 418.400000
9965 20452 20453 1 109.50000 418.400000
9966 20452 20453 1 109.50000 418.400000
20452 20453 20454 1 115.00000 209.200000
4688 20455 5979 1 109.50000 418.400000
4688 20455 9965 1 109.50000 418.400000
4688 20455 20456 1 109.50000 418.400000
5979 20455 9965 1 109.50000 418.400000
5979 20455 20456 1 109.50000 418.400000
9965 20455 20456 1 109.50000 418.400000
20455 20456 20457 1 115.00000 209.200000
9405 20458 9993 1 109.50000 418.400000
9405 20458 9995 1 109.50000 418.400000
9405 20458 20459 1 109.50000 418.400000
9993 20458 9995 1 109.50000 418.400000
9993 20458 20459 1 109.50000 418.400000
9995 20458 20459 1 109.50000 418.400000
20458 20459 20460 1 115.00000 209.200000
1330 20461 7807 1 109.50000 418.400000
1330 20461 10012 1 109.50000 418.400000
1330 20461 20462 1 109.50000 418.400000
7807 20461 10012 1 109.50000 418.400000
7807 20461 20462 1 109.50000 418.400000
10012 20461 20462 1 109.50000 418.400000
20461 20462 20463 1 115.00000 209.200000
2019 20464 6569 1 109.50000 418.400000
2019 20464 10021 1 109.50000 418.400000
2019 20464 20465 1 109.50000 418.400000
6569 20464 10021 1 109.50000 418.400000
6569 20464 20465 1 109.50000 418.400000
10021 20464 20465 1 109.50000 418.400000
20464 20465 20466 1 115.00000 209.200000
10034 20467 10035 1 109.50000 418.400000
10034 20467 10036 1 109.50000 418.400000
10034 20467 20468 1 109.50000 418.400000
10035 20467 10036 1 109.50000 418.400000
10035 20467 20468 1 109.50000 418.400000
10036 20467 20468 1 109.50000 418.400000
20467 20468 20469 1 115.00000 209.200000
2112 20470 10068 1 109.50000 418.400000
2112 20470 10069 1 109.50000 418.400000
2112 20470 20471 1 109.50000 418.400000
10068 20470 10069 1 109.50000 418.400000
10068 20470 20471 1 109.50000 418.400000
10069 20470 20471 1 109.50000 418.400000
20470 20471 20472 1 115.00000 209.200000
6572 20473 6574 1 109.50000 418.400000
6572 20473 10081 1 109.50000 418.400000
6572 20473 20474 1 109.50000 418.400000
6574 20473 10081 1 109.50000 418.400000
6574 20473 20474 1 109.50000 418.400000
10081 20473 20474 1 109.50000 418.400000
20473 20474 20475 1 115.00000 209.200000
9284 20476 10085 1 109.50000 418.400000
9284 20476 10086 1 109.50000 418.400000
9284 20476 20477 1 109.50000 418.400000
10085 20476 10086 1 109.50000 418.400000
10085 20476 20477 1 109.50000 418.400000
10086 20476 20477 1 109.50000 418.400000
20476 20477 20478 1 115.00000 209.200000
3345 20479 4952 1 109.50000 418.400000
3345 20479 10104 1 109.50000 418.400000
3345 20479 20480 1 109.50000 418.400000
4952 20479 10104 1 109.50000 418.400000
4952 20479 20480 1 109.50000 418.400000
10104 20479 20480 1 109.50000 418.400000
20479 20480 20481 1 115.00000 209.200000
8928 20482 9424 1 109.50000 418.400000
8928 20482 9823 1 109.50000 418.400000
8928 20482 20483 1 109.50000 418.400000
9424 20482 9823 1 109.50000 418.400000
9424 20482 20483 1 109.50000 418.400000
9823 20482 20483 1 109.50000 418.400000
20482 20483 20484 1 115.00000 209.200000
2700 20485 4994 1 109.50000 418.400000
2700 20485 10121 1 109.50000 418.400000
2700 20485 20486 1 109.50000 418.400000
4994 20485 10121 1 109.50000 418.400000
4994 20485 20486 1 109.50000 418.400000
10121 20485 20486 1 109.50000 418.400000
20485 20486 20487 1 115.00000 209.200000
5020 20488 7250 1 109.50000 418.400000
5020 20488 10124 1 109.50000 418.400000
5020 20488 20489 1 109.50000 418.400000
7250 20488 10124 1 109.50000 418.400000
7250 20488 20489 1 109.50000 418.400000
10124 20488 20489 1 109.50000 418.400000
20488 20489 20490 1 115.00000 209.200000
9460 20491 10148 1 109.50000 418.400000
9460 20491 10149 1 109.50000 418.400000
9460 20491 20492 1 109.50000 418.400000
10148 20491 10149 1 109.50000 418.400000
10148 20491 20492 1 109.50000 418.400000
10149 20491 20492 1 109.50000 418.400000
20491 20492 20493 1 115.00000 209.200000
2099 20494 10012 1 109.50000 418.400000
2099 20494 10165 1 109.50000 418.400000
2099 20494 20495 1 109.50000 418.400000
10012 20494 10165 1 109.50000 418.400000
10012 20494 20495 1 109.50000 418.400000
10165 20494 20495 1 109.50000 418.400000
20494 20495 20496 1 115.00000 209.200000
2747 20497 9143 1 109.50000 418.400000
2747 20497 10185 1 109.50000 418.400000
2747 20497 20498 1 109.50000 418.400000
9143 20497 10185 1 109.50000 418.400000
9143 20497 20498 1 109.50000 418.400000
10185 20497 20498 1 109.50000 418.400000
20497 20498 20499 1 115.00000 209.200000
7661 20500 7663 1 109.50000 418.400000
7661 20500 10213 1 109.50000 418.400000
7661 20500 20501 1 109.50000 418.400000
7663 20500 10213 1 109.50000 418.400000
7663 20500 20501 1 109.50000 418.400000
10213 20500 20501 1 109.50000 418.400000
20500 20501 20502 1 115.00000 209.200000
6238 20503 10197 1 109.50000 418.400000
6238 20503 10229 1 109.50000 418.400000
6238 20503 20504 1 109.50000 418.400000
10197 20503 10229 1 109.50000 418.400000
10197 20503 20504 1 109.50000 418.400000
10229 20503 20504 1 109.50000 418.400000
20503 20504 20505 1 115.00000 209.200000
2667 20506 7851 1 109.50000 418.400000
2667 20506 10230 1 109.50000 418.400000
2667 20506 20507 1 109.50000 418.400000
7851 20506 10230 1 109.50000 418.400000
7851 20506 20507 1 109.50000 418.400000
10230 20506 20507 1 109.50000 418.400000
20506 20507 20508 1 115.00000 209.200000
8985 20509 10238 1 109.50000 418.400000
8985 20509 10239 1 109.50000 418.400000
8985 20509 20510 1 109.50000 418.400000
10238 20509 10239 1 109.50000 418.400000
10238 20509 20510 1 109.50000 418.400000
10239 20509 20510 1 109.50000 418.400000
20509 20510 20511 1 115.00000 209.200000
2031 20512 3568 1 109.50000 418.400000
2031 20512 4118 1 109.50000 418.400000
2031 20512 20513 1 109.50000 418.400000
3568 20512 4118 1 109.50000 418.400000
3568 20512 20513 1 109.50000 418.400000
4118 20512 20513 1 109.50000 418.400000
20512 20513 20514 1 115.00000 209.200000
3527 20515 5392 1 109.50000 418.400000
3527 20515 6928 1 109.50000 418.400000
3527 20515 20516 1 109.50000 418.400000
5392 20515 6928 1 109.50000 418.400000
5392 20515 20516 1 109.50000 418.400000
6928 20515 20516 1 109.50000 418.400000
20515 20516 20517 1 115.00000 209.200000
7365 20518 10048 1 109.50000 418.400000
7365 20518 10296 1 109.50000 418.400000
7365 20518 20519 1 109.50000 418.400000
10048 20518 10296 1 109.50000 418.400000
10048 20518 20519 1 109.50000 418.400000
10296 20518 20519 1 109.50000 418.400000
20518 20519 20520 1 115.00000 209.200000
1634 20521 6000 1 109.50000 418.400000
1634 20521 9904 1 109.50000 418.400000
1634 20521 20522 1 109.50000 418.400000
6000 20521 9904 1 109.50000 418.400000
6000 20521 20522 1 109.50000 418.400000
9904 20521 20522 1 109.50000 418.400000
20521 20522 20523 1 115.00000 209.200000
4623 20524 5297 1 109.50000 418.400000
4623 20524 8375 1 109.50000 418.400000
4623 20524 20525 1 109.50000 418.400000
5297 20524 8375 1 109.50000 418.400000
5297 20524 20525 1 109.50000 418.400000
8375 20524 20525 1 109.50000 418.400000
20524 20525 20526 1 115.00000 209.200000
18 20527 8294 1 109.50000 418.400000
18 20527 9011 1 109.50000 418.400000
18 20527 20528 1 109.50000 418.400000
8294 20527 9011 1 109.50000 418.400000
8294 20527 20528 1 109.50000 418.400000
9011 20527 20528 1 109.50000 418.400000
20527 20528 20529 1 115.00000 209.200000
3927 20530 4809 1 109.50000 418.400000
3927 20530 5287 1 109.50000 418.400000
3927 20530 20531 1 109.50000 418.400000
4809 20530 5287 1 109.50000 418.400000
4809 20530 20531 1 109.50000 418.400000
5287 20530 20531 1 109.50000 418.400000
20530 20531 20532 1 115.00000 209.200000
3492 20533 3935 1 109.50000 418.400000
3492 20533 9678 1 109.50000 418.400000
3492 20533 20534 1 109.50000 418.400000
3935 20533 9678 1 109.50000 418.400000
3935 20533 20534 1 109.50000 418.400000
9678 20533 20534 1 109.50000 418.400000
20533 20534 20535 1 115.00000 209.200000
3559 20536 10104 1 109.50000 418.400000
3559 20536 10270 1 109.50000 418.400000
3559 20536 20537 1 109.50000 418.400000
10104 20536 10270 1 109.50000 418.400000
10104 20536 20537 1 109.50000 418.400000
10270 20536 20537 1 109.50000 418.400000
20536 20537 20538 1 115.00000 209.200000
1075 20539 4446 1 109.50000 418.400000
1075 20539 10221 1 109.50000 418.400000
1075 20539 20540 1 109.50000 418.400000
4446 20539 10221 1 109.50000 418.400000
4446 20539 20540 1 109.50000 418.400000
10221 20539 20540 1 109.50000 418.400000
20539 20540 20541 1 115.00000 209.200000
10435 20542 10436 1 109.50000 418.400000
10435 20542 10836 1 109.50000 418.400000
10435 20542 20543 1 109.50000 418.400000
10436 20542 10836 1 109.50000 418.400000
10436 20542 20543 1 109.50000 418.400000
10836 20542 20543 1 109.50000 418.400000
20542 20543 20544 1 115.00000 209.200000
4057 20545 10441 1 109.50000 418.400000
4057 20545 10442 1 109.50000 418.400000
4057 20545 20546 1 109.50000 418.400000
10441 20545 10442 1 109.50000 418.400000
10441 20545 20546 1 109.50000 418.400000
10442 20545 20546 1 109.50000 418.400000
20545 20546 20547 1 115.00000 209.200000
9562 20548 10461 1 109.50000 418.400000
9562 20548 10462 1 109.50000 418.400000
9562 20548 20549 1 109.50000 418.400000
10461 20548 10462 1 109.50000 418.400000
10461 20548 20549 1 109.50000 418.400000
10462 20548 20549 1 109.50000 418.400000
20548 20549 20550 1 115.00000 209.200000
793 20551 10034 1 109.50000 418.400000
793 20551 10463 1 109.50000 418.400000
793 20551 20552 1 109.50000 418.400000
10034 20551 10463 1 109.50000 418.400000
10034 20551 20552 1 109.50000 418.400000
10463 20551 20552 1 109.50000 418.400000
20551 20552 20553 1 115.00000 209.200000
9803 20554 10149 1 109.50000 418.400000
9803 20554 10492 1 109.50000 418.400000
9803 20554 20555 1 109.50000 418.400000
10149 20554 10492 1 109.50000 418.400000
10149 20554 20555 1 109.50000 418.400000
10492 20554 20555 1 109.50000 418.400000
20554 20555 20556 1 115.00000 209.200000
1755 20557 10306 1 109.50000 418.400000
1755 20557 10307 1 109.50000 418.400000
1755 20557 20558 1 109.50000 418.400000
10306 20557 10307 1 109.50000 418.400000
10306 20557 20558 1 109.50000 418.400000
10307 20557 20558 1 109.50000 418.400000
20557 20558 20559 1 115.00000 209.200000
1715 20560 7141 1 109.50000 418.400000
1715 20560 8493 1 109.50000 418.400000
1715 20560 20561 1 109.50000 418.400000
7141 20560 8493 1 109.50000 418.400000
7141 20560 20561 1 109.50000 418.400000
8493 20560 20561 1 109.50000 418.400000
20560 20561 20562 1 115.00000 209.200000
19 20563 4534 1 109.50000 418.400000
19 20563 9768 1 109.50000 418.400000
19 20563 20564 1 109.50000 418.400000
4534 20563 9768 1 109.50000 418.400000
4534 20563 20564 1 109.50000 418.400000
9768 20563 20564 1 109.50000 418.400000
20563 20564 20565 1 115.00000 209.200000
1635 20566 10513 1 109.50000 418.400000
1635 20566 10514 1 109.50000 418.400000
1635 20566 20567 1 109.50000 418.400000
10513 20566 10514 1 109.50000 418.400000
10513 20566 20567 1 109.50000 418.400000
10514 20566 20567 1 109.50000 418.400000
20566 20567 20568 1 115.00000 209.200000
5592 20569 9575 1 109.50000 418.400000
5592 20569 9642 1 109.50000 418.400000
5592 20569 20570 1 109.50000 418.400000
9575 20569 9642 1 109.50000 418.400000
9575 20569 20570 1 109.50000 418.400000
9642 20569 20570 1 109.50000 418.400000
20569 20570 20571 1 115.00000 209.200000
3105 20572 10560 1 109.50000 418.400000
3105 20572 10561 1 109.50000 418.400000
3105 20572 20573 1 109.50000 418.400000
10560 20572 10561 1 109.50000 418.400000
10560 20572 20573 1 109.50000 418.400000
10561 20572 20573 1 109.50000 418.400000
20572 20573 20574 1 115.00000 209.200000
2996 20575 4584 1 109.50000 418.400000
2996 20575 10567 1 109.50000 418.400000
2996 20575 20576 1 109.50000 418.400000
4584 20575 10567 1 109.50000 418.400000
4584 20575 20576 1 109.50000 418.400000
10567 20575 20576 1 109.50000 418.400000
20575 20576 20577 1 115.00000 209.200000
1970 20578 3493 1 109.50000 418.400000
1970 20578 6263 1 109.50000 418.400000
1970 20578 20579 1 109.50000 418.400000
3493 20578 6263 1 109.50000 418.400000
3493 20578 20579 1 109.50000 418.400000
6263 20578 20579 1 109.50000 418.400000
20578 20579 20580 1 115.00000 209.200000
3740 20581 6089 1 109.50000 418.400000
3740 20581 10572 1 109.50000 418.400000
3740 20581 20582 1 109.50000 418.400000
6089 20581 10572 1 109.50000 418.400000
6089 20581 20582 1 109.50000 418.400000
10572 20581 20582 1 109.50000 418.400000
20581 20582 20583 1 115.00000 209.200000
5467 20584 10581 1 109.50000 418.400000
5467 20584 10582 1 109.50000 418.400000
5467 20584 20585 1 109.50000 418.400000
10581 20584 10582 1 109.50000 418.400000
10581 20584 20585 1 109.50000 418.400000
10582 20584 20585 1 109.50000 418.400000
20584 20585 20586 1 115.00000 209.200000
620 20587 10592 1 109.50000 418.400000
620 20587 10593 1 109.50000 418.400000
620 20587 20588 1 109.50000 418.400000
10592 20587 10593 1 109.50000 418.400000
10592 20587 20588 1 109.50000 418.400000
10593 20587 20588 1 109.50000 418.400000
20587 20588 20589 1 115.00000 209.200000
1971 20590 5428 1 109.50000 418.400000
1971 20590 10312 1 109.50000 418.400000
1971 20590 20591 1 109.50000 418.400000
5428 20590 10312 1 109.50000 418.400000
5428 20590 20591 1 109.50000 418.400000
10312 20590 20591 1 109.50000 418.400000
20590 20591 20592 1 115.00000 209.200000
3946 20593 4479 1 109.50000 418.400000
3946 20593 10607 1 109.50000 418.400000
3946 20593 20594 1 109.50000 418.400000
4479 20593 10607 1 109.50000 418.400000
4479 20593 20594 1 109.50000 418.400000
10607 20593 20594 1 109.50000 418.400000
20593 20594 20595 1 115.00000 209.200000
3727 20596 9679 1 109.50000 418.400000
3727 20596 9751 1 109.50000 418.400000
3727 20596 20597 1 109.50000 418.400000
9679 20596 9751 1 109.50000 418.400000
9679 20596 20597 1 109.50000 418.400000
9751 20596 20597 1 109.50000 418.400000
20596 20597 20598 1 115.00000 209.200000
90 20599 3380 1 109.50000 418.400000
90 20599 5856 1 109.50000 418.400000
90 20599 20600 1 109.50000 418.400000
3380 20599 5856 1 109.50000 418.400000
3380 20599 20600 1 109.50000 418.400000
5856 20599 20600 1 109.50000 418.400000
20599 20600 20601 1 115.00000 209.200000
6267 20602 6988 1 109.50000 418.400000
6267 20602 10626 1 109.50000 418.400000
6267 20602 20603 1 109.50000 418.400000
6988 20602 10626 1 109.50000 418.400000
6988 20602 20603 1 109.50000 418.400000
10626 20602 20603 1 109.50000 418.400000
20602 20603 20604 1 115.00000 209.200000
3071 20605 7376 1 109.50000 418.400000
3071 20605 9183 1 109.50000 418.400000
3071 20605 20606 1 109.50000 418.400000
7376 20605 9183 1 109.50000 418.400000
7376 20605 20606 1 109.50000 418.400000
9183 20605 20606 1 109.50000 418.400000
20605 20606 20607 1 115.00000 209.200000
4439 20608 6909 1 109.50000 418.400000
4439 20608 9574 1 109.50000 418.400000
4439 20608 20609 1 109.50000 418.400000
6909 20608 9574 1 109.50000 418.400000
6909 20608 20609 1 109.50000 418.400000
9574 20608 20609 1 109.50000 418.400000
20608 20609 20610 1 115.00000 209.200000
6149 20611 10678 1 109.50000 418.400000
6149 20611 10679 1 109.50000 418.400000
6149 20611 20612 1 109.50000 418.400000
10678 20611 10679 1 109.50000 418.400000
10678 20611 20612 1 109.50000 418.400000
10679 20611 20612 1 109.50000 418.400000
20611 20612 20613 1 115.00000 209.200000
4018 20614 4082 1 109.50000 418.400000
4018 20614 10560 1 109.50000 418.400000
4018 20614 20615 1 109.50000 418.400000
4082 20614 10560 1 109.50000 418.400000
4082 20614 20615 1 109.50000 418.400000
10560 20614 20615 1 109.50000 418.400000
20614 20615 20616 1 115.00000 209.200000
3878 20617 8874 1 109.50000 418.400000
3878 20617 9441 1 109.50000 418.400000
3878 20617 20618 1 109.50000 418.400000
8874 20617 9441 1 109.50000 418.400000
8874 20617 20618 1 109.50000 418.400000
9441 20617 20618 1 109.50000 418.400000
20617 20618 20619 1 115.00000 209.200000
9732 20620 10685 1 109.50000 418.400000
9732 20620 10686 1 109.50000 418.400000
9732 20620 20621 1 109.50000 418.400000
10685 20620 10686 1 109.50000 418.400000
10685 20620 20621 1 109.50000 418.400000
10686 20620 20621 1 109.50000 418.400000
20620 20621 20622 1 115.00000 209.200000
4367 20623 6396 1 109.50000 418.400000
4367 20623 10705 1 109.50000 418.400000
4367 20623 20624 1 109.50000 418.400000
6396 20623 10705 1 109.50000 418.400000
6396 20623 20624 1 109.50000 418.400000
10705 20623 20624 1 109.50000 418.400000
20623 20624 20625 1 115.00000 209.200000
6843 20626 8621 1 109.50000 418.400000
6843 20626 9766 1 109.50000 418.400000
6843 20626 20627 1 109.50000 418.400000
8621 20626 9766 1 109.50000 418.400000
8621 20626 20627 1 109.50000 418.400000
9766 20626 20627 1 109.50000 418.400000
20626 20627 20628 1 115.00000 209.200000
9210 20629 10742 1 109.50000 418.400000
9210 20629 10743 1 109.50000 418.400000
9210 20629 20630 1 109.50000 418.400000
10742 20629 10743 1 109.50000 418.400000
10742 20629 20630 1 109.50000 418.400000
10743 20629 20630 1 109.50000 418.400000
20629 20630 20631 1 115.00000 209.200000
6452 20632 9581 1 109.50000 418.400000
6452 20632 10744 1 109.50000 418.400000
6452 20632 20633 1 109.50000 418.400000
9581 20632 10744 1 109.50000 418.400000
9581 20632 20633 1 109.50000 418.400000
10744 20632 20633 1 109.50000 418.400000
20632 20633 20634 1 115.00000 209.200000
6152 20635 8498 1 109.50000 418.400000
6152 20635 10747 1 109.50000 418.400000
6152 20635 20636 1 109.50000 418.400000
8498 20635 10747 1 109.50000 418.400000
8498 20635 20636 1 109.50000 418.400000
10747 20635 20636 1 109.50000 418.400000
20635 20636 20637 1 115.00000 209.200000
6901 20638 10756 1 109.50000 418.400000
6901 20638 10757 1 109.50000 418.400000
6901 20638 20639 1 109.50000 418.400000
10756 20638 10757 1 109.50000 418.400000
10756 20638 20639 1 109.50000 418.400000
10757 20638 20639 1 109.50000 418.400000
20638 20639 20640 1 115.00000 209.200000
4510 20641 7457 1 109.50000 418.400000
4510 20641 10758 1 109.50000 418.400000
4510 20641 20642 1 109.50000 418.400000
7457 20641 10758 1 109.50000 418.400000
7457 20641 20642 1 109.50000 418.400000
10758 20641 20642 1 109.50000 418.400000
20641 20642 20643 1 115.00000 209.200000
6366 20644 8054 1 109.50000 418.400000
6366 20644 8213 1 109.50000 418.400000
6366 20644 20645 1 109.50000 418.400000
8054 20644 8213 1 109.50000 418.400000
8054 20644 20645 1 109.50000 418.400000
8213 20644 20645 1 109.50000 418.400000
20644 20645 20646 1 115.00000 209.200000
853 20647 1645 1 109.50000 418.400000
853 20647 4565 1 109.50000 418.400000
853 20647 20648 1 109.50000 418.400000
1645 20647 4565 1 109.50000 418.400000
1645 20647 20648 1 109.50000 418.400000
4565 20647 20648 1 109.50000 418.400000
20647 20648 20649 1 115.00000 209.200000
896 20650 4550 1 109.50000 418.400000
896 20650 7220 1 109.50000 418.400000
896 20650 20651 1 109.50000 418.400000
4550 20650 7220 1 109.50000 418.400000
4550 20650 20651 1 109.50000 418.400000
7220 20650 20651 1 109.50000 418.400000
20650 20651 20652 1 115.00000 209.200000
417 20653 9344 1 109.50000 418.400000
417 20653 10804 1 109.50000 418.400000
417 20653 20654 1 109.50000 418.400000
9344 20653 10804 1 109.50000 418.400000
9344 20653 20654 1 109.50000 418.400000
10804 20653 20654 1 109.50000 418.400000
20653 20654 20655 1 115.00000 209.200000
1951 20656 8851 1 109.50000 418.400000
1951 20656 10674 1 109.50000 418.400000
1951 20656 20657 1 109.50000 418.400000
8851 20656 10674 1 109.50000 418.400000
8851 20656 20657 1 109.50000 418.400000
10674 20656 20657 1 109.50000 418.400000
20656 20657 20658 1 115.00000 209.200000
3567 20659 10441 1 109.50000 418.400000
3567 20659 10814 1 109.50000 418.400000
3567 20659 20660 1 109.50000 418.400000
10441 20659 10814 1 109.50000 418.400000
10441 20659 20660 1 109.50000 418.400000
10814 20659 20660 1 109.50000 418.400000
20659 20660 20661 1 115.00000 209.200000
9549 20662 10821 1 109.50000 418.400000
9549 20662 10822 1 109.50000 418.400000
9549 20662 20663 1 109.50000 418.400000
10821 20662 10822 1 109.50000 418.400000
10821 20662 20663 1 109.50000 418.400000
10822 20662 20663 1 109.50000 418.400000
20662 20663 20664 1 115.00000 209.200000
2042 20665 7343 1 109.50000 418.400000
2042 20665 10425 1 109.50000 418.400000
2042 20665 20666 1 109.50000 418.400000
7343 20665 10425 1 109.50000 418.400000
7343 20665 20666 1 109.50000 418.400000
10425 20665 20666 1 109.50000 418.400000
20665 20666 20667 1 115.00000 209.200000
1222 20668 10802 1 109.50000 418.400000
1222 20668 10828 1 109.50000 418.400000
1222 20668 20669 1 109.50000 418.400000
10802 20668 10828 1 109.50000 418.400000
10802 20668 20669 1 109.50000 418.400000
10828 20668 20669 1 109.50000 418.400000
20668 20669 20670 1 115.00000 209.200000
7287 20671 7288 1 109.50000 418.400000
7287 20671 9990 1 109.50000 418.400000
7287 20671 20672 1 109.50000 418.400000
7288 20671 9990 1 109.50000 418.400000
7288 20671 20672 1 109.50000 418.400000
9990 20671 20672 1 109.50000 418.400000
20671 20672 20673 1 115.00000 209.200000
6997 20674 8822 1 109.50000 418.400000
6997 20674 10551 1 109.50000 418.400000
6997 20674 20675 1 109.50000 418.400000
8822 20674 10551 1 109.50000 418.400000
8822 20674 20675 1 109.50000 418.400000
10551 20674 20675 1 109.50000 418.400000
20674 20675 20676 1 115.00000 209.200000
4848 20677 5735 1 109.50000 418.400000
4848 20677 7309 1 109.50000 418.400000
4848 20677 20678 1 109.50000 418.400000
5735 20677 7309 1 109.50000 418.400000
5735 20677 20678 1 109.50000 418.400000
7309 20677 20678 1 109.50000 418.400000
20677 20678 20679 1 115.00000 209.200000
2490 20680 7612 1 109.50000 418.400000
2490 20680 7613 1 109.50000 418.400000
2490 20680 20681 1 109.50000 418.400000
7612 20680 7613 1 109.50000 418.400000
7612 20680 20681 1 109.50000 418.400000
7613 20680 20681 1 109.50000 418.400000
20680 20681 20682 1 115.00000 209.200000
4497 20683 5673 1 109.50000 418.400000
4497 20683 10858 1 109.50000 418.400000
4497 20683 20684 1 109.50000 418.400000
5673 20683 10858 1 109.50000 418.400000
5673 20683 20684 1 109.50000 418.400000
10858 20683 20684 1 109.50000 418.400000
20683 20684 20685 1 115.00000 209.200000
1037 20686 7956 1 109.50000 418.400000
1037 20686 9734 1 109.50000 418.400000
1037 20686 20687 1 109.50000 418.400000
7956 20686 9734 1 109.50000 418.400000
7956 20686 20687 1 109.50000 418.400000
9734 20686 20687 1 109.50000 418.400000
20686 20687 20688 1 115.00000 209.200000
9276 20689 9992 1 109.50000 418.400000
9276 20689 10866 1 109.50000 418.400000
9276 20689 20690 1 109.50000 418.400000
9992 20689 10866 1 109.50000 418.400000
9992 20689 20690 1 109.50000 418.400000
10866 20689 20690 1 109.50000 418.400000
20689 20690 20691 1 115.00000 209.200000
8459 20692 10864 1 109.50000 418.400000
8459 20692 10867 1 109.50000 418.400000
8459 20692 20693 1 109.50000 418.400000
10864 20692 10867 1 109.50000 418.400000
10864 20692 20693 1 109.50000 418.400000
10867 20692 20693 1 109.50000 418.400000
20692 20693 20694 1 115.00000 209.200000
7843 20695 10080 1 109.50000 418.400000
7843 20695 10213 1 109.50000 418.400000
7843 20695 20696 1 109.50000 418.400000
10080 20695 10213 1 109.50000 418.400000
10080 20695 20696 1 109.50000 418.400000
10213 20695 20696 1 109.50000 418.400000
20695 20696 20697 1 115.00000 209.200000
6913 20698 7711 1 109.50000 418.400000
6913 20698 7861 1 109.50000 418.400000
6913 20698 20699 1 109.50000 418.400000
7711 20698 7861 1 109.50000 418.400000
7711 20698 20699 1 109.50000 418.400000
7861 20698 20699 1 109.50000 418.400000
20698 20699 20700 1 115.00000 209.200000
4209 20701 5092 1 109.50000 418.400000
4209 20701 9927 1 109.50000 418.400000
4209 20701 20702 1 109.50000 418.400000
5092 20701 9927 1 109.50000 418.400000
5092 20701 20702 1 109.50000 418.400000
9927 20701 20702 1 109.50000 418.400000
20701 20702 20703 1 115.00000 209.200000
7127 20704 9505 1 109.50000 418.400000
7127 20704 9506 1 109.50000 418.400000
7127 20704 20705 1 109.50000 418.400000
9505 20704 9506 1 109.50000 418.400000
9505 20704 20705 1 109.50000 418.400000
9506 20704 20705 1 109.50000 418.400000
20704 20705 20706 1 115.00000 209.200000
348 20707 349 1 109.50000 418.400000
348 20707 350 1 109.50000 418.400000
348 20707 20708 1 109.50000 418.400000
349 20707 350 1 109.50000 418.400000
349 20707 20708 1 109.50000 418.400000
350 20707 20708 1 109.50000 418.400000
20707 20708 20709 1 115.00000 209.200000
8275 20710 10439 1 109.50000 418.400000
8275 20710 10911 1 109.50000 418.400000
8275 20710 20711 1 109.50000 418.400000
10439 20710 10911 1 109.50000 418.400000
10439 20710 20711 1 109.50000 418.400000
10911 20710 20711 1 109.50000 418.400000
20710 20711 20712 1 115.00000 209.200000
4041 20713 8961 1 109.50000 418.400000
4041 20713 10146 1 109.50000 418.400000
4041 20713 20714 1 109.50000 418.400000
8961 20713 10146 1 109.50000 418.400000
8961 20713 20714 1 109.50000 418.400000
10146 20713 20714 1 109.50000 418.400000
20713 20714 20715 1 115.00000 209.200000
8799 20716 10705 1 109.50000 418.400000
8799 20716 10923 1 109.50000 418.400000
8799 20716 20717 1 109.50000 418.400000
10705 20716 10923 1 109.50000 418.400000
10705 20716 20717 1 109.50000 418.400000
10923 20716 20717 1 109.50000 418.400000
20716 20717 20718 1 115.00000 209.200000
4031 20719 7264 1 109.50000 418.400000
4031 20719 10488 1 109.50000 418.400000
4031 20719 20720 1 109.50000 418.400000
7264 20719 10488 1 109.50000 418.400000
7264 20719 20720 1 109.50000 418.400000
10488 20719 20720 1 109.50000 418.400000
20719 20720 20721 1 115.00000 209.200000
5356 20722 9950 1 109.50000 418.400000
5356 20722 10911 1 109.50000 418.400000
5356 20722 20723 1 109.50000 418.400000
9950 20722 10911 1 109.50000 418.400000
9950 20722 20723 1 109.50000 418.400000
10911 20722 20723 1 109.50000 418.400000
20722 20723 20724 1 115.00000 209.200000
1727 20725 6638 1 109.50000 418.400000
1727 20725 7818 1 109.50000 418.400000
1727 20725 20726 1 109.50000 418.400000
6638 20725 7818 1 109.50000 418.400000
6638 20725 20726 1 109.50000 418.400000
7818 20725 20726 1 109.50000 418.400000
20725 20726 20727 1 115.00000 209.200000
8815 20728 10457 1 109.50000 418.400000
8815 20728 10942 1 109.50000 418.400000
8815 20728 20729 1 109.50000 418.400000
10457 20728 10942 1 109.50000 418.400000
10457 20728 20729 1 109.50000 418.400000
10942 20728 20729 1 109.50000 418.400000
20728 20729 20730 1 115.00000 209.200000
4437 20731 4853 1 109.50000 418.400000
4437 20731 7741 1 109.50000 418.400000
4437 20731 20732 1 109.50000 418.400000
4853 20731 7741 1 109.50000 418.400000
4853 20731 20732 1 109.50000 418.400000
7741 20731 20732 1 109.50000 418.400000
20731 20732 20733 1 115.00000 209.200000
10049 20734 10949 1 109.50000 418.400000
10049 20734 10950 1 109.50000 418.400000
10049 20734 20735 1 109.50000 418.400000
10949 20734 10950 1 109.50000 418.400000
10949 20734 20735 1 109.50000 418.400000
10950 20734 20735 1 109.50000 418.400000
20734 20735 20736 1 115.00000 209.200000
518 20737 9247 1 109.50000 418.400000
518 20737 9744 1 109.50000 418.400000
518 20737 20738 1 109.50000 418.400000
9247 20737 9744 1 109.50000 418.400000
9247 20737 20738 1 109.50000 418.400000
9744 20737 20738 1 109.50000 418.400000
20737 20738 20739 1 115.00000 209.200000
4955 20740 8067 1 109.50000 418.400000
4955 20740 10686 1 109.50000 418.400000
4955 20740 20741 1 109.50000 418.400000
8067 20740 10686 1 109.50000 418.400000
8067 20740 20741 1 109.50000 418.400000
10686 20740 20741 1 109.50000 418.400000
20740 20741 20742 1 115.00000 209.200000
1781 20743 6734 1 109.50000 418.400000
1781 20743 6735 1 109.50000 418.400000
1781 20743 20744 1 109.50000 418.400000
6734 20743 6735 1 109.50000 418.400000
6734 20743 20744 1 109.50000 418.400000
6735 20743 20744 1 109.50000 418.400000
20743 20744 20745 1 115.00000 209.200000
10678 20746 10964 1 109.50000 418.400000
10678 20746 10965 1 109.50000 418.400000
10678 20746 20747 1 109.50000 418.400000
10964 20746 10965 1 109.50000 418.400000
10964 20746 20747 1 109.50000 418.400000
10965 20746 20747 1 109.50000 418.400000
20746 20747 20748 1 115.00000 209.200000
7733 20749 7877 1 109.50000 418.400000
7733 20749 10940 1 109.50000 418.400000
7733 20749 20750 1 109.50000 418.400000
7877 20749 10940 1 109.50000 418.400000
7877 20749 20750 1 109.50000 418.400000
10940 20749 20750 1 109.50000 418.400000
20749 20750 20751 1 115.00000 209.200000
9191 20752 10671 1 109.50000 418.400000
9191 20752 10988 1 109.50000 418.400000
9191 20752 20753 1 109.50000 418.400000
10671 20752 10988 1 109.50000 418.400000
10671 20752 20753 1 109.50000 418.400000
10988 20752 20753 1 109.50000 418.400000
20752 20753 20754 1 115.00000 209.200000
4221 20755 5270 1 109.50000 418.400000
4221 20755 10866 1 109.50000 418.400000
4221 20755 20756 1 109.50000 418.400000
5270 20755 10866 1 109.50000 418.400000
5270 20755 20756 1 109.50000 418.400000
10866 20755 20756 1 109.50000 418.400000
20755 20756 20757 1 115.00000 209.200000
1444 20758 9025 1 109.50000 418.400000
1444 20758 10995 1 109.50000 418.400000
1444 20758 20759 1 109.50000 418.400000
9025 20758 10995 1 109.50000 418.400000
9025 20758 20759 1 109.50000 418.400000
10995 20758 20759 1 109.50000 418.400000
20758 20759 20760 1 115.00000 209.200000
6144 20761 6987 1 109.50000 418.400000
6144 20761 8304 1 109.50000 418.400000
6144 20761 20762 1 109.50000 418.400000
6987 20761 8304 1 109.50000 418.400000
6987 20761 20762 1 109.50000 418.400000
8304 20761 20762 1 109.50000 418.400000
20761 20762 20763 1 115.00000 209.200000
708 20764 7806 1 109.50000 418.400000
708 20764 10841 1 109.50000 418.400000
708 20764 20765 1 109.50000 418.400000
7806 20764 10841 1 109.50000 418.400000
7806 20764 20765 1 109.50000 418.400000
10841 20764 20765 1 109.50000 418.400000
20764 20765 20766 1 115.00000 209.200000
3470 20767 10046 1 109.50000 418.400000
3470 20767 10995 1 109.50000 418.400000
3470 20767 20768 1 109.50000 418.400000
10046 20767 10995 1 109.50000 418.400000
10046 20767 20768 1 109.50000 418.400000
10995 20767 20768 1 109.50000 418.400000
20767 20768 20769 1 115.00000 209.200000
1623 20770 9645 1 109.50000 418.400000
1623 20770 11032 1 109.50000 418.400000
1623 20770 20771 1 109.50000 418.400000
9645 20770 11032 1 109.50000 418.400000
9645 20770 20771 1 109.50000 418.400000
11032 20770 20771 1 109.50000 418.400000
20770 20771 20772 1 115.00000 209.200000
4735 20773 9701 1 109.50000 418.400000
4735 20773 10916 1 109.50000 418.400000
4735 20773 20774 1 109.50000 418.400000
9701 20773 10916 1 109.50000 418.400000
9701 20773 20774 1 109.50000 418.400000
10916 20773 20774 1 109.50000 418.400000
20773 20774 20775 1 115.00000 209.200000
1644 20776 6386 1 109.50000 418.400000
1644 20776 10906 1 109.50000 418.400000
1644 20776 20777 1 109.50000 418.400000
6386 20776 10906 1 109.50000 418.400000
6386 20776 20777 1 109.50000 418.400000
10906 20776 20777 1 109.50000 418.400000
20776 20777 20778 1 115.00000 209.200000
9668 20779 10569 1 109.50000 418.400000
9668 20779 10902 1 109.50000 418.400000
9668 20779 20780 1 109.50000 418.400000
10569 20779 10902 1 109.50000 418.400000
10569 20779 20780 1 109.50000 418.400000
10902 20779 20780 1 109.50000 418.400000
20779 20780 20781 1 115.00000 209.200000
721 20782 4292 1 109.50000 418.400000
721 20782 11075 1 109.50000 418.400000
721 20782 20783 1 109.50000 418.400000
4292 20782 11075 1 109.50000 418.400000
4292 20782 20783 1 109.50000 418.400000
11075 20782 20783 1 109.50000 418.400000
20782 20783 20784 1 115.00000 209.200000
1260 20785 4517 1 109.50000 418.400000
1260 20785 9202 1 109.50000 418.400000
1260 20785 20786 1 109.50000 418.400000
4517 20785 9202 1 109.50000 418.400000
4517 20785 20786 1 109.50000 418.400000
9202 20785 20786 1 109.50000 418.400000
20785 20786 20787 1 115.00000 209.200000
6931 20788 10047 1 109.50000 418.400000
6931 20788 11078 1 109.50000 418.400000
6931 20788 20789 1 109.50000 418.400000
10047 20788 11078 1 109.50000 418.400000
10047 20788 20789 1 109.50000 418.400000
11078 20788 20789 1 109.50000 418.400000
20788 20789 20790 1 115.00000 209.200000
1112 20791 5188 1 109.50000 418.400000
1112 20791 9395 1 109.50000 418.400000
1112 20791 20792 1 109.50000 418.400000
5188 20791 9395 1 109.50000 418.400000
5188 20791 20792 1 109.50000 418.400000
9395 20791 20792 1 109.50000 418.400000
20791 20792 20793 1 115.00000 209.200000
1751 20794 4604 1 109.50000 418.400000
1751 20794 10764 1 109.50000 418.400000
1751 20794 20795 1 109.50000 418.400000
4604 20794 10764 1 109.50000 418.400000
4604 20794 20795 1 109.50000 418.400000
10764 20794 20795 1 109.50000 418.400000
20794 20795 20796 1 115.00000 209.200000
1407 20797 10329 1 109.50000 418.400000
1407 20797 10385 1 109.50000 418.400000
1407 20797 20798 1 109.50000 418.400000
10329 20797 10385 1 109.50000 418.400000
10329 20797 20798 1 109.50000 418.400000
10385 20797 20798 1 109.50000 418.400000
20797 20798 20799 1 115.00000 209.200000
245 20800 1120 1 109.50000 418.400000
245 20800 10790 1 109.50000 418.400000
245 20800 20801 1 109.50000 418.400000
1120 20800 10790 1 109.50000 418.400000
1120 20800 20801 1 109.50000 418.400000
10790 20800 20801 1 109.50000 418.400000
20800 20801 20802 1 115.00000 209.200000
6150 20803 7638 1 109.50000 418.400000
6150 20803 11014 1 109.50000 418.400000
6150 20803 20804 1 109.50000 418.400000
7638 20803 11014 1 109.50000 418.400000
7638 20803 20804 1 109.50000 418.400000
11014 20803 20804 1 109.50000 418.400000
20803 20804 20805 1 115.00000 209.200000
1224 20806 4238 1 109.50000 418.400000
1224 20806 8760 1 109.50000 418.400000
1224 20806 20807 1 109.50000 418.400000
4238 20806 8760 1 109.50000 418.400000
4238 20806 20807 1 109.50000 418.400000
8760 20806 20807 1 109.50000 418.400000
20806 20807 20808 1 115.00000 209.200000
2452 20809 8619 1 109.50000 418.400000
2452 20809 8954 1 109.50000 418.400000
2452 20809 20810 1 109.50000 418.400000
8619 20809 8954 1 109.50000 418.400000
8619 20809 20810 1 109.50000 418.400000
8954 20809 20810 1 109.50000 418.400000
20809 20810 20811 1 115.00000 209.200000
4779 20812 6100 1 109.50000 418.400000
4779 20812 9541 1 109.50000 418.400000
4779 20812 20813 1 109.50000 418.400000
6100 20812 9541 1 109.50000 418.400000
6100 20812 20813 1 109.50000 418.400000
9541 20812 20813 1 109.50000 418.400000
20812 20813 20814 1 115.00000 209.200000
1984 20815 3195 1 109.50000 418.400000
1984 20815 10747 1 109.50000 418.400000
1984 20815 20816 1 109.50000 418.400000
3195 20815 10747 1 109.50000 418.400000
3195 20815 20816 1 109.50000 418.400000
10747 20815 20816 1 109.50000 418.400000
20815 20816 20817 1 115.00000 209.200000
9835 20818 10766 1 109.50000 418.400000
9835 20818 11081 1 109.50000 418.400000
9835 20818 20819 1 109.50000 418.400000
10766 20818 11081 1 109.50000 418.400000
10766 20818 20819 1 109.50000 418.400000
11081 20818 20819 1 109.50000 418.400000
20818 20819 20820 1 115.00000 209.200000
6567 20821 9576 1 109.50000 418.400000
6567 20821 10603 1 109.50000 418.400000
6567 20821 20822 1 109.50000 418.400000
9576 20821 10603 1 109.50000 418.400000
9576 20821 20822 1 109.50000 418.400000
10603 20821 20822 1 109.50000 418.400000
20821 20822 20823 1 115.00000 209.200000
3775 20824 5269 1 109.50000 418.400000
3775 20824 7991 1 109.50000 418.400000
3775 20824 20825 1 109.50000 418.400000
5269 20824 7991 1 109.50000 418.400000
5269 20824 20825 1 109.50000 418.400000
7991 20824 20825 1 109.50000 418.400000
20824 20825 20826 1 115.00000 209.200000
2036 20827 9578 1 109.50000 418.400000
2036 20827 10004 1 109.50000 418.400000
2036 20827 20828 1 109.50000 418.400000
9578 20827 10004 1 109.50000 418.400000
9578 20827 20828 1 109.50000 418.400000
10004 20827 20828 1 109.50000 418.400000
20827 20828 20829 1 115.00000 209.200000
9903 20830 10158 1 109.50000 418.400000
9903 20830 10413 1 109.50000 418.400000
9903 20830 20831 1 109.50000 418.400000
10158 20830 10413 1 109.50000 418.400000
10158 20830 20831 1 109.50000 418.400000
10413 20830 20831 1 109.50000 418.400000
20830 20831 20832 1 115.00000 209.200000
1922 20833 5841 1 109.50000 418.400000
1922 20833 6262 1 109.50000 418.400000
1922 20833 20834 1 109.50000 418.400000
5841 20833 6262 1 109.50000 418.400000
5841 20833 20834 1 109.50000 418.400000
6262 20833 20834 1 109.50000 418.400000
20833 20834 20835 1 115.00000 209.200000
6698 20836 11049 1 109.50000 418.400000
6698 20836 11116 1 109.50000 418.400000
6698 20836 20837 1 109.50000 418.400000
11049 20836 11116 1 109.50000 418.400000
11049 20836 20837 1 109.50000 418.400000
11116 20836 20837 1 109.50000 418.400000
20836 20837 20838 1 115.00000 209.200000
7008 20839 7978 1 109.50000 418.400000
7008 20839 10582 1 109.50000 418.400000
7008 20839 20840 1 109.50000 418.400000
7978 20839 10582 1 109.50000 418.400000
7978 20839 20840 1 109.50000 418.400000
10582 20839 20840 1 109.50000 418.400000
20839 20840 20841 1 115.00000 209.200000
5468 20842 8361 1 109.50000 418.400000
5468 20842 11029 1 109.50000 418.400000
5468 20842 20843 1 109.50000 418.400000
8361 20842 11029 1 109.50000 418.400000
8361 20842 20843 1 109.50000 418.400000
11029 20842 20843 1 109.50000 418.400000
20842 20843 20844 1 115.00000 209.200000
785 20845 3463 1 109.50000 418.400000
785 20845 6500 1 109.50000 418.400000
785 20845 20846 1 109.50000 418.400000
3463 20845 6500 1 109.50000 418.400000
3463 20845 20846 1 109.50000 418.400000
6500 20845 20846 1 109.50000 418.400000
20845 20846 20847 1 115.00000 209.200000
7908 20848 10711 1 109.50000 418.400000
7908 20848 11044 1 109.50000 418.400000
7908 20848 20849 1 109.50000 418.400000
10711 20848 11044 1 109.50000 418.400000
10711 20848 20849 1 109.50000 418.400000
11044 20848 20849 1 109.50000 418.400000
20848 20849 20850 1 115.00000 209.200000
6538 20851 10087 1 109.50000 418.400000
6538 20851 10670 1 109.50000 418.400000
6538 20851 20852 1 109.50000 418.400000
10087 20851 10670 1 109.50000 418.400000
10087 20851 20852 1 109.50000 418.400000
10670 20851 20852 1 109.50000 418.400000
20851 20852 20853 1 115.00000 209.200000
6341 20854 7990 1 109.50000 418.400000
6341 20854 11125 1 109.50000 418.400000
6341 20854 20855 1 109.50000 418.400000
7990 20854 11125 1 109.50000 418.400000
7990 20854 20855 1 109.50000 418.400000
11125 20854 20855 1 109.50000 418.400000
20854 20855 20856 1 115.00000 209.200000
4119 20857 6915 1 109.50000 418.400000
4119 20857 10371 1 109.50000 418.400000
4119 20857 20858 1 109.50000 418.400000
6915 20857 10371 1 109.50000 418.400000
6915 20857 20858 1 109.50000 418.400000
10371 20857 20858 1 109.50000 418.400000
20857 20858 20859 1 115.00000 209.200000
5415 20860 9807 1 109.50000 418.400000
5415 20860 10083 1 109.50000 418.400000
5415 20860 20861 1 109.50000 418.400000
9807 20860 10083 1 109.50000 418.400000
9807 20860 20861 1 109.50000 418.400000
10083 20860 20861 1 109.50000 418.400000
20860 20861 20862 1 115.00000 209.200000
3736 20863 7627 1 109.50000 418.400000
3736 20863 9844 1 109.50000 418.400000
3736 20863 20864 1 109.50000 418.400000
7627 20863 9844 1 109.50000 418.400000
7627 20863 20864 1 109.50000 418.400000
9844 20863 20864 1 109.50000 418.400000
20863 20864 20865 1 115.00000 209.200000
2652 20866 7037 1 109.50000 418.400000
2652 20866 10555 1 109.50000 418.400000
2652 20866 20867 1 109.50000 418.400000
7037 20866 10555 1 109.50000 418.400000
7037 20866 20867 1 109.50000 418.400000
10555 20866 20867 1 109.50000 418.400000
20866 20867 20868 1 115.00000 209.200000
4733 20869 9971 1 109.50000 418.400000
4733 20869 10036 1 109.50000 418.400000
4733 20869 20870 1 109.50000 418.400000
9971 20869 10036 1 109.50000 418.400000
9971 20869 20870 1 109.50000 418.400000
10036 20869 20870 1 109.50000 418.400000
20869 20870 20871 1 115.00000 209.200000
5540 20872 8923 1 109.50000 418.400000
5540 20872 10632 1 109.50000 418.400000
5540 20872 20873 1 109.50000 418.400000
8923 20872 10632 1 109.50000 418.400000
8923 20872 20873 1 109.50000 418.400000
10632 20872 20873 1 109.50000 418.400000
20872 20873 20874 1 115.00000 209.200000
6151 20875 8081 1 109.50000 418.400000
6151 20875 10148 1 109.50000 418.400000
6151 20875 20876 1 109.50000 418.400000
8081 20875 10148 1 109.50000 418.400000
8081 20875 20876 1 109.50000 418.400000
10148 20875 20876 1 109.50000 418.400000
20875 20876 20877 1 115.00000 209.200000
3207 20878 9561 1 109.50000 418.400000
3207 20878 20879 1 109.50000 418.400000
3207 20878 20881 1 109.50000 418.400000
9561 20878 20879 1 109.50000 418.400000
9561 20878 20881 1 109.50000 418.400000
20879 20878 20881 1 109.50000 418.400000
20878 20879 20880 1 115.00000 209.200000
20878 20881 20882 1 115.00000 209.200000
9583 20883 10463 1 109.50000 418.400000
9583 20883 20884 1 109.50000 418.400000
9583 20883 20886 1 109.50000 418.400000
10463 20883 20884 1 109.50000 418.400000
10463 20883 20886 1 109.50000 418.400000
20884 20883 20886 1 109.50000 418.400000
20883 20884 20885 1 115.00000 209.200000
20883 20886 20887 1 115.00000 209.200000
4087 20888 10165 1 109.50000 418.400000
4087 20888 20889 1 109.50000 418.400000
4087 20888 20891 1 109.50000 418.400000
10165 20888 20889 1 109.50000 418.400000
10165 20888 20891 1 109.50000 418.400000
20889 20888 20891 1 109.50000 418.400000
20888 20889 20890 1 115.00000 209.200000
20888 20891 20892 1 115.00000 209.200000
6251 20893 10923 1 109.50000 418.400000
6251 20893 20894 1 109.50000 418.400000
6251 20893 20896 1 109.50000 418.400000
10923 20893 20894 1 109.50000 418.400000
10923 20893 20896 1 109.50000 418.400000
20894 20893 20896 1 109.50000 418.400000
20893 20894 20895 1 115.00000 209.200000
20893 20896 20897 1 115.00000 209.200000
652 20898 3221 1 109.50000 418.400000
652 20898 20899 1 109.50000 418.400000
652 20898 20901 1 109.50000 418.400000
3221 20898 20899 1 109.50000 418.400000
3221 20898 20901 1 109.50000 418.400000
20899 20898 20901 1 109.50000 418.400000
20898 20899 20900 1 115.00000 209.200000
20898 20901 20902 1 115.00000 209.200000
2893 20903 11044 1 109.50000 418.400000
2893 20903 20904 1 109.50000 418.400000
2893 20903 20906 1 109.50000 418.400000
11044 20903 20904 1 109.50000 418.400000
11044 20903 20906 1 109.50000 418.400000
20904 20903 20906 1 109.50000 418.400000
20903 20904 20905 1 115.00000 209.200000
20903 20906 20907 1 115.00000 209.200000
7311 20908 8290 1 109.50000 418.400000
7311 20908 20909 1 109.50000 418.400000
7311 20908 20911 1 109.50000 418.400000
8290 20908 20909 1 109.50000 418.400000
8290 20908 20911 1 109.50000 418.400000
20909 20908 20911 1 109.50000 418.400000
20908 20909 20910 1 115.00000 209.200000
20908 20911 20912 1 115.00000 209.200000
9691 20913 10852 1 109.50000 418.400000
9691 20913 20914 1 109.50000 418.400000
9691 20913 20916 1 109.50000 418.400000
10852 20913 20914 1 109.50000 418.400000
10852 20913 20916 1 109.50000 418.400000
20914 20913 20916 1 109.50000 418.400000
20913 20914 20915 1 115.00000 209.200000
20913 20916 20917 1 115.00000 209.200000
10124 20918 11062 1 109.50000 418.400000
10124 20918 20919 1 109.50000 418.400000
10124 20918 20921 1 109.50000 418.400000
11062 20918 20919 1 109.50000 418.400000
11062 20918 20921 1 109.50000 418.400000
20919 20918 20921 1 109.50000 418.400000
20918 20919 20920 1 115.00000 209.200000
20918 20921 20922 1 115.00000 209.200000
7813 20923 10355 1 109.50000 418.400000
7813 20923 20924 1 109.50000 418.400000
7813 20923 20926 1 109.50000 418.400000
10355 20923 20924 1 109.50000 418.400000
10355 20923 20926 1 109.50000 418.400000
20924 20923 20926 1 109.50000 418.400000
20923 20924 20925 1 115.00000 209.200000
20923 20926 20927 1 115.00000 209.200000
8865 20928 9164 1 109.50000 418.400000
8865 20928 20929 1 109.50000 418.400000
8865 20928 20931 1 109.50000 418.400000
9164 20928 20929 1 109.50000 418.400000
9164 20928 20931 1 109.50000 418.400000
20929 20928 20931 1 109.50000 418.400000
20928 20929 20930 1 115.00000 209.200000
20928 20931 20932 1 115.00000 209.200000
3543 20933 11092 1 109.50000 418.400000
3543 20933 20934 1 109.50000 418.400000
3543 20933 20936 1 109.50000 418.400000
11092 20933 20934 1 109.50000 418.400000
11092 20933 20936 1 109.50000 418.400000
20934 20933 20936 1 109.50000 418.400000
20933 20934 20935 1 115.00000 209.200000
20933 20936 20937 1 115.00000 209.200000
1231 20938 3418 1 109.50000 418.400000
1231 20938 20939 1 109.50000 418.400000
1231 20938 20941 1 109.50000 418.400000
3418 20938 20939 1 109.50000 418.400000
3418 20938 20941 1 109.50000 418.400000
20939 20938 20941 1 109.50000 418.400000
20938 20939 20940 1 115.00000 209.200000
20938 20941 20942 1 115.00000 209.200000
2780 20943 4587 1 109.50000 418.400000
2780 20943 20944 1 109.50000 418.400000
2780 20943 20946 1 109.50000 418.400000
4587 20943 20944 1 109.50000 418.400000
4587 20943 20946 1 109.50000 418.400000
20944 20943 20946 1 109.50000 418.400000
20943 20944 20945 1 115.00000 209.200000
20943 20946 20947 1 115.00000 209.200000
7863 20948 10587 1 109.50000 418.400000
7863 20948 20949 1 109.50000 418.400000
7863 20948 20951 1 109.50000 418.400000
10587 20948 20949 1 109.50000 418.400000
10587 20948 20951 1 109.50000 418.400000
20949 20948 20951 1 109.50000 418.400000
20948 20949 20950 1 115.00000 209.200000
20948 20951 20952 1 115.00000 209.200000
9402 20953 11097 1 109.50000 418.400000
9402 20953 20954 1 109.50000 418.400000
9402 20953 20956 1 109.50000 418.400000
11097 20953 20954 1 109.50000 418.400000
11097 20953 20956 1 109.50000 418.400000
20954 20953 20956 1 109.50000 418.400000
20953 20954 20955 1 115.00000 209.200000
20953 20956 20957 1 115.00000 209.200000
7551 20958 8520 1 109.50000 418.400000
7551 20958 20959 1 109.50000 418.400000
7551 20958 20961 1 109.50000 418.400000
8520 20958 20959 1 109.50000 418.400000
8520 20958 20961 1 109.50000 418.400000
20959 20958 20961 1 109.50000 418.400000
20958 20959 20960 1 115.00000 209.200000
20958 20961 20962 1 115.00000 209.200000
7909 20963 10821 1 109.50000 418.400000
7909 20963 20964 1 109.50000 418.400000
7909 20963 20966 1 109.50000 418.400000
10821 20963 20964 1 109.50000 418.400000
10821 20963 20966 1 109.50000 418.400000
20964 20963 20966 1 109.50000 418.400000
20963 20964 20965 1 115.00000 209.200000
20963 20966 20967 1 115.00000 209.200000
2914 20968 5091 1 109.50000 418.400000
2914 20968 20969 1 109.50000 418.400000
2914 20968 20971 1 109.50000 418.400000
5091 20968 20969 1 109.50000 418.400000
5091 20968 20971 1 109.50000 418.400000
20969 20968 20971 1 109.50000 418.400000
20968 20969 20970 1 115.00000 209.200000
20968 20971 20972 1 115.00000 209.200000
10222 20973 11032 1 109.50000 418.400000
10222 20973 20974 1 109.50000 418.400000
10222 20973 20976 1 109.50000 418.400000
11032 20973 20974 1 109.50000 418.400000
11032 20973 20976 1 109.50000 418.400000
20974 20973 20976 1 109.50000 418.400000
20973 20974 20975 1 115.00000 209.200000
20973 20976 20977 1 115.00000 209.200000
8511 20978 10784 1 109.50000 418.400000
8511 20978 20979 1 109.50000 418.400000
8511 20978 20981 1 109.50000 418.400000
10784 20978 20979 1 109.50000 418.400000
10784 20978 20981 1 109.50000 418.400000
20979 20978 20981 1 109.50000 418.400000
20978 20979 20980 1 115.00000 209.200000
20978 20981 20982 1 115.00000 209.200000
1993 20983 10550 1 109.50000 418.400000
1993 20983 20984 1 109.50000 418.400000
1993 20983 20986 1 109.50000 418.400000
10550 20983 20984 1 109.50000 418.400000
10550 20983 20986 1 109.50000 418.400000
20984 20983 20986 1 109.50000 418.400000
20983 20984 20985 1 115.00000 209.200000
20983 20986 20987 1 115.00000 209.200000
4168 20988 9877 1 109.50000 418.400000
4168 20988 20989 1 109.50000 418.400000
4168 20988 20991 1 109.50000 418.400000
9877 20988 20989 1 109.50000 418.400000
9877 20988 20991 1 109.50000 418.400000
20989 20988 20991 1 109.50000 418.400000
20988 20989 20990 1 115.00000 209.200000
20988 20991 20992 1 115.00000 209.200000
7598 20993 10808 1 109.50000 418.400000
7598 20993 20994 1 109.50000 418.400000
7598 20993 20996 1 109.50000 418.400000
10808 20993 20994 1 109.50000 418.400000
10808 20993 20996 1 109.50000 418.400000
20994 20993 20996 1 109.50000 418.400000
20993 20994 20995 1 115.00000 209.200000
20993 20996 20997 1 115.00000 209.200000
3569 20998 8097 1 109.50000 418.400000
3569 20998 20999 1 109.50000 418.400000
3569 20998 21001 1 109.50000 418.400000
8097 20998 20999 1 109.50000 418.400000
8097 20998 21001 1 109.50000 418.400000
20999 20998 21001 1 109.50000 418.400000
20998 20999 21000 1 115.00000 209.200000
20998 21001 21002 1 115.00000 209.200000
10053 21003 10545 1 109.50000 418.400000
10053 21003 21004 1 109.50000 418.400000
10053 21003 21006 1 109.50000 418.400000
10545 21003 21004 1 109.50000 418.400000
10545 21003 21006 1 109.50000 418.400000
21004 21003 21006 1 109.50000 418.400000
21003 21004 21005 1 115.00000 209.200000
21003 21006 21007 1 115.00000 209.200000
8841 21008 10957 1 109.50000 418.400000
8841 21008 21009 1 109.50000 418.400000
8841 21008 21011 1 109.50000 418.400000
10957 21008 21009 1 109.50000 418.400000
10957 21008 21011 1 109.50000 418.400000
21009 21008 21011 1 109.50000 418.400000
21008 21009 21010 1 115.00000 209.200000
21008 21011 21012 1 115.00000 209.200000
3633 21013 3635 1 109.50000 418.400000
3633 21013 21014 1 109.50000 418.400000
3633 21013 21016 1 109.50000 418.400000
3635 21013 21014 1 109.50000 418.400000
3635 21013 21016 1 109.50000 418.400000
21014 21013 21016 1 109.50000 418.400000
21013 21014 21015 1 115.00000 209.200000
21013 21016 21017 1 115.00000 209.200000
5997 21018 10786 1 109.50000 418.400000
5997 21018 21019 1 109.50000 418.400000
5997 21018 21021 1 109.50000 418.400000
10786 21018 21019 1 109.50000 418.400000
10786 21018 21021 1 109.50000 418.400000
21019 21018 21021 1 109.50000 418.400000
21018 21019 21020 1 115.00000 209.200000
21018 21021 21022 1 115.00000 209.200000
3013 21023 11137 1 109.50000 418.400000
3013 21023 21024 1 109.50000 418.400000
3013 21023 21026 1 109.50000 418.400000
11137 21023 21024 1 109.50000 418.400000
11137 21023 21026 1 109.50000 418.400000
21024 21023 21026 1 109.50000 418.400000
21023 21024 21025 1 115.00000 209.200000
21023 21026 21027 1 115.00000 209.200000

[ dihedrals ]
; ai aj ak al funct params
16697 16698 16699 16700 1 180.0000771 15.1670000 2
16697 16698 16699 16701 1 180.0000771 15.1670000 2
16700 16698 16699 16701 4 180.0000771 4.6024000 2
16697 16698 16707 16699 4 180.0000771 4.6024000 2
16697 16698 16707 16705 1 180.0000771 15.1670000 2
16697 16698 16707 16708 1 180.0000771 15.1670000 2
16699 16698 16707 16705 1 180.0000771 15.1670000 2
16699 16698 16707 16708 1 180.0000771 15.1670000 2
16700 16699 16698 16707 1 180.0000771 15.1670000 2
16701 16699 16698 16707 1 180.0000771 15.1670000 2
16698 16699 16701 16702 1 180.0000771 15.1670000 2
16698 16699 16701 16703 1 180.0000771 15.1670000 2
16700 16699 16701 16702 1 180.0000771 15.1670000 2
16700 16699 16701 16703 1 180.0000771 15.1670000 2
16699 16701 16703 16704 1 180.0000771 15.1670000 2
16699 16701 16703 16705 1 180.0000771 15.1670000 2
16702 16701 16703 16704 1 180.0000771 15.1670000 2
16702 16701 16703 16705 1 180.0000771 15.1670000 2
16699 16703 16701 16702 4 180.0000771 4.6024000 2
16701 16703 16705 16706 1 180.0000771 15.1670000 2
16701 16703 16705 16707 1 180.0000771 15.1670000 2
16704 16703 16705 16706 1 180.0000771 15.1670000 2
16704 16703 16705 16707 1 180.0000771 15.1670000 2
16701 16705 16703 16704 4 180.0000771 4.6024000 2
16698 16705 16707 16708 4 180.0000771 4.6024000 2
16703 16705 16707 16708 1 180.0000771 15.1670000 2
16706 16705 16707 16708 1 180.0000771 15.1670000 2
16698 16707 16705 16703 1 180.0000771 15.1670000 2
16698 16707 16705 16706 1 180.0000771 15.1670000 2
16703 16707 16705 16706 4 180.0000771 4.6024000 2
16711 16712 16713 16714 1 180.0000771 15.1670000 2
16711 16712 16713 16715 1 180.0000771 15.1670000 2
16714 16712 16713 16715 4 180.0000771 4.6024000 2
16711 16712 16721 16713 4 180.0000771 4.6024000 2
16711 16712 16721 16719 1 180.0000771 15.1670000 2
16711 16712 16721 16722 1 180.0000771 15.1670000 2
16713 16712 16721 16719 1 180.0000771 15.1670000 2
16713 16712 16721 16722 1 180.0000771 15.1670000 2
16714 16713 16712 16721 1 180.0000771 15.1670000 2
16715 16713 16712 16721 1 180.0000771 15.1670000 2
16712 16713 16715 16716 1 180.0000771 15.1670000 2
16712 16713 16715 16717 1 180.0000771 15.1670000 2
16714 16713 16715 16716 1 180.0000771 15.1670000 2
16714 16713 16715 16717 1 180.0000771 15.1670000 2
16713 16715 16717 16718 1 180.0000771 15.1670000 2
16713 16715 16717 16719 1 180.0000771 15.1670000 2
16716 16715 16717 16718 1 180.0000771 15.1670000 2
16716 16715 16717 16719 1 180.0000771 15.1670000 2
16713 16717 16715 16716 4 180.0000771 4.6024000 2
16715 16717 16719 16720 1 180.0000771 15.1670000 2
16715 16717 16719 16721 1 180.0000771 15.1670000 2
16718 16717 16719 16720 1 180.0000771 15.1670000 2
16718 16717 16719 16721 1 180.0000771 15.1670000 2
16715 16719 16717 16718 4 180.0000771 4.6024000 2
16712 16719 16721 16722 4 180.0000771 4.6024000 2
16717 16719 16721 16722 1 180.0000771 15.1670000 2
16720 16719 16721 16722 1 180.0000771 15.1670000 2
16712 16721 16719 16717 1 180.0000771 15.1670000 2
16712 16721 16719 16720 1 180.0000771 15.1670000 2
16717 16721 16719 16720 4 180.0000771 4.6024000 2
16725 16726 16727 16728 1 180.0000771 15.1670000 2
16725 16726 16727 16729 1 180.0000771 15.1670000 2
16728 16726 16727 16729 4 180.0000771 4.6024000 2
16725 16726 16735 16727 4 180.0000771 4.6024000 2
16725 16726 16735 16733 1 180.0000771 15.1670000 2
16725 16726 16735 16736 1 180.0000771 15.1670000 2
16727 16726 16735 16733 1 180.0000771 15.1670000 2
16727 16726 16735 16736 1 180.0000771 15.1670000 2
16728 16727 16726 16735 1 180.0000771 15.1670000 2
16729 16727 16726 16735 1 180.0000771 15.1670000 2
16726 16727 16729 16730 1 180.0000771 15.1670000 2
16726 16727 16729 16731 1 180.0000771 15.1670000 2
16728 16727 16729 16730 1 180.0000771 15.1670000 2
16728 16727 16729 16731 1 180.0000771 15.1670000 2
16727 16729 16731 16732 1 180.0000771 15.1670000 2
16727 16729 16731 16733 1 180.0000771 15.1670000 2
16730 16729 16731 16732 1 180.0000771 15.1670000 2
16730 16729 16731 16733 1 180.0000771 15.1670000 2
16727 16731 16729 16730 4 180.0000771 4.6024000 2
16729 16731 16733 16734 1 180.0000771 15.1670000 2
16729 16731 16733 16735 1 180.0000771 15.1670000 2
16732 16731 16733 16734 1 180.0000771 15.1670000 2
16732 16731 16733 16735 1 180.0000771 15.1670000 2
16729 16733 16731 16732 4 180.0000771 4.6024000 2
16726 16733 16735 16736 4 180.0000771 4.6024000 2
16731 16733 16735 16736 1 180.0000771 15.1670000 2
16734 16733 16735 16736 1 180.0000771 15.1670000 2
16726 16735 16733 16731 1 180.0000771 15.1670000 2
16726 16735 16733 16734 1 180.0000771 15.1670000 2
16731 16735 16733 16734 4 180.0000771 4.6024000 2
16739 16740 16741 16742 1 180.0000771 15.1670000 2
16739 16740 16741 16743 1 180.0000771 15.1670000 2
16742 16740 16741 16743 4 180.0000771 4.6024000 2
16739 16740 16749 16741 4 180.0000771 4.6024000 2
16739 16740 16749 16747 1 180.0000771 15.1670000 2
16739 16740 16749 16750 1 180.0000771 15.1670000 2
16741 16740 16749 16747 1 180.0000771 15.1670000 2
16741 16740 16749 16750 1 180.0000771 15.1670000 2
16742 16741 16740 16749 1 180.0000771 15.1670000 2
16743 16741 16740 16749 1 180.0000771 15.1670000 2
16740 16741 16743 16744 1 180.0000771 15.1670000 2
16740 16741 16743 16745 1 180.0000771 15.1670000 2
16742 16741 16743 16744 1 180.0000771 15.1670000 2
16742 16741 16743 16745 1 180.0000771 15.1670000 2
16741 16743 16745 16746 1 180.0000771 15.1670000 2
16741 16743 16745 16747 1 180.0000771 15.1670000 2
16744 16743 16745 16746 1 180.0000771 15.1670000 2
16744 16743 16745 16747 1 180.0000771 15.1670000 2
16741 16745 16743 16744 4 180.0000771 4.6024000 2
16743 16745 16747 16748 1 180.0000771 15.1670000 2
16743 16745 16747 16749 1 180.0000771 15.1670000 2
16746 16745 16747 16748 1 180.0000771 15.1670000 2
16746 16745 16747 16749 1 180.0000771 15.1670000 2
16743 16747 16745 16746 4 180.0000771 4.6024000 2
16740 16747 16749 16750 4 180.0000771 4.6024000 2
16745 16747 16749 16750 1 180.0000771 15.1670000 2
16748 16747 16749 16750 1 180.0000771 15.1670000 2
16740 16749 16747 16745 1 180.0000771 15.1670000 2
16740 16749 16747 16748 1 180.0000771 15.1670000 2
16745 16749 16747 16748 4 180.0000771 4.6024000 2
16753 16754 16755 16756 1 180.0000771 15.1670000 2
16753 16754 16755 16757 1 180.0000771 15.1670000 2
16756 16754 16755 16757 4 180.0000771 4.6024000 2
16753 16754 16763 16755 4 180.0000771 4.6024000 2
16753 16754 16763 16761 1 180.0000771 15.1670000 2
16753 16754 16763 16764 1 180.0000771 15.1670000 2
16755 16754 16763 16761 1 180.0000771 15.1670000 2
16755 16754 16763 16764 1 180.0000771 15.1670000 2
16756 16755 16754 16763 1 180.0000771 15.1670000 2
16757 16755 16754 16763 1 180.0000771 15.1670000 2
16754 16755 16757 16758 1 180.0000771 15.1670000 2
16754 16755 16757 16759 1 180.0000771 15.1670000 2
16756 16755 16757 16758 1 180.0000771 15.1670000 2
16756 16755 16757 16759 1 180.0000771 15.1670000 2
16755 16757 16759 16760 1 180.0000771 15.1670000 2
16755 16757 16759 16761 1 180.0000771 15.1670000 2
16758 16757 16759 16760 1 180.0000771 15.1670000 2
16758 16757 16759 16761 1 180.0000771 15.1670000 2
16755 16759 16757 16758 4 180.0000771 4.6024000 2
16757 16759 16761 16762 1 180.0000771 15.1670000 2
16757 16759 16761 16763 1 180.0000771 15.1670000 2
16760 16759 16761 16762 1 180.0000771 15.1670000 2
16760 16759 16761 16763 1 180.0000771 15.1670000 2
16757 16761 16759 16760 4 180.0000771 4.6024000 2
16754 16761 16763 16764 4 180.0000771 4.6024000 2
16759 16761 16763 16764 1 180.0000771 15.1670000 2
16762 16761 16763 16764 1 180.0000771 15.1670000 2
16754 16763 16761 16759 1 180.0000771 15.1670000 2
16754 16763 16761 16762 1 180.0000771 15.1670000 2
16759 16763 16761 16762 4 180.0000771 4.6024000 2
16767 16768 16769 16770 1 180.0000771 15.1670000 2
16767 16768 16769 16771 1 180.0000771 15.1670000 2
16770 16768 16769 16771 4 180.0000771 4.6024000 2
16767 16768 16777 16769 4 180.0000771 4.6024000 2
16767 16768 16777 16775 1 180.0000771 15.1670000 2
16767 16768 16777 16778 1 180.0000771 15.1670000 2
16769 16768 16777 16775 1 180.0000771 15.1670000 2
16769 16768 16777 16778 1 180.0000771 15.1670000 2
16770 16769 16768 16777 1 180.0000771 15.1670000 2
16771 16769 16768 16777 1 180.0000771 15.1670000 2
16768 16769 16771 16772 1 180.0000771 15.1670000 2
16768 16769 16771 16773 1 180.0000771 15.1670000 2
16770 16769 16771 16772 1 180.0000771 15.1670000 2
16770 16769 16771 16773 1 180.0000771 15.1670000 2
16769 16771 16773 16774 1 180.0000771 15.1670000 2
16769 16771 16773 16775 1 180.0000771 15.1670000 2
16772 16771 16773 16774 1 180.0000771 15.1670000 2
16772 16771 16773 16775 1 180.0000771 15.1670000 2
16769 16773 16771 16772 4 180.0000771 4.6024000 2
16771 16773 16775 16776 1 180.0000771 15.1670000 2
16771 16773 16775 16777 1 180.0000771 15.1670000 2
16774 16773 16775 16776 1 180.0000771 15.1670000 2
16774 16773 16775 16777 1 180.0000771 15.1670000 2
16771 16775 16773 16774 4 180.0000771 4.6024000 2
16768 16775 16777 16778 4 180.0000771 4.6024000 2
16773 16775 16777 16778 1 180.0000771 15.1670000 2
16776 16775 16777 16778 1 180.0000771 15.1670000 2
16768 16777 16775 16773 1 180.0000771 15.1670000 2
16768 16777 16775 16776 1 180.0000771 15.1670000 2
16773 16777 16775 16776 4 180.0000771 4.6024000 2
16781 16782 16783 16784 1 180.0000771 15.1670000 2
16781 16782 16783 16785 1 180.0000771 15.1670000 2
16784 16782 16783 16785 4 180.0000771 4.6024000 2
16781 16782 16791 16783 4 180.0000771 4.6024000 2
16781 16782 16791 16789 1 180.0000771 15.1670000 2
16781 16782 16791 16792 1 180.0000771 15.1670000 2
16783 16782 16791 16789 1 180.0000771 15.1670000 2
16783 16782 16791 16792 1 180.0000771 15.1670000 2
16784 16783 16782 16791 1 180.0000771 15.1670000 2
16785 16783 16782 16791 1 180.0000771 15.1670000 2
16782 16783 16785 16786 1 180.0000771 15.1670000 2
16782 16783 16785 16787 1 180.0000771 15.1670000 2
16784 16783 16785 16786 1 180.0000771 15.1670000 2
16784 16783 16785 16787 1 180.0000771 15.1670000 2
16783 16785 16787 16788 1 180.0000771 15.1670000 2
16783 16785 16787 16789 1 180.0000771 15.1670000 2
16786 16785 16787 16788 1 180.0000771 15.1670000 2
16786 16785 16787 16789 1 180.0000771 15.1670000 2
16783 16787 16785 16786 4 180.0000771 4.6024000 2
16785 16787 16789 16790 1 180.0000771 15.1670000 2
16785 16787 16789 16791 1 180.0000771 15.1670000 2
16788 16787 16789 16790 1 180.0000771 15.1670000 2
16788 16787 16789 16791 1 180.0000771 15.1670000 2
16785 16789 16787 16788 4 180.0000771 4.6024000 2
16782 16789 16791 16792 4 180.0000771 4.6024000 2
16787 16789 16791 16792 1 180.0000771 15.1670000 2
16790 16789 16791 16792 1 180.0000771 15.1670000 2
16782 16791 16789 16787 1 180.0000771 15.1670000 2
16782 16791 16789 16790 1 180.0000771 15.1670000 2
16787 16791 16789 16790 4 180.0000771 4.6024000 2
16795 16796 16797 16798 1 180.0000771 15.1670000 2
16795 16796 16797 16799 1 180.0000771 15.1670000 2
16798 16796 16797 16799 4 180.0000771 4.6024000 2
16795 16796 16805 16797 4 180.0000771 4.6024000 2
16795 16796 16805 16803 1 180.0000771 15.1670000 2
16795 16796 16805 16806 1 180.0000771 15.1670000 2
16797 16796 16805 16803 1 180.0000771 15.1670000 2
16797 16796 16805 16806 1 180.0000771 15.1670000 2
16798 16797 16796 16805 1 180.0000771 15.1670000 2
16799 16797 16796 16805 1 180.0000771 15.1670000 2
16796 16797 16799 16800 1 180.0000771 15.1670000 2
16796 16797 16799 16801 1 180.0000771 15.1670000 2
16798 16797 16799 16800 1 180.0000771 15.1670000 2
16798 16797 16799 16801 1 180.0000771 15.1670000 2
16797 16799 16801 16802 1 180.0000771 15.1670000 2
16797 16799 16801 16803 1 180.0000771 15.1670000 2
16800 16799 16801 16802 1 180.0000771 15.1670000 2
16800 16799 16801 16803 1 180.0000771 15.1670000 2
16797 16801 16799 16800 4 180.0000771 4.6024000 2
16799 16801 16803 16804 1 180.0000771 15.1670000 2
16799 16801 16803 16805 1 180.0000771 15.1670000 2
16802 16801 16803 16804 1 180.0000771 15.1670000 2
16802 16801 16803 16805 1 180.0000771 15.1670000 2
16799 16803 16801 16802 4 180.0000771 4.6024000 2
16796 16803 16805 16806 4 180.0000771 4.6024000 2
16801 16803 16805 16806 1 180.0000771 15.1670000 2
16804 16803 16805 16806 1 180.0000771 15.1670000 2
16796 16805 16803 16801 1 180.0000771 15.1670000 2
16796 16805 16803 16804 1 180.0000771 15.1670000 2
16801 16805 16803 16804 4 180.0000771 4.6024000 2
16809 16810 16811 16812 1 180.0000771 15.1670000 2
16809 16810 16811 16813 1 180.0000771 15.1670000 2
16812 16810 16811 16813 4 180.0000771 4.6024000 2
16809 16810 16819 16811 4 180.0000771 4.6024000 2
16809 16810 16819 16817 1 180.0000771 15.1670000 2
16809 16810 16819 16820 1 180.0000771 15.1670000 2
16811 16810 16819 16817 1 180.0000771 15.1670000 2
16811 16810 16819 16820 1 180.0000771 15.1670000 2
16812 16811 16810 16819 1 180.0000771 15.1670000 2
16813 16811 16810 16819 1 180.0000771 15.1670000 2
16810 16811 16813 16814 1 180.0000771 15.1670000 2
16810 16811 16813 16815 1 180.0000771 15.1670000 2
16812 16811 16813 16814 1 180.0000771 15.1670000 2
16812 16811 16813 16815 1 180.0000771 15.1670000 2
16811 16813 16815 16816 1 180.0000771 15.1670000 2
16811 16813 16815 16817 1 180.0000771 15.1670000 2
16814 16813 16815 16816 1 180.0000771 15.1670000 2
16814 16813 16815 16817 1 180.0000771 15.1670000 2
16811 16815 16813 16814 4 180.0000771 4.6024000 2
16813 16815 16817 16818 1 180.0000771 15.1670000 2
16813 16815 16817 16819 1 180.0000771 15.1670000 2
16816 16815 16817 16818 1 180.0000771 15.1670000 2
16816 16815 16817 16819 1 180.0000771 15.1670000 2
16813 16817 16815 16816 4 180.0000771 4.6024000 2
16810 16817 16819 16820 4 180.0000771 4.6024000 2
16815 16817 16819 16820 1 180.0000771 15.1670000 2
16818 16817 16819 16820 1 180.0000771 15.1670000 2
16810 16819 16817 16815 1 180.0000771 15.1670000 2
16810 16819 16817 16818 1 180.0000771 15.1670000 2
16815 16819 16817 16818 4 180.0000771 4.6024000 2
16823 16824 16825 16826 1 180.0000771 15.1670000 2
16823 16824 16825 16827 1 180.0000771 15.1670000 2
16826 16824 16825 16827 4 180.0000771 4.6024000 2
16823 16824 16833 16825 4 180.0000771 4.6024000 2
16823 16824 16833 16831 1 180.0000771 15.1670000 2
16823 16824 16833 16834 1 180.0000771 15.1670000 2
16825 16824 16833 16831 1 180.0000771 15.1670000 2
16825 16824 16833 16834 1 180.0000771 15.1670000 2
16826 16825 16824 16833 1 180.0000771 15.1670000 2
16827 16825 16824 16833 1 180.0000771 15.1670000 2
16824 16825 16827 16828 1 180.0000771 15.1670000 2
16824 16825 16827 16829 1 180.0000771 15.1670000 2
16826 16825 16827 16828 1 180.0000771 15.1670000 2
16826 16825 16827 16829 1 180.0000771 15.1670000 2
16825 16827 16829 16830 1 180.0000771 15.1670000 2
16825 16827 16829 16831 1 180.0000771 15.1670000 2
16828 16827 16829 16830 1 180.0000771 15.1670000 2
16828 16827 16829 16831 1 180.0000771 15.1670000 2
16825 16829 16827 16828 4 180.0000771 4.6024000 2
16827 16829 16831 16832 1 180.0000771 15.1670000 2
16827 16829 16831 16833 1 180.0000771 15.1670000 2
16830 16829 16831 16832 1 180.0000771 15.1670000 2
16830 16829 16831 16833 1 180.0000771 15.1670000 2
16827 16831 16829 16830 4 180.0000771 4.6024000 2
16824 16831 16833 16834 4 180.0000771 4.6024000 2
16829 16831 16833 16834 1 180.0000771 15.1670000 2
16832 16831 16833 16834 1 180.0000771 15.1670000 2
16824 16833 16831 16829 1 180.0000771 15.1670000 2
16824 16833 16831 16832 1 180.0000771 15.1670000 2
16829 16833 16831 16832 4 180.0000771 4.6024000 2
16837 16838 16839 16840 1 180.0000771 15.1670000 2
16837 16838 16839 16841 1 180.0000771 15.1670000 2
16840 16838 16839 16841 4 180.0000771 4.6024000 2
16837 16838 16847 16839 4 180.0000771 4.6024000 2
16837 16838 16847 16845 1 180.0000771 15.1670000 2
16837 16838 16847 16848 1 180.0000771 15.1670000 2
16839 16838 16847 16845 1 180.0000771 15.1670000 2
16839 16838 16847 16848 1 180.0000771 15.1670000 2
16840 16839 16838 16847 1 180.0000771 15.1670000 2
16841 16839 16838 16847 1 180.0000771 15.1670000 2
16838 16839 16841 16842 1 180.0000771 15.1670000 2
16838 16839 16841 16843 1 180.0000771 15.1670000 2
16840 16839 16841 16842 1 180.0000771 15.1670000 2
16840 16839 16841 16843 1 180.0000771 15.1670000 2
16839 16841 16843 16844 1 180.0000771 15.1670000 2
16839 16841 16843 16845 1 180.0000771 15.1670000 2
16842 16841 16843 16844 1 180.0000771 15.1670000 2
16842 16841 16843 16845 1 180.0000771 15.1670000 2
16839 16843 16841 16842 4 180.0000771 4.6024000 2
16841 16843 16845 16846 1 180.0000771 15.1670000 2
16841 16843 16845 16847 1 180.0000771 15.1670000 2
16844 16843 16845 16846 1 180.0000771 15.1670000 2
16844 16843 16845 16847 1 180.0000771 15.1670000 2
16841 16845 16843 16844 4 180.0000771 4.6024000 2
16838 16845 16847 16848 4 180.0000771 4.6024000 2
16843 16845 16847 16848 1 180.0000771 15.1670000 2
16846 16845 16847 16848 1 180.0000771 15.1670000 2
16838 16847 16845 16843 1 180.0000771 15.1670000 2
16838 16847 16845 16846 1 180.0000771 15.1670000 2
16843 16847 16845 16846 4 180.0000771 4.6024000 2
16851 16852 16853 16854 1 180.0000771 15.1670000 2
16851 16852 16853 16855 1 180.0000771 15.1670000 2
16854 16852 16853 16855 4 180.0000771 4.6024000 2
16851 16852 16861 16853 4 180.0000771 4.6024000 2
16851 16852 16861 16859 1 180.0000771 15.1670000 2
16851 16852 16861 16862 1 180.0000771 15.1670000 2
16853 16852 16861 16859 1 180.0000771 15.1670000 2
16853 16852 16861 16862 1 180.0000771 15.1670000 2
16854 16853 16852 16861 1 180.0000771 15.1670000 2
16855 16853 16852 16861 1 180.0000771 15.1670000 2
16852 16853 16855 16856 1 180.0000771 15.1670000 2
16852 16853 16855 16857 1 180.0000771 15.1670000 2
16854 16853 16855 16856 1 180.0000771 15.1670000 2
16854 16853 16855 16857 1 180.0000771 15.1670000 2
16853 16855 16857 16858 1 180.0000771 15.1670000 2
16853 16855 16857 16859 1 180.0000771 15.1670000 2
16856 16855 16857 16858 1 180.0000771 15.1670000 2
16856 16855 16857 16859 1 180.0000771 15.1670000 2
16853 16857 16855 16856 4 180.0000771 4.6024000 2
16855 16857 16859 16860 1 180.0000771 15.1670000 2
16855 16857 16859 16861 1 180.0000771 15.1670000 2
16858 16857 16859 16860 1 180.0000771 15.1670000 2
16858 16857 16859 16861 1 180.0000771 15.1670000 2
16855 16859 16857 16858 4 180.0000771 4.6024000 2
16852 16859 16861 16862 4 180.0000771 4.6024000 2
16857 16859 16861 16862 1 180.0000771 15.1670000 2
16860 16859 16861 16862 1 180.0000771 15.1670000 2
16852 16861 16859 16857 1 180.0000771 15.1670000 2
16852 16861 16859 16860 1 180.0000771 15.1670000 2
16857 16861 16859 16860 4 180.0000771 4.6024000 2
16865 16866 16867 16868 1 180.0000771 15.1670000 2
16865 16866 16867 16869 1 180.0000771 15.1670000 2
16868 16866 16867 16869 4 180.0000771 4.6024000 2
16865 16866 16875 16867 4 180.0000771 4.6024000 2
16865 16866 16875 16873 1 180.0000771 15.1670000 2
16865 16866 16875 16876 1 180.0000771 15.1670000 2
16867 16866 16875 16873 1 180.0000771 15.1670000 2
16867 16866 16875 16876 1 180.0000771 15.1670000 2
16868 16867 16866 16875 1 180.0000771 15.1670000 2
16869 16867 16866 16875 1 180.0000771 15.1670000 2
16866 16867 16869 16870 1 180.0000771 15.1670000 2
16866 16867 16869 16871 1 180.0000771 15.1670000 2
16868 16867 16869 16870 1 180.0000771 15.1670000 2
16868 16867 16869 16871 1 180.0000771 15.1670000 2
16867 16869 16871 16872 1 180.0000771 15.1670000 2
16867 16869 16871 16873 1 180.0000771 15.1670000 2
16870 16869 16871 16872 1 180.0000771 15.1670000 2
16870 16869 16871 16873 1 180.0000771 15.1670000 2
16867 16871 16869 16870 4 180.0000771 4.6024000 2
16869 16871 16873 16874 1 180.0000771 15.1670000 2
16869 16871 16873 16875 1 180.0000771 15.1670000 2
16872 16871 16873 16874 1 180.0000771 15.1670000 2
16872 16871 16873 16875 1 180.0000771 15.1670000 2
16869 16873 16871 16872 4 180.0000771 4.6024000 2
16866 16873 16875 16876 4 180.0000771 4.6024000 2
16871 16873 16875 16876 1 180.0000771 15.1670000 2
16874 16873 16875 16876 1 180.0000771 15.1670000 2
16866 16875 16873 16871 1 180.0000771 15.1670000 2
16866 16875 16873 16874 1 180.0000771 15.1670000 2
16871 16875 16873 16874 4 180.0000771 4.6024000 2
16879 16880 16881 16882 1 180.0000771 15.1670000 2
16879 16880 16881 16883 1 180.0000771 15.1670000 2
16882 16880 16881 16883 4 180.0000771 4.6024000 2
16879 16880 16889 16881 4 180.0000771 4.6024000 2
16879 16880 16889 16887 1 180.0000771 15.1670000 2
16879 16880 16889 16890 1 180.0000771 15.1670000 2
16881 16880 16889 16887 1 180.0000771 15.1670000 2
16881 16880 16889 16890 1 180.0000771 15.1670000 2
16882 16881 16880 16889 1 180.0000771 15.1670000 2
16883 16881 16880 16889 1 180.0000771 15.1670000 2
16880 16881 16883 16884 1 180.0000771 15.1670000 2
16880 16881 16883 16885 1 180.0000771 15.1670000 2
16882 16881 16883 16884 1 180.0000771 15.1670000 2
16882 16881 16883 16885 1 180.0000771 15.1670000 2
16881 16883 16885 16886 1 180.0000771 15.1670000 2
16881 16883 16885 16887 1 180.0000771 15.1670000 2
16884 16883 16885 16886 1 180.0000771 15.1670000 2
16884 16883 16885 16887 1 180.0000771 15.1670000 2
16881 16885 16883 16884 4 180.0000771 4.6024000 2
16883 16885 16887 16888 1 180.0000771 15.1670000 2
16883 16885 16887 16889 1 180.0000771 15.1670000 2
16886 16885 16887 16888 1 180.0000771 15.1670000 2
16886 16885 16887 16889 1 180.0000771 15.1670000 2
16883 16887 16885 16886 4 180.0000771 4.6024000 2
16880 16887 16889 16890 4 180.0000771 4.6024000 2
16885 16887 16889 16890 1 180.0000771 15.1670000 2
16888 16887 16889 16890 1 180.0000771 15.1670000 2
16880 16889 16887 16885 1 180.0000771 15.1670000 2
16880 16889 16887 16888 1 180.0000771 15.1670000 2
16885 16889 16887 16888 4 180.0000771 4.6024000 2
16893 16894 16895 16896 1 180.0000771 15.1670000 2
16893 16894 16895 16897 1 180.0000771 15.1670000 2
16896 16894 16895 16897 4 180.0000771 4.6024000 2
16893 16894 16903 16895 4 180.0000771 4.6024000 2
16893 16894 16903 16901 1 180.0000771 15.1670000 2
16893 16894 16903 16904 1 180.0000771 15.1670000 2
16895 16894 16903 16901 1 180.0000771 15.1670000 2
16895 16894 16903 16904 1 180.0000771 15.1670000 2
16896 16895 16894 16903 1 180.0000771 15.1670000 2
16897 16895 16894 16903 1 180.0000771 15.1670000 2
16894 16895 16897 16898 1 180.0000771 15.1670000 2
16894 16895 16897 16899 1 180.0000771 15.1670000 2
16896 16895 16897 16898 1 180.0000771 15.1670000 2
16896 16895 16897 16899 1 180.0000771 15.1670000 2
16895 16897 16899 16900 1 180.0000771 15.1670000 2
16895 16897 16899 16901 1 180.0000771 15.1670000 2
16898 16897 16899 16900 1 180.0000771 15.1670000 2
16898 16897 16899 16901 1 180.0000771 15.1670000 2
16895 16899 16897 16898 4 180.0000771 4.6024000 2
16897 16899 16901 16902 1 180.0000771 15.1670000 2
16897 16899 16901 16903 1 180.0000771 15.1670000 2
16900 16899 16901 16902 1 180.0000771 15.1670000 2
16900 16899 16901 16903 1 180.0000771 15.1670000 2
16897 16901 16899 16900 4 180.0000771 4.6024000 2
16894 16901 16903 16904 4 180.0000771 4.6024000 2
16899 16901 16903 16904 1 180.0000771 15.1670000 2
16902 16901 16903 16904 1 180.0000771 15.1670000 2
16894 16903 16901 16899 1 180.0000771 15.1670000 2
16894 16903 16901 16902 1 180.0000771 15.1670000 2
16899 16903 16901 16902 4 180.0000771 4.6024000 2
16907 16908 16909 16910 1 180.0000771 15.1670000 2
16907 16908 16909 16911 1 180.0000771 15.1670000 2
16910 16908 16909 16911 4 180.0000771 4.6024000 2
16907 16908 16917 16909 4 180.0000771 4.6024000 2
16907 16908 16917 16915 1 180.0000771 15.1670000 2
16907 16908 16917 16918 1 180.0000771 15.1670000 2
16909 16908 16917 16915 1 180.0000771 15.1670000 2
16909 16908 16917 16918 1 180.0000771 15.1670000 2
16910 16909 16908 16917 1 180.0000771 15.1670000 2
16911 16909 16908 16917 1 180.0000771 15.1670000 2
16908 16909 16911 16912 1 180.0000771 15.1670000 2
16908 16909 16911 16913 1 180.0000771 15.1670000 2
16910 16909 16911 16912 1 180.0000771 15.1670000 2
16910 16909 16911 16913 1 180.0000771 15.1670000 2
16909 16911 16913 16914 1 180.0000771 15.1670000 2
16909 16911 16913 16915 1 180.0000771 15.1670000 2
16912 16911 16913 16914 1 180.0000771 15.1670000 2
16912 16911 16913 16915 1 180.0000771 15.1670000 2
16909 16913 16911 16912 4 180.0000771 4.6024000 2
16911 16913 16915 16916 1 180.0000771 15.1670000 2
16911 16913 16915 16917 1 180.0000771 15.1670000 2
16914 16913 16915 16916 1 180.0000771 15.1670000 2
16914 16913 16915 16917 1 180.0000771 15.1670000 2
16911 16915 16913 16914 4 180.0000771 4.6024000 2
16908 16915 16917 16918 4 180.0000771 4.6024000 2
16913 16915 16917 16918 1 180.0000771 15.1670000 2
16916 16915 16917 16918 1 180.0000771 15.1670000 2
16908 16917 16915 16913 1 180.0000771 15.1670000 2
16908 16917 16915 16916 1 180.0000771 15.1670000 2
16913 16917 16915 16916 4 180.0000771 4.6024000 2
16921 16922 16923 16924 1 180.0000771 15.1670000 2
16921 16922 16923 16925 1 180.0000771 15.1670000 2
16924 16922 16923 16925 4 180.0000771 4.6024000 2
16921 16922 16931 16923 4 180.0000771 4.6024000 2
16921 16922 16931 16929 1 180.0000771 15.1670000 2
16921 16922 16931 16932 1 180.0000771 15.1670000 2
16923 16922 16931 16929 1 180.0000771 15.1670000 2
16923 16922 16931 16932 1 180.0000771 15.1670000 2
16924 16923 16922 16931 1 180.0000771 15.1670000 2
16925 16923 16922 16931 1 180.0000771 15.1670000 2
16922 16923 16925 16926 1 180.0000771 15.1670000 2
16922 16923 16925 16927 1 180.0000771 15.1670000 2
16924 16923 16925 16926 1 180.0000771 15.1670000 2
16924 16923 16925 16927 1 180.0000771 15.1670000 2
16923 16925 16927 16928 1 180.0000771 15.1670000 2
16923 16925 16927 16929 1 180.0000771 15.1670000 2
16926 16925 16927 16928 1 180.0000771 15.1670000 2
16926 16925 16927 16929 1 180.0000771 15.1670000 2
16923 16927 16925 16926 4 180.0000771 4.6024000 2
16925 16927 16929 16930 1 180.0000771 15.1670000 2
16925 16927 16929 16931 1 180.0000771 15.1670000 2
16928 16927 16929 16930 1 180.0000771 15.1670000 2
16928 16927 16929 16931 1 180.0000771 15.1670000 2
16925 16929 16927 16928 4 180.0000771 4.6024000 2
16922 16929 16931 16932 4 180.0000771 4.6024000 2
16927 16929 16931 16932 1 180.0000771 15.1670000 2
16930 16929 16931 16932 1 180.0000771 15.1670000 2
16922 16931 16929 16927 1 180.0000771 15.1670000 2
16922 16931 16929 16930 1 180.0000771 15.1670000 2
16927 16931 16929 16930 4 180.0000771 4.6024000 2
16935 16936 16937 16938 1 180.0000771 15.1670000 2
16935 16936 16937 16939 1 180.0000771 15.1670000 2
16938 16936 16937 16939 4 180.0000771 4.6024000 2
16935 16936 16945 16937 4 180.0000771 4.6024000 2
16935 16936 16945 16943 1 180.0000771 15.1670000 2
16935 16936 16945 16946 1 180.0000771 15.1670000 2
16937 16936 16945 16943 1 180.0000771 15.1670000 2
16937 16936 16945 16946 1 180.0000771 15.1670000 2
16938 16937 16936 16945 1 180.0000771 15.1670000 2
16939 16937 16936 16945 1 180.0000771 15.1670000 2
16936 16937 16939 16940 1 180.0000771 15.1670000 2
16936 16937 16939 16941 1 180.0000771 15.1670000 2
16938 16937 16939 16940 1 180.0000771 15.1670000 2
16938 16937 16939 16941 1 180.0000771 15.1670000 2
16937 16939 16941 16942 1 180.0000771 15.1670000 2
16937 16939 16941 16943 1 180.0000771 15.1670000 2
16940 16939 16941 16942 1 180.0000771 15.1670000 2
16940 16939 16941 16943 1 180.0000771 15.1670000 2
16937 16941 16939 16940 4 180.0000771 4.6024000 2
16939 16941 16943 16944 1 180.0000771 15.1670000 2
16939 16941 16943 16945 1 180.0000771 15.1670000 2
16942 16941 16943 16944 1 180.0000771 15.1670000 2
16942 16941 16943 16945 1 180.0000771 15.1670000 2
16939 16943 16941 16942 4 180.0000771 4.6024000 2
16936 16943 16945 16946 4 180.0000771 4.6024000 2
16941 16943 16945 16946 1 180.0000771 15.1670000 2
16944 16943 16945 16946 1 180.0000771 15.1670000 2
16936 16945 16943 16941 1 180.0000771 15.1670000 2
16936 16945 16943 16944 1 180.0000771 15.1670000 2
16941 16945 16943 16944 4 180.0000771 4.6024000 2
16949 16950 16951 16952 1 180.0000771 15.1670000 2
16949 16950 16951 16953 1 180.0000771 15.1670000 2
16952 16950 16951 16953 4 180.0000771 4.6024000 2
16949 16950 16959 16951 4 180.0000771 4.6024000 2
16949 16950 16959 16957 1 180.0000771 15.1670000 2
16949 16950 16959 16960 1 180.0000771 15.1670000 2
16951 16950 16959 16957 1 180.0000771 15.1670000 2
16951 16950 16959 16960 1 180.0000771 15.1670000 2
16952 16951 16950 16959 1 180.0000771 15.1670000 2
16953 16951 16950 16959 1 180.0000771 15.1670000 2
16950 16951 16953 16954 1 180.0000771 15.1670000 2
16950 16951 16953 16955 1 180.0000771 15.1670000 2
16952 16951 16953 16954 1 180.0000771 15.1670000 2
16952 16951 16953 16955 1 180.0000771 15.1670000 2
16951 16953 16955 16956 1 180.0000771 15.1670000 2
16951 16953 16955 16957 1 180.0000771 15.1670000 2
16954 16953 16955 16956 1 180.0000771 15.1670000 2
16954 16953 16955 16957 1 180.0000771 15.1670000 2
16951 16955 16953 16954 4 180.0000771 4.6024000 2
16953 16955 16957 16958 1 180.0000771 15.1670000 2
16953 16955 16957 16959 1 180.0000771 15.1670000 2
16956 16955 16957 16958 1 180.0000771 15.1670000 2
16956 16955 16957 16959 1 180.0000771 15.1670000 2
16953 16957 16955 16956 4 180.0000771 4.6024000 2
16950 16957 16959 16960 4 180.0000771 4.6024000 2
16955 16957 16959 16960 1 180.0000771 15.1670000 2
16958 16957 16959 16960 1 180.0000771 15.1670000 2
16950 16959 16957 16955 1 180.0000771 15.1670000 2
16950 16959 16957 16958 1 180.0000771 15.1670000 2
16955 16959 16957 16958 4 180.0000771 4.6024000 2
16963 16964 16965 16966 1 180.0000771 15.1670000 2
16963 16964 16965 16967 1 180.0000771 15.1670000 2
16966 16964 16965 16967 4 180.0000771 4.6024000 2
16963 16964 16973 16965 4 180.0000771 4.6024000 2
16963 16964 16973 16971 1 180.0000771 15.1670000 2
16963 16964 16973 16974 1 180.0000771 15.1670000 2
16965 16964 16973 16971 1 180.0000771 15.1670000 2
16965 16964 16973 16974 1 180.0000771 15.1670000 2
16966 16965 16964 16973 1 180.0000771 15.1670000 2
16967 16965 16964 16973 1 180.0000771 15.1670000 2
16964 16965 16967 16968 1 180.0000771 15.1670000 2
16964 16965 16967 16969 1 180.0000771 15.1670000 2
16966 16965 16967 16968 1 180.0000771 15.1670000 2
16966 16965 16967 16969 1 180.0000771 15.1670000 2
16965 16967 16969 16970 1 180.0000771 15.1670000 2
16965 16967 16969 16971 1 180.0000771 15.1670000 2
16968 16967 16969 16970 1 180.0000771 15.1670000 2
16968 16967 16969 16971 1 180.0000771 15.1670000 2
16965 16969 16967 16968 4 180.0000771 4.6024000 2
16967 16969 16971 16972 1 180.0000771 15.1670000 2
16967 16969 16971 16973 1 180.0000771 15.1670000 2
16970 16969 16971 16972 1 180.0000771 15.1670000 2
16970 16969 16971 16973 1 180.0000771 15.1670000 2
16967 16971 16969 16970 4 180.0000771 4.6024000 2
16964 16971 16973 16974 4 180.0000771 4.6024000 2
16969 16971 16973 16974 1 180.0000771 15.1670000 2
16972 16971 16973 16974 1 180.0000771 15.1670000 2
16964 16973 16971 16969 1 180.0000771 15.1670000 2
16964 16973 16971 16972 1 180.0000771 15.1670000 2
16969 16973 16971 16972 4 180.0000771 4.6024000 2
16977 16978 16979 16980 1 180.0000771 15.1670000 2
16977 16978 16979 16981 1 180.0000771 15.1670000 2
16980 16978 16979 16981 4 180.0000771 4.6024000 2
16977 16978 16987 16979 4 180.0000771 4.6024000 2
16977 16978 16987 16985 1 180.0000771 15.1670000 2
16977 16978 16987 16988 1 180.0000771 15.1670000 2
16979 16978 16987 16985 1 180.0000771 15.1670000 2
16979 16978 16987 16988 1 180.0000771 15.1670000 2
16980 16979 16978 16987 1 180.0000771 15.1670000 2
16981 16979 16978 16987 1 180.0000771 15.1670000 2
16978 16979 16981 16982 1 180.0000771 15.1670000 2
16978 16979 16981 16983 1 180.0000771 15.1670000 2
16980 16979 16981 16982 1 180.0000771 15.1670000 2
16980 16979 16981 16983 1 180.0000771 15.1670000 2
16979 16981 16983 16984 1 180.0000771 15.1670000 2
16979 16981 16983 16985 1 180.0000771 15.1670000 2
16982 16981 16983 16984 1 180.0000771 15.1670000 2
16982 16981 16983 16985 1 180.0000771 15.1670000 2
16979 16983 16981 16982 4 180.0000771 4.6024000 2
16981 16983 16985 16986 1 180.0000771 15.1670000 2
16981 16983 16985 16987 1 180.0000771 15.1670000 2
16984 16983 16985 16986 1 180.0000771 15.1670000 2
16984 16983 16985 16987 1 180.0000771 15.1670000 2
16981 16985 16983 16984 4 180.0000771 4.6024000 2
16978 16985 16987 16988 4 180.0000771 4.6024000 2
16983 16985 16987 16988 1 180.0000771 15.1670000 2
16986 16985 16987 16988 1 180.0000771 15.1670000 2
16978 16987 16985 16983 1 180.0000771 15.1670000 2
16978 16987 16985 16986 1 180.0000771 15.1670000 2
16983 16987 16985 16986 4 180.0000771 4.6024000 2
16991 16992 16993 16994 1 180.0000771 15.1670000 2
16991 16992 16993 16995 1 180.0000771 15.1670000 2
16994 16992 16993 16995 4 180.0000771 4.6024000 2
16991 16992 17001 16993 4 180.0000771 4.6024000 2
16991 16992 17001 16999 1 180.0000771 15.1670000 2
16991 16992 17001 17002 1 180.0000771 15.1670000 2
16993 16992 17001 16999 1 180.0000771 15.1670000 2
16993 16992 17001 17002 1 180.0000771 15.1670000 2
16994 16993 16992 17001 1 180.0000771 15.1670000 2
16995 16993 16992 17001 1 180.0000771 15.1670000 2
16992 16993 16995 16996 1 180.0000771 15.1670000 2
16992 16993 16995 16997 1 180.0000771 15.1670000 2
16994 16993 16995 16996 1 180.0000771 15.1670000 2
16994 16993 16995 16997 1 180.0000771 15.1670000 2
16993 16995 16997 16998 1 180.0000771 15.1670000 2
16993 16995 16997 16999 1 180.0000771 15.1670000 2
16996 16995 16997 16998 1 180.0000771 15.1670000 2
16996 16995 16997 16999 1 180.0000771 15.1670000 2
16993 16997 16995 16996 4 180.0000771 4.6024000 2
16995 16997 16999 17000 1 180.0000771 15.1670000 2
16995 16997 16999 17001 1 180.0000771 15.1670000 2
16998 16997 16999 17000 1 180.0000771 15.1670000 2
16998 16997 16999 17001 1 180.0000771 15.1670000 2
16995 16999 16997 16998 4 180.0000771 4.6024000 2
16992 16999 17001 17002 4 180.0000771 4.6024000 2
16997 16999 17001 17002 1 180.0000771 15.1670000 2
17000 16999 17001 17002 1 180.0000771 15.1670000 2
16992 17001 16999 16997 1 180.0000771 15.1670000 2
16992 17001 16999 17000 1 180.0000771 15.1670000 2
16997 17001 16999 17000 4 180.0000771 4.6024000 2
17005 17006 17007 17008 1 180.0000771 15.1670000 2
17005 17006 17007 17009 1 180.0000771 15.1670000 2
17008 17006 17007 17009 4 180.0000771 4.6024000 2
17005 17006 17015 17007 4 180.0000771 4.6024000 2
17005 17006 17015 17013 1 180.0000771 15.1670000 2
17005 17006 17015 17016 1 180.0000771 15.1670000 2
17007 17006 17015 17013 1 180.0000771 15.1670000 2
17007 17006 17015 17016 1 180.0000771 15.1670000 2
17008 17007 17006 17015 1 180.0000771 15.1670000 2
17009 17007 17006 17015 1 180.0000771 15.1670000 2
17006 17007 17009 17010 1 180.0000771 15.1670000 2
17006 17007 17009 17011 1 180.0000771 15.1670000 2
17008 17007 17009 17010 1 180.0000771 15.1670000 2
17008 17007 17009 17011 1 180.0000771 15.1670000 2
17007 17009 17011 17012 1 180.0000771 15.1670000 2
17007 17009 17011 17013 1 180.0000771 15.1670000 2
17010 17009 17011 17012 1 180.0000771 15.1670000 2
17010 17009 17011 17013 1 180.0000771 15.1670000 2
17007 17011 17009 17010 4 180.0000771 4.6024000 2
17009 17011 17013 17014 1 180.0000771 15.1670000 2
17009 17011 17013 17015 1 180.0000771 15.1670000 2
17012 17011 17013 17014 1 180.0000771 15.1670000 2
17012 17011 17013 17015 1 180.0000771 15.1670000 2
17009 17013 17011 17012 4 180.0000771 4.6024000 2
17006 17013 17015 17016 4 180.0000771 4.6024000 2
17011 17013 17015 17016 1 180.0000771 15.1670000 2
17014 17013 17015 17016 1 180.0000771 15.1670000 2
17006 17015 17013 17011 1 180.0000771 15.1670000 2
17006 17015 17013 17014 1 180.0000771 15.1670000 2
17011 17015 17013 17014 4 180.0000771 4.6024000 2
17019 17020 17021 17022 1 180.0000771 15.1670000 2
17019 17020 17021 17023 1 180.0000771 15.1670000 2
17022 17020 17021 17023 4 180.0000771 4.6024000 2
17019 17020 17029 17021 4 180.0000771 4.6024000 2
17019 17020 17029 17027 1 180.0000771 15.1670000 2
17019 17020 17029 17030 1 180.0000771 15.1670000 2
17021 17020 17029 17027 1 180.0000771 15.1670000 2
17021 17020 17029 17030 1 180.0000771 15.1670000 2
17022 17021 17020 17029 1 180.0000771 15.1670000 2
17023 17021 17020 17029 1 180.0000771 15.1670000 2
17020 17021 17023 17024 1 180.0000771 15.1670000 2
17020 17021 17023 17025 1 180.0000771 15.1670000 2
17022 17021 17023 17024 1 180.0000771 15.1670000 2
17022 17021 17023 17025 1 180.0000771 15.1670000 2
17021 17023 17025 17026 1 180.0000771 15.1670000 2
17021 17023 17025 17027 1 180.0000771 15.1670000 2
17024 17023 17025 17026 1 180.0000771 15.1670000 2
17024 17023 17025 17027 1 180.0000771 15.1670000 2
17021 17025 17023 17024 4 180.0000771 4.6024000 2
17023 17025 17027 17028 1 180.0000771 15.1670000 2
17023 17025 17027 17029 1 180.0000771 15.1670000 2
17026 17025 17027 17028 1 180.0000771 15.1670000 2
17026 17025 17027 17029 1 180.0000771 15.1670000 2
17023 17027 17025 17026 4 180.0000771 4.6024000 2
17020 17027 17029 17030 4 180.0000771 4.6024000 2
17025 17027 17029 17030 1 180.0000771 15.1670000 2
17028 17027 17029 17030 1 180.0000771 15.1670000 2
17020 17029 17027 17025 1 180.0000771 15.1670000 2
17020 17029 17027 17028 1 180.0000771 15.1670000 2
17025 17029 17027 17028 4 180.0000771 4.6024000 2
17033 17034 17035 17036 1 180.0000771 15.1670000 2
17033 17034 17035 17037 1 180.0000771 15.1670000 2
17036 17034 17035 17037 4 180.0000771 4.6024000 2
17033 17034 17043 17035 4 180.0000771 4.6024000 2
17033 17034 17043 17041 1 180.0000771 15.1670000 2
17033 17034 17043 17044 1 180.0000771 15.1670000 2
17035 17034 17043 17041 1 180.0000771 15.1670000 2
17035 17034 17043 17044 1 180.0000771 15.1670000 2
17036 17035 17034 17043 1 180.0000771 15.1670000 2
17037 17035 17034 17043 1 180.0000771 15.1670000 2
17034 17035 17037 17038 1 180.0000771 15.1670000 2
17034 17035 17037 17039 1 180.0000771 15.1670000 2
17036 17035 17037 17038 1 180.0000771 15.1670000 2
17036 17035 17037 17039 1 180.0000771 15.1670000 2
17035 17037 17039 17040 1 180.0000771 15.1670000 2
17035 17037 17039 17041 1 180.0000771 15.1670000 2
17038 17037 17039 17040 1 180.0000771 15.1670000 2
17038 17037 17039 17041 1 180.0000771 15.1670000 2
17035 17039 17037 17038 4 180.0000771 4.6024000 2
17037 17039 17041 17042 1 180.0000771 15.1670000 2
17037 17039 17041 17043 1 180.0000771 15.1670000 2
17040 17039 17041 17042 1 180.0000771 15.1670000 2
17040 17039 17041 17043 1 180.0000771 15.1670000 2
17037 17041 17039 17040 4 180.0000771 4.6024000 2
17034 17041 17043 17044 4 180.0000771 4.6024000 2
17039 17041 17043 17044 1 180.0000771 15.1670000 2
17042 17041 17043 17044 1 180.0000771 15.1670000 2
17034 17043 17041 17039 1 180.0000771 15.1670000 2
17034 17043 17041 17042 1 180.0000771 15.1670000 2
17039 17043 17041 17042 4 180.0000771 4.6024000 2
17047 17048 17049 17050 1 180.0000771 15.1670000 2
17047 17048 17049 17051 1 180.0000771 15.1670000 2
17050 17048 17049 17051 4 180.0000771 4.6024000 2
17047 17048 17057 17049 4 180.0000771 4.6024000 2
17047 17048 17057 17055 1 180.0000771 15.1670000 2
17047 17048 17057 17058 1 180.0000771 15.1670000 2
17049 17048 17057 17055 1 180.0000771 15.1670000 2
17049 17048 17057 17058 1 180.0000771 15.1670000 2
17050 17049 17048 17057 1 180.0000771 15.1670000 2
17051 17049 17048 17057 1 180.0000771 15.1670000 2
17048 17049 17051 17052 1 180.0000771 15.1670000 2
17048 17049 17051 17053 1 180.0000771 15.1670000 2
17050 17049 17051 17052 1 180.0000771 15.1670000 2
17050 17049 17051 17053 1 180.0000771 15.1670000 2
17049 17051 17053 17054 1 180.0000771 15.1670000 2
17049 17051 17053 17055 1 180.0000771 15.1670000 2
17052 17051 17053 17054 1 180.0000771 15.1670000 2
17052 17051 17053 17055 1 180.0000771 15.1670000 2
17049 17053 17051 17052 4 180.0000771 4.6024000 2
17051 17053 17055 17056 1 180.0000771 15.1670000 2
17051 17053 17055 17057 1 180.0000771 15.1670000 2
17054 17053 17055 17056 1 180.0000771 15.1670000 2
17054 17053 17055 17057 1 180.0000771 15.1670000 2
17051 17055 17053 17054 4 180.0000771 4.6024000 2
17048 17055 17057 17058 4 180.0000771 4.6024000 2
17053 17055 17057 17058 1 180.0000771 15.1670000 2
17056 17055 17057 17058 1 180.0000771 15.1670000 2
17048 17057 17055 17053 1 180.0000771 15.1670000 2
17048 17057 17055 17056 1 180.0000771 15.1670000 2
17053 17057 17055 17056 4 180.0000771 4.6024000 2
17061 17062 17063 17064 1 180.0000771 15.1670000 2
17061 17062 17063 17065 1 180.0000771 15.1670000 2
17064 17062 17063 17065 4 180.0000771 4.6024000 2
17061 17062 17071 17063 4 180.0000771 4.6024000 2
17061 17062 17071 17069 1 180.0000771 15.1670000 2
17061 17062 17071 17072 1 180.0000771 15.1670000 2
17063 17062 17071 17069 1 180.0000771 15.1670000 2
17063 17062 17071 17072 1 180.0000771 15.1670000 2
17064 17063 17062 17071 1 180.0000771 15.1670000 2
17065 17063 17062 17071 1 180.0000771 15.1670000 2
17062 17063 17065 17066 1 180.0000771 15.1670000 2
17062 17063 17065 17067 1 180.0000771 15.1670000 2
17064 17063 17065 17066 1 180.0000771 15.1670000 2
17064 17063 17065 17067 1 180.0000771 15.1670000 2
17063 17065 17067 17068 1 180.0000771 15.1670000 2
17063 17065 17067 17069 1 180.0000771 15.1670000 2
17066 17065 17067 17068 1 180.0000771 15.1670000 2
17066 17065 17067 17069 1 180.0000771 15.1670000 2
17063 17067 17065 17066 4 180.0000771 4.6024000 2
17065 17067 17069 17070 1 180.0000771 15.1670000 2
17065 17067 17069 17071 1 180.0000771 15.1670000 2
17068 17067 17069 17070 1 180.0000771 15.1670000 2
17068 17067 17069 17071 1 180.0000771 15.1670000 2
17065 17069 17067 17068 4 180.0000771 4.6024000 2
17062 17069 17071 17072 4 180.0000771 4.6024000 2
17067 17069 17071 17072 1 180.0000771 15.1670000 2
17070 17069 17071 17072 1 180.0000771 15.1670000 2
17062 17071 17069 17067 1 180.0000771 15.1670000 2
17062 17071 17069 17070 1 180.0000771 15.1670000 2
17067 17071 17069 17070 4 180.0000771 4.6024000 2
17075 17076 17077 17078 1 180.0000771 15.1670000 2
17075 17076 17077 17079 1 180.0000771 15.1670000 2
17078 17076 17077 17079 4 180.0000771 4.6024000 2
17075 17076 17085 17077 4 180.0000771 4.6024000 2
17075 17076 17085 17083 1 180.0000771 15.1670000 2
17075 17076 17085 17086 1 180.0000771 15.1670000 2
17077 17076 17085 17083 1 180.0000771 15.1670000 2
17077 17076 17085 17086 1 180.0000771 15.1670000 2
17078 17077 17076 17085 1 180.0000771 15.1670000 2
17079 17077 17076 17085 1 180.0000771 15.1670000 2
17076 17077 17079 17080 1 180.0000771 15.1670000 2
17076 17077 17079 17081 1 180.0000771 15.1670000 2
17078 17077 17079 17080 1 180.0000771 15.1670000 2
17078 17077 17079 17081 1 180.0000771 15.1670000 2
17077 17079 17081 17082 1 180.0000771 15.1670000 2
17077 17079 17081 17083 1 180.0000771 15.1670000 2
17080 17079 17081 17082 1 180.0000771 15.1670000 2
17080 17079 17081 17083 1 180.0000771 15.1670000 2
17077 17081 17079 17080 4 180.0000771 4.6024000 2
17079 17081 17083 17084 1 180.0000771 15.1670000 2
17079 17081 17083 17085 1 180.0000771 15.1670000 2
17082 17081 17083 17084 1 180.0000771 15.1670000 2
17082 17081 17083 17085 1 180.0000771 15.1670000 2
17079 17083 17081 17082 4 180.0000771 4.6024000 2
17076 17083 17085 17086 4 180.0000771 4.6024000 2
17081 17083 17085 17086 1 180.0000771 15.1670000 2
17084 17083 17085 17086 1 180.0000771 15.1670000 2
17076 17085 17083 17081 1 180.0000771 15.1670000 2
17076 17085 17083 17084 1 180.0000771 15.1670000 2
17081 17085 17083 17084 4 180.0000771 4.6024000 2
17089 17090 17091 17092 1 180.0000771 15.1670000 2
17089 17090 17091 17093 1 180.0000771 15.1670000 2
17092 17090 17091 17093 4 180.0000771 4.6024000 2
17089 17090 17099 17091 4 180.0000771 4.6024000 2
17089 17090 17099 17097 1 180.0000771 15.1670000 2
17089 17090 17099 17100 1 180.0000771 15.1670000 2
17091 17090 17099 17097 1 180.0000771 15.1670000 2
17091 17090 17099 17100 1 180.0000771 15.1670000 2
17092 17091 17090 17099 1 180.0000771 15.1670000 2
17093 17091 17090 17099 1 180.0000771 15.1670000 2
17090 17091 17093 17094 1 180.0000771 15.1670000 2
17090 17091 17093 17095 1 180.0000771 15.1670000 2
17092 17091 17093 17094 1 180.0000771 15.1670000 2
17092 17091 17093 17095 1 180.0000771 15.1670000 2
17091 17093 17095 17096 1 180.0000771 15.1670000 2
17091 17093 17095 17097 1 180.0000771 15.1670000 2
17094 17093 17095 17096 1 180.0000771 15.1670000 2
17094 17093 17095 17097 1 180.0000771 15.1670000 2
17091 17095 17093 17094 4 180.0000771 4.6024000 2
17093 17095 17097 17098 1 180.0000771 15.1670000 2
17093 17095 17097 17099 1 180.0000771 15.1670000 2
17096 17095 17097 17098 1 180.0000771 15.1670000 2
17096 17095 17097 17099 1 180.0000771 15.1670000 2
17093 17097 17095 17096 4 180.0000771 4.6024000 2
17090 17097 17099 17100 4 180.0000771 4.6024000 2
17095 17097 17099 17100 1 180.0000771 15.1670000 2
17098 17097 17099 17100 1 180.0000771 15.1670000 2
17090 17099 17097 17095 1 180.0000771 15.1670000 2
17090 17099 17097 17098 1 180.0000771 15.1670000 2
17095 17099 17097 17098 4 180.0000771 4.6024000 2
17103 17104 17105 17106 1 180.0000771 15.1670000 2
17103 17104 17105 17107 1 180.0000771 15.1670000 2
17106 17104 17105 17107 4 180.0000771 4.6024000 2
17103 17104 17113 17105 4 180.0000771 4.6024000 2
17103 17104 17113 17111 1 180.0000771 15.1670000 2
17103 17104 17113 17114 1 180.0000771 15.1670000 2
17105 17104 17113 17111 1 180.0000771 15.1670000 2
17105 17104 17113 17114 1 180.0000771 15.1670000 2
17106 17105 17104 17113 1 180.0000771 15.1670000 2
17107 17105 17104 17113 1 180.0000771 15.1670000 2
17104 17105 17107 17108 1 180.0000771 15.1670000 2
17104 17105 17107 17109 1 180.0000771 15.1670000 2
17106 17105 17107 17108 1 180.0000771 15.1670000 2
17106 17105 17107 17109 1 180.0000771 15.1670000 2
17105 17107 17109 17110 1 180.0000771 15.1670000 2
17105 17107 17109 17111 1 180.0000771 15.1670000 2
17108 17107 17109 17110 1 180.0000771 15.1670000 2
17108 17107 17109 17111 1 180.0000771 15.1670000 2
17105 17109 17107 17108 4 180.0000771 4.6024000 2
17107 17109 17111 17112 1 180.0000771 15.1670000 2
17107 17109 17111 17113 1 180.0000771 15.1670000 2
17110 17109 17111 17112 1 180.0000771 15.1670000 2
17110 17109 17111 17113 1 180.0000771 15.1670000 2
17107 17111 17109 17110 4 180.0000771 4.6024000 2
17104 17111 17113 17114 4 180.0000771 4.6024000 2
17109 17111 17113 17114 1 180.0000771 15.1670000 2
17112 17111 17113 17114 1 180.0000771 15.1670000 2
17104 17113 17111 17109 1 180.0000771 15.1670000 2
17104 17113 17111 17112 1 180.0000771 15.1670000 2
17109 17113 17111 17112 4 180.0000771 4.6024000 2
17117 17118 17119 17120 1 180.0000771 15.1670000 2
17117 17118 17119 17121 1 180.0000771 15.1670000 2
17120 17118 17119 17121 4 180.0000771 4.6024000 2
17117 17118 17127 17119 4 180.0000771 4.6024000 2
17117 17118 17127 17125 1 180.0000771 15.1670000 2
17117 17118 17127 17128 1 180.0000771 15.1670000 2
17119 17118 17127 17125 1 180.0000771 15.1670000 2
17119 17118 17127 17128 1 180.0000771 15.1670000 2
17120 17119 17118 17127 1 180.0000771 15.1670000 2
17121 17119 17118 17127 1 180.0000771 15.1670000 2
17118 17119 17121 17122 1 180.0000771 15.1670000 2
17118 17119 17121 17123 1 180.0000771 15.1670000 2
17120 17119 17121 17122 1 180.0000771 15.1670000 2
17120 17119 17121 17123 1 180.0000771 15.1670000 2
17119 17121 17123 17124 1 180.0000771 15.1670000 2
17119 17121 17123 17125 1 180.0000771 15.1670000 2
17122 17121 17123 17124 1 180.0000771 15.1670000 2
17122 17121 17123 17125 1 180.0000771 15.1670000 2
17119 17123 17121 17122 4 180.0000771 4.6024000 2
17121 17123 17125 17126 1 180.0000771 15.1670000 2
17121 17123 17125 17127 1 180.0000771 15.1670000 2
17124 17123 17125 17126 1 180.0000771 15.1670000 2
17124 17123 17125 17127 1 180.0000771 15.1670000 2
17121 17125 17123 17124 4 180.0000771 4.6024000 2
17118 17125 17127 17128 4 180.0000771 4.6024000 2
17123 17125 17127 17128 1 180.0000771 15.1670000 2
17126 17125 17127 17128 1 180.0000771 15.1670000 2
17118 17127 17125 17123 1 180.0000771 15.1670000 2
17118 17127 17125 17126 1 180.0000771 15.1670000 2
17123 17127 17125 17126 4 180.0000771 4.6024000 2
17131 17132 17133 17134 1 180.0000771 15.1670000 2
17131 17132 17133 17135 1 180.0000771 15.1670000 2
17134 17132 17133 17135 4 180.0000771 4.6024000 2
17131 17132 17141 17133 4 180.0000771 4.6024000 2
17131 17132 17141 17139 1 180.0000771 15.1670000 2
17131 17132 17141 17142 1 180.0000771 15.1670000 2
17133 17132 17141 17139 1 180.0000771 15.1670000 2
17133 17132 17141 17142 1 180.0000771 15.1670000 2
17134 17133 17132 17141 1 180.0000771 15.1670000 2
17135 17133 17132 17141 1 180.0000771 15.1670000 2
17132 17133 17135 17136 1 180.0000771 15.1670000 2
17132 17133 17135 17137 1 180.0000771 15.1670000 2
17134 17133 17135 17136 1 180.0000771 15.1670000 2
17134 17133 17135 17137 1 180.0000771 15.1670000 2
17133 17135 17137 17138 1 180.0000771 15.1670000 2
17133 17135 17137 17139 1 180.0000771 15.1670000 2
17136 17135 17137 17138 1 180.0000771 15.1670000 2
17136 17135 17137 17139 1 180.0000771 15.1670000 2
17133 17137 17135 17136 4 180.0000771 4.6024000 2
17135 17137 17139 17140 1 180.0000771 15.1670000 2
17135 17137 17139 17141 1 180.0000771 15.1670000 2
17138 17137 17139 17140 1 180.0000771 15.1670000 2
17138 17137 17139 17141 1 180.0000771 15.1670000 2
17135 17139 17137 17138 4 180.0000771 4.6024000 2
17132 17139 17141 17142 4 180.0000771 4.6024000 2
17137 17139 17141 17142 1 180.0000771 15.1670000 2
17140 17139 17141 17142 1 180.0000771 15.1670000 2
17132 17141 17139 17137 1 180.0000771 15.1670000 2
17132 17141 17139 17140 1 180.0000771 15.1670000 2
17137 17141 17139 17140 4 180.0000771 4.6024000 2
17145 17146 17147 17148 1 180.0000771 15.1670000 2
17145 17146 17147 17149 1 180.0000771 15.1670000 2
17148 17146 17147 17149 4 180.0000771 4.6024000 2
17145 17146 17155 17147 4 180.0000771 4.6024000 2
17145 17146 17155 17153 1 180.0000771 15.1670000 2
17145 17146 17155 17156 1 180.0000771 15.1670000 2
17147 17146 17155 17153 1 180.0000771 15.1670000 2
17147 17146 17155 17156 1 180.0000771 15.1670000 2
17148 17147 17146 17155 1 180.0000771 15.1670000 2
17149 17147 17146 17155 1 180.0000771 15.1670000 2
17146 17147 17149 17150 1 180.0000771 15.1670000 2
17146 17147 17149 17151 1 180.0000771 15.1670000 2
17148 17147 17149 17150 1 180.0000771 15.1670000 2
17148 17147 17149 17151 1 180.0000771 15.1670000 2
17147 17149 17151 17152 1 180.0000771 15.1670000 2
17147 17149 17151 17153 1 180.0000771 15.1670000 2
17150 17149 17151 17152 1 180.0000771 15.1670000 2
17150 17149 17151 17153 1 180.0000771 15.1670000 2
17147 17151 17149 17150 4 180.0000771 4.6024000 2
17149 17151 17153 17154 1 180.0000771 15.1670000 2
17149 17151 17153 17155 1 180.0000771 15.1670000 2
17152 17151 17153 17154 1 180.0000771 15.1670000 2
17152 17151 17153 17155 1 180.0000771 15.1670000 2
17149 17153 17151 17152 4 180.0000771 4.6024000 2
17146 17153 17155 17156 4 180.0000771 4.6024000 2
17151 17153 17155 17156 1 180.0000771 15.1670000 2
17154 17153 17155 17156 1 180.0000771 15.1670000 2
17146 17155 17153 17151 1 180.0000771 15.1670000 2
17146 17155 17153 17154 1 180.0000771 15.1670000 2
17151 17155 17153 17154 4 180.0000771 4.6024000 2
17159 17160 17161 17162 1 180.0000771 15.1670000 2
17159 17160 17161 17163 1 180.0000771 15.1670000 2
17162 17160 17161 17163 4 180.0000771 4.6024000 2
17159 17160 17169 17161 4 180.0000771 4.6024000 2
17159 17160 17169 17167 1 180.0000771 15.1670000 2
17159 17160 17169 17170 1 180.0000771 15.1670000 2
17161 17160 17169 17167 1 180.0000771 15.1670000 2
17161 17160 17169 17170 1 180.0000771 15.1670000 2
17162 17161 17160 17169 1 180.0000771 15.1670000 2
17163 17161 17160 17169 1 180.0000771 15.1670000 2
17160 17161 17163 17164 1 180.0000771 15.1670000 2
17160 17161 17163 17165 1 180.0000771 15.1670000 2
17162 17161 17163 17164 1 180.0000771 15.1670000 2
17162 17161 17163 17165 1 180.0000771 15.1670000 2
17161 17163 17165 17166 1 180.0000771 15.1670000 2
17161 17163 17165 17167 1 180.0000771 15.1670000 2
17164 17163 17165 17166 1 180.0000771 15.1670000 2
17164 17163 17165 17167 1 180.0000771 15.1670000 2
17161 17165 17163 17164 4 180.0000771 4.6024000 2
17163 17165 17167 17168 1 180.0000771 15.1670000 2
17163 17165 17167 17169 1 180.0000771 15.1670000 2
17166 17165 17167 17168 1 180.0000771 15.1670000 2
17166 17165 17167 17169 1 180.0000771 15.1670000 2
17163 17167 17165 17166 4 180.0000771 4.6024000 2
17160 17167 17169 17170 4 180.0000771 4.6024000 2
17165 17167 17169 17170 1 180.0000771 15.1670000 2
17168 17167 17169 17170 1 180.0000771 15.1670000 2
17160 17169 17167 17165 1 180.0000771 15.1670000 2
17160 17169 17167 17168 1 180.0000771 15.1670000 2
17165 17169 17167 17168 4 180.0000771 4.6024000 2
17173 17174 17175 17176 1 180.0000771 15.1670000 2
17173 17174 17175 17177 1 180.0000771 15.1670000 2
17176 17174 17175 17177 4 180.0000771 4.6024000 2
17173 17174 17183 17175 4 180.0000771 4.6024000 2
17173 17174 17183 17181 1 180.0000771 15.1670000 2
17173 17174 17183 17184 1 180.0000771 15.1670000 2
17175 17174 17183 17181 1 180.0000771 15.1670000 2
17175 17174 17183 17184 1 180.0000771 15.1670000 2
17176 17175 17174 17183 1 180.0000771 15.1670000 2
17177 17175 17174 17183 1 180.0000771 15.1670000 2
17174 17175 17177 17178 1 180.0000771 15.1670000 2
17174 17175 17177 17179 1 180.0000771 15.1670000 2
17176 17175 17177 17178 1 180.0000771 15.1670000 2
17176 17175 17177 17179 1 180.0000771 15.1670000 2
17175 17177 17179 17180 1 180.0000771 15.1670000 2
17175 17177 17179 17181 1 180.0000771 15.1670000 2
17178 17177 17179 17180 1 180.0000771 15.1670000 2
17178 17177 17179 17181 1 180.0000771 15.1670000 2
17175 17179 17177 17178 4 180.0000771 4.6024000 2
17177 17179 17181 17182 1 180.0000771 15.1670000 2
17177 17179 17181 17183 1 180.0000771 15.1670000 2
17180 17179 17181 17182 1 180.0000771 15.1670000 2
17180 17179 17181 17183 1 180.0000771 15.1670000 2
17177 17181 17179 17180 4 180.0000771 4.6024000 2
17174 17181 17183 17184 4 180.0000771 4.6024000 2
17179 17181 17183 17184 1 180.0000771 15.1670000 2
17182 17181 17183 17184 1 180.0000771 15.1670000 2
17174 17183 17181 17179 1 180.0000771 15.1670000 2
17174 17183 17181 17182 1 180.0000771 15.1670000 2
17179 17183 17181 17182 4 180.0000771 4.6024000 2
17187 17188 17189 17190 1 180.0000771 15.1670000 2
17187 17188 17189 17191 1 180.0000771 15.1670000 2
17190 17188 17189 17191 4 180.0000771 4.6024000 2
17187 17188 17197 17189 4 180.0000771 4.6024000 2
17187 17188 17197 17195 1 180.0000771 15.1670000 2
17187 17188 17197 17198 1 180.0000771 15.1670000 2
17189 17188 17197 17195 1 180.0000771 15.1670000 2
17189 17188 17197 17198 1 180.0000771 15.1670000 2
17190 17189 17188 17197 1 180.0000771 15.1670000 2
17191 17189 17188 17197 1 180.0000771 15.1670000 2
17188 17189 17191 17192 1 180.0000771 15.1670000 2
17188 17189 17191 17193 1 180.0000771 15.1670000 2
17190 17189 17191 17192 1 180.0000771 15.1670000 2
17190 17189 17191 17193 1 180.0000771 15.1670000 2
17189 17191 17193 17194 1 180.0000771 15.1670000 2
17189 17191 17193 17195 1 180.0000771 15.1670000 2
17192 17191 17193 17194 1 180.0000771 15.1670000 2
17192 17191 17193 17195 1 180.0000771 15.1670000 2
17189 17193 17191 17192 4 180.0000771 4.6024000 2
17191 17193 17195 17196 1 180.0000771 15.1670000 2
17191 17193 17195 17197 1 180.0000771 15.1670000 2
17194 17193 17195 17196 1 180.0000771 15.1670000 2
17194 17193 17195 17197 1 180.0000771 15.1670000 2
17191 17195 17193 17194 4 180.0000771 4.6024000 2
17188 17195 17197 17198 4 180.0000771 4.6024000 2
17193 17195 17197 17198 1 180.0000771 15.1670000 2
17196 17195 17197 17198 1 180.0000771 15.1670000 2
17188 17197 17195 17193 1 180.0000771 15.1670000 2
17188 17197 17195 17196 1 180.0000771 15.1670000 2
17193 17197 17195 17196 4 180.0000771 4.6024000 2
17201 17202 17203 17204 1 180.0000771 15.1670000 2
17201 17202 17203 17205 1 180.0000771 15.1670000 2
17204 17202 17203 17205 4 180.0000771 4.6024000 2
17201 17202 17211 17203 4 180.0000771 4.6024000 2
17201 17202 17211 17209 1 180.0000771 15.1670000 2
17201 17202 17211 17212 1 180.0000771 15.1670000 2
17203 17202 17211 17209 1 180.0000771 15.1670000 2
17203 17202 17211 17212 1 180.0000771 15.1670000 2
17204 17203 17202 17211 1 180.0000771 15.1670000 2
17205 17203 17202 17211 1 180.0000771 15.1670000 2
17202 17203 17205 17206 1 180.0000771 15.1670000 2
17202 17203 17205 17207 1 180.0000771 15.1670000 2
17204 17203 17205 17206 1 180.0000771 15.1670000 2
17204 17203 17205 17207 1 180.0000771 15.1670000 2
17203 17205 17207 17208 1 180.0000771 15.1670000 2
17203 17205 17207 17209 1 180.0000771 15.1670000 2
17206 17205 17207 17208 1 180.0000771 15.1670000 2
17206 17205 17207 17209 1 180.0000771 15.1670000 2
17203 17207 17205 17206 4 180.0000771 4.6024000 2
17205 17207 17209 17210 1 180.0000771 15.1670000 2
17205 17207 17209 17211 1 180.0000771 15.1670000 2
17208 17207 17209 17210 1 180.0000771 15.1670000 2
17208 17207 17209 17211 1 180.0000771 15.1670000 2
17205 17209 17207 17208 4 180.0000771 4.6024000 2
17202 17209 17211 17212 4 180.0000771 4.6024000 2
17207 17209 17211 17212 1 180.0000771 15.1670000 2
17210 17209 17211 17212 1 180.0000771 15.1670000 2
17202 17211 17209 17207 1 180.0000771 15.1670000 2
17202 17211 17209 17210 1 180.0000771 15.1670000 2
17207 17211 17209 17210 4 180.0000771 4.6024000 2
17215 17216 17217 17218 1 180.0000771 15.1670000 2
17215 17216 17217 17219 1 180.0000771 15.1670000 2
17218 17216 17217 17219 4 180.0000771 4.6024000 2
17215 17216 17225 17217 4 180.0000771 4.6024000 2
17215 17216 17225 17223 1 180.0000771 15.1670000 2
17215 17216 17225 17226 1 180.0000771 15.1670000 2
17217 17216 17225 17223 1 180.0000771 15.1670000 2
17217 17216 17225 17226 1 180.0000771 15.1670000 2
17218 17217 17216 17225 1 180.0000771 15.1670000 2
17219 17217 17216 17225 1 180.0000771 15.1670000 2
17216 17217 17219 17220 1 180.0000771 15.1670000 2
17216 17217 17219 17221 1 180.0000771 15.1670000 2
17218 17217 17219 17220 1 180.0000771 15.1670000 2
17218 17217 17219 17221 1 180.0000771 15.1670000 2
17217 17219 17221 17222 1 180.0000771 15.1670000 2
17217 17219 17221 17223 1 180.0000771 15.1670000 2
17220 17219 17221 17222 1 180.0000771 15.1670000 2
17220 17219 17221 17223 1 180.0000771 15.1670000 2
17217 17221 17219 17220 4 180.0000771 4.6024000 2
17219 17221 17223 17224 1 180.0000771 15.1670000 2
17219 17221 17223 17225 1 180.0000771 15.1670000 2
17222 17221 17223 17224 1 180.0000771 15.1670000 2
17222 17221 17223 17225 1 180.0000771 15.1670000 2
17219 17223 17221 17222 4 180.0000771 4.6024000 2
17216 17223 17225 17226 4 180.0000771 4.6024000 2
17221 17223 17225 17226 1 180.0000771 15.1670000 2
17224 17223 17225 17226 1 180.0000771 15.1670000 2
17216 17225 17223 17221 1 180.0000771 15.1670000 2
17216 17225 17223 17224 1 180.0000771 15.1670000 2
17221 17225 17223 17224 4 180.0000771 4.6024000 2
17229 17230 17231 17232 1 180.0000771 15.1670000 2
17229 17230 17231 17233 1 180.0000771 15.1670000 2
17232 17230 17231 17233 4 180.0000771 4.6024000 2
17229 17230 17239 17231 4 180.0000771 4.6024000 2
17229 17230 17239 17237 1 180.0000771 15.1670000 2
17229 17230 17239 17240 1 180.0000771 15.1670000 2
17231 17230 17239 17237 1 180.0000771 15.1670000 2
17231 17230 17239 17240 1 180.0000771 15.1670000 2
17232 17231 17230 17239 1 180.0000771 15.1670000 2
17233 17231 17230 17239 1 180.0000771 15.1670000 2
17230 17231 17233 17234 1 180.0000771 15.1670000 2
17230 17231 17233 17235 1 180.0000771 15.1670000 2
17232 17231 17233 17234 1 180.0000771 15.1670000 2
17232 17231 17233 17235 1 180.0000771 15.1670000 2
17231 17233 17235 17236 1 180.0000771 15.1670000 2
17231 17233 17235 17237 1 180.0000771 15.1670000 2
17234 17233 17235 17236 1 180.0000771 15.1670000 2
17234 17233 17235 17237 1 180.0000771 15.1670000 2
17231 17235 17233 17234 4 180.0000771 4.6024000 2
17233 17235 17237 17238 1 180.0000771 15.1670000 2
17233 17235 17237 17239 1 180.0000771 15.1670000 2
17236 17235 17237 17238 1 180.0000771 15.1670000 2
17236 17235 17237 17239 1 180.0000771 15.1670000 2
17233 17237 17235 17236 4 180.0000771 4.6024000 2
17230 17237 17239 17240 4 180.0000771 4.6024000 2
17235 17237 17239 17240 1 180.0000771 15.1670000 2
17238 17237 17239 17240 1 180.0000771 15.1670000 2
17230 17239 17237 17235 1 180.0000771 15.1670000 2
17230 17239 17237 17238 1 180.0000771 15.1670000 2
17235 17239 17237 17238 4 180.0000771 4.6024000 2
17243 17244 17245 17246 1 180.0000771 15.1670000 2
17243 17244 17245 17247 1 180.0000771 15.1670000 2
17246 17244 17245 17247 4 180.0000771 4.6024000 2
17243 17244 17253 17245 4 180.0000771 4.6024000 2
17243 17244 17253 17251 1 180.0000771 15.1670000 2
17243 17244 17253 17254 1 180.0000771 15.1670000 2
17245 17244 17253 17251 1 180.0000771 15.1670000 2
17245 17244 17253 17254 1 180.0000771 15.1670000 2
17246 17245 17244 17253 1 180.0000771 15.1670000 2
17247 17245 17244 17253 1 180.0000771 15.1670000 2
17244 17245 17247 17248 1 180.0000771 15.1670000 2
17244 17245 17247 17249 1 180.0000771 15.1670000 2
17246 17245 17247 17248 1 180.0000771 15.1670000 2
17246 17245 17247 17249 1 180.0000771 15.1670000 2
17245 17247 17249 17250 1 180.0000771 15.1670000 2
17245 17247 17249 17251 1 180.0000771 15.1670000 2
17248 17247 17249 17250 1 180.0000771 15.1670000 2
17248 17247 17249 17251 1 180.0000771 15.1670000 2
17245 17249 17247 17248 4 180.0000771 4.6024000 2
17247 17249 17251 17252 1 180.0000771 15.1670000 2
17247 17249 17251 17253 1 180.0000771 15.1670000 2
17250 17249 17251 17252 1 180.0000771 15.1670000 2
17250 17249 17251 17253 1 180.0000771 15.1670000 2
17247 17251 17249 17250 4 180.0000771 4.6024000 2
17244 17251 17253 17254 4 180.0000771 4.6024000 2
17249 17251 17253 17254 1 180.0000771 15.1670000 2
17252 17251 17253 17254 1 180.0000771 15.1670000 2
17244 17253 17251 17249 1 180.0000771 15.1670000 2
17244 17253 17251 17252 1 180.0000771 15.1670000 2
17249 17253 17251 17252 4 180.0000771 4.6024000 2
17257 17258 17259 17260 1 180.0000771 15.1670000 2
17257 17258 17259 17261 1 180.0000771 15.1670000 2
17260 17258 17259 17261 4 180.0000771 4.6024000 2
17257 17258 17267 17259 4 180.0000771 4.6024000 2
17257 17258 17267 17265 1 180.0000771 15.1670000 2
17257 17258 17267 17268 1 180.0000771 15.1670000 2
17259 17258 17267 17265 1 180.0000771 15.1670000 2
17259 17258 17267 17268 1 180.0000771 15.1670000 2
17260 17259 17258 17267 1 180.0000771 15.1670000 2
17261 17259 17258 17267 1 180.0000771 15.1670000 2
17258 17259 17261 17262 1 180.0000771 15.1670000 2
17258 17259 17261 17263 1 180.0000771 15.1670000 2
17260 17259 17261 17262 1 180.0000771 15.1670000 2
17260 17259 17261 17263 1 180.0000771 15.1670000 2
17259 17261 17263 17264 1 180.0000771 15.1670000 2
17259 17261 17263 17265 1 180.0000771 15.1670000 2
17262 17261 17263 17264 1 180.0000771 15.1670000 2
17262 17261 17263 17265 1 180.0000771 15.1670000 2
17259 17263 17261 17262 4 180.0000771 4.6024000 2
17261 17263 17265 17266 1 180.0000771 15.1670000 2
17261 17263 17265 17267 1 180.0000771 15.1670000 2
17264 17263 17265 17266 1 180.0000771 15.1670000 2
17264 17263 17265 17267 1 180.0000771 15.1670000 2
17261 17265 17263 17264 4 180.0000771 4.6024000 2
17258 17265 17267 17268 4 180.0000771 4.6024000 2
17263 17265 17267 17268 1 180.0000771 15.1670000 2
17266 17265 17267 17268 1 180.0000771 15.1670000 2
17258 17267 17265 17263 1 180.0000771 15.1670000 2
17258 17267 17265 17266 1 180.0000771 15.1670000 2
17263 17267 17265 17266 4 180.0000771 4.6024000 2
17271 17272 17273 17274 1 180.0000771 15.1670000 2
17271 17272 17273 17275 1 180.0000771 15.1670000 2
17274 17272 17273 17275 4 180.0000771 4.6024000 2
17271 17272 17281 17273 4 180.0000771 4.6024000 2
17271 17272 17281 17279 1 180.0000771 15.1670000 2
17271 17272 17281 17282 1 180.0000771 15.1670000 2
17273 17272 17281 17279 1 180.0000771 15.1670000 2
17273 17272 17281 17282 1 180.0000771 15.1670000 2
17274 17273 17272 17281 1 180.0000771 15.1670000 2
17275 17273 17272 17281 1 180.0000771 15.1670000 2
17272 17273 17275 17276 1 180.0000771 15.1670000 2
17272 17273 17275 17277 1 180.0000771 15.1670000 2
17274 17273 17275 17276 1 180.0000771 15.1670000 2
17274 17273 17275 17277 1 180.0000771 15.1670000 2
17273 17275 17277 17278 1 180.0000771 15.1670000 2
17273 17275 17277 17279 1 180.0000771 15.1670000 2
17276 17275 17277 17278 1 180.0000771 15.1670000 2
17276 17275 17277 17279 1 180.0000771 15.1670000 2
17273 17277 17275 17276 4 180.0000771 4.6024000 2
17275 17277 17279 17280 1 180.0000771 15.1670000 2
17275 17277 17279 17281 1 180.0000771 15.1670000 2
17278 17277 17279 17280 1 180.0000771 15.1670000 2
17278 17277 17279 17281 1 180.0000771 15.1670000 2
17275 17279 17277 17278 4 180.0000771 4.6024000 2
17272 17279 17281 17282 4 180.0000771 4.6024000 2
17277 17279 17281 17282 1 180.0000771 15.1670000 2
17280 17279 17281 17282 1 180.0000771 15.1670000 2
17272 17281 17279 17277 1 180.0000771 15.1670000 2
17272 17281 17279 17280 1 180.0000771 15.1670000 2
17277 17281 17279 17280 4 180.0000771 4.6024000 2
17285 17286 17287 17288 1 180.0000771 15.1670000 2
17285 17286 17287 17289 1 180.0000771 15.1670000 2
17288 17286 17287 17289 4 180.0000771 4.6024000 2
17285 17286 17295 17287 4 180.0000771 4.6024000 2
17285 17286 17295 17293 1 180.0000771 15.1670000 2
17285 17286 17295 17296 1 180.0000771 15.1670000 2
17287 17286 17295 17293 1 180.0000771 15.1670000 2
17287 17286 17295 17296 1 180.0000771 15.1670000 2
17288 17287 17286 17295 1 180.0000771 15.1670000 2
17289 17287 17286 17295 1 180.0000771 15.1670000 2
17286 17287 17289 17290 1 180.0000771 15.1670000 2
17286 17287 17289 17291 1 180.0000771 15.1670000 2
17288 17287 17289 17290 1 180.0000771 15.1670000 2
17288 17287 17289 17291 1 180.0000771 15.1670000 2
17287 17289 17291 17292 1 180.0000771 15.1670000 2
17287 17289 17291 17293 1 180.0000771 15.1670000 2
17290 17289 17291 17292 1 180.0000771 15.1670000 2
17290 17289 17291 17293 1 180.0000771 15.1670000 2
17287 17291 17289 17290 4 180.0000771 4.6024000 2
17289 17291 17293 17294 1 180.0000771 15.1670000 2
17289 17291 17293 17295 1 180.0000771 15.1670000 2
17292 17291 17293 17294 1 180.0000771 15.1670000 2
17292 17291 17293 17295 1 180.0000771 15.1670000 2
17289 17293 17291 17292 4 180.0000771 4.6024000 2
17286 17293 17295 17296 4 180.0000771 4.6024000 2
17291 17293 17295 17296 1 180.0000771 15.1670000 2
17294 17293 17295 17296 1 180.0000771 15.1670000 2
17286 17295 17293 17291 1 180.0000771 15.1670000 2
17286 17295 17293 17294 1 180.0000771 15.1670000 2
17291 17295 17293 17294 4 180.0000771 4.6024000 2
17299 17300 17301 17302 1 180.0000771 15.1670000 2
17299 17300 17301 17303 1 180.0000771 15.1670000 2
17302 17300 17301 17303 4 180.0000771 4.6024000 2
17299 17300 17309 17301 4 180.0000771 4.6024000 2
17299 17300 17309 17307 1 180.0000771 15.1670000 2
17299 17300 17309 17310 1 180.0000771 15.1670000 2
17301 17300 17309 17307 1 180.0000771 15.1670000 2
17301 17300 17309 17310 1 180.0000771 15.1670000 2
17302 17301 17300 17309 1 180.0000771 15.1670000 2
17303 17301 17300 17309 1 180.0000771 15.1670000 2
17300 17301 17303 17304 1 180.0000771 15.1670000 2
17300 17301 17303 17305 1 180.0000771 15.1670000 2
17302 17301 17303 17304 1 180.0000771 15.1670000 2
17302 17301 17303 17305 1 180.0000771 15.1670000 2
17301 17303 17305 17306 1 180.0000771 15.1670000 2
17301 17303 17305 17307 1 180.0000771 15.1670000 2
17304 17303 17305 17306 1 180.0000771 15.1670000 2
17304 17303 17305 17307 1 180.0000771 15.1670000 2
17301 17305 17303 17304 4 180.0000771 4.6024000 2
17303 17305 17307 17308 1 180.0000771 15.1670000 2
17303 17305 17307 17309 1 180.0000771 15.1670000 2
17306 17305 17307 17308 1 180.0000771 15.1670000 2
17306 17305 17307 17309 1 180.0000771 15.1670000 2
17303 17307 17305 17306 4 180.0000771 4.6024000 2
17300 17307 17309 17310 4 180.0000771 4.6024000 2
17305 17307 17309 17310 1 180.0000771 15.1670000 2
17308 17307 17309 17310 1 180.0000771 15.1670000 2
17300 17309 17307 17305 1 180.0000771 15.1670000 2
17300 17309 17307 17308 1 180.0000771 15.1670000 2
17305 17309 17307 17308 4 180.0000771 4.6024000 2
17313 17314 17315 17316 1 180.0000771 15.1670000 2
17313 17314 17315 17317 1 180.0000771 15.1670000 2
17316 17314 17315 17317 4 180.0000771 4.6024000 2
17313 17314 17323 17315 4 180.0000771 4.6024000 2
17313 17314 17323 17321 1 180.0000771 15.1670000 2
17313 17314 17323 17324 1 180.0000771 15.1670000 2
17315 17314 17323 17321 1 180.0000771 15.1670000 2
17315 17314 17323 17324 1 180.0000771 15.1670000 2
17316 17315 17314 17323 1 180.0000771 15.1670000 2
17317 17315 17314 17323 1 180.0000771 15.1670000 2
17314 17315 17317 17318 1 180.0000771 15.1670000 2
17314 17315 17317 17319 1 180.0000771 15.1670000 2
17316 17315 17317 17318 1 180.0000771 15.1670000 2
17316 17315 17317 17319 1 180.0000771 15.1670000 2
17315 17317 17319 17320 1 180.0000771 15.1670000 2
17315 17317 17319 17321 1 180.0000771 15.1670000 2
17318 17317 17319 17320 1 180.0000771 15.1670000 2
17318 17317 17319 17321 1 180.0000771 15.1670000 2
17315 17319 17317 17318 4 180.0000771 4.6024000 2
17317 17319 17321 17322 1 180.0000771 15.1670000 2
17317 17319 17321 17323 1 180.0000771 15.1670000 2
17320 17319 17321 17322 1 180.0000771 15.1670000 2
17320 17319 17321 17323 1 180.0000771 15.1670000 2
17317 17321 17319 17320 4 180.0000771 4.6024000 2
17314 17321 17323 17324 4 180.0000771 4.6024000 2
17319 17321 17323 17324 1 180.0000771 15.1670000 2
17322 17321 17323 17324 1 180.0000771 15.1670000 2
17314 17323 17321 17319 1 180.0000771 15.1670000 2
17314 17323 17321 17322 1 180.0000771 15.1670000 2
17319 17323 17321 17322 4 180.0000771 4.6024000 2
17327 17328 17329 17330 1 180.0000771 15.1670000 2
17327 17328 17329 17331 1 180.0000771 15.1670000 2
17330 17328 17329 17331 4 180.0000771 4.6024000 2
17327 17328 17337 17329 4 180.0000771 4.6024000 2
17327 17328 17337 17335 1 180.0000771 15.1670000 2
17327 17328 17337 17338 1 180.0000771 15.1670000 2
17329 17328 17337 17335 1 180.0000771 15.1670000 2
17329 17328 17337 17338 1 180.0000771 15.1670000 2
17330 17329 17328 17337 1 180.0000771 15.1670000 2
17331 17329 17328 17337 1 180.0000771 15.1670000 2
17328 17329 17331 17332 1 180.0000771 15.1670000 2
17328 17329 17331 17333 1 180.0000771 15.1670000 2
17330 17329 17331 17332 1 180.0000771 15.1670000 2
17330 17329 17331 17333 1 180.0000771 15.1670000 2
17329 17331 17333 17334 1 180.0000771 15.1670000 2
17329 17331 17333 17335 1 180.0000771 15.1670000 2
17332 17331 17333 17334 1 180.0000771 15.1670000 2
17332 17331 17333 17335 1 180.0000771 15.1670000 2
17329 17333 17331 17332 4 180.0000771 4.6024000 2
17331 17333 17335 17336 1 180.0000771 15.1670000 2
17331 17333 17335 17337 1 180.0000771 15.1670000 2
17334 17333 17335 17336 1 180.0000771 15.1670000 2
17334 17333 17335 17337 1 180.0000771 15.1670000 2
17331 17335 17333 17334 4 180.0000771 4.6024000 2
17328 17335 17337 17338 4 180.0000771 4.6024000 2
17333 17335 17337 17338 1 180.0000771 15.1670000 2
17336 17335 17337 17338 1 180.0000771 15.1670000 2
17328 17337 17335 17333 1 180.0000771 15.1670000 2
17328 17337 17335 17336 1 180.0000771 15.1670000 2
17333 17337 17335 17336 4 180.0000771 4.6024000 2
17341 17342 17343 17344 1 180.0000771 15.1670000 2
17341 17342 17343 17345 1 180.0000771 15.1670000 2
17344 17342 17343 17345 4 180.0000771 4.6024000 2
17341 17342 17351 17343 4 180.0000771 4.6024000 2
17341 17342 17351 17349 1 180.0000771 15.1670000 2
17341 17342 17351 17352 1 180.0000771 15.1670000 2
17343 17342 17351 17349 1 180.0000771 15.1670000 2
17343 17342 17351 17352 1 180.0000771 15.1670000 2
17344 17343 17342 17351 1 180.0000771 15.1670000 2
17345 17343 17342 17351 1 180.0000771 15.1670000 2
17342 17343 17345 17346 1 180.0000771 15.1670000 2
17342 17343 17345 17347 1 180.0000771 15.1670000 2
17344 17343 17345 17346 1 180.0000771 15.1670000 2
17344 17343 17345 17347 1 180.0000771 15.1670000 2
17343 17345 17347 17348 1 180.0000771 15.1670000 2
17343 17345 17347 17349 1 180.0000771 15.1670000 2
17346 17345 17347 17348 1 180.0000771 15.1670000 2
17346 17345 17347 17349 1 180.0000771 15.1670000 2
17343 17347 17345 17346 4 180.0000771 4.6024000 2
17345 17347 17349 17350 1 180.0000771 15.1670000 2
17345 17347 17349 17351 1 180.0000771 15.1670000 2
17348 17347 17349 17350 1 180.0000771 15.1670000 2
17348 17347 17349 17351 1 180.0000771 15.1670000 2
17345 17349 17347 17348 4 180.0000771 4.6024000 2
17342 17349 17351 17352 4 180.0000771 4.6024000 2
17347 17349 17351 17352 1 180.0000771 15.1670000 2
17350 17349 17351 17352 1 180.0000771 15.1670000 2
17342 17351 17349 17347 1 180.0000771 15.1670000 2
17342 17351 17349 17350 1 180.0000771 15.1670000 2
17347 17351 17349 17350 4 180.0000771 4.6024000 2
17355 17356 17357 17358 1 180.0000771 15.1670000 2
17355 17356 17357 17359 1 180.0000771 15.1670000 2
17358 17356 17357 17359 4 180.0000771 4.6024000 2
17355 17356 17365 17357 4 180.0000771 4.6024000 2
17355 17356 17365 17363 1 180.0000771 15.1670000 2
17355 17356 17365 17366 1 180.0000771 15.1670000 2
17357 17356 17365 17363 1 180.0000771 15.1670000 2
17357 17356 17365 17366 1 180.0000771 15.1670000 2
17358 17357 17356 17365 1 180.0000771 15.1670000 2
17359 17357 17356 17365 1 180.0000771 15.1670000 2
17356 17357 17359 17360 1 180.0000771 15.1670000 2
17356 17357 17359 17361 1 180.0000771 15.1670000 2
17358 17357 17359 17360 1 180.0000771 15.1670000 2
17358 17357 17359 17361 1 180.0000771 15.1670000 2
17357 17359 17361 17362 1 180.0000771 15.1670000 2
17357 17359 17361 17363 1 180.0000771 15.1670000 2
17360 17359 17361 17362 1 180.0000771 15.1670000 2
17360 17359 17361 17363 1 180.0000771 15.1670000 2
17357 17361 17359 17360 4 180.0000771 4.6024000 2
17359 17361 17363 17364 1 180.0000771 15.1670000 2
17359 17361 17363 17365 1 180.0000771 15.1670000 2
17362 17361 17363 17364 1 180.0000771 15.1670000 2
17362 17361 17363 17365 1 180.0000771 15.1670000 2
17359 17363 17361 17362 4 180.0000771 4.6024000 2
17356 17363 17365 17366 4 180.0000771 4.6024000 2
17361 17363 17365 17366 1 180.0000771 15.1670000 2
17364 17363 17365 17366 1 180.0000771 15.1670000 2
17356 17365 17363 17361 1 180.0000771 15.1670000 2
17356 17365 17363 17364 1 180.0000771 15.1670000 2
17361 17365 17363 17364 4 180.0000771 4.6024000 2
17369 17370 17371 17372 1 180.0000771 15.1670000 2
17369 17370 17371 17373 1 180.0000771 15.1670000 2
17372 17370 17371 17373 4 180.0000771 4.6024000 2
17369 17370 17379 17371 4 180.0000771 4.6024000 2
17369 17370 17379 17377 1 180.0000771 15.1670000 2
17369 17370 17379 17380 1 180.0000771 15.1670000 2
17371 17370 17379 17377 1 180.0000771 15.1670000 2
17371 17370 17379 17380 1 180.0000771 15.1670000 2
17372 17371 17370 17379 1 180.0000771 15.1670000 2
17373 17371 17370 17379 1 180.0000771 15.1670000 2
17370 17371 17373 17374 1 180.0000771 15.1670000 2
17370 17371 17373 17375 1 180.0000771 15.1670000 2
17372 17371 17373 17374 1 180.0000771 15.1670000 2
17372 17371 17373 17375 1 180.0000771 15.1670000 2
17371 17373 17375 17376 1 180.0000771 15.1670000 2
17371 17373 17375 17377 1 180.0000771 15.1670000 2
17374 17373 17375 17376 1 180.0000771 15.1670000 2
17374 17373 17375 17377 1 180.0000771 15.1670000 2
17371 17375 17373 17374 4 180.0000771 4.6024000 2
17373 17375 17377 17378 1 180.0000771 15.1670000 2
17373 17375 17377 17379 1 180.0000771 15.1670000 2
17376 17375 17377 17378 1 180.0000771 15.1670000 2
17376 17375 17377 17379 1 180.0000771 15.1670000 2
17373 17377 17375 17376 4 180.0000771 4.6024000 2
17370 17377 17379 17380 4 180.0000771 4.6024000 2
17375 17377 17379 17380 1 180.0000771 15.1670000 2
17378 17377 17379 17380 1 180.0000771 15.1670000 2
17370 17379 17377 17375 1 180.0000771 15.1670000 2
17370 17379 17377 17378 1 180.0000771 15.1670000 2
17375 17379 17377 17378 4 180.0000771 4.6024000 2
17383 17384 17385 17386 1 180.0000771 15.1670000 2
17383 17384 17385 17387 1 180.0000771 15.1670000 2
17386 17384 17385 17387 4 180.0000771 4.6024000 2
17383 17384 17393 17385 4 180.0000771 4.6024000 2
17383 17384 17393 17391 1 180.0000771 15.1670000 2
17383 17384 17393 17394 1 180.0000771 15.1670000 2
17385 17384 17393 17391 1 180.0000771 15.1670000 2
17385 17384 17393 17394 1 180.0000771 15.1670000 2
17386 17385 17384 17393 1 180.0000771 15.1670000 2
17387 17385 17384 17393 1 180.0000771 15.1670000 2
17384 17385 17387 17388 1 180.0000771 15.1670000 2
17384 17385 17387 17389 1 180.0000771 15.1670000 2
17386 17385 17387 17388 1 180.0000771 15.1670000 2
17386 17385 17387 17389 1 180.0000771 15.1670000 2
17385 17387 17389 17390 1 180.0000771 15.1670000 2
17385 17387 17389 17391 1 180.0000771 15.1670000 2
17388 17387 17389 17390 1 180.0000771 15.1670000 2
17388 17387 17389 17391 1 180.0000771 15.1670000 2
17385 17389 17387 17388 4 180.0000771 4.6024000 2
17387 17389 17391 17392 1 180.0000771 15.1670000 2
17387 17389 17391 17393 1 180.0000771 15.1670000 2
17390 17389 17391 17392 1 180.0000771 15.1670000 2
17390 17389 17391 17393 1 180.0000771 15.1670000 2
17387 17391 17389 17390 4 180.0000771 4.6024000 2
17384 17391 17393 17394 4 180.0000771 4.6024000 2
17389 17391 17393 17394 1 180.0000771 15.1670000 2
17392 17391 17393 17394 1 180.0000771 15.1670000 2
17384 17393 17391 17389 1 180.0000771 15.1670000 2
17384 17393 17391 17392 1 180.0000771 15.1670000 2
17389 17393 17391 17392 4 180.0000771 4.6024000 2
17397 17398 17399 17400 1 180.0000771 15.1670000 2
17397 17398 17399 17401 1 180.0000771 15.1670000 2
17400 17398 17399 17401 4 180.0000771 4.6024000 2
17397 17398 17407 17399 4 180.0000771 4.6024000 2
17397 17398 17407 17405 1 180.0000771 15.1670000 2
17397 17398 17407 17408 1 180.0000771 15.1670000 2
17399 17398 17407 17405 1 180.0000771 15.1670000 2
17399 17398 17407 17408 1 180.0000771 15.1670000 2
17400 17399 17398 17407 1 180.0000771 15.1670000 2
17401 17399 17398 17407 1 180.0000771 15.1670000 2
17398 17399 17401 17402 1 180.0000771 15.1670000 2
17398 17399 17401 17403 1 180.0000771 15.1670000 2
17400 17399 17401 17402 1 180.0000771 15.1670000 2
17400 17399 17401 17403 1 180.0000771 15.1670000 2
17399 17401 17403 17404 1 180.0000771 15.1670000 2
17399 17401 17403 17405 1 180.0000771 15.1670000 2
17402 17401 17403 17404 1 180.0000771 15.1670000 2
17402 17401 17403 17405 1 180.0000771 15.1670000 2
17399 17403 17401 17402 4 180.0000771 4.6024000 2
17401 17403 17405 17406 1 180.0000771 15.1670000 2
17401 17403 17405 17407 1 180.0000771 15.1670000 2
17404 17403 17405 17406 1 180.0000771 15.1670000 2
17404 17403 17405 17407 1 180.0000771 15.1670000 2
17401 17405 17403 17404 4 180.0000771 4.6024000 2
17398 17405 17407 17408 4 180.0000771 4.6024000 2
17403 17405 17407 17408 1 180.0000771 15.1670000 2
17406 17405 17407 17408 1 180.0000771 15.1670000 2
17398 17407 17405 17403 1 180.0000771 15.1670000 2
17398 17407 17405 17406 1 180.0000771 15.1670000 2
17403 17407 17405 17406 4 180.0000771 4.6024000 2
17411 17412 17413 17414 1 180.0000771 15.1670000 2
17411 17412 17413 17415 1 180.0000771 15.1670000 2
17414 17412 17413 17415 4 180.0000771 4.6024000 2
17411 17412 17421 17413 4 180.0000771 4.6024000 2
17411 17412 17421 17419 1 180.0000771 15.1670000 2
17411 17412 17421 17422 1 180.0000771 15.1670000 2
17413 17412 17421 17419 1 180.0000771 15.1670000 2
17413 17412 17421 17422 1 180.0000771 15.1670000 2
17414 17413 17412 17421 1 180.0000771 15.1670000 2
17415 17413 17412 17421 1 180.0000771 15.1670000 2
17412 17413 17415 17416 1 180.0000771 15.1670000 2
17412 17413 17415 17417 1 180.0000771 15.1670000 2
17414 17413 17415 17416 1 180.0000771 15.1670000 2
17414 17413 17415 17417 1 180.0000771 15.1670000 2
17413 17415 17417 17418 1 180.0000771 15.1670000 2
17413 17415 17417 17419 1 180.0000771 15.1670000 2
17416 17415 17417 17418 1 180.0000771 15.1670000 2
17416 17415 17417 17419 1 180.0000771 15.1670000 2
17413 17417 17415 17416 4 180.0000771 4.6024000 2
17415 17417 17419 17420 1 180.0000771 15.1670000 2
17415 17417 17419 17421 1 180.0000771 15.1670000 2
17418 17417 17419 17420 1 180.0000771 15.1670000 2
17418 17417 17419 17421 1 180.0000771 15.1670000 2
17415 17419 17417 17418 4 180.0000771 4.6024000 2
17412 17419 17421 17422 4 180.0000771 4.6024000 2
17417 17419 17421 17422 1 180.0000771 15.1670000 2
17420 17419 17421 17422 1 180.0000771 15.1670000 2
17412 17421 17419 17417 1 180.0000771 15.1670000 2
17412 17421 17419 17420 1 180.0000771 15.1670000 2
17417 17421 17419 17420 4 180.0000771 4.6024000 2
17425 17426 17427 17428 1 180.0000771 15.1670000 2
17425 17426 17427 17429 1 180.0000771 15.1670000 2
17428 17426 17427 17429 4 180.0000771 4.6024000 2
17425 17426 17435 17427 4 180.0000771 4.6024000 2
17425 17426 17435 17433 1 180.0000771 15.1670000 2
17425 17426 17435 17436 1 180.0000771 15.1670000 2
17427 17426 17435 17433 1 180.0000771 15.1670000 2
17427 17426 17435 17436 1 180.0000771 15.1670000 2
17428 17427 17426 17435 1 180.0000771 15.1670000 2
17429 17427 17426 17435 1 180.0000771 15.1670000 2
17426 17427 17429 17430 1 180.0000771 15.1670000 2
17426 17427 17429 17431 1 180.0000771 15.1670000 2
17428 17427 17429 17430 1 180.0000771 15.1670000 2
17428 17427 17429 17431 1 180.0000771 15.1670000 2
17427 17429 17431 17432 1 180.0000771 15.1670000 2
17427 17429 17431 17433 1 180.0000771 15.1670000 2
17430 17429 17431 17432 1 180.0000771 15.1670000 2
17430 17429 17431 17433 1 180.0000771 15.1670000 2
17427 17431 17429 17430 4 180.0000771 4.6024000 2
17429 17431 17433 17434 1 180.0000771 15.1670000 2
17429 17431 17433 17435 1 180.0000771 15.1670000 2
17432 17431 17433 17434 1 180.0000771 15.1670000 2
17432 17431 17433 17435 1 180.0000771 15.1670000 2
17429 17433 17431 17432 4 180.0000771 4.6024000 2
17426 17433 17435 17436 4 180.0000771 4.6024000 2
17431 17433 17435 17436 1 180.0000771 15.1670000 2
17434 17433 17435 17436 1 180.0000771 15.1670000 2
17426 17435 17433 17431 1 180.0000771 15.1670000 2
17426 17435 17433 17434 1 180.0000771 15.1670000 2
17431 17435 17433 17434 4 180.0000771 4.6024000 2
17439 17440 17441 17442 1 180.0000771 15.1670000 2
17439 17440 17441 17443 1 180.0000771 15.1670000 2
17442 17440 17441 17443 4 180.0000771 4.6024000 2
17439 17440 17449 17441 4 180.0000771 4.6024000 2
17439 17440 17449 17447 1 180.0000771 15.1670000 2
17439 17440 17449 17450 1 180.0000771 15.1670000 2
17441 17440 17449 17447 1 180.0000771 15.1670000 2
17441 17440 17449 17450 1 180.0000771 15.1670000 2
17442 17441 17440 17449 1 180.0000771 15.1670000 2
17443 17441 17440 17449 1 180.0000771 15.1670000 2
17440 17441 17443 17444 1 180.0000771 15.1670000 2
17440 17441 17443 17445 1 180.0000771 15.1670000 2
17442 17441 17443 17444 1 180.0000771 15.1670000 2
17442 17441 17443 17445 1 180.0000771 15.1670000 2
17441 17443 17445 17446 1 180.0000771 15.1670000 2
17441 17443 17445 17447 1 180.0000771 15.1670000 2
17444 17443 17445 17446 1 180.0000771 15.1670000 2
17444 17443 17445 17447 1 180.0000771 15.1670000 2
17441 17445 17443 17444 4 180.0000771 4.6024000 2
17443 17445 17447 17448 1 180.0000771 15.1670000 2
17443 17445 17447 17449 1 180.0000771 15.1670000 2
17446 17445 17447 17448 1 180.0000771 15.1670000 2
17446 17445 17447 17449 1 180.0000771 15.1670000 2
17443 17447 17445 17446 4 180.0000771 4.6024000 2
17440 17447 17449 17450 4 180.0000771 4.6024000 2
17445 17447 17449 17450 1 180.0000771 15.1670000 2
17448 17447 17449 17450 1 180.0000771 15.1670000 2
17440 17449 17447 17445 1 180.0000771 15.1670000 2
17440 17449 17447 17448 1 180.0000771 15.1670000 2
17445 17449 17447 17448 4 180.0000771 4.6024000 2
17453 17454 17455 17456 1 180.0000771 15.1670000 2
17453 17454 17455 17457 1 180.0000771 15.1670000 2
17456 17454 17455 17457 4 180.0000771 4.6024000 2
17453 17454 17463 17455 4 180.0000771 4.6024000 2
17453 17454 17463 17461 1 180.0000771 15.1670000 2
17453 17454 17463 17464 1 180.0000771 15.1670000 2
17455 17454 17463 17461 1 180.0000771 15.1670000 2
17455 17454 17463 17464 1 180.0000771 15.1670000 2
17456 17455 17454 17463 1 180.0000771 15.1670000 2
17457 17455 17454 17463 1 180.0000771 15.1670000 2
17454 17455 17457 17458 1 180.0000771 15.1670000 2
17454 17455 17457 17459 1 180.0000771 15.1670000 2
17456 17455 17457 17458 1 180.0000771 15.1670000 2
17456 17455 17457 17459 1 180.0000771 15.1670000 2
17455 17457 17459 17460 1 180.0000771 15.1670000 2
17455 17457 17459 17461 1 180.0000771 15.1670000 2
17458 17457 17459 17460 1 180.0000771 15.1670000 2
17458 17457 17459 17461 1 180.0000771 15.1670000 2
17455 17459 17457 17458 4 180.0000771 4.6024000 2
17457 17459 17461 17462 1 180.0000771 15.1670000 2
17457 17459 17461 17463 1 180.0000771 15.1670000 2
17460 17459 17461 17462 1 180.0000771 15.1670000 2
17460 17459 17461 17463 1 180.0000771 15.1670000 2
17457 17461 17459 17460 4 180.0000771 4.6024000 2
17454 17461 17463 17464 4 180.0000771 4.6024000 2
17459 17461 17463 17464 1 180.0000771 15.1670000 2
17462 17461 17463 17464 1 180.0000771 15.1670000 2
17454 17463 17461 17459 1 180.0000771 15.1670000 2
17454 17463 17461 17462 1 180.0000771 15.1670000 2
17459 17463 17461 17462 4 180.0000771 4.6024000 2
17467 17468 17469 17470 1 180.0000771 15.1670000 2
17467 17468 17469 17471 1 180.0000771 15.1670000 2
17470 17468 17469 17471 4 180.0000771 4.6024000 2
17467 17468 17477 17469 4 180.0000771 4.6024000 2
17467 17468 17477 17475 1 180.0000771 15.1670000 2
17467 17468 17477 17478 1 180.0000771 15.1670000 2
17469 17468 17477 17475 1 180.0000771 15.1670000 2
17469 17468 17477 17478 1 180.0000771 15.1670000 2
17470 17469 17468 17477 1 180.0000771 15.1670000 2
17471 17469 17468 17477 1 180.0000771 15.1670000 2
17468 17469 17471 17472 1 180.0000771 15.1670000 2
17468 17469 17471 17473 1 180.0000771 15.1670000 2
17470 17469 17471 17472 1 180.0000771 15.1670000 2
17470 17469 17471 17473 1 180.0000771 15.1670000 2
17469 17471 17473 17474 1 180.0000771 15.1670000 2
17469 17471 17473 17475 1 180.0000771 15.1670000 2
17472 17471 17473 17474 1 180.0000771 15.1670000 2
17472 17471 17473 17475 1 180.0000771 15.1670000 2
17469 17473 17471 17472 4 180.0000771 4.6024000 2
17471 17473 17475 17476 1 180.0000771 15.1670000 2
17471 17473 17475 17477 1 180.0000771 15.1670000 2
17474 17473 17475 17476 1 180.0000771 15.1670000 2
17474 17473 17475 17477 1 180.0000771 15.1670000 2
17471 17475 17473 17474 4 180.0000771 4.6024000 2
17468 17475 17477 17478 4 180.0000771 4.6024000 2
17473 17475 17477 17478 1 180.0000771 15.1670000 2
17476 17475 17477 17478 1 180.0000771 15.1670000 2
17468 17477 17475 17473 1 180.0000771 15.1670000 2
17468 17477 17475 17476 1 180.0000771 15.1670000 2
17473 17477 17475 17476 4 180.0000771 4.6024000 2
17481 17482 17483 17484 1 180.0000771 15.1670000 2
17481 17482 17483 17485 1 180.0000771 15.1670000 2
17484 17482 17483 17485 4 180.0000771 4.6024000 2
17481 17482 17491 17483 4 180.0000771 4.6024000 2
17481 17482 17491 17489 1 180.0000771 15.1670000 2
17481 17482 17491 17492 1 180.0000771 15.1670000 2
17483 17482 17491 17489 1 180.0000771 15.1670000 2
17483 17482 17491 17492 1 180.0000771 15.1670000 2
17484 17483 17482 17491 1 180.0000771 15.1670000 2
17485 17483 17482 17491 1 180.0000771 15.1670000 2
17482 17483 17485 17486 1 180.0000771 15.1670000 2
17482 17483 17485 17487 1 180.0000771 15.1670000 2
17484 17483 17485 17486 1 180.0000771 15.1670000 2
17484 17483 17485 17487 1 180.0000771 15.1670000 2
17483 17485 17487 17488 1 180.0000771 15.1670000 2
17483 17485 17487 17489 1 180.0000771 15.1670000 2
17486 17485 17487 17488 1 180.0000771 15.1670000 2
17486 17485 17487 17489 1 180.0000771 15.1670000 2
17483 17487 17485 17486 4 180.0000771 4.6024000 2
17485 17487 17489 17490 1 180.0000771 15.1670000 2
17485 17487 17489 17491 1 180.0000771 15.1670000 2
17488 17487 17489 17490 1 180.0000771 15.1670000 2
17488 17487 17489 17491 1 180.0000771 15.1670000 2
17485 17489 17487 17488 4 180.0000771 4.6024000 2
17482 17489 17491 17492 4 180.0000771 4.6024000 2
17487 17489 17491 17492 1 180.0000771 15.1670000 2
17490 17489 17491 17492 1 180.0000771 15.1670000 2
17482 17491 17489 17487 1 180.0000771 15.1670000 2
17482 17491 17489 17490 1 180.0000771 15.1670000 2
17487 17491 17489 17490 4 180.0000771 4.6024000 2
17495 17496 17497 17498 1 180.0000771 15.1670000 2
17495 17496 17497 17499 1 180.0000771 15.1670000 2
17498 17496 17497 17499 4 180.0000771 4.6024000 2
17495 17496 17505 17497 4 180.0000771 4.6024000 2
17495 17496 17505 17503 1 180.0000771 15.1670000 2
17495 17496 17505 17506 1 180.0000771 15.1670000 2
17497 17496 17505 17503 1 180.0000771 15.1670000 2
17497 17496 17505 17506 1 180.0000771 15.1670000 2
17498 17497 17496 17505 1 180.0000771 15.1670000 2
17499 17497 17496 17505 1 180.0000771 15.1670000 2
17496 17497 17499 17500 1 180.0000771 15.1670000 2
17496 17497 17499 17501 1 180.0000771 15.1670000 2
17498 17497 17499 17500 1 180.0000771 15.1670000 2
17498 17497 17499 17501 1 180.0000771 15.1670000 2
17497 17499 17501 17502 1 180.0000771 15.1670000 2
17497 17499 17501 17503 1 180.0000771 15.1670000 2
17500 17499 17501 17502 1 180.0000771 15.1670000 2
17500 17499 17501 17503 1 180.0000771 15.1670000 2
17497 17501 17499 17500 4 180.0000771 4.6024000 2
17499 17501 17503 17504 1 180.0000771 15.1670000 2
17499 17501 17503 17505 1 180.0000771 15.1670000 2
17502 17501 17503 17504 1 180.0000771 15.1670000 2
17502 17501 17503 17505 1 180.0000771 15.1670000 2
17499 17503 17501 17502 4 180.0000771 4.6024000 2
17496 17503 17505 17506 4 180.0000771 4.6024000 2
17501 17503 17505 17506 1 180.0000771 15.1670000 2
17504 17503 17505 17506 1 180.0000771 15.1670000 2
17496 17505 17503 17501 1 180.0000771 15.1670000 2
17496 17505 17503 17504 1 180.0000771 15.1670000 2
17501 17505 17503 17504 4 180.0000771 4.6024000 2
17509 17510 17511 17512 1 180.0000771 15.1670000 2
17509 17510 17511 17513 1 180.0000771 15.1670000 2
17512 17510 17511 17513 4 180.0000771 4.6024000 2
17509 17510 17519 17511 4 180.0000771 4.6024000 2
17509 17510 17519 17517 1 180.0000771 15.1670000 2
17509 17510 17519 17520 1 180.0000771 15.1670000 2
17511 17510 17519 17517 1 180.0000771 15.1670000 2
17511 17510 17519 17520 1 180.0000771 15.1670000 2
17512 17511 17510 17519 1 180.0000771 15.1670000 2
17513 17511 17510 17519 1 180.0000771 15.1670000 2
17510 17511 17513 17514 1 180.0000771 15.1670000 2
17510 17511 17513 17515 1 180.0000771 15.1670000 2
17512 17511 17513 17514 1 180.0000771 15.1670000 2
17512 17511 17513 17515 1 180.0000771 15.1670000 2
17511 17513 17515 17516 1 180.0000771 15.1670000 2
17511 17513 17515 17517 1 180.0000771 15.1670000 2
17514 17513 17515 17516 1 180.0000771 15.1670000 2
17514 17513 17515 17517 1 180.0000771 15.1670000 2
17511 17515 17513 17514 4 180.0000771 4.6024000 2
17513 17515 17517 17518 1 180.0000771 15.1670000 2
17513 17515 17517 17519 1 180.0000771 15.1670000 2
17516 17515 17517 17518 1 180.0000771 15.1670000 2
17516 17515 17517 17519 1 180.0000771 15.1670000 2
17513 17517 17515 17516 4 180.0000771 4.6024000 2
17510 17517 17519 17520 4 180.0000771 4.6024000 2
17515 17517 17519 17520 1 180.0000771 15.1670000 2
17518 17517 17519 17520 1 180.0000771 15.1670000 2
17510 17519 17517 17515 1 180.0000771 15.1670000 2
17510 17519 17517 17518 1 180.0000771 15.1670000 2
17515 17519 17517 17518 4 180.0000771 4.6024000 2
17523 17524 17525 17526 1 180.0000771 15.1670000 2
17523 17524 17525 17527 1 180.0000771 15.1670000 2
17526 17524 17525 17527 4 180.0000771 4.6024000 2
17523 17524 17533 17525 4 180.0000771 4.6024000 2
17523 17524 17533 17531 1 180.0000771 15.1670000 2
17523 17524 17533 17534 1 180.0000771 15.1670000 2
17525 17524 17533 17531 1 180.0000771 15.1670000 2
17525 17524 17533 17534 1 180.0000771 15.1670000 2
17526 17525 17524 17533 1 180.0000771 15.1670000 2
17527 17525 17524 17533 1 180.0000771 15.1670000 2
17524 17525 17527 17528 1 180.0000771 15.1670000 2
17524 17525 17527 17529 1 180.0000771 15.1670000 2
17526 17525 17527 17528 1 180.0000771 15.1670000 2
17526 17525 17527 17529 1 180.0000771 15.1670000 2
17525 17527 17529 17530 1 180.0000771 15.1670000 2
17525 17527 17529 17531 1 180.0000771 15.1670000 2
17528 17527 17529 17530 1 180.0000771 15.1670000 2
17528 17527 17529 17531 1 180.0000771 15.1670000 2
17525 17529 17527 17528 4 180.0000771 4.6024000 2
17527 17529 17531 17532 1 180.0000771 15.1670000 2
17527 17529 17531 17533 1 180.0000771 15.1670000 2
17530 17529 17531 17532 1 180.0000771 15.1670000 2
17530 17529 17531 17533 1 180.0000771 15.1670000 2
17527 17531 17529 17530 4 180.0000771 4.6024000 2
17524 17531 17533 17534 4 180.0000771 4.6024000 2
17529 17531 17533 17534 1 180.0000771 15.1670000 2
17532 17531 17533 17534 1 180.0000771 15.1670000 2
17524 17533 17531 17529 1 180.0000771 15.1670000 2
17524 17533 17531 17532 1 180.0000771 15.1670000 2
17529 17533 17531 17532 4 180.0000771 4.6024000 2
17537 17538 17539 17540 1 180.0000771 15.1670000 2
17537 17538 17539 17541 1 180.0000771 15.1670000 2
17540 17538 17539 17541 4 180.0000771 4.6024000 2
17537 17538 17547 17539 4 180.0000771 4.6024000 2
17537 17538 17547 17545 1 180.0000771 15.1670000 2
17537 17538 17547 17548 1 180.0000771 15.1670000 2
17539 17538 17547 17545 1 180.0000771 15.1670000 2
17539 17538 17547 17548 1 180.0000771 15.1670000 2
17540 17539 17538 17547 1 180.0000771 15.1670000 2
17541 17539 17538 17547 1 180.0000771 15.1670000 2
17538 17539 17541 17542 1 180.0000771 15.1670000 2
17538 17539 17541 17543 1 180.0000771 15.1670000 2
17540 17539 17541 17542 1 180.0000771 15.1670000 2
17540 17539 17541 17543 1 180.0000771 15.1670000 2
17539 17541 17543 17544 1 180.0000771 15.1670000 2
17539 17541 17543 17545 1 180.0000771 15.1670000 2
17542 17541 17543 17544 1 180.0000771 15.1670000 2
17542 17541 17543 17545 1 180.0000771 15.1670000 2
17539 17543 17541 17542 4 180.0000771 4.6024000 2
17541 17543 17545 17546 1 180.0000771 15.1670000 2
17541 17543 17545 17547 1 180.0000771 15.1670000 2
17544 17543 17545 17546 1 180.0000771 15.1670000 2
17544 17543 17545 17547 1 180.0000771 15.1670000 2
17541 17545 17543 17544 4 180.0000771 4.6024000 2
17538 17545 17547 17548 4 180.0000771 4.6024000 2
17543 17545 17547 17548 1 180.0000771 15.1670000 2
17546 17545 17547 17548 1 180.0000771 15.1670000 2
17538 17547 17545 17543 1 180.0000771 15.1670000 2
17538 17547 17545 17546 1 180.0000771 15.1670000 2
17543 17547 17545 17546 4 180.0000771 4.6024000 2
17551 17552 17553 17554 1 180.0000771 15.1670000 2
17551 17552 17553 17555 1 180.0000771 15.1670000 2
17554 17552 17553 17555 4 180.0000771 4.6024000 2
17551 17552 17561 17553 4 180.0000771 4.6024000 2
17551 17552 17561 17559 1 180.0000771 15.1670000 2
17551 17552 17561 17562 1 180.0000771 15.1670000 2
17553 17552 17561 17559 1 180.0000771 15.1670000 2
17553 17552 17561 17562 1 180.0000771 15.1670000 2
17554 17553 17552 17561 1 180.0000771 15.1670000 2
17555 17553 17552 17561 1 180.0000771 15.1670000 2
17552 17553 17555 17556 1 180.0000771 15.1670000 2
17552 17553 17555 17557 1 180.0000771 15.1670000 2
17554 17553 17555 17556 1 180.0000771 15.1670000 2
17554 17553 17555 17557 1 180.0000771 15.1670000 2
17553 17555 17557 17558 1 180.0000771 15.1670000 2
17553 17555 17557 17559 1 180.0000771 15.1670000 2
17556 17555 17557 17558 1 180.0000771 15.1670000 2
17556 17555 17557 17559 1 180.0000771 15.1670000 2
17553 17557 17555 17556 4 180.0000771 4.6024000 2
17555 17557 17559 17560 1 180.0000771 15.1670000 2
17555 17557 17559 17561 1 180.0000771 15.1670000 2
17558 17557 17559 17560 1 180.0000771 15.1670000 2
17558 17557 17559 17561 1 180.0000771 15.1670000 2
17555 17559 17557 17558 4 180.0000771 4.6024000 2
17552 17559 17561 17562 4 180.0000771 4.6024000 2
17557 17559 17561 17562 1 180.0000771 15.1670000 2
17560 17559 17561 17562 1 180.0000771 15.1670000 2
17552 17561 17559 17557 1 180.0000771 15.1670000 2
17552 17561 17559 17560 1 180.0000771 15.1670000 2
17557 17561 17559 17560 4 180.0000771 4.6024000 2
17565 17566 17567 17568 1 180.0000771 15.1670000 2
17565 17566 17567 17569 1 180.0000771 15.1670000 2
17568 17566 17567 17569 4 180.0000771 4.6024000 2
17565 17566 17575 17567 4 180.0000771 4.6024000 2
17565 17566 17575 17573 1 180.0000771 15.1670000 2
17565 17566 17575 17576 1 180.0000771 15.1670000 2
17567 17566 17575 17573 1 180.0000771 15.1670000 2
17567 17566 17575 17576 1 180.0000771 15.1670000 2
17568 17567 17566 17575 1 180.0000771 15.1670000 2
17569 17567 17566 17575 1 180.0000771 15.1670000 2
17566 17567 17569 17570 1 180.0000771 15.1670000 2
17566 17567 17569 17571 1 180.0000771 15.1670000 2
17568 17567 17569 17570 1 180.0000771 15.1670000 2
17568 17567 17569 17571 1 180.0000771 15.1670000 2
17567 17569 17571 17572 1 180.0000771 15.1670000 2
17567 17569 17571 17573 1 180.0000771 15.1670000 2
17570 17569 17571 17572 1 180.0000771 15.1670000 2
17570 17569 17571 17573 1 180.0000771 15.1670000 2
17567 17571 17569 17570 4 180.0000771 4.6024000 2
17569 17571 17573 17574 1 180.0000771 15.1670000 2
17569 17571 17573 17575 1 180.0000771 15.1670000 2
17572 17571 17573 17574 1 180.0000771 15.1670000 2
17572 17571 17573 17575 1 180.0000771 15.1670000 2
17569 17573 17571 17572 4 180.0000771 4.6024000 2
17566 17573 17575 17576 4 180.0000771 4.6024000 2
17571 17573 17575 17576 1 180.0000771 15.1670000 2
17574 17573 17575 17576 1 180.0000771 15.1670000 2
17566 17575 17573 17571 1 180.0000771 15.1670000 2
17566 17575 17573 17574 1 180.0000771 15.1670000 2
17571 17575 17573 17574 4 180.0000771 4.6024000 2
17579 17580 17581 17582 1 180.0000771 15.1670000 2
17579 17580 17581 17583 1 180.0000771 15.1670000 2
17582 17580 17581 17583 4 180.0000771 4.6024000 2
17579 17580 17589 17581 4 180.0000771 4.6024000 2
17579 17580 17589 17587 1 180.0000771 15.1670000 2
17579 17580 17589 17590 1 180.0000771 15.1670000 2
17581 17580 17589 17587 1 180.0000771 15.1670000 2
17581 17580 17589 17590 1 180.0000771 15.1670000 2
17582 17581 17580 17589 1 180.0000771 15.1670000 2
17583 17581 17580 17589 1 180.0000771 15.1670000 2
17580 17581 17583 17584 1 180.0000771 15.1670000 2
17580 17581 17583 17585 1 180.0000771 15.1670000 2
17582 17581 17583 17584 1 180.0000771 15.1670000 2
17582 17581 17583 17585 1 180.0000771 15.1670000 2
17581 17583 17585 17586 1 180.0000771 15.1670000 2
17581 17583 17585 17587 1 180.0000771 15.1670000 2
17584 17583 17585 17586 1 180.0000771 15.1670000 2
17584 17583 17585 17587 1 180.0000771 15.1670000 2
17581 17585 17583 17584 4 180.0000771 4.6024000 2
17583 17585 17587 17588 1 180.0000771 15.1670000 2
17583 17585 17587 17589 1 180.0000771 15.1670000 2
17586 17585 17587 17588 1 180.0000771 15.1670000 2
17586 17585 17587 17589 1 180.0000771 15.1670000 2
17583 17587 17585 17586 4 180.0000771 4.6024000 2
17580 17587 17589 17590 4 180.0000771 4.6024000 2
17585 17587 17589 17590 1 180.0000771 15.1670000 2
17588 17587 17589 17590 1 180.0000771 15.1670000 2
17580 17589 17587 17585 1 180.0000771 15.1670000 2
17580 17589 17587 17588 1 180.0000771 15.1670000 2
17585 17589 17587 17588 4 180.0000771 4.6024000 2
17593 17594 17595 17596 1 180.0000771 15.1670000 2
17593 17594 17595 17597 1 180.0000771 15.1670000 2
17596 17594 17595 17597 4 180.0000771 4.6024000 2
17593 17594 17603 17595 4 180.0000771 4.6024000 2
17593 17594 17603 17601 1 180.0000771 15.1670000 2
17593 17594 17603 17604 1 180.0000771 15.1670000 2
17595 17594 17603 17601 1 180.0000771 15.1670000 2
17595 17594 17603 17604 1 180.0000771 15.1670000 2
17596 17595 17594 17603 1 180.0000771 15.1670000 2
17597 17595 17594 17603 1 180.0000771 15.1670000 2
17594 17595 17597 17598 1 180.0000771 15.1670000 2
17594 17595 17597 17599 1 180.0000771 15.1670000 2
17596 17595 17597 17598 1 180.0000771 15.1670000 2
17596 17595 17597 17599 1 180.0000771 15.1670000 2
17595 17597 17599 17600 1 180.0000771 15.1670000 2
17595 17597 17599 17601 1 180.0000771 15.1670000 2
17598 17597 17599 17600 1 180.0000771 15.1670000 2
17598 17597 17599 17601 1 180.0000771 15.1670000 2
17595 17599 17597 17598 4 180.0000771 4.6024000 2
17597 17599 17601 17602 1 180.0000771 15.1670000 2
17597 17599 17601 17603 1 180.0000771 15.1670000 2
17600 17599 17601 17602 1 180.0000771 15.1670000 2
17600 17599 17601 17603 1 180.0000771 15.1670000 2
17597 17601 17599 17600 4 180.0000771 4.6024000 2
17594 17601 17603 17604 4 180.0000771 4.6024000 2
17599 17601 17603 17604 1 180.0000771 15.1670000 2
17602 17601 17603 17604 1 180.0000771 15.1670000 2
17594 17603 17601 17599 1 180.0000771 15.1670000 2
17594 17603 17601 17602 1 180.0000771 15.1670000 2
17599 17603 17601 17602 4 180.0000771 4.6024000 2
17607 17608 17609 17610 1 180.0000771 15.1670000 2
17607 17608 17609 17611 1 180.0000771 15.1670000 2
17610 17608 17609 17611 4 180.0000771 4.6024000 2
17607 17608 17617 17609 4 180.0000771 4.6024000 2
17607 17608 17617 17615 1 180.0000771 15.1670000 2
17607 17608 17617 17618 1 180.0000771 15.1670000 2
17609 17608 17617 17615 1 180.0000771 15.1670000 2
17609 17608 17617 17618 1 180.0000771 15.1670000 2
17610 17609 17608 17617 1 180.0000771 15.1670000 2
17611 17609 17608 17617 1 180.0000771 15.1670000 2
17608 17609 17611 17612 1 180.0000771 15.1670000 2
17608 17609 17611 17613 1 180.0000771 15.1670000 2
17610 17609 17611 17612 1 180.0000771 15.1670000 2
17610 17609 17611 17613 1 180.0000771 15.1670000 2
17609 17611 17613 17614 1 180.0000771 15.1670000 2
17609 17611 17613 17615 1 180.0000771 15.1670000 2
17612 17611 17613 17614 1 180.0000771 15.1670000 2
17612 17611 17613 17615 1 180.0000771 15.1670000 2
17609 17613 17611 17612 4 180.0000771 4.6024000 2
17611 17613 17615 17616 1 180.0000771 15.1670000 2
17611 17613 17615 17617 1 180.0000771 15.1670000 2
17614 17613 17615 17616 1 180.0000771 15.1670000 2
17614 17613 17615 17617 1 180.0000771 15.1670000 2
17611 17615 17613 17614 4 180.0000771 4.6024000 2
17608 17615 17617 17618 4 180.0000771 4.6024000 2
17613 17615 17617 17618 1 180.0000771 15.1670000 2
17616 17615 17617 17618 1 180.0000771 15.1670000 2
17608 17617 17615 17613 1 180.0000771 15.1670000 2
17608 17617 17615 17616 1 180.0000771 15.1670000 2
17613 17617 17615 17616 4 180.0000771 4.6024000 2
17621 17622 17623 17624 1 180.0000771 15.1670000 2
17621 17622 17623 17625 1 180.0000771 15.1670000 2
17624 17622 17623 17625 4 180.0000771 4.6024000 2
17621 17622 17631 17623 4 180.0000771 4.6024000 2
17621 17622 17631 17629 1 180.0000771 15.1670000 2
17621 17622 17631 17632 1 180.0000771 15.1670000 2
17623 17622 17631 17629 1 180.0000771 15.1670000 2
17623 17622 17631 17632 1 180.0000771 15.1670000 2
17624 17623 17622 17631 1 180.0000771 15.1670000 2
17625 17623 17622 17631 1 180.0000771 15.1670000 2
17622 17623 17625 17626 1 180.0000771 15.1670000 2
17622 17623 17625 17627 1 180.0000771 15.1670000 2
17624 17623 17625 17626 1 180.0000771 15.1670000 2
17624 17623 17625 17627 1 180.0000771 15.1670000 2
17623 17625 17627 17628 1 180.0000771 15.1670000 2
17623 17625 17627 17629 1 180.0000771 15.1670000 2
17626 17625 17627 17628 1 180.0000771 15.1670000 2
17626 17625 17627 17629 1 180.0000771 15.1670000 2
17623 17627 17625 17626 4 180.0000771 4.6024000 2
17625 17627 17629 17630 1 180.0000771 15.1670000 2
17625 17627 17629 17631 1 180.0000771 15.1670000 2
17628 17627 17629 17630 1 180.0000771 15.1670000 2
17628 17627 17629 17631 1 180.0000771 15.1670000 2
17625 17629 17627 17628 4 180.0000771 4.6024000 2
17622 17629 17631 17632 4 180.0000771 4.6024000 2
17627 17629 17631 17632 1 180.0000771 15.1670000 2
17630 17629 17631 17632 1 180.0000771 15.1670000 2
17622 17631 17629 17627 1 180.0000771 15.1670000 2
17622 17631 17629 17630 1 180.0000771 15.1670000 2
17627 17631 17629 17630 4 180.0000771 4.6024000 2
17635 17636 17637 17638 1 180.0000771 15.1670000 2
17635 17636 17637 17639 1 180.0000771 15.1670000 2
17638 17636 17637 17639 4 180.0000771 4.6024000 2
17635 17636 17645 17637 4 180.0000771 4.6024000 2
17635 17636 17645 17643 1 180.0000771 15.1670000 2
17635 17636 17645 17646 1 180.0000771 15.1670000 2
17637 17636 17645 17643 1 180.0000771 15.1670000 2
17637 17636 17645 17646 1 180.0000771 15.1670000 2
17638 17637 17636 17645 1 180.0000771 15.1670000 2
17639 17637 17636 17645 1 180.0000771 15.1670000 2
17636 17637 17639 17640 1 180.0000771 15.1670000 2
17636 17637 17639 17641 1 180.0000771 15.1670000 2
17638 17637 17639 17640 1 180.0000771 15.1670000 2
17638 17637 17639 17641 1 180.0000771 15.1670000 2
17637 17639 17641 17642 1 180.0000771 15.1670000 2
17637 17639 17641 17643 1 180.0000771 15.1670000 2
17640 17639 17641 17642 1 180.0000771 15.1670000 2
17640 17639 17641 17643 1 180.0000771 15.1670000 2
17637 17641 17639 17640 4 180.0000771 4.6024000 2
17639 17641 17643 17644 1 180.0000771 15.1670000 2
17639 17641 17643 17645 1 180.0000771 15.1670000 2
17642 17641 17643 17644 1 180.0000771 15.1670000 2
17642 17641 17643 17645 1 180.0000771 15.1670000 2
17639 17643 17641 17642 4 180.0000771 4.6024000 2
17636 17643 17645 17646 4 180.0000771 4.6024000 2
17641 17643 17645 17646 1 180.0000771 15.1670000 2
17644 17643 17645 17646 1 180.0000771 15.1670000 2
17636 17645 17643 17641 1 180.0000771 15.1670000 2
17636 17645 17643 17644 1 180.0000771 15.1670000 2
17641 17645 17643 17644 4 180.0000771 4.6024000 2
17649 17650 17651 17652 1 180.0000771 15.1670000 2
17649 17650 17651 17653 1 180.0000771 15.1670000 2
17652 17650 17651 17653 4 180.0000771 4.6024000 2
17649 17650 17659 17651 4 180.0000771 4.6024000 2
17649 17650 17659 17657 1 180.0000771 15.1670000 2
17649 17650 17659 17660 1 180.0000771 15.1670000 2
17651 17650 17659 17657 1 180.0000771 15.1670000 2
17651 17650 17659 17660 1 180.0000771 15.1670000 2
17652 17651 17650 17659 1 180.0000771 15.1670000 2
17653 17651 17650 17659 1 180.0000771 15.1670000 2
17650 17651 17653 17654 1 180.0000771 15.1670000 2
17650 17651 17653 17655 1 180.0000771 15.1670000 2
17652 17651 17653 17654 1 180.0000771 15.1670000 2
17652 17651 17653 17655 1 180.0000771 15.1670000 2
17651 17653 17655 17656 1 180.0000771 15.1670000 2
17651 17653 17655 17657 1 180.0000771 15.1670000 2
17654 17653 17655 17656 1 180.0000771 15.1670000 2
17654 17653 17655 17657 1 180.0000771 15.1670000 2
17651 17655 17653 17654 4 180.0000771 4.6024000 2
17653 17655 17657 17658 1 180.0000771 15.1670000 2
17653 17655 17657 17659 1 180.0000771 15.1670000 2
17656 17655 17657 17658 1 180.0000771 15.1670000 2
17656 17655 17657 17659 1 180.0000771 15.1670000 2
17653 17657 17655 17656 4 180.0000771 4.6024000 2
17650 17657 17659 17660 4 180.0000771 4.6024000 2
17655 17657 17659 17660 1 180.0000771 15.1670000 2
17658 17657 17659 17660 1 180.0000771 15.1670000 2
17650 17659 17657 17655 1 180.0000771 15.1670000 2
17650 17659 17657 17658 1 180.0000771 15.1670000 2
17655 17659 17657 17658 4 180.0000771 4.6024000 2
17663 17664 17665 17666 1 180.0000771 15.1670000 2
17663 17664 17665 17667 1 180.0000771 15.1670000 2
17666 17664 17665 17667 4 180.0000771 4.6024000 2
17663 17664 17673 17665 4 180.0000771 4.6024000 2
17663 17664 17673 17671 1 180.0000771 15.1670000 2
17663 17664 17673 17674 1 180.0000771 15.1670000 2
17665 17664 17673 17671 1 180.0000771 15.1670000 2
17665 17664 17673 17674 1 180.0000771 15.1670000 2
17666 17665 17664 17673 1 180.0000771 15.1670000 2
17667 17665 17664 17673 1 180.0000771 15.1670000 2
17664 17665 17667 17668 1 180.0000771 15.1670000 2
17664 17665 17667 17669 1 180.0000771 15.1670000 2
17666 17665 17667 17668 1 180.0000771 15.1670000 2
17666 17665 17667 17669 1 180.0000771 15.1670000 2
17665 17667 17669 17670 1 180.0000771 15.1670000 2
17665 17667 17669 17671 1 180.0000771 15.1670000 2
17668 17667 17669 17670 1 180.0000771 15.1670000 2
17668 17667 17669 17671 1 180.0000771 15.1670000 2
17665 17669 17667 17668 4 180.0000771 4.6024000 2
17667 17669 17671 17672 1 180.0000771 15.1670000 2
17667 17669 17671 17673 1 180.0000771 15.1670000 2
17670 17669 17671 17672 1 180.0000771 15.1670000 2
17670 17669 17671 17673 1 180.0000771 15.1670000 2
17667 17671 17669 17670 4 180.0000771 4.6024000 2
17664 17671 17673 17674 4 180.0000771 4.6024000 2
17669 17671 17673 17674 1 180.0000771 15.1670000 2
17672 17671 17673 17674 1 180.0000771 15.1670000 2
17664 17673 17671 17669 1 180.0000771 15.1670000 2
17664 17673 17671 17672 1 180.0000771 15.1670000 2
17669 17673 17671 17672 4 180.0000771 4.6024000 2
17677 17678 17679 17680 1 180.0000771 15.1670000 2
17677 17678 17679 17681 1 180.0000771 15.1670000 2
17680 17678 17679 17681 4 180.0000771 4.6024000 2
17677 17678 17687 17679 4 180.0000771 4.6024000 2
17677 17678 17687 17685 1 180.0000771 15.1670000 2
17677 17678 17687 17688 1 180.0000771 15.1670000 2
17679 17678 17687 17685 1 180.0000771 15.1670000 2
17679 17678 17687 17688 1 180.0000771 15.1670000 2
17680 17679 17678 17687 1 180.0000771 15.1670000 2
17681 17679 17678 17687 1 180.0000771 15.1670000 2
17678 17679 17681 17682 1 180.0000771 15.1670000 2
17678 17679 17681 17683 1 180.0000771 15.1670000 2
17680 17679 17681 17682 1 180.0000771 15.1670000 2
17680 17679 17681 17683 1 180.0000771 15.1670000 2
17679 17681 17683 17684 1 180.0000771 15.1670000 2
17679 17681 17683 17685 1 180.0000771 15.1670000 2
17682 17681 17683 17684 1 180.0000771 15.1670000 2
17682 17681 17683 17685 1 180.0000771 15.1670000 2
17679 17683 17681 17682 4 180.0000771 4.6024000 2
17681 17683 17685 17686 1 180.0000771 15.1670000 2
17681 17683 17685 17687 1 180.0000771 15.1670000 2
17684 17683 17685 17686 1 180.0000771 15.1670000 2
17684 17683 17685 17687 1 180.0000771 15.1670000 2
17681 17685 17683 17684 4 180.0000771 4.6024000 2
17678 17685 17687 17688 4 180.0000771 4.6024000 2
17683 17685 17687 17688 1 180.0000771 15.1670000 2
17686 17685 17687 17688 1 180.0000771 15.1670000 2
17678 17687 17685 17683 1 180.0000771 15.1670000 2
17678 17687 17685 17686 1 180.0000771 15.1670000 2
17683 17687 17685 17686 4 180.0000771 4.6024000 2
17691 17692 17693 17694 1 180.0000771 15.1670000 2
17691 17692 17693 17695 1 180.0000771 15.1670000 2
17694 17692 17693 17695 4 180.0000771 4.6024000 2
17691 17692 17701 17693 4 180.0000771 4.6024000 2
17691 17692 17701 17699 1 180.0000771 15.1670000 2
17691 17692 17701 17702 1 180.0000771 15.1670000 2
17693 17692 17701 17699 1 180.0000771 15.1670000 2
17693 17692 17701 17702 1 180.0000771 15.1670000 2
17694 17693 17692 17701 1 180.0000771 15.1670000 2
17695 17693 17692 17701 1 180.0000771 15.1670000 2
17692 17693 17695 17696 1 180.0000771 15.1670000 2
17692 17693 17695 17697 1 180.0000771 15.1670000 2
17694 17693 17695 17696 1 180.0000771 15.1670000 2
17694 17693 17695 17697 1 180.0000771 15.1670000 2
17693 17695 17697 17698 1 180.0000771 15.1670000 2
17693 17695 17697 17699 1 180.0000771 15.1670000 2
17696 17695 17697 17698 1 180.0000771 15.1670000 2
17696 17695 17697 17699 1 180.0000771 15.1670000 2
17693 17697 17695 17696 4 180.0000771 4.6024000 2
17695 17697 17699 17700 1 180.0000771 15.1670000 2
17695 17697 17699 17701 1 180.0000771 15.1670000 2
17698 17697 17699 17700 1 180.0000771 15.1670000 2
17698 17697 17699 17701 1 180.0000771 15.1670000 2
17695 17699 17697 17698 4 180.0000771 4.6024000 2
17692 17699 17701 17702 4 180.0000771 4.6024000 2
17697 17699 17701 17702 1 180.0000771 15.1670000 2
17700 17699 17701 17702 1 180.0000771 15.1670000 2
17692 17701 17699 17697 1 180.0000771 15.1670000 2
17692 17701 17699 17700 1 180.0000771 15.1670000 2
17697 17701 17699 17700 4 180.0000771 4.6024000 2
17705 17706 17707 17708 1 180.0000771 15.1670000 2
17705 17706 17707 17709 1 180.0000771 15.1670000 2
17708 17706 17707 17709 4 180.0000771 4.6024000 2
17705 17706 17715 17707 4 180.0000771 4.6024000 2
17705 17706 17715 17713 1 180.0000771 15.1670000 2
17705 17706 17715 17716 1 180.0000771 15.1670000 2
17707 17706 17715 17713 1 180.0000771 15.1670000 2
17707 17706 17715 17716 1 180.0000771 15.1670000 2
17708 17707 17706 17715 1 180.0000771 15.1670000 2
17709 17707 17706 17715 1 180.0000771 15.1670000 2
17706 17707 17709 17710 1 180.0000771 15.1670000 2
17706 17707 17709 17711 1 180.0000771 15.1670000 2
17708 17707 17709 17710 1 180.0000771 15.1670000 2
17708 17707 17709 17711 1 180.0000771 15.1670000 2
17707 17709 17711 17712 1 180.0000771 15.1670000 2
17707 17709 17711 17713 1 180.0000771 15.1670000 2
17710 17709 17711 17712 1 180.0000771 15.1670000 2
17710 17709 17711 17713 1 180.0000771 15.1670000 2
17707 17711 17709 17710 4 180.0000771 4.6024000 2
17709 17711 17713 17714 1 180.0000771 15.1670000 2
17709 17711 17713 17715 1 180.0000771 15.1670000 2
17712 17711 17713 17714 1 180.0000771 15.1670000 2
17712 17711 17713 17715 1 180.0000771 15.1670000 2
17709 17713 17711 17712 4 180.0000771 4.6024000 2
17706 17713 17715 17716 4 180.0000771 4.6024000 2
17711 17713 17715 17716 1 180.0000771 15.1670000 2
17714 17713 17715 17716 1 180.0000771 15.1670000 2
17706 17715 17713 17711 1 180.0000771 15.1670000 2
17706 17715 17713 17714 1 180.0000771 15.1670000 2
17711 17715 17713 17714 4 180.0000771 4.6024000 2
17719 17720 17721 17722 1 180.0000771 15.1670000 2
17719 17720 17721 17723 1 180.0000771 15.1670000 2
17722 17720 17721 17723 4 180.0000771 4.6024000 2
17719 17720 17729 17721 4 180.0000771 4.6024000 2
17719 17720 17729 17727 1 180.0000771 15.1670000 2
17719 17720 17729 17730 1 180.0000771 15.1670000 2
17721 17720 17729 17727 1 180.0000771 15.1670000 2
17721 17720 17729 17730 1 180.0000771 15.1670000 2
17722 17721 17720 17729 1 180.0000771 15.1670000 2
17723 17721 17720 17729 1 180.0000771 15.1670000 2
17720 17721 17723 17724 1 180.0000771 15.1670000 2
17720 17721 17723 17725 1 180.0000771 15.1670000 2
17722 17721 17723 17724 1 180.0000771 15.1670000 2
17722 17721 17723 17725 1 180.0000771 15.1670000 2
17721 17723 17725 17726 1 180.0000771 15.1670000 2
17721 17723 17725 17727 1 180.0000771 15.1670000 2
17724 17723 17725 17726 1 180.0000771 15.1670000 2
17724 17723 17725 17727 1 180.0000771 15.1670000 2
17721 17725 17723 17724 4 180.0000771 4.6024000 2
17723 17725 17727 17728 1 180.0000771 15.1670000 2
17723 17725 17727 17729 1 180.0000771 15.1670000 2
17726 17725 17727 17728 1 180.0000771 15.1670000 2
17726 17725 17727 17729 1 180.0000771 15.1670000 2
17723 17727 17725 17726 4 180.0000771 4.6024000 2
17720 17727 17729 17730 4 180.0000771 4.6024000 2
17725 17727 17729 17730 1 180.0000771 15.1670000 2
17728 17727 17729 17730 1 180.0000771 15.1670000 2
17720 17729 17727 17725 1 180.0000771 15.1670000 2
17720 17729 17727 17728 1 180.0000771 15.1670000 2
17725 17729 17727 17728 4 180.0000771 4.6024000 2
17733 17734 17735 17736 1 180.0000771 15.1670000 2
17733 17734 17735 17737 1 180.0000771 15.1670000 2
17736 17734 17735 17737 4 180.0000771 4.6024000 2
17733 17734 17743 17735 4 180.0000771 4.6024000 2
17733 17734 17743 17741 1 180.0000771 15.1670000 2
17733 17734 17743 17744 1 180.0000771 15.1670000 2
17735 17734 17743 17741 1 180.0000771 15.1670000 2
17735 17734 17743 17744 1 180.0000771 15.1670000 2
17736 17735 17734 17743 1 180.0000771 15.1670000 2
17737 17735 17734 17743 1 180.0000771 15.1670000 2
17734 17735 17737 17738 1 180.0000771 15.1670000 2
17734 17735 17737 17739 1 180.0000771 15.1670000 2
17736 17735 17737 17738 1 180.0000771 15.1670000 2
17736 17735 17737 17739 1 180.0000771 15.1670000 2
17735 17737 17739 17740 1 180.0000771 15.1670000 2
17735 17737 17739 17741 1 180.0000771 15.1670000 2
17738 17737 17739 17740 1 180.0000771 15.1670000 2
17738 17737 17739 17741 1 180.0000771 15.1670000 2
17735 17739 17737 17738 4 180.0000771 4.6024000 2
17737 17739 17741 17742 1 180.0000771 15.1670000 2
17737 17739 17741 17743 1 180.0000771 15.1670000 2
17740 17739 17741 17742 1 180.0000771 15.1670000 2
17740 17739 17741 17743 1 180.0000771 15.1670000 2
17737 17741 17739 17740 4 180.0000771 4.6024000 2
17734 17741 17743 17744 4 180.0000771 4.6024000 2
17739 17741 17743 17744 1 180.0000771 15.1670000 2
17742 17741 17743 17744 1 180.0000771 15.1670000 2
17734 17743 17741 17739 1 180.0000771 15.1670000 2
17734 17743 17741 17742 1 180.0000771 15.1670000 2
17739 17743 17741 17742 4 180.0000771 4.6024000 2
17747 17748 17749 17750 1 180.0000771 15.1670000 2
17747 17748 17749 17751 1 180.0000771 15.1670000 2
17750 17748 17749 17751 4 180.0000771 4.6024000 2
17747 17748 17757 17749 4 180.0000771 4.6024000 2
17747 17748 17757 17755 1 180.0000771 15.1670000 2
17747 17748 17757 17758 1 180.0000771 15.1670000 2
17749 17748 17757 17755 1 180.0000771 15.1670000 2
17749 17748 17757 17758 1 180.0000771 15.1670000 2
17750 17749 17748 17757 1 180.0000771 15.1670000 2
17751 17749 17748 17757 1 180.0000771 15.1670000 2
17748 17749 17751 17752 1 180.0000771 15.1670000 2
17748 17749 17751 17753 1 180.0000771 15.1670000 2
17750 17749 17751 17752 1 180.0000771 15.1670000 2
17750 17749 17751 17753 1 180.0000771 15.1670000 2
17749 17751 17753 17754 1 180.0000771 15.1670000 2
17749 17751 17753 17755 1 180.0000771 15.1670000 2
17752 17751 17753 17754 1 180.0000771 15.1670000 2
17752 17751 17753 17755 1 180.0000771 15.1670000 2
17749 17753 17751 17752 4 180.0000771 4.6024000 2
17751 17753 17755 17756 1 180.0000771 15.1670000 2
17751 17753 17755 17757 1 180.0000771 15.1670000 2
17754 17753 17755 17756 1 180.0000771 15.1670000 2
17754 17753 17755 17757 1 180.0000771 15.1670000 2
17751 17755 17753 17754 4 180.0000771 4.6024000 2
17748 17755 17757 17758 4 180.0000771 4.6024000 2
17753 17755 17757 17758 1 180.0000771 15.1670000 2
17756 17755 17757 17758 1 180.0000771 15.1670000 2
17748 17757 17755 17753 1 180.0000771 15.1670000 2
17748 17757 17755 17756 1 180.0000771 15.1670000 2
17753 17757 17755 17756 4 180.0000771 4.6024000 2
17761 17762 17763 17764 1 180.0000771 15.1670000 2
17761 17762 17763 17765 1 180.0000771 15.1670000 2
17764 17762 17763 17765 4 180.0000771 4.6024000 2
17761 17762 17771 17763 4 180.0000771 4.6024000 2
17761 17762 17771 17769 1 180.0000771 15.1670000 2
17761 17762 17771 17772 1 180.0000771 15.1670000 2
17763 17762 17771 17769 1 180.0000771 15.1670000 2
17763 17762 17771 17772 1 180.0000771 15.1670000 2
17764 17763 17762 17771 1 180.0000771 15.1670000 2
17765 17763 17762 17771 1 180.0000771 15.1670000 2
17762 17763 17765 17766 1 180.0000771 15.1670000 2
17762 17763 17765 17767 1 180.0000771 15.1670000 2
17764 17763 17765 17766 1 180.0000771 15.1670000 2
17764 17763 17765 17767 1 180.0000771 15.1670000 2
17763 17765 17767 17768 1 180.0000771 15.1670000 2
17763 17765 17767 17769 1 180.0000771 15.1670000 2
17766 17765 17767 17768 1 180.0000771 15.1670000 2
17766 17765 17767 17769 1 180.0000771 15.1670000 2
17763 17767 17765 17766 4 180.0000771 4.6024000 2
17765 17767 17769 17770 1 180.0000771 15.1670000 2
17765 17767 17769 17771 1 180.0000771 15.1670000 2
17768 17767 17769 17770 1 180.0000771 15.1670000 2
17768 17767 17769 17771 1 180.0000771 15.1670000 2
17765 17769 17767 17768 4 180.0000771 4.6024000 2
17762 17769 17771 17772 4 180.0000771 4.6024000 2
17767 17769 17771 17772 1 180.0000771 15.1670000 2
17770 17769 17771 17772 1 180.0000771 15.1670000 2
17762 17771 17769 17767 1 180.0000771 15.1670000 2
17762 17771 17769 17770 1 180.0000771 15.1670000 2
17767 17771 17769 17770 4 180.0000771 4.6024000 2
17775 17776 17777 17778 1 180.0000771 15.1670000 2
17775 17776 17777 17779 1 180.0000771 15.1670000 2
17778 17776 17777 17779 4 180.0000771 4.6024000 2
17775 17776 17785 17777 4 180.0000771 4.6024000 2
17775 17776 17785 17783 1 180.0000771 15.1670000 2
17775 17776 17785 17786 1 180.0000771 15.1670000 2
17777 17776 17785 17783 1 180.0000771 15.1670000 2
17777 17776 17785 17786 1 180.0000771 15.1670000 2
17778 17777 17776 17785 1 180.0000771 15.1670000 2
17779 17777 17776 17785 1 180.0000771 15.1670000 2
17776 17777 17779 17780 1 180.0000771 15.1670000 2
17776 17777 17779 17781 1 180.0000771 15.1670000 2
17778 17777 17779 17780 1 180.0000771 15.1670000 2
17778 17777 17779 17781 1 180.0000771 15.1670000 2
17777 17779 17781 17782 1 180.0000771 15.1670000 2
17777 17779 17781 17783 1 180.0000771 15.1670000 2
17780 17779 17781 17782 1 180.0000771 15.1670000 2
17780 17779 17781 17783 1 180.0000771 15.1670000 2
17777 17781 17779 17780 4 180.0000771 4.6024000 2
17779 17781 17783 17784 1 180.0000771 15.1670000 2
17779 17781 17783 17785 1 180.0000771 15.1670000 2
17782 17781 17783 17784 1 180.0000771 15.1670000 2
17782 17781 17783 17785 1 180.0000771 15.1670000 2
17779 17783 17781 17782 4 180.0000771 4.6024000 2
17776 17783 17785 17786 4 180.0000771 4.6024000 2
17781 17783 17785 17786 1 180.0000771 15.1670000 2
17784 17783 17785 17786 1 180.0000771 15.1670000 2
17776 17785 17783 17781 1 180.0000771 15.1670000 2
17776 17785 17783 17784 1 180.0000771 15.1670000 2
17781 17785 17783 17784 4 180.0000771 4.6024000 2
17789 17790 17791 17792 1 180.0000771 15.1670000 2
17789 17790 17791 17793 1 180.0000771 15.1670000 2
17792 17790 17791 17793 4 180.0000771 4.6024000 2
17789 17790 17799 17791 4 180.0000771 4.6024000 2
17789 17790 17799 17797 1 180.0000771 15.1670000 2
17789 17790 17799 17800 1 180.0000771 15.1670000 2
17791 17790 17799 17797 1 180.0000771 15.1670000 2
17791 17790 17799 17800 1 180.0000771 15.1670000 2
17792 17791 17790 17799 1 180.0000771 15.1670000 2
17793 17791 17790 17799 1 180.0000771 15.1670000 2
17790 17791 17793 17794 1 180.0000771 15.1670000 2
17790 17791 17793 17795 1 180.0000771 15.1670000 2
17792 17791 17793 17794 1 180.0000771 15.1670000 2
17792 17791 17793 17795 1 180.0000771 15.1670000 2
17791 17793 17795 17796 1 180.0000771 15.1670000 2
17791 17793 17795 17797 1 180.0000771 15.1670000 2
17794 17793 17795 17796 1 180.0000771 15.1670000 2
17794 17793 17795 17797 1 180.0000771 15.1670000 2
17791 17795 17793 17794 4 180.0000771 4.6024000 2
17793 17795 17797 17798 1 180.0000771 15.1670000 2
17793 17795 17797 17799 1 180.0000771 15.1670000 2
17796 17795 17797 17798 1 180.0000771 15.1670000 2
17796 17795 17797 17799 1 180.0000771 15.1670000 2
17793 17797 17795 17796 4 180.0000771 4.6024000 2
17790 17797 17799 17800 4 180.0000771 4.6024000 2
17795 17797 17799 17800 1 180.0000771 15.1670000 2
17798 17797 17799 17800 1 180.0000771 15.1670000 2
17790 17799 17797 17795 1 180.0000771 15.1670000 2
17790 17799 17797 17798 1 180.0000771 15.1670000 2
17795 17799 17797 17798 4 180.0000771 4.6024000 2
17803 17804 17805 17806 1 180.0000771 15.1670000 2
17803 17804 17805 17807 1 180.0000771 15.1670000 2
17806 17804 17805 17807 4 180.0000771 4.6024000 2
17803 17804 17813 17805 4 180.0000771 4.6024000 2
17803 17804 17813 17811 1 180.0000771 15.1670000 2
17803 17804 17813 17814 1 180.0000771 15.1670000 2
17805 17804 17813 17811 1 180.0000771 15.1670000 2
17805 17804 17813 17814 1 180.0000771 15.1670000 2
17806 17805 17804 17813 1 180.0000771 15.1670000 2
17807 17805 17804 17813 1 180.0000771 15.1670000 2
17804 17805 17807 17808 1 180.0000771 15.1670000 2
17804 17805 17807 17809 1 180.0000771 15.1670000 2
17806 17805 17807 17808 1 180.0000771 15.1670000 2
17806 17805 17807 17809 1 180.0000771 15.1670000 2
17805 17807 17809 17810 1 180.0000771 15.1670000 2
17805 17807 17809 17811 1 180.0000771 15.1670000 2
17808 17807 17809 17810 1 180.0000771 15.1670000 2
17808 17807 17809 17811 1 180.0000771 15.1670000 2
17805 17809 17807 17808 4 180.0000771 4.6024000 2
17807 17809 17811 17812 1 180.0000771 15.1670000 2
17807 17809 17811 17813 1 180.0000771 15.1670000 2
17810 17809 17811 17812 1 180.0000771 15.1670000 2
17810 17809 17811 17813 1 180.0000771 15.1670000 2
17807 17811 17809 17810 4 180.0000771 4.6024000 2
17804 17811 17813 17814 4 180.0000771 4.6024000 2
17809 17811 17813 17814 1 180.0000771 15.1670000 2
17812 17811 17813 17814 1 180.0000771 15.1670000 2
17804 17813 17811 17809 1 180.0000771 15.1670000 2
17804 17813 17811 17812 1 180.0000771 15.1670000 2
17809 17813 17811 17812 4 180.0000771 4.6024000 2
17817 17818 17819 17820 1 180.0000771 15.1670000 2
17817 17818 17819 17821 1 180.0000771 15.1670000 2
17820 17818 17819 17821 4 180.0000771 4.6024000 2
17817 17818 17827 17819 4 180.0000771 4.6024000 2
17817 17818 17827 17825 1 180.0000771 15.1670000 2
17817 17818 17827 17828 1 180.0000771 15.1670000 2
17819 17818 17827 17825 1 180.0000771 15.1670000 2
17819 17818 17827 17828 1 180.0000771 15.1670000 2
17820 17819 17818 17827 1 180.0000771 15.1670000 2
17821 17819 17818 17827 1 180.0000771 15.1670000 2
17818 17819 17821 17822 1 180.0000771 15.1670000 2
17818 17819 17821 17823 1 180.0000771 15.1670000 2
17820 17819 17821 17822 1 180.0000771 15.1670000 2
17820 17819 17821 17823 1 180.0000771 15.1670000 2
17819 17821 17823 17824 1 180.0000771 15.1670000 2
17819 17821 17823 17825 1 180.0000771 15.1670000 2
17822 17821 17823 17824 1 180.0000771 15.1670000 2
17822 17821 17823 17825 1 180.0000771 15.1670000 2
17819 17823 17821 17822 4 180.0000771 4.6024000 2
17821 17823 17825 17826 1 180.0000771 15.1670000 2
17821 17823 17825 17827 1 180.0000771 15.1670000 2
17824 17823 17825 17826 1 180.0000771 15.1670000 2
17824 17823 17825 17827 1 180.0000771 15.1670000 2
17821 17825 17823 17824 4 180.0000771 4.6024000 2
17818 17825 17827 17828 4 180.0000771 4.6024000 2
17823 17825 17827 17828 1 180.0000771 15.1670000 2
17826 17825 17827 17828 1 180.0000771 15.1670000 2
17818 17827 17825 17823 1 180.0000771 15.1670000 2
17818 17827 17825 17826 1 180.0000771 15.1670000 2
17823 17827 17825 17826 4 180.0000771 4.6024000 2
17831 17832 17833 17834 1 180.0000771 15.1670000 2
17831 17832 17833 17835 1 180.0000771 15.1670000 2
17834 17832 17833 17835 4 180.0000771 4.6024000 2
17831 17832 17841 17833 4 180.0000771 4.6024000 2
17831 17832 17841 17839 1 180.0000771 15.1670000 2
17831 17832 17841 17842 1 180.0000771 15.1670000 2
17833 17832 17841 17839 1 180.0000771 15.1670000 2
17833 17832 17841 17842 1 180.0000771 15.1670000 2
17834 17833 17832 17841 1 180.0000771 15.1670000 2
17835 17833 17832 17841 1 180.0000771 15.1670000 2
17832 17833 17835 17836 1 180.0000771 15.1670000 2
17832 17833 17835 17837 1 180.0000771 15.1670000 2
17834 17833 17835 17836 1 180.0000771 15.1670000 2
17834 17833 17835 17837 1 180.0000771 15.1670000 2
17833 17835 17837 17838 1 180.0000771 15.1670000 2
17833 17835 17837 17839 1 180.0000771 15.1670000 2
17836 17835 17837 17838 1 180.0000771 15.1670000 2
17836 17835 17837 17839 1 180.0000771 15.1670000 2
17833 17837 17835 17836 4 180.0000771 4.6024000 2
17835 17837 17839 17840 1 180.0000771 15.1670000 2
17835 17837 17839 17841 1 180.0000771 15.1670000 2
17838 17837 17839 17840 1 180.0000771 15.1670000 2
17838 17837 17839 17841 1 180.0000771 15.1670000 2
17835 17839 17837 17838 4 180.0000771 4.6024000 2
17832 17839 17841 17842 4 180.0000771 4.6024000 2
17837 17839 17841 17842 1 180.0000771 15.1670000 2
17840 17839 17841 17842 1 180.0000771 15.1670000 2
17832 17841 17839 17837 1 180.0000771 15.1670000 2
17832 17841 17839 17840 1 180.0000771 15.1670000 2
17837 17841 17839 17840 4 180.0000771 4.6024000 2
17845 17846 17847 17848 1 180.0000771 15.1670000 2
17845 17846 17847 17849 1 180.0000771 15.1670000 2
17848 17846 17847 17849 4 180.0000771 4.6024000 2
17845 17846 17855 17847 4 180.0000771 4.6024000 2
17845 17846 17855 17853 1 180.0000771 15.1670000 2
17845 17846 17855 17856 1 180.0000771 15.1670000 2
17847 17846 17855 17853 1 180.0000771 15.1670000 2
17847 17846 17855 17856 1 180.0000771 15.1670000 2
17848 17847 17846 17855 1 180.0000771 15.1670000 2
17849 17847 17846 17855 1 180.0000771 15.1670000 2
17846 17847 17849 17850 1 180.0000771 15.1670000 2
17846 17847 17849 17851 1 180.0000771 15.1670000 2
17848 17847 17849 17850 1 180.0000771 15.1670000 2
17848 17847 17849 17851 1 180.0000771 15.1670000 2
17847 17849 17851 17852 1 180.0000771 15.1670000 2
17847 17849 17851 17853 1 180.0000771 15.1670000 2
17850 17849 17851 17852 1 180.0000771 15.1670000 2
17850 17849 17851 17853 1 180.0000771 15.1670000 2
17847 17851 17849 17850 4 180.0000771 4.6024000 2
17849 17851 17853 17854 1 180.0000771 15.1670000 2
17849 17851 17853 17855 1 180.0000771 15.1670000 2
17852 17851 17853 17854 1 180.0000771 15.1670000 2
17852 17851 17853 17855 1 180.0000771 15.1670000 2
17849 17853 17851 17852 4 180.0000771 4.6024000 2
17846 17853 17855 17856 4 180.0000771 4.6024000 2
17851 17853 17855 17856 1 180.0000771 15.1670000 2
17854 17853 17855 17856 1 180.0000771 15.1670000 2
17846 17855 17853 17851 1 180.0000771 15.1670000 2
17846 17855 17853 17854 1 180.0000771 15.1670000 2
17851 17855 17853 17854 4 180.0000771 4.6024000 2
17859 17860 17861 17862 1 180.0000771 15.1670000 2
17859 17860 17861 17863 1 180.0000771 15.1670000 2
17862 17860 17861 17863 4 180.0000771 4.6024000 2
17859 17860 17869 17861 4 180.0000771 4.6024000 2
17859 17860 17869 17867 1 180.0000771 15.1670000 2
17859 17860 17869 17870 1 180.0000771 15.1670000 2
17861 17860 17869 17867 1 180.0000771 15.1670000 2
17861 17860 17869 17870 1 180.0000771 15.1670000 2
17862 17861 17860 17869 1 180.0000771 15.1670000 2
17863 17861 17860 17869 1 180.0000771 15.1670000 2
17860 17861 17863 17864 1 180.0000771 15.1670000 2
17860 17861 17863 17865 1 180.0000771 15.1670000 2
17862 17861 17863 17864 1 180.0000771 15.1670000 2
17862 17861 17863 17865 1 180.0000771 15.1670000 2
17861 17863 17865 17866 1 180.0000771 15.1670000 2
17861 17863 17865 17867 1 180.0000771 15.1670000 2
17864 17863 17865 17866 1 180.0000771 15.1670000 2
17864 17863 17865 17867 1 180.0000771 15.1670000 2
17861 17865 17863 17864 4 180.0000771 4.6024000 2
17863 17865 17867 17868 1 180.0000771 15.1670000 2
17863 17865 17867 17869 1 180.0000771 15.1670000 2
17866 17865 17867 17868 1 180.0000771 15.1670000 2
17866 17865 17867 17869 1 180.0000771 15.1670000 2
17863 17867 17865 17866 4 180.0000771 4.6024000 2
17860 17867 17869 17870 4 180.0000771 4.6024000 2
17865 17867 17869 17870 1 180.0000771 15.1670000 2
17868 17867 17869 17870 1 180.0000771 15.1670000 2
17860 17869 17867 17865 1 180.0000771 15.1670000 2
17860 17869 17867 17868 1 180.0000771 15.1670000 2
17865 17869 17867 17868 4 180.0000771 4.6024000 2
17873 17874 17875 17876 1 180.0000771 15.1670000 2
17873 17874 17875 17877 1 180.0000771 15.1670000 2
17876 17874 17875 17877 4 180.0000771 4.6024000 2
17873 17874 17883 17875 4 180.0000771 4.6024000 2
17873 17874 17883 17881 1 180.0000771 15.1670000 2
17873 17874 17883 17884 1 180.0000771 15.1670000 2
17875 17874 17883 17881 1 180.0000771 15.1670000 2
17875 17874 17883 17884 1 180.0000771 15.1670000 2
17876 17875 17874 17883 1 180.0000771 15.1670000 2
17877 17875 17874 17883 1 180.0000771 15.1670000 2
17874 17875 17877 17878 1 180.0000771 15.1670000 2
17874 17875 17877 17879 1 180.0000771 15.1670000 2
17876 17875 17877 17878 1 180.0000771 15.1670000 2
17876 17875 17877 17879 1 180.0000771 15.1670000 2
17875 17877 17879 17880 1 180.0000771 15.1670000 2
17875 17877 17879 17881 1 180.0000771 15.1670000 2
17878 17877 17879 17880 1 180.0000771 15.1670000 2
17878 17877 17879 17881 1 180.0000771 15.1670000 2
17875 17879 17877 17878 4 180.0000771 4.6024000 2
17877 17879 17881 17882 1 180.0000771 15.1670000 2
17877 17879 17881 17883 1 180.0000771 15.1670000 2
17880 17879 17881 17882 1 180.0000771 15.1670000 2
17880 17879 17881 17883 1 180.0000771 15.1670000 2
17877 17881 17879 17880 4 180.0000771 4.6024000 2
17874 17881 17883 17884 4 180.0000771 4.6024000 2
17879 17881 17883 17884 1 180.0000771 15.1670000 2
17882 17881 17883 17884 1 180.0000771 15.1670000 2
17874 17883 17881 17879 1 180.0000771 15.1670000 2
17874 17883 17881 17882 1 180.0000771 15.1670000 2
17879 17883 17881 17882 4 180.0000771 4.6024000 2
17887 17888 17889 17890 1 180.0000771 15.1670000 2
17887 17888 17889 17891 1 180.0000771 15.1670000 2
17890 17888 17889 17891 4 180.0000771 4.6024000 2
17887 17888 17897 17889 4 180.0000771 4.6024000 2
17887 17888 17897 17895 1 180.0000771 15.1670000 2
17887 17888 17897 17898 1 180.0000771 15.1670000 2
17889 17888 17897 17895 1 180.0000771 15.1670000 2
17889 17888 17897 17898 1 180.0000771 15.1670000 2
17890 17889 17888 17897 1 180.0000771 15.1670000 2
17891 17889 17888 17897 1 180.0000771 15.1670000 2
17888 17889 17891 17892 1 180.0000771 15.1670000 2
17888 17889 17891 17893 1 180.0000771 15.1670000 2
17890 17889 17891 17892 1 180.0000771 15.1670000 2
17890 17889 17891 17893 1 180.0000771 15.1670000 2
17889 17891 17893 17894 1 180.0000771 15.1670000 2
17889 17891 17893 17895 1 180.0000771 15.1670000 2
17892 17891 17893 17894 1 180.0000771 15.1670000 2
17892 17891 17893 17895 1 180.0000771 15.1670000 2
17889 17893 17891 17892 4 180.0000771 4.6024000 2
17891 17893 17895 17896 1 180.0000771 15.1670000 2
17891 17893 17895 17897 1 180.0000771 15.1670000 2
17894 17893 17895 17896 1 180.0000771 15.1670000 2
17894 17893 17895 17897 1 180.0000771 15.1670000 2
17891 17895 17893 17894 4 180.0000771 4.6024000 2
17888 17895 17897 17898 4 180.0000771 4.6024000 2
17893 17895 17897 17898 1 180.0000771 15.1670000 2
17896 17895 17897 17898 1 180.0000771 15.1670000 2
17888 17897 17895 17893 1 180.0000771 15.1670000 2
17888 17897 17895 17896 1 180.0000771 15.1670000 2
17893 17897 17895 17896 4 180.0000771 4.6024000 2
17901 17902 17903 17904 1 180.0000771 15.1670000 2
17901 17902 17903 17905 1 180.0000771 15.1670000 2
17904 17902 17903 17905 4 180.0000771 4.6024000 2
17901 17902 17911 17903 4 180.0000771 4.6024000 2
17901 17902 17911 17909 1 180.0000771 15.1670000 2
17901 17902 17911 17912 1 180.0000771 15.1670000 2
17903 17902 17911 17909 1 180.0000771 15.1670000 2
17903 17902 17911 17912 1 180.0000771 15.1670000 2
17904 17903 17902 17911 1 180.0000771 15.1670000 2
17905 17903 17902 17911 1 180.0000771 15.1670000 2
17902 17903 17905 17906 1 180.0000771 15.1670000 2
17902 17903 17905 17907 1 180.0000771 15.1670000 2
17904 17903 17905 17906 1 180.0000771 15.1670000 2
17904 17903 17905 17907 1 180.0000771 15.1670000 2
17903 17905 17907 17908 1 180.0000771 15.1670000 2
17903 17905 17907 17909 1 180.0000771 15.1670000 2
17906 17905 17907 17908 1 180.0000771 15.1670000 2
17906 17905 17907 17909 1 180.0000771 15.1670000 2
17903 17907 17905 17906 4 180.0000771 4.6024000 2
17905 17907 17909 17910 1 180.0000771 15.1670000 2
17905 17907 17909 17911 1 180.0000771 15.1670000 2
17908 17907 17909 17910 1 180.0000771 15.1670000 2
17908 17907 17909 17911 1 180.0000771 15.1670000 2
17905 17909 17907 17908 4 180.0000771 4.6024000 2
17902 17909 17911 17912 4 180.0000771 4.6024000 2
17907 17909 17911 17912 1 180.0000771 15.1670000 2
17910 17909 17911 17912 1 180.0000771 15.1670000 2
17902 17911 17909 17907 1 180.0000771 15.1670000 2
17902 17911 17909 17910 1 180.0000771 15.1670000 2
17907 17911 17909 17910 4 180.0000771 4.6024000 2
17915 17916 17917 17918 1 180.0000771 15.1670000 2
17915 17916 17917 17919 1 180.0000771 15.1670000 2
17918 17916 17917 17919 4 180.0000771 4.6024000 2
17915 17916 17925 17917 4 180.0000771 4.6024000 2
17915 17916 17925 17923 1 180.0000771 15.1670000 2
17915 17916 17925 17926 1 180.0000771 15.1670000 2
17917 17916 17925 17923 1 180.0000771 15.1670000 2
17917 17916 17925 17926 1 180.0000771 15.1670000 2
17918 17917 17916 17925 1 180.0000771 15.1670000 2
17919 17917 17916 17925 1 180.0000771 15.1670000 2
17916 17917 17919 17920 1 180.0000771 15.1670000 2
17916 17917 17919 17921 1 180.0000771 15.1670000 2
17918 17917 17919 17920 1 180.0000771 15.1670000 2
17918 17917 17919 17921 1 180.0000771 15.1670000 2
17917 17919 17921 17922 1 180.0000771 15.1670000 2
17917 17919 17921 17923 1 180.0000771 15.1670000 2
17920 17919 17921 17922 1 180.0000771 15.1670000 2
17920 17919 17921 17923 1 180.0000771 15.1670000 2
17917 17921 17919 17920 4 180.0000771 4.6024000 2
17919 17921 17923 17924 1 180.0000771 15.1670000 2
17919 17921 17923 17925 1 180.0000771 15.1670000 2
17922 17921 17923 17924 1 180.0000771 15.1670000 2
17922 17921 17923 17925 1 180.0000771 15.1670000 2
17919 17923 17921 17922 4 180.0000771 4.6024000 2
17916 17923 17925 17926 4 180.0000771 4.6024000 2
17921 17923 17925 17926 1 180.0000771 15.1670000 2
17924 17923 17925 17926 1 180.0000771 15.1670000 2
17916 17925 17923 17921 1 180.0000771 15.1670000 2
17916 17925 17923 17924 1 180.0000771 15.1670000 2
17921 17925 17923 17924 4 180.0000771 4.6024000 2
17929 17930 17931 17932 1 180.0000771 15.1670000 2
17929 17930 17931 17933 1 180.0000771 15.1670000 2
17932 17930 17931 17933 4 180.0000771 4.6024000 2
17929 17930 17939 17931 4 180.0000771 4.6024000 2
17929 17930 17939 17937 1 180.0000771 15.1670000 2
17929 17930 17939 17940 1 180.0000771 15.1670000 2
17931 17930 17939 17937 1 180.0000771 15.1670000 2
17931 17930 17939 17940 1 180.0000771 15.1670000 2
17932 17931 17930 17939 1 180.0000771 15.1670000 2
17933 17931 17930 17939 1 180.0000771 15.1670000 2
17930 17931 17933 17934 1 180.0000771 15.1670000 2
17930 17931 17933 17935 1 180.0000771 15.1670000 2
17932 17931 17933 17934 1 180.0000771 15.1670000 2
17932 17931 17933 17935 1 180.0000771 15.1670000 2
17931 17933 17935 17936 1 180.0000771 15.1670000 2
17931 17933 17935 17937 1 180.0000771 15.1670000 2
17934 17933 17935 17936 1 180.0000771 15.1670000 2
17934 17933 17935 17937 1 180.0000771 15.1670000 2
17931 17935 17933 17934 4 180.0000771 4.6024000 2
17933 17935 17937 17938 1 180.0000771 15.1670000 2
17933 17935 17937 17939 1 180.0000771 15.1670000 2
17936 17935 17937 17938 1 180.0000771 15.1670000 2
17936 17935 17937 17939 1 180.0000771 15.1670000 2
17933 17937 17935 17936 4 180.0000771 4.6024000 2
17930 17937 17939 17940 4 180.0000771 4.6024000 2
17935 17937 17939 17940 1 180.0000771 15.1670000 2
17938 17937 17939 17940 1 180.0000771 15.1670000 2
17930 17939 17937 17935 1 180.0000771 15.1670000 2
17930 17939 17937 17938 1 180.0000771 15.1670000 2
17935 17939 17937 17938 4 180.0000771 4.6024000 2
17943 17944 17945 17946 1 180.0000771 15.1670000 2
17943 17944 17945 17947 1 180.0000771 15.1670000 2
17946 17944 17945 17947 4 180.0000771 4.6024000 2
17943 17944 17953 17945 4 180.0000771 4.6024000 2
17943 17944 17953 17951 1 180.0000771 15.1670000 2
17943 17944 17953 17954 1 180.0000771 15.1670000 2
17945 17944 17953 17951 1 180.0000771 15.1670000 2
17945 17944 17953 17954 1 180.0000771 15.1670000 2
17946 17945 17944 17953 1 180.0000771 15.1670000 2
17947 17945 17944 17953 1 180.0000771 15.1670000 2
17944 17945 17947 17948 1 180.0000771 15.1670000 2
17944 17945 17947 17949 1 180.0000771 15.1670000 2
17946 17945 17947 17948 1 180.0000771 15.1670000 2
17946 17945 17947 17949 1 180.0000771 15.1670000 2
17945 17947 17949 17950 1 180.0000771 15.1670000 2
17945 17947 17949 17951 1 180.0000771 15.1670000 2
17948 17947 17949 17950 1 180.0000771 15.1670000 2
17948 17947 17949 17951 1 180.0000771 15.1670000 2
17945 17949 17947 17948 4 180.0000771 4.6024000 2
17947 17949 17951 17952 1 180.0000771 15.1670000 2
17947 17949 17951 17953 1 180.0000771 15.1670000 2
17950 17949 17951 17952 1 180.0000771 15.1670000 2
17950 17949 17951 17953 1 180.0000771 15.1670000 2
17947 17951 17949 17950 4 180.0000771 4.6024000 2
17944 17951 17953 17954 4 180.0000771 4.6024000 2
17949 17951 17953 17954 1 180.0000771 15.1670000 2
17952 17951 17953 17954 1 180.0000771 15.1670000 2
17944 17953 17951 17949 1 180.0000771 15.1670000 2
17944 17953 17951 17952 1 180.0000771 15.1670000 2
17949 17953 17951 17952 4 180.0000771 4.6024000 2
17957 17958 17959 17960 1 180.0000771 15.1670000 2
17957 17958 17959 17961 1 180.0000771 15.1670000 2
17960 17958 17959 17961 4 180.0000771 4.6024000 2
17957 17958 17967 17959 4 180.0000771 4.6024000 2
17957 17958 17967 17965 1 180.0000771 15.1670000 2
17957 17958 17967 17968 1 180.0000771 15.1670000 2
17959 17958 17967 17965 1 180.0000771 15.1670000 2
17959 17958 17967 17968 1 180.0000771 15.1670000 2
17960 17959 17958 17967 1 180.0000771 15.1670000 2
17961 17959 17958 17967 1 180.0000771 15.1670000 2
17958 17959 17961 17962 1 180.0000771 15.1670000 2
17958 17959 17961 17963 1 180.0000771 15.1670000 2
17960 17959 17961 17962 1 180.0000771 15.1670000 2
17960 17959 17961 17963 1 180.0000771 15.1670000 2
17959 17961 17963 17964 1 180.0000771 15.1670000 2
17959 17961 17963 17965 1 180.0000771 15.1670000 2
17962 17961 17963 17964 1 180.0000771 15.1670000 2
17962 17961 17963 17965 1 180.0000771 15.1670000 2
17959 17963 17961 17962 4 180.0000771 4.6024000 2
17961 17963 17965 17966 1 180.0000771 15.1670000 2
17961 17963 17965 17967 1 180.0000771 15.1670000 2
17964 17963 17965 17966 1 180.0000771 15.1670000 2
17964 17963 17965 17967 1 180.0000771 15.1670000 2
17961 17965 17963 17964 4 180.0000771 4.6024000 2
17958 17965 17967 17968 4 180.0000771 4.6024000 2
17963 17965 17967 17968 1 180.0000771 15.1670000 2
17966 17965 17967 17968 1 180.0000771 15.1670000 2
17958 17967 17965 17963 1 180.0000771 15.1670000 2
17958 17967 17965 17966 1 180.0000771 15.1670000 2
17963 17967 17965 17966 4 180.0000771 4.6024000 2
17971 17972 17973 17974 1 180.0000771 15.1670000 2
17971 17972 17973 17975 1 180.0000771 15.1670000 2
17974 17972 17973 17975 4 180.0000771 4.6024000 2
17971 17972 17981 17973 4 180.0000771 4.6024000 2
17971 17972 17981 17979 1 180.0000771 15.1670000 2
17971 17972 17981 17982 1 180.0000771 15.1670000 2
17973 17972 17981 17979 1 180.0000771 15.1670000 2
17973 17972 17981 17982 1 180.0000771 15.1670000 2
17974 17973 17972 17981 1 180.0000771 15.1670000 2
17975 17973 17972 17981 1 180.0000771 15.1670000 2
17972 17973 17975 17976 1 180.0000771 15.1670000 2
17972 17973 17975 17977 1 180.0000771 15.1670000 2
17974 17973 17975 17976 1 180.0000771 15.1670000 2
17974 17973 17975 17977 1 180.0000771 15.1670000 2
17973 17975 17977 17978 1 180.0000771 15.1670000 2
17973 17975 17977 17979 1 180.0000771 15.1670000 2
17976 17975 17977 17978 1 180.0000771 15.1670000 2
17976 17975 17977 17979 1 180.0000771 15.1670000 2
17973 17977 17975 17976 4 180.0000771 4.6024000 2
17975 17977 17979 17980 1 180.0000771 15.1670000 2
17975 17977 17979 17981 1 180.0000771 15.1670000 2
17978 17977 17979 17980 1 180.0000771 15.1670000 2
17978 17977 17979 17981 1 180.0000771 15.1670000 2
17975 17979 17977 17978 4 180.0000771 4.6024000 2
17972 17979 17981 17982 4 180.0000771 4.6024000 2
17977 17979 17981 17982 1 180.0000771 15.1670000 2
17980 17979 17981 17982 1 180.0000771 15.1670000 2
17972 17981 17979 17977 1 180.0000771 15.1670000 2
17972 17981 17979 17980 1 180.0000771 15.1670000 2
17977 17981 17979 17980 4 180.0000771 4.6024000 2
17985 17986 17987 17988 1 180.0000771 15.1670000 2
17985 17986 17987 17989 1 180.0000771 15.1670000 2
17988 17986 17987 17989 4 180.0000771 4.6024000 2
17985 17986 17995 17987 4 180.0000771 4.6024000 2
17985 17986 17995 17993 1 180.0000771 15.1670000 2
17985 17986 17995 17996 1 180.0000771 15.1670000 2
17987 17986 17995 17993 1 180.0000771 15.1670000 2
17987 17986 17995 17996 1 180.0000771 15.1670000 2
17988 17987 17986 17995 1 180.0000771 15.1670000 2
17989 17987 17986 17995 1 180.0000771 15.1670000 2
17986 17987 17989 17990 1 180.0000771 15.1670000 2
17986 17987 17989 17991 1 180.0000771 15.1670000 2
17988 17987 17989 17990 1 180.0000771 15.1670000 2
17988 17987 17989 17991 1 180.0000771 15.1670000 2
17987 17989 17991 17992 1 180.0000771 15.1670000 2
17987 17989 17991 17993 1 180.0000771 15.1670000 2
17990 17989 17991 17992 1 180.0000771 15.1670000 2
17990 17989 17991 17993 1 180.0000771 15.1670000 2
17987 17991 17989 17990 4 180.0000771 4.6024000 2
17989 17991 17993 17994 1 180.0000771 15.1670000 2
17989 17991 17993 17995 1 180.0000771 15.1670000 2
17992 17991 17993 17994 1 180.0000771 15.1670000 2
17992 17991 17993 17995 1 180.0000771 15.1670000 2
17989 17993 17991 17992 4 180.0000771 4.6024000 2
17986 17993 17995 17996 4 180.0000771 4.6024000 2
17991 17993 17995 17996 1 180.0000771 15.1670000 2
17994 17993 17995 17996 1 180.0000771 15.1670000 2
17986 17995 17993 17991 1 180.0000771 15.1670000 2
17986 17995 17993 17994 1 180.0000771 15.1670000 2
17991 17995 17993 17994 4 180.0000771 4.6024000 2
17999 18000 18001 18002 1 180.0000771 15.1670000 2
17999 18000 18001 18003 1 180.0000771 15.1670000 2
18002 18000 18001 18003 4 180.0000771 4.6024000 2
17999 18000 18009 18001 4 180.0000771 4.6024000 2
17999 18000 18009 18007 1 180.0000771 15.1670000 2
17999 18000 18009 18010 1 180.0000771 15.1670000 2
18001 18000 18009 18007 1 180.0000771 15.1670000 2
18001 18000 18009 18010 1 180.0000771 15.1670000 2
18002 18001 18000 18009 1 180.0000771 15.1670000 2
18003 18001 18000 18009 1 180.0000771 15.1670000 2
18000 18001 18003 18004 1 180.0000771 15.1670000 2
18000 18001 18003 18005 1 180.0000771 15.1670000 2
18002 18001 18003 18004 1 180.0000771 15.1670000 2
18002 18001 18003 18005 1 180.0000771 15.1670000 2
18001 18003 18005 18006 1 180.0000771 15.1670000 2
18001 18003 18005 18007 1 180.0000771 15.1670000 2
18004 18003 18005 18006 1 180.0000771 15.1670000 2
18004 18003 18005 18007 1 180.0000771 15.1670000 2
18001 18005 18003 18004 4 180.0000771 4.6024000 2
18003 18005 18007 18008 1 180.0000771 15.1670000 2
18003 18005 18007 18009 1 180.0000771 15.1670000 2
18006 18005 18007 18008 1 180.0000771 15.1670000 2
18006 18005 18007 18009 1 180.0000771 15.1670000 2
18003 18007 18005 18006 4 180.0000771 4.6024000 2
18000 18007 18009 18010 4 180.0000771 4.6024000 2
18005 18007 18009 18010 1 180.0000771 15.1670000 2
18008 18007 18009 18010 1 180.0000771 15.1670000 2
18000 18009 18007 18005 1 180.0000771 15.1670000 2
18000 18009 18007 18008 1 180.0000771 15.1670000 2
18005 18009 18007 18008 4 180.0000771 4.6024000 2
18013 18014 18015 18016 1 180.0000771 15.1670000 2
18013 18014 18015 18017 1 180.0000771 15.1670000 2
18016 18014 18015 18017 4 180.0000771 4.6024000 2
18013 18014 18023 18015 4 180.0000771 4.6024000 2
18013 18014 18023 18021 1 180.0000771 15.1670000 2
18013 18014 18023 18024 1 180.0000771 15.1670000 2
18015 18014 18023 18021 1 180.0000771 15.1670000 2
18015 18014 18023 18024 1 180.0000771 15.1670000 2
18016 18015 18014 18023 1 180.0000771 15.1670000 2
18017 18015 18014 18023 1 180.0000771 15.1670000 2
18014 18015 18017 18018 1 180.0000771 15.1670000 2
18014 18015 18017 18019 1 180.0000771 15.1670000 2
18016 18015 18017 18018 1 180.0000771 15.1670000 2
18016 18015 18017 18019 1 180.0000771 15.1670000 2
18015 18017 18019 18020 1 180.0000771 15.1670000 2
18015 18017 18019 18021 1 180.0000771 15.1670000 2
18018 18017 18019 18020 1 180.0000771 15.1670000 2
18018 18017 18019 18021 1 180.0000771 15.1670000 2
18015 18019 18017 18018 4 180.0000771 4.6024000 2
18017 18019 18021 18022 1 180.0000771 15.1670000 2
18017 18019 18021 18023 1 180.0000771 15.1670000 2
18020 18019 18021 18022 1 180.0000771 15.1670000 2
18020 18019 18021 18023 1 180.0000771 15.1670000 2
18017 18021 18019 18020 4 180.0000771 4.6024000 2
18014 18021 18023 18024 4 180.0000771 4.6024000 2
18019 18021 18023 18024 1 180.0000771 15.1670000 2
18022 18021 18023 18024 1 180.0000771 15.1670000 2
18014 18023 18021 18019 1 180.0000771 15.1670000 2
18014 18023 18021 18022 1 180.0000771 15.1670000 2
18019 18023 18021 18022 4 180.0000771 4.6024000 2
18027 18028 18029 18030 1 180.0000771 15.1670000 2
18027 18028 18029 18031 1 180.0000771 15.1670000 2
18030 18028 18029 18031 4 180.0000771 4.6024000 2
18027 18028 18037 18029 4 180.0000771 4.6024000 2
18027 18028 18037 18035 1 180.0000771 15.1670000 2
18027 18028 18037 18038 1 180.0000771 15.1670000 2
18029 18028 18037 18035 1 180.0000771 15.1670000 2
18029 18028 18037 18038 1 180.0000771 15.1670000 2
18030 18029 18028 18037 1 180.0000771 15.1670000 2
18031 18029 18028 18037 1 180.0000771 15.1670000 2
18028 18029 18031 18032 1 180.0000771 15.1670000 2
18028 18029 18031 18033 1 180.0000771 15.1670000 2
18030 18029 18031 18032 1 180.0000771 15.1670000 2
18030 18029 18031 18033 1 180.0000771 15.1670000 2
18029 18031 18033 18034 1 180.0000771 15.1670000 2
18029 18031 18033 18035 1 180.0000771 15.1670000 2
18032 18031 18033 18034 1 180.0000771 15.1670000 2
18032 18031 18033 18035 1 180.0000771 15.1670000 2
18029 18033 18031 18032 4 180.0000771 4.6024000 2
18031 18033 18035 18036 1 180.0000771 15.1670000 2
18031 18033 18035 18037 1 180.0000771 15.1670000 2
18034 18033 18035 18036 1 180.0000771 15.1670000 2
18034 18033 18035 18037 1 180.0000771 15.1670000 2
18031 18035 18033 18034 4 180.0000771 4.6024000 2
18028 18035 18037 18038 4 180.0000771 4.6024000 2
18033 18035 18037 18038 1 180.0000771 15.1670000 2
18036 18035 18037 18038 1 180.0000771 15.1670000 2
18028 18037 18035 18033 1 180.0000771 15.1670000 2
18028 18037 18035 18036 1 180.0000771 15.1670000 2
18033 18037 18035 18036 4 180.0000771 4.6024000 2
18041 18042 18043 18044 1 180.0000771 15.1670000 2
18041 18042 18043 18045 1 180.0000771 15.1670000 2
18044 18042 18043 18045 4 180.0000771 4.6024000 2
18041 18042 18051 18043 4 180.0000771 4.6024000 2
18041 18042 18051 18049 1 180.0000771 15.1670000 2
18041 18042 18051 18052 1 180.0000771 15.1670000 2
18043 18042 18051 18049 1 180.0000771 15.1670000 2
18043 18042 18051 18052 1 180.0000771 15.1670000 2
18044 18043 18042 18051 1 180.0000771 15.1670000 2
18045 18043 18042 18051 1 180.0000771 15.1670000 2
18042 18043 18045 18046 1 180.0000771 15.1670000 2
18042 18043 18045 18047 1 180.0000771 15.1670000 2
18044 18043 18045 18046 1 180.0000771 15.1670000 2
18044 18043 18045 18047 1 180.0000771 15.1670000 2
18043 18045 18047 18048 1 180.0000771 15.1670000 2
18043 18045 18047 18049 1 180.0000771 15.1670000 2
18046 18045 18047 18048 1 180.0000771 15.1670000 2
18046 18045 18047 18049 1 180.0000771 15.1670000 2
18043 18047 18045 18046 4 180.0000771 4.6024000 2
18045 18047 18049 18050 1 180.0000771 15.1670000 2
18045 18047 18049 18051 1 180.0000771 15.1670000 2
18048 18047 18049 18050 1 180.0000771 15.1670000 2
18048 18047 18049 18051 1 180.0000771 15.1670000 2
18045 18049 18047 18048 4 180.0000771 4.6024000 2
18042 18049 18051 18052 4 180.0000771 4.6024000 2
18047 18049 18051 18052 1 180.0000771 15.1670000 2
18050 18049 18051 18052 1 180.0000771 15.1670000 2
18042 18051 18049 18047 1 180.0000771 15.1670000 2
18042 18051 18049 18050 1 180.0000771 15.1670000 2
18047 18051 18049 18050 4 180.0000771 4.6024000 2
18055 18056 18057 18058 1 180.0000771 15.1670000 2
18055 18056 18057 18059 1 180.0000771 15.1670000 2
18058 18056 18057 18059 4 180.0000771 4.6024000 2
18055 18056 18065 18057 4 180.0000771 4.6024000 2
18055 18056 18065 18063 1 180.0000771 15.1670000 2
18055 18056 18065 18066 1 180.0000771 15.1670000 2
18057 18056 18065 18063 1 180.0000771 15.1670000 2
18057 18056 18065 18066 1 180.0000771 15.1670000 2
18058 18057 18056 18065 1 180.0000771 15.1670000 2
18059 18057 18056 18065 1 180.0000771 15.1670000 2
18056 18057 18059 18060 1 180.0000771 15.1670000 2
18056 18057 18059 18061 1 180.0000771 15.1670000 2
18058 18057 18059 18060 1 180.0000771 15.1670000 2
18058 18057 18059 18061 1 180.0000771 15.1670000 2
18057 18059 18061 18062 1 180.0000771 15.1670000 2
18057 18059 18061 18063 1 180.0000771 15.1670000 2
18060 18059 18061 18062 1 180.0000771 15.1670000 2
18060 18059 18061 18063 1 180.0000771 15.1670000 2
18057 18061 18059 18060 4 180.0000771 4.6024000 2
18059 18061 18063 18064 1 180.0000771 15.1670000 2
18059 18061 18063 18065 1 180.0000771 15.1670000 2
18062 18061 18063 18064 1 180.0000771 15.1670000 2
18062 18061 18063 18065 1 180.0000771 15.1670000 2
18059 18063 18061 18062 4 180.0000771 4.6024000 2
18056 18063 18065 18066 4 180.0000771 4.6024000 2
18061 18063 18065 18066 1 180.0000771 15.1670000 2
18064 18063 18065 18066 1 180.0000771 15.1670000 2
18056 18065 18063 18061 1 180.0000771 15.1670000 2
18056 18065 18063 18064 1 180.0000771 15.1670000 2
18061 18065 18063 18064 4 180.0000771 4.6024000 2
18067 18068 18069 18070 1 180.0000771 15.1670000 2
18067 18068 18069 18071 1 180.0000771 15.1670000 2
18070 18068 18069 18071 4 180.0000771 4.6024000 2
18067 18068 18077 18069 4 180.0000771 4.6024000 2
18067 18068 18077 18075 1 180.0000771 15.1670000 2
18067 18068 18077 18078 1 180.0000771 15.1670000 2
18069 18068 18077 18075 1 180.0000771 15.1670000 2
18069 18068 18077 18078 1 180.0000771 15.1670000 2
18070 18069 18068 18077 1 180.0000771 15.1670000 2
18071 18069 18068 18077 1 180.0000771 15.1670000 2
18068 18069 18071 18072 1 180.0000771 15.1670000 2
18068 18069 18071 18073 1 180.0000771 15.1670000 2
18070 18069 18071 18072 1 180.0000771 15.1670000 2
18070 18069 18071 18073 1 180.0000771 15.1670000 2
18069 18071 18073 18074 1 180.0000771 15.1670000 2
18069 18071 18073 18075 1 180.0000771 15.1670000 2
18072 18071 18073 18074 1 180.0000771 15.1670000 2
18072 18071 18073 18075 1 180.0000771 15.1670000 2
18069 18073 18071 18072 4 180.0000771 4.6024000 2
18071 18073 18075 18076 1 180.0000771 15.1670000 2
18071 18073 18075 18077 1 180.0000771 15.1670000 2
18074 18073 18075 18076 1 180.0000771 15.1670000 2
18074 18073 18075 18077 1 180.0000771 15.1670000 2
18071 18075 18073 18074 4 180.0000771 4.6024000 2
18068 18075 18077 18078 4 180.0000771 4.6024000 2
18073 18075 18077 18078 1 180.0000771 15.1670000 2
18076 18075 18077 18078 1 180.0000771 15.1670000 2
18068 18077 18075 18073 1 180.0000771 15.1670000 2
18068 18077 18075 18076 1 180.0000771 15.1670000 2
18073 18077 18075 18076 4 180.0000771 4.6024000 2
18079 18080 18081 18082 1 180.0000771 15.1670000 2
18079 18080 18081 18083 1 180.0000771 15.1670000 2
18082 18080 18081 18083 4 180.0000771 4.6024000 2
18079 18080 18089 18081 4 180.0000771 4.6024000 2
18079 18080 18089 18087 1 180.0000771 15.1670000 2
18079 18080 18089 18090 1 180.0000771 15.1670000 2
18081 18080 18089 18087 1 180.0000771 15.1670000 2
18081 18080 18089 18090 1 180.0000771 15.1670000 2
18082 18081 18080 18089 1 180.0000771 15.1670000 2
18083 18081 18080 18089 1 180.0000771 15.1670000 2
18080 18081 18083 18084 1 180.0000771 15.1670000 2
18080 18081 18083 18085 1 180.0000771 15.1670000 2
18082 18081 18083 18084 1 180.0000771 15.1670000 2
18082 18081 18083 18085 1 180.0000771 15.1670000 2
18081 18083 18085 18086 1 180.0000771 15.1670000 2
18081 18083 18085 18087 1 180.0000771 15.1670000 2
18084 18083 18085 18086 1 180.0000771 15.1670000 2
18084 18083 18085 18087 1 180.0000771 15.1670000 2
18081 18085 18083 18084 4 180.0000771 4.6024000 2
18083 18085 18087 18088 1 180.0000771 15.1670000 2
18083 18085 18087 18089 1 180.0000771 15.1670000 2
18086 18085 18087 18088 1 180.0000771 15.1670000 2
18086 18085 18087 18089 1 180.0000771 15.1670000 2
18083 18087 18085 18086 4 180.0000771 4.6024000 2
18080 18087 18089 18090 4 180.0000771 4.6024000 2
18085 18087 18089 18090 1 180.0000771 15.1670000 2
18088 18087 18089 18090 1 180.0000771 15.1670000 2
18080 18089 18087 18085 1 180.0000771 15.1670000 2
18080 18089 18087 18088 1 180.0000771 15.1670000 2
18085 18089 18087 18088 4 180.0000771 4.6024000 2
18091 18092 18093 18094 1 180.0000771 15.1670000 2
18091 18092 18093 18095 1 180.0000771 15.1670000 2
18094 18092 18093 18095 4 180.0000771 4.6024000 2
18091 18092 18101 18093 4 180.0000771 4.6024000 2
18091 18092 18101 18099 1 180.0000771 15.1670000 2
18091 18092 18101 18102 1 180.0000771 15.1670000 2
18093 18092 18101 18099 1 180.0000771 15.1670000 2
18093 18092 18101 18102 1 180.0000771 15.1670000 2
18094 18093 18092 18101 1 180.0000771 15.1670000 2
18095 18093 18092 18101 1 180.0000771 15.1670000 2
18092 18093 18095 18096 1 180.0000771 15.1670000 2
18092 18093 18095 18097 1 180.0000771 15.1670000 2
18094 18093 18095 18096 1 180.0000771 15.1670000 2
18094 18093 18095 18097 1 180.0000771 15.1670000 2
18093 18095 18097 18098 1 180.0000771 15.1670000 2
18093 18095 18097 18099 1 180.0000771 15.1670000 2
18096 18095 18097 18098 1 180.0000771 15.1670000 2
18096 18095 18097 18099 1 180.0000771 15.1670000 2
18093 18097 18095 18096 4 180.0000771 4.6024000 2
18095 18097 18099 18100 1 180.0000771 15.1670000 2
18095 18097 18099 18101 1 180.0000771 15.1670000 2
18098 18097 18099 18100 1 180.0000771 15.1670000 2
18098 18097 18099 18101 1 180.0000771 15.1670000 2
18095 18099 18097 18098 4 180.0000771 4.6024000 2
18092 18099 18101 18102 4 180.0000771 4.6024000 2
18097 18099 18101 18102 1 180.0000771 15.1670000 2
18100 18099 18101 18102 1 180.0000771 15.1670000 2
18092 18101 18099 18097 1 180.0000771 15.1670000 2
18092 18101 18099 18100 1 180.0000771 15.1670000 2
18097 18101 18099 18100 4 180.0000771 4.6024000 2
18103 18104 18105 18106 1 180.0000771 15.1670000 2
18103 18104 18105 18107 1 180.0000771 15.1670000 2
18106 18104 18105 18107 4 180.0000771 4.6024000 2
18103 18104 18113 18105 4 180.0000771 4.6024000 2
18103 18104 18113 18111 1 180.0000771 15.1670000 2
18103 18104 18113 18114 1 180.0000771 15.1670000 2
18105 18104 18113 18111 1 180.0000771 15.1670000 2
18105 18104 18113 18114 1 180.0000771 15.1670000 2
18106 18105 18104 18113 1 180.0000771 15.1670000 2
18107 18105 18104 18113 1 180.0000771 15.1670000 2
18104 18105 18107 18108 1 180.0000771 15.1670000 2
18104 18105 18107 18109 1 180.0000771 15.1670000 2
18106 18105 18107 18108 1 180.0000771 15.1670000 2
18106 18105 18107 18109 1 180.0000771 15.1670000 2
18105 18107 18109 18110 1 180.0000771 15.1670000 2
18105 18107 18109 18111 1 180.0000771 15.1670000 2
18108 18107 18109 18110 1 180.0000771 15.1670000 2
18108 18107 18109 18111 1 180.0000771 15.1670000 2
18105 18109 18107 18108 4 180.0000771 4.6024000 2
18107 18109 18111 18112 1 180.0000771 15.1670000 2
18107 18109 18111 18113 1 180.0000771 15.1670000 2
18110 18109 18111 18112 1 180.0000771 15.1670000 2
18110 18109 18111 18113 1 180.0000771 15.1670000 2
18107 18111 18109 18110 4 180.0000771 4.6024000 2
18104 18111 18113 18114 4 180.0000771 4.6024000 2
18109 18111 18113 18114 1 180.0000771 15.1670000 2
18112 18111 18113 18114 1 180.0000771 15.1670000 2
18104 18113 18111 18109 1 180.0000771 15.1670000 2
18104 18113 18111 18112 1 180.0000771 15.1670000 2
18109 18113 18111 18112 4 180.0000771 4.6024000 2
18115 18116 18117 18118 1 180.0000771 15.1670000 2
18115 18116 18117 18119 1 180.0000771 15.1670000 2
18118 18116 18117 18119 4 180.0000771 4.6024000 2
18115 18116 18125 18117 4 180.0000771 4.6024000 2
18115 18116 18125 18123 1 180.0000771 15.1670000 2
18115 18116 18125 18126 1 180.0000771 15.1670000 2
18117 18116 18125 18123 1 180.0000771 15.1670000 2
18117 18116 18125 18126 1 180.0000771 15.1670000 2
18118 18117 18116 18125 1 180.0000771 15.1670000 2
18119 18117 18116 18125 1 180.0000771 15.1670000 2
18116 18117 18119 18120 1 180.0000771 15.1670000 2
18116 18117 18119 18121 1 180.0000771 15.1670000 2
18118 18117 18119 18120 1 180.0000771 15.1670000 2
18118 18117 18119 18121 1 180.0000771 15.1670000 2
18117 18119 18121 18122 1 180.0000771 15.1670000 2
18117 18119 18121 18123 1 180.0000771 15.1670000 2
18120 18119 18121 18122 1 180.0000771 15.1670000 2
18120 18119 18121 18123 1 180.0000771 15.1670000 2
18117 18121 18119 18120 4 180.0000771 4.6024000 2
18119 18121 18123 18124 1 180.0000771 15.1670000 2
18119 18121 18123 18125 1 180.0000771 15.1670000 2
18122 18121 18123 18124 1 180.0000771 15.1670000 2
18122 18121 18123 18125 1 180.0000771 15.1670000 2
18119 18123 18121 18122 4 180.0000771 4.6024000 2
18116 18123 18125 18126 4 180.0000771 4.6024000 2
18121 18123 18125 18126 1 180.0000771 15.1670000 2
18124 18123 18125 18126 1 180.0000771 15.1670000 2
18116 18125 18123 18121 1 180.0000771 15.1670000 2
18116 18125 18123 18124 1 180.0000771 15.1670000 2
18121 18125 18123 18124 4 180.0000771 4.6024000 2
18127 18128 18129 18130 1 180.0000771 15.1670000 2
18127 18128 18129 18131 1 180.0000771 15.1670000 2
18130 18128 18129 18131 4 180.0000771 4.6024000 2
18127 18128 18137 18129 4 180.0000771 4.6024000 2
18127 18128 18137 18135 1 180.0000771 15.1670000 2
18127 18128 18137 18138 1 180.0000771 15.1670000 2
18129 18128 18137 18135 1 180.0000771 15.1670000 2
18129 18128 18137 18138 1 180.0000771 15.1670000 2
18130 18129 18128 18137 1 180.0000771 15.1670000 2
18131 18129 18128 18137 1 180.0000771 15.1670000 2
18128 18129 18131 18132 1 180.0000771 15.1670000 2
18128 18129 18131 18133 1 180.0000771 15.1670000 2
18130 18129 18131 18132 1 180.0000771 15.1670000 2
18130 18129 18131 18133 1 180.0000771 15.1670000 2
18129 18131 18133 18134 1 180.0000771 15.1670000 2
18129 18131 18133 18135 1 180.0000771 15.1670000 2
18132 18131 18133 18134 1 180.0000771 15.1670000 2
18132 18131 18133 18135 1 180.0000771 15.1670000 2
18129 18133 18131 18132 4 180.0000771 4.6024000 2
18131 18133 18135 18136 1 180.0000771 15.1670000 2
18131 18133 18135 18137 1 180.0000771 15.1670000 2
18134 18133 18135 18136 1 180.0000771 15.1670000 2
18134 18133 18135 18137 1 180.0000771 15.1670000 2
18131 18135 18133 18134 4 180.0000771 4.6024000 2
18128 18135 18137 18138 4 180.0000771 4.6024000 2
18133 18135 18137 18138 1 180.0000771 15.1670000 2
18136 18135 18137 18138 1 180.0000771 15.1670000 2
18128 18137 18135 18133 1 180.0000771 15.1670000 2
18128 18137 18135 18136 1 180.0000771 15.1670000 2
18133 18137 18135 18136 4 180.0000771 4.6024000 2
18139 18140 18141 18142 1 180.0000771 15.1670000 2
18139 18140 18141 18143 1 180.0000771 15.1670000 2
18142 18140 18141 18143 4 180.0000771 4.6024000 2
18139 18140 18149 18141 4 180.0000771 4.6024000 2
18139 18140 18149 18147 1 180.0000771 15.1670000 2
18139 18140 18149 18150 1 180.0000771 15.1670000 2
18141 18140 18149 18147 1 180.0000771 15.1670000 2
18141 18140 18149 18150 1 180.0000771 15.1670000 2
18142 18141 18140 18149 1 180.0000771 15.1670000 2
18143 18141 18140 18149 1 180.0000771 15.1670000 2
18140 18141 18143 18144 1 180.0000771 15.1670000 2
18140 18141 18143 18145 1 180.0000771 15.1670000 2
18142 18141 18143 18144 1 180.0000771 15.1670000 2
18142 18141 18143 18145 1 180.0000771 15.1670000 2
18141 18143 18145 18146 1 180.0000771 15.1670000 2
18141 18143 18145 18147 1 180.0000771 15.1670000 2
18144 18143 18145 18146 1 180.0000771 15.1670000 2
18144 18143 18145 18147 1 180.0000771 15.1670000 2
18141 18145 18143 18144 4 180.0000771 4.6024000 2
18143 18145 18147 18148 1 180.0000771 15.1670000 2
18143 18145 18147 18149 1 180.0000771 15.1670000 2
18146 18145 18147 18148 1 180.0000771 15.1670000 2
18146 18145 18147 18149 1 180.0000771 15.1670000 2
18143 18147 18145 18146 4 180.0000771 4.6024000 2
18140 18147 18149 18150 4 180.0000771 4.6024000 2
18145 18147 18149 18150 1 180.0000771 15.1670000 2
18148 18147 18149 18150 1 180.0000771 15.1670000 2
18140 18149 18147 18145 1 180.0000771 15.1670000 2
18140 18149 18147 18148 1 180.0000771 15.1670000 2
18145 18149 18147 18148 4 180.0000771 4.6024000 2
18151 18152 18153 18154 1 180.0000771 15.1670000 2
18151 18152 18153 18155 1 180.0000771 15.1670000 2
18154 18152 18153 18155 4 180.0000771 4.6024000 2
18151 18152 18161 18153 4 180.0000771 4.6024000 2
18151 18152 18161 18159 1 180.0000771 15.1670000 2
18151 18152 18161 18162 1 180.0000771 15.1670000 2
18153 18152 18161 18159 1 180.0000771 15.1670000 2
18153 18152 18161 18162 1 180.0000771 15.1670000 2
18154 18153 18152 18161 1 180.0000771 15.1670000 2
18155 18153 18152 18161 1 180.0000771 15.1670000 2
18152 18153 18155 18156 1 180.0000771 15.1670000 2
18152 18153 18155 18157 1 180.0000771 15.1670000 2
18154 18153 18155 18156 1 180.0000771 15.1670000 2
18154 18153 18155 18157 1 180.0000771 15.1670000 2
18153 18155 18157 18158 1 180.0000771 15.1670000 2
18153 18155 18157 18159 1 180.0000771 15.1670000 2
18156 18155 18157 18158 1 180.0000771 15.1670000 2
18156 18155 18157 18159 1 180.0000771 15.1670000 2
18153 18157 18155 18156 4 180.0000771 4.6024000 2
18155 18157 18159 18160 1 180.0000771 15.1670000 2
18155 18157 18159 18161 1 180.0000771 15.1670000 2
18158 18157 18159 18160 1 180.0000771 15.1670000 2
18158 18157 18159 18161 1 180.0000771 15.1670000 2
18155 18159 18157 18158 4 180.0000771 4.6024000 2
18152 18159 18161 18162 4 180.0000771 4.6024000 2
18157 18159 18161 18162 1 180.0000771 15.1670000 2
18160 18159 18161 18162 1 180.0000771 15.1670000 2
18152 18161 18159 18157 1 180.0000771 15.1670000 2
18152 18161 18159 18160 1 180.0000771 15.1670000 2
18157 18161 18159 18160 4 180.0000771 4.6024000 2
18163 18164 18165 18166 1 180.0000771 15.1670000 2
18163 18164 18165 18167 1 180.0000771 15.1670000 2
18166 18164 18165 18167 4 180.0000771 4.6024000 2
18163 18164 18173 18165 4 180.0000771 4.6024000 2
18163 18164 18173 18171 1 180.0000771 15.1670000 2
18163 18164 18173 18174 1 180.0000771 15.1670000 2
18165 18164 18173 18171 1 180.0000771 15.1670000 2
18165 18164 18173 18174 1 180.0000771 15.1670000 2
18166 18165 18164 18173 1 180.0000771 15.1670000 2
18167 18165 18164 18173 1 180.0000771 15.1670000 2
18164 18165 18167 18168 1 180.0000771 15.1670000 2
18164 18165 18167 18169 1 180.0000771 15.1670000 2
18166 18165 18167 18168 1 180.0000771 15.1670000 2
18166 18165 18167 18169 1 180.0000771 15.1670000 2
18165 18167 18169 18170 1 180.0000771 15.1670000 2
18165 18167 18169 18171 1 180.0000771 15.1670000 2
18168 18167 18169 18170 1 180.0000771 15.1670000 2
18168 18167 18169 18171 1 180.0000771 15.1670000 2
18165 18169 18167 18168 4 180.0000771 4.6024000 2
18167 18169 18171 18172 1 180.0000771 15.1670000 2
18167 18169 18171 18173 1 180.0000771 15.1670000 2
18170 18169 18171 18172 1 180.0000771 15.1670000 2
18170 18169 18171 18173 1 180.0000771 15.1670000 2
18167 18171 18169 18170 4 180.0000771 4.6024000 2
18164 18171 18173 18174 4 180.0000771 4.6024000 2
18169 18171 18173 18174 1 180.0000771 15.1670000 2
18172 18171 18173 18174 1 180.0000771 15.1670000 2
18164 18173 18171 18169 1 180.0000771 15.1670000 2
18164 18173 18171 18172 1 180.0000771 15.1670000 2
18169 18173 18171 18172 4 180.0000771 4.6024000 2
18175 18176 18177 18178 1 180.0000771 15.1670000 2
18175 18176 18177 18179 1 180.0000771 15.1670000 2
18178 18176 18177 18179 4 180.0000771 4.6024000 2
18175 18176 18185 18177 4 180.0000771 4.6024000 2
18175 18176 18185 18183 1 180.0000771 15.1670000 2
18175 18176 18185 18186 1 180.0000771 15.1670000 2
18177 18176 18185 18183 1 180.0000771 15.1670000 2
18177 18176 18185 18186 1 180.0000771 15.1670000 2
18178 18177 18176 18185 1 180.0000771 15.1670000 2
18179 18177 18176 18185 1 180.0000771 15.1670000 2
18176 18177 18179 18180 1 180.0000771 15.1670000 2
18176 18177 18179 18181 1 180.0000771 15.1670000 2
18178 18177 18179 18180 1 180.0000771 15.1670000 2
18178 18177 18179 18181 1 180.0000771 15.1670000 2
18177 18179 18181 18182 1 180.0000771 15.1670000 2
18177 18179 18181 18183 1 180.0000771 15.1670000 2
18180 18179 18181 18182 1 180.0000771 15.1670000 2
18180 18179 18181 18183 1 180.0000771 15.1670000 2
18177 18181 18179 18180 4 180.0000771 4.6024000 2
18179 18181 18183 18184 1 180.0000771 15.1670000 2
18179 18181 18183 18185 1 180.0000771 15.1670000 2
18182 18181 18183 18184 1 180.0000771 15.1670000 2
18182 18181 18183 18185 1 180.0000771 15.1670000 2
18179 18183 18181 18182 4 180.0000771 4.6024000 2
18176 18183 18185 18186 4 180.0000771 4.6024000 2
18181 18183 18185 18186 1 180.0000771 15.1670000 2
18184 18183 18185 18186 1 180.0000771 15.1670000 2
18176 18185 18183 18181 1 180.0000771 15.1670000 2
18176 18185 18183 18184 1 180.0000771 15.1670000 2
18181 18185 18183 18184 4 180.0000771 4.6024000 2
18187 18188 18189 18190 1 180.0000771 15.1670000 2
18187 18188 18189 18191 1 180.0000771 15.1670000 2
18190 18188 18189 18191 4 180.0000771 4.6024000 2
18187 18188 18197 18189 4 180.0000771 4.6024000 2
18187 18188 18197 18195 1 180.0000771 15.1670000 2
18187 18188 18197 18198 1 180.0000771 15.1670000 2
18189 18188 18197 18195 1 180.0000771 15.1670000 2
18189 18188 18197 18198 1 180.0000771 15.1670000 2
18190 18189 18188 18197 1 180.0000771 15.1670000 2
18191 18189 18188 18197 1 180.0000771 15.1670000 2
18188 18189 18191 18192 1 180.0000771 15.1670000 2
18188 18189 18191 18193 1 180.0000771 15.1670000 2
18190 18189 18191 18192 1 180.0000771 15.1670000 2
18190 18189 18191 18193 1 180.0000771 15.1670000 2
18189 18191 18193 18194 1 180.0000771 15.1670000 2
18189 18191 18193 18195 1 180.0000771 15.1670000 2
18192 18191 18193 18194 1 180.0000771 15.1670000 2
18192 18191 18193 18195 1 180.0000771 15.1670000 2
18189 18193 18191 18192 4 180.0000771 4.6024000 2
18191 18193 18195 18196 1 180.0000771 15.1670000 2
18191 18193 18195 18197 1 180.0000771 15.1670000 2
18194 18193 18195 18196 1 180.0000771 15.1670000 2
18194 18193 18195 18197 1 180.0000771 15.1670000 2
18191 18195 18193 18194 4 180.0000771 4.6024000 2
18188 18195 18197 18198 4 180.0000771 4.6024000 2
18193 18195 18197 18198 1 180.0000771 15.1670000 2
18196 18195 18197 18198 1 180.0000771 15.1670000 2
18188 18197 18195 18193 1 180.0000771 15.1670000 2
18188 18197 18195 18196 1 180.0000771 15.1670000 2
18193 18197 18195 18196 4 180.0000771 4.6024000 2
18199 18200 18201 18202 1 180.0000771 15.1670000 2
18199 18200 18201 18203 1 180.0000771 15.1670000 2
18202 18200 18201 18203 4 180.0000771 4.6024000 2
18199 18200 18209 18201 4 180.0000771 4.6024000 2
18199 18200 18209 18207 1 180.0000771 15.1670000 2
18199 18200 18209 18210 1 180.0000771 15.1670000 2
18201 18200 18209 18207 1 180.0000771 15.1670000 2
18201 18200 18209 18210 1 180.0000771 15.1670000 2
18202 18201 18200 18209 1 180.0000771 15.1670000 2
18203 18201 18200 18209 1 180.0000771 15.1670000 2
18200 18201 18203 18204 1 180.0000771 15.1670000 2
18200 18201 18203 18205 1 180.0000771 15.1670000 2
18202 18201 18203 18204 1 180.0000771 15.1670000 2
18202 18201 18203 18205 1 180.0000771 15.1670000 2
18201 18203 18205 18206 1 180.0000771 15.1670000 2
18201 18203 18205 18207 1 180.0000771 15.1670000 2
18204 18203 18205 18206 1 180.0000771 15.1670000 2
18204 18203 18205 18207 1 180.0000771 15.1670000 2
18201 18205 18203 18204 4 180.0000771 4.6024000 2
18203 18205 18207 18208 1 180.0000771 15.1670000 2
18203 18205 18207 18209 1 180.0000771 15.1670000 2
18206 18205 18207 18208 1 180.0000771 15.1670000 2
18206 18205 18207 18209 1 180.0000771 15.1670000 2
18203 18207 18205 18206 4 180.0000771 4.6024000 2
18200 18207 18209 18210 4 180.0000771 4.6024000 2
18205 18207 18209 18210 1 180.0000771 15.1670000 2
18208 18207 18209 18210 1 180.0000771 15.1670000 2
18200 18209 18207 18205 1 180.0000771 15.1670000 2
18200 18209 18207 18208 1 180.0000771 15.1670000 2
18205 18209 18207 18208 4 180.0000771 4.6024000 2
18211 18212 18213 18214 1 180.0000771 15.1670000 2
18211 18212 18213 18215 1 180.0000771 15.1670000 2
18214 18212 18213 18215 4 180.0000771 4.6024000 2
18211 18212 18221 18213 4 180.0000771 4.6024000 2
18211 18212 18221 18219 1 180.0000771 15.1670000 2
18211 18212 18221 18222 1 180.0000771 15.1670000 2
18213 18212 18221 18219 1 180.0000771 15.1670000 2
18213 18212 18221 18222 1 180.0000771 15.1670000 2
18214 18213 18212 18221 1 180.0000771 15.1670000 2
18215 18213 18212 18221 1 180.0000771 15.1670000 2
18212 18213 18215 18216 1 180.0000771 15.1670000 2
18212 18213 18215 18217 1 180.0000771 15.1670000 2
18214 18213 18215 18216 1 180.0000771 15.1670000 2
18214 18213 18215 18217 1 180.0000771 15.1670000 2
18213 18215 18217 18218 1 180.0000771 15.1670000 2
18213 18215 18217 18219 1 180.0000771 15.1670000 2
18216 18215 18217 18218 1 180.0000771 15.1670000 2
18216 18215 18217 18219 1 180.0000771 15.1670000 2
18213 18217 18215 18216 4 180.0000771 4.6024000 2
18215 18217 18219 18220 1 180.0000771 15.1670000 2
18215 18217 18219 18221 1 180.0000771 15.1670000 2
18218 18217 18219 18220 1 180.0000771 15.1670000 2
18218 18217 18219 18221 1 180.0000771 15.1670000 2
18215 18219 18217 18218 4 180.0000771 4.6024000 2
18212 18219 18221 18222 4 180.0000771 4.6024000 2
18217 18219 18221 18222 1 180.0000771 15.1670000 2
18220 18219 18221 18222 1 180.0000771 15.1670000 2
18212 18221 18219 18217 1 180.0000771 15.1670000 2
18212 18221 18219 18220 1 180.0000771 15.1670000 2
18217 18221 18219 18220 4 180.0000771 4.6024000 2
18223 18224 18225 18226 1 180.0000771 15.1670000 2
18223 18224 18225 18227 1 180.0000771 15.1670000 2
18226 18224 18225 18227 4 180.0000771 4.6024000 2
18223 18224 18233 18225 4 180.0000771 4.6024000 2
18223 18224 18233 18231 1 180.0000771 15.1670000 2
18223 18224 18233 18234 1 180.0000771 15.1670000 2
18225 18224 18233 18231 1 180.0000771 15.1670000 2
18225 18224 18233 18234 1 180.0000771 15.1670000 2
18226 18225 18224 18233 1 180.0000771 15.1670000 2
18227 18225 18224 18233 1 180.0000771 15.1670000 2
18224 18225 18227 18228 1 180.0000771 15.1670000 2
18224 18225 18227 18229 1 180.0000771 15.1670000 2
18226 18225 18227 18228 1 180.0000771 15.1670000 2
18226 18225 18227 18229 1 180.0000771 15.1670000 2
18225 18227 18229 18230 1 180.0000771 15.1670000 2
18225 18227 18229 18231 1 180.0000771 15.1670000 2
18228 18227 18229 18230 1 180.0000771 15.1670000 2
18228 18227 18229 18231 1 180.0000771 15.1670000 2
18225 18229 18227 18228 4 180.0000771 4.6024000 2
18227 18229 18231 18232 1 180.0000771 15.1670000 2
18227 18229 18231 18233 1 180.0000771 15.1670000 2
18230 18229 18231 18232 1 180.0000771 15.1670000 2
18230 18229 18231 18233 1 180.0000771 15.1670000 2
18227 18231 18229 18230 4 180.0000771 4.6024000 2
18224 18231 18233 18234 4 180.0000771 4.6024000 2
18229 18231 18233 18234 1 180.0000771 15.1670000 2
18232 18231 18233 18234 1 180.0000771 15.1670000 2
18224 18233 18231 18229 1 180.0000771 15.1670000 2
18224 18233 18231 18232 1 180.0000771 15.1670000 2
18229 18233 18231 18232 4 180.0000771 4.6024000 2
18235 18236 18237 18238 1 180.0000771 15.1670000 2
18235 18236 18237 18239 1 180.0000771 15.1670000 2
18238 18236 18237 18239 4 180.0000771 4.6024000 2
18235 18236 18245 18237 4 180.0000771 4.6024000 2
18235 18236 18245 18243 1 180.0000771 15.1670000 2
18235 18236 18245 18246 1 180.0000771 15.1670000 2
18237 18236 18245 18243 1 180.0000771 15.1670000 2
18237 18236 18245 18246 1 180.0000771 15.1670000 2
18238 18237 18236 18245 1 180.0000771 15.1670000 2
18239 18237 18236 18245 1 180.0000771 15.1670000 2
18236 18237 18239 18240 1 180.0000771 15.1670000 2
18236 18237 18239 18241 1 180.0000771 15.1670000 2
18238 18237 18239 18240 1 180.0000771 15.1670000 2
18238 18237 18239 18241 1 180.0000771 15.1670000 2
18237 18239 18241 18242 1 180.0000771 15.1670000 2
18237 18239 18241 18243 1 180.0000771 15.1670000 2
18240 18239 18241 18242 1 180.0000771 15.1670000 2
18240 18239 18241 18243 1 180.0000771 15.1670000 2
18237 18241 18239 18240 4 180.0000771 4.6024000 2
18239 18241 18243 18244 1 180.0000771 15.1670000 2
18239 18241 18243 18245 1 180.0000771 15.1670000 2
18242 18241 18243 18244 1 180.0000771 15.1670000 2
18242 18241 18243 18245 1 180.0000771 15.1670000 2
18239 18243 18241 18242 4 180.0000771 4.6024000 2
18236 18243 18245 18246 4 180.0000771 4.6024000 2
18241 18243 18245 18246 1 180.0000771 15.1670000 2
18244 18243 18245 18246 1 180.0000771 15.1670000 2
18236 18245 18243 18241 1 180.0000771 15.1670000 2
18236 18245 18243 18244 1 180.0000771 15.1670000 2
18241 18245 18243 18244 4 180.0000771 4.6024000 2
18247 18248 18249 18250 1 180.0000771 15.1670000 2
18247 18248 18249 18251 1 180.0000771 15.1670000 2
18250 18248 18249 18251 4 180.0000771 4.6024000 2
18247 18248 18257 18249 4 180.0000771 4.6024000 2
18247 18248 18257 18255 1 180.0000771 15.1670000 2
18247 18248 18257 18258 1 180.0000771 15.1670000 2
18249 18248 18257 18255 1 180.0000771 15.1670000 2
18249 18248 18257 18258 1 180.0000771 15.1670000 2
18250 18249 18248 18257 1 180.0000771 15.1670000 2
18251 18249 18248 18257 1 180.0000771 15.1670000 2
18248 18249 18251 18252 1 180.0000771 15.1670000 2
18248 18249 18251 18253 1 180.0000771 15.1670000 2
18250 18249 18251 18252 1 180.0000771 15.1670000 2
18250 18249 18251 18253 1 180.0000771 15.1670000 2
18249 18251 18253 18254 1 180.0000771 15.1670000 2
18249 18251 18253 18255 1 180.0000771 15.1670000 2
18252 18251 18253 18254 1 180.0000771 15.1670000 2
18252 18251 18253 18255 1 180.0000771 15.1670000 2
18249 18253 18251 18252 4 180.0000771 4.6024000 2
18251 18253 18255 18256 1 180.0000771 15.1670000 2
18251 18253 18255 18257 1 180.0000771 15.1670000 2
18254 18253 18255 18256 1 180.0000771 15.1670000 2
18254 18253 18255 18257 1 180.0000771 15.1670000 2
18251 18255 18253 18254 4 180.0000771 4.6024000 2
18248 18255 18257 18258 4 180.0000771 4.6024000 2
18253 18255 18257 18258 1 180.0000771 15.1670000 2
18256 18255 18257 18258 1 180.0000771 15.1670000 2
18248 18257 18255 18253 1 180.0000771 15.1670000 2
18248 18257 18255 18256 1 180.0000771 15.1670000 2
18253 18257 18255 18256 4 180.0000771 4.6024000 2
18259 18260 18261 18262 1 180.0000771 15.1670000 2
18259 18260 18261 18263 1 180.0000771 15.1670000 2
18262 18260 18261 18263 4 180.0000771 4.6024000 2
18259 18260 18269 18261 4 180.0000771 4.6024000 2
18259 18260 18269 18267 1 180.0000771 15.1670000 2
18259 18260 18269 18270 1 180.0000771 15.1670000 2
18261 18260 18269 18267 1 180.0000771 15.1670000 2
18261 18260 18269 18270 1 180.0000771 15.1670000 2
18262 18261 18260 18269 1 180.0000771 15.1670000 2
18263 18261 18260 18269 1 180.0000771 15.1670000 2
18260 18261 18263 18264 1 180.0000771 15.1670000 2
18260 18261 18263 18265 1 180.0000771 15.1670000 2
18262 18261 18263 18264 1 180.0000771 15.1670000 2
18262 18261 18263 18265 1 180.0000771 15.1670000 2
18261 18263 18265 18266 1 180.0000771 15.1670000 2
18261 18263 18265 18267 1 180.0000771 15.1670000 2
18264 18263 18265 18266 1 180.0000771 15.1670000 2
18264 18263 18265 18267 1 180.0000771 15.1670000 2
18261 18265 18263 18264 4 180.0000771 4.6024000 2
18263 18265 18267 18268 1 180.0000771 15.1670000 2
18263 18265 18267 18269 1 180.0000771 15.1670000 2
18266 18265 18267 18268 1 180.0000771 15.1670000 2
18266 18265 18267 18269 1 180.0000771 15.1670000 2
18263 18267 18265 18266 4 180.0000771 4.6024000 2
18260 18267 18269 18270 4 180.0000771 4.6024000 2
18265 18267 18269 18270 1 180.0000771 15.1670000 2
18268 18267 18269 18270 1 180.0000771 15.1670000 2
18260 18269 18267 18265 1 180.0000771 15.1670000 2
18260 18269 18267 18268 1 180.0000771 15.1670000 2
18265 18269 18267 18268 4 180.0000771 4.6024000 2
18271 18272 18273 18274 1 180.0000771 15.1670000 2
18271 18272 18273 18275 1 180.0000771 15.1670000 2
18274 18272 18273 18275 4 180.0000771 4.6024000 2
18271 18272 18281 18273 4 180.0000771 4.6024000 2
18271 18272 18281 18279 1 180.0000771 15.1670000 2
18271 18272 18281 18282 1 180.0000771 15.1670000 2
18273 18272 18281 18279 1 180.0000771 15.1670000 2
18273 18272 18281 18282 1 180.0000771 15.1670000 2
18274 18273 18272 18281 1 180.0000771 15.1670000 2
18275 18273 18272 18281 1 180.0000771 15.1670000 2
18272 18273 18275 18276 1 180.0000771 15.1670000 2
18272 18273 18275 18277 1 180.0000771 15.1670000 2
18274 18273 18275 18276 1 180.0000771 15.1670000 2
18274 18273 18275 18277 1 180.0000771 15.1670000 2
18273 18275 18277 18278 1 180.0000771 15.1670000 2
18273 18275 18277 18279 1 180.0000771 15.1670000 2
18276 18275 18277 18278 1 180.0000771 15.1670000 2
18276 18275 18277 18279 1 180.0000771 15.1670000 2
18273 18277 18275 18276 4 180.0000771 4.6024000 2
18275 18277 18279 18280 1 180.0000771 15.1670000 2
18275 18277 18279 18281 1 180.0000771 15.1670000 2
18278 18277 18279 18280 1 180.0000771 15.1670000 2
18278 18277 18279 18281 1 180.0000771 15.1670000 2
18275 18279 18277 18278 4 180.0000771 4.6024000 2
18272 18279 18281 18282 4 180.0000771 4.6024000 2
18277 18279 18281 18282 1 180.0000771 15.1670000 2
18280 18279 18281 18282 1 180.0000771 15.1670000 2
18272 18281 18279 18277 1 180.0000771 15.1670000 2
18272 18281 18279 18280 1 180.0000771 15.1670000 2
18277 18281 18279 18280 4 180.0000771 4.6024000 2
18283 18284 18285 18286 1 180.0000771 15.1670000 2
18283 18284 18285 18287 1 180.0000771 15.1670000 2
18286 18284 18285 18287 4 180.0000771 4.6024000 2
18283 18284 18293 18285 4 180.0000771 4.6024000 2
18283 18284 18293 18291 1 180.0000771 15.1670000 2
18283 18284 18293 18294 1 180.0000771 15.1670000 2
18285 18284 18293 18291 1 180.0000771 15.1670000 2
18285 18284 18293 18294 1 180.0000771 15.1670000 2
18286 18285 18284 18293 1 180.0000771 15.1670000 2
18287 18285 18284 18293 1 180.0000771 15.1670000 2
18284 18285 18287 18288 1 180.0000771 15.1670000 2
18284 18285 18287 18289 1 180.0000771 15.1670000 2
18286 18285 18287 18288 1 180.0000771 15.1670000 2
18286 18285 18287 18289 1 180.0000771 15.1670000 2
18285 18287 18289 18290 1 180.0000771 15.1670000 2
18285 18287 18289 18291 1 180.0000771 15.1670000 2
18288 18287 18289 18290 1 180.0000771 15.1670000 2
18288 18287 18289 18291 1 180.0000771 15.1670000 2
18285 18289 18287 18288 4 180.0000771 4.6024000 2
18287 18289 18291 18292 1 180.0000771 15.1670000 2
18287 18289 18291 18293 1 180.0000771 15.1670000 2
18290 18289 18291 18292 1 180.0000771 15.1670000 2
18290 18289 18291 18293 1 180.0000771 15.1670000 2
18287 18291 18289 18290 4 180.0000771 4.6024000 2
18284 18291 18293 18294 4 180.0000771 4.6024000 2
18289 18291 18293 18294 1 180.0000771 15.1670000 2
18292 18291 18293 18294 1 180.0000771 15.1670000 2
18284 18293 18291 18289 1 180.0000771 15.1670000 2
18284 18293 18291 18292 1 180.0000771 15.1670000 2
18289 18293 18291 18292 4 180.0000771 4.6024000 2
18295 18296 18297 18298 1 180.0000771 15.1670000 2
18295 18296 18297 18299 1 180.0000771 15.1670000 2
18298 18296 18297 18299 4 180.0000771 4.6024000 2
18295 18296 18305 18297 4 180.0000771 4.6024000 2
18295 18296 18305 18303 1 180.0000771 15.1670000 2
18295 18296 18305 18306 1 180.0000771 15.1670000 2
18297 18296 18305 18303 1 180.0000771 15.1670000 2
18297 18296 18305 18306 1 180.0000771 15.1670000 2
18298 18297 18296 18305 1 180.0000771 15.1670000 2
18299 18297 18296 18305 1 180.0000771 15.1670000 2
18296 18297 18299 18300 1 180.0000771 15.1670000 2
18296 18297 18299 18301 1 180.0000771 15.1670000 2
18298 18297 18299 18300 1 180.0000771 15.1670000 2
18298 18297 18299 18301 1 180.0000771 15.1670000 2
18297 18299 18301 18302 1 180.0000771 15.1670000 2
18297 18299 18301 18303 1 180.0000771 15.1670000 2
18300 18299 18301 18302 1 180.0000771 15.1670000 2
18300 18299 18301 18303 1 180.0000771 15.1670000 2
18297 18301 18299 18300 4 180.0000771 4.6024000 2
18299 18301 18303 18304 1 180.0000771 15.1670000 2
18299 18301 18303 18305 1 180.0000771 15.1670000 2
18302 18301 18303 18304 1 180.0000771 15.1670000 2
18302 18301 18303 18305 1 180.0000771 15.1670000 2
18299 18303 18301 18302 4 180.0000771 4.6024000 2
18296 18303 18305 18306 4 180.0000771 4.6024000 2
18301 18303 18305 18306 1 180.0000771 15.1670000 2
18304 18303 18305 18306 1 180.0000771 15.1670000 2
18296 18305 18303 18301 1 180.0000771 15.1670000 2
18296 18305 18303 18304 1 180.0000771 15.1670000 2
18301 18305 18303 18304 4 180.0000771 4.6024000 2
18307 18308 18309 18310 1 180.0000771 15.1670000 2
18307 18308 18309 18311 1 180.0000771 15.1670000 2
18310 18308 18309 18311 4 180.0000771 4.6024000 2
18307 18308 18317 18309 4 180.0000771 4.6024000 2
18307 18308 18317 18315 1 180.0000771 15.1670000 2
18307 18308 18317 18318 1 180.0000771 15.1670000 2
18309 18308 18317 18315 1 180.0000771 15.1670000 2
18309 18308 18317 18318 1 180.0000771 15.1670000 2
18310 18309 18308 18317 1 180.0000771 15.1670000 2
18311 18309 18308 18317 1 180.0000771 15.1670000 2
18308 18309 18311 18312 1 180.0000771 15.1670000 2
18308 18309 18311 18313 1 180.0000771 15.1670000 2
18310 18309 18311 18312 1 180.0000771 15.1670000 2
18310 18309 18311 18313 1 180.0000771 15.1670000 2
18309 18311 18313 18314 1 180.0000771 15.1670000 2
18309 18311 18313 18315 1 180.0000771 15.1670000 2
18312 18311 18313 18314 1 180.0000771 15.1670000 2
18312 18311 18313 18315 1 180.0000771 15.1670000 2
18309 18313 18311 18312 4 180.0000771 4.6024000 2
18311 18313 18315 18316 1 180.0000771 15.1670000 2
18311 18313 18315 18317 1 180.0000771 15.1670000 2
18314 18313 18315 18316 1 180.0000771 15.1670000 2
18314 18313 18315 18317 1 180.0000771 15.1670000 2
18311 18315 18313 18314 4 180.0000771 4.6024000 2
18308 18315 18317 18318 4 180.0000771 4.6024000 2
18313 18315 18317 18318 1 180.0000771 15.1670000 2
18316 18315 18317 18318 1 180.0000771 15.1670000 2
18308 18317 18315 18313 1 180.0000771 15.1670000 2
18308 18317 18315 18316 1 180.0000771 15.1670000 2
18313 18317 18315 18316 4 180.0000771 4.6024000 2
18319 18320 18321 18322 1 180.0000771 15.1670000 2
18319 18320 18321 18323 1 180.0000771 15.1670000 2
18322 18320 18321 18323 4 180.0000771 4.6024000 2
18319 18320 18329 18321 4 180.0000771 4.6024000 2
18319 18320 18329 18327 1 180.0000771 15.1670000 2
18319 18320 18329 18330 1 180.0000771 15.1670000 2
18321 18320 18329 18327 1 180.0000771 15.1670000 2
18321 18320 18329 18330 1 180.0000771 15.1670000 2
18322 18321 18320 18329 1 180.0000771 15.1670000 2
18323 18321 18320 18329 1 180.0000771 15.1670000 2
18320 18321 18323 18324 1 180.0000771 15.1670000 2
18320 18321 18323 18325 1 180.0000771 15.1670000 2
18322 18321 18323 18324 1 180.0000771 15.1670000 2
18322 18321 18323 18325 1 180.0000771 15.1670000 2
18321 18323 18325 18326 1 180.0000771 15.1670000 2
18321 18323 18325 18327 1 180.0000771 15.1670000 2
18324 18323 18325 18326 1 180.0000771 15.1670000 2
18324 18323 18325 18327 1 180.0000771 15.1670000 2
18321 18325 18323 18324 4 180.0000771 4.6024000 2
18323 18325 18327 18328 1 180.0000771 15.1670000 2
18323 18325 18327 18329 1 180.0000771 15.1670000 2
18326 18325 18327 18328 1 180.0000771 15.1670000 2
18326 18325 18327 18329 1 180.0000771 15.1670000 2
18323 18327 18325 18326 4 180.0000771 4.6024000 2
18320 18327 18329 18330 4 180.0000771 4.6024000 2
18325 18327 18329 18330 1 180.0000771 15.1670000 2
18328 18327 18329 18330 1 180.0000771 15.1670000 2
18320 18329 18327 18325 1 180.0000771 15.1670000 2
18320 18329 18327 18328 1 180.0000771 15.1670000 2
18325 18329 18327 18328 4 180.0000771 4.6024000 2
18331 18332 18333 18334 1 180.0000771 15.1670000 2
18331 18332 18333 18335 1 180.0000771 15.1670000 2
18334 18332 18333 18335 4 180.0000771 4.6024000 2
18331 18332 18341 18333 4 180.0000771 4.6024000 2
18331 18332 18341 18339 1 180.0000771 15.1670000 2
18331 18332 18341 18342 1 180.0000771 15.1670000 2
18333 18332 18341 18339 1 180.0000771 15.1670000 2
18333 18332 18341 18342 1 180.0000771 15.1670000 2
18334 18333 18332 18341 1 180.0000771 15.1670000 2
18335 18333 18332 18341 1 180.0000771 15.1670000 2
18332 18333 18335 18336 1 180.0000771 15.1670000 2
18332 18333 18335 18337 1 180.0000771 15.1670000 2
18334 18333 18335 18336 1 180.0000771 15.1670000 2
18334 18333 18335 18337 1 180.0000771 15.1670000 2
18333 18335 18337 18338 1 180.0000771 15.1670000 2
18333 18335 18337 18339 1 180.0000771 15.1670000 2
18336 18335 18337 18338 1 180.0000771 15.1670000 2
18336 18335 18337 18339 1 180.0000771 15.1670000 2
18333 18337 18335 18336 4 180.0000771 4.6024000 2
18335 18337 18339 18340 1 180.0000771 15.1670000 2
18335 18337 18339 18341 1 180.0000771 15.1670000 2
18338 18337 18339 18340 1 180.0000771 15.1670000 2
18338 18337 18339 18341 1 180.0000771 15.1670000 2
18335 18339 18337 18338 4 180.0000771 4.6024000 2
18332 18339 18341 18342 4 180.0000771 4.6024000 2
18337 18339 18341 18342 1 180.0000771 15.1670000 2
18340 18339 18341 18342 1 180.0000771 15.1670000 2
18332 18341 18339 18337 1 180.0000771 15.1670000 2
18332 18341 18339 18340 1 180.0000771 15.1670000 2
18337 18341 18339 18340 4 180.0000771 4.6024000 2
18343 18344 18345 18346 1 180.0000771 15.1670000 2
18343 18344 18345 18347 1 180.0000771 15.1670000 2
18346 18344 18345 18347 4 180.0000771 4.6024000 2
18343 18344 18353 18345 4 180.0000771 4.6024000 2
18343 18344 18353 18351 1 180.0000771 15.1670000 2
18343 18344 18353 18354 1 180.0000771 15.1670000 2
18345 18344 18353 18351 1 180.0000771 15.1670000 2
18345 18344 18353 18354 1 180.0000771 15.1670000 2
18346 18345 18344 18353 1 180.0000771 15.1670000 2
18347 18345 18344 18353 1 180.0000771 15.1670000 2
18344 18345 18347 18348 1 180.0000771 15.1670000 2
18344 18345 18347 18349 1 180.0000771 15.1670000 2
18346 18345 18347 18348 1 180.0000771 15.1670000 2
18346 18345 18347 18349 1 180.0000771 15.1670000 2
18345 18347 18349 18350 1 180.0000771 15.1670000 2
18345 18347 18349 18351 1 180.0000771 15.1670000 2
18348 18347 18349 18350 1 180.0000771 15.1670000 2
18348 18347 18349 18351 1 180.0000771 15.1670000 2
18345 18349 18347 18348 4 180.0000771 4.6024000 2
18347 18349 18351 18352 1 180.0000771 15.1670000 2
18347 18349 18351 18353 1 180.0000771 15.1670000 2
18350 18349 18351 18352 1 180.0000771 15.1670000 2
18350 18349 18351 18353 1 180.0000771 15.1670000 2
18347 18351 18349 18350 4 180.0000771 4.6024000 2
18344 18351 18353 18354 4 180.0000771 4.6024000 2
18349 18351 18353 18354 1 180.0000771 15.1670000 2
18352 18351 18353 18354 1 180.0000771 15.1670000 2
18344 18353 18351 18349 1 180.0000771 15.1670000 2
18344 18353 18351 18352 1 180.0000771 15.1670000 2
18349 18353 18351 18352 4 180.0000771 4.6024000 2
18355 18356 18357 18358 1 180.0000771 15.1670000 2
18355 18356 18357 18359 1 180.0000771 15.1670000 2
18358 18356 18357 18359 4 180.0000771 4.6024000 2
18355 18356 18365 18357 4 180.0000771 4.6024000 2
18355 18356 18365 18363 1 180.0000771 15.1670000 2
18355 18356 18365 18366 1 180.0000771 15.1670000 2
18357 18356 18365 18363 1 180.0000771 15.1670000 2
18357 18356 18365 18366 1 180.0000771 15.1670000 2
18358 18357 18356 18365 1 180.0000771 15.1670000 2
18359 18357 18356 18365 1 180.0000771 15.1670000 2
18356 18357 18359 18360 1 180.0000771 15.1670000 2
18356 18357 18359 18361 1 180.0000771 15.1670000 2
18358 18357 18359 18360 1 180.0000771 15.1670000 2
18358 18357 18359 18361 1 180.0000771 15.1670000 2
18357 18359 18361 18362 1 180.0000771 15.1670000 2
18357 18359 18361 18363 1 180.0000771 15.1670000 2
18360 18359 18361 18362 1 180.0000771 15.1670000 2
18360 18359 18361 18363 1 180.0000771 15.1670000 2
18357 18361 18359 18360 4 180.0000771 4.6024000 2
18359 18361 18363 18364 1 180.0000771 15.1670000 2
18359 18361 18363 18365 1 180.0000771 15.1670000 2
18362 18361 18363 18364 1 180.0000771 15.1670000 2
18362 18361 18363 18365 1 180.0000771 15.1670000 2
18359 18363 18361 18362 4 180.0000771 4.6024000 2
18356 18363 18365 18366 4 180.0000771 4.6024000 2
18361 18363 18365 18366 1 180.0000771 15.1670000 2
18364 18363 18365 18366 1 180.0000771 15.1670000 2
18356 18365 18363 18361 1 180.0000771 15.1670000 2
18356 18365 18363 18364 1 180.0000771 15.1670000 2
18361 18365 18363 18364 4 180.0000771 4.6024000 2
18367 18368 18369 18370 1 180.0000771 15.1670000 2
18367 18368 18369 18371 1 180.0000771 15.1670000 2
18370 18368 18369 18371 4 180.0000771 4.6024000 2
18367 18368 18377 18369 4 180.0000771 4.6024000 2
18367 18368 18377 18375 1 180.0000771 15.1670000 2
18367 18368 18377 18378 1 180.0000771 15.1670000 2
18369 18368 18377 18375 1 180.0000771 15.1670000 2
18369 18368 18377 18378 1 180.0000771 15.1670000 2
18370 18369 18368 18377 1 180.0000771 15.1670000 2
18371 18369 18368 18377 1 180.0000771 15.1670000 2
18368 18369 18371 18372 1 180.0000771 15.1670000 2
18368 18369 18371 18373 1 180.0000771 15.1670000 2
18370 18369 18371 18372 1 180.0000771 15.1670000 2
18370 18369 18371 18373 1 180.0000771 15.1670000 2
18369 18371 18373 18374 1 180.0000771 15.1670000 2
18369 18371 18373 18375 1 180.0000771 15.1670000 2
18372 18371 18373 18374 1 180.0000771 15.1670000 2
18372 18371 18373 18375 1 180.0000771 15.1670000 2
18369 18373 18371 18372 4 180.0000771 4.6024000 2
18371 18373 18375 18376 1 180.0000771 15.1670000 2
18371 18373 18375 18377 1 180.0000771 15.1670000 2
18374 18373 18375 18376 1 180.0000771 15.1670000 2
18374 18373 18375 18377 1 180.0000771 15.1670000 2
18371 18375 18373 18374 4 180.0000771 4.6024000 2
18368 18375 18377 18378 4 180.0000771 4.6024000 2
18373 18375 18377 18378 1 180.0000771 15.1670000 2
18376 18375 18377 18378 1 180.0000771 15.1670000 2
18368 18377 18375 18373 1 180.0000771 15.1670000 2
18368 18377 18375 18376 1 180.0000771 15.1670000 2
18373 18377 18375 18376 4 180.0000771 4.6024000 2
18379 18380 18381 18382 1 180.0000771 15.1670000 2
18379 18380 18381 18383 1 180.0000771 15.1670000 2
18382 18380 18381 18383 4 180.0000771 4.6024000 2
18379 18380 18389 18381 4 180.0000771 4.6024000 2
18379 18380 18389 18387 1 180.0000771 15.1670000 2
18379 18380 18389 18390 1 180.0000771 15.1670000 2
18381 18380 18389 18387 1 180.0000771 15.1670000 2
18381 18380 18389 18390 1 180.0000771 15.1670000 2
18382 18381 18380 18389 1 180.0000771 15.1670000 2
18383 18381 18380 18389 1 180.0000771 15.1670000 2
18380 18381 18383 18384 1 180.0000771 15.1670000 2
18380 18381 18383 18385 1 180.0000771 15.1670000 2
18382 18381 18383 18384 1 180.0000771 15.1670000 2
18382 18381 18383 18385 1 180.0000771 15.1670000 2
18381 18383 18385 18386 1 180.0000771 15.1670000 2
18381 18383 18385 18387 1 180.0000771 15.1670000 2
18384 18383 18385 18386 1 180.0000771 15.1670000 2
18384 18383 18385 18387 1 180.0000771 15.1670000 2
18381 18385 18383 18384 4 180.0000771 4.6024000 2
18383 18385 18387 18388 1 180.0000771 15.1670000 2
18383 18385 18387 18389 1 180.0000771 15.1670000 2
18386 18385 18387 18388 1 180.0000771 15.1670000 2
18386 18385 18387 18389 1 180.0000771 15.1670000 2
18383 18387 18385 18386 4 180.0000771 4.6024000 2
18380 18387 18389 18390 4 180.0000771 4.6024000 2
18385 18387 18389 18390 1 180.0000771 15.1670000 2
18388 18387 18389 18390 1 180.0000771 15.1670000 2
18380 18389 18387 18385 1 180.0000771 15.1670000 2
18380 18389 18387 18388 1 180.0000771 15.1670000 2
18385 18389 18387 18388 4 180.0000771 4.6024000 2
18391 18392 18393 18394 1 180.0000771 15.1670000 2
18391 18392 18393 18395 1 180.0000771 15.1670000 2
18394 18392 18393 18395 4 180.0000771 4.6024000 2
18391 18392 18401 18393 4 180.0000771 4.6024000 2
18391 18392 18401 18399 1 180.0000771 15.1670000 2
18391 18392 18401 18402 1 180.0000771 15.1670000 2
18393 18392 18401 18399 1 180.0000771 15.1670000 2
18393 18392 18401 18402 1 180.0000771 15.1670000 2
18394 18393 18392 18401 1 180.0000771 15.1670000 2
18395 18393 18392 18401 1 180.0000771 15.1670000 2
18392 18393 18395 18396 1 180.0000771 15.1670000 2
18392 18393 18395 18397 1 180.0000771 15.1670000 2
18394 18393 18395 18396 1 180.0000771 15.1670000 2
18394 18393 18395 18397 1 180.0000771 15.1670000 2
18393 18395 18397 18398 1 180.0000771 15.1670000 2
18393 18395 18397 18399 1 180.0000771 15.1670000 2
18396 18395 18397 18398 1 180.0000771 15.1670000 2
18396 18395 18397 18399 1 180.0000771 15.1670000 2
18393 18397 18395 18396 4 180.0000771 4.6024000 2
18395 18397 18399 18400 1 180.0000771 15.1670000 2
18395 18397 18399 18401 1 180.0000771 15.1670000 2
18398 18397 18399 18400 1 180.0000771 15.1670000 2
18398 18397 18399 18401 1 180.0000771 15.1670000 2
18395 18399 18397 18398 4 180.0000771 4.6024000 2
18392 18399 18401 18402 4 180.0000771 4.6024000 2
18397 18399 18401 18402 1 180.0000771 15.1670000 2
18400 18399 18401 18402 1 180.0000771 15.1670000 2
18392 18401 18399 18397 1 180.0000771 15.1670000 2
18392 18401 18399 18400 1 180.0000771 15.1670000 2
18397 18401 18399 18400 4 180.0000771 4.6024000 2
18403 18404 18405 18406 1 180.0000771 15.1670000 2
18403 18404 18405 18407 1 180.0000771 15.1670000 2
18406 18404 18405 18407 4 180.0000771 4.6024000 2
18403 18404 18413 18405 4 180.0000771 4.6024000 2
18403 18404 18413 18411 1 180.0000771 15.1670000 2
18403 18404 18413 18414 1 180.0000771 15.1670000 2
18405 18404 18413 18411 1 180.0000771 15.1670000 2
18405 18404 18413 18414 1 180.0000771 15.1670000 2
18406 18405 18404 18413 1 180.0000771 15.1670000 2
18407 18405 18404 18413 1 180.0000771 15.1670000 2
18404 18405 18407 18408 1 180.0000771 15.1670000 2
18404 18405 18407 18409 1 180.0000771 15.1670000 2
18406 18405 18407 18408 1 180.0000771 15.1670000 2
18406 18405 18407 18409 1 180.0000771 15.1670000 2
18405 18407 18409 18410 1 180.0000771 15.1670000 2
18405 18407 18409 18411 1 180.0000771 15.1670000 2
18408 18407 18409 18410 1 180.0000771 15.1670000 2
18408 18407 18409 18411 1 180.0000771 15.1670000 2
18405 18409 18407 18408 4 180.0000771 4.6024000 2
18407 18409 18411 18412 1 180.0000771 15.1670000 2
18407 18409 18411 18413 1 180.0000771 15.1670000 2
18410 18409 18411 18412 1 180.0000771 15.1670000 2
18410 18409 18411 18413 1 180.0000771 15.1670000 2
18407 18411 18409 18410 4 180.0000771 4.6024000 2
18404 18411 18413 18414 4 180.0000771 4.6024000 2
18409 18411 18413 18414 1 180.0000771 15.1670000 2
18412 18411 18413 18414 1 180.0000771 15.1670000 2
18404 18413 18411 18409 1 180.0000771 15.1670000 2
18404 18413 18411 18412 1 180.0000771 15.1670000 2
18409 18413 18411 18412 4 180.0000771 4.6024000 2
18415 18416 18417 18418 1 180.0000771 15.1670000 2
18415 18416 18417 18419 1 180.0000771 15.1670000 2
18418 18416 18417 18419 4 180.0000771 4.6024000 2
18415 18416 18425 18417 4 180.0000771 4.6024000 2
18415 18416 18425 18423 1 180.0000771 15.1670000 2
18415 18416 18425 18426 1 180.0000771 15.1670000 2
18417 18416 18425 18423 1 180.0000771 15.1670000 2
18417 18416 18425 18426 1 180.0000771 15.1670000 2
18418 18417 18416 18425 1 180.0000771 15.1670000 2
18419 18417 18416 18425 1 180.0000771 15.1670000 2
18416 18417 18419 18420 1 180.0000771 15.1670000 2
18416 18417 18419 18421 1 180.0000771 15.1670000 2
18418 18417 18419 18420 1 180.0000771 15.1670000 2
18418 18417 18419 18421 1 180.0000771 15.1670000 2
18417 18419 18421 18422 1 180.0000771 15.1670000 2
18417 18419 18421 18423 1 180.0000771 15.1670000 2
18420 18419 18421 18422 1 180.0000771 15.1670000 2
18420 18419 18421 18423 1 180.0000771 15.1670000 2
18417 18421 18419 18420 4 180.0000771 4.6024000 2
18419 18421 18423 18424 1 180.0000771 15.1670000 2
18419 18421 18423 18425 1 180.0000771 15.1670000 2
18422 18421 18423 18424 1 180.0000771 15.1670000 2
18422 18421 18423 18425 1 180.0000771 15.1670000 2
18419 18423 18421 18422 4 180.0000771 4.6024000 2
18416 18423 18425 18426 4 180.0000771 4.6024000 2
18421 18423 18425 18426 1 180.0000771 15.1670000 2
18424 18423 18425 18426 1 180.0000771 15.1670000 2
18416 18425 18423 18421 1 180.0000771 15.1670000 2
18416 18425 18423 18424 1 180.0000771 15.1670000 2
18421 18425 18423 18424 4 180.0000771 4.6024000 2
18427 18428 18429 18430 1 180.0000771 15.1670000 2
18427 18428 18429 18431 1 180.0000771 15.1670000 2
18430 18428 18429 18431 4 180.0000771 4.6024000 2
18427 18428 18437 18429 4 180.0000771 4.6024000 2
18427 18428 18437 18435 1 180.0000771 15.1670000 2
18427 18428 18437 18438 1 180.0000771 15.1670000 2
18429 18428 18437 18435 1 180.0000771 15.1670000 2
18429 18428 18437 18438 1 180.0000771 15.1670000 2
18430 18429 18428 18437 1 180.0000771 15.1670000 2
18431 18429 18428 18437 1 180.0000771 15.1670000 2
18428 18429 18431 18432 1 180.0000771 15.1670000 2
18428 18429 18431 18433 1 180.0000771 15.1670000 2
18430 18429 18431 18432 1 180.0000771 15.1670000 2
18430 18429 18431 18433 1 180.0000771 15.1670000 2
18429 18431 18433 18434 1 180.0000771 15.1670000 2
18429 18431 18433 18435 1 180.0000771 15.1670000 2
18432 18431 18433 18434 1 180.0000771 15.1670000 2
18432 18431 18433 18435 1 180.0000771 15.1670000 2
18429 18433 18431 18432 4 180.0000771 4.6024000 2
18431 18433 18435 18436 1 180.0000771 15.1670000 2
18431 18433 18435 18437 1 180.0000771 15.1670000 2
18434 18433 18435 18436 1 180.0000771 15.1670000 2
18434 18433 18435 18437 1 180.0000771 15.1670000 2
18431 18435 18433 18434 4 180.0000771 4.6024000 2
18428 18435 18437 18438 4 180.0000771 4.6024000 2
18433 18435 18437 18438 1 180.0000771 15.1670000 2
18436 18435 18437 18438 1 180.0000771 15.1670000 2
18428 18437 18435 18433 1 180.0000771 15.1670000 2
18428 18437 18435 18436 1 180.0000771 15.1670000 2
18433 18437 18435 18436 4 180.0000771 4.6024000 2
18439 18440 18441 18442 1 180.0000771 15.1670000 2
18439 18440 18441 18443 1 180.0000771 15.1670000 2
18442 18440 18441 18443 4 180.0000771 4.6024000 2
18439 18440 18449 18441 4 180.0000771 4.6024000 2
18439 18440 18449 18447 1 180.0000771 15.1670000 2
18439 18440 18449 18450 1 180.0000771 15.1670000 2
18441 18440 18449 18447 1 180.0000771 15.1670000 2
18441 18440 18449 18450 1 180.0000771 15.1670000 2
18442 18441 18440 18449 1 180.0000771 15.1670000 2
18443 18441 18440 18449 1 180.0000771 15.1670000 2
18440 18441 18443 18444 1 180.0000771 15.1670000 2
18440 18441 18443 18445 1 180.0000771 15.1670000 2
18442 18441 18443 18444 1 180.0000771 15.1670000 2
18442 18441 18443 18445 1 180.0000771 15.1670000 2
18441 18443 18445 18446 1 180.0000771 15.1670000 2
18441 18443 18445 18447 1 180.0000771 15.1670000 2
18444 18443 18445 18446 1 180.0000771 15.1670000 2
18444 18443 18445 18447 1 180.0000771 15.1670000 2
18441 18445 18443 18444 4 180.0000771 4.6024000 2
18443 18445 18447 18448 1 180.0000771 15.1670000 2
18443 18445 18447 18449 1 180.0000771 15.1670000 2
18446 18445 18447 18448 1 180.0000771 15.1670000 2
18446 18445 18447 18449 1 180.0000771 15.1670000 2
18443 18447 18445 18446 4 180.0000771 4.6024000 2
18440 18447 18449 18450 4 180.0000771 4.6024000 2
18445 18447 18449 18450 1 180.0000771 15.1670000 2
18448 18447 18449 18450 1 180.0000771 15.1670000 2
18440 18449 18447 18445 1 180.0000771 15.1670000 2
18440 18449 18447 18448 1 180.0000771 15.1670000 2
18445 18449 18447 18448 4 180.0000771 4.6024000 2
18451 18452 18453 18454 1 180.0000771 15.1670000 2
18451 18452 18453 18455 1 180.0000771 15.1670000 2
18454 18452 18453 18455 4 180.0000771 4.6024000 2
18451 18452 18461 18453 4 180.0000771 4.6024000 2
18451 18452 18461 18459 1 180.0000771 15.1670000 2
18451 18452 18461 18462 1 180.0000771 15.1670000 2
18453 18452 18461 18459 1 180.0000771 15.1670000 2
18453 18452 18461 18462 1 180.0000771 15.1670000 2
18454 18453 18452 18461 1 180.0000771 15.1670000 2
18455 18453 18452 18461 1 180.0000771 15.1670000 2
18452 18453 18455 18456 1 180.0000771 15.1670000 2
18452 18453 18455 18457 1 180.0000771 15.1670000 2
18454 18453 18455 18456 1 180.0000771 15.1670000 2
18454 18453 18455 18457 1 180.0000771 15.1670000 2
18453 18455 18457 18458 1 180.0000771 15.1670000 2
18453 18455 18457 18459 1 180.0000771 15.1670000 2
18456 18455 18457 18458 1 180.0000771 15.1670000 2
18456 18455 18457 18459 1 180.0000771 15.1670000 2
18453 18457 18455 18456 4 180.0000771 4.6024000 2
18455 18457 18459 18460 1 180.0000771 15.1670000 2
18455 18457 18459 18461 1 180.0000771 15.1670000 2
18458 18457 18459 18460 1 180.0000771 15.1670000 2
18458 18457 18459 18461 1 180.0000771 15.1670000 2
18455 18459 18457 18458 4 180.0000771 4.6024000 2
18452 18459 18461 18462 4 180.0000771 4.6024000 2
18457 18459 18461 18462 1 180.0000771 15.1670000 2
18460 18459 18461 18462 1 180.0000771 15.1670000 2
18452 18461 18459 18457 1 180.0000771 15.1670000 2
18452 18461 18459 18460 1 180.0000771 15.1670000 2
18457 18461 18459 18460 4 180.0000771 4.6024000 2
18463 18464 18465 18466 1 180.0000771 15.1670000 2
18463 18464 18465 18467 1 180.0000771 15.1670000 2
18466 18464 18465 18467 4 180.0000771 4.6024000 2
18463 18464 18473 18465 4 180.0000771 4.6024000 2
18463 18464 18473 18471 1 180.0000771 15.1670000 2
18463 18464 18473 18474 1 180.0000771 15.1670000 2
18465 18464 18473 18471 1 180.0000771 15.1670000 2
18465 18464 18473 18474 1 180.0000771 15.1670000 2
18466 18465 18464 18473 1 180.0000771 15.1670000 2
18467 18465 18464 18473 1 180.0000771 15.1670000 2
18464 18465 18467 18468 1 180.0000771 15.1670000 2
18464 18465 18467 18469 1 180.0000771 15.1670000 2
18466 18465 18467 18468 1 180.0000771 15.1670000 2
18466 18465 18467 18469 1 180.0000771 15.1670000 2
18465 18467 18469 18470 1 180.0000771 15.1670000 2
18465 18467 18469 18471 1 180.0000771 15.1670000 2
18468 18467 18469 18470 1 180.0000771 15.1670000 2
18468 18467 18469 18471 1 180.0000771 15.1670000 2
18465 18469 18467 18468 4 180.0000771 4.6024000 2
18467 18469 18471 18472 1 180.0000771 15.1670000 2
18467 18469 18471 18473 1 180.0000771 15.1670000 2
18470 18469 18471 18472 1 180.0000771 15.1670000 2
18470 18469 18471 18473 1 180.0000771 15.1670000 2
18467 18471 18469 18470 4 180.0000771 4.6024000 2
18464 18471 18473 18474 4 180.0000771 4.6024000 2
18469 18471 18473 18474 1 180.0000771 15.1670000 2
18472 18471 18473 18474 1 180.0000771 15.1670000 2
18464 18473 18471 18469 1 180.0000771 15.1670000 2
18464 18473 18471 18472 1 180.0000771 15.1670000 2
18469 18473 18471 18472 4 180.0000771 4.6024000 2
18475 18476 18477 18478 1 180.0000771 15.1670000 2
18475 18476 18477 18479 1 180.0000771 15.1670000 2
18478 18476 18477 18479 4 180.0000771 4.6024000 2
18475 18476 18485 18477 4 180.0000771 4.6024000 2
18475 18476 18485 18483 1 180.0000771 15.1670000 2
18475 18476 18485 18486 1 180.0000771 15.1670000 2
18477 18476 18485 18483 1 180.0000771 15.1670000 2
18477 18476 18485 18486 1 180.0000771 15.1670000 2
18478 18477 18476 18485 1 180.0000771 15.1670000 2
18479 18477 18476 18485 1 180.0000771 15.1670000 2
18476 18477 18479 18480 1 180.0000771 15.1670000 2
18476 18477 18479 18481 1 180.0000771 15.1670000 2
18478 18477 18479 18480 1 180.0000771 15.1670000 2
18478 18477 18479 18481 1 180.0000771 15.1670000 2
18477 18479 18481 18482 1 180.0000771 15.1670000 2
18477 18479 18481 18483 1 180.0000771 15.1670000 2
18480 18479 18481 18482 1 180.0000771 15.1670000 2
18480 18479 18481 18483 1 180.0000771 15.1670000 2
18477 18481 18479 18480 4 180.0000771 4.6024000 2
18479 18481 18483 18484 1 180.0000771 15.1670000 2
18479 18481 18483 18485 1 180.0000771 15.1670000 2
18482 18481 18483 18484 1 180.0000771 15.1670000 2
18482 18481 18483 18485 1 180.0000771 15.1670000 2
18479 18483 18481 18482 4 180.0000771 4.6024000 2
18476 18483 18485 18486 4 180.0000771 4.6024000 2
18481 18483 18485 18486 1 180.0000771 15.1670000 2
18484 18483 18485 18486 1 180.0000771 15.1670000 2
18476 18485 18483 18481 1 180.0000771 15.1670000 2
18476 18485 18483 18484 1 180.0000771 15.1670000 2
18481 18485 18483 18484 4 180.0000771 4.6024000 2
18487 18488 18489 18490 1 180.0000771 15.1670000 2
18487 18488 18489 18491 1 180.0000771 15.1670000 2
18490 18488 18489 18491 4 180.0000771 4.6024000 2
18487 18488 18497 18489 4 180.0000771 4.6024000 2
18487 18488 18497 18495 1 180.0000771 15.1670000 2
18487 18488 18497 18498 1 180.0000771 15.1670000 2
18489 18488 18497 18495 1 180.0000771 15.1670000 2
18489 18488 18497 18498 1 180.0000771 15.1670000 2
18490 18489 18488 18497 1 180.0000771 15.1670000 2
18491 18489 18488 18497 1 180.0000771 15.1670000 2
18488 18489 18491 18492 1 180.0000771 15.1670000 2
18488 18489 18491 18493 1 180.0000771 15.1670000 2
18490 18489 18491 18492 1 180.0000771 15.1670000 2
18490 18489 18491 18493 1 180.0000771 15.1670000 2
18489 18491 18493 18494 1 180.0000771 15.1670000 2
18489 18491 18493 18495 1 180.0000771 15.1670000 2
18492 18491 18493 18494 1 180.0000771 15.1670000 2
18492 18491 18493 18495 1 180.0000771 15.1670000 2
18489 18493 18491 18492 4 180.0000771 4.6024000 2
18491 18493 18495 18496 1 180.0000771 15.1670000 2
18491 18493 18495 18497 1 180.0000771 15.1670000 2
18494 18493 18495 18496 1 180.0000771 15.1670000 2
18494 18493 18495 18497 1 180.0000771 15.1670000 2
18491 18495 18493 18494 4 180.0000771 4.6024000 2
18488 18495 18497 18498 4 180.0000771 4.6024000 2
18493 18495 18497 18498 1 180.0000771 15.1670000 2
18496 18495 18497 18498 1 180.0000771 15.1670000 2
18488 18497 18495 18493 1 180.0000771 15.1670000 2
18488 18497 18495 18496 1 180.0000771 15.1670000 2
18493 18497 18495 18496 4 180.0000771 4.6024000 2
18499 18500 18501 18502 1 180.0000771 15.1670000 2
18499 18500 18501 18503 1 180.0000771 15.1670000 2
18502 18500 18501 18503 4 180.0000771 4.6024000 2
18499 18500 18509 18501 4 180.0000771 4.6024000 2
18499 18500 18509 18507 1 180.0000771 15.1670000 2
18499 18500 18509 18510 1 180.0000771 15.1670000 2
18501 18500 18509 18507 1 180.0000771 15.1670000 2
18501 18500 18509 18510 1 180.0000771 15.1670000 2
18502 18501 18500 18509 1 180.0000771 15.1670000 2
18503 18501 18500 18509 1 180.0000771 15.1670000 2
18500 18501 18503 18504 1 180.0000771 15.1670000 2
18500 18501 18503 18505 1 180.0000771 15.1670000 2
18502 18501 18503 18504 1 180.0000771 15.1670000 2
18502 18501 18503 18505 1 180.0000771 15.1670000 2
18501 18503 18505 18506 1 180.0000771 15.1670000 2
18501 18503 18505 18507 1 180.0000771 15.1670000 2
18504 18503 18505 18506 1 180.0000771 15.1670000 2
18504 18503 18505 18507 1 180.0000771 15.1670000 2
18501 18505 18503 18504 4 180.0000771 4.6024000 2
18503 18505 18507 18508 1 180.0000771 15.1670000 2
18503 18505 18507 18509 1 180.0000771 15.1670000 2
18506 18505 18507 18508 1 180.0000771 15.1670000 2
18506 18505 18507 18509 1 180.0000771 15.1670000 2
18503 18507 18505 18506 4 180.0000771 4.6024000 2
18500 18507 18509 18510 4 180.0000771 4.6024000 2
18505 18507 18509 18510 1 180.0000771 15.1670000 2
18508 18507 18509 18510 1 180.0000771 15.1670000 2
18500 18509 18507 18505 1 180.0000771 15.1670000 2
18500 18509 18507 18508 1 180.0000771 15.1670000 2
18505 18509 18507 18508 4 180.0000771 4.6024000 2
18511 18512 18513 18514 1 180.0000771 15.1670000 2
18511 18512 18513 18515 1 180.0000771 15.1670000 2
18514 18512 18513 18515 4 180.0000771 4.6024000 2
18511 18512 18521 18513 4 180.0000771 4.6024000 2
18511 18512 18521 18519 1 180.0000771 15.1670000 2
18511 18512 18521 18522 1 180.0000771 15.1670000 2
18513 18512 18521 18519 1 180.0000771 15.1670000 2
18513 18512 18521 18522 1 180.0000771 15.1670000 2
18514 18513 18512 18521 1 180.0000771 15.1670000 2
18515 18513 18512 18521 1 180.0000771 15.1670000 2
18512 18513 18515 18516 1 180.0000771 15.1670000 2
18512 18513 18515 18517 1 180.0000771 15.1670000 2
18514 18513 18515 18516 1 180.0000771 15.1670000 2
18514 18513 18515 18517 1 180.0000771 15.1670000 2
18513 18515 18517 18518 1 180.0000771 15.1670000 2
18513 18515 18517 18519 1 180.0000771 15.1670000 2
18516 18515 18517 18518 1 180.0000771 15.1670000 2
18516 18515 18517 18519 1 180.0000771 15.1670000 2
18513 18517 18515 18516 4 180.0000771 4.6024000 2
18515 18517 18519 18520 1 180.0000771 15.1670000 2
18515 18517 18519 18521 1 180.0000771 15.1670000 2
18518 18517 18519 18520 1 180.0000771 15.1670000 2
18518 18517 18519 18521 1 180.0000771 15.1670000 2
18515 18519 18517 18518 4 180.0000771 4.6024000 2
18512 18519 18521 18522 4 180.0000771 4.6024000 2
18517 18519 18521 18522 1 180.0000771 15.1670000 2
18520 18519 18521 18522 1 180.0000771 15.1670000 2
18512 18521 18519 18517 1 180.0000771 15.1670000 2
18512 18521 18519 18520 1 180.0000771 15.1670000 2
18517 18521 18519 18520 4 180.0000771 4.6024000 2
18523 18524 18525 18526 1 180.0000771 15.1670000 2
18523 18524 18525 18527 1 180.0000771 15.1670000 2
18526 18524 18525 18527 4 180.0000771 4.6024000 2
18523 18524 18533 18525 4 180.0000771 4.6024000 2
18523 18524 18533 18531 1 180.0000771 15.1670000 2
18523 18524 18533 18534 1 180.0000771 15.1670000 2
18525 18524 18533 18531 1 180.0000771 15.1670000 2
18525 18524 18533 18534 1 180.0000771 15.1670000 2
18526 18525 18524 18533 1 180.0000771 15.1670000 2
18527 18525 18524 18533 1 180.0000771 15.1670000 2
18524 18525 18527 18528 1 180.0000771 15.1670000 2
18524 18525 18527 18529 1 180.0000771 15.1670000 2
18526 18525 18527 18528 1 180.0000771 15.1670000 2
18526 18525 18527 18529 1 180.0000771 15.1670000 2
18525 18527 18529 18530 1 180.0000771 15.1670000 2
18525 18527 18529 18531 1 180.0000771 15.1670000 2
18528 18527 18529 18530 1 180.0000771 15.1670000 2
18528 18527 18529 18531 1 180.0000771 15.1670000 2
18525 18529 18527 18528 4 180.0000771 4.6024000 2
18527 18529 18531 18532 1 180.0000771 15.1670000 2
18527 18529 18531 18533 1 180.0000771 15.1670000 2
18530 18529 18531 18532 1 180.0000771 15.1670000 2
18530 18529 18531 18533 1 180.0000771 15.1670000 2
18527 18531 18529 18530 4 180.0000771 4.6024000 2
18524 18531 18533 18534 4 180.0000771 4.6024000 2
18529 18531 18533 18534 1 180.0000771 15.1670000 2
18532 18531 18533 18534 1 180.0000771 15.1670000 2
18524 18533 18531 18529 1 180.0000771 15.1670000 2
18524 18533 18531 18532 1 180.0000771 15.1670000 2
18529 18533 18531 18532 4 180.0000771 4.6024000 2
18535 18536 18537 18538 1 180.0000771 15.1670000 2
18535 18536 18537 18539 1 180.0000771 15.1670000 2
18538 18536 18537 18539 4 180.0000771 4.6024000 2
18535 18536 18545 18537 4 180.0000771 4.6024000 2
18535 18536 18545 18543 1 180.0000771 15.1670000 2
18535 18536 18545 18546 1 180.0000771 15.1670000 2
18537 18536 18545 18543 1 180.0000771 15.1670000 2
18537 18536 18545 18546 1 180.0000771 15.1670000 2
18538 18537 18536 18545 1 180.0000771 15.1670000 2
18539 18537 18536 18545 1 180.0000771 15.1670000 2
18536 18537 18539 18540 1 180.0000771 15.1670000 2
18536 18537 18539 18541 1 180.0000771 15.1670000 2
18538 18537 18539 18540 1 180.0000771 15.1670000 2
18538 18537 18539 18541 1 180.0000771 15.1670000 2
18537 18539 18541 18542 1 180.0000771 15.1670000 2
18537 18539 18541 18543 1 180.0000771 15.1670000 2
18540 18539 18541 18542 1 180.0000771 15.1670000 2
18540 18539 18541 18543 1 180.0000771 15.1670000 2
18537 18541 18539 18540 4 180.0000771 4.6024000 2
18539 18541 18543 18544 1 180.0000771 15.1670000 2
18539 18541 18543 18545 1 180.0000771 15.1670000 2
18542 18541 18543 18544 1 180.0000771 15.1670000 2
18542 18541 18543 18545 1 180.0000771 15.1670000 2
18539 18543 18541 18542 4 180.0000771 4.6024000 2
18536 18543 18545 18546 4 180.0000771 4.6024000 2
18541 18543 18545 18546 1 180.0000771 15.1670000 2
18544 18543 18545 18546 1 180.0000771 15.1670000 2
18536 18545 18543 18541 1 180.0000771 15.1670000 2
18536 18545 18543 18544 1 180.0000771 15.1670000 2
18541 18545 18543 18544 4 180.0000771 4.6024000 2
18547 18548 18549 18550 1 180.0000771 15.1670000 2
18547 18548 18549 18551 1 180.0000771 15.1670000 2
18550 18548 18549 18551 4 180.0000771 4.6024000 2
18547 18548 18557 18549 4 180.0000771 4.6024000 2
18547 18548 18557 18555 1 180.0000771 15.1670000 2
18547 18548 18557 18558 1 180.0000771 15.1670000 2
18549 18548 18557 18555 1 180.0000771 15.1670000 2
18549 18548 18557 18558 1 180.0000771 15.1670000 2
18550 18549 18548 18557 1 180.0000771 15.1670000 2
18551 18549 18548 18557 1 180.0000771 15.1670000 2
18548 18549 18551 18552 1 180.0000771 15.1670000 2
18548 18549 18551 18553 1 180.0000771 15.1670000 2
18550 18549 18551 18552 1 180.0000771 15.1670000 2
18550 18549 18551 18553 1 180.0000771 15.1670000 2
18549 18551 18553 18554 1 180.0000771 15.1670000 2
18549 18551 18553 18555 1 180.0000771 15.1670000 2
18552 18551 18553 18554 1 180.0000771 15.1670000 2
18552 18551 18553 18555 1 180.0000771 15.1670000 2
18549 18553 18551 18552 4 180.0000771 4.6024000 2
18551 18553 18555 18556 1 180.0000771 15.1670000 2
18551 18553 18555 18557 1 180.0000771 15.1670000 2
18554 18553 18555 18556 1 180.0000771 15.1670000 2
18554 18553 18555 18557 1 180.0000771 15.1670000 2
18551 18555 18553 18554 4 180.0000771 4.6024000 2
18548 18555 18557 18558 4 180.0000771 4.6024000 2
18553 18555 18557 18558 1 180.0000771 15.1670000 2
18556 18555 18557 18558 1 180.0000771 15.1670000 2
18548 18557 18555 18553 1 180.0000771 15.1670000 2
18548 18557 18555 18556 1 180.0000771 15.1670000 2
18553 18557 18555 18556 4 180.0000771 4.6024000 2
18559 18560 18561 18562 1 180.0000771 15.1670000 2
18559 18560 18561 18563 1 180.0000771 15.1670000 2
18562 18560 18561 18563 4 180.0000771 4.6024000 2
18559 18560 18569 18561 4 180.0000771 4.6024000 2
18559 18560 18569 18567 1 180.0000771 15.1670000 2
18559 18560 18569 18570 1 180.0000771 15.1670000 2
18561 18560 18569 18567 1 180.0000771 15.1670000 2
18561 18560 18569 18570 1 180.0000771 15.1670000 2
18562 18561 18560 18569 1 180.0000771 15.1670000 2
18563 18561 18560 18569 1 180.0000771 15.1670000 2
18560 18561 18563 18564 1 180.0000771 15.1670000 2
18560 18561 18563 18565 1 180.0000771 15.1670000 2
18562 18561 18563 18564 1 180.0000771 15.1670000 2
18562 18561 18563 18565 1 180.0000771 15.1670000 2
18561 18563 18565 18566 1 180.0000771 15.1670000 2
18561 18563 18565 18567 1 180.0000771 15.1670000 2
18564 18563 18565 18566 1 180.0000771 15.1670000 2
18564 18563 18565 18567 1 180.0000771 15.1670000 2
18561 18565 18563 18564 4 180.0000771 4.6024000 2
18563 18565 18567 18568 1 180.0000771 15.1670000 2
18563 18565 18567 18569 1 180.0000771 15.1670000 2
18566 18565 18567 18568 1 180.0000771 15.1670000 2
18566 18565 18567 18569 1 180.0000771 15.1670000 2
18563 18567 18565 18566 4 180.0000771 4.6024000 2
18560 18567 18569 18570 4 180.0000771 4.6024000 2
18565 18567 18569 18570 1 180.0000771 15.1670000 2
18568 18567 18569 18570 1 180.0000771 15.1670000 2
18560 18569 18567 18565 1 180.0000771 15.1670000 2
18560 18569 18567 18568 1 180.0000771 15.1670000 2
18565 18569 18567 18568 4 180.0000771 4.6024000 2
18571 18572 18573 18574 1 180.0000771 15.1670000 2
18571 18572 18573 18575 1 180.0000771 15.1670000 2
18574 18572 18573 18575 4 180.0000771 4.6024000 2
18571 18572 18581 18573 4 180.0000771 4.6024000 2
18571 18572 18581 18579 1 180.0000771 15.1670000 2
18571 18572 18581 18582 1 180.0000771 15.1670000 2
18573 18572 18581 18579 1 180.0000771 15.1670000 2
18573 18572 18581 18582 1 180.0000771 15.1670000 2
18574 18573 18572 18581 1 180.0000771 15.1670000 2
18575 18573 18572 18581 1 180.0000771 15.1670000 2
18572 18573 18575 18576 1 180.0000771 15.1670000 2
18572 18573 18575 18577 1 180.0000771 15.1670000 2
18574 18573 18575 18576 1 180.0000771 15.1670000 2
18574 18573 18575 18577 1 180.0000771 15.1670000 2
18573 18575 18577 18578 1 180.0000771 15.1670000 2
18573 18575 18577 18579 1 180.0000771 15.1670000 2
18576 18575 18577 18578 1 180.0000771 15.1670000 2
18576 18575 18577 18579 1 180.0000771 15.1670000 2
18573 18577 18575 18576 4 180.0000771 4.6024000 2
18575 18577 18579 18580 1 180.0000771 15.1670000 2
18575 18577 18579 18581 1 180.0000771 15.1670000 2
18578 18577 18579 18580 1 180.0000771 15.1670000 2
18578 18577 18579 18581 1 180.0000771 15.1670000 2
18575 18579 18577 18578 4 180.0000771 4.6024000 2
18572 18579 18581 18582 4 180.0000771 4.6024000 2
18577 18579 18581 18582 1 180.0000771 15.1670000 2
18580 18579 18581 18582 1 180.0000771 15.1670000 2
18572 18581 18579 18577 1 180.0000771 15.1670000 2
18572 18581 18579 18580 1 180.0000771 15.1670000 2
18577 18581 18579 18580 4 180.0000771 4.6024000 2
18583 18584 18585 18586 1 180.0000771 15.1670000 2
18583 18584 18585 18587 1 180.0000771 15.1670000 2
18586 18584 18585 18587 4 180.0000771 4.6024000 2
18583 18584 18593 18585 4 180.0000771 4.6024000 2
18583 18584 18593 18591 1 180.0000771 15.1670000 2
18583 18584 18593 18594 1 180.0000771 15.1670000 2
18585 18584 18593 18591 1 180.0000771 15.1670000 2
18585 18584 18593 18594 1 180.0000771 15.1670000 2
18586 18585 18584 18593 1 180.0000771 15.1670000 2
18587 18585 18584 18593 1 180.0000771 15.1670000 2
18584 18585 18587 18588 1 180.0000771 15.1670000 2
18584 18585 18587 18589 1 180.0000771 15.1670000 2
18586 18585 18587 18588 1 180.0000771 15.1670000 2
18586 18585 18587 18589 1 180.0000771 15.1670000 2
18585 18587 18589 18590 1 180.0000771 15.1670000 2
18585 18587 18589 18591 1 180.0000771 15.1670000 2
18588 18587 18589 18590 1 180.0000771 15.1670000 2
18588 18587 18589 18591 1 180.0000771 15.1670000 2
18585 18589 18587 18588 4 180.0000771 4.6024000 2
18587 18589 18591 18592 1 180.0000771 15.1670000 2
18587 18589 18591 18593 1 180.0000771 15.1670000 2
18590 18589 18591 18592 1 180.0000771 15.1670000 2
18590 18589 18591 18593 1 180.0000771 15.1670000 2
18587 18591 18589 18590 4 180.0000771 4.6024000 2
18584 18591 18593 18594 4 180.0000771 4.6024000 2
18589 18591 18593 18594 1 180.0000771 15.1670000 2
18592 18591 18593 18594 1 180.0000771 15.1670000 2
18584 18593 18591 18589 1 180.0000771 15.1670000 2
18584 18593 18591 18592 1 180.0000771 15.1670000 2
18589 18593 18591 18592 4 180.0000771 4.6024000 2
18595 18596 18597 18598 1 180.0000771 15.1670000 2
18595 18596 18597 18599 1 180.0000771 15.1670000 2
18598 18596 18597 18599 4 180.0000771 4.6024000 2
18595 18596 18605 18597 4 180.0000771 4.6024000 2
18595 18596 18605 18603 1 180.0000771 15.1670000 2
18595 18596 18605 18606 1 180.0000771 15.1670000 2
18597 18596 18605 18603 1 180.0000771 15.1670000 2
18597 18596 18605 18606 1 180.0000771 15.1670000 2
18598 18597 18596 18605 1 180.0000771 15.1670000 2
18599 18597 18596 18605 1 180.0000771 15.1670000 2
18596 18597 18599 18600 1 180.0000771 15.1670000 2
18596 18597 18599 18601 1 180.0000771 15.1670000 2
18598 18597 18599 18600 1 180.0000771 15.1670000 2
18598 18597 18599 18601 1 180.0000771 15.1670000 2
18597 18599 18601 18602 1 180.0000771 15.1670000 2
18597 18599 18601 18603 1 180.0000771 15.1670000 2
18600 18599 18601 18602 1 180.0000771 15.1670000 2
18600 18599 18601 18603 1 180.0000771 15.1670000 2
18597 18601 18599 18600 4 180.0000771 4.6024000 2
18599 18601 18603 18604 1 180.0000771 15.1670000 2
18599 18601 18603 18605 1 180.0000771 15.1670000 2
18602 18601 18603 18604 1 180.0000771 15.1670000 2
18602 18601 18603 18605 1 180.0000771 15.1670000 2
18599 18603 18601 18602 4 180.0000771 4.6024000 2
18596 18603 18605 18606 4 180.0000771 4.6024000 2
18601 18603 18605 18606 1 180.0000771 15.1670000 2
18604 18603 18605 18606 1 180.0000771 15.1670000 2
18596 18605 18603 18601 1 180.0000771 15.1670000 2
18596 18605 18603 18604 1 180.0000771 15.1670000 2
18601 18605 18603 18604 4 180.0000771 4.6024000 2
18607 18608 18609 18610 1 180.0000771 15.1670000 2
18607 18608 18609 18611 1 180.0000771 15.1670000 2
18610 18608 18609 18611 4 180.0000771 4.6024000 2
18607 18608 18617 18609 4 180.0000771 4.6024000 2
18607 18608 18617 18615 1 180.0000771 15.1670000 2
18607 18608 18617 18618 1 180.0000771 15.1670000 2
18609 18608 18617 18615 1 180.0000771 15.1670000 2
18609 18608 18617 18618 1 180.0000771 15.1670000 2
18610 18609 18608 18617 1 180.0000771 15.1670000 2
18611 18609 18608 18617 1 180.0000771 15.1670000 2
18608 18609 18611 18612 1 180.0000771 15.1670000 2
18608 18609 18611 18613 1 180.0000771 15.1670000 2
18610 18609 18611 18612 1 180.0000771 15.1670000 2
18610 18609 18611 18613 1 180.0000771 15.1670000 2
18609 18611 18613 18614 1 180.0000771 15.1670000 2
18609 18611 18613 18615 1 180.0000771 15.1670000 2
18612 18611 18613 18614 1 180.0000771 15.1670000 2
18612 18611 18613 18615 1 180.0000771 15.1670000 2
18609 18613 18611 18612 4 180.0000771 4.6024000 2
18611 18613 18615 18616 1 180.0000771 15.1670000 2
18611 18613 18615 18617 1 180.0000771 15.1670000 2
18614 18613 18615 18616 1 180.0000771 15.1670000 2
18614 18613 18615 18617 1 180.0000771 15.1670000 2
18611 18615 18613 18614 4 180.0000771 4.6024000 2
18608 18615 18617 18618 4 180.0000771 4.6024000 2
18613 18615 18617 18618 1 180.0000771 15.1670000 2
18616 18615 18617 18618 1 180.0000771 15.1670000 2
18608 18617 18615 18613 1 180.0000771 15.1670000 2
18608 18617 18615 18616 1 180.0000771 15.1670000 2
18613 18617 18615 18616 4 180.0000771 4.6024000 2
18619 18620 18621 18622 1 180.0000771 15.1670000 2
18619 18620 18621 18623 1 180.0000771 15.1670000 2
18622 18620 18621 18623 4 180.0000771 4.6024000 2
18619 18620 18629 18621 4 180.0000771 4.6024000 2
18619 18620 18629 18627 1 180.0000771 15.1670000 2
18619 18620 18629 18630 1 180.0000771 15.1670000 2
18621 18620 18629 18627 1 180.0000771 15.1670000 2
18621 18620 18629 18630 1 180.0000771 15.1670000 2
18622 18621 18620 18629 1 180.0000771 15.1670000 2
18623 18621 18620 18629 1 180.0000771 15.1670000 2
18620 18621 18623 18624 1 180.0000771 15.1670000 2
18620 18621 18623 18625 1 180.0000771 15.1670000 2
18622 18621 18623 18624 1 180.0000771 15.1670000 2
18622 18621 18623 18625 1 180.0000771 15.1670000 2
18621 18623 18625 18626 1 180.0000771 15.1670000 2
18621 18623 18625 18627 1 180.0000771 15.1670000 2
18624 18623 18625 18626 1 180.0000771 15.1670000 2
18624 18623 18625 18627 1 180.0000771 15.1670000 2
18621 18625 18623 18624 4 180.0000771 4.6024000 2
18623 18625 18627 18628 1 180.0000771 15.1670000 2
18623 18625 18627 18629 1 180.0000771 15.1670000 2
18626 18625 18627 18628 1 180.0000771 15.1670000 2
18626 18625 18627 18629 1 180.0000771 15.1670000 2
18623 18627 18625 18626 4 180.0000771 4.6024000 2
18620 18627 18629 18630 4 180.0000771 4.6024000 2
18625 18627 18629 18630 1 180.0000771 15.1670000 2
18628 18627 18629 18630 1 180.0000771 15.1670000 2
18620 18629 18627 18625 1 180.0000771 15.1670000 2
18620 18629 18627 18628 1 180.0000771 15.1670000 2
18625 18629 18627 18628 4 180.0000771 4.6024000 2
18631 18632 18633 18634 1 180.0000771 15.1670000 2
18631 18632 18633 18635 1 180.0000771 15.1670000 2
18634 18632 18633 18635 4 180.0000771 4.6024000 2
18631 18632 18641 18633 4 180.0000771 4.6024000 2
18631 18632 18641 18639 1 180.0000771 15.1670000 2
18631 18632 18641 18642 1 180.0000771 15.1670000 2
18633 18632 18641 18639 1 180.0000771 15.1670000 2
18633 18632 18641 18642 1 180.0000771 15.1670000 2
18634 18633 18632 18641 1 180.0000771 15.1670000 2
18635 18633 18632 18641 1 180.0000771 15.1670000 2
18632 18633 18635 18636 1 180.0000771 15.1670000 2
18632 18633 18635 18637 1 180.0000771 15.1670000 2
18634 18633 18635 18636 1 180.0000771 15.1670000 2
18634 18633 18635 18637 1 180.0000771 15.1670000 2
18633 18635 18637 18638 1 180.0000771 15.1670000 2
18633 18635 18637 18639 1 180.0000771 15.1670000 2
18636 18635 18637 18638 1 180.0000771 15.1670000 2
18636 18635 18637 18639 1 180.0000771 15.1670000 2
18633 18637 18635 18636 4 180.0000771 4.6024000 2
18635 18637 18639 18640 1 180.0000771 15.1670000 2
18635 18637 18639 18641 1 180.0000771 15.1670000 2
18638 18637 18639 18640 1 180.0000771 15.1670000 2
18638 18637 18639 18641 1 180.0000771 15.1670000 2
18635 18639 18637 18638 4 180.0000771 4.6024000 2
18632 18639 18641 18642 4 180.0000771 4.6024000 2
18637 18639 18641 18642 1 180.0000771 15.1670000 2
18640 18639 18641 18642 1 180.0000771 15.1670000 2
18632 18641 18639 18637 1 180.0000771 15.1670000 2
18632 18641 18639 18640 1 180.0000771 15.1670000 2
18637 18641 18639 18640 4 180.0000771 4.6024000 2
18643 18644 18645 18646 1 180.0000771 15.1670000 2
18643 18644 18645 18647 1 180.0000771 15.1670000 2
18646 18644 18645 18647 4 180.0000771 4.6024000 2
18643 18644 18653 18645 4 180.0000771 4.6024000 2
18643 18644 18653 18651 1 180.0000771 15.1670000 2
18643 18644 18653 18654 1 180.0000771 15.1670000 2
18645 18644 18653 18651 1 180.0000771 15.1670000 2
18645 18644 18653 18654 1 180.0000771 15.1670000 2
18646 18645 18644 18653 1 180.0000771 15.1670000 2
18647 18645 18644 18653 1 180.0000771 15.1670000 2
18644 18645 18647 18648 1 180.0000771 15.1670000 2
18644 18645 18647 18649 1 180.0000771 15.1670000 2
18646 18645 18647 18648 1 180.0000771 15.1670000 2
18646 18645 18647 18649 1 180.0000771 15.1670000 2
18645 18647 18649 18650 1 180.0000771 15.1670000 2
18645 18647 18649 18651 1 180.0000771 15.1670000 2
18648 18647 18649 18650 1 180.0000771 15.1670000 2
18648 18647 18649 18651 1 180.0000771 15.1670000 2
18645 18649 18647 18648 4 180.0000771 4.6024000 2
18647 18649 18651 18652 1 180.0000771 15.1670000 2
18647 18649 18651 18653 1 180.0000771 15.1670000 2
18650 18649 18651 18652 1 180.0000771 15.1670000 2
18650 18649 18651 18653 1 180.0000771 15.1670000 2
18647 18651 18649 18650 4 180.0000771 4.6024000 2
18644 18651 18653 18654 4 180.0000771 4.6024000 2
18649 18651 18653 18654 1 180.0000771 15.1670000 2
18652 18651 18653 18654 1 180.0000771 15.1670000 2
18644 18653 18651 18649 1 180.0000771 15.1670000 2
18644 18653 18651 18652 1 180.0000771 15.1670000 2
18649 18653 18651 18652 4 180.0000771 4.6024000 2
18655 18656 18657 18658 1 180.0000771 15.1670000 2
18655 18656 18657 18659 1 180.0000771 15.1670000 2
18658 18656 18657 18659 4 180.0000771 4.6024000 2
18655 18656 18665 18657 4 180.0000771 4.6024000 2
18655 18656 18665 18663 1 180.0000771 15.1670000 2
18655 18656 18665 18666 1 180.0000771 15.1670000 2
18657 18656 18665 18663 1 180.0000771 15.1670000 2
18657 18656 18665 18666 1 180.0000771 15.1670000 2
18658 18657 18656 18665 1 180.0000771 15.1670000 2
18659 18657 18656 18665 1 180.0000771 15.1670000 2
18656 18657 18659 18660 1 180.0000771 15.1670000 2
18656 18657 18659 18661 1 180.0000771 15.1670000 2
18658 18657 18659 18660 1 180.0000771 15.1670000 2
18658 18657 18659 18661 1 180.0000771 15.1670000 2
18657 18659 18661 18662 1 180.0000771 15.1670000 2
18657 18659 18661 18663 1 180.0000771 15.1670000 2
18660 18659 18661 18662 1 180.0000771 15.1670000 2
18660 18659 18661 18663 1 180.0000771 15.1670000 2
18657 18661 18659 18660 4 180.0000771 4.6024000 2
18659 18661 18663 18664 1 180.0000771 15.1670000 2
18659 18661 18663 18665 1 180.0000771 15.1670000 2
18662 18661 18663 18664 1 180.0000771 15.1670000 2
18662 18661 18663 18665 1 180.0000771 15.1670000 2
18659 18663 18661 18662 4 180.0000771 4.6024000 2
18656 18663 18665 18666 4 180.0000771 4.6024000 2
18661 18663 18665 18666 1 180.0000771 15.1670000 2
18664 18663 18665 18666 1 180.0000771 15.1670000 2
18656 18665 18663 18661 1 180.0000771 15.1670000 2
18656 18665 18663 18664 1 180.0000771 15.1670000 2
18661 18665 18663 18664 4 180.0000771 4.6024000 2
18667 18668 18669 18670 1 180.0000771 15.1670000 2
18667 18668 18669 18671 1 180.0000771 15.1670000 2
18670 18668 18669 18671 4 180.0000771 4.6024000 2
18667 18668 18677 18669 4 180.0000771 4.6024000 2
18667 18668 18677 18675 1 180.0000771 15.1670000 2
18667 18668 18677 18678 1 180.0000771 15.1670000 2
18669 18668 18677 18675 1 180.0000771 15.1670000 2
18669 18668 18677 18678 1 180.0000771 15.1670000 2
18670 18669 18668 18677 1 180.0000771 15.1670000 2
18671 18669 18668 18677 1 180.0000771 15.1670000 2
18668 18669 18671 18672 1 180.0000771 15.1670000 2
18668 18669 18671 18673 1 180.0000771 15.1670000 2
18670 18669 18671 18672 1 180.0000771 15.1670000 2
18670 18669 18671 18673 1 180.0000771 15.1670000 2
18669 18671 18673 18674 1 180.0000771 15.1670000 2
18669 18671 18673 18675 1 180.0000771 15.1670000 2
18672 18671 18673 18674 1 180.0000771 15.1670000 2
18672 18671 18673 18675 1 180.0000771 15.1670000 2
18669 18673 18671 18672 4 180.0000771 4.6024000 2
18671 18673 18675 18676 1 180.0000771 15.1670000 2
18671 18673 18675 18677 1 180.0000771 15.1670000 2
18674 18673 18675 18676 1 180.0000771 15.1670000 2
18674 18673 18675 18677 1 180.0000771 15.1670000 2
18671 18675 18673 18674 4 180.0000771 4.6024000 2
18668 18675 18677 18678 4 180.0000771 4.6024000 2
18673 18675 18677 18678 1 180.0000771 15.1670000 2
18676 18675 18677 18678 1 180.0000771 15.1670000 2
18668 18677 18675 18673 1 180.0000771 15.1670000 2
18668 18677 18675 18676 1 180.0000771 15.1670000 2
18673 18677 18675 18676 4 180.0000771 4.6024000 2
18679 18680 18681 18682 1 180.0000771 15.1670000 2
18679 18680 18681 18683 1 180.0000771 15.1670000 2
18682 18680 18681 18683 4 180.0000771 4.6024000 2
18679 18680 18689 18681 4 180.0000771 4.6024000 2
18679 18680 18689 18687 1 180.0000771 15.1670000 2
18679 18680 18689 18690 1 180.0000771 15.1670000 2
18681 18680 18689 18687 1 180.0000771 15.1670000 2
18681 18680 18689 18690 1 180.0000771 15.1670000 2
18682 18681 18680 18689 1 180.0000771 15.1670000 2
18683 18681 18680 18689 1 180.0000771 15.1670000 2
18680 18681 18683 18684 1 180.0000771 15.1670000 2
18680 18681 18683 18685 1 180.0000771 15.1670000 2
18682 18681 18683 18684 1 180.0000771 15.1670000 2
18682 18681 18683 18685 1 180.0000771 15.1670000 2
18681 18683 18685 18686 1 180.0000771 15.1670000 2
18681 18683 18685 18687 1 180.0000771 15.1670000 2
18684 18683 18685 18686 1 180.0000771 15.1670000 2
18684 18683 18685 18687 1 180.0000771 15.1670000 2
18681 18685 18683 18684 4 180.0000771 4.6024000 2
18683 18685 18687 18688 1 180.0000771 15.1670000 2
18683 18685 18687 18689 1 180.0000771 15.1670000 2
18686 18685 18687 18688 1 180.0000771 15.1670000 2
18686 18685 18687 18689 1 180.0000771 15.1670000 2
18683 18687 18685 18686 4 180.0000771 4.6024000 2
18680 18687 18689 18690 4 180.0000771 4.6024000 2
18685 18687 18689 18690 1 180.0000771 15.1670000 2
18688 18687 18689 18690 1 180.0000771 15.1670000 2
18680 18689 18687 18685 1 180.0000771 15.1670000 2
18680 18689 18687 18688 1 180.0000771 15.1670000 2
18685 18689 18687 18688 4 180.0000771 4.6024000 2
18691 18692 18693 18694 1 180.0000771 15.1670000 2
18691 18692 18693 18695 1 180.0000771 15.1670000 2
18694 18692 18693 18695 4 180.0000771 4.6024000 2
18691 18692 18701 18693 4 180.0000771 4.6024000 2
18691 18692 18701 18699 1 180.0000771 15.1670000 2
18691 18692 18701 18702 1 180.0000771 15.1670000 2
18693 18692 18701 18699 1 180.0000771 15.1670000 2
18693 18692 18701 18702 1 180.0000771 15.1670000 2
18694 18693 18692 18701 1 180.0000771 15.1670000 2
18695 18693 18692 18701 1 180.0000771 15.1670000 2
18692 18693 18695 18696 1 180.0000771 15.1670000 2
18692 18693 18695 18697 1 180.0000771 15.1670000 2
18694 18693 18695 18696 1 180.0000771 15.1670000 2
18694 18693 18695 18697 1 180.0000771 15.1670000 2
18693 18695 18697 18698 1 180.0000771 15.1670000 2
18693 18695 18697 18699 1 180.0000771 15.1670000 2
18696 18695 18697 18698 1 180.0000771 15.1670000 2
18696 18695 18697 18699 1 180.0000771 15.1670000 2
18693 18697 18695 18696 4 180.0000771 4.6024000 2
18695 18697 18699 18700 1 180.0000771 15.1670000 2
18695 18697 18699 18701 1 180.0000771 15.1670000 2
18698 18697 18699 18700 1 180.0000771 15.1670000 2
18698 18697 18699 18701 1 180.0000771 15.1670000 2
18695 18699 18697 18698 4 180.0000771 4.6024000 2
18692 18699 18701 18702 4 180.0000771 4.6024000 2
18697 18699 18701 18702 1 180.0000771 15.1670000 2
18700 18699 18701 18702 1 180.0000771 15.1670000 2
18692 18701 18699 18697 1 180.0000771 15.1670000 2
18692 18701 18699 18700 1 180.0000771 15.1670000 2
18697 18701 18699 18700 4 180.0000771 4.6024000 2
18703 18704 18705 18706 1 180.0000771 15.1670000 2
18703 18704 18705 18707 1 180.0000771 15.1670000 2
18706 18704 18705 18707 4 180.0000771 4.6024000 2
18703 18704 18713 18705 4 180.0000771 4.6024000 2
18703 18704 18713 18711 1 180.0000771 15.1670000 2
18703 18704 18713 18714 1 180.0000771 15.1670000 2
18705 18704 18713 18711 1 180.0000771 15.1670000 2
18705 18704 18713 18714 1 180.0000771 15.1670000 2
18706 18705 18704 18713 1 180.0000771 15.1670000 2
18707 18705 18704 18713 1 180.0000771 15.1670000 2
18704 18705 18707 18708 1 180.0000771 15.1670000 2
18704 18705 18707 18709 1 180.0000771 15.1670000 2
18706 18705 18707 18708 1 180.0000771 15.1670000 2
18706 18705 18707 18709 1 180.0000771 15.1670000 2
18705 18707 18709 18710 1 180.0000771 15.1670000 2
18705 18707 18709 18711 1 180.0000771 15.1670000 2
18708 18707 18709 18710 1 180.0000771 15.1670000 2
18708 18707 18709 18711 1 180.0000771 15.1670000 2
18705 18709 18707 18708 4 180.0000771 4.6024000 2
18707 18709 18711 18712 1 180.0000771 15.1670000 2
18707 18709 18711 18713 1 180.0000771 15.1670000 2
18710 18709 18711 18712 1 180.0000771 15.1670000 2
18710 18709 18711 18713 1 180.0000771 15.1670000 2
18707 18711 18709 18710 4 180.0000771 4.6024000 2
18704 18711 18713 18714 4 180.0000771 4.6024000 2
18709 18711 18713 18714 1 180.0000771 15.1670000 2
18712 18711 18713 18714 1 180.0000771 15.1670000 2
18704 18713 18711 18709 1 180.0000771 15.1670000 2
18704 18713 18711 18712 1 180.0000771 15.1670000 2
18709 18713 18711 18712 4 180.0000771 4.6024000 2
18715 18716 18717 18718 1 180.0000771 15.1670000 2
18715 18716 18717 18719 1 180.0000771 15.1670000 2
18718 18716 18717 18719 4 180.0000771 4.6024000 2
18715 18716 18725 18717 4 180.0000771 4.6024000 2
18715 18716 18725 18723 1 180.0000771 15.1670000 2
18715 18716 18725 18726 1 180.0000771 15.1670000 2
18717 18716 18725 18723 1 180.0000771 15.1670000 2
18717 18716 18725 18726 1 180.0000771 15.1670000 2
18718 18717 18716 18725 1 180.0000771 15.1670000 2
18719 18717 18716 18725 1 180.0000771 15.1670000 2
18716 18717 18719 18720 1 180.0000771 15.1670000 2
18716 18717 18719 18721 1 180.0000771 15.1670000 2
18718 18717 18719 18720 1 180.0000771 15.1670000 2
18718 18717 18719 18721 1 180.0000771 15.1670000 2
18717 18719 18721 18722 1 180.0000771 15.1670000 2
18717 18719 18721 18723 1 180.0000771 15.1670000 2
18720 18719 18721 18722 1 180.0000771 15.1670000 2
18720 18719 18721 18723 1 180.0000771 15.1670000 2
18717 18721 18719 18720 4 180.0000771 4.6024000 2
18719 18721 18723 18724 1 180.0000771 15.1670000 2
18719 18721 18723 18725 1 180.0000771 15.1670000 2
18722 18721 18723 18724 1 180.0000771 15.1670000 2
18722 18721 18723 18725 1 180.0000771 15.1670000 2
18719 18723 18721 18722 4 180.0000771 4.6024000 2
18716 18723 18725 18726 4 180.0000771 4.6024000 2
18721 18723 18725 18726 1 180.0000771 15.1670000 2
18724 18723 18725 18726 1 180.0000771 15.1670000 2
18716 18725 18723 18721 1 180.0000771 15.1670000 2
18716 18725 18723 18724 1 180.0000771 15.1670000 2
18721 18725 18723 18724 4 180.0000771 4.6024000 2
18727 18728 18729 18730 1 180.0000771 15.1670000 2
18727 18728 18729 18731 1 180.0000771 15.1670000 2
18730 18728 18729 18731 4 180.0000771 4.6024000 2
18727 18728 18737 18729 4 180.0000771 4.6024000 2
18727 18728 18737 18735 1 180.0000771 15.1670000 2
18727 18728 18737 18738 1 180.0000771 15.1670000 2
18729 18728 18737 18735 1 180.0000771 15.1670000 2
18729 18728 18737 18738 1 180.0000771 15.1670000 2
18730 18729 18728 18737 1 180.0000771 15.1670000 2
18731 18729 18728 18737 1 180.0000771 15.1670000 2
18728 18729 18731 18732 1 180.0000771 15.1670000 2
18728 18729 18731 18733 1 180.0000771 15.1670000 2
18730 18729 18731 18732 1 180.0000771 15.1670000 2
18730 18729 18731 18733 1 180.0000771 15.1670000 2
18729 18731 18733 18734 1 180.0000771 15.1670000 2
18729 18731 18733 18735 1 180.0000771 15.1670000 2
18732 18731 18733 18734 1 180.0000771 15.1670000 2
18732 18731 18733 18735 1 180.0000771 15.1670000 2
18729 18733 18731 18732 4 180.0000771 4.6024000 2
18731 18733 18735 18736 1 180.0000771 15.1670000 2
18731 18733 18735 18737 1 180.0000771 15.1670000 2
18734 18733 18735 18736 1 180.0000771 15.1670000 2
18734 18733 18735 18737 1 180.0000771 15.1670000 2
18731 18735 18733 18734 4 180.0000771 4.6024000 2
18728 18735 18737 18738 4 180.0000771 4.6024000 2
18733 18735 18737 18738 1 180.0000771 15.1670000 2
18736 18735 18737 18738 1 180.0000771 15.1670000 2
18728 18737 18735 18733 1 180.0000771 15.1670000 2
18728 18737 18735 18736 1 180.0000771 15.1670000 2
18733 18737 18735 18736 4 180.0000771 4.6024000 2
18739 18740 18741 18742 1 180.0000771 15.1670000 2
18739 18740 18741 18743 1 180.0000771 15.1670000 2
18742 18740 18741 18743 4 180.0000771 4.6024000 2
18739 18740 18749 18741 4 180.0000771 4.6024000 2
18739 18740 18749 18747 1 180.0000771 15.1670000 2
18739 18740 18749 18750 1 180.0000771 15.1670000 2
18741 18740 18749 18747 1 180.0000771 15.1670000 2
18741 18740 18749 18750 1 180.0000771 15.1670000 2
18742 18741 18740 18749 1 180.0000771 15.1670000 2
18743 18741 18740 18749 1 180.0000771 15.1670000 2
18740 18741 18743 18744 1 180.0000771 15.1670000 2
18740 18741 18743 18745 1 180.0000771 15.1670000 2
18742 18741 18743 18744 1 180.0000771 15.1670000 2
18742 18741 18743 18745 1 180.0000771 15.1670000 2
18741 18743 18745 18746 1 180.0000771 15.1670000 2
18741 18743 18745 18747 1 180.0000771 15.1670000 2
18744 18743 18745 18746 1 180.0000771 15.1670000 2
18744 18743 18745 18747 1 180.0000771 15.1670000 2
18741 18745 18743 18744 4 180.0000771 4.6024000 2
18743 18745 18747 18748 1 180.0000771 15.1670000 2
18743 18745 18747 18749 1 180.0000771 15.1670000 2
18746 18745 18747 18748 1 180.0000771 15.1670000 2
18746 18745 18747 18749 1 180.0000771 15.1670000 2
18743 18747 18745 18746 4 180.0000771 4.6024000 2
18740 18747 18749 18750 4 180.0000771 4.6024000 2
18745 18747 18749 18750 1 180.0000771 15.1670000 2
18748 18747 18749 18750 1 180.0000771 15.1670000 2
18740 18749 18747 18745 1 180.0000771 15.1670000 2
18740 18749 18747 18748 1 180.0000771 15.1670000 2
18745 18749 18747 18748 4 180.0000771 4.6024000 2
18751 18752 18753 18754 1 180.0000771 15.1670000 2
18751 18752 18753 18755 1 180.0000771 15.1670000 2
18754 18752 18753 18755 4 180.0000771 4.6024000 2
18751 18752 18761 18753 4 180.0000771 4.6024000 2
18751 18752 18761 18759 1 180.0000771 15.1670000 2
18751 18752 18761 18762 1 180.0000771 15.1670000 2
18753 18752 18761 18759 1 180.0000771 15.1670000 2
18753 18752 18761 18762 1 180.0000771 15.1670000 2
18754 18753 18752 18761 1 180.0000771 15.1670000 2
18755 18753 18752 18761 1 180.0000771 15.1670000 2
18752 18753 18755 18756 1 180.0000771 15.1670000 2
18752 18753 18755 18757 1 180.0000771 15.1670000 2
18754 18753 18755 18756 1 180.0000771 15.1670000 2
18754 18753 18755 18757 1 180.0000771 15.1670000 2
18753 18755 18757 18758 1 180.0000771 15.1670000 2
18753 18755 18757 18759 1 180.0000771 15.1670000 2
18756 18755 18757 18758 1 180.0000771 15.1670000 2
18756 18755 18757 18759 1 180.0000771 15.1670000 2
18753 18757 18755 18756 4 180.0000771 4.6024000 2
18755 18757 18759 18760 1 180.0000771 15.1670000 2
18755 18757 18759 18761 1 180.0000771 15.1670000 2
18758 18757 18759 18760 1 180.0000771 15.1670000 2
18758 18757 18759 18761 1 180.0000771 15.1670000 2
18755 18759 18757 18758 4 180.0000771 4.6024000 2
18752 18759 18761 18762 4 180.0000771 4.6024000 2
18757 18759 18761 18762 1 180.0000771 15.1670000 2
18760 18759 18761 18762 1 180.0000771 15.1670000 2
18752 18761 18759 18757 1 180.0000771 15.1670000 2
18752 18761 18759 18760 1 180.0000771 15.1670000 2
18757 18761 18759 18760 4 180.0000771 4.6024000 2
18763 18764 18765 18766 1 180.0000771 15.1670000 2
18763 18764 18765 18767 1 180.0000771 15.1670000 2
18766 18764 18765 18767 4 180.0000771 4.6024000 2
18763 18764 18773 18765 4 180.0000771 4.6024000 2
18763 18764 18773 18771 1 180.0000771 15.1670000 2
18763 18764 18773 18774 1 180.0000771 15.1670000 2
18765 18764 18773 18771 1 180.0000771 15.1670000 2
18765 18764 18773 18774 1 180.0000771 15.1670000 2
18766 18765 18764 18773 1 180.0000771 15.1670000 2
18767 18765 18764 18773 1 180.0000771 15.1670000 2
18764 18765 18767 18768 1 180.0000771 15.1670000 2
18764 18765 18767 18769 1 180.0000771 15.1670000 2
18766 18765 18767 18768 1 180.0000771 15.1670000 2
18766 18765 18767 18769 1 180.0000771 15.1670000 2
18765 18767 18769 18770 1 180.0000771 15.1670000 2
18765 18767 18769 18771 1 180.0000771 15.1670000 2
18768 18767 18769 18770 1 180.0000771 15.1670000 2
18768 18767 18769 18771 1 180.0000771 15.1670000 2
18765 18769 18767 18768 4 180.0000771 4.6024000 2
18767 18769 18771 18772 1 180.0000771 15.1670000 2
18767 18769 18771 18773 1 180.0000771 15.1670000 2
18770 18769 18771 18772 1 180.0000771 15.1670000 2
18770 18769 18771 18773 1 180.0000771 15.1670000 2
18767 18771 18769 18770 4 180.0000771 4.6024000 2
18764 18771 18773 18774 4 180.0000771 4.6024000 2
18769 18771 18773 18774 1 180.0000771 15.1670000 2
18772 18771 18773 18774 1 180.0000771 15.1670000 2
18764 18773 18771 18769 1 180.0000771 15.1670000 2
18764 18773 18771 18772 1 180.0000771 15.1670000 2
18769 18773 18771 18772 4 180.0000771 4.6024000 2
18775 18776 18777 18778 1 180.0000771 15.1670000 2
18775 18776 18777 18779 1 180.0000771 15.1670000 2
18778 18776 18777 18779 4 180.0000771 4.6024000 2
18775 18776 18785 18777 4 180.0000771 4.6024000 2
18775 18776 18785 18783 1 180.0000771 15.1670000 2
18775 18776 18785 18786 1 180.0000771 15.1670000 2
18777 18776 18785 18783 1 180.0000771 15.1670000 2
18777 18776 18785 18786 1 180.0000771 15.1670000 2
18778 18777 18776 18785 1 180.0000771 15.1670000 2
18779 18777 18776 18785 1 180.0000771 15.1670000 2
18776 18777 18779 18780 1 180.0000771 15.1670000 2
18776 18777 18779 18781 1 180.0000771 15.1670000 2
18778 18777 18779 18780 1 180.0000771 15.1670000 2
18778 18777 18779 18781 1 180.0000771 15.1670000 2
18777 18779 18781 18782 1 180.0000771 15.1670000 2
18777 18779 18781 18783 1 180.0000771 15.1670000 2
18780 18779 18781 18782 1 180.0000771 15.1670000 2
18780 18779 18781 18783 1 180.0000771 15.1670000 2
18777 18781 18779 18780 4 180.0000771 4.6024000 2
18779 18781 18783 18784 1 180.0000771 15.1670000 2
18779 18781 18783 18785 1 180.0000771 15.1670000 2
18782 18781 18783 18784 1 180.0000771 15.1670000 2
18782 18781 18783 18785 1 180.0000771 15.1670000 2
18779 18783 18781 18782 4 180.0000771 4.6024000 2
18776 18783 18785 18786 4 180.0000771 4.6024000 2
18781 18783 18785 18786 1 180.0000771 15.1670000 2
18784 18783 18785 18786 1 180.0000771 15.1670000 2
18776 18785 18783 18781 1 180.0000771 15.1670000 2
18776 18785 18783 18784 1 180.0000771 15.1670000 2
18781 18785 18783 18784 4 180.0000771 4.6024000 2
18787 18788 18789 18790 1 180.0000771 15.1670000 2
18787 18788 18789 18791 1 180.0000771 15.1670000 2
18790 18788 18789 18791 4 180.0000771 4.6024000 2
18787 18788 18797 18789 4 180.0000771 4.6024000 2
18787 18788 18797 18795 1 180.0000771 15.1670000 2
18787 18788 18797 18798 1 180.0000771 15.1670000 2
18789 18788 18797 18795 1 180.0000771 15.1670000 2
18789 18788 18797 18798 1 180.0000771 15.1670000 2
18790 18789 18788 18797 1 180.0000771 15.1670000 2
18791 18789 18788 18797 1 180.0000771 15.1670000 2
18788 18789 18791 18792 1 180.0000771 15.1670000 2
18788 18789 18791 18793 1 180.0000771 15.1670000 2
18790 18789 18791 18792 1 180.0000771 15.1670000 2
18790 18789 18791 18793 1 180.0000771 15.1670000 2
18789 18791 18793 18794 1 180.0000771 15.1670000 2
18789 18791 18793 18795 1 180.0000771 15.1670000 2
18792 18791 18793 18794 1 180.0000771 15.1670000 2
18792 18791 18793 18795 1 180.0000771 15.1670000 2
18789 18793 18791 18792 4 180.0000771 4.6024000 2
18791 18793 18795 18796 1 180.0000771 15.1670000 2
18791 18793 18795 18797 1 180.0000771 15.1670000 2
18794 18793 18795 18796 1 180.0000771 15.1670000 2
18794 18793 18795 18797 1 180.0000771 15.1670000 2
18791 18795 18793 18794 4 180.0000771 4.6024000 2
18788 18795 18797 18798 4 180.0000771 4.6024000 2
18793 18795 18797 18798 1 180.0000771 15.1670000 2
18796 18795 18797 18798 1 180.0000771 15.1670000 2
18788 18797 18795 18793 1 180.0000771 15.1670000 2
18788 18797 18795 18796 1 180.0000771 15.1670000 2
18793 18797 18795 18796 4 180.0000771 4.6024000 2
18799 18800 18801 18802 1 180.0000771 15.1670000 2
18799 18800 18801 18803 1 180.0000771 15.1670000 2
18802 18800 18801 18803 4 180.0000771 4.6024000 2
18799 18800 18809 18801 4 180.0000771 4.6024000 2
18799 18800 18809 18807 1 180.0000771 15.1670000 2
18799 18800 18809 18810 1 180.0000771 15.1670000 2
18801 18800 18809 18807 1 180.0000771 15.1670000 2
18801 18800 18809 18810 1 180.0000771 15.1670000 2
18802 18801 18800 18809 1 180.0000771 15.1670000 2
18803 18801 18800 18809 1 180.0000771 15.1670000 2
18800 18801 18803 18804 1 180.0000771 15.1670000 2
18800 18801 18803 18805 1 180.0000771 15.1670000 2
18802 18801 18803 18804 1 180.0000771 15.1670000 2
18802 18801 18803 18805 1 180.0000771 15.1670000 2
18801 18803 18805 18806 1 180.0000771 15.1670000 2
18801 18803 18805 18807 1 180.0000771 15.1670000 2
18804 18803 18805 18806 1 180.0000771 15.1670000 2
18804 18803 18805 18807 1 180.0000771 15.1670000 2
18801 18805 18803 18804 4 180.0000771 4.6024000 2
18803 18805 18807 18808 1 180.0000771 15.1670000 2
18803 18805 18807 18809 1 180.0000771 15.1670000 2
18806 18805 18807 18808 1 180.0000771 15.1670000 2
18806 18805 18807 18809 1 180.0000771 15.1670000 2
18803 18807 18805 18806 4 180.0000771 4.6024000 2
18800 18807 18809 18810 4 180.0000771 4.6024000 2
18805 18807 18809 18810 1 180.0000771 15.1670000 2
18808 18807 18809 18810 1 180.0000771 15.1670000 2
18800 18809 18807 18805 1 180.0000771 15.1670000 2
18800 18809 18807 18808 1 180.0000771 15.1670000 2
18805 18809 18807 18808 4 180.0000771 4.6024000 2
18811 18812 18813 18814 1 180.0000771 15.1670000 2
18811 18812 18813 18815 1 180.0000771 15.1670000 2
18814 18812 18813 18815 4 180.0000771 4.6024000 2
18811 18812 18821 18813 4 180.0000771 4.6024000 2
18811 18812 18821 18819 1 180.0000771 15.1670000 2
18811 18812 18821 18822 1 180.0000771 15.1670000 2
18813 18812 18821 18819 1 180.0000771 15.1670000 2
18813 18812 18821 18822 1 180.0000771 15.1670000 2
18814 18813 18812 18821 1 180.0000771 15.1670000 2
18815 18813 18812 18821 1 180.0000771 15.1670000 2
18812 18813 18815 18816 1 180.0000771 15.1670000 2
18812 18813 18815 18817 1 180.0000771 15.1670000 2
18814 18813 18815 18816 1 180.0000771 15.1670000 2
18814 18813 18815 18817 1 180.0000771 15.1670000 2
18813 18815 18817 18818 1 180.0000771 15.1670000 2
18813 18815 18817 18819 1 180.0000771 15.1670000 2
18816 18815 18817 18818 1 180.0000771 15.1670000 2
18816 18815 18817 18819 1 180.0000771 15.1670000 2
18813 18817 18815 18816 4 180.0000771 4.6024000 2
18815 18817 18819 18820 1 180.0000771 15.1670000 2
18815 18817 18819 18821 1 180.0000771 15.1670000 2
18818 18817 18819 18820 1 180.0000771 15.1670000 2
18818 18817 18819 18821 1 180.0000771 15.1670000 2
18815 18819 18817 18818 4 180.0000771 4.6024000 2
18812 18819 18821 18822 4 180.0000771 4.6024000 2
18817 18819 18821 18822 1 180.0000771 15.1670000 2
18820 18819 18821 18822 1 180.0000771 15.1670000 2
18812 18821 18819 18817 1 180.0000771 15.1670000 2
18812 18821 18819 18820 1 180.0000771 15.1670000 2
18817 18821 18819 18820 4 180.0000771 4.6024000 2
18823 18824 18825 18826 1 180.0000771 15.1670000 2
18823 18824 18825 18827 1 180.0000771 15.1670000 2
18826 18824 18825 18827 4 180.0000771 4.6024000 2
18823 18824 18833 18825 4 180.0000771 4.6024000 2
18823 18824 18833 18831 1 180.0000771 15.1670000 2
18823 18824 18833 18834 1 180.0000771 15.1670000 2
18825 18824 18833 18831 1 180.0000771 15.1670000 2
18825 18824 18833 18834 1 180.0000771 15.1670000 2
18826 18825 18824 18833 1 180.0000771 15.1670000 2
18827 18825 18824 18833 1 180.0000771 15.1670000 2
18824 18825 18827 18828 1 180.0000771 15.1670000 2
18824 18825 18827 18829 1 180.0000771 15.1670000 2
18826 18825 18827 18828 1 180.0000771 15.1670000 2
18826 18825 18827 18829 1 180.0000771 15.1670000 2
18825 18827 18829 18830 1 180.0000771 15.1670000 2
18825 18827 18829 18831 1 180.0000771 15.1670000 2
18828 18827 18829 18830 1 180.0000771 15.1670000 2
18828 18827 18829 18831 1 180.0000771 15.1670000 2
18825 18829 18827 18828 4 180.0000771 4.6024000 2
18827 18829 18831 18832 1 180.0000771 15.1670000 2
18827 18829 18831 18833 1 180.0000771 15.1670000 2
18830 18829 18831 18832 1 180.0000771 15.1670000 2
18830 18829 18831 18833 1 180.0000771 15.1670000 2
18827 18831 18829 18830 4 180.0000771 4.6024000 2
18824 18831 18833 18834 4 180.0000771 4.6024000 2
18829 18831 18833 18834 1 180.0000771 15.1670000 2
18832 18831 18833 18834 1 180.0000771 15.1670000 2
18824 18833 18831 18829 1 180.0000771 15.1670000 2
18824 18833 18831 18832 1 180.0000771 15.1670000 2
18829 18833 18831 18832 4 180.0000771 4.6024000 2
18835 18836 18837 18838 1 180.0000771 15.1670000 2
18835 18836 18837 18839 1 180.0000771 15.1670000 2
18838 18836 18837 18839 4 180.0000771 4.6024000 2
18835 18836 18845 18837 4 180.0000771 4.6024000 2
18835 18836 18845 18843 1 180.0000771 15.1670000 2
18835 18836 18845 18846 1 180.0000771 15.1670000 2
18837 18836 18845 18843 1 180.0000771 15.1670000 2
18837 18836 18845 18846 1 180.0000771 15.1670000 2
18838 18837 18836 18845 1 180.0000771 15.1670000 2
18839 18837 18836 18845 1 180.0000771 15.1670000 2
18836 18837 18839 18840 1 180.0000771 15.1670000 2
18836 18837 18839 18841 1 180.0000771 15.1670000 2
18838 18837 18839 18840 1 180.0000771 15.1670000 2
18838 18837 18839 18841 1 180.0000771 15.1670000 2
18837 18839 18841 18842 1 180.0000771 15.1670000 2
18837 18839 18841 18843 1 180.0000771 15.1670000 2
18840 18839 18841 18842 1 180.0000771 15.1670000 2
18840 18839 18841 18843 1 180.0000771 15.1670000 2
18837 18841 18839 18840 4 180.0000771 4.6024000 2
18839 18841 18843 18844 1 180.0000771 15.1670000 2
18839 18841 18843 18845 1 180.0000771 15.1670000 2
18842 18841 18843 18844 1 180.0000771 15.1670000 2
18842 18841 18843 18845 1 180.0000771 15.1670000 2
18839 18843 18841 18842 4 180.0000771 4.6024000 2
18836 18843 18845 18846 4 180.0000771 4.6024000 2
18841 18843 18845 18846 1 180.0000771 15.1670000 2
18844 18843 18845 18846 1 180.0000771 15.1670000 2
18836 18845 18843 18841 1 180.0000771 15.1670000 2
18836 18845 18843 18844 1 180.0000771 15.1670000 2
18841 18845 18843 18844 4 180.0000771 4.6024000 2
18847 18848 18849 18850 1 180.0000771 15.1670000 2
18847 18848 18849 18851 1 180.0000771 15.1670000 2
18850 18848 18849 18851 4 180.0000771 4.6024000 2
18847 18848 18857 18849 4 180.0000771 4.6024000 2
18847 18848 18857 18855 1 180.0000771 15.1670000 2
18847 18848 18857 18858 1 180.0000771 15.1670000 2
18849 18848 18857 18855 1 180.0000771 15.1670000 2
18849 18848 18857 18858 1 180.0000771 15.1670000 2
18850 18849 18848 18857 1 180.0000771 15.1670000 2
18851 18849 18848 18857 1 180.0000771 15.1670000 2
18848 18849 18851 18852 1 180.0000771 15.1670000 2
18848 18849 18851 18853 1 180.0000771 15.1670000 2
18850 18849 18851 18852 1 180.0000771 15.1670000 2
18850 18849 18851 18853 1 180.0000771 15.1670000 2
18849 18851 18853 18854 1 180.0000771 15.1670000 2
18849 18851 18853 18855 1 180.0000771 15.1670000 2
18852 18851 18853 18854 1 180.0000771 15.1670000 2
18852 18851 18853 18855 1 180.0000771 15.1670000 2
18849 18853 18851 18852 4 180.0000771 4.6024000 2
18851 18853 18855 18856 1 180.0000771 15.1670000 2
18851 18853 18855 18857 1 180.0000771 15.1670000 2
18854 18853 18855 18856 1 180.0000771 15.1670000 2
18854 18853 18855 18857 1 180.0000771 15.1670000 2
18851 18855 18853 18854 4 180.0000771 4.6024000 2
18848 18855 18857 18858 4 180.0000771 4.6024000 2
18853 18855 18857 18858 1 180.0000771 15.1670000 2
18856 18855 18857 18858 1 180.0000771 15.1670000 2
18848 18857 18855 18853 1 180.0000771 15.1670000 2
18848 18857 18855 18856 1 180.0000771 15.1670000 2
18853 18857 18855 18856 4 180.0000771 4.6024000 2
18859 18860 18861 18862 1 180.0000771 15.1670000 2
18859 18860 18861 18863 1 180.0000771 15.1670000 2
18862 18860 18861 18863 4 180.0000771 4.6024000 2
18859 18860 18869 18861 4 180.0000771 4.6024000 2
18859 18860 18869 18867 1 180.0000771 15.1670000 2
18859 18860 18869 18870 1 180.0000771 15.1670000 2
18861 18860 18869 18867 1 180.0000771 15.1670000 2
18861 18860 18869 18870 1 180.0000771 15.1670000 2
18862 18861 18860 18869 1 180.0000771 15.1670000 2
18863 18861 18860 18869 1 180.0000771 15.1670000 2
18860 18861 18863 18864 1 180.0000771 15.1670000 2
18860 18861 18863 18865 1 180.0000771 15.1670000 2
18862 18861 18863 18864 1 180.0000771 15.1670000 2
18862 18861 18863 18865 1 180.0000771 15.1670000 2
18861 18863 18865 18866 1 180.0000771 15.1670000 2
18861 18863 18865 18867 1 180.0000771 15.1670000 2
18864 18863 18865 18866 1 180.0000771 15.1670000 2
18864 18863 18865 18867 1 180.0000771 15.1670000 2
18861 18865 18863 18864 4 180.0000771 4.6024000 2
18863 18865 18867 18868 1 180.0000771 15.1670000 2
18863 18865 18867 18869 1 180.0000771 15.1670000 2
18866 18865 18867 18868 1 180.0000771 15.1670000 2
18866 18865 18867 18869 1 180.0000771 15.1670000 2
18863 18867 18865 18866 4 180.0000771 4.6024000 2
18860 18867 18869 18870 4 180.0000771 4.6024000 2
18865 18867 18869 18870 1 180.0000771 15.1670000 2
18868 18867 18869 18870 1 180.0000771 15.1670000 2
18860 18869 18867 18865 1 180.0000771 15.1670000 2
18860 18869 18867 18868 1 180.0000771 15.1670000 2
18865 18869 18867 18868 4 180.0000771 4.6024000 2
18871 18872 18873 18874 1 180.0000771 15.1670000 2
18871 18872 18873 18875 1 180.0000771 15.1670000 2
18874 18872 18873 18875 4 180.0000771 4.6024000 2
18871 18872 18881 18873 4 180.0000771 4.6024000 2
18871 18872 18881 18879 1 180.0000771 15.1670000 2
18871 18872 18881 18882 1 180.0000771 15.1670000 2
18873 18872 18881 18879 1 180.0000771 15.1670000 2
18873 18872 18881 18882 1 180.0000771 15.1670000 2
18874 18873 18872 18881 1 180.0000771 15.1670000 2
18875 18873 18872 18881 1 180.0000771 15.1670000 2
18872 18873 18875 18876 1 180.0000771 15.1670000 2
18872 18873 18875 18877 1 180.0000771 15.1670000 2
18874 18873 18875 18876 1 180.0000771 15.1670000 2
18874 18873 18875 18877 1 180.0000771 15.1670000 2
18873 18875 18877 18878 1 180.0000771 15.1670000 2
18873 18875 18877 18879 1 180.0000771 15.1670000 2
18876 18875 18877 18878 1 180.0000771 15.1670000 2
18876 18875 18877 18879 1 180.0000771 15.1670000 2
18873 18877 18875 18876 4 180.0000771 4.6024000 2
18875 18877 18879 18880 1 180.0000771 15.1670000 2
18875 18877 18879 18881 1 180.0000771 15.1670000 2
18878 18877 18879 18880 1 180.0000771 15.1670000 2
18878 18877 18879 18881 1 180.0000771 15.1670000 2
18875 18879 18877 18878 4 180.0000771 4.6024000 2
18872 18879 18881 18882 4 180.0000771 4.6024000 2
18877 18879 18881 18882 1 180.0000771 15.1670000 2
18880 18879 18881 18882 1 180.0000771 15.1670000 2
18872 18881 18879 18877 1 180.0000771 15.1670000 2
18872 18881 18879 18880 1 180.0000771 15.1670000 2
18877 18881 18879 18880 4 180.0000771 4.6024000 2
18883 18884 18885 18886 1 180.0000771 15.1670000 2
18883 18884 18885 18887 1 180.0000771 15.1670000 2
18886 18884 18885 18887 4 180.0000771 4.6024000 2
18883 18884 18893 18885 4 180.0000771 4.6024000 2
18883 18884 18893 18891 1 180.0000771 15.1670000 2
18883 18884 18893 18894 1 180.0000771 15.1670000 2
18885 18884 18893 18891 1 180.0000771 15.1670000 2
18885 18884 18893 18894 1 180.0000771 15.1670000 2
18886 18885 18884 18893 1 180.0000771 15.1670000 2
18887 18885 18884 18893 1 180.0000771 15.1670000 2
18884 18885 18887 18888 1 180.0000771 15.1670000 2
18884 18885 18887 18889 1 180.0000771 15.1670000 2
18886 18885 18887 18888 1 180.0000771 15.1670000 2
18886 18885 18887 18889 1 180.0000771 15.1670000 2
18885 18887 18889 18890 1 180.0000771 15.1670000 2
18885 18887 18889 18891 1 180.0000771 15.1670000 2
18888 18887 18889 18890 1 180.0000771 15.1670000 2
18888 18887 18889 18891 1 180.0000771 15.1670000 2
18885 18889 18887 18888 4 180.0000771 4.6024000 2
18887 18889 18891 18892 1 180.0000771 15.1670000 2
18887 18889 18891 18893 1 180.0000771 15.1670000 2
18890 18889 18891 18892 1 180.0000771 15.1670000 2
18890 18889 18891 18893 1 180.0000771 15.1670000 2
18887 18891 18889 18890 4 180.0000771 4.6024000 2
18884 18891 18893 18894 4 180.0000771 4.6024000 2
18889 18891 18893 18894 1 180.0000771 15.1670000 2
18892 18891 18893 18894 1 180.0000771 15.1670000 2
18884 18893 18891 18889 1 180.0000771 15.1670000 2
18884 18893 18891 18892 1 180.0000771 15.1670000 2
18889 18893 18891 18892 4 180.0000771 4.6024000 2
18895 18896 18897 18898 1 180.0000771 15.1670000 2
18895 18896 18897 18899 1 180.0000771 15.1670000 2
18898 18896 18897 18899 4 180.0000771 4.6024000 2
18895 18896 18905 18897 4 180.0000771 4.6024000 2
18895 18896 18905 18903 1 180.0000771 15.1670000 2
18895 18896 18905 18906 1 180.0000771 15.1670000 2
18897 18896 18905 18903 1 180.0000771 15.1670000 2
18897 18896 18905 18906 1 180.0000771 15.1670000 2
18898 18897 18896 18905 1 180.0000771 15.1670000 2
18899 18897 18896 18905 1 180.0000771 15.1670000 2
18896 18897 18899 18900 1 180.0000771 15.1670000 2
18896 18897 18899 18901 1 180.0000771 15.1670000 2
18898 18897 18899 18900 1 180.0000771 15.1670000 2
18898 18897 18899 18901 1 180.0000771 15.1670000 2
18897 18899 18901 18902 1 180.0000771 15.1670000 2
18897 18899 18901 18903 1 180.0000771 15.1670000 2
18900 18899 18901 18902 1 180.0000771 15.1670000 2
18900 18899 18901 18903 1 180.0000771 15.1670000 2
18897 18901 18899 18900 4 180.0000771 4.6024000 2
18899 18901 18903 18904 1 180.0000771 15.1670000 2
18899 18901 18903 18905 1 180.0000771 15.1670000 2
18902 18901 18903 18904 1 180.0000771 15.1670000 2
18902 18901 18903 18905 1 180.0000771 15.1670000 2
18899 18903 18901 18902 4 180.0000771 4.6024000 2
18896 18903 18905 18906 4 180.0000771 4.6024000 2
18901 18903 18905 18906 1 180.0000771 15.1670000 2
18904 18903 18905 18906 1 180.0000771 15.1670000 2
18896 18905 18903 18901 1 180.0000771 15.1670000 2
18896 18905 18903 18904 1 180.0000771 15.1670000 2
18901 18905 18903 18904 4 180.0000771 4.6024000 2
18907 18908 18909 18910 1 180.0000771 15.1670000 2
18907 18908 18909 18911 1 180.0000771 15.1670000 2
18910 18908 18909 18911 4 180.0000771 4.6024000 2
18907 18908 18917 18909 4 180.0000771 4.6024000 2
18907 18908 18917 18915 1 180.0000771 15.1670000 2
18907 18908 18917 18918 1 180.0000771 15.1670000 2
18909 18908 18917 18915 1 180.0000771 15.1670000 2
18909 18908 18917 18918 1 180.0000771 15.1670000 2
18910 18909 18908 18917 1 180.0000771 15.1670000 2
18911 18909 18908 18917 1 180.0000771 15.1670000 2
18908 18909 18911 18912 1 180.0000771 15.1670000 2
18908 18909 18911 18913 1 180.0000771 15.1670000 2
18910 18909 18911 18912 1 180.0000771 15.1670000 2
18910 18909 18911 18913 1 180.0000771 15.1670000 2
18909 18911 18913 18914 1 180.0000771 15.1670000 2
18909 18911 18913 18915 1 180.0000771 15.1670000 2
18912 18911 18913 18914 1 180.0000771 15.1670000 2
18912 18911 18913 18915 1 180.0000771 15.1670000 2
18909 18913 18911 18912 4 180.0000771 4.6024000 2
18911 18913 18915 18916 1 180.0000771 15.1670000 2
18911 18913 18915 18917 1 180.0000771 15.1670000 2
18914 18913 18915 18916 1 180.0000771 15.1670000 2
18914 18913 18915 18917 1 180.0000771 15.1670000 2
18911 18915 18913 18914 4 180.0000771 4.6024000 2
18908 18915 18917 18918 4 180.0000771 4.6024000 2
18913 18915 18917 18918 1 180.0000771 15.1670000 2
18916 18915 18917 18918 1 180.0000771 15.1670000 2
18908 18917 18915 18913 1 180.0000771 15.1670000 2
18908 18917 18915 18916 1 180.0000771 15.1670000 2
18913 18917 18915 18916 4 180.0000771 4.6024000 2
18919 18920 18921 18922 1 180.0000771 15.1670000 2
18919 18920 18921 18923 1 180.0000771 15.1670000 2
18922 18920 18921 18923 4 180.0000771 4.6024000 2
18919 18920 18929 18921 4 180.0000771 4.6024000 2
18919 18920 18929 18927 1 180.0000771 15.1670000 2
18919 18920 18929 18930 1 180.0000771 15.1670000 2
18921 18920 18929 18927 1 180.0000771 15.1670000 2
18921 18920 18929 18930 1 180.0000771 15.1670000 2
18922 18921 18920 18929 1 180.0000771 15.1670000 2
18923 18921 18920 18929 1 180.0000771 15.1670000 2
18920 18921 18923 18924 1 180.0000771 15.1670000 2
18920 18921 18923 18925 1 180.0000771 15.1670000 2
18922 18921 18923 18924 1 180.0000771 15.1670000 2
18922 18921 18923 18925 1 180.0000771 15.1670000 2
18921 18923 18925 18926 1 180.0000771 15.1670000 2
18921 18923 18925 18927 1 180.0000771 15.1670000 2
18924 18923 18925 18926 1 180.0000771 15.1670000 2
18924 18923 18925 18927 1 180.0000771 15.1670000 2
18921 18925 18923 18924 4 180.0000771 4.6024000 2
18923 18925 18927 18928 1 180.0000771 15.1670000 2
18923 18925 18927 18929 1 180.0000771 15.1670000 2
18926 18925 18927 18928 1 180.0000771 15.1670000 2
18926 18925 18927 18929 1 180.0000771 15.1670000 2
18923 18927 18925 18926 4 180.0000771 4.6024000 2
18920 18927 18929 18930 4 180.0000771 4.6024000 2
18925 18927 18929 18930 1 180.0000771 15.1670000 2
18928 18927 18929 18930 1 180.0000771 15.1670000 2
18920 18929 18927 18925 1 180.0000771 15.1670000 2
18920 18929 18927 18928 1 180.0000771 15.1670000 2
18925 18929 18927 18928 4 180.0000771 4.6024000 2
18931 18932 18933 18934 1 180.0000771 15.1670000 2
18931 18932 18933 18935 1 180.0000771 15.1670000 2
18934 18932 18933 18935 4 180.0000771 4.6024000 2
18931 18932 18941 18933 4 180.0000771 4.6024000 2
18931 18932 18941 18939 1 180.0000771 15.1670000 2
18931 18932 18941 18942 1 180.0000771 15.1670000 2
18933 18932 18941 18939 1 180.0000771 15.1670000 2
18933 18932 18941 18942 1 180.0000771 15.1670000 2
18934 18933 18932 18941 1 180.0000771 15.1670000 2
18935 18933 18932 18941 1 180.0000771 15.1670000 2
18932 18933 18935 18936 1 180.0000771 15.1670000 2
18932 18933 18935 18937 1 180.0000771 15.1670000 2
18934 18933 18935 18936 1 180.0000771 15.1670000 2
18934 18933 18935 18937 1 180.0000771 15.1670000 2
18933 18935 18937 18938 1 180.0000771 15.1670000 2
18933 18935 18937 18939 1 180.0000771 15.1670000 2
18936 18935 18937 18938 1 180.0000771 15.1670000 2
18936 18935 18937 18939 1 180.0000771 15.1670000 2
18933 18937 18935 18936 4 180.0000771 4.6024000 2
18935 18937 18939 18940 1 180.0000771 15.1670000 2
18935 18937 18939 18941 1 180.0000771 15.1670000 2
18938 18937 18939 18940 1 180.0000771 15.1670000 2
18938 18937 18939 18941 1 180.0000771 15.1670000 2
18935 18939 18937 18938 4 180.0000771 4.6024000 2
18932 18939 18941 18942 4 180.0000771 4.6024000 2
18937 18939 18941 18942 1 180.0000771 15.1670000 2
18940 18939 18941 18942 1 180.0000771 15.1670000 2
18932 18941 18939 18937 1 180.0000771 15.1670000 2
18932 18941 18939 18940 1 180.0000771 15.1670000 2
18937 18941 18939 18940 4 180.0000771 4.6024000 2
18943 18944 18945 18946 1 180.0000771 15.1670000 2
18943 18944 18945 18947 1 180.0000771 15.1670000 2
18946 18944 18945 18947 4 180.0000771 4.6024000 2
18943 18944 18953 18945 4 180.0000771 4.6024000 2
18943 18944 18953 18951 1 180.0000771 15.1670000 2
18943 18944 18953 18954 1 180.0000771 15.1670000 2
18945 18944 18953 18951 1 180.0000771 15.1670000 2
18945 18944 18953 18954 1 180.0000771 15.1670000 2
18946 18945 18944 18953 1 180.0000771 15.1670000 2
18947 18945 18944 18953 1 180.0000771 15.1670000 2
18944 18945 18947 18948 1 180.0000771 15.1670000 2
18944 18945 18947 18949 1 180.0000771 15.1670000 2
18946 18945 18947 18948 1 180.0000771 15.1670000 2
18946 18945 18947 18949 1 180.0000771 15.1670000 2
18945 18947 18949 18950 1 180.0000771 15.1670000 2
18945 18947 18949 18951 1 180.0000771 15.1670000 2
18948 18947 18949 18950 1 180.0000771 15.1670000 2
18948 18947 18949 18951 1 180.0000771 15.1670000 2
18945 18949 18947 18948 4 180.0000771 4.6024000 2
18947 18949 18951 18952 1 180.0000771 15.1670000 2
18947 18949 18951 18953 1 180.0000771 15.1670000 2
18950 18949 18951 18952 1 180.0000771 15.1670000 2
18950 18949 18951 18953 1 180.0000771 15.1670000 2
18947 18951 18949 18950 4 180.0000771 4.6024000 2
18944 18951 18953 18954 4 180.0000771 4.6024000 2
18949 18951 18953 18954 1 180.0000771 15.1670000 2
18952 18951 18953 18954 1 180.0000771 15.1670000 2
18944 18953 18951 18949 1 180.0000771 15.1670000 2
18944 18953 18951 18952 1 180.0000771 15.1670000 2
18949 18953 18951 18952 4 180.0000771 4.6024000 2
18955 18956 18957 18958 1 180.0000771 15.1670000 2
18955 18956 18957 18959 1 180.0000771 15.1670000 2
18958 18956 18957 18959 4 180.0000771 4.6024000 2
18955 18956 18965 18957 4 180.0000771 4.6024000 2
18955 18956 18965 18963 1 180.0000771 15.1670000 2
18955 18956 18965 18966 1 180.0000771 15.1670000 2
18957 18956 18965 18963 1 180.0000771 15.1670000 2
18957 18956 18965 18966 1 180.0000771 15.1670000 2
18958 18957 18956 18965 1 180.0000771 15.1670000 2
18959 18957 18956 18965 1 180.0000771 15.1670000 2
18956 18957 18959 18960 1 180.0000771 15.1670000 2
18956 18957 18959 18961 1 180.0000771 15.1670000 2
18958 18957 18959 18960 1 180.0000771 15.1670000 2
18958 18957 18959 18961 1 180.0000771 15.1670000 2
18957 18959 18961 18962 1 180.0000771 15.1670000 2
18957 18959 18961 18963 1 180.0000771 15.1670000 2
18960 18959 18961 18962 1 180.0000771 15.1670000 2
18960 18959 18961 18963 1 180.0000771 15.1670000 2
18957 18961 18959 18960 4 180.0000771 4.6024000 2
18959 18961 18963 18964 1 180.0000771 15.1670000 2
18959 18961 18963 18965 1 180.0000771 15.1670000 2
18962 18961 18963 18964 1 180.0000771 15.1670000 2
18962 18961 18963 18965 1 180.0000771 15.1670000 2
18959 18963 18961 18962 4 180.0000771 4.6024000 2
18956 18963 18965 18966 4 180.0000771 4.6024000 2
18961 18963 18965 18966 1 180.0000771 15.1670000 2
18964 18963 18965 18966 1 180.0000771 15.1670000 2
18956 18965 18963 18961 1 180.0000771 15.1670000 2
18956 18965 18963 18964 1 180.0000771 15.1670000 2
18961 18965 18963 18964 4 180.0000771 4.6024000 2
18967 18968 18969 18970 1 180.0000771 15.1670000 2
18967 18968 18969 18971 1 180.0000771 15.1670000 2
18970 18968 18969 18971 4 180.0000771 4.6024000 2
18967 18968 18977 18969 4 180.0000771 4.6024000 2
18967 18968 18977 18975 1 180.0000771 15.1670000 2
18967 18968 18977 18978 1 180.0000771 15.1670000 2
18969 18968 18977 18975 1 180.0000771 15.1670000 2
18969 18968 18977 18978 1 180.0000771 15.1670000 2
18970 18969 18968 18977 1 180.0000771 15.1670000 2
18971 18969 18968 18977 1 180.0000771 15.1670000 2
18968 18969 18971 18972 1 180.0000771 15.1670000 2
18968 18969 18971 18973 1 180.0000771 15.1670000 2
18970 18969 18971 18972 1 180.0000771 15.1670000 2
18970 18969 18971 18973 1 180.0000771 15.1670000 2
18969 18971 18973 18974 1 180.0000771 15.1670000 2
18969 18971 18973 18975 1 180.0000771 15.1670000 2
18972 18971 18973 18974 1 180.0000771 15.1670000 2
18972 18971 18973 18975 1 180.0000771 15.1670000 2
18969 18973 18971 18972 4 180.0000771 4.6024000 2
18971 18973 18975 18976 1 180.0000771 15.1670000 2
18971 18973 18975 18977 1 180.0000771 15.1670000 2
18974 18973 18975 18976 1 180.0000771 15.1670000 2
18974 18973 18975 18977 1 180.0000771 15.1670000 2
18971 18975 18973 18974 4 180.0000771 4.6024000 2
18968 18975 18977 18978 4 180.0000771 4.6024000 2
18973 18975 18977 18978 1 180.0000771 15.1670000 2
18976 18975 18977 18978 1 180.0000771 15.1670000 2
18968 18977 18975 18973 1 180.0000771 15.1670000 2
18968 18977 18975 18976 1 180.0000771 15.1670000 2
18973 18977 18975 18976 4 180.0000771 4.6024000 2
18979 18980 18981 18982 1 180.0000771 15.1670000 2
18979 18980 18981 18983 1 180.0000771 15.1670000 2
18982 18980 18981 18983 4 180.0000771 4.6024000 2
18979 18980 18989 18981 4 180.0000771 4.6024000 2
18979 18980 18989 18987 1 180.0000771 15.1670000 2
18979 18980 18989 18990 1 180.0000771 15.1670000 2
18981 18980 18989 18987 1 180.0000771 15.1670000 2
18981 18980 18989 18990 1 180.0000771 15.1670000 2
18982 18981 18980 18989 1 180.0000771 15.1670000 2
18983 18981 18980 18989 1 180.0000771 15.1670000 2
18980 18981 18983 18984 1 180.0000771 15.1670000 2
18980 18981 18983 18985 1 180.0000771 15.1670000 2
18982 18981 18983 18984 1 180.0000771 15.1670000 2
18982 18981 18983 18985 1 180.0000771 15.1670000 2
18981 18983 18985 18986 1 180.0000771 15.1670000 2
18981 18983 18985 18987 1 180.0000771 15.1670000 2
18984 18983 18985 18986 1 180.0000771 15.1670000 2
18984 18983 18985 18987 1 180.0000771 15.1670000 2
18981 18985 18983 18984 4 180.0000771 4.6024000 2
18983 18985 18987 18988 1 180.0000771 15.1670000 2
18983 18985 18987 18989 1 180.0000771 15.1670000 2
18986 18985 18987 18988 1 180.0000771 15.1670000 2
18986 18985 18987 18989 1 180.0000771 15.1670000 2
18983 18987 18985 18986 4 180.0000771 4.6024000 2
18980 18987 18989 18990 4 180.0000771 4.6024000 2
18985 18987 18989 18990 1 180.0000771 15.1670000 2
18988 18987 18989 18990 1 180.0000771 15.1670000 2
18980 18989 18987 18985 1 180.0000771 15.1670000 2
18980 18989 18987 18988 1 180.0000771 15.1670000 2
18985 18989 18987 18988 4 180.0000771 4.6024000 2
18991 18992 18993 18994 1 180.0000771 15.1670000 2
18991 18992 18993 18995 1 180.0000771 15.1670000 2
18994 18992 18993 18995 4 180.0000771 4.6024000 2
18991 18992 19001 18993 4 180.0000771 4.6024000 2
18991 18992 19001 18999 1 180.0000771 15.1670000 2
18991 18992 19001 19002 1 180.0000771 15.1670000 2
18993 18992 19001 18999 1 180.0000771 15.1670000 2
18993 18992 19001 19002 1 180.0000771 15.1670000 2
18994 18993 18992 19001 1 180.0000771 15.1670000 2
18995 18993 18992 19001 1 180.0000771 15.1670000 2
18992 18993 18995 18996 1 180.0000771 15.1670000 2
18992 18993 18995 18997 1 180.0000771 15.1670000 2
18994 18993 18995 18996 1 180.0000771 15.1670000 2
18994 18993 18995 18997 1 180.0000771 15.1670000 2
18993 18995 18997 18998 1 180.0000771 15.1670000 2
18993 18995 18997 18999 1 180.0000771 15.1670000 2
18996 18995 18997 18998 1 180.0000771 15.1670000 2
18996 18995 18997 18999 1 180.0000771 15.1670000 2
18993 18997 18995 18996 4 180.0000771 4.6024000 2
18995 18997 18999 19000 1 180.0000771 15.1670000 2
18995 18997 18999 19001 1 180.0000771 15.1670000 2
18998 18997 18999 19000 1 180.0000771 15.1670000 2
18998 18997 18999 19001 1 180.0000771 15.1670000 2
18995 18999 18997 18998 4 180.0000771 4.6024000 2
18992 18999 19001 19002 4 180.0000771 4.6024000 2
18997 18999 19001 19002 1 180.0000771 15.1670000 2
19000 18999 19001 19002 1 180.0000771 15.1670000 2
18992 19001 18999 18997 1 180.0000771 15.1670000 2
18992 19001 18999 19000 1 180.0000771 15.1670000 2
18997 19001 18999 19000 4 180.0000771 4.6024000 2
19003 19004 19005 19006 1 180.0000771 15.1670000 2
19003 19004 19005 19007 1 180.0000771 15.1670000 2
19006 19004 19005 19007 4 180.0000771 4.6024000 2
19003 19004 19013 19005 4 180.0000771 4.6024000 2
19003 19004 19013 19011 1 180.0000771 15.1670000 2
19003 19004 19013 19014 1 180.0000771 15.1670000 2
19005 19004 19013 19011 1 180.0000771 15.1670000 2
19005 19004 19013 19014 1 180.0000771 15.1670000 2
19006 19005 19004 19013 1 180.0000771 15.1670000 2
19007 19005 19004 19013 1 180.0000771 15.1670000 2
19004 19005 19007 19008 1 180.0000771 15.1670000 2
19004 19005 19007 19009 1 180.0000771 15.1670000 2
19006 19005 19007 19008 1 180.0000771 15.1670000 2
19006 19005 19007 19009 1 180.0000771 15.1670000 2
19005 19007 19009 19010 1 180.0000771 15.1670000 2
19005 19007 19009 19011 1 180.0000771 15.1670000 2
19008 19007 19009 19010 1 180.0000771 15.1670000 2
19008 19007 19009 19011 1 180.0000771 15.1670000 2
19005 19009 19007 19008 4 180.0000771 4.6024000 2
19007 19009 19011 19012 1 180.0000771 15.1670000 2
19007 19009 19011 19013 1 180.0000771 15.1670000 2
19010 19009 19011 19012 1 180.0000771 15.1670000 2
19010 19009 19011 19013 1 180.0000771 15.1670000 2
19007 19011 19009 19010 4 180.0000771 4.6024000 2
19004 19011 19013 19014 4 180.0000771 4.6024000 2
19009 19011 19013 19014 1 180.0000771 15.1670000 2
19012 19011 19013 19014 1 180.0000771 15.1670000 2
19004 19013 19011 19009 1 180.0000771 15.1670000 2
19004 19013 19011 19012 1 180.0000771 15.1670000 2
19009 19013 19011 19012 4 180.0000771 4.6024000 2
19015 19016 19017 19018 1 180.0000771 15.1670000 2
19015 19016 19017 19019 1 180.0000771 15.1670000 2
19018 19016 19017 19019 4 180.0000771 4.6024000 2
19015 19016 19025 19017 4 180.0000771 4.6024000 2
19015 19016 19025 19023 1 180.0000771 15.1670000 2
19015 19016 19025 19026 1 180.0000771 15.1670000 2
19017 19016 19025 19023 1 180.0000771 15.1670000 2
19017 19016 19025 19026 1 180.0000771 15.1670000 2
19018 19017 19016 19025 1 180.0000771 15.1670000 2
19019 19017 19016 19025 1 180.0000771 15.1670000 2
19016 19017 19019 19020 1 180.0000771 15.1670000 2
19016 19017 19019 19021 1 180.0000771 15.1670000 2
19018 19017 19019 19020 1 180.0000771 15.1670000 2
19018 19017 19019 19021 1 180.0000771 15.1670000 2
19017 19019 19021 19022 1 180.0000771 15.1670000 2
19017 19019 19021 19023 1 180.0000771 15.1670000 2
19020 19019 19021 19022 1 180.0000771 15.1670000 2
19020 19019 19021 19023 1 180.0000771 15.1670000 2
19017 19021 19019 19020 4 180.0000771 4.6024000 2
19019 19021 19023 19024 1 180.0000771 15.1670000 2
19019 19021 19023 19025 1 180.0000771 15.1670000 2
19022 19021 19023 19024 1 180.0000771 15.1670000 2
19022 19021 19023 19025 1 180.0000771 15.1670000 2
19019 19023 19021 19022 4 180.0000771 4.6024000 2
19016 19023 19025 19026 4 180.0000771 4.6024000 2
19021 19023 19025 19026 1 180.0000771 15.1670000 2
19024 19023 19025 19026 1 180.0000771 15.1670000 2
19016 19025 19023 19021 1 180.0000771 15.1670000 2
19016 19025 19023 19024 1 180.0000771 15.1670000 2
19021 19025 19023 19024 4 180.0000771 4.6024000 2
19027 19028 19029 19030 1 180.0000771 15.1670000 2
19027 19028 19029 19031 1 180.0000771 15.1670000 2
19030 19028 19029 19031 4 180.0000771 4.6024000 2
19027 19028 19037 19029 4 180.0000771 4.6024000 2
19027 19028 19037 19035 1 180.0000771 15.1670000 2
19027 19028 19037 19038 1 180.0000771 15.1670000 2
19029 19028 19037 19035 1 180.0000771 15.1670000 2
19029 19028 19037 19038 1 180.0000771 15.1670000 2
19030 19029 19028 19037 1 180.0000771 15.1670000 2
19031 19029 19028 19037 1 180.0000771 15.1670000 2
19028 19029 19031 19032 1 180.0000771 15.1670000 2
19028 19029 19031 19033 1 180.0000771 15.1670000 2
19030 19029 19031 19032 1 180.0000771 15.1670000 2
19030 19029 19031 19033 1 180.0000771 15.1670000 2
19029 19031 19033 19034 1 180.0000771 15.1670000 2
19029 19031 19033 19035 1 180.0000771 15.1670000 2
19032 19031 19033 19034 1 180.0000771 15.1670000 2
19032 19031 19033 19035 1 180.0000771 15.1670000 2
19029 19033 19031 19032 4 180.0000771 4.6024000 2
19031 19033 19035 19036 1 180.0000771 15.1670000 2
19031 19033 19035 19037 1 180.0000771 15.1670000 2
19034 19033 19035 19036 1 180.0000771 15.1670000 2
19034 19033 19035 19037 1 180.0000771 15.1670000 2
19031 19035 19033 19034 4 180.0000771 4.6024000 2
19028 19035 19037 19038 4 180.0000771 4.6024000 2
19033 19035 19037 19038 1 180.0000771 15.1670000 2
19036 19035 19037 19038 1 180.0000771 15.1670000 2
19028 19037 19035 19033 1 180.0000771 15.1670000 2
19028 19037 19035 19036 1 180.0000771 15.1670000 2
19033 19037 19035 19036 4 180.0000771 4.6024000 2
19039 19040 19041 19042 1 180.0000771 15.1670000 2
19039 19040 19041 19043 1 180.0000771 15.1670000 2
19042 19040 19041 19043 4 180.0000771 4.6024000 2
19039 19040 19049 19041 4 180.0000771 4.6024000 2
19039 19040 19049 19047 1 180.0000771 15.1670000 2
19039 19040 19049 19050 1 180.0000771 15.1670000 2
19041 19040 19049 19047 1 180.0000771 15.1670000 2
19041 19040 19049 19050 1 180.0000771 15.1670000 2
19042 19041 19040 19049 1 180.0000771 15.1670000 2
19043 19041 19040 19049 1 180.0000771 15.1670000 2
19040 19041 19043 19044 1 180.0000771 15.1670000 2
19040 19041 19043 19045 1 180.0000771 15.1670000 2
19042 19041 19043 19044 1 180.0000771 15.1670000 2
19042 19041 19043 19045 1 180.0000771 15.1670000 2
19041 19043 19045 19046 1 180.0000771 15.1670000 2
19041 19043 19045 19047 1 180.0000771 15.1670000 2
19044 19043 19045 19046 1 180.0000771 15.1670000 2
19044 19043 19045 19047 1 180.0000771 15.1670000 2
19041 19045 19043 19044 4 180.0000771 4.6024000 2
19043 19045 19047 19048 1 180.0000771 15.1670000 2
19043 19045 19047 19049 1 180.0000771 15.1670000 2
19046 19045 19047 19048 1 180.0000771 15.1670000 2
19046 19045 19047 19049 1 180.0000771 15.1670000 2
19043 19047 19045 19046 4 180.0000771 4.6024000 2
19040 19047 19049 19050 4 180.0000771 4.6024000 2
19045 19047 19049 19050 1 180.0000771 15.1670000 2
19048 19047 19049 19050 1 180.0000771 15.1670000 2
19040 19049 19047 19045 1 180.0000771 15.1670000 2
19040 19049 19047 19048 1 180.0000771 15.1670000 2
19045 19049 19047 19048 4 180.0000771 4.6024000 2
19051 19052 19053 19054 1 180.0000771 15.1670000 2
19051 19052 19053 19055 1 180.0000771 15.1670000 2
19054 19052 19053 19055 4 180.0000771 4.6024000 2
19051 19052 19061 19053 4 180.0000771 4.6024000 2
19051 19052 19061 19059 1 180.0000771 15.1670000 2
19051 19052 19061 19062 1 180.0000771 15.1670000 2
19053 19052 19061 19059 1 180.0000771 15.1670000 2
19053 19052 19061 19062 1 180.0000771 15.1670000 2
19054 19053 19052 19061 1 180.0000771 15.1670000 2
19055 19053 19052 19061 1 180.0000771 15.1670000 2
19052 19053 19055 19056 1 180.0000771 15.1670000 2
19052 19053 19055 19057 1 180.0000771 15.1670000 2
19054 19053 19055 19056 1 180.0000771 15.1670000 2
19054 19053 19055 19057 1 180.0000771 15.1670000 2
19053 19055 19057 19058 1 180.0000771 15.1670000 2
19053 19055 19057 19059 1 180.0000771 15.1670000 2
19056 19055 19057 19058 1 180.0000771 15.1670000 2
19056 19055 19057 19059 1 180.0000771 15.1670000 2
19053 19057 19055 19056 4 180.0000771 4.6024000 2
19055 19057 19059 19060 1 180.0000771 15.1670000 2
19055 19057 19059 19061 1 180.0000771 15.1670000 2
19058 19057 19059 19060 1 180.0000771 15.1670000 2
19058 19057 19059 19061 1 180.0000771 15.1670000 2
19055 19059 19057 19058 4 180.0000771 4.6024000 2
19052 19059 19061 19062 4 180.0000771 4.6024000 2
19057 19059 19061 19062 1 180.0000771 15.1670000 2
19060 19059 19061 19062 1 180.0000771 15.1670000 2
19052 19061 19059 19057 1 180.0000771 15.1670000 2
19052 19061 19059 19060 1 180.0000771 15.1670000 2
19057 19061 19059 19060 4 180.0000771 4.6024000 2
19063 19064 19065 19066 1 180.0000771 15.1670000 2
19063 19064 19065 19067 1 180.0000771 15.1670000 2
19066 19064 19065 19067 4 180.0000771 4.6024000 2
19063 19064 19073 19065 4 180.0000771 4.6024000 2
19063 19064 19073 19071 1 180.0000771 15.1670000 2
19063 19064 19073 19074 1 180.0000771 15.1670000 2
19065 19064 19073 19071 1 180.0000771 15.1670000 2
19065 19064 19073 19074 1 180.0000771 15.1670000 2
19066 19065 19064 19073 1 180.0000771 15.1670000 2
19067 19065 19064 19073 1 180.0000771 15.1670000 2
19064 19065 19067 19068 1 180.0000771 15.1670000 2
19064 19065 19067 19069 1 180.0000771 15.1670000 2
19066 19065 19067 19068 1 180.0000771 15.1670000 2
19066 19065 19067 19069 1 180.0000771 15.1670000 2
19065 19067 19069 19070 1 180.0000771 15.1670000 2
19065 19067 19069 19071 1 180.0000771 15.1670000 2
19068 19067 19069 19070 1 180.0000771 15.1670000 2
19068 19067 19069 19071 1 180.0000771 15.1670000 2
19065 19069 19067 19068 4 180.0000771 4.6024000 2
19067 19069 19071 19072 1 180.0000771 15.1670000 2
19067 19069 19071 19073 1 180.0000771 15.1670000 2
19070 19069 19071 19072 1 180.0000771 15.1670000 2
19070 19069 19071 19073 1 180.0000771 15.1670000 2
19067 19071 19069 19070 4 180.0000771 4.6024000 2
19064 19071 19073 19074 4 180.0000771 4.6024000 2
19069 19071 19073 19074 1 180.0000771 15.1670000 2
19072 19071 19073 19074 1 180.0000771 15.1670000 2
19064 19073 19071 19069 1 180.0000771 15.1670000 2
19064 19073 19071 19072 1 180.0000771 15.1670000 2
19069 19073 19071 19072 4 180.0000771 4.6024000 2
19075 19076 19077 19078 1 180.0000771 15.1670000 2
19075 19076 19077 19079 1 180.0000771 15.1670000 2
19078 19076 19077 19079 4 180.0000771 4.6024000 2
19075 19076 19085 19077 4 180.0000771 4.6024000 2
19075 19076 19085 19083 1 180.0000771 15.1670000 2
19075 19076 19085 19086 1 180.0000771 15.1670000 2
19077 19076 19085 19083 1 180.0000771 15.1670000 2
19077 19076 19085 19086 1 180.0000771 15.1670000 2
19078 19077 19076 19085 1 180.0000771 15.1670000 2
19079 19077 19076 19085 1 180.0000771 15.1670000 2
19076 19077 19079 19080 1 180.0000771 15.1670000 2
19076 19077 19079 19081 1 180.0000771 15.1670000 2
19078 19077 19079 19080 1 180.0000771 15.1670000 2
19078 19077 19079 19081 1 180.0000771 15.1670000 2
19077 19079 19081 19082 1 180.0000771 15.1670000 2
19077 19079 19081 19083 1 180.0000771 15.1670000 2
19080 19079 19081 19082 1 180.0000771 15.1670000 2
19080 19079 19081 19083 1 180.0000771 15.1670000 2
19077 19081 19079 19080 4 180.0000771 4.6024000 2
19079 19081 19083 19084 1 180.0000771 15.1670000 2
19079 19081 19083 19085 1 180.0000771 15.1670000 2
19082 19081 19083 19084 1 180.0000771 15.1670000 2
19082 19081 19083 19085 1 180.0000771 15.1670000 2
19079 19083 19081 19082 4 180.0000771 4.6024000 2
19076 19083 19085 19086 4 180.0000771 4.6024000 2
19081 19083 19085 19086 1 180.0000771 15.1670000 2
19084 19083 19085 19086 1 180.0000771 15.1670000 2
19076 19085 19083 19081 1 180.0000771 15.1670000 2
19076 19085 19083 19084 1 180.0000771 15.1670000 2
19081 19085 19083 19084 4 180.0000771 4.6024000 2
19087 19088 19089 19090 1 180.0000771 15.1670000 2
19087 19088 19089 19091 1 180.0000771 15.1670000 2
19090 19088 19089 19091 4 180.0000771 4.6024000 2
19087 19088 19097 19089 4 180.0000771 4.6024000 2
19087 19088 19097 19095 1 180.0000771 15.1670000 2
19087 19088 19097 19098 1 180.0000771 15.1670000 2
19089 19088 19097 19095 1 180.0000771 15.1670000 2
19089 19088 19097 19098 1 180.0000771 15.1670000 2
19090 19089 19088 19097 1 180.0000771 15.1670000 2
19091 19089 19088 19097 1 180.0000771 15.1670000 2
19088 19089 19091 19092 1 180.0000771 15.1670000 2
19088 19089 19091 19093 1 180.0000771 15.1670000 2
19090 19089 19091 19092 1 180.0000771 15.1670000 2
19090 19089 19091 19093 1 180.0000771 15.1670000 2
19089 19091 19093 19094 1 180.0000771 15.1670000 2
19089 19091 19093 19095 1 180.0000771 15.1670000 2
19092 19091 19093 19094 1 180.0000771 15.1670000 2
19092 19091 19093 19095 1 180.0000771 15.1670000 2
19089 19093 19091 19092 4 180.0000771 4.6024000 2
19091 19093 19095 19096 1 180.0000771 15.1670000 2
19091 19093 19095 19097 1 180.0000771 15.1670000 2
19094 19093 19095 19096 1 180.0000771 15.1670000 2
19094 19093 19095 19097 1 180.0000771 15.1670000 2
19091 19095 19093 19094 4 180.0000771 4.6024000 2
19088 19095 19097 19098 4 180.0000771 4.6024000 2
19093 19095 19097 19098 1 180.0000771 15.1670000 2
19096 19095 19097 19098 1 180.0000771 15.1670000 2
19088 19097 19095 19093 1 180.0000771 15.1670000 2
19088 19097 19095 19096 1 180.0000771 15.1670000 2
19093 19097 19095 19096 4 180.0000771 4.6024000 2
19099 19100 19101 19102 1 180.0000771 15.1670000 2
19099 19100 19101 19103 1 180.0000771 15.1670000 2
19102 19100 19101 19103 4 180.0000771 4.6024000 2
19099 19100 19109 19101 4 180.0000771 4.6024000 2
19099 19100 19109 19107 1 180.0000771 15.1670000 2
19099 19100 19109 19110 1 180.0000771 15.1670000 2
19101 19100 19109 19107 1 180.0000771 15.1670000 2
19101 19100 19109 19110 1 180.0000771 15.1670000 2
19102 19101 19100 19109 1 180.0000771 15.1670000 2
19103 19101 19100 19109 1 180.0000771 15.1670000 2
19100 19101 19103 19104 1 180.0000771 15.1670000 2
19100 19101 19103 19105 1 180.0000771 15.1670000 2
19102 19101 19103 19104 1 180.0000771 15.1670000 2
19102 19101 19103 19105 1 180.0000771 15.1670000 2
19101 19103 19105 19106 1 180.0000771 15.1670000 2
19101 19103 19105 19107 1 180.0000771 15.1670000 2
19104 19103 19105 19106 1 180.0000771 15.1670000 2
19104 19103 19105 19107 1 180.0000771 15.1670000 2
19101 19105 19103 19104 4 180.0000771 4.6024000 2
19103 19105 19107 19108 1 180.0000771 15.1670000 2
19103 19105 19107 19109 1 180.0000771 15.1670000 2
19106 19105 19107 19108 1 180.0000771 15.1670000 2
19106 19105 19107 19109 1 180.0000771 15.1670000 2
19103 19107 19105 19106 4 180.0000771 4.6024000 2
19100 19107 19109 19110 4 180.0000771 4.6024000 2
19105 19107 19109 19110 1 180.0000771 15.1670000 2
19108 19107 19109 19110 1 180.0000771 15.1670000 2
19100 19109 19107 19105 1 180.0000771 15.1670000 2
19100 19109 19107 19108 1 180.0000771 15.1670000 2
19105 19109 19107 19108 4 180.0000771 4.6024000 2
19111 19112 19113 19114 1 180.0000771 15.1670000 2
19111 19112 19113 19115 1 180.0000771 15.1670000 2
19114 19112 19113 19115 4 180.0000771 4.6024000 2
19111 19112 19121 19113 4 180.0000771 4.6024000 2
19111 19112 19121 19119 1 180.0000771 15.1670000 2
19111 19112 19121 19122 1 180.0000771 15.1670000 2
19113 19112 19121 19119 1 180.0000771 15.1670000 2
19113 19112 19121 19122 1 180.0000771 15.1670000 2
19114 19113 19112 19121 1 180.0000771 15.1670000 2
19115 19113 19112 19121 1 180.0000771 15.1670000 2
19112 19113 19115 19116 1 180.0000771 15.1670000 2
19112 19113 19115 19117 1 180.0000771 15.1670000 2
19114 19113 19115 19116 1 180.0000771 15.1670000 2
19114 19113 19115 19117 1 180.0000771 15.1670000 2
19113 19115 19117 19118 1 180.0000771 15.1670000 2
19113 19115 19117 19119 1 180.0000771 15.1670000 2
19116 19115 19117 19118 1 180.0000771 15.1670000 2
19116 19115 19117 19119 1 180.0000771 15.1670000 2
19113 19117 19115 19116 4 180.0000771 4.6024000 2
19115 19117 19119 19120 1 180.0000771 15.1670000 2
19115 19117 19119 19121 1 180.0000771 15.1670000 2
19118 19117 19119 19120 1 180.0000771 15.1670000 2
19118 19117 19119 19121 1 180.0000771 15.1670000 2
19115 19119 19117 19118 4 180.0000771 4.6024000 2
19112 19119 19121 19122 4 180.0000771 4.6024000 2
19117 19119 19121 19122 1 180.0000771 15.1670000 2
19120 19119 19121 19122 1 180.0000771 15.1670000 2
19112 19121 19119 19117 1 180.0000771 15.1670000 2
19112 19121 19119 19120 1 180.0000771 15.1670000 2
19117 19121 19119 19120 4 180.0000771 4.6024000 2
19123 19124 19125 19126 1 180.0000771 15.1670000 2
19123 19124 19125 19127 1 180.0000771 15.1670000 2
19126 19124 19125 19127 4 180.0000771 4.6024000 2
19123 19124 19133 19125 4 180.0000771 4.6024000 2
19123 19124 19133 19131 1 180.0000771 15.1670000 2
19123 19124 19133 19134 1 180.0000771 15.1670000 2
19125 19124 19133 19131 1 180.0000771 15.1670000 2
19125 19124 19133 19134 1 180.0000771 15.1670000 2
19126 19125 19124 19133 1 180.0000771 15.1670000 2
19127 19125 19124 19133 1 180.0000771 15.1670000 2
19124 19125 19127 19128 1 180.0000771 15.1670000 2
19124 19125 19127 19129 1 180.0000771 15.1670000 2
19126 19125 19127 19128 1 180.0000771 15.1670000 2
19126 19125 19127 19129 1 180.0000771 15.1670000 2
19125 19127 19129 19130 1 180.0000771 15.1670000 2
19125 19127 19129 19131 1 180.0000771 15.1670000 2
19128 19127 19129 19130 1 180.0000771 15.1670000 2
19128 19127 19129 19131 1 180.0000771 15.1670000 2
19125 19129 19127 19128 4 180.0000771 4.6024000 2
19127 19129 19131 19132 1 180.0000771 15.1670000 2
19127 19129 19131 19133 1 180.0000771 15.1670000 2
19130 19129 19131 19132 1 180.0000771 15.1670000 2
19130 19129 19131 19133 1 180.0000771 15.1670000 2
19127 19131 19129 19130 4 180.0000771 4.6024000 2
19124 19131 19133 19134 4 180.0000771 4.6024000 2
19129 19131 19133 19134 1 180.0000771 15.1670000 2
19132 19131 19133 19134 1 180.0000771 15.1670000 2
19124 19133 19131 19129 1 180.0000771 15.1670000 2
19124 19133 19131 19132 1 180.0000771 15.1670000 2
19129 19133 19131 19132 4 180.0000771 4.6024000 2
19135 19136 19137 19138 1 180.0000771 15.1670000 2
19135 19136 19137 19139 1 180.0000771 15.1670000 2
19138 19136 19137 19139 4 180.0000771 4.6024000 2
19135 19136 19145 19137 4 180.0000771 4.6024000 2
19135 19136 19145 19143 1 180.0000771 15.1670000 2
19135 19136 19145 19146 1 180.0000771 15.1670000 2
19137 19136 19145 19143 1 180.0000771 15.1670000 2
19137 19136 19145 19146 1 180.0000771 15.1670000 2
19138 19137 19136 19145 1 180.0000771 15.1670000 2
19139 19137 19136 19145 1 180.0000771 15.1670000 2
19136 19137 19139 19140 1 180.0000771 15.1670000 2
19136 19137 19139 19141 1 180.0000771 15.1670000 2
19138 19137 19139 19140 1 180.0000771 15.1670000 2
19138 19137 19139 19141 1 180.0000771 15.1670000 2
19137 19139 19141 19142 1 180.0000771 15.1670000 2
19137 19139 19141 19143 1 180.0000771 15.1670000 2
19140 19139 19141 19142 1 180.0000771 15.1670000 2
19140 19139 19141 19143 1 180.0000771 15.1670000 2
19137 19141 19139 19140 4 180.0000771 4.6024000 2
19139 19141 19143 19144 1 180.0000771 15.1670000 2
19139 19141 19143 19145 1 180.0000771 15.1670000 2
19142 19141 19143 19144 1 180.0000771 15.1670000 2
19142 19141 19143 19145 1 180.0000771 15.1670000 2
19139 19143 19141 19142 4 180.0000771 4.6024000 2
19136 19143 19145 19146 4 180.0000771 4.6024000 2
19141 19143 19145 19146 1 180.0000771 15.1670000 2
19144 19143 19145 19146 1 180.0000771 15.1670000 2
19136 19145 19143 19141 1 180.0000771 15.1670000 2
19136 19145 19143 19144 1 180.0000771 15.1670000 2
19141 19145 19143 19144 4 180.0000771 4.6024000 2
19147 19148 19149 19150 1 180.0000771 15.1670000 2
19147 19148 19149 19151 1 180.0000771 15.1670000 2
19150 19148 19149 19151 4 180.0000771 4.6024000 2
19147 19148 19157 19149 4 180.0000771 4.6024000 2
19147 19148 19157 19155 1 180.0000771 15.1670000 2
19147 19148 19157 19158 1 180.0000771 15.1670000 2
19149 19148 19157 19155 1 180.0000771 15.1670000 2
19149 19148 19157 19158 1 180.0000771 15.1670000 2
19150 19149 19148 19157 1 180.0000771 15.1670000 2
19151 19149 19148 19157 1 180.0000771 15.1670000 2
19148 19149 19151 19152 1 180.0000771 15.1670000 2
19148 19149 19151 19153 1 180.0000771 15.1670000 2
19150 19149 19151 19152 1 180.0000771 15.1670000 2
19150 19149 19151 19153 1 180.0000771 15.1670000 2
19149 19151 19153 19154 1 180.0000771 15.1670000 2
19149 19151 19153 19155 1 180.0000771 15.1670000 2
19152 19151 19153 19154 1 180.0000771 15.1670000 2
19152 19151 19153 19155 1 180.0000771 15.1670000 2
19149 19153 19151 19152 4 180.0000771 4.6024000 2
19151 19153 19155 19156 1 180.0000771 15.1670000 2
19151 19153 19155 19157 1 180.0000771 15.1670000 2
19154 19153 19155 19156 1 180.0000771 15.1670000 2
19154 19153 19155 19157 1 180.0000771 15.1670000 2
19151 19155 19153 19154 4 180.0000771 4.6024000 2
19148 19155 19157 19158 4 180.0000771 4.6024000 2
19153 19155 19157 19158 1 180.0000771 15.1670000 2
19156 19155 19157 19158 1 180.0000771 15.1670000 2
19148 19157 19155 19153 1 180.0000771 15.1670000 2
19148 19157 19155 19156 1 180.0000771 15.1670000 2
19153 19157 19155 19156 4 180.0000771 4.6024000 2
19159 19160 19161 19162 1 180.0000771 15.1670000 2
19159 19160 19161 19163 1 180.0000771 15.1670000 2
19162 19160 19161 19163 4 180.0000771 4.6024000 2
19159 19160 19169 19161 4 180.0000771 4.6024000 2
19159 19160 19169 19167 1 180.0000771 15.1670000 2
19159 19160 19169 19170 1 180.0000771 15.1670000 2
19161 19160 19169 19167 1 180.0000771 15.1670000 2
19161 19160 19169 19170 1 180.0000771 15.1670000 2
19162 19161 19160 19169 1 180.0000771 15.1670000 2
19163 19161 19160 19169 1 180.0000771 15.1670000 2
19160 19161 19163 19164 1 180.0000771 15.1670000 2
19160 19161 19163 19165 1 180.0000771 15.1670000 2
19162 19161 19163 19164 1 180.0000771 15.1670000 2
19162 19161 19163 19165 1 180.0000771 15.1670000 2
19161 19163 19165 19166 1 180.0000771 15.1670000 2
19161 19163 19165 19167 1 180.0000771 15.1670000 2
19164 19163 19165 19166 1 180.0000771 15.1670000 2
19164 19163 19165 19167 1 180.0000771 15.1670000 2
19161 19165 19163 19164 4 180.0000771 4.6024000 2
19163 19165 19167 19168 1 180.0000771 15.1670000 2
19163 19165 19167 19169 1 180.0000771 15.1670000 2
19166 19165 19167 19168 1 180.0000771 15.1670000 2
19166 19165 19167 19169 1 180.0000771 15.1670000 2
19163 19167 19165 19166 4 180.0000771 4.6024000 2
19160 19167 19169 19170 4 180.0000771 4.6024000 2
19165 19167 19169 19170 1 180.0000771 15.1670000 2
19168 19167 19169 19170 1 180.0000771 15.1670000 2
19160 19169 19167 19165 1 180.0000771 15.1670000 2
19160 19169 19167 19168 1 180.0000771 15.1670000 2
19165 19169 19167 19168 4 180.0000771 4.6024000 2
19171 19172 19173 19174 1 180.0000771 15.1670000 2
19171 19172 19173 19175 1 180.0000771 15.1670000 2
19174 19172 19173 19175 4 180.0000771 4.6024000 2
19171 19172 19181 19173 4 180.0000771 4.6024000 2
19171 19172 19181 19179 1 180.0000771 15.1670000 2
19171 19172 19181 19182 1 180.0000771 15.1670000 2
19173 19172 19181 19179 1 180.0000771 15.1670000 2
19173 19172 19181 19182 1 180.0000771 15.1670000 2
19174 19173 19172 19181 1 180.0000771 15.1670000 2
19175 19173 19172 19181 1 180.0000771 15.1670000 2
19172 19173 19175 19176 1 180.0000771 15.1670000 2
19172 19173 19175 19177 1 180.0000771 15.1670000 2
19174 19173 19175 19176 1 180.0000771 15.1670000 2
19174 19173 19175 19177 1 180.0000771 15.1670000 2
19173 19175 19177 19178 1 180.0000771 15.1670000 2
19173 19175 19177 19179 1 180.0000771 15.1670000 2
19176 19175 19177 19178 1 180.0000771 15.1670000 2
19176 19175 19177 19179 1 180.0000771 15.1670000 2
19173 19177 19175 19176 4 180.0000771 4.6024000 2
19175 19177 19179 19180 1 180.0000771 15.1670000 2
19175 19177 19179 19181 1 180.0000771 15.1670000 2
19178 19177 19179 19180 1 180.0000771 15.1670000 2
19178 19177 19179 19181 1 180.0000771 15.1670000 2
19175 19179 19177 19178 4 180.0000771 4.6024000 2
19172 19179 19181 19182 4 180.0000771 4.6024000 2
19177 19179 19181 19182 1 180.0000771 15.1670000 2
19180 19179 19181 19182 1 180.0000771 15.1670000 2
19172 19181 19179 19177 1 180.0000771 15.1670000 2
19172 19181 19179 19180 1 180.0000771 15.1670000 2
19177 19181 19179 19180 4 180.0000771 4.6024000 2
19183 19184 19185 19186 1 180.0000771 15.1670000 2
19183 19184 19185 19187 1 180.0000771 15.1670000 2
19186 19184 19185 19187 4 180.0000771 4.6024000 2
19183 19184 19193 19185 4 180.0000771 4.6024000 2
19183 19184 19193 19191 1 180.0000771 15.1670000 2
19183 19184 19193 19194 1 180.0000771 15.1670000 2
19185 19184 19193 19191 1 180.0000771 15.1670000 2
19185 19184 19193 19194 1 180.0000771 15.1670000 2
19186 19185 19184 19193 1 180.0000771 15.1670000 2
19187 19185 19184 19193 1 180.0000771 15.1670000 2
19184 19185 19187 19188 1 180.0000771 15.1670000 2
19184 19185 19187 19189 1 180.0000771 15.1670000 2
19186 19185 19187 19188 1 180.0000771 15.1670000 2
19186 19185 19187 19189 1 180.0000771 15.1670000 2
19185 19187 19189 19190 1 180.0000771 15.1670000 2
19185 19187 19189 19191 1 180.0000771 15.1670000 2
19188 19187 19189 19190 1 180.0000771 15.1670000 2
19188 19187 19189 19191 1 180.0000771 15.1670000 2
19185 19189 19187 19188 4 180.0000771 4.6024000 2
19187 19189 19191 19192 1 180.0000771 15.1670000 2
19187 19189 19191 19193 1 180.0000771 15.1670000 2
19190 19189 19191 19192 1 180.0000771 15.1670000 2
19190 19189 19191 19193 1 180.0000771 15.1670000 2
19187 19191 19189 19190 4 180.0000771 4.6024000 2
19184 19191 19193 19194 4 180.0000771 4.6024000 2
19189 19191 19193 19194 1 180.0000771 15.1670000 2
19192 19191 19193 19194 1 180.0000771 15.1670000 2
19184 19193 19191 19189 1 180.0000771 15.1670000 2
19184 19193 19191 19192 1 180.0000771 15.1670000 2
19189 19193 19191 19192 4 180.0000771 4.6024000 2
19195 19196 19197 19198 1 180.0000771 15.1670000 2
19195 19196 19197 19199 1 180.0000771 15.1670000 2
19198 19196 19197 19199 4 180.0000771 4.6024000 2
19195 19196 19205 19197 4 180.0000771 4.6024000 2
19195 19196 19205 19203 1 180.0000771 15.1670000 2
19195 19196 19205 19206 1 180.0000771 15.1670000 2
19197 19196 19205 19203 1 180.0000771 15.1670000 2
19197 19196 19205 19206 1 180.0000771 15.1670000 2
19198 19197 19196 19205 1 180.0000771 15.1670000 2
19199 19197 19196 19205 1 180.0000771 15.1670000 2
19196 19197 19199 19200 1 180.0000771 15.1670000 2
19196 19197 19199 19201 1 180.0000771 15.1670000 2
19198 19197 19199 19200 1 180.0000771 15.1670000 2
19198 19197 19199 19201 1 180.0000771 15.1670000 2
19197 19199 19201 19202 1 180.0000771 15.1670000 2
19197 19199 19201 19203 1 180.0000771 15.1670000 2
19200 19199 19201 19202 1 180.0000771 15.1670000 2
19200 19199 19201 19203 1 180.0000771 15.1670000 2
19197 19201 19199 19200 4 180.0000771 4.6024000 2
19199 19201 19203 19204 1 180.0000771 15.1670000 2
19199 19201 19203 19205 1 180.0000771 15.1670000 2
19202 19201 19203 19204 1 180.0000771 15.1670000 2
19202 19201 19203 19205 1 180.0000771 15.1670000 2
19199 19203 19201 19202 4 180.0000771 4.6024000 2
19196 19203 19205 19206 4 180.0000771 4.6024000 2
19201 19203 19205 19206 1 180.0000771 15.1670000 2
19204 19203 19205 19206 1 180.0000771 15.1670000 2
19196 19205 19203 19201 1 180.0000771 15.1670000 2
19196 19205 19203 19204 1 180.0000771 15.1670000 2
19201 19205 19203 19204 4 180.0000771 4.6024000 2
19207 19208 19209 19210 1 180.0000771 15.1670000 2
19207 19208 19209 19211 1 180.0000771 15.1670000 2
19210 19208 19209 19211 4 180.0000771 4.6024000 2
19207 19208 19217 19209 4 180.0000771 4.6024000 2
19207 19208 19217 19215 1 180.0000771 15.1670000 2
19207 19208 19217 19218 1 180.0000771 15.1670000 2
19209 19208 19217 19215 1 180.0000771 15.1670000 2
19209 19208 19217 19218 1 180.0000771 15.1670000 2
19210 19209 19208 19217 1 180.0000771 15.1670000 2
19211 19209 19208 19217 1 180.0000771 15.1670000 2
19208 19209 19211 19212 1 180.0000771 15.1670000 2
19208 19209 19211 19213 1 180.0000771 15.1670000 2
19210 19209 19211 19212 1 180.0000771 15.1670000 2
19210 19209 19211 19213 1 180.0000771 15.1670000 2
19209 19211 19213 19214 1 180.0000771 15.1670000 2
19209 19211 19213 19215 1 180.0000771 15.1670000 2
19212 19211 19213 19214 1 180.0000771 15.1670000 2
19212 19211 19213 19215 1 180.0000771 15.1670000 2
19209 19213 19211 19212 4 180.0000771 4.6024000 2
19211 19213 19215 19216 1 180.0000771 15.1670000 2
19211 19213 19215 19217 1 180.0000771 15.1670000 2
19214 19213 19215 19216 1 180.0000771 15.1670000 2
19214 19213 19215 19217 1 180.0000771 15.1670000 2
19211 19215 19213 19214 4 180.0000771 4.6024000 2
19208 19215 19217 19218 4 180.0000771 4.6024000 2
19213 19215 19217 19218 1 180.0000771 15.1670000 2
19216 19215 19217 19218 1 180.0000771 15.1670000 2
19208 19217 19215 19213 1 180.0000771 15.1670000 2
19208 19217 19215 19216 1 180.0000771 15.1670000 2
19213 19217 19215 19216 4 180.0000771 4.6024000 2
19219 19220 19221 19222 1 180.0000771 15.1670000 2
19219 19220 19221 19223 1 180.0000771 15.1670000 2
19222 19220 19221 19223 4 180.0000771 4.6024000 2
19219 19220 19229 19221 4 180.0000771 4.6024000 2
19219 19220 19229 19227 1 180.0000771 15.1670000 2
19219 19220 19229 19230 1 180.0000771 15.1670000 2
19221 19220 19229 19227 1 180.0000771 15.1670000 2
19221 19220 19229 19230 1 180.0000771 15.1670000 2
19222 19221 19220 19229 1 180.0000771 15.1670000 2
19223 19221 19220 19229 1 180.0000771 15.1670000 2
19220 19221 19223 19224 1 180.0000771 15.1670000 2
19220 19221 19223 19225 1 180.0000771 15.1670000 2
19222 19221 19223 19224 1 180.0000771 15.1670000 2
19222 19221 19223 19225 1 180.0000771 15.1670000 2
19221 19223 19225 19226 1 180.0000771 15.1670000 2
19221 19223 19225 19227 1 180.0000771 15.1670000 2
19224 19223 19225 19226 1 180.0000771 15.1670000 2
19224 19223 19225 19227 1 180.0000771 15.1670000 2
19221 19225 19223 19224 4 180.0000771 4.6024000 2
19223 19225 19227 19228 1 180.0000771 15.1670000 2
19223 19225 19227 19229 1 180.0000771 15.1670000 2
19226 19225 19227 19228 1 180.0000771 15.1670000 2
19226 19225 19227 19229 1 180.0000771 15.1670000 2
19223 19227 19225 19226 4 180.0000771 4.6024000 2
19220 19227 19229 19230 4 180.0000771 4.6024000 2
19225 19227 19229 19230 1 180.0000771 15.1670000 2
19228 19227 19229 19230 1 180.0000771 15.1670000 2
19220 19229 19227 19225 1 180.0000771 15.1670000 2
19220 19229 19227 19228 1 180.0000771 15.1670000 2
19225 19229 19227 19228 4 180.0000771 4.6024000 2
19231 19232 19233 19234 1 180.0000771 15.1670000 2
19231 19232 19233 19235 1 180.0000771 15.1670000 2
19234 19232 19233 19235 4 180.0000771 4.6024000 2
19231 19232 19241 19233 4 180.0000771 4.6024000 2
19231 19232 19241 19239 1 180.0000771 15.1670000 2
19231 19232 19241 19242 1 180.0000771 15.1670000 2
19233 19232 19241 19239 1 180.0000771 15.1670000 2
19233 19232 19241 19242 1 180.0000771 15.1670000 2
19234 19233 19232 19241 1 180.0000771 15.1670000 2
19235 19233 19232 19241 1 180.0000771 15.1670000 2
19232 19233 19235 19236 1 180.0000771 15.1670000 2
19232 19233 19235 19237 1 180.0000771 15.1670000 2
19234 19233 19235 19236 1 180.0000771 15.1670000 2
19234 19233 19235 19237 1 180.0000771 15.1670000 2
19233 19235 19237 19238 1 180.0000771 15.1670000 2
19233 19235 19237 19239 1 180.0000771 15.1670000 2
19236 19235 19237 19238 1 180.0000771 15.1670000 2
19236 19235 19237 19239 1 180.0000771 15.1670000 2
19233 19237 19235 19236 4 180.0000771 4.6024000 2
19235 19237 19239 19240 1 180.0000771 15.1670000 2
19235 19237 19239 19241 1 180.0000771 15.1670000 2
19238 19237 19239 19240 1 180.0000771 15.1670000 2
19238 19237 19239 19241 1 180.0000771 15.1670000 2
19235 19239 19237 19238 4 180.0000771 4.6024000 2
19232 19239 19241 19242 4 180.0000771 4.6024000 2
19237 19239 19241 19242 1 180.0000771 15.1670000 2
19240 19239 19241 19242 1 180.0000771 15.1670000 2
19232 19241 19239 19237 1 180.0000771 15.1670000 2
19232 19241 19239 19240 1 180.0000771 15.1670000 2
19237 19241 19239 19240 4 180.0000771 4.6024000 2
19243 19244 19245 19246 1 180.0000771 15.1670000 2
19243 19244 19245 19247 1 180.0000771 15.1670000 2
19246 19244 19245 19247 4 180.0000771 4.6024000 2
19243 19244 19253 19245 4 180.0000771 4.6024000 2
19243 19244 19253 19251 1 180.0000771 15.1670000 2
19243 19244 19253 19254 1 180.0000771 15.1670000 2
19245 19244 19253 19251 1 180.0000771 15.1670000 2
19245 19244 19253 19254 1 180.0000771 15.1670000 2
19246 19245 19244 19253 1 180.0000771 15.1670000 2
19247 19245 19244 19253 1 180.0000771 15.1670000 2
19244 19245 19247 19248 1 180.0000771 15.1670000 2
19244 19245 19247 19249 1 180.0000771 15.1670000 2
19246 19245 19247 19248 1 180.0000771 15.1670000 2
19246 19245 19247 19249 1 180.0000771 15.1670000 2
19245 19247 19249 19250 1 180.0000771 15.1670000 2
19245 19247 19249 19251 1 180.0000771 15.1670000 2
19248 19247 19249 19250 1 180.0000771 15.1670000 2
19248 19247 19249 19251 1 180.0000771 15.1670000 2
19245 19249 19247 19248 4 180.0000771 4.6024000 2
19247 19249 19251 19252 1 180.0000771 15.1670000 2
19247 19249 19251 19253 1 180.0000771 15.1670000 2
19250 19249 19251 19252 1 180.0000771 15.1670000 2
19250 19249 19251 19253 1 180.0000771 15.1670000 2
19247 19251 19249 19250 4 180.0000771 4.6024000 2
19244 19251 19253 19254 4 180.0000771 4.6024000 2
19249 19251 19253 19254 1 180.0000771 15.1670000 2
19252 19251 19253 19254 1 180.0000771 15.1670000 2
19244 19253 19251 19249 1 180.0000771 15.1670000 2
19244 19253 19251 19252 1 180.0000771 15.1670000 2
19249 19253 19251 19252 4 180.0000771 4.6024000 2
19255 19256 19257 19258 1 180.0000771 15.1670000 2
19255 19256 19257 19259 1 180.0000771 15.1670000 2
19258 19256 19257 19259 4 180.0000771 4.6024000 2
19255 19256 19265 19257 4 180.0000771 4.6024000 2
19255 19256 19265 19263 1 180.0000771 15.1670000 2
19255 19256 19265 19266 1 180.0000771 15.1670000 2
19257 19256 19265 19263 1 180.0000771 15.1670000 2
19257 19256 19265 19266 1 180.0000771 15.1670000 2
19258 19257 19256 19265 1 180.0000771 15.1670000 2
19259 19257 19256 19265 1 180.0000771 15.1670000 2
19256 19257 19259 19260 1 180.0000771 15.1670000 2
19256 19257 19259 19261 1 180.0000771 15.1670000 2
19258 19257 19259 19260 1 180.0000771 15.1670000 2
19258 19257 19259 19261 1 180.0000771 15.1670000 2
19257 19259 19261 19262 1 180.0000771 15.1670000 2
19257 19259 19261 19263 1 180.0000771 15.1670000 2
19260 19259 19261 19262 1 180.0000771 15.1670000 2
19260 19259 19261 19263 1 180.0000771 15.1670000 2
19257 19261 19259 19260 4 180.0000771 4.6024000 2
19259 19261 19263 19264 1 180.0000771 15.1670000 2
19259 19261 19263 19265 1 180.0000771 15.1670000 2
19262 19261 19263 19264 1 180.0000771 15.1670000 2
19262 19261 19263 19265 1 180.0000771 15.1670000 2
19259 19263 19261 19262 4 180.0000771 4.6024000 2
19256 19263 19265 19266 4 180.0000771 4.6024000 2
19261 19263 19265 19266 1 180.0000771 15.1670000 2
19264 19263 19265 19266 1 180.0000771 15.1670000 2
19256 19265 19263 19261 1 180.0000771 15.1670000 2
19256 19265 19263 19264 1 180.0000771 15.1670000 2
19261 19265 19263 19264 4 180.0000771 4.6024000 2
19267 19268 19269 19270 1 180.0000771 15.1670000 2
19267 19268 19269 19271 1 180.0000771 15.1670000 2
19270 19268 19269 19271 4 180.0000771 4.6024000 2
19267 19268 19277 19269 4 180.0000771 4.6024000 2
19267 19268 19277 19275 1 180.0000771 15.1670000 2
19267 19268 19277 19278 1 180.0000771 15.1670000 2
19269 19268 19277 19275 1 180.0000771 15.1670000 2
19269 19268 19277 19278 1 180.0000771 15.1670000 2
19270 19269 19268 19277 1 180.0000771 15.1670000 2
19271 19269 19268 19277 1 180.0000771 15.1670000 2
19268 19269 19271 19272 1 180.0000771 15.1670000 2
19268 19269 19271 19273 1 180.0000771 15.1670000 2
19270 19269 19271 19272 1 180.0000771 15.1670000 2
19270 19269 19271 19273 1 180.0000771 15.1670000 2
19269 19271 19273 19274 1 180.0000771 15.1670000 2
19269 19271 19273 19275 1 180.0000771 15.1670000 2
19272 19271 19273 19274 1 180.0000771 15.1670000 2
19272 19271 19273 19275 1 180.0000771 15.1670000 2
19269 19273 19271 19272 4 180.0000771 4.6024000 2
19271 19273 19275 19276 1 180.0000771 15.1670000 2
19271 19273 19275 19277 1 180.0000771 15.1670000 2
19274 19273 19275 19276 1 180.0000771 15.1670000 2
19274 19273 19275 19277 1 180.0000771 15.1670000 2
19271 19275 19273 19274 4 180.0000771 4.6024000 2
19268 19275 19277 19278 4 180.0000771 4.6024000 2
19273 19275 19277 19278 1 180.0000771 15.1670000 2
19276 19275 19277 19278 1 180.0000771 15.1670000 2
19268 19277 19275 19273 1 180.0000771 15.1670000 2
19268 19277 19275 19276 1 180.0000771 15.1670000 2
19273 19277 19275 19276 4 180.0000771 4.6024000 2
19279 19280 19281 19282 1 180.0000771 15.1670000 2
19279 19280 19281 19283 1 180.0000771 15.1670000 2
19282 19280 19281 19283 4 180.0000771 4.6024000 2
19279 19280 19289 19281 4 180.0000771 4.6024000 2
19279 19280 19289 19287 1 180.0000771 15.1670000 2
19279 19280 19289 19290 1 180.0000771 15.1670000 2
19281 19280 19289 19287 1 180.0000771 15.1670000 2
19281 19280 19289 19290 1 180.0000771 15.1670000 2
19282 19281 19280 19289 1 180.0000771 15.1670000 2
19283 19281 19280 19289 1 180.0000771 15.1670000 2
19280 19281 19283 19284 1 180.0000771 15.1670000 2
19280 19281 19283 19285 1 180.0000771 15.1670000 2
19282 19281 19283 19284 1 180.0000771 15.1670000 2
19282 19281 19283 19285 1 180.0000771 15.1670000 2
19281 19283 19285 19286 1 180.0000771 15.1670000 2
19281 19283 19285 19287 1 180.0000771 15.1670000 2
19284 19283 19285 19286 1 180.0000771 15.1670000 2
19284 19283 19285 19287 1 180.0000771 15.1670000 2
19281 19285 19283 19284 4 180.0000771 4.6024000 2
19283 19285 19287 19288 1 180.0000771 15.1670000 2
19283 19285 19287 19289 1 180.0000771 15.1670000 2
19286 19285 19287 19288 1 180.0000771 15.1670000 2
19286 19285 19287 19289 1 180.0000771 15.1670000 2
19283 19287 19285 19286 4 180.0000771 4.6024000 2
19280 19287 19289 19290 4 180.0000771 4.6024000 2
19285 19287 19289 19290 1 180.0000771 15.1670000 2
19288 19287 19289 19290 1 180.0000771 15.1670000 2
19280 19289 19287 19285 1 180.0000771 15.1670000 2
19280 19289 19287 19288 1 180.0000771 15.1670000 2
19285 19289 19287 19288 4 180.0000771 4.6024000 2
19291 19292 19293 19294 1 180.0000771 15.1670000 2
19291 19292 19293 19295 1 180.0000771 15.1670000 2
19294 19292 19293 19295 4 180.0000771 4.6024000 2
19291 19292 19301 19293 4 180.0000771 4.6024000 2
19291 19292 19301 19299 1 180.0000771 15.1670000 2
19291 19292 19301 19302 1 180.0000771 15.1670000 2
19293 19292 19301 19299 1 180.0000771 15.1670000 2
19293 19292 19301 19302 1 180.0000771 15.1670000 2
19294 19293 19292 19301 1 180.0000771 15.1670000 2
19295 19293 19292 19301 1 180.0000771 15.1670000 2
19292 19293 19295 19296 1 180.0000771 15.1670000 2
19292 19293 19295 19297 1 180.0000771 15.1670000 2
19294 19293 19295 19296 1 180.0000771 15.1670000 2
19294 19293 19295 19297 1 180.0000771 15.1670000 2
19293 19295 19297 19298 1 180.0000771 15.1670000 2
19293 19295 19297 19299 1 180.0000771 15.1670000 2
19296 19295 19297 19298 1 180.0000771 15.1670000 2
19296 19295 19297 19299 1 180.0000771 15.1670000 2
19293 19297 19295 19296 4 180.0000771 4.6024000 2
19295 19297 19299 19300 1 180.0000771 15.1670000 2
19295 19297 19299 19301 1 180.0000771 15.1670000 2
19298 19297 19299 19300 1 180.0000771 15.1670000 2
19298 19297 19299 19301 1 180.0000771 15.1670000 2
19295 19299 19297 19298 4 180.0000771 4.6024000 2
19292 19299 19301 19302 4 180.0000771 4.6024000 2
19297 19299 19301 19302 1 180.0000771 15.1670000 2
19300 19299 19301 19302 1 180.0000771 15.1670000 2
19292 19301 19299 19297 1 180.0000771 15.1670000 2
19292 19301 19299 19300 1 180.0000771 15.1670000 2
19297 19301 19299 19300 4 180.0000771 4.6024000 2
19303 19304 19305 19306 1 180.0000771 15.1670000 2
19303 19304 19305 19307 1 180.0000771 15.1670000 2
19306 19304 19305 19307 4 180.0000771 4.6024000 2
19303 19304 19313 19305 4 180.0000771 4.6024000 2
19303 19304 19313 19311 1 180.0000771 15.1670000 2
19303 19304 19313 19314 1 180.0000771 15.1670000 2
19305 19304 19313 19311 1 180.0000771 15.1670000 2
19305 19304 19313 19314 1 180.0000771 15.1670000 2
19306 19305 19304 19313 1 180.0000771 15.1670000 2
19307 19305 19304 19313 1 180.0000771 15.1670000 2
19304 19305 19307 19308 1 180.0000771 15.1670000 2
19304 19305 19307 19309 1 180.0000771 15.1670000 2
19306 19305 19307 19308 1 180.0000771 15.1670000 2
19306 19305 19307 19309 1 180.0000771 15.1670000 2
19305 19307 19309 19310 1 180.0000771 15.1670000 2
19305 19307 19309 19311 1 180.0000771 15.1670000 2
19308 19307 19309 19310 1 180.0000771 15.1670000 2
19308 19307 19309 19311 1 180.0000771 15.1670000 2
19305 19309 19307 19308 4 180.0000771 4.6024000 2
19307 19309 19311 19312 1 180.0000771 15.1670000 2
19307 19309 19311 19313 1 180.0000771 15.1670000 2
19310 19309 19311 19312 1 180.0000771 15.1670000 2
19310 19309 19311 19313 1 180.0000771 15.1670000 2
19307 19311 19309 19310 4 180.0000771 4.6024000 2
19304 19311 19313 19314 4 180.0000771 4.6024000 2
19309 19311 19313 19314 1 180.0000771 15.1670000 2
19312 19311 19313 19314 1 180.0000771 15.1670000 2
19304 19313 19311 19309 1 180.0000771 15.1670000 2
19304 19313 19311 19312 1 180.0000771 15.1670000 2
19309 19313 19311 19312 4 180.0000771 4.6024000 2
19315 19316 19317 19318 1 180.0000771 15.1670000 2
19315 19316 19317 19319 1 180.0000771 15.1670000 2
19318 19316 19317 19319 4 180.0000771 4.6024000 2
19315 19316 19325 19317 4 180.0000771 4.6024000 2
19315 19316 19325 19323 1 180.0000771 15.1670000 2
19315 19316 19325 19326 1 180.0000771 15.1670000 2
19317 19316 19325 19323 1 180.0000771 15.1670000 2
19317 19316 19325 19326 1 180.0000771 15.1670000 2
19318 19317 19316 19325 1 180.0000771 15.1670000 2
19319 19317 19316 19325 1 180.0000771 15.1670000 2
19316 19317 19319 19320 1 180.0000771 15.1670000 2
19316 19317 19319 19321 1 180.0000771 15.1670000 2
19318 19317 19319 19320 1 180.0000771 15.1670000 2
19318 19317 19319 19321 1 180.0000771 15.1670000 2
19317 19319 19321 19322 1 180.0000771 15.1670000 2
19317 19319 19321 19323 1 180.0000771 15.1670000 2
19320 19319 19321 19322 1 180.0000771 15.1670000 2
19320 19319 19321 19323 1 180.0000771 15.1670000 2
19317 19321 19319 19320 4 180.0000771 4.6024000 2
19319 19321 19323 19324 1 180.0000771 15.1670000 2
19319 19321 19323 19325 1 180.0000771 15.1670000 2
19322 19321 19323 19324 1 180.0000771 15.1670000 2
19322 19321 19323 19325 1 180.0000771 15.1670000 2
19319 19323 19321 19322 4 180.0000771 4.6024000 2
19316 19323 19325 19326 4 180.0000771 4.6024000 2
19321 19323 19325 19326 1 180.0000771 15.1670000 2
19324 19323 19325 19326 1 180.0000771 15.1670000 2
19316 19325 19323 19321 1 180.0000771 15.1670000 2
19316 19325 19323 19324 1 180.0000771 15.1670000 2
19321 19325 19323 19324 4 180.0000771 4.6024000 2
19327 19328 19329 19330 1 180.0000771 15.1670000 2
19327 19328 19329 19331 1 180.0000771 15.1670000 2
19330 19328 19329 19331 4 180.0000771 4.6024000 2
19327 19328 19337 19329 4 180.0000771 4.6024000 2
19327 19328 19337 19335 1 180.0000771 15.1670000 2
19327 19328 19337 19338 1 180.0000771 15.1670000 2
19329 19328 19337 19335 1 180.0000771 15.1670000 2
19329 19328 19337 19338 1 180.0000771 15.1670000 2
19330 19329 19328 19337 1 180.0000771 15.1670000 2
19331 19329 19328 19337 1 180.0000771 15.1670000 2
19328 19329 19331 19332 1 180.0000771 15.1670000 2
19328 19329 19331 19333 1 180.0000771 15.1670000 2
19330 19329 19331 19332 1 180.0000771 15.1670000 2
19330 19329 19331 19333 1 180.0000771 15.1670000 2
19329 19331 19333 19334 1 180.0000771 15.1670000 2
19329 19331 19333 19335 1 180.0000771 15.1670000 2
19332 19331 19333 19334 1 180.0000771 15.1670000 2
19332 19331 19333 19335 1 180.0000771 15.1670000 2
19329 19333 19331 19332 4 180.0000771 4.6024000 2
19331 19333 19335 19336 1 180.0000771 15.1670000 2
19331 19333 19335 19337 1 180.0000771 15.1670000 2
19334 19333 19335 19336 1 180.0000771 15.1670000 2
19334 19333 19335 19337 1 180.0000771 15.1670000 2
19331 19335 19333 19334 4 180.0000771 4.6024000 2
19328 19335 19337 19338 4 180.0000771 4.6024000 2
19333 19335 19337 19338 1 180.0000771 15.1670000 2
19336 19335 19337 19338 1 180.0000771 15.1670000 2
19328 19337 19335 19333 1 180.0000771 15.1670000 2
19328 19337 19335 19336 1 180.0000771 15.1670000 2
19333 19337 19335 19336 4 180.0000771 4.6024000 2
19339 19340 19341 19342 1 180.0000771 15.1670000 2
19339 19340 19341 19343 1 180.0000771 15.1670000 2
19342 19340 19341 19343 4 180.0000771 4.6024000 2
19339 19340 19349 19341 4 180.0000771 4.6024000 2
19339 19340 19349 19347 1 180.0000771 15.1670000 2
19339 19340 19349 19350 1 180.0000771 15.1670000 2
19341 19340 19349 19347 1 180.0000771 15.1670000 2
19341 19340 19349 19350 1 180.0000771 15.1670000 2
19342 19341 19340 19349 1 180.0000771 15.1670000 2
19343 19341 19340 19349 1 180.0000771 15.1670000 2
19340 19341 19343 19344 1 180.0000771 15.1670000 2
19340 19341 19343 19345 1 180.0000771 15.1670000 2
19342 19341 19343 19344 1 180.0000771 15.1670000 2
19342 19341 19343 19345 1 180.0000771 15.1670000 2
19341 19343 19345 19346 1 180.0000771 15.1670000 2
19341 19343 19345 19347 1 180.0000771 15.1670000 2
19344 19343 19345 19346 1 180.0000771 15.1670000 2
19344 19343 19345 19347 1 180.0000771 15.1670000 2
19341 19345 19343 19344 4 180.0000771 4.6024000 2
19343 19345 19347 19348 1 180.0000771 15.1670000 2
19343 19345 19347 19349 1 180.0000771 15.1670000 2
19346 19345 19347 19348 1 180.0000771 15.1670000 2
19346 19345 19347 19349 1 180.0000771 15.1670000 2
19343 19347 19345 19346 4 180.0000771 4.6024000 2
19340 19347 19349 19350 4 180.0000771 4.6024000 2
19345 19347 19349 19350 1 180.0000771 15.1670000 2
19348 19347 19349 19350 1 180.0000771 15.1670000 2
19340 19349 19347 19345 1 180.0000771 15.1670000 2
19340 19349 19347 19348 1 180.0000771 15.1670000 2
19345 19349 19347 19348 4 180.0000771 4.6024000 2
19351 19352 19353 19354 1 180.0000771 15.1670000 2
19351 19352 19353 19355 1 180.0000771 15.1670000 2
19354 19352 19353 19355 4 180.0000771 4.6024000 2
19351 19352 19361 19353 4 180.0000771 4.6024000 2
19351 19352 19361 19359 1 180.0000771 15.1670000 2
19351 19352 19361 19362 1 180.0000771 15.1670000 2
19353 19352 19361 19359 1 180.0000771 15.1670000 2
19353 19352 19361 19362 1 180.0000771 15.1670000 2
19354 19353 19352 19361 1 180.0000771 15.1670000 2
19355 19353 19352 19361 1 180.0000771 15.1670000 2
19352 19353 19355 19356 1 180.0000771 15.1670000 2
19352 19353 19355 19357 1 180.0000771 15.1670000 2
19354 19353 19355 19356 1 180.0000771 15.1670000 2
19354 19353 19355 19357 1 180.0000771 15.1670000 2
19353 19355 19357 19358 1 180.0000771 15.1670000 2
19353 19355 19357 19359 1 180.0000771 15.1670000 2
19356 19355 19357 19358 1 180.0000771 15.1670000 2
19356 19355 19357 19359 1 180.0000771 15.1670000 2
19353 19357 19355 19356 4 180.0000771 4.6024000 2
19355 19357 19359 19360 1 180.0000771 15.1670000 2
19355 19357 19359 19361 1 180.0000771 15.1670000 2
19358 19357 19359 19360 1 180.0000771 15.1670000 2
19358 19357 19359 19361 1 180.0000771 15.1670000 2
19355 19359 19357 19358 4 180.0000771 4.6024000 2
19352 19359 19361 19362 4 180.0000771 4.6024000 2
19357 19359 19361 19362 1 180.0000771 15.1670000 2
19360 19359 19361 19362 1 180.0000771 15.1670000 2
19352 19361 19359 19357 1 180.0000771 15.1670000 2
19352 19361 19359 19360 1 180.0000771 15.1670000 2
19357 19361 19359 19360 4 180.0000771 4.6024000 2
19363 19364 19365 19366 1 180.0000771 15.1670000 2
19363 19364 19365 19367 1 180.0000771 15.1670000 2
19366 19364 19365 19367 4 180.0000771 4.6024000 2
19363 19364 19373 19365 4 180.0000771 4.6024000 2
19363 19364 19373 19371 1 180.0000771 15.1670000 2
19363 19364 19373 19374 1 180.0000771 15.1670000 2
19365 19364 19373 19371 1 180.0000771 15.1670000 2
19365 19364 19373 19374 1 180.0000771 15.1670000 2
19366 19365 19364 19373 1 180.0000771 15.1670000 2
19367 19365 19364 19373 1 180.0000771 15.1670000 2
19364 19365 19367 19368 1 180.0000771 15.1670000 2
19364 19365 19367 19369 1 180.0000771 15.1670000 2
19366 19365 19367 19368 1 180.0000771 15.1670000 2
19366 19365 19367 19369 1 180.0000771 15.1670000 2
19365 19367 19369 19370 1 180.0000771 15.1670000 2
19365 19367 19369 19371 1 180.0000771 15.1670000 2
19368 19367 19369 19370 1 180.0000771 15.1670000 2
19368 19367 19369 19371 1 180.0000771 15.1670000 2
19365 19369 19367 19368 4 180.0000771 4.6024000 2
19367 19369 19371 19372 1 180.0000771 15.1670000 2
19367 19369 19371 19373 1 180.0000771 15.1670000 2
19370 19369 19371 19372 1 180.0000771 15.1670000 2
19370 19369 19371 19373 1 180.0000771 15.1670000 2
19367 19371 19369 19370 4 180.0000771 4.6024000 2
19364 19371 19373 19374 4 180.0000771 4.6024000 2
19369 19371 19373 19374 1 180.0000771 15.1670000 2
19372 19371 19373 19374 1 180.0000771 15.1670000 2
19364 19373 19371 19369 1 180.0000771 15.1670000 2
19364 19373 19371 19372 1 180.0000771 15.1670000 2
19369 19373 19371 19372 4 180.0000771 4.6024000 2
19375 19376 19377 19378 1 180.0000771 15.1670000 2
19375 19376 19377 19379 1 180.0000771 15.1670000 2
19378 19376 19377 19379 4 180.0000771 4.6024000 2
19375 19376 19385 19377 4 180.0000771 4.6024000 2
19375 19376 19385 19383 1 180.0000771 15.1670000 2
19375 19376 19385 19386 1 180.0000771 15.1670000 2
19377 19376 19385 19383 1 180.0000771 15.1670000 2
19377 19376 19385 19386 1 180.0000771 15.1670000 2
19378 19377 19376 19385 1 180.0000771 15.1670000 2
19379 19377 19376 19385 1 180.0000771 15.1670000 2
19376 19377 19379 19380 1 180.0000771 15.1670000 2
19376 19377 19379 19381 1 180.0000771 15.1670000 2
19378 19377 19379 19380 1 180.0000771 15.1670000 2
19378 19377 19379 19381 1 180.0000771 15.1670000 2
19377 19379 19381 19382 1 180.0000771 15.1670000 2
19377 19379 19381 19383 1 180.0000771 15.1670000 2
19380 19379 19381 19382 1 180.0000771 15.1670000 2
19380 19379 19381 19383 1 180.0000771 15.1670000 2
19377 19381 19379 19380 4 180.0000771 4.6024000 2
19379 19381 19383 19384 1 180.0000771 15.1670000 2
19379 19381 19383 19385 1 180.0000771 15.1670000 2
19382 19381 19383 19384 1 180.0000771 15.1670000 2
19382 19381 19383 19385 1 180.0000771 15.1670000 2
19379 19383 19381 19382 4 180.0000771 4.6024000 2
19376 19383 19385 19386 4 180.0000771 4.6024000 2
19381 19383 19385 19386 1 180.0000771 15.1670000 2
19384 19383 19385 19386 1 180.0000771 15.1670000 2
19376 19385 19383 19381 1 180.0000771 15.1670000 2
19376 19385 19383 19384 1 180.0000771 15.1670000 2
19381 19385 19383 19384 4 180.0000771 4.6024000 2
19387 19388 19389 19390 1 180.0000771 15.1670000 2
19387 19388 19389 19391 1 180.0000771 15.1670000 2
19390 19388 19389 19391 4 180.0000771 4.6024000 2
19387 19388 19397 19389 4 180.0000771 4.6024000 2
19387 19388 19397 19395 1 180.0000771 15.1670000 2
19387 19388 19397 19398 1 180.0000771 15.1670000 2
19389 19388 19397 19395 1 180.0000771 15.1670000 2
19389 19388 19397 19398 1 180.0000771 15.1670000 2
19390 19389 19388 19397 1 180.0000771 15.1670000 2
19391 19389 19388 19397 1 180.0000771 15.1670000 2
19388 19389 19391 19392 1 180.0000771 15.1670000 2
19388 19389 19391 19393 1 180.0000771 15.1670000 2
19390 19389 19391 19392 1 180.0000771 15.1670000 2
19390 19389 19391 19393 1 180.0000771 15.1670000 2
19389 19391 19393 19394 1 180.0000771 15.1670000 2
19389 19391 19393 19395 1 180.0000771 15.1670000 2
19392 19391 19393 19394 1 180.0000771 15.1670000 2
19392 19391 19393 19395 1 180.0000771 15.1670000 2
19389 19393 19391 19392 4 180.0000771 4.6024000 2
19391 19393 19395 19396 1 180.0000771 15.1670000 2
19391 19393 19395 19397 1 180.0000771 15.1670000 2
19394 19393 19395 19396 1 180.0000771 15.1670000 2
19394 19393 19395 19397 1 180.0000771 15.1670000 2
19391 19395 19393 19394 4 180.0000771 4.6024000 2
19388 19395 19397 19398 4 180.0000771 4.6024000 2
19393 19395 19397 19398 1 180.0000771 15.1670000 2
19396 19395 19397 19398 1 180.0000771 15.1670000 2
19388 19397 19395 19393 1 180.0000771 15.1670000 2
19388 19397 19395 19396 1 180.0000771 15.1670000 2
19393 19397 19395 19396 4 180.0000771 4.6024000 2
19399 19400 19401 19402 1 180.0000771 15.1670000 2
19399 19400 19401 19403 1 180.0000771 15.1670000 2
19402 19400 19401 19403 4 180.0000771 4.6024000 2
19399 19400 19409 19401 4 180.0000771 4.6024000 2
19399 19400 19409 19407 1 180.0000771 15.1670000 2
19399 19400 19409 19410 1 180.0000771 15.1670000 2
19401 19400 19409 19407 1 180.0000771 15.1670000 2
19401 19400 19409 19410 1 180.0000771 15.1670000 2
19402 19401 19400 19409 1 180.0000771 15.1670000 2
19403 19401 19400 19409 1 180.0000771 15.1670000 2
19400 19401 19403 19404 1 180.0000771 15.1670000 2
19400 19401 19403 19405 1 180.0000771 15.1670000 2
19402 19401 19403 19404 1 180.0000771 15.1670000 2
19402 19401 19403 19405 1 180.0000771 15.1670000 2
19401 19403 19405 19406 1 180.0000771 15.1670000 2
19401 19403 19405 19407 1 180.0000771 15.1670000 2
19404 19403 19405 19406 1 180.0000771 15.1670000 2
19404 19403 19405 19407 1 180.0000771 15.1670000 2
19401 19405 19403 19404 4 180.0000771 4.6024000 2
19403 19405 19407 19408 1 180.0000771 15.1670000 2
19403 19405 19407 19409 1 180.0000771 15.1670000 2
19406 19405 19407 19408 1 180.0000771 15.1670000 2
19406 19405 19407 19409 1 180.0000771 15.1670000 2
19403 19407 19405 19406 4 180.0000771 4.6024000 2
19400 19407 19409 19410 4 180.0000771 4.6024000 2
19405 19407 19409 19410 1 180.0000771 15.1670000 2
19408 19407 19409 19410 1 180.0000771 15.1670000 2
19400 19409 19407 19405 1 180.0000771 15.1670000 2
19400 19409 19407 19408 1 180.0000771 15.1670000 2
19405 19409 19407 19408 4 180.0000771 4.6024000 2
19411 19412 19413 19414 1 180.0000771 15.1670000 2
19411 19412 19413 19415 1 180.0000771 15.1670000 2
19414 19412 19413 19415 4 180.0000771 4.6024000 2
19411 19412 19421 19413 4 180.0000771 4.6024000 2
19411 19412 19421 19419 1 180.0000771 15.1670000 2
19411 19412 19421 19422 1 180.0000771 15.1670000 2
19413 19412 19421 19419 1 180.0000771 15.1670000 2
19413 19412 19421 19422 1 180.0000771 15.1670000 2
19414 19413 19412 19421 1 180.0000771 15.1670000 2
19415 19413 19412 19421 1 180.0000771 15.1670000 2
19412 19413 19415 19416 1 180.0000771 15.1670000 2
19412 19413 19415 19417 1 180.0000771 15.1670000 2
19414 19413 19415 19416 1 180.0000771 15.1670000 2
19414 19413 19415 19417 1 180.0000771 15.1670000 2
19413 19415 19417 19418 1 180.0000771 15.1670000 2
19413 19415 19417 19419 1 180.0000771 15.1670000 2
19416 19415 19417 19418 1 180.0000771 15.1670000 2
19416 19415 19417 19419 1 180.0000771 15.1670000 2
19413 19417 19415 19416 4 180.0000771 4.6024000 2
19415 19417 19419 19420 1 180.0000771 15.1670000 2
19415 19417 19419 19421 1 180.0000771 15.1670000 2
19418 19417 19419 19420 1 180.0000771 15.1670000 2
19418 19417 19419 19421 1 180.0000771 15.1670000 2
19415 19419 19417 19418 4 180.0000771 4.6024000 2
19412 19419 19421 19422 4 180.0000771 4.6024000 2
19417 19419 19421 19422 1 180.0000771 15.1670000 2
19420 19419 19421 19422 1 180.0000771 15.1670000 2
19412 19421 19419 19417 1 180.0000771 15.1670000 2
19412 19421 19419 19420 1 180.0000771 15.1670000 2
19417 19421 19419 19420 4 180.0000771 4.6024000 2
19423 19424 19425 19426 1 180.0000771 15.1670000 2
19423 19424 19425 19427 1 180.0000771 15.1670000 2
19426 19424 19425 19427 4 180.0000771 4.6024000 2
19423 19424 19433 19425 4 180.0000771 4.6024000 2
19423 19424 19433 19431 1 180.0000771 15.1670000 2
19423 19424 19433 19434 1 180.0000771 15.1670000 2
19425 19424 19433 19431 1 180.0000771 15.1670000 2
19425 19424 19433 19434 1 180.0000771 15.1670000 2
19426 19425 19424 19433 1 180.0000771 15.1670000 2
19427 19425 19424 19433 1 180.0000771 15.1670000 2
19424 19425 19427 19428 1 180.0000771 15.1670000 2
19424 19425 19427 19429 1 180.0000771 15.1670000 2
19426 19425 19427 19428 1 180.0000771 15.1670000 2
19426 19425 19427 19429 1 180.0000771 15.1670000 2
19425 19427 19429 19430 1 180.0000771 15.1670000 2
19425 19427 19429 19431 1 180.0000771 15.1670000 2
19428 19427 19429 19430 1 180.0000771 15.1670000 2
19428 19427 19429 19431 1 180.0000771 15.1670000 2
19425 19429 19427 19428 4 180.0000771 4.6024000 2
19427 19429 19431 19432 1 180.0000771 15.1670000 2
19427 19429 19431 19433 1 180.0000771 15.1670000 2
19430 19429 19431 19432 1 180.0000771 15.1670000 2
19430 19429 19431 19433 1 180.0000771 15.1670000 2
19427 19431 19429 19430 4 180.0000771 4.6024000 2
19424 19431 19433 19434 4 180.0000771 4.6024000 2
19429 19431 19433 19434 1 180.0000771 15.1670000 2
19432 19431 19433 19434 1 180.0000771 15.1670000 2
19424 19433 19431 19429 1 180.0000771 15.1670000 2
19424 19433 19431 19432 1 180.0000771 15.1670000 2
19429 19433 19431 19432 4 180.0000771 4.6024000 2
19435 19436 19437 19438 1 180.0000771 15.1670000 2
19435 19436 19437 19439 1 180.0000771 15.1670000 2
19438 19436 19437 19439 4 180.0000771 4.6024000 2
19435 19436 19445 19437 4 180.0000771 4.6024000 2
19435 19436 19445 19443 1 180.0000771 15.1670000 2
19435 19436 19445 19446 1 180.0000771 15.1670000 2
19437 19436 19445 19443 1 180.0000771 15.1670000 2
19437 19436 19445 19446 1 180.0000771 15.1670000 2
19438 19437 19436 19445 1 180.0000771 15.1670000 2
19439 19437 19436 19445 1 180.0000771 15.1670000 2
19436 19437 19439 19440 1 180.0000771 15.1670000 2
19436 19437 19439 19441 1 180.0000771 15.1670000 2
19438 19437 19439 19440 1 180.0000771 15.1670000 2
19438 19437 19439 19441 1 180.0000771 15.1670000 2
19437 19439 19441 19442 1 180.0000771 15.1670000 2
19437 19439 19441 19443 1 180.0000771 15.1670000 2
19440 19439 19441 19442 1 180.0000771 15.1670000 2
19440 19439 19441 19443 1 180.0000771 15.1670000 2
19437 19441 19439 19440 4 180.0000771 4.6024000 2
19439 19441 19443 19444 1 180.0000771 15.1670000 2
19439 19441 19443 19445 1 180.0000771 15.1670000 2
19442 19441 19443 19444 1 180.0000771 15.1670000 2
19442 19441 19443 19445 1 180.0000771 15.1670000 2
19439 19443 19441 19442 4 180.0000771 4.6024000 2
19436 19443 19445 19446 4 180.0000771 4.6024000 2
19441 19443 19445 19446 1 180.0000771 15.1670000 2
19444 19443 19445 19446 1 180.0000771 15.1670000 2
19436 19445 19443 19441 1 180.0000771 15.1670000 2
19436 19445 19443 19444 1 180.0000771 15.1670000 2
19441 19445 19443 19444 4 180.0000771 4.6024000 2
19447 19448 19449 19450 1 180.0000771 15.1670000 2
19447 19448 19449 19451 1 180.0000771 15.1670000 2
19450 19448 19449 19451 4 180.0000771 4.6024000 2
19447 19448 19457 19449 4 180.0000771 4.6024000 2
19447 19448 19457 19455 1 180.0000771 15.1670000 2
19447 19448 19457 19458 1 180.0000771 15.1670000 2
19449 19448 19457 19455 1 180.0000771 15.1670000 2
19449 19448 19457 19458 1 180.0000771 15.1670000 2
19450 19449 19448 19457 1 180.0000771 15.1670000 2
19451 19449 19448 19457 1 180.0000771 15.1670000 2
19448 19449 19451 19452 1 180.0000771 15.1670000 2
19448 19449 19451 19453 1 180.0000771 15.1670000 2
19450 19449 19451 19452 1 180.0000771 15.1670000 2
19450 19449 19451 19453 1 180.0000771 15.1670000 2
19449 19451 19453 19454 1 180.0000771 15.1670000 2
19449 19451 19453 19455 1 180.0000771 15.1670000 2
19452 19451 19453 19454 1 180.0000771 15.1670000 2
19452 19451 19453 19455 1 180.0000771 15.1670000 2
19449 19453 19451 19452 4 180.0000771 4.6024000 2
19451 19453 19455 19456 1 180.0000771 15.1670000 2
19451 19453 19455 19457 1 180.0000771 15.1670000 2
19454 19453 19455 19456 1 180.0000771 15.1670000 2
19454 19453 19455 19457 1 180.0000771 15.1670000 2
19451 19455 19453 19454 4 180.0000771 4.6024000 2
19448 19455 19457 19458 4 180.0000771 4.6024000 2
19453 19455 19457 19458 1 180.0000771 15.1670000 2
19456 19455 19457 19458 1 180.0000771 15.1670000 2
19448 19457 19455 19453 1 180.0000771 15.1670000 2
19448 19457 19455 19456 1 180.0000771 15.1670000 2
19453 19457 19455 19456 4 180.0000771 4.6024000 2
19459 19460 19461 19462 1 180.0000771 15.1670000 2
19459 19460 19461 19463 1 180.0000771 15.1670000 2
19462 19460 19461 19463 4 180.0000771 4.6024000 2
19459 19460 19469 19461 4 180.0000771 4.6024000 2
19459 19460 19469 19467 1 180.0000771 15.1670000 2
19459 19460 19469 19470 1 180.0000771 15.1670000 2
19461 19460 19469 19467 1 180.0000771 15.1670000 2
19461 19460 19469 19470 1 180.0000771 15.1670000 2
19462 19461 19460 19469 1 180.0000771 15.1670000 2
19463 19461 19460 19469 1 180.0000771 15.1670000 2
19460 19461 19463 19464 1 180.0000771 15.1670000 2
19460 19461 19463 19465 1 180.0000771 15.1670000 2
19462 19461 19463 19464 1 180.0000771 15.1670000 2
19462 19461 19463 19465 1 180.0000771 15.1670000 2
19461 19463 19465 19466 1 180.0000771 15.1670000 2
19461 19463 19465 19467 1 180.0000771 15.1670000 2
19464 19463 19465 19466 1 180.0000771 15.1670000 2
19464 19463 19465 19467 1 180.0000771 15.1670000 2
19461 19465 19463 19464 4 180.0000771 4.6024000 2
19463 19465 19467 19468 1 180.0000771 15.1670000 2
19463 19465 19467 19469 1 180.0000771 15.1670000 2
19466 19465 19467 19468 1 180.0000771 15.1670000 2
19466 19465 19467 19469 1 180.0000771 15.1670000 2
19463 19467 19465 19466 4 180.0000771 4.6024000 2
19460 19467 19469 19470 4 180.0000771 4.6024000 2
19465 19467 19469 19470 1 180.0000771 15.1670000 2
19468 19467 19469 19470 1 180.0000771 15.1670000 2
19460 19469 19467 19465 1 180.0000771 15.1670000 2
19460 19469 19467 19468 1 180.0000771 15.1670000 2
19465 19469 19467 19468 4 180.0000771 4.6024000 2
19471 19472 19473 19474 1 180.0000771 15.1670000 2
19471 19472 19473 19475 1 180.0000771 15.1670000 2
19474 19472 19473 19475 4 180.0000771 4.6024000 2
19471 19472 19481 19473 4 180.0000771 4.6024000 2
19471 19472 19481 19479 1 180.0000771 15.1670000 2
19471 19472 19481 19482 1 180.0000771 15.1670000 2
19473 19472 19481 19479 1 180.0000771 15.1670000 2
19473 19472 19481 19482 1 180.0000771 15.1670000 2
19474 19473 19472 19481 1 180.0000771 15.1670000 2
19475 19473 19472 19481 1 180.0000771 15.1670000 2
19472 19473 19475 19476 1 180.0000771 15.1670000 2
19472 19473 19475 19477 1 180.0000771 15.1670000 2
19474 19473 19475 19476 1 180.0000771 15.1670000 2
19474 19473 19475 19477 1 180.0000771 15.1670000 2
19473 19475 19477 19478 1 180.0000771 15.1670000 2
19473 19475 19477 19479 1 180.0000771 15.1670000 2
19476 19475 19477 19478 1 180.0000771 15.1670000 2
19476 19475 19477 19479 1 180.0000771 15.1670000 2
19473 19477 19475 19476 4 180.0000771 4.6024000 2
19475 19477 19479 19480 1 180.0000771 15.1670000 2
19475 19477 19479 19481 1 180.0000771 15.1670000 2
19478 19477 19479 19480 1 180.0000771 15.1670000 2
19478 19477 19479 19481 1 180.0000771 15.1670000 2
19475 19479 19477 19478 4 180.0000771 4.6024000 2
19472 19479 19481 19482 4 180.0000771 4.6024000 2
19477 19479 19481 19482 1 180.0000771 15.1670000 2
19480 19479 19481 19482 1 180.0000771 15.1670000 2
19472 19481 19479 19477 1 180.0000771 15.1670000 2
19472 19481 19479 19480 1 180.0000771 15.1670000 2
19477 19481 19479 19480 4 180.0000771 4.6024000 2
19483 19484 19485 19486 1 180.0000771 15.1670000 2
19483 19484 19485 19487 1 180.0000771 15.1670000 2
19486 19484 19485 19487 4 180.0000771 4.6024000 2
19483 19484 19493 19485 4 180.0000771 4.6024000 2
19483 19484 19493 19491 1 180.0000771 15.1670000 2
19483 19484 19493 19494 1 180.0000771 15.1670000 2
19485 19484 19493 19491 1 180.0000771 15.1670000 2
19485 19484 19493 19494 1 180.0000771 15.1670000 2
19486 19485 19484 19493 1 180.0000771 15.1670000 2
19487 19485 19484 19493 1 180.0000771 15.1670000 2
19484 19485 19487 19488 1 180.0000771 15.1670000 2
19484 19485 19487 19489 1 180.0000771 15.1670000 2
19486 19485 19487 19488 1 180.0000771 15.1670000 2
19486 19485 19487 19489 1 180.0000771 15.1670000 2
19485 19487 19489 19490 1 180.0000771 15.1670000 2
19485 19487 19489 19491 1 180.0000771 15.1670000 2
19488 19487 19489 19490 1 180.0000771 15.1670000 2
19488 19487 19489 19491 1 180.0000771 15.1670000 2
19485 19489 19487 19488 4 180.0000771 4.6024000 2
19487 19489 19491 19492 1 180.0000771 15.1670000 2
19487 19489 19491 19493 1 180.0000771 15.1670000 2
19490 19489 19491 19492 1 180.0000771 15.1670000 2
19490 19489 19491 19493 1 180.0000771 15.1670000 2
19487 19491 19489 19490 4 180.0000771 4.6024000 2
19484 19491 19493 19494 4 180.0000771 4.6024000 2
19489 19491 19493 19494 1 180.0000771 15.1670000 2
19492 19491 19493 19494 1 180.0000771 15.1670000 2
19484 19493 19491 19489 1 180.0000771 15.1670000 2
19484 19493 19491 19492 1 180.0000771 15.1670000 2
19489 19493 19491 19492 4 180.0000771 4.6024000 2
19495 19496 19497 19498 1 180.0000771 15.1670000 2
19495 19496 19497 19499 1 180.0000771 15.1670000 2
19498 19496 19497 19499 4 180.0000771 4.6024000 2
19495 19496 19505 19497 4 180.0000771 4.6024000 2
19495 19496 19505 19503 1 180.0000771 15.1670000 2
19495 19496 19505 19506 1 180.0000771 15.1670000 2
19497 19496 19505 19503 1 180.0000771 15.1670000 2
19497 19496 19505 19506 1 180.0000771 15.1670000 2
19498 19497 19496 19505 1 180.0000771 15.1670000 2
19499 19497 19496 19505 1 180.0000771 15.1670000 2
19496 19497 19499 19500 1 180.0000771 15.1670000 2
19496 19497 19499 19501 1 180.0000771 15.1670000 2
19498 19497 19499 19500 1 180.0000771 15.1670000 2
19498 19497 19499 19501 1 180.0000771 15.1670000 2
19497 19499 19501 19502 1 180.0000771 15.1670000 2
19497 19499 19501 19503 1 180.0000771 15.1670000 2
19500 19499 19501 19502 1 180.0000771 15.1670000 2
19500 19499 19501 19503 1 180.0000771 15.1670000 2
19497 19501 19499 19500 4 180.0000771 4.6024000 2
19499 19501 19503 19504 1 180.0000771 15.1670000 2
19499 19501 19503 19505 1 180.0000771 15.1670000 2
19502 19501 19503 19504 1 180.0000771 15.1670000 2
19502 19501 19503 19505 1 180.0000771 15.1670000 2
19499 19503 19501 19502 4 180.0000771 4.6024000 2
19496 19503 19505 19506 4 180.0000771 4.6024000 2
19501 19503 19505 19506 1 180.0000771 15.1670000 2
19504 19503 19505 19506 1 180.0000771 15.1670000 2
19496 19505 19503 19501 1 180.0000771 15.1670000 2
19496 19505 19503 19504 1 180.0000771 15.1670000 2
19501 19505 19503 19504 4 180.0000771 4.6024000 2
19507 19508 19509 19510 1 180.0000771 15.1670000 2
19507 19508 19509 19511 1 180.0000771 15.1670000 2
19510 19508 19509 19511 4 180.0000771 4.6024000 2
19507 19508 19517 19509 4 180.0000771 4.6024000 2
19507 19508 19517 19515 1 180.0000771 15.1670000 2
19507 19508 19517 19518 1 180.0000771 15.1670000 2
19509 19508 19517 19515 1 180.0000771 15.1670000 2
19509 19508 19517 19518 1 180.0000771 15.1670000 2
19510 19509 19508 19517 1 180.0000771 15.1670000 2
19511 19509 19508 19517 1 180.0000771 15.1670000 2
19508 19509 19511 19512 1 180.0000771 15.1670000 2
19508 19509 19511 19513 1 180.0000771 15.1670000 2
19510 19509 19511 19512 1 180.0000771 15.1670000 2
19510 19509 19511 19513 1 180.0000771 15.1670000 2
19509 19511 19513 19514 1 180.0000771 15.1670000 2
19509 19511 19513 19515 1 180.0000771 15.1670000 2
19512 19511 19513 19514 1 180.0000771 15.1670000 2
19512 19511 19513 19515 1 180.0000771 15.1670000 2
19509 19513 19511 19512 4 180.0000771 4.6024000 2
19511 19513 19515 19516 1 180.0000771 15.1670000 2
19511 19513 19515 19517 1 180.0000771 15.1670000 2
19514 19513 19515 19516 1 180.0000771 15.1670000 2
19514 19513 19515 19517 1 180.0000771 15.1670000 2
19511 19515 19513 19514 4 180.0000771 4.6024000 2
19508 19515 19517 19518 4 180.0000771 4.6024000 2
19513 19515 19517 19518 1 180.0000771 15.1670000 2
19516 19515 19517 19518 1 180.0000771 15.1670000 2
19508 19517 19515 19513 1 180.0000771 15.1670000 2
19508 19517 19515 19516 1 180.0000771 15.1670000 2
19513 19517 19515 19516 4 180.0000771 4.6024000 2
19519 19520 19521 19522 1 180.0000771 15.1670000 2
19519 19520 19521 19523 1 180.0000771 15.1670000 2
19522 19520 19521 19523 4 180.0000771 4.6024000 2
19519 19520 19529 19521 4 180.0000771 4.6024000 2
19519 19520 19529 19527 1 180.0000771 15.1670000 2
19519 19520 19529 19530 1 180.0000771 15.1670000 2
19521 19520 19529 19527 1 180.0000771 15.1670000 2
19521 19520 19529 19530 1 180.0000771 15.1670000 2
19522 19521 19520 19529 1 180.0000771 15.1670000 2
19523 19521 19520 19529 1 180.0000771 15.1670000 2
19520 19521 19523 19524 1 180.0000771 15.1670000 2
19520 19521 19523 19525 1 180.0000771 15.1670000 2
19522 19521 19523 19524 1 180.0000771 15.1670000 2
19522 19521 19523 19525 1 180.0000771 15.1670000 2
19521 19523 19525 19526 1 180.0000771 15.1670000 2
19521 19523 19525 19527 1 180.0000771 15.1670000 2
19524 19523 19525 19526 1 180.0000771 15.1670000 2
19524 19523 19525 19527 1 180.0000771 15.1670000 2
19521 19525 19523 19524 4 180.0000771 4.6024000 2
19523 19525 19527 19528 1 180.0000771 15.1670000 2
19523 19525 19527 19529 1 180.0000771 15.1670000 2
19526 19525 19527 19528 1 180.0000771 15.1670000 2
19526 19525 19527 19529 1 180.0000771 15.1670000 2
19523 19527 19525 19526 4 180.0000771 4.6024000 2
19520 19527 19529 19530 4 180.0000771 4.6024000 2
19525 19527 19529 19530 1 180.0000771 15.1670000 2
19528 19527 19529 19530 1 180.0000771 15.1670000 2
19520 19529 19527 19525 1 180.0000771 15.1670000 2
19520 19529 19527 19528 1 180.0000771 15.1670000 2
19525 19529 19527 19528 4 180.0000771 4.6024000 2
19531 19532 19533 19534 1 180.0000771 15.1670000 2
19531 19532 19533 19535 1 180.0000771 15.1670000 2
19534 19532 19533 19535 4 180.0000771 4.6024000 2
19531 19532 19541 19533 4 180.0000771 4.6024000 2
19531 19532 19541 19539 1 180.0000771 15.1670000 2
19531 19532 19541 19542 1 180.0000771 15.1670000 2
19533 19532 19541 19539 1 180.0000771 15.1670000 2
19533 19532 19541 19542 1 180.0000771 15.1670000 2
19534 19533 19532 19541 1 180.0000771 15.1670000 2
19535 19533 19532 19541 1 180.0000771 15.1670000 2
19532 19533 19535 19536 1 180.0000771 15.1670000 2
19532 19533 19535 19537 1 180.0000771 15.1670000 2
19534 19533 19535 19536 1 180.0000771 15.1670000 2
19534 19533 19535 19537 1 180.0000771 15.1670000 2
19533 19535 19537 19538 1 180.0000771 15.1670000 2
19533 19535 19537 19539 1 180.0000771 15.1670000 2
19536 19535 19537 19538 1 180.0000771 15.1670000 2
19536 19535 19537 19539 1 180.0000771 15.1670000 2
19533 19537 19535 19536 4 180.0000771 4.6024000 2
19535 19537 19539 19540 1 180.0000771 15.1670000 2
19535 19537 19539 19541 1 180.0000771 15.1670000 2
19538 19537 19539 19540 1 180.0000771 15.1670000 2
19538 19537 19539 19541 1 180.0000771 15.1670000 2
19535 19539 19537 19538 4 180.0000771 4.6024000 2
19532 19539 19541 19542 4 180.0000771 4.6024000 2
19537 19539 19541 19542 1 180.0000771 15.1670000 2
19540 19539 19541 19542 1 180.0000771 15.1670000 2
19532 19541 19539 19537 1 180.0000771 15.1670000 2
19532 19541 19539 19540 1 180.0000771 15.1670000 2
19537 19541 19539 19540 4 180.0000771 4.6024000 2
19543 19544 19545 19546 1 180.0000771 15.1670000 2
19543 19544 19545 19547 1 180.0000771 15.1670000 2
19546 19544 19545 19547 4 180.0000771 4.6024000 2
19543 19544 19553 19545 4 180.0000771 4.6024000 2
19543 19544 19553 19551 1 180.0000771 15.1670000 2
19543 19544 19553 19554 1 180.0000771 15.1670000 2
19545 19544 19553 19551 1 180.0000771 15.1670000 2
19545 19544 19553 19554 1 180.0000771 15.1670000 2
19546 19545 19544 19553 1 180.0000771 15.1670000 2
19547 19545 19544 19553 1 180.0000771 15.1670000 2
19544 19545 19547 19548 1 180.0000771 15.1670000 2
19544 19545 19547 19549 1 180.0000771 15.1670000 2
19546 19545 19547 19548 1 180.0000771 15.1670000 2
19546 19545 19547 19549 1 180.0000771 15.1670000 2
19545 19547 19549 19550 1 180.0000771 15.1670000 2
19545 19547 19549 19551 1 180.0000771 15.1670000 2
19548 19547 19549 19550 1 180.0000771 15.1670000 2
19548 19547 19549 19551 1 180.0000771 15.1670000 2
19545 19549 19547 19548 4 180.0000771 4.6024000 2
19547 19549 19551 19552 1 180.0000771 15.1670000 2
19547 19549 19551 19553 1 180.0000771 15.1670000 2
19550 19549 19551 19552 1 180.0000771 15.1670000 2
19550 19549 19551 19553 1 180.0000771 15.1670000 2
19547 19551 19549 19550 4 180.0000771 4.6024000 2
19544 19551 19553 19554 4 180.0000771 4.6024000 2
19549 19551 19553 19554 1 180.0000771 15.1670000 2
19552 19551 19553 19554 1 180.0000771 15.1670000 2
19544 19553 19551 19549 1 180.0000771 15.1670000 2
19544 19553 19551 19552 1 180.0000771 15.1670000 2
19549 19553 19551 19552 4 180.0000771 4.6024000 2
19555 19556 19557 19558 1 180.0000771 15.1670000 2
19555 19556 19557 19559 1 180.0000771 15.1670000 2
19558 19556 19557 19559 4 180.0000771 4.6024000 2
19555 19556 19565 19557 4 180.0000771 4.6024000 2
19555 19556 19565 19563 1 180.0000771 15.1670000 2
19555 19556 19565 19566 1 180.0000771 15.1670000 2
19557 19556 19565 19563 1 180.0000771 15.1670000 2
19557 19556 19565 19566 1 180.0000771 15.1670000 2
19558 19557 19556 19565 1 180.0000771 15.1670000 2
19559 19557 19556 19565 1 180.0000771 15.1670000 2
19556 19557 19559 19560 1 180.0000771 15.1670000 2
19556 19557 19559 19561 1 180.0000771 15.1670000 2
19558 19557 19559 19560 1 180.0000771 15.1670000 2
19558 19557 19559 19561 1 180.0000771 15.1670000 2
19557 19559 19561 19562 1 180.0000771 15.1670000 2
19557 19559 19561 19563 1 180.0000771 15.1670000 2
19560 19559 19561 19562 1 180.0000771 15.1670000 2
19560 19559 19561 19563 1 180.0000771 15.1670000 2
19557 19561 19559 19560 4 180.0000771 4.6024000 2
19559 19561 19563 19564 1 180.0000771 15.1670000 2
19559 19561 19563 19565 1 180.0000771 15.1670000 2
19562 19561 19563 19564 1 180.0000771 15.1670000 2
19562 19561 19563 19565 1 180.0000771 15.1670000 2
19559 19563 19561 19562 4 180.0000771 4.6024000 2
19556 19563 19565 19566 4 180.0000771 4.6024000 2
19561 19563 19565 19566 1 180.0000771 15.1670000 2
19564 19563 19565 19566 1 180.0000771 15.1670000 2
19556 19565 19563 19561 1 180.0000771 15.1670000 2
19556 19565 19563 19564 1 180.0000771 15.1670000 2
19561 19565 19563 19564 4 180.0000771 4.6024000 2
19567 19568 19569 19570 1 180.0000771 15.1670000 2
19567 19568 19569 19571 1 180.0000771 15.1670000 2
19570 19568 19569 19571 4 180.0000771 4.6024000 2
19567 19568 19577 19569 4 180.0000771 4.6024000 2
19567 19568 19577 19575 1 180.0000771 15.1670000 2
19567 19568 19577 19578 1 180.0000771 15.1670000 2
19569 19568 19577 19575 1 180.0000771 15.1670000 2
19569 19568 19577 19578 1 180.0000771 15.1670000 2
19570 19569 19568 19577 1 180.0000771 15.1670000 2
19571 19569 19568 19577 1 180.0000771 15.1670000 2
19568 19569 19571 19572 1 180.0000771 15.1670000 2
19568 19569 19571 19573 1 180.0000771 15.1670000 2
19570 19569 19571 19572 1 180.0000771 15.1670000 2
19570 19569 19571 19573 1 180.0000771 15.1670000 2
19569 19571 19573 19574 1 180.0000771 15.1670000 2
19569 19571 19573 19575 1 180.0000771 15.1670000 2
19572 19571 19573 19574 1 180.0000771 15.1670000 2
19572 19571 19573 19575 1 180.0000771 15.1670000 2
19569 19573 19571 19572 4 180.0000771 4.6024000 2
19571 19573 19575 19576 1 180.0000771 15.1670000 2
19571 19573 19575 19577 1 180.0000771 15.1670000 2
19574 19573 19575 19576 1 180.0000771 15.1670000 2
19574 19573 19575 19577 1 180.0000771 15.1670000 2
19571 19575 19573 19574 4 180.0000771 4.6024000 2
19568 19575 19577 19578 4 180.0000771 4.6024000 2
19573 19575 19577 19578 1 180.0000771 15.1670000 2
19576 19575 19577 19578 1 180.0000771 15.1670000 2
19568 19577 19575 19573 1 180.0000771 15.1670000 2
19568 19577 19575 19576 1 180.0000771 15.1670000 2
19573 19577 19575 19576 4 180.0000771 4.6024000 2
19579 19580 19581 19582 1 180.0000771 15.1670000 2
19579 19580 19581 19583 1 180.0000771 15.1670000 2
19582 19580 19581 19583 4 180.0000771 4.6024000 2
19579 19580 19589 19581 4 180.0000771 4.6024000 2
19579 19580 19589 19587 1 180.0000771 15.1670000 2
19579 19580 19589 19590 1 180.0000771 15.1670000 2
19581 19580 19589 19587 1 180.0000771 15.1670000 2
19581 19580 19589 19590 1 180.0000771 15.1670000 2
19582 19581 19580 19589 1 180.0000771 15.1670000 2
19583 19581 19580 19589 1 180.0000771 15.1670000 2
19580 19581 19583 19584 1 180.0000771 15.1670000 2
19580 19581 19583 19585 1 180.0000771 15.1670000 2
19582 19581 19583 19584 1 180.0000771 15.1670000 2
19582 19581 19583 19585 1 180.0000771 15.1670000 2
19581 19583 19585 19586 1 180.0000771 15.1670000 2
19581 19583 19585 19587 1 180.0000771 15.1670000 2
19584 19583 19585 19586 1 180.0000771 15.1670000 2
19584 19583 19585 19587 1 180.0000771 15.1670000 2
19581 19585 19583 19584 4 180.0000771 4.6024000 2
19583 19585 19587 19588 1 180.0000771 15.1670000 2
19583 19585 19587 19589 1 180.0000771 15.1670000 2
19586 19585 19587 19588 1 180.0000771 15.1670000 2
19586 19585 19587 19589 1 180.0000771 15.1670000 2
19583 19587 19585 19586 4 180.0000771 4.6024000 2
19580 19587 19589 19590 4 180.0000771 4.6024000 2
19585 19587 19589 19590 1 180.0000771 15.1670000 2
19588 19587 19589 19590 1 180.0000771 15.1670000 2
19580 19589 19587 19585 1 180.0000771 15.1670000 2
19580 19589 19587 19588 1 180.0000771 15.1670000 2
19585 19589 19587 19588 4 180.0000771 4.6024000 2
19591 19592 19593 19594 1 180.0000771 15.1670000 2
19591 19592 19593 19595 1 180.0000771 15.1670000 2
19594 19592 19593 19595 4 180.0000771 4.6024000 2
19591 19592 19601 19593 4 180.0000771 4.6024000 2
19591 19592 19601 19599 1 180.0000771 15.1670000 2
19591 19592 19601 19602 1 180.0000771 15.1670000 2
19593 19592 19601 19599 1 180.0000771 15.1670000 2
19593 19592 19601 19602 1 180.0000771 15.1670000 2
19594 19593 19592 19601 1 180.0000771 15.1670000 2
19595 19593 19592 19601 1 180.0000771 15.1670000 2
19592 19593 19595 19596 1 180.0000771 15.1670000 2
19592 19593 19595 19597 1 180.0000771 15.1670000 2
19594 19593 19595 19596 1 180.0000771 15.1670000 2
19594 19593 19595 19597 1 180.0000771 15.1670000 2
19593 19595 19597 19598 1 180.0000771 15.1670000 2
19593 19595 19597 19599 1 180.0000771 15.1670000 2
19596 19595 19597 19598 1 180.0000771 15.1670000 2
19596 19595 19597 19599 1 180.0000771 15.1670000 2
19593 19597 19595 19596 4 180.0000771 4.6024000 2
19595 19597 19599 19600 1 180.0000771 15.1670000 2
19595 19597 19599 19601 1 180.0000771 15.1670000 2
19598 19597 19599 19600 1 180.0000771 15.1670000 2
19598 19597 19599 19601 1 180.0000771 15.1670000 2
19595 19599 19597 19598 4 180.0000771 4.6024000 2
19592 19599 19601 19602 4 180.0000771 4.6024000 2
19597 19599 19601 19602 1 180.0000771 15.1670000 2
19600 19599 19601 19602 1 180.0000771 15.1670000 2
19592 19601 19599 19597 1 180.0000771 15.1670000 2
19592 19601 19599 19600 1 180.0000771 15.1670000 2
19597 19601 19599 19600 4 180.0000771 4.6024000 2
19603 19604 19605 19606 1 180.0000771 15.1670000 2
19603 19604 19605 19607 1 180.0000771 15.1670000 2
19606 19604 19605 19607 4 180.0000771 4.6024000 2
19603 19604 19613 19605 4 180.0000771 4.6024000 2
19603 19604 19613 19611 1 180.0000771 15.1670000 2
19603 19604 19613 19614 1 180.0000771 15.1670000 2
19605 19604 19613 19611 1 180.0000771 15.1670000 2
19605 19604 19613 19614 1 180.0000771 15.1670000 2
19606 19605 19604 19613 1 180.0000771 15.1670000 2
19607 19605 19604 19613 1 180.0000771 15.1670000 2
19604 19605 19607 19608 1 180.0000771 15.1670000 2
19604 19605 19607 19609 1 180.0000771 15.1670000 2
19606 19605 19607 19608 1 180.0000771 15.1670000 2
19606 19605 19607 19609 1 180.0000771 15.1670000 2
19605 19607 19609 19610 1 180.0000771 15.1670000 2
19605 19607 19609 19611 1 180.0000771 15.1670000 2
19608 19607 19609 19610 1 180.0000771 15.1670000 2
19608 19607 19609 19611 1 180.0000771 15.1670000 2
19605 19609 19607 19608 4 180.0000771 4.6024000 2
19607 19609 19611 19612 1 180.0000771 15.1670000 2
19607 19609 19611 19613 1 180.0000771 15.1670000 2
19610 19609 19611 19612 1 180.0000771 15.1670000 2
19610 19609 19611 19613 1 180.0000771 15.1670000 2
19607 19611 19609 19610 4 180.0000771 4.6024000 2
19604 19611 19613 19614 4 180.0000771 4.6024000 2
19609 19611 19613 19614 1 180.0000771 15.1670000 2
19612 19611 19613 19614 1 180.0000771 15.1670000 2
19604 19613 19611 19609 1 180.0000771 15.1670000 2
19604 19613 19611 19612 1 180.0000771 15.1670000 2
19609 19613 19611 19612 4 180.0000771 4.6024000 2
19615 19616 19617 19618 1 180.0000771 15.1670000 2
19615 19616 19617 19619 1 180.0000771 15.1670000 2
19618 19616 19617 19619 4 180.0000771 4.6024000 2
19615 19616 19625 19617 4 180.0000771 4.6024000 2
19615 19616 19625 19623 1 180.0000771 15.1670000 2
19615 19616 19625 19626 1 180.0000771 15.1670000 2
19617 19616 19625 19623 1 180.0000771 15.1670000 2
19617 19616 19625 19626 1 180.0000771 15.1670000 2
19618 19617 19616 19625 1 180.0000771 15.1670000 2
19619 19617 19616 19625 1 180.0000771 15.1670000 2
19616 19617 19619 19620 1 180.0000771 15.1670000 2
19616 19617 19619 19621 1 180.0000771 15.1670000 2
19618 19617 19619 19620 1 180.0000771 15.1670000 2
19618 19617 19619 19621 1 180.0000771 15.1670000 2
19617 19619 19621 19622 1 180.0000771 15.1670000 2
19617 19619 19621 19623 1 180.0000771 15.1670000 2
19620 19619 19621 19622 1 180.0000771 15.1670000 2
19620 19619 19621 19623 1 180.0000771 15.1670000 2
19617 19621 19619 19620 4 180.0000771 4.6024000 2
19619 19621 19623 19624 1 180.0000771 15.1670000 2
19619 19621 19623 19625 1 180.0000771 15.1670000 2
19622 19621 19623 19624 1 180.0000771 15.1670000 2
19622 19621 19623 19625 1 180.0000771 15.1670000 2
19619 19623 19621 19622 4 180.0000771 4.6024000 2
19616 19623 19625 19626 4 180.0000771 4.6024000 2
19621 19623 19625 19626 1 180.0000771 15.1670000 2
19624 19623 19625 19626 1 180.0000771 15.1670000 2
19616 19625 19623 19621 1 180.0000771 15.1670000 2
19616 19625 19623 19624 1 180.0000771 15.1670000 2
19621 19625 19623 19624 4 180.0000771 4.6024000 2
19627 19628 19629 19630 1 180.0000771 15.1670000 2
19627 19628 19629 19631 1 180.0000771 15.1670000 2
19630 19628 19629 19631 4 180.0000771 4.6024000 2
19627 19628 19637 19629 4 180.0000771 4.6024000 2
19627 19628 19637 19635 1 180.0000771 15.1670000 2
19627 19628 19637 19638 1 180.0000771 15.1670000 2
19629 19628 19637 19635 1 180.0000771 15.1670000 2
19629 19628 19637 19638 1 180.0000771 15.1670000 2
19630 19629 19628 19637 1 180.0000771 15.1670000 2
19631 19629 19628 19637 1 180.0000771 15.1670000 2
19628 19629 19631 19632 1 180.0000771 15.1670000 2
19628 19629 19631 19633 1 180.0000771 15.1670000 2
19630 19629 19631 19632 1 180.0000771 15.1670000 2
19630 19629 19631 19633 1 180.0000771 15.1670000 2
19629 19631 19633 19634 1 180.0000771 15.1670000 2
19629 19631 19633 19635 1 180.0000771 15.1670000 2
19632 19631 19633 19634 1 180.0000771 15.1670000 2
19632 19631 19633 19635 1 180.0000771 15.1670000 2
19629 19633 19631 19632 4 180.0000771 4.6024000 2
19631 19633 19635 19636 1 180.0000771 15.1670000 2
19631 19633 19635 19637 1 180.0000771 15.1670000 2
19634 19633 19635 19636 1 180.0000771 15.1670000 2
19634 19633 19635 19637 1 180.0000771 15.1670000 2
19631 19635 19633 19634 4 180.0000771 4.6024000 2
19628 19635 19637 19638 4 180.0000771 4.6024000 2
19633 19635 19637 19638 1 180.0000771 15.1670000 2
19636 19635 19637 19638 1 180.0000771 15.1670000 2
19628 19637 19635 19633 1 180.0000771 15.1670000 2
19628 19637 19635 19636 1 180.0000771 15.1670000 2
19633 19637 19635 19636 4 180.0000771 4.6024000 2
19639 19640 19641 19642 1 180.0000771 15.1670000 2
19639 19640 19641 19643 1 180.0000771 15.1670000 2
19642 19640 19641 19643 4 180.0000771 4.6024000 2
19639 19640 19649 19641 4 180.0000771 4.6024000 2
19639 19640 19649 19647 1 180.0000771 15.1670000 2
19639 19640 19649 19650 1 180.0000771 15.1670000 2
19641 19640 19649 19647 1 180.0000771 15.1670000 2
19641 19640 19649 19650 1 180.0000771 15.1670000 2
19642 19641 19640 19649 1 180.0000771 15.1670000 2
19643 19641 19640 19649 1 180.0000771 15.1670000 2
19640 19641 19643 19644 1 180.0000771 15.1670000 2
19640 19641 19643 19645 1 180.0000771 15.1670000 2
19642 19641 19643 19644 1 180.0000771 15.1670000 2
19642 19641 19643 19645 1 180.0000771 15.1670000 2
19641 19643 19645 19646 1 180.0000771 15.1670000 2
19641 19643 19645 19647 1 180.0000771 15.1670000 2
19644 19643 19645 19646 1 180.0000771 15.1670000 2
19644 19643 19645 19647 1 180.0000771 15.1670000 2
19641 19645 19643 19644 4 180.0000771 4.6024000 2
19643 19645 19647 19648 1 180.0000771 15.1670000 2
19643 19645 19647 19649 1 180.0000771 15.1670000 2
19646 19645 19647 19648 1 180.0000771 15.1670000 2
19646 19645 19647 19649 1 180.0000771 15.1670000 2
19643 19647 19645 19646 4 180.0000771 4.6024000 2
19640 19647 19649 19650 4 180.0000771 4.6024000 2
19645 19647 19649 19650 1 180.0000771 15.1670000 2
19648 19647 19649 19650 1 180.0000771 15.1670000 2
19640 19649 19647 19645 1 180.0000771 15.1670000 2
19640 19649 19647 19648 1 180.0000771 15.1670000 2
19645 19649 19647 19648 4 180.0000771 4.6024000 2
19651 19652 19653 19654 1 180.0000771 15.1670000 2
19651 19652 19653 19655 1 180.0000771 15.1670000 2
19654 19652 19653 19655 4 180.0000771 4.6024000 2
19651 19652 19661 19653 4 180.0000771 4.6024000 2
19651 19652 19661 19659 1 180.0000771 15.1670000 2
19651 19652 19661 19662 1 180.0000771 15.1670000 2
19653 19652 19661 19659 1 180.0000771 15.1670000 2
19653 19652 19661 19662 1 180.0000771 15.1670000 2
19654 19653 19652 19661 1 180.0000771 15.1670000 2
19655 19653 19652 19661 1 180.0000771 15.1670000 2
19652 19653 19655 19656 1 180.0000771 15.1670000 2
19652 19653 19655 19657 1 180.0000771 15.1670000 2
19654 19653 19655 19656 1 180.0000771 15.1670000 2
19654 19653 19655 19657 1 180.0000771 15.1670000 2
19653 19655 19657 19658 1 180.0000771 15.1670000 2
19653 19655 19657 19659 1 180.0000771 15.1670000 2
19656 19655 19657 19658 1 180.0000771 15.1670000 2
19656 19655 19657 19659 1 180.0000771 15.1670000 2
19653 19657 19655 19656 4 180.0000771 4.6024000 2
19655 19657 19659 19660 1 180.0000771 15.1670000 2
19655 19657 19659 19661 1 180.0000771 15.1670000 2
19658 19657 19659 19660 1 180.0000771 15.1670000 2
19658 19657 19659 19661 1 180.0000771 15.1670000 2
19655 19659 19657 19658 4 180.0000771 4.6024000 2
19652 19659 19661 19662 4 180.0000771 4.6024000 2
19657 19659 19661 19662 1 180.0000771 15.1670000 2
19660 19659 19661 19662 1 180.0000771 15.1670000 2
19652 19661 19659 19657 1 180.0000771 15.1670000 2
19652 19661 19659 19660 1 180.0000771 15.1670000 2
19657 19661 19659 19660 4 180.0000771 4.6024000 2
19663 19664 19665 19666 1 180.0000771 15.1670000 2
19663 19664 19665 19667 1 180.0000771 15.1670000 2
19666 19664 19665 19667 4 180.0000771 4.6024000 2
19663 19664 19673 19665 4 180.0000771 4.6024000 2
19663 19664 19673 19671 1 180.0000771 15.1670000 2
19663 19664 19673 19674 1 180.0000771 15.1670000 2
19665 19664 19673 19671 1 180.0000771 15.1670000 2
19665 19664 19673 19674 1 180.0000771 15.1670000 2
19666 19665 19664 19673 1 180.0000771 15.1670000 2
19667 19665 19664 19673 1 180.0000771 15.1670000 2
19664 19665 19667 19668 1 180.0000771 15.1670000 2
19664 19665 19667 19669 1 180.0000771 15.1670000 2
19666 19665 19667 19668 1 180.0000771 15.1670000 2
19666 19665 19667 19669 1 180.0000771 15.1670000 2
19665 19667 19669 19670 1 180.0000771 15.1670000 2
19665 19667 19669 19671 1 180.0000771 15.1670000 2
19668 19667 19669 19670 1 180.0000771 15.1670000 2
19668 19667 19669 19671 1 180.0000771 15.1670000 2
19665 19669 19667 19668 4 180.0000771 4.6024000 2
19667 19669 19671 19672 1 180.0000771 15.1670000 2
19667 19669 19671 19673 1 180.0000771 15.1670000 2
19670 19669 19671 19672 1 180.0000771 15.1670000 2
19670 19669 19671 19673 1 180.0000771 15.1670000 2
19667 19671 19669 19670 4 180.0000771 4.6024000 2
19664 19671 19673 19674 4 180.0000771 4.6024000 2
19669 19671 19673 19674 1 180.0000771 15.1670000 2
19672 19671 19673 19674 1 180.0000771 15.1670000 2
19664 19673 19671 19669 1 180.0000771 15.1670000 2
19664 19673 19671 19672 1 180.0000771 15.1670000 2
19669 19673 19671 19672 4 180.0000771 4.6024000 2
19675 19676 19677 19678 1 180.0000771 15.1670000 2
19675 19676 19677 19679 1 180.0000771 15.1670000 2
19678 19676 19677 19679 4 180.0000771 4.6024000 2
19675 19676 19685 19677 4 180.0000771 4.6024000 2
19675 19676 19685 19683 1 180.0000771 15.1670000 2
19675 19676 19685 19686 1 180.0000771 15.1670000 2
19677 19676 19685 19683 1 180.0000771 15.1670000 2
19677 19676 19685 19686 1 180.0000771 15.1670000 2
19678 19677 19676 19685 1 180.0000771 15.1670000 2
19679 19677 19676 19685 1 180.0000771 15.1670000 2
19676 19677 19679 19680 1 180.0000771 15.1670000 2
19676 19677 19679 19681 1 180.0000771 15.1670000 2
19678 19677 19679 19680 1 180.0000771 15.1670000 2
19678 19677 19679 19681 1 180.0000771 15.1670000 2
19677 19679 19681 19682 1 180.0000771 15.1670000 2
19677 19679 19681 19683 1 180.0000771 15.1670000 2
19680 19679 19681 19682 1 180.0000771 15.1670000 2
19680 19679 19681 19683 1 180.0000771 15.1670000 2
19677 19681 19679 19680 4 180.0000771 4.6024000 2
19679 19681 19683 19684 1 180.0000771 15.1670000 2
19679 19681 19683 19685 1 180.0000771 15.1670000 2
19682 19681 19683 19684 1 180.0000771 15.1670000 2
19682 19681 19683 19685 1 180.0000771 15.1670000 2
19679 19683 19681 19682 4 180.0000771 4.6024000 2
19676 19683 19685 19686 4 180.0000771 4.6024000 2
19681 19683 19685 19686 1 180.0000771 15.1670000 2
19684 19683 19685 19686 1 180.0000771 15.1670000 2
19676 19685 19683 19681 1 180.0000771 15.1670000 2
19676 19685 19683 19684 1 180.0000771 15.1670000 2
19681 19685 19683 19684 4 180.0000771 4.6024000 2
19687 19688 19689 19690 1 180.0000771 15.1670000 2
19687 19688 19689 19691 1 180.0000771 15.1670000 2
19690 19688 19689 19691 4 180.0000771 4.6024000 2
19687 19688 19697 19689 4 180.0000771 4.6024000 2
19687 19688 19697 19695 1 180.0000771 15.1670000 2
19687 19688 19697 19698 1 180.0000771 15.1670000 2
19689 19688 19697 19695 1 180.0000771 15.1670000 2
19689 19688 19697 19698 1 180.0000771 15.1670000 2
19690 19689 19688 19697 1 180.0000771 15.1670000 2
19691 19689 19688 19697 1 180.0000771 15.1670000 2
19688 19689 19691 19692 1 180.0000771 15.1670000 2
19688 19689 19691 19693 1 180.0000771 15.1670000 2
19690 19689 19691 19692 1 180.0000771 15.1670000 2
19690 19689 19691 19693 1 180.0000771 15.1670000 2
19689 19691 19693 19694 1 180.0000771 15.1670000 2
19689 19691 19693 19695 1 180.0000771 15.1670000 2
19692 19691 19693 19694 1 180.0000771 15.1670000 2
19692 19691 19693 19695 1 180.0000771 15.1670000 2
19689 19693 19691 19692 4 180.0000771 4.6024000 2
19691 19693 19695 19696 1 180.0000771 15.1670000 2
19691 19693 19695 19697 1 180.0000771 15.1670000 2
19694 19693 19695 19696 1 180.0000771 15.1670000 2
19694 19693 19695 19697 1 180.0000771 15.1670000 2
19691 19695 19693 19694 4 180.0000771 4.6024000 2
19688 19695 19697 19698 4 180.0000771 4.6024000 2
19693 19695 19697 19698 1 180.0000771 15.1670000 2
19696 19695 19697 19698 1 180.0000771 15.1670000 2
19688 19697 19695 19693 1 180.0000771 15.1670000 2
19688 19697 19695 19696 1 180.0000771 15.1670000 2
19693 19697 19695 19696 4 180.0000771 4.6024000 2
19699 19700 19701 19702 1 180.0000771 15.1670000 2
19699 19700 19701 19703 1 180.0000771 15.1670000 2
19702 19700 19701 19703 4 180.0000771 4.6024000 2
19699 19700 19709 19701 4 180.0000771 4.6024000 2
19699 19700 19709 19707 1 180.0000771 15.1670000 2
19699 19700 19709 19710 1 180.0000771 15.1670000 2
19701 19700 19709 19707 1 180.0000771 15.1670000 2
19701 19700 19709 19710 1 180.0000771 15.1670000 2
19702 19701 19700 19709 1 180.0000771 15.1670000 2
19703 19701 19700 19709 1 180.0000771 15.1670000 2
19700 19701 19703 19704 1 180.0000771 15.1670000 2
19700 19701 19703 19705 1 180.0000771 15.1670000 2
19702 19701 19703 19704 1 180.0000771 15.1670000 2
19702 19701 19703 19705 1 180.0000771 15.1670000 2
19701 19703 19705 19706 1 180.0000771 15.1670000 2
19701 19703 19705 19707 1 180.0000771 15.1670000 2
19704 19703 19705 19706 1 180.0000771 15.1670000 2
19704 19703 19705 19707 1 180.0000771 15.1670000 2
19701 19705 19703 19704 4 180.0000771 4.6024000 2
19703 19705 19707 19708 1 180.0000771 15.1670000 2
19703 19705 19707 19709 1 180.0000771 15.1670000 2
19706 19705 19707 19708 1 180.0000771 15.1670000 2
19706 19705 19707 19709 1 180.0000771 15.1670000 2
19703 19707 19705 19706 4 180.0000771 4.6024000 2
19700 19707 19709 19710 4 180.0000771 4.6024000 2
19705 19707 19709 19710 1 180.0000771 15.1670000 2
19708 19707 19709 19710 1 180.0000771 15.1670000 2
19700 19709 19707 19705 1 180.0000771 15.1670000 2
19700 19709 19707 19708 1 180.0000771 15.1670000 2
19705 19709 19707 19708 4 180.0000771 4.6024000 2
19711 19712 19713 19714 1 180.0000771 15.1670000 2
19711 19712 19713 19715 1 180.0000771 15.1670000 2
19714 19712 19713 19715 4 180.0000771 4.6024000 2
19711 19712 19721 19713 4 180.0000771 4.6024000 2
19711 19712 19721 19719 1 180.0000771 15.1670000 2
19711 19712 19721 19722 1 180.0000771 15.1670000 2
19713 19712 19721 19719 1 180.0000771 15.1670000 2
19713 19712 19721 19722 1 180.0000771 15.1670000 2
19714 19713 19712 19721 1 180.0000771 15.1670000 2
19715 19713 19712 19721 1 180.0000771 15.1670000 2
19712 19713 19715 19716 1 180.0000771 15.1670000 2
19712 19713 19715 19717 1 180.0000771 15.1670000 2
19714 19713 19715 19716 1 180.0000771 15.1670000 2
19714 19713 19715 19717 1 180.0000771 15.1670000 2
19713 19715 19717 19718 1 180.0000771 15.1670000 2
19713 19715 19717 19719 1 180.0000771 15.1670000 2
19716 19715 19717 19718 1 180.0000771 15.1670000 2
19716 19715 19717 19719 1 180.0000771 15.1670000 2
19713 19717 19715 19716 4 180.0000771 4.6024000 2
19715 19717 19719 19720 1 180.0000771 15.1670000 2
19715 19717 19719 19721 1 180.0000771 15.1670000 2
19718 19717 19719 19720 1 180.0000771 15.1670000 2
19718 19717 19719 19721 1 180.0000771 15.1670000 2
19715 19719 19717 19718 4 180.0000771 4.6024000 2
19712 19719 19721 19722 4 180.0000771 4.6024000 2
19717 19719 19721 19722 1 180.0000771 15.1670000 2
19720 19719 19721 19722 1 180.0000771 15.1670000 2
19712 19721 19719 19717 1 180.0000771 15.1670000 2
19712 19721 19719 19720 1 180.0000771 15.1670000 2
19717 19721 19719 19720 4 180.0000771 4.6024000 2
19723 19724 19725 19726 1 180.0000771 15.1670000 2
19723 19724 19725 19727 1 180.0000771 15.1670000 2
19726 19724 19725 19727 4 180.0000771 4.6024000 2
19723 19724 19733 19725 4 180.0000771 4.6024000 2
19723 19724 19733 19731 1 180.0000771 15.1670000 2
19723 19724 19733 19734 1 180.0000771 15.1670000 2
19725 19724 19733 19731 1 180.0000771 15.1670000 2
19725 19724 19733 19734 1 180.0000771 15.1670000 2
19726 19725 19724 19733 1 180.0000771 15.1670000 2
19727 19725 19724 19733 1 180.0000771 15.1670000 2
19724 19725 19727 19728 1 180.0000771 15.1670000 2
19724 19725 19727 19729 1 180.0000771 15.1670000 2
19726 19725 19727 19728 1 180.0000771 15.1670000 2
19726 19725 19727 19729 1 180.0000771 15.1670000 2
19725 19727 19729 19730 1 180.0000771 15.1670000 2
19725 19727 19729 19731 1 180.0000771 15.1670000 2
19728 19727 19729 19730 1 180.0000771 15.1670000 2
19728 19727 19729 19731 1 180.0000771 15.1670000 2
19725 19729 19727 19728 4 180.0000771 4.6024000 2
19727 19729 19731 19732 1 180.0000771 15.1670000 2
19727 19729 19731 19733 1 180.0000771 15.1670000 2
19730 19729 19731 19732 1 180.0000771 15.1670000 2
19730 19729 19731 19733 1 180.0000771 15.1670000 2
19727 19731 19729 19730 4 180.0000771 4.6024000 2
19724 19731 19733 19734 4 180.0000771 4.6024000 2
19729 19731 19733 19734 1 180.0000771 15.1670000 2
19732 19731 19733 19734 1 180.0000771 15.1670000 2
19724 19733 19731 19729 1 180.0000771 15.1670000 2
19724 19733 19731 19732 1 180.0000771 15.1670000 2
19729 19733 19731 19732 4 180.0000771 4.6024000 2
19735 19736 19737 19738 1 180.0000771 15.1670000 2
19735 19736 19737 19739 1 180.0000771 15.1670000 2
19738 19736 19737 19739 4 180.0000771 4.6024000 2
19735 19736 19745 19737 4 180.0000771 4.6024000 2
19735 19736 19745 19743 1 180.0000771 15.1670000 2
19735 19736 19745 19746 1 180.0000771 15.1670000 2
19737 19736 19745 19743 1 180.0000771 15.1670000 2
19737 19736 19745 19746 1 180.0000771 15.1670000 2
19738 19737 19736 19745 1 180.0000771 15.1670000 2
19739 19737 19736 19745 1 180.0000771 15.1670000 2
19736 19737 19739 19740 1 180.0000771 15.1670000 2
19736 19737 19739 19741 1 180.0000771 15.1670000 2
19738 19737 19739 19740 1 180.0000771 15.1670000 2
19738 19737 19739 19741 1 180.0000771 15.1670000 2
19737 19739 19741 19742 1 180.0000771 15.1670000 2
19737 19739 19741 19743 1 180.0000771 15.1670000 2
19740 19739 19741 19742 1 180.0000771 15.1670000 2
19740 19739 19741 19743 1 180.0000771 15.1670000 2
19737 19741 19739 19740 4 180.0000771 4.6024000 2
19739 19741 19743 19744 1 180.0000771 15.1670000 2
19739 19741 19743 19745 1 180.0000771 15.1670000 2
19742 19741 19743 19744 1 180.0000771 15.1670000 2
19742 19741 19743 19745 1 180.0000771 15.1670000 2
19739 19743 19741 19742 4 180.0000771 4.6024000 2
19736 19743 19745 19746 4 180.0000771 4.6024000 2
19741 19743 19745 19746 1 180.0000771 15.1670000 2
19744 19743 19745 19746 1 180.0000771 15.1670000 2
19736 19745 19743 19741 1 180.0000771 15.1670000 2
19736 19745 19743 19744 1 180.0000771 15.1670000 2
19741 19745 19743 19744 4 180.0000771 4.6024000 2
19747 19748 19749 19750 1 180.0000771 15.1670000 2
19747 19748 19749 19751 1 180.0000771 15.1670000 2
19750 19748 19749 19751 4 180.0000771 4.6024000 2
19747 19748 19757 19749 4 180.0000771 4.6024000 2
19747 19748 19757 19755 1 180.0000771 15.1670000 2
19747 19748 19757 19758 1 180.0000771 15.1670000 2
19749 19748 19757 19755 1 180.0000771 15.1670000 2
19749 19748 19757 19758 1 180.0000771 15.1670000 2
19750 19749 19748 19757 1 180.0000771 15.1670000 2
19751 19749 19748 19757 1 180.0000771 15.1670000 2
19748 19749 19751 19752 1 180.0000771 15.1670000 2
19748 19749 19751 19753 1 180.0000771 15.1670000 2
19750 19749 19751 19752 1 180.0000771 15.1670000 2
19750 19749 19751 19753 1 180.0000771 15.1670000 2
19749 19751 19753 19754 1 180.0000771 15.1670000 2
19749 19751 19753 19755 1 180.0000771 15.1670000 2
19752 19751 19753 19754 1 180.0000771 15.1670000 2
19752 19751 19753 19755 1 180.0000771 15.1670000 2
19749 19753 19751 19752 4 180.0000771 4.6024000 2
19751 19753 19755 19756 1 180.0000771 15.1670000 2
19751 19753 19755 19757 1 180.0000771 15.1670000 2
19754 19753 19755 19756 1 180.0000771 15.1670000 2
19754 19753 19755 19757 1 180.0000771 15.1670000 2
19751 19755 19753 19754 4 180.0000771 4.6024000 2
19748 19755 19757 19758 4 180.0000771 4.6024000 2
19753 19755 19757 19758 1 180.0000771 15.1670000 2
19756 19755 19757 19758 1 180.0000771 15.1670000 2
19748 19757 19755 19753 1 180.0000771 15.1670000 2
19748 19757 19755 19756 1 180.0000771 15.1670000 2
19753 19757 19755 19756 4 180.0000771 4.6024000 2
19759 19760 19761 19762 1 180.0000771 15.1670000 2
19759 19760 19761 19763 1 180.0000771 15.1670000 2
19762 19760 19761 19763 4 180.0000771 4.6024000 2
19759 19760 19769 19761 4 180.0000771 4.6024000 2
19759 19760 19769 19767 1 180.0000771 15.1670000 2
19759 19760 19769 19770 1 180.0000771 15.1670000 2
19761 19760 19769 19767 1 180.0000771 15.1670000 2
19761 19760 19769 19770 1 180.0000771 15.1670000 2
19762 19761 19760 19769 1 180.0000771 15.1670000 2
19763 19761 19760 19769 1 180.0000771 15.1670000 2
19760 19761 19763 19764 1 180.0000771 15.1670000 2
19760 19761 19763 19765 1 180.0000771 15.1670000 2
19762 19761 19763 19764 1 180.0000771 15.1670000 2
19762 19761 19763 19765 1 180.0000771 15.1670000 2
19761 19763 19765 19766 1 180.0000771 15.1670000 2
19761 19763 19765 19767 1 180.0000771 15.1670000 2
19764 19763 19765 19766 1 180.0000771 15.1670000 2
19764 19763 19765 19767 1 180.0000771 15.1670000 2
19761 19765 19763 19764 4 180.0000771 4.6024000 2
19763 19765 19767 19768 1 180.0000771 15.1670000 2
19763 19765 19767 19769 1 180.0000771 15.1670000 2
19766 19765 19767 19768 1 180.0000771 15.1670000 2
19766 19765 19767 19769 1 180.0000771 15.1670000 2
19763 19767 19765 19766 4 180.0000771 4.6024000 2
19760 19767 19769 19770 4 180.0000771 4.6024000 2
19765 19767 19769 19770 1 180.0000771 15.1670000 2
19768 19767 19769 19770 1 180.0000771 15.1670000 2
19760 19769 19767 19765 1 180.0000771 15.1670000 2
19760 19769 19767 19768 1 180.0000771 15.1670000 2
19765 19769 19767 19768 4 180.0000771 4.6024000 2
19771 19772 19773 19774 1 180.0000771 15.1670000 2
19771 19772 19773 19775 1 180.0000771 15.1670000 2
19774 19772 19773 19775 4 180.0000771 4.6024000 2
19771 19772 19781 19773 4 180.0000771 4.6024000 2
19771 19772 19781 19779 1 180.0000771 15.1670000 2
19771 19772 19781 19782 1 180.0000771 15.1670000 2
19773 19772 19781 19779 1 180.0000771 15.1670000 2
19773 19772 19781 19782 1 180.0000771 15.1670000 2
19774 19773 19772 19781 1 180.0000771 15.1670000 2
19775 19773 19772 19781 1 180.0000771 15.1670000 2
19772 19773 19775 19776 1 180.0000771 15.1670000 2
19772 19773 19775 19777 1 180.0000771 15.1670000 2
19774 19773 19775 19776 1 180.0000771 15.1670000 2
19774 19773 19775 19777 1 180.0000771 15.1670000 2
19773 19775 19777 19778 1 180.0000771 15.1670000 2
19773 19775 19777 19779 1 180.0000771 15.1670000 2
19776 19775 19777 19778 1 180.0000771 15.1670000 2
19776 19775 19777 19779 1 180.0000771 15.1670000 2
19773 19777 19775 19776 4 180.0000771 4.6024000 2
19775 19777 19779 19780 1 180.0000771 15.1670000 2
19775 19777 19779 19781 1 180.0000771 15.1670000 2
19778 19777 19779 19780 1 180.0000771 15.1670000 2
19778 19777 19779 19781 1 180.0000771 15.1670000 2
19775 19779 19777 19778 4 180.0000771 4.6024000 2
19772 19779 19781 19782 4 180.0000771 4.6024000 2
19777 19779 19781 19782 1 180.0000771 15.1670000 2
19780 19779 19781 19782 1 180.0000771 15.1670000 2
19772 19781 19779 19777 1 180.0000771 15.1670000 2
19772 19781 19779 19780 1 180.0000771 15.1670000 2
19777 19781 19779 19780 4 180.0000771 4.6024000 2
19783 19784 19785 19786 1 180.0000771 15.1670000 2
19783 19784 19785 19787 1 180.0000771 15.1670000 2
19786 19784 19785 19787 4 180.0000771 4.6024000 2
19783 19784 19793 19785 4 180.0000771 4.6024000 2
19783 19784 19793 19791 1 180.0000771 15.1670000 2
19783 19784 19793 19794 1 180.0000771 15.1670000 2
19785 19784 19793 19791 1 180.0000771 15.1670000 2
19785 19784 19793 19794 1 180.0000771 15.1670000 2
19786 19785 19784 19793 1 180.0000771 15.1670000 2
19787 19785 19784 19793 1 180.0000771 15.1670000 2
19784 19785 19787 19788 1 180.0000771 15.1670000 2
19784 19785 19787 19789 1 180.0000771 15.1670000 2
19786 19785 19787 19788 1 180.0000771 15.1670000 2
19786 19785 19787 19789 1 180.0000771 15.1670000 2
19785 19787 19789 19790 1 180.0000771 15.1670000 2
19785 19787 19789 19791 1 180.0000771 15.1670000 2
19788 19787 19789 19790 1 180.0000771 15.1670000 2
19788 19787 19789 19791 1 180.0000771 15.1670000 2
19785 19789 19787 19788 4 180.0000771 4.6024000 2
19787 19789 19791 19792 1 180.0000771 15.1670000 2
19787 19789 19791 19793 1 180.0000771 15.1670000 2
19790 19789 19791 19792 1 180.0000771 15.1670000 2
19790 19789 19791 19793 1 180.0000771 15.1670000 2
19787 19791 19789 19790 4 180.0000771 4.6024000 2
19784 19791 19793 19794 4 180.0000771 4.6024000 2
19789 19791 19793 19794 1 180.0000771 15.1670000 2
19792 19791 19793 19794 1 180.0000771 15.1670000 2
19784 19793 19791 19789 1 180.0000771 15.1670000 2
19784 19793 19791 19792 1 180.0000771 15.1670000 2
19789 19793 19791 19792 4 180.0000771 4.6024000 2
19795 19796 19797 19798 1 180.0000771 15.1670000 2
19795 19796 19797 19799 1 180.0000771 15.1670000 2
19798 19796 19797 19799 4 180.0000771 4.6024000 2
19795 19796 19805 19797 4 180.0000771 4.6024000 2
19795 19796 19805 19803 1 180.0000771 15.1670000 2
19795 19796 19805 19806 1 180.0000771 15.1670000 2
19797 19796 19805 19803 1 180.0000771 15.1670000 2
19797 19796 19805 19806 1 180.0000771 15.1670000 2
19798 19797 19796 19805 1 180.0000771 15.1670000 2
19799 19797 19796 19805 1 180.0000771 15.1670000 2
19796 19797 19799 19800 1 180.0000771 15.1670000 2
19796 19797 19799 19801 1 180.0000771 15.1670000 2
19798 19797 19799 19800 1 180.0000771 15.1670000 2
19798 19797 19799 19801 1 180.0000771 15.1670000 2
19797 19799 19801 19802 1 180.0000771 15.1670000 2
19797 19799 19801 19803 1 180.0000771 15.1670000 2
19800 19799 19801 19802 1 180.0000771 15.1670000 2
19800 19799 19801 19803 1 180.0000771 15.1670000 2
19797 19801 19799 19800 4 180.0000771 4.6024000 2
19799 19801 19803 19804 1 180.0000771 15.1670000 2
19799 19801 19803 19805 1 180.0000771 15.1670000 2
19802 19801 19803 19804 1 180.0000771 15.1670000 2
19802 19801 19803 19805 1 180.0000771 15.1670000 2
19799 19803 19801 19802 4 180.0000771 4.6024000 2
19796 19803 19805 19806 4 180.0000771 4.6024000 2
19801 19803 19805 19806 1 180.0000771 15.1670000 2
19804 19803 19805 19806 1 180.0000771 15.1670000 2
19796 19805 19803 19801 1 180.0000771 15.1670000 2
19796 19805 19803 19804 1 180.0000771 15.1670000 2
19801 19805 19803 19804 4 180.0000771 4.6024000 2
19807 19808 19809 19810 1 180.0000771 15.1670000 2
19807 19808 19809 19811 1 180.0000771 15.1670000 2
19810 19808 19809 19811 4 180.0000771 4.6024000 2
19807 19808 19817 19809 4 180.0000771 4.6024000 2
19807 19808 19817 19815 1 180.0000771 15.1670000 2
19807 19808 19817 19818 1 180.0000771 15.1670000 2
19809 19808 19817 19815 1 180.0000771 15.1670000 2
19809 19808 19817 19818 1 180.0000771 15.1670000 2
19810 19809 19808 19817 1 180.0000771 15.1670000 2
19811 19809 19808 19817 1 180.0000771 15.1670000 2
19808 19809 19811 19812 1 180.0000771 15.1670000 2
19808 19809 19811 19813 1 180.0000771 15.1670000 2
19810 19809 19811 19812 1 180.0000771 15.1670000 2
19810 19809 19811 19813 1 180.0000771 15.1670000 2
19809 19811 19813 19814 1 180.0000771 15.1670000 2
19809 19811 19813 19815 1 180.0000771 15.1670000 2
19812 19811 19813 19814 1 180.0000771 15.1670000 2
19812 19811 19813 19815 1 180.0000771 15.1670000 2
19809 19813 19811 19812 4 180.0000771 4.6024000 2
19811 19813 19815 19816 1 180.0000771 15.1670000 2
19811 19813 19815 19817 1 180.0000771 15.1670000 2
19814 19813 19815 19816 1 180.0000771 15.1670000 2
19814 19813 19815 19817 1 180.0000771 15.1670000 2
19811 19815 19813 19814 4 180.0000771 4.6024000 2
19808 19815 19817 19818 4 180.0000771 4.6024000 2
19813 19815 19817 19818 1 180.0000771 15.1670000 2
19816 19815 19817 19818 1 180.0000771 15.1670000 2
19808 19817 19815 19813 1 180.0000771 15.1670000 2
19808 19817 19815 19816 1 180.0000771 15.1670000 2
19813 19817 19815 19816 4 180.0000771 4.6024000 2
19819 19820 19821 19822 1 180.0000771 15.1670000 2
19819 19820 19821 19823 1 180.0000771 15.1670000 2
19822 19820 19821 19823 4 180.0000771 4.6024000 2
19819 19820 19829 19821 4 180.0000771 4.6024000 2
19819 19820 19829 19827 1 180.0000771 15.1670000 2
19819 19820 19829 19830 1 180.0000771 15.1670000 2
19821 19820 19829 19827 1 180.0000771 15.1670000 2
19821 19820 19829 19830 1 180.0000771 15.1670000 2
19822 19821 19820 19829 1 180.0000771 15.1670000 2
19823 19821 19820 19829 1 180.0000771 15.1670000 2
19820 19821 19823 19824 1 180.0000771 15.1670000 2
19820 19821 19823 19825 1 180.0000771 15.1670000 2
19822 19821 19823 19824 1 180.0000771 15.1670000 2
19822 19821 19823 19825 1 180.0000771 15.1670000 2
19821 19823 19825 19826 1 180.0000771 15.1670000 2
19821 19823 19825 19827 1 180.0000771 15.1670000 2
19824 19823 19825 19826 1 180.0000771 15.1670000 2
19824 19823 19825 19827 1 180.0000771 15.1670000 2
19821 19825 19823 19824 4 180.0000771 4.6024000 2
19823 19825 19827 19828 1 180.0000771 15.1670000 2
19823 19825 19827 19829 1 180.0000771 15.1670000 2
19826 19825 19827 19828 1 180.0000771 15.1670000 2
19826 19825 19827 19829 1 180.0000771 15.1670000 2
19823 19827 19825 19826 4 180.0000771 4.6024000 2
19820 19827 19829 19830 4 180.0000771 4.6024000 2
19825 19827 19829 19830 1 180.0000771 15.1670000 2
19828 19827 19829 19830 1 180.0000771 15.1670000 2
19820 19829 19827 19825 1 180.0000771 15.1670000 2
19820 19829 19827 19828 1 180.0000771 15.1670000 2
19825 19829 19827 19828 4 180.0000771 4.6024000 2
19831 19832 19833 19834 1 180.0000771 15.1670000 2
19831 19832 19833 19835 1 180.0000771 15.1670000 2
19834 19832 19833 19835 4 180.0000771 4.6024000 2
19831 19832 19841 19833 4 180.0000771 4.6024000 2
19831 19832 19841 19839 1 180.0000771 15.1670000 2
19831 19832 19841 19842 1 180.0000771 15.1670000 2
19833 19832 19841 19839 1 180.0000771 15.1670000 2
19833 19832 19841 19842 1 180.0000771 15.1670000 2
19834 19833 19832 19841 1 180.0000771 15.1670000 2
19835 19833 19832 19841 1 180.0000771 15.1670000 2
19832 19833 19835 19836 1 180.0000771 15.1670000 2
19832 19833 19835 19837 1 180.0000771 15.1670000 2
19834 19833 19835 19836 1 180.0000771 15.1670000 2
19834 19833 19835 19837 1 180.0000771 15.1670000 2
19833 19835 19837 19838 1 180.0000771 15.1670000 2
19833 19835 19837 19839 1 180.0000771 15.1670000 2
19836 19835 19837 19838 1 180.0000771 15.1670000 2
19836 19835 19837 19839 1 180.0000771 15.1670000 2
19833 19837 19835 19836 4 180.0000771 4.6024000 2
19835 19837 19839 19840 1 180.0000771 15.1670000 2
19835 19837 19839 19841 1 180.0000771 15.1670000 2
19838 19837 19839 19840 1 180.0000771 15.1670000 2
19838 19837 19839 19841 1 180.0000771 15.1670000 2
19835 19839 19837 19838 4 180.0000771 4.6024000 2
19832 19839 19841 19842 4 180.0000771 4.6024000 2
19837 19839 19841 19842 1 180.0000771 15.1670000 2
19840 19839 19841 19842 1 180.0000771 15.1670000 2
19832 19841 19839 19837 1 180.0000771 15.1670000 2
19832 19841 19839 19840 1 180.0000771 15.1670000 2
19837 19841 19839 19840 4 180.0000771 4.6024000 2
19843 19844 19845 19846 1 180.0000771 15.1670000 2
19843 19844 19845 19847 1 180.0000771 15.1670000 2
19846 19844 19845 19847 4 180.0000771 4.6024000 2
19843 19844 19853 19845 4 180.0000771 4.6024000 2
19843 19844 19853 19851 1 180.0000771 15.1670000 2
19843 19844 19853 19854 1 180.0000771 15.1670000 2
19845 19844 19853 19851 1 180.0000771 15.1670000 2
19845 19844 19853 19854 1 180.0000771 15.1670000 2
19846 19845 19844 19853 1 180.0000771 15.1670000 2
19847 19845 19844 19853 1 180.0000771 15.1670000 2
19844 19845 19847 19848 1 180.0000771 15.1670000 2
19844 19845 19847 19849 1 180.0000771 15.1670000 2
19846 19845 19847 19848 1 180.0000771 15.1670000 2
19846 19845 19847 19849 1 180.0000771 15.1670000 2
19845 19847 19849 19850 1 180.0000771 15.1670000 2
19845 19847 19849 19851 1 180.0000771 15.1670000 2
19848 19847 19849 19850 1 180.0000771 15.1670000 2
19848 19847 19849 19851 1 180.0000771 15.1670000 2
19845 19849 19847 19848 4 180.0000771 4.6024000 2
19847 19849 19851 19852 1 180.0000771 15.1670000 2
19847 19849 19851 19853 1 180.0000771 15.1670000 2
19850 19849 19851 19852 1 180.0000771 15.1670000 2
19850 19849 19851 19853 1 180.0000771 15.1670000 2
19847 19851 19849 19850 4 180.0000771 4.6024000 2
19844 19851 19853 19854 4 180.0000771 4.6024000 2
19849 19851 19853 19854 1 180.0000771 15.1670000 2
19852 19851 19853 19854 1 180.0000771 15.1670000 2
19844 19853 19851 19849 1 180.0000771 15.1670000 2
19844 19853 19851 19852 1 180.0000771 15.1670000 2
19849 19853 19851 19852 4 180.0000771 4.6024000 2
19855 19856 19857 19858 1 180.0000771 15.1670000 2
19855 19856 19857 19859 1 180.0000771 15.1670000 2
19858 19856 19857 19859 4 180.0000771 4.6024000 2
19855 19856 19865 19857 4 180.0000771 4.6024000 2
19855 19856 19865 19863 1 180.0000771 15.1670000 2
19855 19856 19865 19866 1 180.0000771 15.1670000 2
19857 19856 19865 19863 1 180.0000771 15.1670000 2
19857 19856 19865 19866 1 180.0000771 15.1670000 2
19858 19857 19856 19865 1 180.0000771 15.1670000 2
19859 19857 19856 19865 1 180.0000771 15.1670000 2
19856 19857 19859 19860 1 180.0000771 15.1670000 2
19856 19857 19859 19861 1 180.0000771 15.1670000 2
19858 19857 19859 19860 1 180.0000771 15.1670000 2
19858 19857 19859 19861 1 180.0000771 15.1670000 2
19857 19859 19861 19862 1 180.0000771 15.1670000 2
19857 19859 19861 19863 1 180.0000771 15.1670000 2
19860 19859 19861 19862 1 180.0000771 15.1670000 2
19860 19859 19861 19863 1 180.0000771 15.1670000 2
19857 19861 19859 19860 4 180.0000771 4.6024000 2
19859 19861 19863 19864 1 180.0000771 15.1670000 2
19859 19861 19863 19865 1 180.0000771 15.1670000 2
19862 19861 19863 19864 1 180.0000771 15.1670000 2
19862 19861 19863 19865 1 180.0000771 15.1670000 2
19859 19863 19861 19862 4 180.0000771 4.6024000 2
19856 19863 19865 19866 4 180.0000771 4.6024000 2
19861 19863 19865 19866 1 180.0000771 15.1670000 2
19864 19863 19865 19866 1 180.0000771 15.1670000 2
19856 19865 19863 19861 1 180.0000771 15.1670000 2
19856 19865 19863 19864 1 180.0000771 15.1670000 2
19861 19865 19863 19864 4 180.0000771 4.6024000 2
19867 19868 19869 19870 1 180.0000771 15.1670000 2
19867 19868 19869 19871 1 180.0000771 15.1670000 2
19870 19868 19869 19871 4 180.0000771 4.6024000 2
19867 19868 19877 19869 4 180.0000771 4.6024000 2
19867 19868 19877 19875 1 180.0000771 15.1670000 2
19867 19868 19877 19878 1 180.0000771 15.1670000 2
19869 19868 19877 19875 1 180.0000771 15.1670000 2
19869 19868 19877 19878 1 180.0000771 15.1670000 2
19870 19869 19868 19877 1 180.0000771 15.1670000 2
19871 19869 19868 19877 1 180.0000771 15.1670000 2
19868 19869 19871 19872 1 180.0000771 15.1670000 2
19868 19869 19871 19873 1 180.0000771 15.1670000 2
19870 19869 19871 19872 1 180.0000771 15.1670000 2
19870 19869 19871 19873 1 180.0000771 15.1670000 2
19869 19871 19873 19874 1 180.0000771 15.1670000 2
19869 19871 19873 19875 1 180.0000771 15.1670000 2
19872 19871 19873 19874 1 180.0000771 15.1670000 2
19872 19871 19873 19875 1 180.0000771 15.1670000 2
19869 19873 19871 19872 4 180.0000771 4.6024000 2
19871 19873 19875 19876 1 180.0000771 15.1670000 2
19871 19873 19875 19877 1 180.0000771 15.1670000 2
19874 19873 19875 19876 1 180.0000771 15.1670000 2
19874 19873 19875 19877 1 180.0000771 15.1670000 2
19871 19875 19873 19874 4 180.0000771 4.6024000 2
19868 19875 19877 19878 4 180.0000771 4.6024000 2
19873 19875 19877 19878 1 180.0000771 15.1670000 2
19876 19875 19877 19878 1 180.0000771 15.1670000 2
19868 19877 19875 19873 1 180.0000771 15.1670000 2
19868 19877 19875 19876 1 180.0000771 15.1670000 2
19873 19877 19875 19876 4 180.0000771 4.6024000 2
19879 19880 19881 19882 1 180.0000771 15.1670000 2
19879 19880 19881 19883 1 180.0000771 15.1670000 2
19882 19880 19881 19883 4 180.0000771 4.6024000 2
19879 19880 19889 19881 4 180.0000771 4.6024000 2
19879 19880 19889 19887 1 180.0000771 15.1670000 2
19879 19880 19889 19890 1 180.0000771 15.1670000 2
19881 19880 19889 19887 1 180.0000771 15.1670000 2
19881 19880 19889 19890 1 180.0000771 15.1670000 2
19882 19881 19880 19889 1 180.0000771 15.1670000 2
19883 19881 19880 19889 1 180.0000771 15.1670000 2
19880 19881 19883 19884 1 180.0000771 15.1670000 2
19880 19881 19883 19885 1 180.0000771 15.1670000 2
19882 19881 19883 19884 1 180.0000771 15.1670000 2
19882 19881 19883 19885 1 180.0000771 15.1670000 2
19881 19883 19885 19886 1 180.0000771 15.1670000 2
19881 19883 19885 19887 1 180.0000771 15.1670000 2
19884 19883 19885 19886 1 180.0000771 15.1670000 2
19884 19883 19885 19887 1 180.0000771 15.1670000 2
19881 19885 19883 19884 4 180.0000771 4.6024000 2
19883 19885 19887 19888 1 180.0000771 15.1670000 2
19883 19885 19887 19889 1 180.0000771 15.1670000 2
19886 19885 19887 19888 1 180.0000771 15.1670000 2
19886 19885 19887 19889 1 180.0000771 15.1670000 2
19883 19887 19885 19886 4 180.0000771 4.6024000 2
19880 19887 19889 19890 4 180.0000771 4.6024000 2
19885 19887 19889 19890 1 180.0000771 15.1670000 2
19888 19887 19889 19890 1 180.0000771 15.1670000 2
19880 19889 19887 19885 1 180.0000771 15.1670000 2
19880 19889 19887 19888 1 180.0000771 15.1670000 2
19885 19889 19887 19888 4 180.0000771 4.6024000 2
19891 19892 19893 19894 1 180.0000771 15.1670000 2
19891 19892 19893 19895 1 180.0000771 15.1670000 2
19894 19892 19893 19895 4 180.0000771 4.6024000 2
19891 19892 19901 19893 4 180.0000771 4.6024000 2
19891 19892 19901 19899 1 180.0000771 15.1670000 2
19891 19892 19901 19902 1 180.0000771 15.1670000 2
19893 19892 19901 19899 1 180.0000771 15.1670000 2
19893 19892 19901 19902 1 180.0000771 15.1670000 2
19894 19893 19892 19901 1 180.0000771 15.1670000 2
19895 19893 19892 19901 1 180.0000771 15.1670000 2
19892 19893 19895 19896 1 180.0000771 15.1670000 2
19892 19893 19895 19897 1 180.0000771 15.1670000 2
19894 19893 19895 19896 1 180.0000771 15.1670000 2
19894 19893 19895 19897 1 180.0000771 15.1670000 2
19893 19895 19897 19898 1 180.0000771 15.1670000 2
19893 19895 19897 19899 1 180.0000771 15.1670000 2
19896 19895 19897 19898 1 180.0000771 15.1670000 2
19896 19895 19897 19899 1 180.0000771 15.1670000 2
19893 19897 19895 19896 4 180.0000771 4.6024000 2
19895 19897 19899 19900 1 180.0000771 15.1670000 2
19895 19897 19899 19901 1 180.0000771 15.1670000 2
19898 19897 19899 19900 1 180.0000771 15.1670000 2
19898 19897 19899 19901 1 180.0000771 15.1670000 2
19895 19899 19897 19898 4 180.0000771 4.6024000 2
19892 19899 19901 19902 4 180.0000771 4.6024000 2
19897 19899 19901 19902 1 180.0000771 15.1670000 2
19900 19899 19901 19902 1 180.0000771 15.1670000 2
19892 19901 19899 19897 1 180.0000771 15.1670000 2
19892 19901 19899 19900 1 180.0000771 15.1670000 2
19897 19901 19899 19900 4 180.0000771 4.6024000 2
19903 19904 19905 19906 1 180.0000771 15.1670000 2
19903 19904 19905 19907 1 180.0000771 15.1670000 2
19906 19904 19905 19907 4 180.0000771 4.6024000 2
19903 19904 19913 19905 4 180.0000771 4.6024000 2
19903 19904 19913 19911 1 180.0000771 15.1670000 2
19903 19904 19913 19914 1 180.0000771 15.1670000 2
19905 19904 19913 19911 1 180.0000771 15.1670000 2
19905 19904 19913 19914 1 180.0000771 15.1670000 2
19906 19905 19904 19913 1 180.0000771 15.1670000 2
19907 19905 19904 19913 1 180.0000771 15.1670000 2
19904 19905 19907 19908 1 180.0000771 15.1670000 2
19904 19905 19907 19909 1 180.0000771 15.1670000 2
19906 19905 19907 19908 1 180.0000771 15.1670000 2
19906 19905 19907 19909 1 180.0000771 15.1670000 2
19905 19907 19909 19910 1 180.0000771 15.1670000 2
19905 19907 19909 19911 1 180.0000771 15.1670000 2
19908 19907 19909 19910 1 180.0000771 15.1670000 2
19908 19907 19909 19911 1 180.0000771 15.1670000 2
19905 19909 19907 19908 4 180.0000771 4.6024000 2
19907 19909 19911 19912 1 180.0000771 15.1670000 2
19907 19909 19911 19913 1 180.0000771 15.1670000 2
19910 19909 19911 19912 1 180.0000771 15.1670000 2
19910 19909 19911 19913 1 180.0000771 15.1670000 2
19907 19911 19909 19910 4 180.0000771 4.6024000 2
19904 19911 19913 19914 4 180.0000771 4.6024000 2
19909 19911 19913 19914 1 180.0000771 15.1670000 2
19912 19911 19913 19914 1 180.0000771 15.1670000 2
19904 19913 19911 19909 1 180.0000771 15.1670000 2
19904 19913 19911 19912 1 180.0000771 15.1670000 2
19909 19913 19911 19912 4 180.0000771 4.6024000 2
19915 19916 19917 19918 1 180.0000771 15.1670000 2
19915 19916 19917 19919 1 180.0000771 15.1670000 2
19918 19916 19917 19919 4 180.0000771 4.6024000 2
19915 19916 19925 19917 4 180.0000771 4.6024000 2
19915 19916 19925 19923 1 180.0000771 15.1670000 2
19915 19916 19925 19926 1 180.0000771 15.1670000 2
19917 19916 19925 19923 1 180.0000771 15.1670000 2
19917 19916 19925 19926 1 180.0000771 15.1670000 2
19918 19917 19916 19925 1 180.0000771 15.1670000 2
19919 19917 19916 19925 1 180.0000771 15.1670000 2
19916 19917 19919 19920 1 180.0000771 15.1670000 2
19916 19917 19919 19921 1 180.0000771 15.1670000 2
19918 19917 19919 19920 1 180.0000771 15.1670000 2
19918 19917 19919 19921 1 180.0000771 15.1670000 2
19917 19919 19921 19922 1 180.0000771 15.1670000 2
19917 19919 19921 19923 1 180.0000771 15.1670000 2
19920 19919 19921 19922 1 180.0000771 15.1670000 2
19920 19919 19921 19923 1 180.0000771 15.1670000 2
19917 19921 19919 19920 4 180.0000771 4.6024000 2
19919 19921 19923 19924 1 180.0000771 15.1670000 2
19919 19921 19923 19925 1 180.0000771 15.1670000 2
19922 19921 19923 19924 1 180.0000771 15.1670000 2
19922 19921 19923 19925 1 180.0000771 15.1670000 2
19919 19923 19921 19922 4 180.0000771 4.6024000 2
19916 19923 19925 19926 4 180.0000771 4.6024000 2
19921 19923 19925 19926 1 180.0000771 15.1670000 2
19924 19923 19925 19926 1 180.0000771 15.1670000 2
19916 19925 19923 19921 1 180.0000771 15.1670000 2
19916 19925 19923 19924 1 180.0000771 15.1670000 2
19921 19925 19923 19924 4 180.0000771 4.6024000 2
19927 19928 19929 19930 1 180.0000771 15.1670000 2
19927 19928 19929 19931 1 180.0000771 15.1670000 2
19930 19928 19929 19931 4 180.0000771 4.6024000 2
19927 19928 19937 19929 4 180.0000771 4.6024000 2
19927 19928 19937 19935 1 180.0000771 15.1670000 2
19927 19928 19937 19938 1 180.0000771 15.1670000 2
19929 19928 19937 19935 1 180.0000771 15.1670000 2
19929 19928 19937 19938 1 180.0000771 15.1670000 2
19930 19929 19928 19937 1 180.0000771 15.1670000 2
19931 19929 19928 19937 1 180.0000771 15.1670000 2
19928 19929 19931 19932 1 180.0000771 15.1670000 2
19928 19929 19931 19933 1 180.0000771 15.1670000 2
19930 19929 19931 19932 1 180.0000771 15.1670000 2
19930 19929 19931 19933 1 180.0000771 15.1670000 2
19929 19931 19933 19934 1 180.0000771 15.1670000 2
19929 19931 19933 19935 1 180.0000771 15.1670000 2
19932 19931 19933 19934 1 180.0000771 15.1670000 2
19932 19931 19933 19935 1 180.0000771 15.1670000 2
19929 19933 19931 19932 4 180.0000771 4.6024000 2
19931 19933 19935 19936 1 180.0000771 15.1670000 2
19931 19933 19935 19937 1 180.0000771 15.1670000 2
19934 19933 19935 19936 1 180.0000771 15.1670000 2
19934 19933 19935 19937 1 180.0000771 15.1670000 2
19931 19935 19933 19934 4 180.0000771 4.6024000 2
19928 19935 19937 19938 4 180.0000771 4.6024000 2
19933 19935 19937 19938 1 180.0000771 15.1670000 2
19936 19935 19937 19938 1 180.0000771 15.1670000 2
19928 19937 19935 19933 1 180.0000771 15.1670000 2
19928 19937 19935 19936 1 180.0000771 15.1670000 2
19933 19937 19935 19936 4 180.0000771 4.6024000 2
