[ atomtypes ]
; name at.num mass charge ptype sigma epsilon
SI 14 28.08600 0.000000 A 0.4150 0.3891120
OM 8 15.99940 0.000000 A 0.3470 0.2259360
OA 8 15.99940 0.000000 A 0.3470 0.5104480
HG 1 2.01600 0.000000 A 0.1085 0.0627600
ha 1 1.008000 0.00000000 A 0.26254785 0.0673624
ca 6 12.010000 0.00000000 A 0.33152123 0.4133792
si 14 28.085000 0.00000000 A 0.4150 0.3891120

[ moleculetype ]
; name nrexcl
MSN_7_3 3

[ atoms ]
; nr type resnr resid atom cgnr charge mass
1 OM 1 OM OM1 1 -0.550000 15.99940
2 OM 2 OM OM1 2 -0.550000 15.99940
3 OM 3 OM OM1 3 -0.550000 15.99940
4 OM 4 OM OM1 4 -0.550000 15.99940
5 OM 5 OM OM1 5 -0.550000 15.99940
6 OM 6 OM OM1 6 -0.550000 15.99940
7 OM 7 OM OM1 7 -0.550000 15.99940
8 OM 8 OM OM1 8 -0.550000 15.99940
9 OM 9 OM OM1 9 -0.550000 15.99940
10 OM 10 OM OM1 10 -0.550000 15.99940
11 OM 11 OM OM1 11 -0.550000 15.99940
12 OM 12 OM OM1 12 -0.550000 15.99940
13 OM 13 OM OM1 13 -0.550000 15.99940
14 OM 14 OM OM1 14 -0.550000 15.99940
15 OM 15 OM OM1 15 -0.550000 15.99940
16 OM 16 OM OM1 16 -0.550000 15.99940
17 OM 17 OM OM1 17 -0.550000 15.99940
18 OM 18 OM OM1 18 -0.550000 15.99940
19 OM 19 OM OM1 19 -0.550000 15.99940
20 OM 20 OM OM1 20 -0.550000 15.99940
21 OM 21 OM OM1 21 -0.550000 15.99940
22 OM 22 OM OM1 22 -0.550000 15.99940
23 OM 23 OM OM1 23 -0.550000 15.99940
24 OM 24 OM OM1 24 -0.550000 15.99940
25 OM 25 OM OM1 25 -0.550000 15.99940
26 OM 26 OM OM1 26 -0.550000 15.99940
27 OM 27 OM OM1 27 -0.550000 15.99940
28 OM 28 OM OM1 28 -0.550000 15.99940
29 OM 29 OM OM1 29 -0.550000 15.99940
30 OM 30 OM OM1 30 -0.550000 15.99940
31 OM 31 OM OM1 31 -0.550000 15.99940
32 OM 32 OM OM1 32 -0.550000 15.99940
33 OM 33 OM OM1 33 -0.550000 15.99940
34 OM 34 OM OM1 34 -0.550000 15.99940
35 OM 35 OM OM1 35 -0.550000 15.99940
36 OM 36 OM OM1 36 -0.550000 15.99940
37 OM 37 OM OM1 37 -0.550000 15.99940
38 OM 38 OM OM1 38 -0.550000 15.99940
39 OM 39 OM OM1 39 -0.550000 15.99940
40 OM 40 OM OM1 40 -0.550000 15.99940
41 OM 41 OM OM1 41 -0.550000 15.99940
42 OM 42 OM OM1 42 -0.550000 15.99940
43 OM 43 OM OM1 43 -0.550000 15.99940
44 OM 44 OM OM1 44 -0.550000 15.99940
45 OM 45 OM OM1 45 -0.550000 15.99940
46 OM 46 OM OM1 46 -0.550000 15.99940
47 OM 47 OM OM1 47 -0.550000 15.99940
48 OM 48 OM OM1 48 -0.550000 15.99940
49 OM 49 OM OM1 49 -0.550000 15.99940
50 OM 50 OM OM1 50 -0.550000 15.99940
51 OM 51 OM OM1 51 -0.550000 15.99940
52 OM 52 OM OM1 52 -0.550000 15.99940
53 OM 53 OM OM1 53 -0.550000 15.99940
54 OM 54 OM OM1 54 -0.550000 15.99940
55 OM 55 OM OM1 55 -0.550000 15.99940
56 OM 56 OM OM1 56 -0.550000 15.99940
57 OM 57 OM OM1 57 -0.550000 15.99940
58 OM 58 OM OM1 58 -0.550000 15.99940
59 OM 59 OM OM1 59 -0.550000 15.99940
60 OM 60 OM OM1 60 -0.550000 15.99940
61 OM 61 OM OM1 61 -0.550000 15.99940
62 OM 62 OM OM1 62 -0.550000 15.99940
63 OM 63 OM OM1 63 -0.550000 15.99940
64 OM 64 OM OM1 64 -0.550000 15.99940
65 OM 65 OM OM1 65 -0.550000 15.99940
66 OM 66 OM OM1 66 -0.550000 15.99940
67 OM 67 OM OM1 67 -0.550000 15.99940
68 OM 68 OM OM1 68 -0.550000 15.99940
69 OM 69 OM OM1 69 -0.550000 15.99940
70 OM 70 OM OM1 70 -0.550000 15.99940
71 OM 71 OM OM1 71 -0.550000 15.99940
72 OM 72 OM OM1 72 -0.550000 15.99940
73 OM 73 OM OM1 73 -0.550000 15.99940
74 OM 74 OM OM1 74 -0.550000 15.99940
75 OM 75 OM OM1 75 -0.550000 15.99940
76 OM 76 OM OM1 76 -0.550000 15.99940
77 OM 77 OM OM1 77 -0.550000 15.99940
78 OM 78 OM OM1 78 -0.550000 15.99940
79 OM 79 OM OM1 79 -0.550000 15.99940
80 OM 80 OM OM1 80 -0.550000 15.99940
81 OM 81 OM OM1 81 -0.550000 15.99940
82 OM 82 OM OM1 82 -0.550000 15.99940
83 OM 83 OM OM1 83 -0.550000 15.99940
84 OM 84 OM OM1 84 -0.550000 15.99940
85 OM 85 OM OM1 85 -0.550000 15.99940
86 OM 86 OM OM1 86 -0.550000 15.99940
87 OM 87 OM OM1 87 -0.550000 15.99940
88 OM 88 OM OM1 88 -0.550000 15.99940
89 OM 89 OM OM1 89 -0.550000 15.99940
90 OM 90 OM OM1 90 -0.550000 15.99940
91 OM 91 OM OM1 91 -0.550000 15.99940
92 OM 92 OM OM1 92 -0.550000 15.99940
93 OM 93 OM OM1 93 -0.550000 15.99940
94 OM 94 OM OM1 94 -0.550000 15.99940
95 OM 95 OM OM1 95 -0.550000 15.99940
96 OM 96 OM OM1 96 -0.550000 15.99940
97 OM 97 OM OM1 97 -0.550000 15.99940
98 OM 98 OM OM1 98 -0.550000 15.99940
99 OM 99 OM OM1 99 -0.550000 15.99940
100 OM 100 OM OM1 100 -0.550000 15.99940
101 OM 101 OM OM1 101 -0.550000 15.99940
102 OM 102 OM OM1 102 -0.550000 15.99940
103 OM 103 OM OM1 103 -0.550000 15.99940
104 OM 104 OM OM1 104 -0.550000 15.99940
105 OM 105 OM OM1 105 -0.550000 15.99940
106 OM 106 OM OM1 106 -0.550000 15.99940
107 OM 107 OM OM1 107 -0.550000 15.99940
108 OM 108 OM OM1 108 -0.550000 15.99940
109 OM 109 OM OM1 109 -0.550000 15.99940
110 OM 110 OM OM1 110 -0.550000 15.99940
111 OM 111 OM OM1 111 -0.550000 15.99940
112 OM 112 OM OM1 112 -0.550000 15.99940
113 OM 113 OM OM1 113 -0.550000 15.99940
114 OM 114 OM OM1 114 -0.550000 15.99940
115 OM 115 OM OM1 115 -0.550000 15.99940
116 OM 116 OM OM1 116 -0.550000 15.99940
117 OM 117 OM OM1 117 -0.550000 15.99940
118 OM 118 OM OM1 118 -0.550000 15.99940
119 OM 119 OM OM1 119 -0.550000 15.99940
120 OM 120 OM OM1 120 -0.550000 15.99940
121 OM 121 OM OM1 121 -0.550000 15.99940
122 OM 122 OM OM1 122 -0.550000 15.99940
123 OM 123 OM OM1 123 -0.550000 15.99940
124 OM 124 OM OM1 124 -0.550000 15.99940
125 OM 125 OM OM1 125 -0.550000 15.99940
126 OM 126 OM OM1 126 -0.550000 15.99940
127 OM 127 OM OM1 127 -0.550000 15.99940
128 OM 128 OM OM1 128 -0.550000 15.99940
129 OM 129 OM OM1 129 -0.550000 15.99940
130 OM 130 OM OM1 130 -0.550000 15.99940
131 OM 131 OM OM1 131 -0.550000 15.99940
132 OM 132 OM OM1 132 -0.550000 15.99940
133 OM 133 OM OM1 133 -0.550000 15.99940
134 OM 134 OM OM1 134 -0.550000 15.99940
135 OM 135 OM OM1 135 -0.550000 15.99940
136 OM 136 OM OM1 136 -0.550000 15.99940
137 OM 137 OM OM1 137 -0.550000 15.99940
138 OM 138 OM OM1 138 -0.550000 15.99940
139 OM 139 OM OM1 139 -0.550000 15.99940
140 OM 140 OM OM1 140 -0.550000 15.99940
141 OM 141 OM OM1 141 -0.550000 15.99940
142 OM 142 OM OM1 142 -0.550000 15.99940
143 OM 143 OM OM1 143 -0.550000 15.99940
144 OM 144 OM OM1 144 -0.550000 15.99940
145 OM 145 OM OM1 145 -0.550000 15.99940
146 OM 146 OM OM1 146 -0.550000 15.99940
147 OM 147 OM OM1 147 -0.550000 15.99940
148 OM 148 OM OM1 148 -0.550000 15.99940
149 OM 149 OM OM1 149 -0.550000 15.99940
150 OM 150 OM OM1 150 -0.550000 15.99940
151 OM 151 OM OM1 151 -0.550000 15.99940
152 OM 152 OM OM1 152 -0.550000 15.99940
153 OM 153 OM OM1 153 -0.550000 15.99940
154 OM 154 OM OM1 154 -0.550000 15.99940
155 OM 155 OM OM1 155 -0.550000 15.99940
156 OM 156 OM OM1 156 -0.550000 15.99940
157 OM 157 OM OM1 157 -0.550000 15.99940
158 OM 158 OM OM1 158 -0.550000 15.99940
159 OM 159 OM OM1 159 -0.550000 15.99940
160 OM 160 OM OM1 160 -0.550000 15.99940
161 OM 161 OM OM1 161 -0.550000 15.99940
162 OM 162 OM OM1 162 -0.550000 15.99940
163 OM 163 OM OM1 163 -0.550000 15.99940
164 OM 164 OM OM1 164 -0.550000 15.99940
165 OM 165 OM OM1 165 -0.550000 15.99940
166 OM 166 OM OM1 166 -0.550000 15.99940
167 OM 167 OM OM1 167 -0.550000 15.99940
168 OM 168 OM OM1 168 -0.550000 15.99940
169 OM 169 OM OM1 169 -0.550000 15.99940
170 OM 170 OM OM1 170 -0.550000 15.99940
171 OM 171 OM OM1 171 -0.550000 15.99940
172 OM 172 OM OM1 172 -0.550000 15.99940
173 OM 173 OM OM1 173 -0.550000 15.99940
174 OM 174 OM OM1 174 -0.550000 15.99940
175 OM 175 OM OM1 175 -0.550000 15.99940
176 OM 176 OM OM1 176 -0.550000 15.99940
177 OM 177 OM OM1 177 -0.550000 15.99940
178 OM 178 OM OM1 178 -0.550000 15.99940
179 OM 179 OM OM1 179 -0.550000 15.99940
180 OM 180 OM OM1 180 -0.550000 15.99940
181 OM 181 OM OM1 181 -0.550000 15.99940
182 OM 182 OM OM1 182 -0.550000 15.99940
183 OM 183 OM OM1 183 -0.550000 15.99940
184 OM 184 OM OM1 184 -0.550000 15.99940
185 OM 185 OM OM1 185 -0.550000 15.99940
186 OM 186 OM OM1 186 -0.550000 15.99940
187 OM 187 OM OM1 187 -0.550000 15.99940
188 OM 188 OM OM1 188 -0.550000 15.99940
189 OM 189 OM OM1 189 -0.550000 15.99940
190 OM 190 OM OM1 190 -0.550000 15.99940
191 OM 191 OM OM1 191 -0.550000 15.99940
192 OM 192 OM OM1 192 -0.550000 15.99940
193 OM 193 OM OM1 193 -0.550000 15.99940
194 OM 194 OM OM1 194 -0.550000 15.99940
195 OM 195 OM OM1 195 -0.550000 15.99940
196 OM 196 OM OM1 196 -0.550000 15.99940
197 OM 197 OM OM1 197 -0.550000 15.99940
198 OM 198 OM OM1 198 -0.550000 15.99940
199 OM 199 OM OM1 199 -0.550000 15.99940
200 OM 200 OM OM1 200 -0.550000 15.99940
201 OM 201 OM OM1 201 -0.550000 15.99940
202 OM 202 OM OM1 202 -0.550000 15.99940
203 OM 203 OM OM1 203 -0.550000 15.99940
204 OM 204 OM OM1 204 -0.550000 15.99940
205 OM 205 OM OM1 205 -0.550000 15.99940
206 OM 206 OM OM1 206 -0.550000 15.99940
207 OM 207 OM OM1 207 -0.550000 15.99940
208 OM 208 OM OM1 208 -0.550000 15.99940
209 OM 209 OM OM1 209 -0.550000 15.99940
210 OM 210 OM OM1 210 -0.550000 15.99940
211 OM 211 OM OM1 211 -0.550000 15.99940
212 OM 212 OM OM1 212 -0.550000 15.99940
213 OM 213 OM OM1 213 -0.550000 15.99940
214 OM 214 OM OM1 214 -0.550000 15.99940
215 OM 215 OM OM1 215 -0.550000 15.99940
216 OM 216 OM OM1 216 -0.550000 15.99940
217 OM 217 OM OM1 217 -0.550000 15.99940
218 OM 218 OM OM1 218 -0.550000 15.99940
219 OM 219 OM OM1 219 -0.550000 15.99940
220 OM 220 OM OM1 220 -0.550000 15.99940
221 OM 221 OM OM1 221 -0.550000 15.99940
222 OM 222 OM OM1 222 -0.550000 15.99940
223 OM 223 OM OM1 223 -0.550000 15.99940
224 OM 224 OM OM1 224 -0.550000 15.99940
225 OM 225 OM OM1 225 -0.550000 15.99940
226 OM 226 OM OM1 226 -0.550000 15.99940
227 OM 227 OM OM1 227 -0.550000 15.99940
228 OM 228 OM OM1 228 -0.550000 15.99940
229 OM 229 OM OM1 229 -0.550000 15.99940
230 OM 230 OM OM1 230 -0.550000 15.99940
231 OM 231 OM OM1 231 -0.550000 15.99940
232 OM 232 OM OM1 232 -0.550000 15.99940
233 OM 233 OM OM1 233 -0.550000 15.99940
234 OM 234 OM OM1 234 -0.550000 15.99940
235 OM 235 OM OM1 235 -0.550000 15.99940
236 OM 236 OM OM1 236 -0.550000 15.99940
237 OM 237 OM OM1 237 -0.550000 15.99940
238 OM 238 OM OM1 238 -0.550000 15.99940
239 OM 239 OM OM1 239 -0.550000 15.99940
240 OM 240 OM OM1 240 -0.550000 15.99940
241 OM 241 OM OM1 241 -0.550000 15.99940
242 OM 242 OM OM1 242 -0.550000 15.99940
243 OM 243 OM OM1 243 -0.550000 15.99940
244 OM 244 OM OM1 244 -0.550000 15.99940
245 OM 245 OM OM1 245 -0.550000 15.99940
246 OM 246 OM OM1 246 -0.550000 15.99940
247 OM 247 OM OM1 247 -0.550000 15.99940
248 OM 248 OM OM1 248 -0.550000 15.99940
249 OM 249 OM OM1 249 -0.550000 15.99940
250 OM 250 OM OM1 250 -0.550000 15.99940
251 OM 251 OM OM1 251 -0.550000 15.99940
252 OM 252 OM OM1 252 -0.550000 15.99940
253 OM 253 OM OM1 253 -0.550000 15.99940
254 OM 254 OM OM1 254 -0.550000 15.99940
255 OM 255 OM OM1 255 -0.550000 15.99940
256 OM 256 OM OM1 256 -0.550000 15.99940
257 OM 257 OM OM1 257 -0.550000 15.99940
258 OM 258 OM OM1 258 -0.550000 15.99940
259 OM 259 OM OM1 259 -0.550000 15.99940
260 OM 260 OM OM1 260 -0.550000 15.99940
261 OM 261 OM OM1 261 -0.550000 15.99940
262 OM 262 OM OM1 262 -0.550000 15.99940
263 OM 263 OM OM1 263 -0.550000 15.99940
264 OM 264 OM OM1 264 -0.550000 15.99940
265 OM 265 OM OM1 265 -0.550000 15.99940
266 OM 266 OM OM1 266 -0.550000 15.99940
267 OM 267 OM OM1 267 -0.550000 15.99940
268 OM 268 OM OM1 268 -0.550000 15.99940
269 OM 269 OM OM1 269 -0.550000 15.99940
270 OM 270 OM OM1 270 -0.550000 15.99940
271 OM 271 OM OM1 271 -0.550000 15.99940
272 OM 272 OM OM1 272 -0.550000 15.99940
273 OM 273 OM OM1 273 -0.550000 15.99940
274 OM 274 OM OM1 274 -0.550000 15.99940
275 OM 275 OM OM1 275 -0.550000 15.99940
276 OM 276 OM OM1 276 -0.550000 15.99940
277 OM 277 OM OM1 277 -0.550000 15.99940
278 OM 278 OM OM1 278 -0.550000 15.99940
279 OM 279 OM OM1 279 -0.550000 15.99940
280 OM 280 OM OM1 280 -0.550000 15.99940
281 OM 281 OM OM1 281 -0.550000 15.99940
282 OM 282 OM OM1 282 -0.550000 15.99940
283 OM 283 OM OM1 283 -0.550000 15.99940
284 OM 284 OM OM1 284 -0.550000 15.99940
285 OM 285 OM OM1 285 -0.550000 15.99940
286 OM 286 OM OM1 286 -0.550000 15.99940
287 OM 287 OM OM1 287 -0.550000 15.99940
288 OM 288 OM OM1 288 -0.550000 15.99940
289 OM 289 OM OM1 289 -0.550000 15.99940
290 OM 290 OM OM1 290 -0.550000 15.99940
291 OM 291 OM OM1 291 -0.550000 15.99940
292 OM 292 OM OM1 292 -0.550000 15.99940
293 OM 293 OM OM1 293 -0.550000 15.99940
294 OM 294 OM OM1 294 -0.550000 15.99940
295 OM 295 OM OM1 295 -0.550000 15.99940
296 OM 296 OM OM1 296 -0.550000 15.99940
297 OM 297 OM OM1 297 -0.550000 15.99940
298 OM 298 OM OM1 298 -0.550000 15.99940
299 OM 299 OM OM1 299 -0.550000 15.99940
300 OM 300 OM OM1 300 -0.550000 15.99940
301 OM 301 OM OM1 301 -0.550000 15.99940
302 OM 302 OM OM1 302 -0.550000 15.99940
303 OM 303 OM OM1 303 -0.550000 15.99940
304 OM 304 OM OM1 304 -0.550000 15.99940
305 OM 305 OM OM1 305 -0.550000 15.99940
306 OM 306 OM OM1 306 -0.550000 15.99940
307 OM 307 OM OM1 307 -0.550000 15.99940
308 OM 308 OM OM1 308 -0.550000 15.99940
309 OM 309 OM OM1 309 -0.550000 15.99940
310 OM 310 OM OM1 310 -0.550000 15.99940
311 OM 311 OM OM1 311 -0.550000 15.99940
312 OM 312 OM OM1 312 -0.550000 15.99940
313 OM 313 OM OM1 313 -0.550000 15.99940
314 OM 314 OM OM1 314 -0.550000 15.99940
315 OM 315 OM OM1 315 -0.550000 15.99940
316 OM 316 OM OM1 316 -0.550000 15.99940
317 OM 317 OM OM1 317 -0.550000 15.99940
318 OM 318 OM OM1 318 -0.550000 15.99940
319 OM 319 OM OM1 319 -0.550000 15.99940
320 OM 320 OM OM1 320 -0.550000 15.99940
321 OM 321 OM OM1 321 -0.550000 15.99940
322 OM 322 OM OM1 322 -0.550000 15.99940
323 OM 323 OM OM1 323 -0.550000 15.99940
324 OM 324 OM OM1 324 -0.550000 15.99940
325 OM 325 OM OM1 325 -0.550000 15.99940
326 OM 326 OM OM1 326 -0.550000 15.99940
327 OM 327 OM OM1 327 -0.550000 15.99940
328 OM 328 OM OM1 328 -0.550000 15.99940
329 OM 329 OM OM1 329 -0.550000 15.99940
330 OM 330 OM OM1 330 -0.550000 15.99940
331 OM 331 OM OM1 331 -0.550000 15.99940
332 OM 332 OM OM1 332 -0.550000 15.99940
333 OM 333 OM OM1 333 -0.550000 15.99940
334 OM 334 OM OM1 334 -0.550000 15.99940
335 OM 335 OM OM1 335 -0.550000 15.99940
336 OM 336 OM OM1 336 -0.550000 15.99940
337 OM 337 OM OM1 337 -0.550000 15.99940
338 OM 338 OM OM1 338 -0.550000 15.99940
339 OM 339 OM OM1 339 -0.550000 15.99940
340 OM 340 OM OM1 340 -0.550000 15.99940
341 OM 341 OM OM1 341 -0.550000 15.99940
342 OM 342 OM OM1 342 -0.550000 15.99940
343 OM 343 OM OM1 343 -0.550000 15.99940
344 OM 344 OM OM1 344 -0.550000 15.99940
345 OM 345 OM OM1 345 -0.550000 15.99940
346 OM 346 OM OM1 346 -0.550000 15.99940
347 OM 347 OM OM1 347 -0.550000 15.99940
348 OM 348 OM OM1 348 -0.550000 15.99940
349 OM 349 OM OM1 349 -0.550000 15.99940
350 OM 350 OM OM1 350 -0.550000 15.99940
351 OM 351 OM OM1 351 -0.550000 15.99940
352 OM 352 OM OM1 352 -0.550000 15.99940
353 OM 353 OM OM1 353 -0.550000 15.99940
354 OM 354 OM OM1 354 -0.550000 15.99940
355 OM 355 OM OM1 355 -0.550000 15.99940
356 OM 356 OM OM1 356 -0.550000 15.99940
357 OM 357 OM OM1 357 -0.550000 15.99940
358 OM 358 OM OM1 358 -0.550000 15.99940
359 OM 359 OM OM1 359 -0.550000 15.99940
360 OM 360 OM OM1 360 -0.550000 15.99940
361 OM 361 OM OM1 361 -0.550000 15.99940
362 OM 362 OM OM1 362 -0.550000 15.99940
363 OM 363 OM OM1 363 -0.550000 15.99940
364 OM 364 OM OM1 364 -0.550000 15.99940
365 OM 365 OM OM1 365 -0.550000 15.99940
366 OM 366 OM OM1 366 -0.550000 15.99940
367 OM 367 OM OM1 367 -0.550000 15.99940
368 OM 368 OM OM1 368 -0.550000 15.99940
369 OM 369 OM OM1 369 -0.550000 15.99940
370 OM 370 OM OM1 370 -0.550000 15.99940
371 OM 371 OM OM1 371 -0.550000 15.99940
372 OM 372 OM OM1 372 -0.550000 15.99940
373 OM 373 OM OM1 373 -0.550000 15.99940
374 OM 374 OM OM1 374 -0.550000 15.99940
375 OM 375 OM OM1 375 -0.550000 15.99940
376 OM 376 OM OM1 376 -0.550000 15.99940
377 OM 377 OM OM1 377 -0.550000 15.99940
378 OM 378 OM OM1 378 -0.550000 15.99940
379 OM 379 OM OM1 379 -0.550000 15.99940
380 OM 380 OM OM1 380 -0.550000 15.99940
381 OM 381 OM OM1 381 -0.550000 15.99940
382 OM 382 OM OM1 382 -0.550000 15.99940
383 OM 383 OM OM1 383 -0.550000 15.99940
384 OM 384 OM OM1 384 -0.550000 15.99940
385 OM 385 OM OM1 385 -0.550000 15.99940
386 OM 386 OM OM1 386 -0.550000 15.99940
387 OM 387 OM OM1 387 -0.550000 15.99940
388 OM 388 OM OM1 388 -0.550000 15.99940
389 OM 389 OM OM1 389 -0.550000 15.99940
390 OM 390 OM OM1 390 -0.550000 15.99940
391 OM 391 OM OM1 391 -0.550000 15.99940
392 OM 392 OM OM1 392 -0.550000 15.99940
393 OM 393 OM OM1 393 -0.550000 15.99940
394 OM 394 OM OM1 394 -0.550000 15.99940
395 OM 395 OM OM1 395 -0.550000 15.99940
396 OM 396 OM OM1 396 -0.550000 15.99940
397 OM 397 OM OM1 397 -0.550000 15.99940
398 OM 398 OM OM1 398 -0.550000 15.99940
399 OM 399 OM OM1 399 -0.550000 15.99940
400 OM 400 OM OM1 400 -0.550000 15.99940
401 OM 401 OM OM1 401 -0.550000 15.99940
402 OM 402 OM OM1 402 -0.550000 15.99940
403 OM 403 OM OM1 403 -0.550000 15.99940
404 OM 404 OM OM1 404 -0.550000 15.99940
405 OM 405 OM OM1 405 -0.550000 15.99940
406 OM 406 OM OM1 406 -0.550000 15.99940
407 OM 407 OM OM1 407 -0.550000 15.99940
408 OM 408 OM OM1 408 -0.550000 15.99940
409 OM 409 OM OM1 409 -0.550000 15.99940
410 OM 410 OM OM1 410 -0.550000 15.99940
411 OM 411 OM OM1 411 -0.550000 15.99940
412 OM 412 OM OM1 412 -0.550000 15.99940
413 OM 413 OM OM1 413 -0.550000 15.99940
414 OM 414 OM OM1 414 -0.550000 15.99940
415 OM 415 OM OM1 415 -0.550000 15.99940
416 OM 416 OM OM1 416 -0.550000 15.99940
417 OM 417 OM OM1 417 -0.550000 15.99940
418 OM 418 OM OM1 418 -0.550000 15.99940
419 OM 419 OM OM1 419 -0.550000 15.99940
420 OM 420 OM OM1 420 -0.550000 15.99940
421 OM 421 OM OM1 421 -0.550000 15.99940
422 OM 422 OM OM1 422 -0.550000 15.99940
423 OM 423 OM OM1 423 -0.550000 15.99940
424 OM 424 OM OM1 424 -0.550000 15.99940
425 OM 425 OM OM1 425 -0.550000 15.99940
426 OM 426 OM OM1 426 -0.550000 15.99940
427 OM 427 OM OM1 427 -0.550000 15.99940
428 OM 428 OM OM1 428 -0.550000 15.99940
429 OM 429 OM OM1 429 -0.550000 15.99940
430 OM 430 OM OM1 430 -0.550000 15.99940
431 OM 431 OM OM1 431 -0.550000 15.99940
432 OM 432 OM OM1 432 -0.550000 15.99940
433 OM 433 OM OM1 433 -0.550000 15.99940
434 OM 434 OM OM1 434 -0.550000 15.99940
435 OM 435 OM OM1 435 -0.550000 15.99940
436 OM 436 OM OM1 436 -0.550000 15.99940
437 OM 437 OM OM1 437 -0.550000 15.99940
438 OM 438 OM OM1 438 -0.550000 15.99940
439 OM 439 OM OM1 439 -0.550000 15.99940
440 OM 440 OM OM1 440 -0.550000 15.99940
441 OM 441 OM OM1 441 -0.550000 15.99940
442 OM 442 OM OM1 442 -0.550000 15.99940
443 OM 443 OM OM1 443 -0.550000 15.99940
444 OM 444 OM OM1 444 -0.550000 15.99940
445 OM 445 OM OM1 445 -0.550000 15.99940
446 OM 446 OM OM1 446 -0.550000 15.99940
447 OM 447 OM OM1 447 -0.550000 15.99940
448 OM 448 OM OM1 448 -0.550000 15.99940
449 OM 449 OM OM1 449 -0.550000 15.99940
450 OM 450 OM OM1 450 -0.550000 15.99940
451 OM 451 OM OM1 451 -0.550000 15.99940
452 OM 452 OM OM1 452 -0.550000 15.99940
453 OM 453 OM OM1 453 -0.550000 15.99940
454 OM 454 OM OM1 454 -0.550000 15.99940
455 OM 455 OM OM1 455 -0.550000 15.99940
456 OM 456 OM OM1 456 -0.550000 15.99940
457 OM 457 OM OM1 457 -0.550000 15.99940
458 OM 458 OM OM1 458 -0.550000 15.99940
459 OM 459 OM OM1 459 -0.550000 15.99940
460 OM 460 OM OM1 460 -0.550000 15.99940
461 OM 461 OM OM1 461 -0.550000 15.99940
462 OM 462 OM OM1 462 -0.550000 15.99940
463 OM 463 OM OM1 463 -0.550000 15.99940
464 OM 464 OM OM1 464 -0.550000 15.99940
465 OM 465 OM OM1 465 -0.550000 15.99940
466 OM 466 OM OM1 466 -0.550000 15.99940
467 OM 467 OM OM1 467 -0.550000 15.99940
468 OM 468 OM OM1 468 -0.550000 15.99940
469 OM 469 OM OM1 469 -0.550000 15.99940
470 OM 470 OM OM1 470 -0.550000 15.99940
471 OM 471 OM OM1 471 -0.550000 15.99940
472 OM 472 OM OM1 472 -0.550000 15.99940
473 OM 473 OM OM1 473 -0.550000 15.99940
474 OM 474 OM OM1 474 -0.550000 15.99940
475 OM 475 OM OM1 475 -0.550000 15.99940
476 OM 476 OM OM1 476 -0.550000 15.99940
477 OM 477 OM OM1 477 -0.550000 15.99940
478 OM 478 OM OM1 478 -0.550000 15.99940
479 OM 479 OM OM1 479 -0.550000 15.99940
480 OM 480 OM OM1 480 -0.550000 15.99940
481 OM 481 OM OM1 481 -0.550000 15.99940
482 OM 482 OM OM1 482 -0.550000 15.99940
483 OM 483 OM OM1 483 -0.550000 15.99940
484 OM 484 OM OM1 484 -0.550000 15.99940
485 OM 485 OM OM1 485 -0.550000 15.99940
486 OM 486 OM OM1 486 -0.550000 15.99940
487 OM 487 OM OM1 487 -0.550000 15.99940
488 OM 488 OM OM1 488 -0.550000 15.99940
489 OM 489 OM OM1 489 -0.550000 15.99940
490 OM 490 OM OM1 490 -0.550000 15.99940
491 OM 491 OM OM1 491 -0.550000 15.99940
492 OM 492 OM OM1 492 -0.550000 15.99940
493 OM 493 OM OM1 493 -0.550000 15.99940
494 OM 494 OM OM1 494 -0.550000 15.99940
495 OM 495 OM OM1 495 -0.550000 15.99940
496 OM 496 OM OM1 496 -0.550000 15.99940
497 OM 497 OM OM1 497 -0.550000 15.99940
498 OM 498 OM OM1 498 -0.550000 15.99940
499 OM 499 OM OM1 499 -0.550000 15.99940
500 OM 500 OM OM1 500 -0.550000 15.99940
501 OM 501 OM OM1 501 -0.550000 15.99940
502 OM 502 OM OM1 502 -0.550000 15.99940
503 OM 503 OM OM1 503 -0.550000 15.99940
504 OM 504 OM OM1 504 -0.550000 15.99940
505 OM 505 OM OM1 505 -0.550000 15.99940
506 OM 506 OM OM1 506 -0.550000 15.99940
507 OM 507 OM OM1 507 -0.550000 15.99940
508 OM 508 OM OM1 508 -0.550000 15.99940
509 OM 509 OM OM1 509 -0.550000 15.99940
510 OM 510 OM OM1 510 -0.550000 15.99940
511 OM 511 OM OM1 511 -0.550000 15.99940
512 OM 512 OM OM1 512 -0.550000 15.99940
513 OM 513 OM OM1 513 -0.550000 15.99940
514 OM 514 OM OM1 514 -0.550000 15.99940
515 OM 515 OM OM1 515 -0.550000 15.99940
516 OM 516 OM OM1 516 -0.550000 15.99940
517 OM 517 OM OM1 517 -0.550000 15.99940
518 OM 518 OM OM1 518 -0.550000 15.99940
519 OM 519 OM OM1 519 -0.550000 15.99940
520 OM 520 OM OM1 520 -0.550000 15.99940
521 OM 521 OM OM1 521 -0.550000 15.99940
522 OM 522 OM OM1 522 -0.550000 15.99940
523 OM 523 OM OM1 523 -0.550000 15.99940
524 OM 524 OM OM1 524 -0.550000 15.99940
525 OM 525 OM OM1 525 -0.550000 15.99940
526 OM 526 OM OM1 526 -0.550000 15.99940
527 OM 527 OM OM1 527 -0.550000 15.99940
528 OM 528 OM OM1 528 -0.550000 15.99940
529 OM 529 OM OM1 529 -0.550000 15.99940
530 OM 530 OM OM1 530 -0.550000 15.99940
531 OM 531 OM OM1 531 -0.550000 15.99940
532 OM 532 OM OM1 532 -0.550000 15.99940
533 OM 533 OM OM1 533 -0.550000 15.99940
534 OM 534 OM OM1 534 -0.550000 15.99940
535 OM 535 OM OM1 535 -0.550000 15.99940
536 OM 536 OM OM1 536 -0.550000 15.99940
537 OM 537 OM OM1 537 -0.550000 15.99940
538 OM 538 OM OM1 538 -0.550000 15.99940
539 OM 539 OM OM1 539 -0.550000 15.99940
540 OM 540 OM OM1 540 -0.550000 15.99940
541 OM 541 OM OM1 541 -0.550000 15.99940
542 OM 542 OM OM1 542 -0.550000 15.99940
543 OM 543 OM OM1 543 -0.550000 15.99940
544 OM 544 OM OM1 544 -0.550000 15.99940
545 OM 545 OM OM1 545 -0.550000 15.99940
546 OM 546 OM OM1 546 -0.550000 15.99940
547 OM 547 OM OM1 547 -0.550000 15.99940
548 OM 548 OM OM1 548 -0.550000 15.99940
549 OM 549 OM OM1 549 -0.550000 15.99940
550 OM 550 OM OM1 550 -0.550000 15.99940
551 OM 551 OM OM1 551 -0.550000 15.99940
552 OM 552 OM OM1 552 -0.550000 15.99940
553 OM 553 OM OM1 553 -0.550000 15.99940
554 OM 554 OM OM1 554 -0.550000 15.99940
555 OM 555 OM OM1 555 -0.550000 15.99940
556 OM 556 OM OM1 556 -0.550000 15.99940
557 OM 557 OM OM1 557 -0.550000 15.99940
558 OM 558 OM OM1 558 -0.550000 15.99940
559 OM 559 OM OM1 559 -0.550000 15.99940
560 OM 560 OM OM1 560 -0.550000 15.99940
561 OM 561 OM OM1 561 -0.550000 15.99940
562 OM 562 OM OM1 562 -0.550000 15.99940
563 OM 563 OM OM1 563 -0.550000 15.99940
564 OM 564 OM OM1 564 -0.550000 15.99940
565 OM 565 OM OM1 565 -0.550000 15.99940
566 OM 566 OM OM1 566 -0.550000 15.99940
567 OM 567 OM OM1 567 -0.550000 15.99940
568 OM 568 OM OM1 568 -0.550000 15.99940
569 OM 569 OM OM1 569 -0.550000 15.99940
570 OM 570 OM OM1 570 -0.550000 15.99940
571 OM 571 OM OM1 571 -0.550000 15.99940
572 OM 572 OM OM1 572 -0.550000 15.99940
573 OM 573 OM OM1 573 -0.550000 15.99940
574 OM 574 OM OM1 574 -0.550000 15.99940
575 OM 575 OM OM1 575 -0.550000 15.99940
576 OM 576 OM OM1 576 -0.550000 15.99940
577 OM 577 OM OM1 577 -0.550000 15.99940
578 OM 578 OM OM1 578 -0.550000 15.99940
579 OM 579 OM OM1 579 -0.550000 15.99940
580 OM 580 OM OM1 580 -0.550000 15.99940
581 OM 581 OM OM1 581 -0.550000 15.99940
582 OM 582 OM OM1 582 -0.550000 15.99940
583 OM 583 OM OM1 583 -0.550000 15.99940
584 OM 584 OM OM1 584 -0.550000 15.99940
585 OM 585 OM OM1 585 -0.550000 15.99940
586 OM 586 OM OM1 586 -0.550000 15.99940
587 OM 587 OM OM1 587 -0.550000 15.99940
588 OM 588 OM OM1 588 -0.550000 15.99940
589 OM 589 OM OM1 589 -0.550000 15.99940
590 OM 590 OM OM1 590 -0.550000 15.99940
591 OM 591 OM OM1 591 -0.550000 15.99940
592 OM 592 OM OM1 592 -0.550000 15.99940
593 OM 593 OM OM1 593 -0.550000 15.99940
594 OM 594 OM OM1 594 -0.550000 15.99940
595 OM 595 OM OM1 595 -0.550000 15.99940
596 OM 596 OM OM1 596 -0.550000 15.99940
597 OM 597 OM OM1 597 -0.550000 15.99940
598 OM 598 OM OM1 598 -0.550000 15.99940
599 OM 599 OM OM1 599 -0.550000 15.99940
600 OM 600 OM OM1 600 -0.550000 15.99940
601 OM 601 OM OM1 601 -0.550000 15.99940
602 OM 602 OM OM1 602 -0.550000 15.99940
603 OM 603 OM OM1 603 -0.550000 15.99940
604 OM 604 OM OM1 604 -0.550000 15.99940
605 OM 605 OM OM1 605 -0.550000 15.99940
606 OM 606 OM OM1 606 -0.550000 15.99940
607 OM 607 OM OM1 607 -0.550000 15.99940
608 OM 608 OM OM1 608 -0.550000 15.99940
609 OM 609 OM OM1 609 -0.550000 15.99940
610 OM 610 OM OM1 610 -0.550000 15.99940
611 OM 611 OM OM1 611 -0.550000 15.99940
612 OM 612 OM OM1 612 -0.550000 15.99940
613 OM 613 OM OM1 613 -0.550000 15.99940
614 OM 614 OM OM1 614 -0.550000 15.99940
615 OM 615 OM OM1 615 -0.550000 15.99940
616 OM 616 OM OM1 616 -0.550000 15.99940
617 OM 617 OM OM1 617 -0.550000 15.99940
618 OM 618 OM OM1 618 -0.550000 15.99940
619 OM 619 OM OM1 619 -0.550000 15.99940
620 OM 620 OM OM1 620 -0.550000 15.99940
621 OM 621 OM OM1 621 -0.550000 15.99940
622 OM 622 OM OM1 622 -0.550000 15.99940
623 OM 623 OM OM1 623 -0.550000 15.99940
624 OM 624 OM OM1 624 -0.550000 15.99940
625 OM 625 OM OM1 625 -0.550000 15.99940
626 OM 626 OM OM1 626 -0.550000 15.99940
627 OM 627 OM OM1 627 -0.550000 15.99940
628 OM 628 OM OM1 628 -0.550000 15.99940
629 OM 629 OM OM1 629 -0.550000 15.99940
630 OM 630 OM OM1 630 -0.550000 15.99940
631 OM 631 OM OM1 631 -0.550000 15.99940
632 OM 632 OM OM1 632 -0.550000 15.99940
633 OM 633 OM OM1 633 -0.550000 15.99940
634 OM 634 OM OM1 634 -0.550000 15.99940
635 OM 635 OM OM1 635 -0.550000 15.99940
636 OM 636 OM OM1 636 -0.550000 15.99940
637 OM 637 OM OM1 637 -0.550000 15.99940
638 OM 638 OM OM1 638 -0.550000 15.99940
639 OM 639 OM OM1 639 -0.550000 15.99940
640 OM 640 OM OM1 640 -0.550000 15.99940
641 OM 641 OM OM1 641 -0.550000 15.99940
642 OM 642 OM OM1 642 -0.550000 15.99940
643 OM 643 OM OM1 643 -0.550000 15.99940
644 OM 644 OM OM1 644 -0.550000 15.99940
645 OM 645 OM OM1 645 -0.550000 15.99940
646 OM 646 OM OM1 646 -0.550000 15.99940
647 OM 647 OM OM1 647 -0.550000 15.99940
648 OM 648 OM OM1 648 -0.550000 15.99940
649 OM 649 OM OM1 649 -0.550000 15.99940
650 OM 650 OM OM1 650 -0.550000 15.99940
651 OM 651 OM OM1 651 -0.550000 15.99940
652 OM 652 OM OM1 652 -0.550000 15.99940
653 OM 653 OM OM1 653 -0.550000 15.99940
654 OM 654 OM OM1 654 -0.550000 15.99940
655 OM 655 OM OM1 655 -0.550000 15.99940
656 OM 656 OM OM1 656 -0.550000 15.99940
657 OM 657 OM OM1 657 -0.550000 15.99940
658 OM 658 OM OM1 658 -0.550000 15.99940
659 OM 659 OM OM1 659 -0.550000 15.99940
660 OM 660 OM OM1 660 -0.550000 15.99940
661 OM 661 OM OM1 661 -0.550000 15.99940
662 OM 662 OM OM1 662 -0.550000 15.99940
663 OM 663 OM OM1 663 -0.550000 15.99940
664 OM 664 OM OM1 664 -0.550000 15.99940
665 OM 665 OM OM1 665 -0.550000 15.99940
666 OM 666 OM OM1 666 -0.550000 15.99940
667 OM 667 OM OM1 667 -0.550000 15.99940
668 OM 668 OM OM1 668 -0.550000 15.99940
669 OM 669 OM OM1 669 -0.550000 15.99940
670 OM 670 OM OM1 670 -0.550000 15.99940
671 OM 671 OM OM1 671 -0.550000 15.99940
672 OM 672 OM OM1 672 -0.550000 15.99940
673 OM 673 OM OM1 673 -0.550000 15.99940
674 OM 674 OM OM1 674 -0.550000 15.99940
675 OM 675 OM OM1 675 -0.550000 15.99940
676 OM 676 OM OM1 676 -0.550000 15.99940
677 OM 677 OM OM1 677 -0.550000 15.99940
678 OM 678 OM OM1 678 -0.550000 15.99940
679 OM 679 OM OM1 679 -0.550000 15.99940
680 OM 680 OM OM1 680 -0.550000 15.99940
681 OM 681 OM OM1 681 -0.550000 15.99940
682 OM 682 OM OM1 682 -0.550000 15.99940
683 OM 683 OM OM1 683 -0.550000 15.99940
684 OM 684 OM OM1 684 -0.550000 15.99940
685 OM 685 OM OM1 685 -0.550000 15.99940
686 OM 686 OM OM1 686 -0.550000 15.99940
687 OM 687 OM OM1 687 -0.550000 15.99940
688 OM 688 OM OM1 688 -0.550000 15.99940
689 OM 689 OM OM1 689 -0.550000 15.99940
690 OM 690 OM OM1 690 -0.550000 15.99940
691 OM 691 OM OM1 691 -0.550000 15.99940
692 OM 692 OM OM1 692 -0.550000 15.99940
693 OM 693 OM OM1 693 -0.550000 15.99940
694 OM 694 OM OM1 694 -0.550000 15.99940
695 OM 695 OM OM1 695 -0.550000 15.99940
696 OM 696 OM OM1 696 -0.550000 15.99940
697 OM 697 OM OM1 697 -0.550000 15.99940
698 OM 698 OM OM1 698 -0.550000 15.99940
699 OM 699 OM OM1 699 -0.550000 15.99940
700 OM 700 OM OM1 700 -0.550000 15.99940
701 OM 701 OM OM1 701 -0.550000 15.99940
702 OM 702 OM OM1 702 -0.550000 15.99940
703 OM 703 OM OM1 703 -0.550000 15.99940
704 OM 704 OM OM1 704 -0.550000 15.99940
705 OM 705 OM OM1 705 -0.550000 15.99940
706 OM 706 OM OM1 706 -0.550000 15.99940
707 OM 707 OM OM1 707 -0.550000 15.99940
708 OM 708 OM OM1 708 -0.550000 15.99940
709 OM 709 OM OM1 709 -0.550000 15.99940
710 OM 710 OM OM1 710 -0.550000 15.99940
711 OM 711 OM OM1 711 -0.550000 15.99940
712 OM 712 OM OM1 712 -0.550000 15.99940
713 OM 713 OM OM1 713 -0.550000 15.99940
714 OM 714 OM OM1 714 -0.550000 15.99940
715 OM 715 OM OM1 715 -0.550000 15.99940
716 OM 716 OM OM1 716 -0.550000 15.99940
717 OM 717 OM OM1 717 -0.550000 15.99940
718 OM 718 OM OM1 718 -0.550000 15.99940
719 OM 719 OM OM1 719 -0.550000 15.99940
720 OM 720 OM OM1 720 -0.550000 15.99940
721 OM 721 OM OM1 721 -0.550000 15.99940
722 OM 722 OM OM1 722 -0.550000 15.99940
723 OM 723 OM OM1 723 -0.550000 15.99940
724 OM 724 OM OM1 724 -0.550000 15.99940
725 OM 725 OM OM1 725 -0.550000 15.99940
726 OM 726 OM OM1 726 -0.550000 15.99940
727 OM 727 OM OM1 727 -0.550000 15.99940
728 OM 728 OM OM1 728 -0.550000 15.99940
729 OM 729 OM OM1 729 -0.550000 15.99940
730 OM 730 OM OM1 730 -0.550000 15.99940
731 OM 731 OM OM1 731 -0.550000 15.99940
732 OM 732 OM OM1 732 -0.550000 15.99940
733 OM 733 OM OM1 733 -0.550000 15.99940
734 OM 734 OM OM1 734 -0.550000 15.99940
735 OM 735 OM OM1 735 -0.550000 15.99940
736 OM 736 OM OM1 736 -0.550000 15.99940
737 OM 737 OM OM1 737 -0.550000 15.99940
738 OM 738 OM OM1 738 -0.550000 15.99940
739 OM 739 OM OM1 739 -0.550000 15.99940
740 OM 740 OM OM1 740 -0.550000 15.99940
741 OM 741 OM OM1 741 -0.550000 15.99940
742 OM 742 OM OM1 742 -0.550000 15.99940
743 OM 743 OM OM1 743 -0.550000 15.99940
744 OM 744 OM OM1 744 -0.550000 15.99940
745 OM 745 OM OM1 745 -0.550000 15.99940
746 OM 746 OM OM1 746 -0.550000 15.99940
747 OM 747 OM OM1 747 -0.550000 15.99940
748 OM 748 OM OM1 748 -0.550000 15.99940
749 OM 749 OM OM1 749 -0.550000 15.99940
750 OM 750 OM OM1 750 -0.550000 15.99940
751 OM 751 OM OM1 751 -0.550000 15.99940
752 OM 752 OM OM1 752 -0.550000 15.99940
753 OM 753 OM OM1 753 -0.550000 15.99940
754 OM 754 OM OM1 754 -0.550000 15.99940
755 OM 755 OM OM1 755 -0.550000 15.99940
756 OM 756 OM OM1 756 -0.550000 15.99940
757 OM 757 OM OM1 757 -0.550000 15.99940
758 OM 758 OM OM1 758 -0.550000 15.99940
759 OM 759 OM OM1 759 -0.550000 15.99940
760 OM 760 OM OM1 760 -0.550000 15.99940
761 OM 761 OM OM1 761 -0.550000 15.99940
762 OM 762 OM OM1 762 -0.550000 15.99940
763 OM 763 OM OM1 763 -0.550000 15.99940
764 OM 764 OM OM1 764 -0.550000 15.99940
765 OM 765 OM OM1 765 -0.550000 15.99940
766 OM 766 OM OM1 766 -0.550000 15.99940
767 OM 767 OM OM1 767 -0.550000 15.99940
768 OM 768 OM OM1 768 -0.550000 15.99940
769 OM 769 OM OM1 769 -0.550000 15.99940
770 OM 770 OM OM1 770 -0.550000 15.99940
771 OM 771 OM OM1 771 -0.550000 15.99940
772 OM 772 OM OM1 772 -0.550000 15.99940
773 OM 773 OM OM1 773 -0.550000 15.99940
774 OM 774 OM OM1 774 -0.550000 15.99940
775 OM 775 OM OM1 775 -0.550000 15.99940
776 OM 776 OM OM1 776 -0.550000 15.99940
777 OM 777 OM OM1 777 -0.550000 15.99940
778 OM 778 OM OM1 778 -0.550000 15.99940
779 OM 779 OM OM1 779 -0.550000 15.99940
780 OM 780 OM OM1 780 -0.550000 15.99940
781 OM 781 OM OM1 781 -0.550000 15.99940
782 OM 782 OM OM1 782 -0.550000 15.99940
783 OM 783 OM OM1 783 -0.550000 15.99940
784 OM 784 OM OM1 784 -0.550000 15.99940
785 OM 785 OM OM1 785 -0.550000 15.99940
786 OM 786 OM OM1 786 -0.550000 15.99940
787 OM 787 OM OM1 787 -0.550000 15.99940
788 OM 788 OM OM1 788 -0.550000 15.99940
789 OM 789 OM OM1 789 -0.550000 15.99940
790 OM 790 OM OM1 790 -0.550000 15.99940
791 OM 791 OM OM1 791 -0.550000 15.99940
792 OM 792 OM OM1 792 -0.550000 15.99940
793 OM 793 OM OM1 793 -0.550000 15.99940
794 OM 794 OM OM1 794 -0.550000 15.99940
795 OM 795 OM OM1 795 -0.550000 15.99940
796 OM 796 OM OM1 796 -0.550000 15.99940
797 OM 797 OM OM1 797 -0.550000 15.99940
798 OM 798 OM OM1 798 -0.550000 15.99940
799 OM 799 OM OM1 799 -0.550000 15.99940
800 OM 800 OM OM1 800 -0.550000 15.99940
801 OM 801 OM OM1 801 -0.550000 15.99940
802 OM 802 OM OM1 802 -0.550000 15.99940
803 OM 803 OM OM1 803 -0.550000 15.99940
804 OM 804 OM OM1 804 -0.550000 15.99940
805 OM 805 OM OM1 805 -0.550000 15.99940
806 OM 806 OM OM1 806 -0.550000 15.99940
807 OM 807 OM OM1 807 -0.550000 15.99940
808 OM 808 OM OM1 808 -0.550000 15.99940
809 OM 809 OM OM1 809 -0.550000 15.99940
810 OM 810 OM OM1 810 -0.550000 15.99940
811 OM 811 OM OM1 811 -0.550000 15.99940
812 OM 812 OM OM1 812 -0.550000 15.99940
813 OM 813 OM OM1 813 -0.550000 15.99940
814 OM 814 OM OM1 814 -0.550000 15.99940
815 OM 815 OM OM1 815 -0.550000 15.99940
816 OM 816 OM OM1 816 -0.550000 15.99940
817 OM 817 OM OM1 817 -0.550000 15.99940
818 OM 818 OM OM1 818 -0.550000 15.99940
819 OM 819 OM OM1 819 -0.550000 15.99940
820 OM 820 OM OM1 820 -0.550000 15.99940
821 OM 821 OM OM1 821 -0.550000 15.99940
822 OM 822 OM OM1 822 -0.550000 15.99940
823 OM 823 OM OM1 823 -0.550000 15.99940
824 OM 824 OM OM1 824 -0.550000 15.99940
825 OM 825 OM OM1 825 -0.550000 15.99940
826 OM 826 OM OM1 826 -0.550000 15.99940
827 OM 827 OM OM1 827 -0.550000 15.99940
828 OM 828 OM OM1 828 -0.550000 15.99940
829 OM 829 OM OM1 829 -0.550000 15.99940
830 OM 830 OM OM1 830 -0.550000 15.99940
831 OM 831 OM OM1 831 -0.550000 15.99940
832 OM 832 OM OM1 832 -0.550000 15.99940
833 OM 833 OM OM1 833 -0.550000 15.99940
834 OM 834 OM OM1 834 -0.550000 15.99940
835 OM 835 OM OM1 835 -0.550000 15.99940
836 OM 836 OM OM1 836 -0.550000 15.99940
837 OM 837 OM OM1 837 -0.550000 15.99940
838 OM 838 OM OM1 838 -0.550000 15.99940
839 OM 839 OM OM1 839 -0.550000 15.99940
840 OM 840 OM OM1 840 -0.550000 15.99940
841 OM 841 OM OM1 841 -0.550000 15.99940
842 OM 842 OM OM1 842 -0.550000 15.99940
843 OM 843 OM OM1 843 -0.550000 15.99940
844 OM 844 OM OM1 844 -0.550000 15.99940
845 OM 845 OM OM1 845 -0.550000 15.99940
846 OM 846 OM OM1 846 -0.550000 15.99940
847 OM 847 OM OM1 847 -0.550000 15.99940
848 OM 848 OM OM1 848 -0.550000 15.99940
849 OM 849 OM OM1 849 -0.550000 15.99940
850 OM 850 OM OM1 850 -0.550000 15.99940
851 OM 851 OM OM1 851 -0.550000 15.99940
852 OM 852 OM OM1 852 -0.550000 15.99940
853 OM 853 OM OM1 853 -0.550000 15.99940
854 OM 854 OM OM1 854 -0.550000 15.99940
855 OM 855 OM OM1 855 -0.550000 15.99940
856 OM 856 OM OM1 856 -0.550000 15.99940
857 OM 857 OM OM1 857 -0.550000 15.99940
858 OM 858 OM OM1 858 -0.550000 15.99940
859 OM 859 OM OM1 859 -0.550000 15.99940
860 OM 860 OM OM1 860 -0.550000 15.99940
861 OM 861 OM OM1 861 -0.550000 15.99940
862 OM 862 OM OM1 862 -0.550000 15.99940
863 OM 863 OM OM1 863 -0.550000 15.99940
864 OM 864 OM OM1 864 -0.550000 15.99940
865 OM 865 OM OM1 865 -0.550000 15.99940
866 OM 866 OM OM1 866 -0.550000 15.99940
867 OM 867 OM OM1 867 -0.550000 15.99940
868 OM 868 OM OM1 868 -0.550000 15.99940
869 OM 869 OM OM1 869 -0.550000 15.99940
870 OM 870 OM OM1 870 -0.550000 15.99940
871 OM 871 OM OM1 871 -0.550000 15.99940
872 OM 872 OM OM1 872 -0.550000 15.99940
873 OM 873 OM OM1 873 -0.550000 15.99940
874 OM 874 OM OM1 874 -0.550000 15.99940
875 OM 875 OM OM1 875 -0.550000 15.99940
876 OM 876 OM OM1 876 -0.550000 15.99940
877 OM 877 OM OM1 877 -0.550000 15.99940
878 OM 878 OM OM1 878 -0.550000 15.99940
879 OM 879 OM OM1 879 -0.550000 15.99940
880 OM 880 OM OM1 880 -0.550000 15.99940
881 OM 881 OM OM1 881 -0.550000 15.99940
882 OM 882 OM OM1 882 -0.550000 15.99940
883 OM 883 OM OM1 883 -0.550000 15.99940
884 OM 884 OM OM1 884 -0.550000 15.99940
885 OM 885 OM OM1 885 -0.550000 15.99940
886 OM 886 OM OM1 886 -0.550000 15.99940
887 OM 887 OM OM1 887 -0.550000 15.99940
888 OM 888 OM OM1 888 -0.550000 15.99940
889 OM 889 OM OM1 889 -0.550000 15.99940
890 OM 890 OM OM1 890 -0.550000 15.99940
891 OM 891 OM OM1 891 -0.550000 15.99940
892 OM 892 OM OM1 892 -0.550000 15.99940
893 OM 893 OM OM1 893 -0.550000 15.99940
894 OM 894 OM OM1 894 -0.550000 15.99940
895 OM 895 OM OM1 895 -0.550000 15.99940
896 OM 896 OM OM1 896 -0.550000 15.99940
897 OM 897 OM OM1 897 -0.550000 15.99940
898 OM 898 OM OM1 898 -0.550000 15.99940
899 OM 899 OM OM1 899 -0.550000 15.99940
900 OM 900 OM OM1 900 -0.550000 15.99940
901 OM 901 OM OM1 901 -0.550000 15.99940
902 OM 902 OM OM1 902 -0.550000 15.99940
903 OM 903 OM OM1 903 -0.550000 15.99940
904 OM 904 OM OM1 904 -0.550000 15.99940
905 OM 905 OM OM1 905 -0.550000 15.99940
906 OM 906 OM OM1 906 -0.550000 15.99940
907 OM 907 OM OM1 907 -0.550000 15.99940
908 OM 908 OM OM1 908 -0.550000 15.99940
909 OM 909 OM OM1 909 -0.550000 15.99940
910 OM 910 OM OM1 910 -0.550000 15.99940
911 OM 911 OM OM1 911 -0.550000 15.99940
912 OM 912 OM OM1 912 -0.550000 15.99940
913 OM 913 OM OM1 913 -0.550000 15.99940
914 OM 914 OM OM1 914 -0.550000 15.99940
915 OM 915 OM OM1 915 -0.550000 15.99940
916 OM 916 OM OM1 916 -0.550000 15.99940
917 OM 917 OM OM1 917 -0.550000 15.99940
918 OM 918 OM OM1 918 -0.550000 15.99940
919 OM 919 OM OM1 919 -0.550000 15.99940
920 OM 920 OM OM1 920 -0.550000 15.99940
921 OM 921 OM OM1 921 -0.550000 15.99940
922 OM 922 OM OM1 922 -0.550000 15.99940
923 OM 923 OM OM1 923 -0.550000 15.99940
924 OM 924 OM OM1 924 -0.550000 15.99940
925 OM 925 OM OM1 925 -0.550000 15.99940
926 OM 926 OM OM1 926 -0.550000 15.99940
927 OM 927 OM OM1 927 -0.550000 15.99940
928 OM 928 OM OM1 928 -0.550000 15.99940
929 OM 929 OM OM1 929 -0.550000 15.99940
930 OM 930 OM OM1 930 -0.550000 15.99940
931 OM 931 OM OM1 931 -0.550000 15.99940
932 OM 932 OM OM1 932 -0.550000 15.99940
933 OM 933 OM OM1 933 -0.550000 15.99940
934 OM 934 OM OM1 934 -0.550000 15.99940
935 OM 935 OM OM1 935 -0.550000 15.99940
936 OM 936 OM OM1 936 -0.550000 15.99940
937 OM 937 OM OM1 937 -0.550000 15.99940
938 OM 938 OM OM1 938 -0.550000 15.99940
939 OM 939 OM OM1 939 -0.550000 15.99940
940 OM 940 OM OM1 940 -0.550000 15.99940
941 OM 941 OM OM1 941 -0.550000 15.99940
942 OM 942 OM OM1 942 -0.550000 15.99940
943 OM 943 OM OM1 943 -0.550000 15.99940
944 OM 944 OM OM1 944 -0.550000 15.99940
945 OM 945 OM OM1 945 -0.550000 15.99940
946 OM 946 OM OM1 946 -0.550000 15.99940
947 OM 947 OM OM1 947 -0.550000 15.99940
948 OM 948 OM OM1 948 -0.550000 15.99940
949 OM 949 OM OM1 949 -0.550000 15.99940
950 OM 950 OM OM1 950 -0.550000 15.99940
951 OM 951 OM OM1 951 -0.550000 15.99940
952 OM 952 OM OM1 952 -0.550000 15.99940
953 OM 953 OM OM1 953 -0.550000 15.99940
954 OM 954 OM OM1 954 -0.550000 15.99940
955 OM 955 OM OM1 955 -0.550000 15.99940
956 OM 956 OM OM1 956 -0.550000 15.99940
957 OM 957 OM OM1 957 -0.550000 15.99940
958 OM 958 OM OM1 958 -0.550000 15.99940
959 OM 959 OM OM1 959 -0.550000 15.99940
960 OM 960 OM OM1 960 -0.550000 15.99940
961 OM 961 OM OM1 961 -0.550000 15.99940
962 OM 962 OM OM1 962 -0.550000 15.99940
963 OM 963 OM OM1 963 -0.550000 15.99940
964 OM 964 OM OM1 964 -0.550000 15.99940
965 OM 965 OM OM1 965 -0.550000 15.99940
966 OM 966 OM OM1 966 -0.550000 15.99940
967 OM 967 OM OM1 967 -0.550000 15.99940
968 OM 968 OM OM1 968 -0.550000 15.99940
969 OM 969 OM OM1 969 -0.550000 15.99940
970 OM 970 OM OM1 970 -0.550000 15.99940
971 OM 971 OM OM1 971 -0.550000 15.99940
972 OM 972 OM OM1 972 -0.550000 15.99940
973 OM 973 OM OM1 973 -0.550000 15.99940
974 OM 974 OM OM1 974 -0.550000 15.99940
975 OM 975 OM OM1 975 -0.550000 15.99940
976 OM 976 OM OM1 976 -0.550000 15.99940
977 OM 977 OM OM1 977 -0.550000 15.99940
978 OM 978 OM OM1 978 -0.550000 15.99940
979 OM 979 OM OM1 979 -0.550000 15.99940
980 OM 980 OM OM1 980 -0.550000 15.99940
981 OM 981 OM OM1 981 -0.550000 15.99940
982 OM 982 OM OM1 982 -0.550000 15.99940
983 OM 983 OM OM1 983 -0.550000 15.99940
984 OM 984 OM OM1 984 -0.550000 15.99940
985 OM 985 OM OM1 985 -0.550000 15.99940
986 OM 986 OM OM1 986 -0.550000 15.99940
987 OM 987 OM OM1 987 -0.550000 15.99940
988 OM 988 OM OM1 988 -0.550000 15.99940
989 OM 989 OM OM1 989 -0.550000 15.99940
990 OM 990 OM OM1 990 -0.550000 15.99940
991 OM 991 OM OM1 991 -0.550000 15.99940
992 OM 992 OM OM1 992 -0.550000 15.99940
993 OM 993 OM OM1 993 -0.550000 15.99940
994 OM 994 OM OM1 994 -0.550000 15.99940
995 OM 995 OM OM1 995 -0.550000 15.99940
996 OM 996 OM OM1 996 -0.550000 15.99940
997 OM 997 OM OM1 997 -0.550000 15.99940
998 OM 998 OM OM1 998 -0.550000 15.99940
999 OM 999 OM OM1 999 -0.550000 15.99940
1000 OM 1000 OM OM1 1000 -0.550000 15.99940
1001 OM 1001 OM OM1 1001 -0.550000 15.99940
1002 OM 1002 OM OM1 1002 -0.550000 15.99940
1003 OM 1003 OM OM1 1003 -0.550000 15.99940
1004 OM 1004 OM OM1 1004 -0.550000 15.99940
1005 OM 1005 OM OM1 1005 -0.550000 15.99940
1006 OM 1006 OM OM1 1006 -0.550000 15.99940
1007 OM 1007 OM OM1 1007 -0.550000 15.99940
1008 OM 1008 OM OM1 1008 -0.550000 15.99940
1009 OM 1009 OM OM1 1009 -0.550000 15.99940
1010 OM 1010 OM OM1 1010 -0.550000 15.99940
1011 OM 1011 OM OM1 1011 -0.550000 15.99940
1012 OM 1012 OM OM1 1012 -0.550000 15.99940
1013 OM 1013 OM OM1 1013 -0.550000 15.99940
1014 OM 1014 OM OM1 1014 -0.550000 15.99940
1015 OM 1015 OM OM1 1015 -0.550000 15.99940
1016 OM 1016 OM OM1 1016 -0.550000 15.99940
1017 OM 1017 OM OM1 1017 -0.550000 15.99940
1018 OM 1018 OM OM1 1018 -0.550000 15.99940
1019 OM 1019 OM OM1 1019 -0.550000 15.99940
1020 OM 1020 OM OM1 1020 -0.550000 15.99940
1021 OM 1021 OM OM1 1021 -0.550000 15.99940
1022 OM 1022 OM OM1 1022 -0.550000 15.99940
1023 OM 1023 OM OM1 1023 -0.550000 15.99940
1024 OM 1024 OM OM1 1024 -0.550000 15.99940
1025 OM 1025 OM OM1 1025 -0.550000 15.99940
1026 OM 1026 OM OM1 1026 -0.550000 15.99940
1027 OM 1027 OM OM1 1027 -0.550000 15.99940
1028 OM 1028 OM OM1 1028 -0.550000 15.99940
1029 OM 1029 OM OM1 1029 -0.550000 15.99940
1030 OM 1030 OM OM1 1030 -0.550000 15.99940
1031 OM 1031 OM OM1 1031 -0.550000 15.99940
1032 OM 1032 OM OM1 1032 -0.550000 15.99940
1033 OM 1033 OM OM1 1033 -0.550000 15.99940
1034 OM 1034 OM OM1 1034 -0.550000 15.99940
1035 OM 1035 OM OM1 1035 -0.550000 15.99940
1036 OM 1036 OM OM1 1036 -0.550000 15.99940
1037 OM 1037 OM OM1 1037 -0.550000 15.99940
1038 OM 1038 OM OM1 1038 -0.550000 15.99940
1039 OM 1039 OM OM1 1039 -0.550000 15.99940
1040 OM 1040 OM OM1 1040 -0.550000 15.99940
1041 OM 1041 OM OM1 1041 -0.550000 15.99940
1042 OM 1042 OM OM1 1042 -0.550000 15.99940
1043 OM 1043 OM OM1 1043 -0.550000 15.99940
1044 OM 1044 OM OM1 1044 -0.550000 15.99940
1045 OM 1045 OM OM1 1045 -0.550000 15.99940
1046 OM 1046 OM OM1 1046 -0.550000 15.99940
1047 OM 1047 OM OM1 1047 -0.550000 15.99940
1048 OM 1048 OM OM1 1048 -0.550000 15.99940
1049 OM 1049 OM OM1 1049 -0.550000 15.99940
1050 OM 1050 OM OM1 1050 -0.550000 15.99940
1051 OM 1051 OM OM1 1051 -0.550000 15.99940
1052 OM 1052 OM OM1 1052 -0.550000 15.99940
1053 OM 1053 OM OM1 1053 -0.550000 15.99940
1054 OM 1054 OM OM1 1054 -0.550000 15.99940
1055 OM 1055 OM OM1 1055 -0.550000 15.99940
1056 OM 1056 OM OM1 1056 -0.550000 15.99940
1057 OM 1057 OM OM1 1057 -0.550000 15.99940
1058 OM 1058 OM OM1 1058 -0.550000 15.99940
1059 OM 1059 OM OM1 1059 -0.550000 15.99940
1060 OM 1060 OM OM1 1060 -0.550000 15.99940
1061 OM 1061 OM OM1 1061 -0.550000 15.99940
1062 OM 1062 OM OM1 1062 -0.550000 15.99940
1063 OM 1063 OM OM1 1063 -0.550000 15.99940
1064 OM 1064 OM OM1 1064 -0.550000 15.99940
1065 OM 1065 OM OM1 1065 -0.550000 15.99940
1066 OM 1066 OM OM1 1066 -0.550000 15.99940
1067 OM 1067 OM OM1 1067 -0.550000 15.99940
1068 OM 1068 OM OM1 1068 -0.550000 15.99940
1069 OM 1069 OM OM1 1069 -0.550000 15.99940
1070 OM 1070 OM OM1 1070 -0.550000 15.99940
1071 OM 1071 OM OM1 1071 -0.550000 15.99940
1072 OM 1072 OM OM1 1072 -0.550000 15.99940
1073 OM 1073 OM OM1 1073 -0.550000 15.99940
1074 OM 1074 OM OM1 1074 -0.550000 15.99940
1075 OM 1075 OM OM1 1075 -0.550000 15.99940
1076 OM 1076 OM OM1 1076 -0.550000 15.99940
1077 OM 1077 OM OM1 1077 -0.550000 15.99940
1078 OM 1078 OM OM1 1078 -0.550000 15.99940
1079 OM 1079 OM OM1 1079 -0.550000 15.99940
1080 OM 1080 OM OM1 1080 -0.550000 15.99940
1081 OM 1081 OM OM1 1081 -0.550000 15.99940
1082 OM 1082 OM OM1 1082 -0.550000 15.99940
1083 OM 1083 OM OM1 1083 -0.550000 15.99940
1084 OM 1084 OM OM1 1084 -0.550000 15.99940
1085 OM 1085 OM OM1 1085 -0.550000 15.99940
1086 OM 1086 OM OM1 1086 -0.550000 15.99940
1087 OM 1087 OM OM1 1087 -0.550000 15.99940
1088 OM 1088 OM OM1 1088 -0.550000 15.99940
1089 OM 1089 OM OM1 1089 -0.550000 15.99940
1090 OM 1090 OM OM1 1090 -0.550000 15.99940
1091 OM 1091 OM OM1 1091 -0.550000 15.99940
1092 OM 1092 OM OM1 1092 -0.550000 15.99940
1093 OM 1093 OM OM1 1093 -0.550000 15.99940
1094 OM 1094 OM OM1 1094 -0.550000 15.99940
1095 OM 1095 OM OM1 1095 -0.550000 15.99940
1096 OM 1096 OM OM1 1096 -0.550000 15.99940
1097 OM 1097 OM OM1 1097 -0.550000 15.99940
1098 OM 1098 OM OM1 1098 -0.550000 15.99940
1099 OM 1099 OM OM1 1099 -0.550000 15.99940
1100 OM 1100 OM OM1 1100 -0.550000 15.99940
1101 OM 1101 OM OM1 1101 -0.550000 15.99940
1102 OM 1102 OM OM1 1102 -0.550000 15.99940
1103 OM 1103 OM OM1 1103 -0.550000 15.99940
1104 OM 1104 OM OM1 1104 -0.550000 15.99940
1105 OM 1105 OM OM1 1105 -0.550000 15.99940
1106 OM 1106 OM OM1 1106 -0.550000 15.99940
1107 OM 1107 OM OM1 1107 -0.550000 15.99940
1108 OM 1108 OM OM1 1108 -0.550000 15.99940
1109 OM 1109 OM OM1 1109 -0.550000 15.99940
1110 OM 1110 OM OM1 1110 -0.550000 15.99940
1111 OM 1111 OM OM1 1111 -0.550000 15.99940
1112 OM 1112 OM OM1 1112 -0.550000 15.99940
1113 OM 1113 OM OM1 1113 -0.550000 15.99940
1114 OM 1114 OM OM1 1114 -0.550000 15.99940
1115 OM 1115 OM OM1 1115 -0.550000 15.99940
1116 OM 1116 OM OM1 1116 -0.550000 15.99940
1117 OM 1117 OM OM1 1117 -0.550000 15.99940
1118 OM 1118 OM OM1 1118 -0.550000 15.99940
1119 OM 1119 OM OM1 1119 -0.550000 15.99940
1120 OM 1120 OM OM1 1120 -0.550000 15.99940
1121 OM 1121 OM OM1 1121 -0.550000 15.99940
1122 OM 1122 OM OM1 1122 -0.550000 15.99940
1123 OM 1123 OM OM1 1123 -0.550000 15.99940
1124 OM 1124 OM OM1 1124 -0.550000 15.99940
1125 OM 1125 OM OM1 1125 -0.550000 15.99940
1126 OM 1126 OM OM1 1126 -0.550000 15.99940
1127 OM 1127 OM OM1 1127 -0.550000 15.99940
1128 OM 1128 OM OM1 1128 -0.550000 15.99940
1129 OM 1129 OM OM1 1129 -0.550000 15.99940
1130 OM 1130 OM OM1 1130 -0.550000 15.99940
1131 OM 1131 OM OM1 1131 -0.550000 15.99940
1132 OM 1132 OM OM1 1132 -0.550000 15.99940
1133 OM 1133 OM OM1 1133 -0.550000 15.99940
1134 OM 1134 OM OM1 1134 -0.550000 15.99940
1135 OM 1135 OM OM1 1135 -0.550000 15.99940
1136 OM 1136 OM OM1 1136 -0.550000 15.99940
1137 OM 1137 OM OM1 1137 -0.550000 15.99940
1138 OM 1138 OM OM1 1138 -0.550000 15.99940
1139 OM 1139 OM OM1 1139 -0.550000 15.99940
1140 OM 1140 OM OM1 1140 -0.550000 15.99940
1141 OM 1141 OM OM1 1141 -0.550000 15.99940
1142 OM 1142 OM OM1 1142 -0.550000 15.99940
1143 OM 1143 OM OM1 1143 -0.550000 15.99940
1144 OM 1144 OM OM1 1144 -0.550000 15.99940
1145 OM 1145 OM OM1 1145 -0.550000 15.99940
1146 OM 1146 OM OM1 1146 -0.550000 15.99940
1147 OM 1147 OM OM1 1147 -0.550000 15.99940
1148 OM 1148 OM OM1 1148 -0.550000 15.99940
1149 OM 1149 OM OM1 1149 -0.550000 15.99940
1150 OM 1150 OM OM1 1150 -0.550000 15.99940
1151 OM 1151 OM OM1 1151 -0.550000 15.99940
1152 OM 1152 OM OM1 1152 -0.550000 15.99940
1153 OM 1153 OM OM1 1153 -0.550000 15.99940
1154 OM 1154 OM OM1 1154 -0.550000 15.99940
1155 OM 1155 OM OM1 1155 -0.550000 15.99940
1156 OM 1156 OM OM1 1156 -0.550000 15.99940
1157 OM 1157 OM OM1 1157 -0.550000 15.99940
1158 OM 1158 OM OM1 1158 -0.550000 15.99940
1159 OM 1159 OM OM1 1159 -0.550000 15.99940
1160 OM 1160 OM OM1 1160 -0.550000 15.99940
1161 OM 1161 OM OM1 1161 -0.550000 15.99940
1162 OM 1162 OM OM1 1162 -0.550000 15.99940
1163 OM 1163 OM OM1 1163 -0.550000 15.99940
1164 OM 1164 OM OM1 1164 -0.550000 15.99940
1165 OM 1165 OM OM1 1165 -0.550000 15.99940
1166 OM 1166 OM OM1 1166 -0.550000 15.99940
1167 OM 1167 OM OM1 1167 -0.550000 15.99940
1168 OM 1168 OM OM1 1168 -0.550000 15.99940
1169 OM 1169 OM OM1 1169 -0.550000 15.99940
1170 OM 1170 OM OM1 1170 -0.550000 15.99940
1171 OM 1171 OM OM1 1171 -0.550000 15.99940
1172 OM 1172 OM OM1 1172 -0.550000 15.99940
1173 OM 1173 OM OM1 1173 -0.550000 15.99940
1174 OM 1174 OM OM1 1174 -0.550000 15.99940
1175 OM 1175 OM OM1 1175 -0.550000 15.99940
1176 OM 1176 OM OM1 1176 -0.550000 15.99940
1177 OM 1177 OM OM1 1177 -0.550000 15.99940
1178 OM 1178 OM OM1 1178 -0.550000 15.99940
1179 OM 1179 OM OM1 1179 -0.550000 15.99940
1180 OM 1180 OM OM1 1180 -0.550000 15.99940
1181 OM 1181 OM OM1 1181 -0.550000 15.99940
1182 OM 1182 OM OM1 1182 -0.550000 15.99940
1183 OM 1183 OM OM1 1183 -0.550000 15.99940
1184 OM 1184 OM OM1 1184 -0.550000 15.99940
1185 OM 1185 OM OM1 1185 -0.550000 15.99940
1186 OM 1186 OM OM1 1186 -0.550000 15.99940
1187 OM 1187 OM OM1 1187 -0.550000 15.99940
1188 OM 1188 OM OM1 1188 -0.550000 15.99940
1189 OM 1189 OM OM1 1189 -0.550000 15.99940
1190 OM 1190 OM OM1 1190 -0.550000 15.99940
1191 OM 1191 OM OM1 1191 -0.550000 15.99940
1192 OM 1192 OM OM1 1192 -0.550000 15.99940
1193 OM 1193 OM OM1 1193 -0.550000 15.99940
1194 OM 1194 OM OM1 1194 -0.550000 15.99940
1195 OM 1195 OM OM1 1195 -0.550000 15.99940
1196 OM 1196 OM OM1 1196 -0.550000 15.99940
1197 OM 1197 OM OM1 1197 -0.550000 15.99940
1198 OM 1198 OM OM1 1198 -0.550000 15.99940
1199 OM 1199 OM OM1 1199 -0.550000 15.99940
1200 OM 1200 OM OM1 1200 -0.550000 15.99940
1201 OM 1201 OM OM1 1201 -0.550000 15.99940
1202 OM 1202 OM OM1 1202 -0.550000 15.99940
1203 OM 1203 OM OM1 1203 -0.550000 15.99940
1204 OM 1204 OM OM1 1204 -0.550000 15.99940
1205 OM 1205 OM OM1 1205 -0.550000 15.99940
1206 OM 1206 OM OM1 1206 -0.550000 15.99940
1207 OM 1207 OM OM1 1207 -0.550000 15.99940
1208 OM 1208 OM OM1 1208 -0.550000 15.99940
1209 OM 1209 OM OM1 1209 -0.550000 15.99940
1210 OM 1210 OM OM1 1210 -0.550000 15.99940
1211 OM 1211 OM OM1 1211 -0.550000 15.99940
1212 OM 1212 OM OM1 1212 -0.550000 15.99940
1213 OM 1213 OM OM1 1213 -0.550000 15.99940
1214 OM 1214 OM OM1 1214 -0.550000 15.99940
1215 OM 1215 OM OM1 1215 -0.550000 15.99940
1216 OM 1216 OM OM1 1216 -0.550000 15.99940
1217 OM 1217 OM OM1 1217 -0.550000 15.99940
1218 OM 1218 OM OM1 1218 -0.550000 15.99940
1219 OM 1219 OM OM1 1219 -0.550000 15.99940
1220 OM 1220 OM OM1 1220 -0.550000 15.99940
1221 OM 1221 OM OM1 1221 -0.550000 15.99940
1222 OM 1222 OM OM1 1222 -0.550000 15.99940
1223 OM 1223 OM OM1 1223 -0.550000 15.99940
1224 OM 1224 OM OM1 1224 -0.550000 15.99940
1225 OM 1225 OM OM1 1225 -0.550000 15.99940
1226 OM 1226 OM OM1 1226 -0.550000 15.99940
1227 OM 1227 OM OM1 1227 -0.550000 15.99940
1228 OM 1228 OM OM1 1228 -0.550000 15.99940
1229 OM 1229 OM OM1 1229 -0.550000 15.99940
1230 OM 1230 OM OM1 1230 -0.550000 15.99940
1231 OM 1231 OM OM1 1231 -0.550000 15.99940
1232 OM 1232 OM OM1 1232 -0.550000 15.99940
1233 OM 1233 OM OM1 1233 -0.550000 15.99940
1234 OM 1234 OM OM1 1234 -0.550000 15.99940
1235 OM 1235 OM OM1 1235 -0.550000 15.99940
1236 OM 1236 OM OM1 1236 -0.550000 15.99940
1237 OM 1237 OM OM1 1237 -0.550000 15.99940
1238 OM 1238 OM OM1 1238 -0.550000 15.99940
1239 OM 1239 OM OM1 1239 -0.550000 15.99940
1240 OM 1240 OM OM1 1240 -0.550000 15.99940
1241 OM 1241 OM OM1 1241 -0.550000 15.99940
1242 OM 1242 OM OM1 1242 -0.550000 15.99940
1243 OM 1243 OM OM1 1243 -0.550000 15.99940
1244 OM 1244 OM OM1 1244 -0.550000 15.99940
1245 OM 1245 OM OM1 1245 -0.550000 15.99940
1246 OM 1246 OM OM1 1246 -0.550000 15.99940
1247 OM 1247 OM OM1 1247 -0.550000 15.99940
1248 OM 1248 OM OM1 1248 -0.550000 15.99940
1249 OM 1249 OM OM1 1249 -0.550000 15.99940
1250 OM 1250 OM OM1 1250 -0.550000 15.99940
1251 OM 1251 OM OM1 1251 -0.550000 15.99940
1252 OM 1252 OM OM1 1252 -0.550000 15.99940
1253 OM 1253 OM OM1 1253 -0.550000 15.99940
1254 OM 1254 OM OM1 1254 -0.550000 15.99940
1255 OM 1255 OM OM1 1255 -0.550000 15.99940
1256 OM 1256 OM OM1 1256 -0.550000 15.99940
1257 OM 1257 OM OM1 1257 -0.550000 15.99940
1258 OM 1258 OM OM1 1258 -0.550000 15.99940
1259 OM 1259 OM OM1 1259 -0.550000 15.99940
1260 OM 1260 OM OM1 1260 -0.550000 15.99940
1261 OM 1261 OM OM1 1261 -0.550000 15.99940
1262 OM 1262 OM OM1 1262 -0.550000 15.99940
1263 OM 1263 OM OM1 1263 -0.550000 15.99940
1264 OM 1264 OM OM1 1264 -0.550000 15.99940
1265 OM 1265 OM OM1 1265 -0.550000 15.99940
1266 OM 1266 OM OM1 1266 -0.550000 15.99940
1267 OM 1267 OM OM1 1267 -0.550000 15.99940
1268 OM 1268 OM OM1 1268 -0.550000 15.99940
1269 OM 1269 OM OM1 1269 -0.550000 15.99940
1270 OM 1270 OM OM1 1270 -0.550000 15.99940
1271 OM 1271 OM OM1 1271 -0.550000 15.99940
1272 OM 1272 OM OM1 1272 -0.550000 15.99940
1273 OM 1273 OM OM1 1273 -0.550000 15.99940
1274 OM 1274 OM OM1 1274 -0.550000 15.99940
1275 OM 1275 OM OM1 1275 -0.550000 15.99940
1276 OM 1276 OM OM1 1276 -0.550000 15.99940
1277 OM 1277 OM OM1 1277 -0.550000 15.99940
1278 OM 1278 OM OM1 1278 -0.550000 15.99940
1279 OM 1279 OM OM1 1279 -0.550000 15.99940
1280 OM 1280 OM OM1 1280 -0.550000 15.99940
1281 OM 1281 OM OM1 1281 -0.550000 15.99940
1282 OM 1282 OM OM1 1282 -0.550000 15.99940
1283 OM 1283 OM OM1 1283 -0.550000 15.99940
1284 OM 1284 OM OM1 1284 -0.550000 15.99940
1285 OM 1285 OM OM1 1285 -0.550000 15.99940
1286 OM 1286 OM OM1 1286 -0.550000 15.99940
1287 OM 1287 OM OM1 1287 -0.550000 15.99940
1288 OM 1288 OM OM1 1288 -0.550000 15.99940
1289 OM 1289 OM OM1 1289 -0.550000 15.99940
1290 OM 1290 OM OM1 1290 -0.550000 15.99940
1291 OM 1291 OM OM1 1291 -0.550000 15.99940
1292 OM 1292 OM OM1 1292 -0.550000 15.99940
1293 OM 1293 OM OM1 1293 -0.550000 15.99940
1294 OM 1294 OM OM1 1294 -0.550000 15.99940
1295 OM 1295 OM OM1 1295 -0.550000 15.99940
1296 OM 1296 OM OM1 1296 -0.550000 15.99940
1297 OM 1297 OM OM1 1297 -0.550000 15.99940
1298 OM 1298 OM OM1 1298 -0.550000 15.99940
1299 OM 1299 OM OM1 1299 -0.550000 15.99940
1300 OM 1300 OM OM1 1300 -0.550000 15.99940
1301 OM 1301 OM OM1 1301 -0.550000 15.99940
1302 OM 1302 OM OM1 1302 -0.550000 15.99940
1303 OM 1303 OM OM1 1303 -0.550000 15.99940
1304 OM 1304 OM OM1 1304 -0.550000 15.99940
1305 OM 1305 OM OM1 1305 -0.550000 15.99940
1306 OM 1306 OM OM1 1306 -0.550000 15.99940
1307 OM 1307 OM OM1 1307 -0.550000 15.99940
1308 OM 1308 OM OM1 1308 -0.550000 15.99940
1309 OM 1309 OM OM1 1309 -0.550000 15.99940
1310 OM 1310 OM OM1 1310 -0.550000 15.99940
1311 OM 1311 OM OM1 1311 -0.550000 15.99940
1312 OM 1312 OM OM1 1312 -0.550000 15.99940
1313 OM 1313 OM OM1 1313 -0.550000 15.99940
1314 OM 1314 OM OM1 1314 -0.550000 15.99940
1315 OM 1315 OM OM1 1315 -0.550000 15.99940
1316 OM 1316 OM OM1 1316 -0.550000 15.99940
1317 OM 1317 OM OM1 1317 -0.550000 15.99940
1318 OM 1318 OM OM1 1318 -0.550000 15.99940
1319 OM 1319 OM OM1 1319 -0.550000 15.99940
1320 OM 1320 OM OM1 1320 -0.550000 15.99940
1321 OM 1321 OM OM1 1321 -0.550000 15.99940
1322 OM 1322 OM OM1 1322 -0.550000 15.99940
1323 OM 1323 OM OM1 1323 -0.550000 15.99940
1324 OM 1324 OM OM1 1324 -0.550000 15.99940
1325 OM 1325 OM OM1 1325 -0.550000 15.99940
1326 OM 1326 OM OM1 1326 -0.550000 15.99940
1327 OM 1327 OM OM1 1327 -0.550000 15.99940
1328 OM 1328 OM OM1 1328 -0.550000 15.99940
1329 OM 1329 OM OM1 1329 -0.550000 15.99940
1330 OM 1330 OM OM1 1330 -0.550000 15.99940
1331 OM 1331 OM OM1 1331 -0.550000 15.99940
1332 OM 1332 OM OM1 1332 -0.550000 15.99940
1333 OM 1333 OM OM1 1333 -0.550000 15.99940
1334 OM 1334 OM OM1 1334 -0.550000 15.99940
1335 OM 1335 OM OM1 1335 -0.550000 15.99940
1336 OM 1336 OM OM1 1336 -0.550000 15.99940
1337 OM 1337 OM OM1 1337 -0.550000 15.99940
1338 OM 1338 OM OM1 1338 -0.550000 15.99940
1339 OM 1339 OM OM1 1339 -0.550000 15.99940
1340 OM 1340 OM OM1 1340 -0.550000 15.99940
1341 OM 1341 OM OM1 1341 -0.550000 15.99940
1342 OM 1342 OM OM1 1342 -0.550000 15.99940
1343 OM 1343 OM OM1 1343 -0.550000 15.99940
1344 OM 1344 OM OM1 1344 -0.550000 15.99940
1345 OM 1345 OM OM1 1345 -0.550000 15.99940
1346 OM 1346 OM OM1 1346 -0.550000 15.99940
1347 OM 1347 OM OM1 1347 -0.550000 15.99940
1348 OM 1348 OM OM1 1348 -0.550000 15.99940
1349 OM 1349 OM OM1 1349 -0.550000 15.99940
1350 OM 1350 OM OM1 1350 -0.550000 15.99940
1351 OM 1351 OM OM1 1351 -0.550000 15.99940
1352 OM 1352 OM OM1 1352 -0.550000 15.99940
1353 OM 1353 OM OM1 1353 -0.550000 15.99940
1354 OM 1354 OM OM1 1354 -0.550000 15.99940
1355 OM 1355 OM OM1 1355 -0.550000 15.99940
1356 OM 1356 OM OM1 1356 -0.550000 15.99940
1357 OM 1357 OM OM1 1357 -0.550000 15.99940
1358 OM 1358 OM OM1 1358 -0.550000 15.99940
1359 OM 1359 OM OM1 1359 -0.550000 15.99940
1360 OM 1360 OM OM1 1360 -0.550000 15.99940
1361 OM 1361 OM OM1 1361 -0.550000 15.99940
1362 OM 1362 OM OM1 1362 -0.550000 15.99940
1363 OM 1363 OM OM1 1363 -0.550000 15.99940
1364 OM 1364 OM OM1 1364 -0.550000 15.99940
1365 OM 1365 OM OM1 1365 -0.550000 15.99940
1366 OM 1366 OM OM1 1366 -0.550000 15.99940
1367 OM 1367 OM OM1 1367 -0.550000 15.99940
1368 OM 1368 OM OM1 1368 -0.550000 15.99940
1369 OM 1369 OM OM1 1369 -0.550000 15.99940
1370 OM 1370 OM OM1 1370 -0.550000 15.99940
1371 OM 1371 OM OM1 1371 -0.550000 15.99940
1372 OM 1372 OM OM1 1372 -0.550000 15.99940
1373 OM 1373 OM OM1 1373 -0.550000 15.99940
1374 OM 1374 OM OM1 1374 -0.550000 15.99940
1375 OM 1375 OM OM1 1375 -0.550000 15.99940
1376 OM 1376 OM OM1 1376 -0.550000 15.99940
1377 OM 1377 OM OM1 1377 -0.550000 15.99940
1378 OM 1378 OM OM1 1378 -0.550000 15.99940
1379 OM 1379 OM OM1 1379 -0.550000 15.99940
1380 OM 1380 OM OM1 1380 -0.550000 15.99940
1381 OM 1381 OM OM1 1381 -0.550000 15.99940
1382 OM 1382 OM OM1 1382 -0.550000 15.99940
1383 OM 1383 OM OM1 1383 -0.550000 15.99940
1384 OM 1384 OM OM1 1384 -0.550000 15.99940
1385 OM 1385 OM OM1 1385 -0.550000 15.99940
1386 OM 1386 OM OM1 1386 -0.550000 15.99940
1387 OM 1387 OM OM1 1387 -0.550000 15.99940
1388 OM 1388 OM OM1 1388 -0.550000 15.99940
1389 OM 1389 OM OM1 1389 -0.550000 15.99940
1390 OM 1390 OM OM1 1390 -0.550000 15.99940
1391 OM 1391 OM OM1 1391 -0.550000 15.99940
1392 OM 1392 OM OM1 1392 -0.550000 15.99940
1393 OM 1393 OM OM1 1393 -0.550000 15.99940
1394 OM 1394 OM OM1 1394 -0.550000 15.99940
1395 OM 1395 OM OM1 1395 -0.550000 15.99940
1396 OM 1396 OM OM1 1396 -0.550000 15.99940
1397 OM 1397 OM OM1 1397 -0.550000 15.99940
1398 OM 1398 OM OM1 1398 -0.550000 15.99940
1399 OM 1399 OM OM1 1399 -0.550000 15.99940
1400 OM 1400 OM OM1 1400 -0.550000 15.99940
1401 OM 1401 OM OM1 1401 -0.550000 15.99940
1402 OM 1402 OM OM1 1402 -0.550000 15.99940
1403 OM 1403 OM OM1 1403 -0.550000 15.99940
1404 OM 1404 OM OM1 1404 -0.550000 15.99940
1405 OM 1405 OM OM1 1405 -0.550000 15.99940
1406 OM 1406 OM OM1 1406 -0.550000 15.99940
1407 OM 1407 OM OM1 1407 -0.550000 15.99940
1408 OM 1408 OM OM1 1408 -0.550000 15.99940
1409 OM 1409 OM OM1 1409 -0.550000 15.99940
1410 OM 1410 OM OM1 1410 -0.550000 15.99940
1411 OM 1411 OM OM1 1411 -0.550000 15.99940
1412 OM 1412 OM OM1 1412 -0.550000 15.99940
1413 OM 1413 OM OM1 1413 -0.550000 15.99940
1414 OM 1414 OM OM1 1414 -0.550000 15.99940
1415 OM 1415 OM OM1 1415 -0.550000 15.99940
1416 OM 1416 OM OM1 1416 -0.550000 15.99940
1417 OM 1417 OM OM1 1417 -0.550000 15.99940
1418 OM 1418 OM OM1 1418 -0.550000 15.99940
1419 OM 1419 OM OM1 1419 -0.550000 15.99940
1420 OM 1420 OM OM1 1420 -0.550000 15.99940
1421 OM 1421 OM OM1 1421 -0.550000 15.99940
1422 OM 1422 OM OM1 1422 -0.550000 15.99940
1423 OM 1423 OM OM1 1423 -0.550000 15.99940
1424 OM 1424 OM OM1 1424 -0.550000 15.99940
1425 OM 1425 OM OM1 1425 -0.550000 15.99940
1426 OM 1426 OM OM1 1426 -0.550000 15.99940
1427 OM 1427 OM OM1 1427 -0.550000 15.99940
1428 OM 1428 OM OM1 1428 -0.550000 15.99940
1429 OM 1429 OM OM1 1429 -0.550000 15.99940
1430 OM 1430 OM OM1 1430 -0.550000 15.99940
1431 OM 1431 OM OM1 1431 -0.550000 15.99940
1432 OM 1432 OM OM1 1432 -0.550000 15.99940
1433 OM 1433 OM OM1 1433 -0.550000 15.99940
1434 OM 1434 OM OM1 1434 -0.550000 15.99940
1435 OM 1435 OM OM1 1435 -0.550000 15.99940
1436 OM 1436 OM OM1 1436 -0.550000 15.99940
1437 OM 1437 OM OM1 1437 -0.550000 15.99940
1438 OM 1438 OM OM1 1438 -0.550000 15.99940
1439 OM 1439 OM OM1 1439 -0.550000 15.99940
1440 OM 1440 OM OM1 1440 -0.550000 15.99940
1441 OM 1441 OM OM1 1441 -0.550000 15.99940
1442 OM 1442 OM OM1 1442 -0.550000 15.99940
1443 OM 1443 OM OM1 1443 -0.550000 15.99940
1444 OM 1444 OM OM1 1444 -0.550000 15.99940
1445 OM 1445 OM OM1 1445 -0.550000 15.99940
1446 OM 1446 OM OM1 1446 -0.550000 15.99940
1447 OM 1447 OM OM1 1447 -0.550000 15.99940
1448 OM 1448 OM OM1 1448 -0.550000 15.99940
1449 OM 1449 OM OM1 1449 -0.550000 15.99940
1450 OM 1450 OM OM1 1450 -0.550000 15.99940
1451 OM 1451 OM OM1 1451 -0.550000 15.99940
1452 OM 1452 OM OM1 1452 -0.550000 15.99940
1453 OM 1453 OM OM1 1453 -0.550000 15.99940
1454 OM 1454 OM OM1 1454 -0.550000 15.99940
1455 OM 1455 OM OM1 1455 -0.550000 15.99940
1456 OM 1456 OM OM1 1456 -0.550000 15.99940
1457 OM 1457 OM OM1 1457 -0.550000 15.99940
1458 OM 1458 OM OM1 1458 -0.550000 15.99940
1459 OM 1459 OM OM1 1459 -0.550000 15.99940
1460 OM 1460 OM OM1 1460 -0.550000 15.99940
1461 OM 1461 OM OM1 1461 -0.550000 15.99940
1462 OM 1462 OM OM1 1462 -0.550000 15.99940
1463 OM 1463 OM OM1 1463 -0.550000 15.99940
1464 OM 1464 OM OM1 1464 -0.550000 15.99940
1465 OM 1465 OM OM1 1465 -0.550000 15.99940
1466 OM 1466 OM OM1 1466 -0.550000 15.99940
1467 OM 1467 OM OM1 1467 -0.550000 15.99940
1468 OM 1468 OM OM1 1468 -0.550000 15.99940
1469 OM 1469 OM OM1 1469 -0.550000 15.99940
1470 OM 1470 OM OM1 1470 -0.550000 15.99940
1471 OM 1471 OM OM1 1471 -0.550000 15.99940
1472 OM 1472 OM OM1 1472 -0.550000 15.99940
1473 OM 1473 OM OM1 1473 -0.550000 15.99940
1474 OM 1474 OM OM1 1474 -0.550000 15.99940
1475 OM 1475 OM OM1 1475 -0.550000 15.99940
1476 OM 1476 OM OM1 1476 -0.550000 15.99940
1477 OM 1477 OM OM1 1477 -0.550000 15.99940
1478 OM 1478 OM OM1 1478 -0.550000 15.99940
1479 OM 1479 OM OM1 1479 -0.550000 15.99940
1480 OM 1480 OM OM1 1480 -0.550000 15.99940
1481 OM 1481 OM OM1 1481 -0.550000 15.99940
1482 OM 1482 OM OM1 1482 -0.550000 15.99940
1483 OM 1483 OM OM1 1483 -0.550000 15.99940
1484 OM 1484 OM OM1 1484 -0.550000 15.99940
1485 OM 1485 OM OM1 1485 -0.550000 15.99940
1486 OM 1486 OM OM1 1486 -0.550000 15.99940
1487 OM 1487 OM OM1 1487 -0.550000 15.99940
1488 OM 1488 OM OM1 1488 -0.550000 15.99940
1489 OM 1489 OM OM1 1489 -0.550000 15.99940
1490 OM 1490 OM OM1 1490 -0.550000 15.99940
1491 OM 1491 OM OM1 1491 -0.550000 15.99940
1492 OM 1492 OM OM1 1492 -0.550000 15.99940
1493 OM 1493 OM OM1 1493 -0.550000 15.99940
1494 OM 1494 OM OM1 1494 -0.550000 15.99940
1495 OM 1495 OM OM1 1495 -0.550000 15.99940
1496 OM 1496 OM OM1 1496 -0.550000 15.99940
1497 OM 1497 OM OM1 1497 -0.550000 15.99940
1498 OM 1498 OM OM1 1498 -0.550000 15.99940
1499 OM 1499 OM OM1 1499 -0.550000 15.99940
1500 OM 1500 OM OM1 1500 -0.550000 15.99940
1501 OM 1501 OM OM1 1501 -0.550000 15.99940
1502 OM 1502 OM OM1 1502 -0.550000 15.99940
1503 OM 1503 OM OM1 1503 -0.550000 15.99940
1504 OM 1504 OM OM1 1504 -0.550000 15.99940
1505 OM 1505 OM OM1 1505 -0.550000 15.99940
1506 OM 1506 OM OM1 1506 -0.550000 15.99940
1507 OM 1507 OM OM1 1507 -0.550000 15.99940
1508 OM 1508 OM OM1 1508 -0.550000 15.99940
1509 OM 1509 OM OM1 1509 -0.550000 15.99940
1510 OM 1510 OM OM1 1510 -0.550000 15.99940
1511 OM 1511 OM OM1 1511 -0.550000 15.99940
1512 OM 1512 OM OM1 1512 -0.550000 15.99940
1513 OM 1513 OM OM1 1513 -0.550000 15.99940
1514 OM 1514 OM OM1 1514 -0.550000 15.99940
1515 OM 1515 OM OM1 1515 -0.550000 15.99940
1516 OM 1516 OM OM1 1516 -0.550000 15.99940
1517 OM 1517 OM OM1 1517 -0.550000 15.99940
1518 OM 1518 OM OM1 1518 -0.550000 15.99940
1519 OM 1519 OM OM1 1519 -0.550000 15.99940
1520 OM 1520 OM OM1 1520 -0.550000 15.99940
1521 OM 1521 OM OM1 1521 -0.550000 15.99940
1522 OM 1522 OM OM1 1522 -0.550000 15.99940
1523 OM 1523 OM OM1 1523 -0.550000 15.99940
1524 OM 1524 OM OM1 1524 -0.550000 15.99940
1525 OM 1525 OM OM1 1525 -0.550000 15.99940
1526 OM 1526 OM OM1 1526 -0.550000 15.99940
1527 OM 1527 OM OM1 1527 -0.550000 15.99940
1528 OM 1528 OM OM1 1528 -0.550000 15.99940
1529 OM 1529 OM OM1 1529 -0.550000 15.99940
1530 OM 1530 OM OM1 1530 -0.550000 15.99940
1531 OM 1531 OM OM1 1531 -0.550000 15.99940
1532 OM 1532 OM OM1 1532 -0.550000 15.99940
1533 OM 1533 OM OM1 1533 -0.550000 15.99940
1534 OM 1534 OM OM1 1534 -0.550000 15.99940
1535 OM 1535 OM OM1 1535 -0.550000 15.99940
1536 OM 1536 OM OM1 1536 -0.550000 15.99940
1537 OM 1537 OM OM1 1537 -0.550000 15.99940
1538 OM 1538 OM OM1 1538 -0.550000 15.99940
1539 OM 1539 OM OM1 1539 -0.550000 15.99940
1540 OM 1540 OM OM1 1540 -0.550000 15.99940
1541 OM 1541 OM OM1 1541 -0.550000 15.99940
1542 OM 1542 OM OM1 1542 -0.550000 15.99940
1543 OM 1543 OM OM1 1543 -0.550000 15.99940
1544 OM 1544 OM OM1 1544 -0.550000 15.99940
1545 OM 1545 OM OM1 1545 -0.550000 15.99940
1546 OM 1546 OM OM1 1546 -0.550000 15.99940
1547 OM 1547 OM OM1 1547 -0.550000 15.99940
1548 OM 1548 OM OM1 1548 -0.550000 15.99940
1549 OM 1549 OM OM1 1549 -0.550000 15.99940
1550 OM 1550 OM OM1 1550 -0.550000 15.99940
1551 OM 1551 OM OM1 1551 -0.550000 15.99940
1552 OM 1552 OM OM1 1552 -0.550000 15.99940
1553 OM 1553 OM OM1 1553 -0.550000 15.99940
1554 OM 1554 OM OM1 1554 -0.550000 15.99940
1555 OM 1555 OM OM1 1555 -0.550000 15.99940
1556 OM 1556 OM OM1 1556 -0.550000 15.99940
1557 OM 1557 OM OM1 1557 -0.550000 15.99940
1558 OM 1558 OM OM1 1558 -0.550000 15.99940
1559 OM 1559 OM OM1 1559 -0.550000 15.99940
1560 OM 1560 OM OM1 1560 -0.550000 15.99940
1561 OM 1561 OM OM1 1561 -0.550000 15.99940
1562 OM 1562 OM OM1 1562 -0.550000 15.99940
1563 OM 1563 OM OM1 1563 -0.550000 15.99940
1564 OM 1564 OM OM1 1564 -0.550000 15.99940
1565 OM 1565 OM OM1 1565 -0.550000 15.99940
1566 OM 1566 OM OM1 1566 -0.550000 15.99940
1567 OM 1567 OM OM1 1567 -0.550000 15.99940
1568 OM 1568 OM OM1 1568 -0.550000 15.99940
1569 OM 1569 OM OM1 1569 -0.550000 15.99940
1570 OM 1570 OM OM1 1570 -0.550000 15.99940
1571 OM 1571 OM OM1 1571 -0.550000 15.99940
1572 OM 1572 OM OM1 1572 -0.550000 15.99940
1573 OM 1573 OM OM1 1573 -0.550000 15.99940
1574 OM 1574 OM OM1 1574 -0.550000 15.99940
1575 OM 1575 OM OM1 1575 -0.550000 15.99940
1576 OM 1576 OM OM1 1576 -0.550000 15.99940
1577 OM 1577 OM OM1 1577 -0.550000 15.99940
1578 OM 1578 OM OM1 1578 -0.550000 15.99940
1579 OM 1579 OM OM1 1579 -0.550000 15.99940
1580 OM 1580 OM OM1 1580 -0.550000 15.99940
1581 OM 1581 OM OM1 1581 -0.550000 15.99940
1582 OM 1582 OM OM1 1582 -0.550000 15.99940
1583 OM 1583 OM OM1 1583 -0.550000 15.99940
1584 OM 1584 OM OM1 1584 -0.550000 15.99940
1585 OM 1585 OM OM1 1585 -0.550000 15.99940
1586 OM 1586 OM OM1 1586 -0.550000 15.99940
1587 OM 1587 OM OM1 1587 -0.550000 15.99940
1588 OM 1588 OM OM1 1588 -0.550000 15.99940
1589 OM 1589 OM OM1 1589 -0.550000 15.99940
1590 OM 1590 OM OM1 1590 -0.550000 15.99940
1591 OM 1591 OM OM1 1591 -0.550000 15.99940
1592 OM 1592 OM OM1 1592 -0.550000 15.99940
1593 OM 1593 OM OM1 1593 -0.550000 15.99940
1594 OM 1594 OM OM1 1594 -0.550000 15.99940
1595 OM 1595 OM OM1 1595 -0.550000 15.99940
1596 OM 1596 OM OM1 1596 -0.550000 15.99940
1597 OM 1597 OM OM1 1597 -0.550000 15.99940
1598 OM 1598 OM OM1 1598 -0.550000 15.99940
1599 OM 1599 OM OM1 1599 -0.550000 15.99940
1600 OM 1600 OM OM1 1600 -0.550000 15.99940
1601 OM 1601 OM OM1 1601 -0.550000 15.99940
1602 OM 1602 OM OM1 1602 -0.550000 15.99940
1603 OM 1603 OM OM1 1603 -0.550000 15.99940
1604 OM 1604 OM OM1 1604 -0.550000 15.99940
1605 OM 1605 OM OM1 1605 -0.550000 15.99940
1606 OM 1606 OM OM1 1606 -0.550000 15.99940
1607 OM 1607 OM OM1 1607 -0.550000 15.99940
1608 OM 1608 OM OM1 1608 -0.550000 15.99940
1609 OM 1609 OM OM1 1609 -0.550000 15.99940
1610 OM 1610 OM OM1 1610 -0.550000 15.99940
1611 OM 1611 OM OM1 1611 -0.550000 15.99940
1612 OM 1612 OM OM1 1612 -0.550000 15.99940
1613 OM 1613 OM OM1 1613 -0.550000 15.99940
1614 OM 1614 OM OM1 1614 -0.550000 15.99940
1615 OM 1615 OM OM1 1615 -0.550000 15.99940
1616 OM 1616 OM OM1 1616 -0.550000 15.99940
1617 OM 1617 OM OM1 1617 -0.550000 15.99940
1618 OM 1618 OM OM1 1618 -0.550000 15.99940
1619 OM 1619 OM OM1 1619 -0.550000 15.99940
1620 OM 1620 OM OM1 1620 -0.550000 15.99940
1621 OM 1621 OM OM1 1621 -0.550000 15.99940
1622 OM 1622 OM OM1 1622 -0.550000 15.99940
1623 OM 1623 OM OM1 1623 -0.550000 15.99940
1624 OM 1624 OM OM1 1624 -0.550000 15.99940
1625 OM 1625 OM OM1 1625 -0.550000 15.99940
1626 OM 1626 OM OM1 1626 -0.550000 15.99940
1627 OM 1627 OM OM1 1627 -0.550000 15.99940
1628 OM 1628 OM OM1 1628 -0.550000 15.99940
1629 OM 1629 OM OM1 1629 -0.550000 15.99940
1630 OM 1630 OM OM1 1630 -0.550000 15.99940
1631 OM 1631 OM OM1 1631 -0.550000 15.99940
1632 OM 1632 OM OM1 1632 -0.550000 15.99940
1633 OM 1633 OM OM1 1633 -0.550000 15.99940
1634 OM 1634 OM OM1 1634 -0.550000 15.99940
1635 OM 1635 OM OM1 1635 -0.550000 15.99940
1636 OM 1636 OM OM1 1636 -0.550000 15.99940
1637 OM 1637 OM OM1 1637 -0.550000 15.99940
1638 OM 1638 OM OM1 1638 -0.550000 15.99940
1639 OM 1639 OM OM1 1639 -0.550000 15.99940
1640 OM 1640 OM OM1 1640 -0.550000 15.99940
1641 OM 1641 OM OM1 1641 -0.550000 15.99940
1642 OM 1642 OM OM1 1642 -0.550000 15.99940
1643 OM 1643 OM OM1 1643 -0.550000 15.99940
1644 OM 1644 OM OM1 1644 -0.550000 15.99940
1645 OM 1645 OM OM1 1645 -0.550000 15.99940
1646 OM 1646 OM OM1 1646 -0.550000 15.99940
1647 OM 1647 OM OM1 1647 -0.550000 15.99940
1648 OM 1648 OM OM1 1648 -0.550000 15.99940
1649 OM 1649 OM OM1 1649 -0.550000 15.99940
1650 OM 1650 OM OM1 1650 -0.550000 15.99940
1651 OM 1651 OM OM1 1651 -0.550000 15.99940
1652 OM 1652 OM OM1 1652 -0.550000 15.99940
1653 OM 1653 OM OM1 1653 -0.550000 15.99940
1654 OM 1654 OM OM1 1654 -0.550000 15.99940
1655 OM 1655 OM OM1 1655 -0.550000 15.99940
1656 OM 1656 OM OM1 1656 -0.550000 15.99940
1657 OM 1657 OM OM1 1657 -0.550000 15.99940
1658 OM 1658 OM OM1 1658 -0.550000 15.99940
1659 OM 1659 OM OM1 1659 -0.550000 15.99940
1660 OM 1660 OM OM1 1660 -0.550000 15.99940
1661 OM 1661 OM OM1 1661 -0.550000 15.99940
1662 OM 1662 OM OM1 1662 -0.550000 15.99940
1663 OM 1663 OM OM1 1663 -0.550000 15.99940
1664 OM 1664 OM OM1 1664 -0.550000 15.99940
1665 OM 1665 OM OM1 1665 -0.550000 15.99940
1666 OM 1666 OM OM1 1666 -0.550000 15.99940
1667 OM 1667 OM OM1 1667 -0.550000 15.99940
1668 OM 1668 OM OM1 1668 -0.550000 15.99940
1669 OM 1669 OM OM1 1669 -0.550000 15.99940
1670 OM 1670 OM OM1 1670 -0.550000 15.99940
1671 OM 1671 OM OM1 1671 -0.550000 15.99940
1672 OM 1672 OM OM1 1672 -0.550000 15.99940
1673 OM 1673 OM OM1 1673 -0.550000 15.99940
1674 OM 1674 OM OM1 1674 -0.550000 15.99940
1675 OM 1675 OM OM1 1675 -0.550000 15.99940
1676 OM 1676 OM OM1 1676 -0.550000 15.99940
1677 OM 1677 OM OM1 1677 -0.550000 15.99940
1678 OM 1678 OM OM1 1678 -0.550000 15.99940
1679 OM 1679 OM OM1 1679 -0.550000 15.99940
1680 OM 1680 OM OM1 1680 -0.550000 15.99940
1681 OM 1681 OM OM1 1681 -0.550000 15.99940
1682 OM 1682 OM OM1 1682 -0.550000 15.99940
1683 OM 1683 OM OM1 1683 -0.550000 15.99940
1684 OM 1684 OM OM1 1684 -0.550000 15.99940
1685 OM 1685 OM OM1 1685 -0.550000 15.99940
1686 OM 1686 OM OM1 1686 -0.550000 15.99940
1687 OM 1687 OM OM1 1687 -0.550000 15.99940
1688 OM 1688 OM OM1 1688 -0.550000 15.99940
1689 OM 1689 OM OM1 1689 -0.550000 15.99940
1690 OM 1690 OM OM1 1690 -0.550000 15.99940
1691 OM 1691 OM OM1 1691 -0.550000 15.99940
1692 OM 1692 OM OM1 1692 -0.550000 15.99940
1693 OM 1693 OM OM1 1693 -0.550000 15.99940
1694 OM 1694 OM OM1 1694 -0.550000 15.99940
1695 OM 1695 OM OM1 1695 -0.550000 15.99940
1696 OM 1696 OM OM1 1696 -0.550000 15.99940
1697 OM 1697 OM OM1 1697 -0.550000 15.99940
1698 OM 1698 OM OM1 1698 -0.550000 15.99940
1699 OM 1699 OM OM1 1699 -0.550000 15.99940
1700 OM 1700 OM OM1 1700 -0.550000 15.99940
1701 OM 1701 OM OM1 1701 -0.550000 15.99940
1702 OM 1702 OM OM1 1702 -0.550000 15.99940
1703 OM 1703 OM OM1 1703 -0.550000 15.99940
1704 OM 1704 OM OM1 1704 -0.550000 15.99940
1705 OM 1705 OM OM1 1705 -0.550000 15.99940
1706 OM 1706 OM OM1 1706 -0.550000 15.99940
1707 OM 1707 OM OM1 1707 -0.550000 15.99940
1708 OM 1708 OM OM1 1708 -0.550000 15.99940
1709 OM 1709 OM OM1 1709 -0.550000 15.99940
1710 OM 1710 OM OM1 1710 -0.550000 15.99940
1711 OM 1711 OM OM1 1711 -0.550000 15.99940
1712 OM 1712 OM OM1 1712 -0.550000 15.99940
1713 OM 1713 OM OM1 1713 -0.550000 15.99940
1714 OM 1714 OM OM1 1714 -0.550000 15.99940
1715 OM 1715 OM OM1 1715 -0.550000 15.99940
1716 OM 1716 OM OM1 1716 -0.550000 15.99940
1717 OM 1717 OM OM1 1717 -0.550000 15.99940
1718 OM 1718 OM OM1 1718 -0.550000 15.99940
1719 OM 1719 OM OM1 1719 -0.550000 15.99940
1720 OM 1720 OM OM1 1720 -0.550000 15.99940
1721 OM 1721 OM OM1 1721 -0.550000 15.99940
1722 OM 1722 OM OM1 1722 -0.550000 15.99940
1723 OM 1723 OM OM1 1723 -0.550000 15.99940
1724 OM 1724 OM OM1 1724 -0.550000 15.99940
1725 OM 1725 OM OM1 1725 -0.550000 15.99940
1726 OM 1726 OM OM1 1726 -0.550000 15.99940
1727 OM 1727 OM OM1 1727 -0.550000 15.99940
1728 OM 1728 OM OM1 1728 -0.550000 15.99940
1729 OM 1729 OM OM1 1729 -0.550000 15.99940
1730 OM 1730 OM OM1 1730 -0.550000 15.99940
1731 OM 1731 OM OM1 1731 -0.550000 15.99940
1732 OM 1732 OM OM1 1732 -0.550000 15.99940
1733 OM 1733 OM OM1 1733 -0.550000 15.99940
1734 OM 1734 OM OM1 1734 -0.550000 15.99940
1735 OM 1735 OM OM1 1735 -0.550000 15.99940
1736 OM 1736 OM OM1 1736 -0.550000 15.99940
1737 OM 1737 OM OM1 1737 -0.550000 15.99940
1738 OM 1738 OM OM1 1738 -0.550000 15.99940
1739 OM 1739 OM OM1 1739 -0.550000 15.99940
1740 OM 1740 OM OM1 1740 -0.550000 15.99940
1741 OM 1741 OM OM1 1741 -0.550000 15.99940
1742 OM 1742 OM OM1 1742 -0.550000 15.99940
1743 OM 1743 OM OM1 1743 -0.550000 15.99940
1744 OM 1744 OM OM1 1744 -0.550000 15.99940
1745 OM 1745 OM OM1 1745 -0.550000 15.99940
1746 OM 1746 OM OM1 1746 -0.550000 15.99940
1747 OM 1747 OM OM1 1747 -0.550000 15.99940
1748 OM 1748 OM OM1 1748 -0.550000 15.99940
1749 OM 1749 OM OM1 1749 -0.550000 15.99940
1750 OM 1750 OM OM1 1750 -0.550000 15.99940
1751 OM 1751 OM OM1 1751 -0.550000 15.99940
1752 OM 1752 OM OM1 1752 -0.550000 15.99940
1753 OM 1753 OM OM1 1753 -0.550000 15.99940
1754 OM 1754 OM OM1 1754 -0.550000 15.99940
1755 OM 1755 OM OM1 1755 -0.550000 15.99940
1756 OM 1756 OM OM1 1756 -0.550000 15.99940
1757 OM 1757 OM OM1 1757 -0.550000 15.99940
1758 OM 1758 OM OM1 1758 -0.550000 15.99940
1759 OM 1759 OM OM1 1759 -0.550000 15.99940
1760 OM 1760 OM OM1 1760 -0.550000 15.99940
1761 OM 1761 OM OM1 1761 -0.550000 15.99940
1762 OM 1762 OM OM1 1762 -0.550000 15.99940
1763 OM 1763 OM OM1 1763 -0.550000 15.99940
1764 OM 1764 OM OM1 1764 -0.550000 15.99940
1765 OM 1765 OM OM1 1765 -0.550000 15.99940
1766 OM 1766 OM OM1 1766 -0.550000 15.99940
1767 OM 1767 OM OM1 1767 -0.550000 15.99940
1768 OM 1768 OM OM1 1768 -0.550000 15.99940
1769 OM 1769 OM OM1 1769 -0.550000 15.99940
1770 OM 1770 OM OM1 1770 -0.550000 15.99940
1771 OM 1771 OM OM1 1771 -0.550000 15.99940
1772 OM 1772 OM OM1 1772 -0.550000 15.99940
1773 OM 1773 OM OM1 1773 -0.550000 15.99940
1774 OM 1774 OM OM1 1774 -0.550000 15.99940
1775 OM 1775 OM OM1 1775 -0.550000 15.99940
1776 OM 1776 OM OM1 1776 -0.550000 15.99940
1777 OM 1777 OM OM1 1777 -0.550000 15.99940
1778 OM 1778 OM OM1 1778 -0.550000 15.99940
1779 OM 1779 OM OM1 1779 -0.550000 15.99940
1780 OM 1780 OM OM1 1780 -0.550000 15.99940
1781 OM 1781 OM OM1 1781 -0.550000 15.99940
1782 OM 1782 OM OM1 1782 -0.550000 15.99940
1783 OM 1783 OM OM1 1783 -0.550000 15.99940
1784 OM 1784 OM OM1 1784 -0.550000 15.99940
1785 OM 1785 OM OM1 1785 -0.550000 15.99940
1786 OM 1786 OM OM1 1786 -0.550000 15.99940
1787 OM 1787 OM OM1 1787 -0.550000 15.99940
1788 OM 1788 OM OM1 1788 -0.550000 15.99940
1789 OM 1789 OM OM1 1789 -0.550000 15.99940
1790 OM 1790 OM OM1 1790 -0.550000 15.99940
1791 OM 1791 OM OM1 1791 -0.550000 15.99940
1792 OM 1792 OM OM1 1792 -0.550000 15.99940
1793 OM 1793 OM OM1 1793 -0.550000 15.99940
1794 OM 1794 OM OM1 1794 -0.550000 15.99940
1795 OM 1795 OM OM1 1795 -0.550000 15.99940
1796 OM 1796 OM OM1 1796 -0.550000 15.99940
1797 OM 1797 OM OM1 1797 -0.550000 15.99940
1798 OM 1798 OM OM1 1798 -0.550000 15.99940
1799 OM 1799 OM OM1 1799 -0.550000 15.99940
1800 OM 1800 OM OM1 1800 -0.550000 15.99940
1801 OM 1801 OM OM1 1801 -0.550000 15.99940
1802 OM 1802 OM OM1 1802 -0.550000 15.99940
1803 OM 1803 OM OM1 1803 -0.550000 15.99940
1804 OM 1804 OM OM1 1804 -0.550000 15.99940
1805 OM 1805 OM OM1 1805 -0.550000 15.99940
1806 OM 1806 OM OM1 1806 -0.550000 15.99940
1807 OM 1807 OM OM1 1807 -0.550000 15.99940
1808 OM 1808 OM OM1 1808 -0.550000 15.99940
1809 OM 1809 OM OM1 1809 -0.550000 15.99940
1810 OM 1810 OM OM1 1810 -0.550000 15.99940
1811 OM 1811 OM OM1 1811 -0.550000 15.99940
1812 OM 1812 OM OM1 1812 -0.550000 15.99940
1813 OM 1813 OM OM1 1813 -0.550000 15.99940
1814 OM 1814 OM OM1 1814 -0.550000 15.99940
1815 OM 1815 OM OM1 1815 -0.550000 15.99940
1816 OM 1816 OM OM1 1816 -0.550000 15.99940
1817 OM 1817 OM OM1 1817 -0.550000 15.99940
1818 OM 1818 OM OM1 1818 -0.550000 15.99940
1819 OM 1819 OM OM1 1819 -0.550000 15.99940
1820 OM 1820 OM OM1 1820 -0.550000 15.99940
1821 OM 1821 OM OM1 1821 -0.550000 15.99940
1822 OM 1822 OM OM1 1822 -0.550000 15.99940
1823 OM 1823 OM OM1 1823 -0.550000 15.99940
1824 OM 1824 OM OM1 1824 -0.550000 15.99940
1825 OM 1825 OM OM1 1825 -0.550000 15.99940
1826 OM 1826 OM OM1 1826 -0.550000 15.99940
1827 OM 1827 OM OM1 1827 -0.550000 15.99940
1828 OM 1828 OM OM1 1828 -0.550000 15.99940
1829 OM 1829 OM OM1 1829 -0.550000 15.99940
1830 OM 1830 OM OM1 1830 -0.550000 15.99940
1831 OM 1831 OM OM1 1831 -0.550000 15.99940
1832 OM 1832 OM OM1 1832 -0.550000 15.99940
1833 OM 1833 OM OM1 1833 -0.550000 15.99940
1834 OM 1834 OM OM1 1834 -0.550000 15.99940
1835 OM 1835 OM OM1 1835 -0.550000 15.99940
1836 OM 1836 OM OM1 1836 -0.550000 15.99940
1837 OM 1837 OM OM1 1837 -0.550000 15.99940
1838 OM 1838 OM OM1 1838 -0.550000 15.99940
1839 OM 1839 OM OM1 1839 -0.550000 15.99940
1840 OM 1840 OM OM1 1840 -0.550000 15.99940
1841 OM 1841 OM OM1 1841 -0.550000 15.99940
1842 OM 1842 OM OM1 1842 -0.550000 15.99940
1843 OM 1843 OM OM1 1843 -0.550000 15.99940
1844 OM 1844 OM OM1 1844 -0.550000 15.99940
1845 OM 1845 OM OM1 1845 -0.550000 15.99940
1846 OM 1846 OM OM1 1846 -0.550000 15.99940
1847 OM 1847 OM OM1 1847 -0.550000 15.99940
1848 OM 1848 OM OM1 1848 -0.550000 15.99940
1849 OM 1849 OM OM1 1849 -0.550000 15.99940
1850 OM 1850 OM OM1 1850 -0.550000 15.99940
1851 OM 1851 OM OM1 1851 -0.550000 15.99940
1852 OM 1852 OM OM1 1852 -0.550000 15.99940
1853 OM 1853 OM OM1 1853 -0.550000 15.99940
1854 OM 1854 OM OM1 1854 -0.550000 15.99940
1855 OM 1855 OM OM1 1855 -0.550000 15.99940
1856 OM 1856 OM OM1 1856 -0.550000 15.99940
1857 OM 1857 OM OM1 1857 -0.550000 15.99940
1858 OM 1858 OM OM1 1858 -0.550000 15.99940
1859 OM 1859 OM OM1 1859 -0.550000 15.99940
1860 OM 1860 OM OM1 1860 -0.550000 15.99940
1861 OM 1861 OM OM1 1861 -0.550000 15.99940
1862 OM 1862 OM OM1 1862 -0.550000 15.99940
1863 OM 1863 OM OM1 1863 -0.550000 15.99940
1864 OM 1864 OM OM1 1864 -0.550000 15.99940
1865 OM 1865 OM OM1 1865 -0.550000 15.99940
1866 OM 1866 OM OM1 1866 -0.550000 15.99940
1867 OM 1867 OM OM1 1867 -0.550000 15.99940
1868 OM 1868 OM OM1 1868 -0.550000 15.99940
1869 OM 1869 OM OM1 1869 -0.550000 15.99940
1870 OM 1870 OM OM1 1870 -0.550000 15.99940
1871 OM 1871 OM OM1 1871 -0.550000 15.99940
1872 OM 1872 OM OM1 1872 -0.550000 15.99940
1873 OM 1873 OM OM1 1873 -0.550000 15.99940
1874 OM 1874 OM OM1 1874 -0.550000 15.99940
1875 OM 1875 OM OM1 1875 -0.550000 15.99940
1876 OM 1876 OM OM1 1876 -0.550000 15.99940
1877 OM 1877 OM OM1 1877 -0.550000 15.99940
1878 OM 1878 OM OM1 1878 -0.550000 15.99940
1879 OM 1879 OM OM1 1879 -0.550000 15.99940
1880 OM 1880 OM OM1 1880 -0.550000 15.99940
1881 OM 1881 OM OM1 1881 -0.550000 15.99940
1882 OM 1882 OM OM1 1882 -0.550000 15.99940
1883 OM 1883 OM OM1 1883 -0.550000 15.99940
1884 OM 1884 OM OM1 1884 -0.550000 15.99940
1885 OM 1885 OM OM1 1885 -0.550000 15.99940
1886 OM 1886 OM OM1 1886 -0.550000 15.99940
1887 OM 1887 OM OM1 1887 -0.550000 15.99940
1888 OM 1888 OM OM1 1888 -0.550000 15.99940
1889 OM 1889 OM OM1 1889 -0.550000 15.99940
1890 OM 1890 OM OM1 1890 -0.550000 15.99940
1891 OM 1891 OM OM1 1891 -0.550000 15.99940
1892 OM 1892 OM OM1 1892 -0.550000 15.99940
1893 OM 1893 OM OM1 1893 -0.550000 15.99940
1894 OM 1894 OM OM1 1894 -0.550000 15.99940
1895 OM 1895 OM OM1 1895 -0.550000 15.99940
1896 OM 1896 OM OM1 1896 -0.550000 15.99940
1897 OM 1897 OM OM1 1897 -0.550000 15.99940
1898 OM 1898 OM OM1 1898 -0.550000 15.99940
1899 OM 1899 OM OM1 1899 -0.550000 15.99940
1900 OM 1900 OM OM1 1900 -0.550000 15.99940
1901 OM 1901 OM OM1 1901 -0.550000 15.99940
1902 OM 1902 OM OM1 1902 -0.550000 15.99940
1903 OM 1903 OM OM1 1903 -0.550000 15.99940
1904 OM 1904 OM OM1 1904 -0.550000 15.99940
1905 OM 1905 OM OM1 1905 -0.550000 15.99940
1906 OM 1906 OM OM1 1906 -0.550000 15.99940
1907 OM 1907 OM OM1 1907 -0.550000 15.99940
1908 OM 1908 OM OM1 1908 -0.550000 15.99940
1909 OM 1909 OM OM1 1909 -0.550000 15.99940
1910 OM 1910 OM OM1 1910 -0.550000 15.99940
1911 OM 1911 OM OM1 1911 -0.550000 15.99940
1912 OM 1912 OM OM1 1912 -0.550000 15.99940
1913 OM 1913 OM OM1 1913 -0.550000 15.99940
1914 OM 1914 OM OM1 1914 -0.550000 15.99940
1915 OM 1915 OM OM1 1915 -0.550000 15.99940
1916 OM 1916 OM OM1 1916 -0.550000 15.99940
1917 OM 1917 OM OM1 1917 -0.550000 15.99940
1918 OM 1918 OM OM1 1918 -0.550000 15.99940
1919 OM 1919 OM OM1 1919 -0.550000 15.99940
1920 OM 1920 OM OM1 1920 -0.550000 15.99940
1921 OM 1921 OM OM1 1921 -0.550000 15.99940
1922 OM 1922 OM OM1 1922 -0.550000 15.99940
1923 OM 1923 OM OM1 1923 -0.550000 15.99940
1924 OM 1924 OM OM1 1924 -0.550000 15.99940
1925 OM 1925 OM OM1 1925 -0.550000 15.99940
1926 OM 1926 OM OM1 1926 -0.550000 15.99940
1927 OM 1927 OM OM1 1927 -0.550000 15.99940
1928 OM 1928 OM OM1 1928 -0.550000 15.99940
1929 OM 1929 OM OM1 1929 -0.550000 15.99940
1930 OM 1930 OM OM1 1930 -0.550000 15.99940
1931 OM 1931 OM OM1 1931 -0.550000 15.99940
1932 OM 1932 OM OM1 1932 -0.550000 15.99940
1933 OM 1933 OM OM1 1933 -0.550000 15.99940
1934 OM 1934 OM OM1 1934 -0.550000 15.99940
1935 OM 1935 OM OM1 1935 -0.550000 15.99940
1936 OM 1936 OM OM1 1936 -0.550000 15.99940
1937 OM 1937 OM OM1 1937 -0.550000 15.99940
1938 OM 1938 OM OM1 1938 -0.550000 15.99940
1939 OM 1939 OM OM1 1939 -0.550000 15.99940
1940 OM 1940 OM OM1 1940 -0.550000 15.99940
1941 OM 1941 OM OM1 1941 -0.550000 15.99940
1942 OM 1942 OM OM1 1942 -0.550000 15.99940
1943 OM 1943 OM OM1 1943 -0.550000 15.99940
1944 OM 1944 OM OM1 1944 -0.550000 15.99940
1945 OM 1945 OM OM1 1945 -0.550000 15.99940
1946 OM 1946 OM OM1 1946 -0.550000 15.99940
1947 OM 1947 OM OM1 1947 -0.550000 15.99940
1948 OM 1948 OM OM1 1948 -0.550000 15.99940
1949 OM 1949 OM OM1 1949 -0.550000 15.99940
1950 OM 1950 OM OM1 1950 -0.550000 15.99940
1951 OM 1951 OM OM1 1951 -0.550000 15.99940
1952 OM 1952 OM OM1 1952 -0.550000 15.99940
1953 OM 1953 OM OM1 1953 -0.550000 15.99940
1954 OM 1954 OM OM1 1954 -0.550000 15.99940
1955 OM 1955 OM OM1 1955 -0.550000 15.99940
1956 OM 1956 OM OM1 1956 -0.550000 15.99940
1957 OM 1957 OM OM1 1957 -0.550000 15.99940
1958 OM 1958 OM OM1 1958 -0.550000 15.99940
1959 OM 1959 OM OM1 1959 -0.550000 15.99940
1960 OM 1960 OM OM1 1960 -0.550000 15.99940
1961 OM 1961 OM OM1 1961 -0.550000 15.99940
1962 OM 1962 OM OM1 1962 -0.550000 15.99940
1963 OM 1963 OM OM1 1963 -0.550000 15.99940
1964 OM 1964 OM OM1 1964 -0.550000 15.99940
1965 OM 1965 OM OM1 1965 -0.550000 15.99940
1966 OM 1966 OM OM1 1966 -0.550000 15.99940
1967 OM 1967 OM OM1 1967 -0.550000 15.99940
1968 OM 1968 OM OM1 1968 -0.550000 15.99940
1969 OM 1969 OM OM1 1969 -0.550000 15.99940
1970 OM 1970 OM OM1 1970 -0.550000 15.99940
1971 OM 1971 OM OM1 1971 -0.550000 15.99940
1972 OM 1972 OM OM1 1972 -0.550000 15.99940
1973 OM 1973 OM OM1 1973 -0.550000 15.99940
1974 OM 1974 OM OM1 1974 -0.550000 15.99940
1975 OM 1975 OM OM1 1975 -0.550000 15.99940
1976 OM 1976 OM OM1 1976 -0.550000 15.99940
1977 OM 1977 OM OM1 1977 -0.550000 15.99940
1978 OM 1978 OM OM1 1978 -0.550000 15.99940
1979 OM 1979 OM OM1 1979 -0.550000 15.99940
1980 OM 1980 OM OM1 1980 -0.550000 15.99940
1981 OM 1981 OM OM1 1981 -0.550000 15.99940
1982 OM 1982 OM OM1 1982 -0.550000 15.99940
1983 OM 1983 OM OM1 1983 -0.550000 15.99940
1984 OM 1984 OM OM1 1984 -0.550000 15.99940
1985 OM 1985 OM OM1 1985 -0.550000 15.99940
1986 OM 1986 OM OM1 1986 -0.550000 15.99940
1987 OM 1987 OM OM1 1987 -0.550000 15.99940
1988 OM 1988 OM OM1 1988 -0.550000 15.99940
1989 OM 1989 OM OM1 1989 -0.550000 15.99940
1990 OM 1990 OM OM1 1990 -0.550000 15.99940
1991 OM 1991 OM OM1 1991 -0.550000 15.99940
1992 OM 1992 OM OM1 1992 -0.550000 15.99940
1993 OM 1993 OM OM1 1993 -0.550000 15.99940
1994 OM 1994 OM OM1 1994 -0.550000 15.99940
1995 OM 1995 OM OM1 1995 -0.550000 15.99940
1996 OM 1996 OM OM1 1996 -0.550000 15.99940
1997 OM 1997 OM OM1 1997 -0.550000 15.99940
1998 OM 1998 OM OM1 1998 -0.550000 15.99940
1999 OM 1999 OM OM1 1999 -0.550000 15.99940
2000 OM 2000 OM OM1 2000 -0.550000 15.99940
2001 OM 2001 OM OM1 2001 -0.550000 15.99940
2002 OM 2002 OM OM1 2002 -0.550000 15.99940
2003 OM 2003 OM OM1 2003 -0.550000 15.99940
2004 OM 2004 OM OM1 2004 -0.550000 15.99940
2005 OM 2005 OM OM1 2005 -0.550000 15.99940
2006 OM 2006 OM OM1 2006 -0.550000 15.99940
2007 OM 2007 OM OM1 2007 -0.550000 15.99940
2008 OM 2008 OM OM1 2008 -0.550000 15.99940
2009 OM 2009 OM OM1 2009 -0.550000 15.99940
2010 OM 2010 OM OM1 2010 -0.550000 15.99940
2011 OM 2011 OM OM1 2011 -0.550000 15.99940
2012 OM 2012 OM OM1 2012 -0.550000 15.99940
2013 OM 2013 OM OM1 2013 -0.550000 15.99940
2014 OM 2014 OM OM1 2014 -0.550000 15.99940
2015 OM 2015 OM OM1 2015 -0.550000 15.99940
2016 OM 2016 OM OM1 2016 -0.550000 15.99940
2017 OM 2017 OM OM1 2017 -0.550000 15.99940
2018 OM 2018 OM OM1 2018 -0.550000 15.99940
2019 OM 2019 OM OM1 2019 -0.550000 15.99940
2020 OM 2020 OM OM1 2020 -0.550000 15.99940
2021 OM 2021 OM OM1 2021 -0.550000 15.99940
2022 OM 2022 OM OM1 2022 -0.550000 15.99940
2023 OM 2023 OM OM1 2023 -0.550000 15.99940
2024 OM 2024 OM OM1 2024 -0.550000 15.99940
2025 OM 2025 OM OM1 2025 -0.550000 15.99940
2026 OM 2026 OM OM1 2026 -0.550000 15.99940
2027 OM 2027 OM OM1 2027 -0.550000 15.99940
2028 OM 2028 OM OM1 2028 -0.550000 15.99940
2029 OM 2029 OM OM1 2029 -0.550000 15.99940
2030 OM 2030 OM OM1 2030 -0.550000 15.99940
2031 OM 2031 OM OM1 2031 -0.550000 15.99940
2032 OM 2032 OM OM1 2032 -0.550000 15.99940
2033 OM 2033 OM OM1 2033 -0.550000 15.99940
2034 OM 2034 OM OM1 2034 -0.550000 15.99940
2035 OM 2035 OM OM1 2035 -0.550000 15.99940
2036 OM 2036 OM OM1 2036 -0.550000 15.99940
2037 OM 2037 OM OM1 2037 -0.550000 15.99940
2038 OM 2038 OM OM1 2038 -0.550000 15.99940
2039 OM 2039 OM OM1 2039 -0.550000 15.99940
2040 OM 2040 OM OM1 2040 -0.550000 15.99940
2041 OM 2041 OM OM1 2041 -0.550000 15.99940
2042 OM 2042 OM OM1 2042 -0.550000 15.99940
2043 OM 2043 OM OM1 2043 -0.550000 15.99940
2044 OM 2044 OM OM1 2044 -0.550000 15.99940
2045 OM 2045 OM OM1 2045 -0.550000 15.99940
2046 OM 2046 OM OM1 2046 -0.550000 15.99940
2047 OM 2047 OM OM1 2047 -0.550000 15.99940
2048 OM 2048 OM OM1 2048 -0.550000 15.99940
2049 OM 2049 OM OM1 2049 -0.550000 15.99940
2050 OM 2050 OM OM1 2050 -0.550000 15.99940
2051 OM 2051 OM OM1 2051 -0.550000 15.99940
2052 OM 2052 OM OM1 2052 -0.550000 15.99940
2053 OM 2053 OM OM1 2053 -0.550000 15.99940
2054 OM 2054 OM OM1 2054 -0.550000 15.99940
2055 OM 2055 OM OM1 2055 -0.550000 15.99940
2056 OM 2056 OM OM1 2056 -0.550000 15.99940
2057 OM 2057 OM OM1 2057 -0.550000 15.99940
2058 OM 2058 OM OM1 2058 -0.550000 15.99940
2059 OM 2059 OM OM1 2059 -0.550000 15.99940
2060 OM 2060 OM OM1 2060 -0.550000 15.99940
2061 OM 2061 OM OM1 2061 -0.550000 15.99940
2062 OM 2062 OM OM1 2062 -0.550000 15.99940
2063 OM 2063 OM OM1 2063 -0.550000 15.99940
2064 OM 2064 OM OM1 2064 -0.550000 15.99940
2065 OM 2065 OM OM1 2065 -0.550000 15.99940
2066 OM 2066 OM OM1 2066 -0.550000 15.99940
2067 OM 2067 OM OM1 2067 -0.550000 15.99940
2068 OM 2068 OM OM1 2068 -0.550000 15.99940
2069 OM 2069 OM OM1 2069 -0.550000 15.99940
2070 OM 2070 OM OM1 2070 -0.550000 15.99940
2071 OM 2071 OM OM1 2071 -0.550000 15.99940
2072 OM 2072 OM OM1 2072 -0.550000 15.99940
2073 OM 2073 OM OM1 2073 -0.550000 15.99940
2074 OM 2074 OM OM1 2074 -0.550000 15.99940
2075 OM 2075 OM OM1 2075 -0.550000 15.99940
2076 OM 2076 OM OM1 2076 -0.550000 15.99940
2077 OM 2077 OM OM1 2077 -0.550000 15.99940
2078 OM 2078 OM OM1 2078 -0.550000 15.99940
2079 OM 2079 OM OM1 2079 -0.550000 15.99940
2080 OM 2080 OM OM1 2080 -0.550000 15.99940
2081 OM 2081 OM OM1 2081 -0.550000 15.99940
2082 OM 2082 OM OM1 2082 -0.550000 15.99940
2083 OM 2083 OM OM1 2083 -0.550000 15.99940
2084 OM 2084 OM OM1 2084 -0.550000 15.99940
2085 OM 2085 OM OM1 2085 -0.550000 15.99940
2086 OM 2086 OM OM1 2086 -0.550000 15.99940
2087 OM 2087 OM OM1 2087 -0.550000 15.99940
2088 OM 2088 OM OM1 2088 -0.550000 15.99940
2089 OM 2089 OM OM1 2089 -0.550000 15.99940
2090 OM 2090 OM OM1 2090 -0.550000 15.99940
2091 OM 2091 OM OM1 2091 -0.550000 15.99940
2092 OM 2092 OM OM1 2092 -0.550000 15.99940
2093 OM 2093 OM OM1 2093 -0.550000 15.99940
2094 OM 2094 OM OM1 2094 -0.550000 15.99940
2095 OM 2095 OM OM1 2095 -0.550000 15.99940
2096 OM 2096 OM OM1 2096 -0.550000 15.99940
2097 OM 2097 OM OM1 2097 -0.550000 15.99940
2098 OM 2098 OM OM1 2098 -0.550000 15.99940
2099 OM 2099 OM OM1 2099 -0.550000 15.99940
2100 OM 2100 OM OM1 2100 -0.550000 15.99940
2101 OM 2101 OM OM1 2101 -0.550000 15.99940
2102 OM 2102 OM OM1 2102 -0.550000 15.99940
2103 OM 2103 OM OM1 2103 -0.550000 15.99940
2104 OM 2104 OM OM1 2104 -0.550000 15.99940
2105 OM 2105 OM OM1 2105 -0.550000 15.99940
2106 OM 2106 OM OM1 2106 -0.550000 15.99940
2107 OM 2107 OM OM1 2107 -0.550000 15.99940
2108 OM 2108 OM OM1 2108 -0.550000 15.99940
2109 OM 2109 OM OM1 2109 -0.550000 15.99940
2110 OM 2110 OM OM1 2110 -0.550000 15.99940
2111 OM 2111 OM OM1 2111 -0.550000 15.99940
2112 OM 2112 OM OM1 2112 -0.550000 15.99940
2113 OM 2113 OM OM1 2113 -0.550000 15.99940
2114 OM 2114 OM OM1 2114 -0.550000 15.99940
2115 OM 2115 OM OM1 2115 -0.550000 15.99940
2116 OM 2116 OM OM1 2116 -0.550000 15.99940
2117 OM 2117 OM OM1 2117 -0.550000 15.99940
2118 OM 2118 OM OM1 2118 -0.550000 15.99940
2119 OM 2119 OM OM1 2119 -0.550000 15.99940
2120 OM 2120 OM OM1 2120 -0.550000 15.99940
2121 OM 2121 OM OM1 2121 -0.550000 15.99940
2122 OM 2122 OM OM1 2122 -0.550000 15.99940
2123 OM 2123 OM OM1 2123 -0.550000 15.99940
2124 OM 2124 OM OM1 2124 -0.550000 15.99940
2125 OM 2125 OM OM1 2125 -0.550000 15.99940
2126 OM 2126 OM OM1 2126 -0.550000 15.99940
2127 OM 2127 OM OM1 2127 -0.550000 15.99940
2128 OM 2128 OM OM1 2128 -0.550000 15.99940
2129 OM 2129 OM OM1 2129 -0.550000 15.99940
2130 OM 2130 OM OM1 2130 -0.550000 15.99940
2131 OM 2131 OM OM1 2131 -0.550000 15.99940
2132 OM 2132 OM OM1 2132 -0.550000 15.99940
2133 OM 2133 OM OM1 2133 -0.550000 15.99940
2134 OM 2134 OM OM1 2134 -0.550000 15.99940
2135 OM 2135 OM OM1 2135 -0.550000 15.99940
2136 OM 2136 OM OM1 2136 -0.550000 15.99940
2137 OM 2137 OM OM1 2137 -0.550000 15.99940
2138 OM 2138 OM OM1 2138 -0.550000 15.99940
2139 OM 2139 OM OM1 2139 -0.550000 15.99940
2140 OM 2140 OM OM1 2140 -0.550000 15.99940
2141 OM 2141 OM OM1 2141 -0.550000 15.99940
2142 OM 2142 OM OM1 2142 -0.550000 15.99940
2143 OM 2143 OM OM1 2143 -0.550000 15.99940
2144 OM 2144 OM OM1 2144 -0.550000 15.99940
2145 OM 2145 OM OM1 2145 -0.550000 15.99940
2146 OM 2146 OM OM1 2146 -0.550000 15.99940
2147 OM 2147 OM OM1 2147 -0.550000 15.99940
2148 OM 2148 OM OM1 2148 -0.550000 15.99940
2149 OM 2149 OM OM1 2149 -0.550000 15.99940
2150 OM 2150 OM OM1 2150 -0.550000 15.99940
2151 OM 2151 OM OM1 2151 -0.550000 15.99940
2152 OM 2152 OM OM1 2152 -0.550000 15.99940
2153 OM 2153 OM OM1 2153 -0.550000 15.99940
2154 OM 2154 OM OM1 2154 -0.550000 15.99940
2155 OM 2155 OM OM1 2155 -0.550000 15.99940
2156 OM 2156 OM OM1 2156 -0.550000 15.99940
2157 OM 2157 OM OM1 2157 -0.550000 15.99940
2158 OM 2158 OM OM1 2158 -0.550000 15.99940
2159 OM 2159 OM OM1 2159 -0.550000 15.99940
2160 OM 2160 OM OM1 2160 -0.550000 15.99940
2161 OM 2161 OM OM1 2161 -0.550000 15.99940
2162 OM 2162 OM OM1 2162 -0.550000 15.99940
2163 OM 2163 OM OM1 2163 -0.550000 15.99940
2164 OM 2164 OM OM1 2164 -0.550000 15.99940
2165 OM 2165 OM OM1 2165 -0.550000 15.99940
2166 OM 2166 OM OM1 2166 -0.550000 15.99940
2167 OM 2167 OM OM1 2167 -0.550000 15.99940
2168 OM 2168 OM OM1 2168 -0.550000 15.99940
2169 OM 2169 OM OM1 2169 -0.550000 15.99940
2170 OM 2170 OM OM1 2170 -0.550000 15.99940
2171 OM 2171 OM OM1 2171 -0.550000 15.99940
2172 OM 2172 OM OM1 2172 -0.550000 15.99940
2173 OM 2173 OM OM1 2173 -0.550000 15.99940
2174 OM 2174 OM OM1 2174 -0.550000 15.99940
2175 OM 2175 OM OM1 2175 -0.550000 15.99940
2176 OM 2176 OM OM1 2176 -0.550000 15.99940
2177 OM 2177 OM OM1 2177 -0.550000 15.99940
2178 OM 2178 OM OM1 2178 -0.550000 15.99940
2179 OM 2179 OM OM1 2179 -0.550000 15.99940
2180 OM 2180 OM OM1 2180 -0.550000 15.99940
2181 OM 2181 OM OM1 2181 -0.550000 15.99940
2182 OM 2182 OM OM1 2182 -0.550000 15.99940
2183 OM 2183 OM OM1 2183 -0.550000 15.99940
2184 OM 2184 OM OM1 2184 -0.550000 15.99940
2185 OM 2185 OM OM1 2185 -0.550000 15.99940
2186 OM 2186 OM OM1 2186 -0.550000 15.99940
2187 OM 2187 OM OM1 2187 -0.550000 15.99940
2188 OM 2188 OM OM1 2188 -0.550000 15.99940
2189 OM 2189 OM OM1 2189 -0.550000 15.99940
2190 OM 2190 OM OM1 2190 -0.550000 15.99940
2191 OM 2191 OM OM1 2191 -0.550000 15.99940
2192 OM 2192 OM OM1 2192 -0.550000 15.99940
2193 OM 2193 OM OM1 2193 -0.550000 15.99940
2194 OM 2194 OM OM1 2194 -0.550000 15.99940
2195 OM 2195 OM OM1 2195 -0.550000 15.99940
2196 OM 2196 OM OM1 2196 -0.550000 15.99940
2197 OM 2197 OM OM1 2197 -0.550000 15.99940
2198 OM 2198 OM OM1 2198 -0.550000 15.99940
2199 OM 2199 OM OM1 2199 -0.550000 15.99940
2200 OM 2200 OM OM1 2200 -0.550000 15.99940
2201 OM 2201 OM OM1 2201 -0.550000 15.99940
2202 OM 2202 OM OM1 2202 -0.550000 15.99940
2203 OM 2203 OM OM1 2203 -0.550000 15.99940
2204 OM 2204 OM OM1 2204 -0.550000 15.99940
2205 OM 2205 OM OM1 2205 -0.550000 15.99940
2206 OM 2206 OM OM1 2206 -0.550000 15.99940
2207 OM 2207 OM OM1 2207 -0.550000 15.99940
2208 OM 2208 OM OM1 2208 -0.550000 15.99940
2209 OM 2209 OM OM1 2209 -0.550000 15.99940
2210 OM 2210 OM OM1 2210 -0.550000 15.99940
2211 OM 2211 OM OM1 2211 -0.550000 15.99940
2212 OM 2212 OM OM1 2212 -0.550000 15.99940
2213 OM 2213 OM OM1 2213 -0.550000 15.99940
2214 OM 2214 OM OM1 2214 -0.550000 15.99940
2215 OM 2215 OM OM1 2215 -0.550000 15.99940
2216 OM 2216 OM OM1 2216 -0.550000 15.99940
2217 OM 2217 OM OM1 2217 -0.550000 15.99940
2218 OM 2218 OM OM1 2218 -0.550000 15.99940
2219 OM 2219 OM OM1 2219 -0.550000 15.99940
2220 OM 2220 OM OM1 2220 -0.550000 15.99940
2221 OM 2221 OM OM1 2221 -0.550000 15.99940
2222 OM 2222 OM OM1 2222 -0.550000 15.99940
2223 OM 2223 OM OM1 2223 -0.550000 15.99940
2224 OM 2224 OM OM1 2224 -0.550000 15.99940
2225 OM 2225 OM OM1 2225 -0.550000 15.99940
2226 OM 2226 OM OM1 2226 -0.550000 15.99940
2227 OM 2227 OM OM1 2227 -0.550000 15.99940
2228 OM 2228 OM OM1 2228 -0.550000 15.99940
2229 OM 2229 OM OM1 2229 -0.550000 15.99940
2230 OM 2230 OM OM1 2230 -0.550000 15.99940
2231 OM 2231 OM OM1 2231 -0.550000 15.99940
2232 OM 2232 OM OM1 2232 -0.550000 15.99940
2233 OM 2233 OM OM1 2233 -0.550000 15.99940
2234 OM 2234 OM OM1 2234 -0.550000 15.99940
2235 OM 2235 OM OM1 2235 -0.550000 15.99940
2236 OM 2236 OM OM1 2236 -0.550000 15.99940
2237 OM 2237 OM OM1 2237 -0.550000 15.99940
2238 OM 2238 OM OM1 2238 -0.550000 15.99940
2239 OM 2239 OM OM1 2239 -0.550000 15.99940
2240 OM 2240 OM OM1 2240 -0.550000 15.99940
2241 OM 2241 OM OM1 2241 -0.550000 15.99940
2242 OM 2242 OM OM1 2242 -0.550000 15.99940
2243 OM 2243 OM OM1 2243 -0.550000 15.99940
2244 OM 2244 OM OM1 2244 -0.550000 15.99940
2245 OM 2245 OM OM1 2245 -0.550000 15.99940
2246 OM 2246 OM OM1 2246 -0.550000 15.99940
2247 OM 2247 OM OM1 2247 -0.550000 15.99940
2248 OM 2248 OM OM1 2248 -0.550000 15.99940
2249 OM 2249 OM OM1 2249 -0.550000 15.99940
2250 OM 2250 OM OM1 2250 -0.550000 15.99940
2251 OM 2251 OM OM1 2251 -0.550000 15.99940
2252 OM 2252 OM OM1 2252 -0.550000 15.99940
2253 OM 2253 OM OM1 2253 -0.550000 15.99940
2254 OM 2254 OM OM1 2254 -0.550000 15.99940
2255 OM 2255 OM OM1 2255 -0.550000 15.99940
2256 OM 2256 OM OM1 2256 -0.550000 15.99940
2257 OM 2257 OM OM1 2257 -0.550000 15.99940
2258 OM 2258 OM OM1 2258 -0.550000 15.99940
2259 OM 2259 OM OM1 2259 -0.550000 15.99940
2260 OM 2260 OM OM1 2260 -0.550000 15.99940
2261 OM 2261 OM OM1 2261 -0.550000 15.99940
2262 OM 2262 OM OM1 2262 -0.550000 15.99940
2263 OM 2263 OM OM1 2263 -0.550000 15.99940
2264 OM 2264 OM OM1 2264 -0.550000 15.99940
2265 OM 2265 OM OM1 2265 -0.550000 15.99940
2266 OM 2266 OM OM1 2266 -0.550000 15.99940
2267 OM 2267 OM OM1 2267 -0.550000 15.99940
2268 OM 2268 OM OM1 2268 -0.550000 15.99940
2269 OM 2269 OM OM1 2269 -0.550000 15.99940
2270 OM 2270 OM OM1 2270 -0.550000 15.99940
2271 OM 2271 OM OM1 2271 -0.550000 15.99940
2272 OM 2272 OM OM1 2272 -0.550000 15.99940
2273 OM 2273 OM OM1 2273 -0.550000 15.99940
2274 OM 2274 OM OM1 2274 -0.550000 15.99940
2275 OM 2275 OM OM1 2275 -0.550000 15.99940
2276 OM 2276 OM OM1 2276 -0.550000 15.99940
2277 OM 2277 OM OM1 2277 -0.550000 15.99940
2278 OM 2278 OM OM1 2278 -0.550000 15.99940
2279 OM 2279 OM OM1 2279 -0.550000 15.99940
2280 OM 2280 OM OM1 2280 -0.550000 15.99940
2281 OM 2281 OM OM1 2281 -0.550000 15.99940
2282 OM 2282 OM OM1 2282 -0.550000 15.99940
2283 OM 2283 OM OM1 2283 -0.550000 15.99940
2284 OM 2284 OM OM1 2284 -0.550000 15.99940
2285 OM 2285 OM OM1 2285 -0.550000 15.99940
2286 OM 2286 OM OM1 2286 -0.550000 15.99940
2287 OM 2287 OM OM1 2287 -0.550000 15.99940
2288 OM 2288 OM OM1 2288 -0.550000 15.99940
2289 OM 2289 OM OM1 2289 -0.550000 15.99940
2290 OM 2290 OM OM1 2290 -0.550000 15.99940
2291 OM 2291 OM OM1 2291 -0.550000 15.99940
2292 OM 2292 OM OM1 2292 -0.550000 15.99940
2293 OM 2293 OM OM1 2293 -0.550000 15.99940
2294 OM 2294 OM OM1 2294 -0.550000 15.99940
2295 OM 2295 OM OM1 2295 -0.550000 15.99940
2296 OM 2296 OM OM1 2296 -0.550000 15.99940
2297 OM 2297 OM OM1 2297 -0.550000 15.99940
2298 OM 2298 OM OM1 2298 -0.550000 15.99940
2299 OM 2299 OM OM1 2299 -0.550000 15.99940
2300 OM 2300 OM OM1 2300 -0.550000 15.99940
2301 OM 2301 OM OM1 2301 -0.550000 15.99940
2302 OM 2302 OM OM1 2302 -0.550000 15.99940
2303 OM 2303 OM OM1 2303 -0.550000 15.99940
2304 OM 2304 OM OM1 2304 -0.550000 15.99940
2305 OM 2305 OM OM1 2305 -0.550000 15.99940
2306 OM 2306 OM OM1 2306 -0.550000 15.99940
2307 OM 2307 OM OM1 2307 -0.550000 15.99940
2308 OM 2308 OM OM1 2308 -0.550000 15.99940
2309 OM 2309 OM OM1 2309 -0.550000 15.99940
2310 OM 2310 OM OM1 2310 -0.550000 15.99940
2311 OM 2311 OM OM1 2311 -0.550000 15.99940
2312 OM 2312 OM OM1 2312 -0.550000 15.99940
2313 OM 2313 OM OM1 2313 -0.550000 15.99940
2314 OM 2314 OM OM1 2314 -0.550000 15.99940
2315 OM 2315 OM OM1 2315 -0.550000 15.99940
2316 OM 2316 OM OM1 2316 -0.550000 15.99940
2317 OM 2317 OM OM1 2317 -0.550000 15.99940
2318 OM 2318 OM OM1 2318 -0.550000 15.99940
2319 OM 2319 OM OM1 2319 -0.550000 15.99940
2320 OM 2320 OM OM1 2320 -0.550000 15.99940
2321 OM 2321 OM OM1 2321 -0.550000 15.99940
2322 OM 2322 OM OM1 2322 -0.550000 15.99940
2323 OM 2323 OM OM1 2323 -0.550000 15.99940
2324 OM 2324 OM OM1 2324 -0.550000 15.99940
2325 OM 2325 OM OM1 2325 -0.550000 15.99940
2326 OM 2326 OM OM1 2326 -0.550000 15.99940
2327 OM 2327 OM OM1 2327 -0.550000 15.99940
2328 OM 2328 OM OM1 2328 -0.550000 15.99940
2329 OM 2329 OM OM1 2329 -0.550000 15.99940
2330 OM 2330 OM OM1 2330 -0.550000 15.99940
2331 OM 2331 OM OM1 2331 -0.550000 15.99940
2332 OM 2332 OM OM1 2332 -0.550000 15.99940
2333 OM 2333 OM OM1 2333 -0.550000 15.99940
2334 OM 2334 OM OM1 2334 -0.550000 15.99940
2335 OM 2335 OM OM1 2335 -0.550000 15.99940
2336 OM 2336 OM OM1 2336 -0.550000 15.99940
2337 OM 2337 OM OM1 2337 -0.550000 15.99940
2338 OM 2338 OM OM1 2338 -0.550000 15.99940
2339 OM 2339 OM OM1 2339 -0.550000 15.99940
2340 OM 2340 OM OM1 2340 -0.550000 15.99940
2341 OM 2341 OM OM1 2341 -0.550000 15.99940
2342 OM 2342 OM OM1 2342 -0.550000 15.99940
2343 OM 2343 OM OM1 2343 -0.550000 15.99940
2344 OM 2344 OM OM1 2344 -0.550000 15.99940
2345 OM 2345 OM OM1 2345 -0.550000 15.99940
2346 OM 2346 OM OM1 2346 -0.550000 15.99940
2347 OM 2347 OM OM1 2347 -0.550000 15.99940
2348 OM 2348 OM OM1 2348 -0.550000 15.99940
2349 OM 2349 OM OM1 2349 -0.550000 15.99940
2350 OM 2350 OM OM1 2350 -0.550000 15.99940
2351 OM 2351 OM OM1 2351 -0.550000 15.99940
2352 OM 2352 OM OM1 2352 -0.550000 15.99940
2353 OM 2353 OM OM1 2353 -0.550000 15.99940
2354 OM 2354 OM OM1 2354 -0.550000 15.99940
2355 OM 2355 OM OM1 2355 -0.550000 15.99940
2356 OM 2356 OM OM1 2356 -0.550000 15.99940
2357 OM 2357 OM OM1 2357 -0.550000 15.99940
2358 OM 2358 OM OM1 2358 -0.550000 15.99940
2359 OM 2359 OM OM1 2359 -0.550000 15.99940
2360 OM 2360 OM OM1 2360 -0.550000 15.99940
2361 OM 2361 OM OM1 2361 -0.550000 15.99940
2362 OM 2362 OM OM1 2362 -0.550000 15.99940
2363 OM 2363 OM OM1 2363 -0.550000 15.99940
2364 OM 2364 OM OM1 2364 -0.550000 15.99940
2365 OM 2365 OM OM1 2365 -0.550000 15.99940
2366 OM 2366 OM OM1 2366 -0.550000 15.99940
2367 OM 2367 OM OM1 2367 -0.550000 15.99940
2368 OM 2368 OM OM1 2368 -0.550000 15.99940
2369 OM 2369 OM OM1 2369 -0.550000 15.99940
2370 OM 2370 OM OM1 2370 -0.550000 15.99940
2371 OM 2371 OM OM1 2371 -0.550000 15.99940
2372 OM 2372 OM OM1 2372 -0.550000 15.99940
2373 OM 2373 OM OM1 2373 -0.550000 15.99940
2374 OM 2374 OM OM1 2374 -0.550000 15.99940
2375 OM 2375 OM OM1 2375 -0.550000 15.99940
2376 OM 2376 OM OM1 2376 -0.550000 15.99940
2377 OM 2377 OM OM1 2377 -0.550000 15.99940
2378 OM 2378 OM OM1 2378 -0.550000 15.99940
2379 OM 2379 OM OM1 2379 -0.550000 15.99940
2380 OM 2380 OM OM1 2380 -0.550000 15.99940
2381 OM 2381 OM OM1 2381 -0.550000 15.99940
2382 OM 2382 OM OM1 2382 -0.550000 15.99940
2383 OM 2383 OM OM1 2383 -0.550000 15.99940
2384 OM 2384 OM OM1 2384 -0.550000 15.99940
2385 OM 2385 OM OM1 2385 -0.550000 15.99940
2386 OM 2386 OM OM1 2386 -0.550000 15.99940
2387 OM 2387 OM OM1 2387 -0.550000 15.99940
2388 OM 2388 OM OM1 2388 -0.550000 15.99940
2389 OM 2389 OM OM1 2389 -0.550000 15.99940
2390 OM 2390 OM OM1 2390 -0.550000 15.99940
2391 OM 2391 OM OM1 2391 -0.550000 15.99940
2392 OM 2392 OM OM1 2392 -0.550000 15.99940
2393 OM 2393 OM OM1 2393 -0.550000 15.99940
2394 OM 2394 OM OM1 2394 -0.550000 15.99940
2395 OM 2395 OM OM1 2395 -0.550000 15.99940
2396 OM 2396 OM OM1 2396 -0.550000 15.99940
2397 OM 2397 OM OM1 2397 -0.550000 15.99940
2398 OM 2398 OM OM1 2398 -0.550000 15.99940
2399 OM 2399 OM OM1 2399 -0.550000 15.99940
2400 OM 2400 OM OM1 2400 -0.550000 15.99940
2401 OM 2401 OM OM1 2401 -0.550000 15.99940
2402 OM 2402 OM OM1 2402 -0.550000 15.99940
2403 OM 2403 OM OM1 2403 -0.550000 15.99940
2404 OM 2404 OM OM1 2404 -0.550000 15.99940
2405 OM 2405 OM OM1 2405 -0.550000 15.99940
2406 OM 2406 OM OM1 2406 -0.550000 15.99940
2407 OM 2407 OM OM1 2407 -0.550000 15.99940
2408 OM 2408 OM OM1 2408 -0.550000 15.99940
2409 OM 2409 OM OM1 2409 -0.550000 15.99940
2410 OM 2410 OM OM1 2410 -0.550000 15.99940
2411 OM 2411 OM OM1 2411 -0.550000 15.99940
2412 OM 2412 OM OM1 2412 -0.550000 15.99940
2413 OM 2413 OM OM1 2413 -0.550000 15.99940
2414 OM 2414 OM OM1 2414 -0.550000 15.99940
2415 OM 2415 OM OM1 2415 -0.550000 15.99940
2416 OM 2416 OM OM1 2416 -0.550000 15.99940
2417 OM 2417 OM OM1 2417 -0.550000 15.99940
2418 OM 2418 OM OM1 2418 -0.550000 15.99940
2419 OM 2419 OM OM1 2419 -0.550000 15.99940
2420 OM 2420 OM OM1 2420 -0.550000 15.99940
2421 OM 2421 OM OM1 2421 -0.550000 15.99940
2422 OM 2422 OM OM1 2422 -0.550000 15.99940
2423 OM 2423 OM OM1 2423 -0.550000 15.99940
2424 OM 2424 OM OM1 2424 -0.550000 15.99940
2425 OM 2425 OM OM1 2425 -0.550000 15.99940
2426 OM 2426 OM OM1 2426 -0.550000 15.99940
2427 OM 2427 OM OM1 2427 -0.550000 15.99940
2428 OM 2428 OM OM1 2428 -0.550000 15.99940
2429 OM 2429 OM OM1 2429 -0.550000 15.99940
2430 OM 2430 OM OM1 2430 -0.550000 15.99940
2431 OM 2431 OM OM1 2431 -0.550000 15.99940
2432 OM 2432 OM OM1 2432 -0.550000 15.99940
2433 OM 2433 OM OM1 2433 -0.550000 15.99940
2434 OM 2434 OM OM1 2434 -0.550000 15.99940
2435 OM 2435 OM OM1 2435 -0.550000 15.99940
2436 OM 2436 OM OM1 2436 -0.550000 15.99940
2437 OM 2437 OM OM1 2437 -0.550000 15.99940
2438 OM 2438 OM OM1 2438 -0.550000 15.99940
2439 OM 2439 OM OM1 2439 -0.550000 15.99940
2440 OM 2440 OM OM1 2440 -0.550000 15.99940
2441 OM 2441 OM OM1 2441 -0.550000 15.99940
2442 OM 2442 OM OM1 2442 -0.550000 15.99940
2443 OM 2443 OM OM1 2443 -0.550000 15.99940
2444 OM 2444 OM OM1 2444 -0.550000 15.99940
2445 OM 2445 OM OM1 2445 -0.550000 15.99940
2446 OM 2446 OM OM1 2446 -0.550000 15.99940
2447 OM 2447 OM OM1 2447 -0.550000 15.99940
2448 OM 2448 OM OM1 2448 -0.550000 15.99940
2449 OM 2449 OM OM1 2449 -0.550000 15.99940
2450 OM 2450 OM OM1 2450 -0.550000 15.99940
2451 OM 2451 OM OM1 2451 -0.550000 15.99940
2452 OM 2452 OM OM1 2452 -0.550000 15.99940
2453 OM 2453 OM OM1 2453 -0.550000 15.99940
2454 OM 2454 OM OM1 2454 -0.550000 15.99940
2455 OM 2455 OM OM1 2455 -0.550000 15.99940
2456 OM 2456 OM OM1 2456 -0.550000 15.99940
2457 OM 2457 OM OM1 2457 -0.550000 15.99940
2458 OM 2458 OM OM1 2458 -0.550000 15.99940
2459 OM 2459 OM OM1 2459 -0.550000 15.99940
2460 OM 2460 OM OM1 2460 -0.550000 15.99940
2461 OM 2461 OM OM1 2461 -0.550000 15.99940
2462 OM 2462 OM OM1 2462 -0.550000 15.99940
2463 OM 2463 OM OM1 2463 -0.550000 15.99940
2464 OM 2464 OM OM1 2464 -0.550000 15.99940
2465 OM 2465 OM OM1 2465 -0.550000 15.99940
2466 OM 2466 OM OM1 2466 -0.550000 15.99940
2467 OM 2467 OM OM1 2467 -0.550000 15.99940
2468 OM 2468 OM OM1 2468 -0.550000 15.99940
2469 OM 2469 OM OM1 2469 -0.550000 15.99940
2470 OM 2470 OM OM1 2470 -0.550000 15.99940
2471 OM 2471 OM OM1 2471 -0.550000 15.99940
2472 OM 2472 OM OM1 2472 -0.550000 15.99940
2473 OM 2473 OM OM1 2473 -0.550000 15.99940
2474 OM 2474 OM OM1 2474 -0.550000 15.99940
2475 OM 2475 OM OM1 2475 -0.550000 15.99940
2476 OM 2476 OM OM1 2476 -0.550000 15.99940
2477 OM 2477 OM OM1 2477 -0.550000 15.99940
2478 OM 2478 OM OM1 2478 -0.550000 15.99940
2479 OM 2479 OM OM1 2479 -0.550000 15.99940
2480 OM 2480 OM OM1 2480 -0.550000 15.99940
2481 OM 2481 OM OM1 2481 -0.550000 15.99940
2482 OM 2482 OM OM1 2482 -0.550000 15.99940
2483 OM 2483 OM OM1 2483 -0.550000 15.99940
2484 OM 2484 OM OM1 2484 -0.550000 15.99940
2485 OM 2485 OM OM1 2485 -0.550000 15.99940
2486 OM 2486 OM OM1 2486 -0.550000 15.99940
2487 OM 2487 OM OM1 2487 -0.550000 15.99940
2488 OM 2488 OM OM1 2488 -0.550000 15.99940
2489 OM 2489 OM OM1 2489 -0.550000 15.99940
2490 OM 2490 OM OM1 2490 -0.550000 15.99940
2491 OM 2491 OM OM1 2491 -0.550000 15.99940
2492 OM 2492 OM OM1 2492 -0.550000 15.99940
2493 OM 2493 OM OM1 2493 -0.550000 15.99940
2494 OM 2494 OM OM1 2494 -0.550000 15.99940
2495 OM 2495 OM OM1 2495 -0.550000 15.99940
2496 OM 2496 OM OM1 2496 -0.550000 15.99940
2497 OM 2497 OM OM1 2497 -0.550000 15.99940
2498 OM 2498 OM OM1 2498 -0.550000 15.99940
2499 OM 2499 OM OM1 2499 -0.550000 15.99940
2500 OM 2500 OM OM1 2500 -0.550000 15.99940
2501 OM 2501 OM OM1 2501 -0.550000 15.99940
2502 OM 2502 OM OM1 2502 -0.550000 15.99940
2503 OM 2503 OM OM1 2503 -0.550000 15.99940
2504 OM 2504 OM OM1 2504 -0.550000 15.99940
2505 OM 2505 OM OM1 2505 -0.550000 15.99940
2506 OM 2506 OM OM1 2506 -0.550000 15.99940
2507 OM 2507 OM OM1 2507 -0.550000 15.99940
2508 OM 2508 OM OM1 2508 -0.550000 15.99940
2509 OM 2509 OM OM1 2509 -0.550000 15.99940
2510 OM 2510 OM OM1 2510 -0.550000 15.99940
2511 OM 2511 OM OM1 2511 -0.550000 15.99940
2512 OM 2512 OM OM1 2512 -0.550000 15.99940
2513 OM 2513 OM OM1 2513 -0.550000 15.99940
2514 OM 2514 OM OM1 2514 -0.550000 15.99940
2515 OM 2515 OM OM1 2515 -0.550000 15.99940
2516 OM 2516 OM OM1 2516 -0.550000 15.99940
2517 OM 2517 OM OM1 2517 -0.550000 15.99940
2518 OM 2518 OM OM1 2518 -0.550000 15.99940
2519 OM 2519 OM OM1 2519 -0.550000 15.99940
2520 OM 2520 OM OM1 2520 -0.550000 15.99940
2521 OM 2521 OM OM1 2521 -0.550000 15.99940
2522 OM 2522 OM OM1 2522 -0.550000 15.99940
2523 OM 2523 OM OM1 2523 -0.550000 15.99940
2524 OM 2524 OM OM1 2524 -0.550000 15.99940
2525 OM 2525 OM OM1 2525 -0.550000 15.99940
2526 OM 2526 OM OM1 2526 -0.550000 15.99940
2527 OM 2527 OM OM1 2527 -0.550000 15.99940
2528 OM 2528 OM OM1 2528 -0.550000 15.99940
2529 OM 2529 OM OM1 2529 -0.550000 15.99940
2530 OM 2530 OM OM1 2530 -0.550000 15.99940
2531 OM 2531 OM OM1 2531 -0.550000 15.99940
2532 OM 2532 OM OM1 2532 -0.550000 15.99940
2533 OM 2533 OM OM1 2533 -0.550000 15.99940
2534 OM 2534 OM OM1 2534 -0.550000 15.99940
2535 OM 2535 OM OM1 2535 -0.550000 15.99940
2536 OM 2536 OM OM1 2536 -0.550000 15.99940
2537 OM 2537 OM OM1 2537 -0.550000 15.99940
2538 OM 2538 OM OM1 2538 -0.550000 15.99940
2539 OM 2539 OM OM1 2539 -0.550000 15.99940
2540 OM 2540 OM OM1 2540 -0.550000 15.99940
2541 OM 2541 OM OM1 2541 -0.550000 15.99940
2542 OM 2542 OM OM1 2542 -0.550000 15.99940
2543 OM 2543 OM OM1 2543 -0.550000 15.99940
2544 OM 2544 OM OM1 2544 -0.550000 15.99940
2545 OM 2545 OM OM1 2545 -0.550000 15.99940
2546 OM 2546 OM OM1 2546 -0.550000 15.99940
2547 OM 2547 OM OM1 2547 -0.550000 15.99940
2548 OM 2548 OM OM1 2548 -0.550000 15.99940
2549 OM 2549 OM OM1 2549 -0.550000 15.99940
2550 OM 2550 OM OM1 2550 -0.550000 15.99940
2551 OM 2551 OM OM1 2551 -0.550000 15.99940
2552 OM 2552 OM OM1 2552 -0.550000 15.99940
2553 OM 2553 OM OM1 2553 -0.550000 15.99940
2554 OM 2554 OM OM1 2554 -0.550000 15.99940
2555 OM 2555 OM OM1 2555 -0.550000 15.99940
2556 OM 2556 OM OM1 2556 -0.550000 15.99940
2557 OM 2557 OM OM1 2557 -0.550000 15.99940
2558 OM 2558 OM OM1 2558 -0.550000 15.99940
2559 OM 2559 OM OM1 2559 -0.550000 15.99940
2560 OM 2560 OM OM1 2560 -0.550000 15.99940
2561 OM 2561 OM OM1 2561 -0.550000 15.99940
2562 OM 2562 OM OM1 2562 -0.550000 15.99940
2563 OM 2563 OM OM1 2563 -0.550000 15.99940
2564 OM 2564 OM OM1 2564 -0.550000 15.99940
2565 OM 2565 OM OM1 2565 -0.550000 15.99940
2566 OM 2566 OM OM1 2566 -0.550000 15.99940
2567 OM 2567 OM OM1 2567 -0.550000 15.99940
2568 OM 2568 OM OM1 2568 -0.550000 15.99940
2569 OM 2569 OM OM1 2569 -0.550000 15.99940
2570 OM 2570 OM OM1 2570 -0.550000 15.99940
2571 OM 2571 OM OM1 2571 -0.550000 15.99940
2572 OM 2572 OM OM1 2572 -0.550000 15.99940
2573 OM 2573 OM OM1 2573 -0.550000 15.99940
2574 OM 2574 OM OM1 2574 -0.550000 15.99940
2575 OM 2575 OM OM1 2575 -0.550000 15.99940
2576 OM 2576 OM OM1 2576 -0.550000 15.99940
2577 OM 2577 OM OM1 2577 -0.550000 15.99940
2578 OM 2578 OM OM1 2578 -0.550000 15.99940
2579 OM 2579 OM OM1 2579 -0.550000 15.99940
2580 OM 2580 OM OM1 2580 -0.550000 15.99940
2581 OM 2581 OM OM1 2581 -0.550000 15.99940
2582 OM 2582 OM OM1 2582 -0.550000 15.99940
2583 OM 2583 OM OM1 2583 -0.550000 15.99940
2584 OM 2584 OM OM1 2584 -0.550000 15.99940
2585 OM 2585 OM OM1 2585 -0.550000 15.99940
2586 OM 2586 OM OM1 2586 -0.550000 15.99940
2587 OM 2587 OM OM1 2587 -0.550000 15.99940
2588 OM 2588 OM OM1 2588 -0.550000 15.99940
2589 OM 2589 OM OM1 2589 -0.550000 15.99940
2590 OM 2590 OM OM1 2590 -0.550000 15.99940
2591 OM 2591 OM OM1 2591 -0.550000 15.99940
2592 OM 2592 OM OM1 2592 -0.550000 15.99940
2593 OM 2593 OM OM1 2593 -0.550000 15.99940
2594 OM 2594 OM OM1 2594 -0.550000 15.99940
2595 OM 2595 OM OM1 2595 -0.550000 15.99940
2596 OM 2596 OM OM1 2596 -0.550000 15.99940
2597 OM 2597 OM OM1 2597 -0.550000 15.99940
2598 OM 2598 OM OM1 2598 -0.550000 15.99940
2599 OM 2599 OM OM1 2599 -0.550000 15.99940
2600 OM 2600 OM OM1 2600 -0.550000 15.99940
2601 OM 2601 OM OM1 2601 -0.550000 15.99940
2602 OM 2602 OM OM1 2602 -0.550000 15.99940
2603 OM 2603 OM OM1 2603 -0.550000 15.99940
2604 OM 2604 OM OM1 2604 -0.550000 15.99940
2605 OM 2605 OM OM1 2605 -0.550000 15.99940
2606 OM 2606 OM OM1 2606 -0.550000 15.99940
2607 OM 2607 OM OM1 2607 -0.550000 15.99940
2608 OM 2608 OM OM1 2608 -0.550000 15.99940
2609 OM 2609 OM OM1 2609 -0.550000 15.99940
2610 OM 2610 OM OM1 2610 -0.550000 15.99940
2611 OM 2611 OM OM1 2611 -0.550000 15.99940
2612 OM 2612 OM OM1 2612 -0.550000 15.99940
2613 OM 2613 OM OM1 2613 -0.550000 15.99940
2614 OM 2614 OM OM1 2614 -0.550000 15.99940
2615 OM 2615 OM OM1 2615 -0.550000 15.99940
2616 OM 2616 OM OM1 2616 -0.550000 15.99940
2617 OM 2617 OM OM1 2617 -0.550000 15.99940
2618 OM 2618 OM OM1 2618 -0.550000 15.99940
2619 OM 2619 OM OM1 2619 -0.550000 15.99940
2620 OM 2620 OM OM1 2620 -0.550000 15.99940
2621 OM 2621 OM OM1 2621 -0.550000 15.99940
2622 OM 2622 OM OM1 2622 -0.550000 15.99940
2623 OM 2623 OM OM1 2623 -0.550000 15.99940
2624 OM 2624 OM OM1 2624 -0.550000 15.99940
2625 OM 2625 OM OM1 2625 -0.550000 15.99940
2626 OM 2626 OM OM1 2626 -0.550000 15.99940
2627 OM 2627 OM OM1 2627 -0.550000 15.99940
2628 OM 2628 OM OM1 2628 -0.550000 15.99940
2629 OM 2629 OM OM1 2629 -0.550000 15.99940
2630 OM 2630 OM OM1 2630 -0.550000 15.99940
2631 OM 2631 OM OM1 2631 -0.550000 15.99940
2632 OM 2632 OM OM1 2632 -0.550000 15.99940
2633 OM 2633 OM OM1 2633 -0.550000 15.99940
2634 OM 2634 OM OM1 2634 -0.550000 15.99940
2635 OM 2635 OM OM1 2635 -0.550000 15.99940
2636 OM 2636 OM OM1 2636 -0.550000 15.99940
2637 OM 2637 OM OM1 2637 -0.550000 15.99940
2638 OM 2638 OM OM1 2638 -0.550000 15.99940
2639 OM 2639 OM OM1 2639 -0.550000 15.99940
2640 OM 2640 OM OM1 2640 -0.550000 15.99940
2641 OM 2641 OM OM1 2641 -0.550000 15.99940
2642 OM 2642 OM OM1 2642 -0.550000 15.99940
2643 OM 2643 OM OM1 2643 -0.550000 15.99940
2644 OM 2644 OM OM1 2644 -0.550000 15.99940
2645 OM 2645 OM OM1 2645 -0.550000 15.99940
2646 OM 2646 OM OM1 2646 -0.550000 15.99940
2647 OM 2647 OM OM1 2647 -0.550000 15.99940
2648 OM 2648 OM OM1 2648 -0.550000 15.99940
2649 OM 2649 OM OM1 2649 -0.550000 15.99940
2650 OM 2650 OM OM1 2650 -0.550000 15.99940
2651 OM 2651 OM OM1 2651 -0.550000 15.99940
2652 OM 2652 OM OM1 2652 -0.550000 15.99940
2653 OM 2653 OM OM1 2653 -0.550000 15.99940
2654 OM 2654 OM OM1 2654 -0.550000 15.99940
2655 OM 2655 OM OM1 2655 -0.550000 15.99940
2656 OM 2656 OM OM1 2656 -0.550000 15.99940
2657 OM 2657 OM OM1 2657 -0.550000 15.99940
2658 OM 2658 OM OM1 2658 -0.550000 15.99940
2659 OM 2659 OM OM1 2659 -0.550000 15.99940
2660 OM 2660 OM OM1 2660 -0.550000 15.99940
2661 OM 2661 OM OM1 2661 -0.550000 15.99940
2662 OM 2662 OM OM1 2662 -0.550000 15.99940
2663 OM 2663 OM OM1 2663 -0.550000 15.99940
2664 OM 2664 OM OM1 2664 -0.550000 15.99940
2665 OM 2665 OM OM1 2665 -0.550000 15.99940
2666 OM 2666 OM OM1 2666 -0.550000 15.99940
2667 OM 2667 OM OM1 2667 -0.550000 15.99940
2668 OM 2668 OM OM1 2668 -0.550000 15.99940
2669 OM 2669 OM OM1 2669 -0.550000 15.99940
2670 OM 2670 OM OM1 2670 -0.550000 15.99940
2671 OM 2671 OM OM1 2671 -0.550000 15.99940
2672 OM 2672 OM OM1 2672 -0.550000 15.99940
2673 OM 2673 OM OM1 2673 -0.550000 15.99940
2674 OM 2674 OM OM1 2674 -0.550000 15.99940
2675 OM 2675 OM OM1 2675 -0.550000 15.99940
2676 OM 2676 OM OM1 2676 -0.550000 15.99940
2677 OM 2677 OM OM1 2677 -0.550000 15.99940
2678 OM 2678 OM OM1 2678 -0.550000 15.99940
2679 OM 2679 OM OM1 2679 -0.550000 15.99940
2680 OM 2680 OM OM1 2680 -0.550000 15.99940
2681 OM 2681 OM OM1 2681 -0.550000 15.99940
2682 OM 2682 OM OM1 2682 -0.550000 15.99940
2683 OM 2683 OM OM1 2683 -0.550000 15.99940
2684 OM 2684 OM OM1 2684 -0.550000 15.99940
2685 OM 2685 OM OM1 2685 -0.550000 15.99940
2686 OM 2686 OM OM1 2686 -0.550000 15.99940
2687 OM 2687 OM OM1 2687 -0.550000 15.99940
2688 OM 2688 OM OM1 2688 -0.550000 15.99940
2689 OM 2689 OM OM1 2689 -0.550000 15.99940
2690 OM 2690 OM OM1 2690 -0.550000 15.99940
2691 OM 2691 OM OM1 2691 -0.550000 15.99940
2692 OM 2692 OM OM1 2692 -0.550000 15.99940
2693 OM 2693 OM OM1 2693 -0.550000 15.99940
2694 OM 2694 OM OM1 2694 -0.550000 15.99940
2695 OM 2695 OM OM1 2695 -0.550000 15.99940
2696 OM 2696 OM OM1 2696 -0.550000 15.99940
2697 OM 2697 OM OM1 2697 -0.550000 15.99940
2698 OM 2698 OM OM1 2698 -0.550000 15.99940
2699 OM 2699 OM OM1 2699 -0.550000 15.99940
2700 OM 2700 OM OM1 2700 -0.550000 15.99940
2701 OM 2701 OM OM1 2701 -0.550000 15.99940
2702 OM 2702 OM OM1 2702 -0.550000 15.99940
2703 OM 2703 OM OM1 2703 -0.550000 15.99940
2704 OM 2704 OM OM1 2704 -0.550000 15.99940
2705 OM 2705 OM OM1 2705 -0.550000 15.99940
2706 OM 2706 OM OM1 2706 -0.550000 15.99940
2707 OM 2707 OM OM1 2707 -0.550000 15.99940
2708 OM 2708 OM OM1 2708 -0.550000 15.99940
2709 OM 2709 OM OM1 2709 -0.550000 15.99940
2710 OM 2710 OM OM1 2710 -0.550000 15.99940
2711 OM 2711 OM OM1 2711 -0.550000 15.99940
2712 OM 2712 OM OM1 2712 -0.550000 15.99940
2713 OM 2713 OM OM1 2713 -0.550000 15.99940
2714 OM 2714 OM OM1 2714 -0.550000 15.99940
2715 OM 2715 OM OM1 2715 -0.550000 15.99940
2716 OM 2716 OM OM1 2716 -0.550000 15.99940
2717 OM 2717 OM OM1 2717 -0.550000 15.99940
2718 OM 2718 OM OM1 2718 -0.550000 15.99940
2719 OM 2719 OM OM1 2719 -0.550000 15.99940
2720 OM 2720 OM OM1 2720 -0.550000 15.99940
2721 OM 2721 OM OM1 2721 -0.550000 15.99940
2722 OM 2722 OM OM1 2722 -0.550000 15.99940
2723 OM 2723 OM OM1 2723 -0.550000 15.99940
2724 OM 2724 OM OM1 2724 -0.550000 15.99940
2725 OM 2725 OM OM1 2725 -0.550000 15.99940
2726 OM 2726 OM OM1 2726 -0.550000 15.99940
2727 OM 2727 OM OM1 2727 -0.550000 15.99940
2728 OM 2728 OM OM1 2728 -0.550000 15.99940
2729 OM 2729 OM OM1 2729 -0.550000 15.99940
2730 OM 2730 OM OM1 2730 -0.550000 15.99940
2731 OM 2731 OM OM1 2731 -0.550000 15.99940
2732 OM 2732 OM OM1 2732 -0.550000 15.99940
2733 OM 2733 OM OM1 2733 -0.550000 15.99940
2734 OM 2734 OM OM1 2734 -0.550000 15.99940
2735 OM 2735 OM OM1 2735 -0.550000 15.99940
2736 OM 2736 OM OM1 2736 -0.550000 15.99940
2737 OM 2737 OM OM1 2737 -0.550000 15.99940
2738 OM 2738 OM OM1 2738 -0.550000 15.99940
2739 OM 2739 OM OM1 2739 -0.550000 15.99940
2740 OM 2740 OM OM1 2740 -0.550000 15.99940
2741 OM 2741 OM OM1 2741 -0.550000 15.99940
2742 OM 2742 OM OM1 2742 -0.550000 15.99940
2743 OM 2743 OM OM1 2743 -0.550000 15.99940
2744 OM 2744 OM OM1 2744 -0.550000 15.99940
2745 OM 2745 OM OM1 2745 -0.550000 15.99940
2746 OM 2746 OM OM1 2746 -0.550000 15.99940
2747 OM 2747 OM OM1 2747 -0.550000 15.99940
2748 OM 2748 OM OM1 2748 -0.550000 15.99940
2749 OM 2749 OM OM1 2749 -0.550000 15.99940
2750 OM 2750 OM OM1 2750 -0.550000 15.99940
2751 OM 2751 OM OM1 2751 -0.550000 15.99940
2752 OM 2752 OM OM1 2752 -0.550000 15.99940
2753 OM 2753 OM OM1 2753 -0.550000 15.99940
2754 OM 2754 OM OM1 2754 -0.550000 15.99940
2755 OM 2755 OM OM1 2755 -0.550000 15.99940
2756 OM 2756 OM OM1 2756 -0.550000 15.99940
2757 OM 2757 OM OM1 2757 -0.550000 15.99940
2758 OM 2758 OM OM1 2758 -0.550000 15.99940
2759 OM 2759 OM OM1 2759 -0.550000 15.99940
2760 OM 2760 OM OM1 2760 -0.550000 15.99940
2761 OM 2761 OM OM1 2761 -0.550000 15.99940
2762 OM 2762 OM OM1 2762 -0.550000 15.99940
2763 OM 2763 OM OM1 2763 -0.550000 15.99940
2764 OM 2764 OM OM1 2764 -0.550000 15.99940
2765 OM 2765 OM OM1 2765 -0.550000 15.99940
2766 OM 2766 OM OM1 2766 -0.550000 15.99940
2767 OM 2767 OM OM1 2767 -0.550000 15.99940
2768 OM 2768 OM OM1 2768 -0.550000 15.99940
2769 OM 2769 OM OM1 2769 -0.550000 15.99940
2770 OM 2770 OM OM1 2770 -0.550000 15.99940
2771 OM 2771 OM OM1 2771 -0.550000 15.99940
2772 OM 2772 OM OM1 2772 -0.550000 15.99940
2773 OM 2773 OM OM1 2773 -0.550000 15.99940
2774 OM 2774 OM OM1 2774 -0.550000 15.99940
2775 OM 2775 OM OM1 2775 -0.550000 15.99940
2776 OM 2776 OM OM1 2776 -0.550000 15.99940
2777 OM 2777 OM OM1 2777 -0.550000 15.99940
2778 OM 2778 OM OM1 2778 -0.550000 15.99940
2779 OM 2779 OM OM1 2779 -0.550000 15.99940
2780 OM 2780 OM OM1 2780 -0.550000 15.99940
2781 OM 2781 OM OM1 2781 -0.550000 15.99940
2782 OM 2782 OM OM1 2782 -0.550000 15.99940
2783 OM 2783 OM OM1 2783 -0.550000 15.99940
2784 OM 2784 OM OM1 2784 -0.550000 15.99940
2785 OM 2785 OM OM1 2785 -0.550000 15.99940
2786 OM 2786 OM OM1 2786 -0.550000 15.99940
2787 OM 2787 OM OM1 2787 -0.550000 15.99940
2788 OM 2788 OM OM1 2788 -0.550000 15.99940
2789 OM 2789 OM OM1 2789 -0.550000 15.99940
2790 OM 2790 OM OM1 2790 -0.550000 15.99940
2791 OM 2791 OM OM1 2791 -0.550000 15.99940
2792 OM 2792 OM OM1 2792 -0.550000 15.99940
2793 OM 2793 OM OM1 2793 -0.550000 15.99940
2794 OM 2794 OM OM1 2794 -0.550000 15.99940
2795 OM 2795 OM OM1 2795 -0.550000 15.99940
2796 OM 2796 OM OM1 2796 -0.550000 15.99940
2797 OM 2797 OM OM1 2797 -0.550000 15.99940
2798 OM 2798 OM OM1 2798 -0.550000 15.99940
2799 OM 2799 OM OM1 2799 -0.550000 15.99940
2800 OM 2800 OM OM1 2800 -0.550000 15.99940
2801 OM 2801 OM OM1 2801 -0.550000 15.99940
2802 OM 2802 OM OM1 2802 -0.550000 15.99940
2803 OM 2803 OM OM1 2803 -0.550000 15.99940
2804 OM 2804 OM OM1 2804 -0.550000 15.99940
2805 OM 2805 OM OM1 2805 -0.550000 15.99940
2806 OM 2806 OM OM1 2806 -0.550000 15.99940
2807 OM 2807 OM OM1 2807 -0.550000 15.99940
2808 OM 2808 OM OM1 2808 -0.550000 15.99940
2809 OM 2809 OM OM1 2809 -0.550000 15.99940
2810 OM 2810 OM OM1 2810 -0.550000 15.99940
2811 OM 2811 OM OM1 2811 -0.550000 15.99940
2812 OM 2812 OM OM1 2812 -0.550000 15.99940
2813 OM 2813 OM OM1 2813 -0.550000 15.99940
2814 OM 2814 OM OM1 2814 -0.550000 15.99940
2815 OM 2815 OM OM1 2815 -0.550000 15.99940
2816 OM 2816 OM OM1 2816 -0.550000 15.99940
2817 OM 2817 OM OM1 2817 -0.550000 15.99940
2818 OM 2818 OM OM1 2818 -0.550000 15.99940
2819 OM 2819 OM OM1 2819 -0.550000 15.99940
2820 OM 2820 OM OM1 2820 -0.550000 15.99940
2821 OM 2821 OM OM1 2821 -0.550000 15.99940
2822 OM 2822 OM OM1 2822 -0.550000 15.99940
2823 OM 2823 OM OM1 2823 -0.550000 15.99940
2824 OM 2824 OM OM1 2824 -0.550000 15.99940
2825 OM 2825 OM OM1 2825 -0.550000 15.99940
2826 OM 2826 OM OM1 2826 -0.550000 15.99940
2827 OM 2827 OM OM1 2827 -0.550000 15.99940
2828 OM 2828 OM OM1 2828 -0.550000 15.99940
2829 OM 2829 OM OM1 2829 -0.550000 15.99940
2830 OM 2830 OM OM1 2830 -0.550000 15.99940
2831 OM 2831 OM OM1 2831 -0.550000 15.99940
2832 OM 2832 OM OM1 2832 -0.550000 15.99940
2833 OM 2833 OM OM1 2833 -0.550000 15.99940
2834 OM 2834 OM OM1 2834 -0.550000 15.99940
2835 OM 2835 OM OM1 2835 -0.550000 15.99940
2836 OM 2836 OM OM1 2836 -0.550000 15.99940
2837 OM 2837 OM OM1 2837 -0.550000 15.99940
2838 OM 2838 OM OM1 2838 -0.550000 15.99940
2839 OM 2839 OM OM1 2839 -0.550000 15.99940
2840 OM 2840 OM OM1 2840 -0.550000 15.99940
2841 OM 2841 OM OM1 2841 -0.550000 15.99940
2842 OM 2842 OM OM1 2842 -0.550000 15.99940
2843 OM 2843 OM OM1 2843 -0.550000 15.99940
2844 OM 2844 OM OM1 2844 -0.550000 15.99940
2845 OM 2845 OM OM1 2845 -0.550000 15.99940
2846 OM 2846 OM OM1 2846 -0.550000 15.99940
2847 OM 2847 OM OM1 2847 -0.550000 15.99940
2848 OM 2848 OM OM1 2848 -0.550000 15.99940
2849 OM 2849 OM OM1 2849 -0.550000 15.99940
2850 OM 2850 OM OM1 2850 -0.550000 15.99940
2851 OM 2851 OM OM1 2851 -0.550000 15.99940
2852 OM 2852 OM OM1 2852 -0.550000 15.99940
2853 OM 2853 OM OM1 2853 -0.550000 15.99940
2854 OM 2854 OM OM1 2854 -0.550000 15.99940
2855 OM 2855 OM OM1 2855 -0.550000 15.99940
2856 OM 2856 OM OM1 2856 -0.550000 15.99940
2857 OM 2857 OM OM1 2857 -0.550000 15.99940
2858 OM 2858 OM OM1 2858 -0.550000 15.99940
2859 OM 2859 OM OM1 2859 -0.550000 15.99940
2860 OM 2860 OM OM1 2860 -0.550000 15.99940
2861 OM 2861 OM OM1 2861 -0.550000 15.99940
2862 OM 2862 OM OM1 2862 -0.550000 15.99940
2863 OM 2863 OM OM1 2863 -0.550000 15.99940
2864 OM 2864 OM OM1 2864 -0.550000 15.99940
2865 OM 2865 OM OM1 2865 -0.550000 15.99940
2866 OM 2866 OM OM1 2866 -0.550000 15.99940
2867 OM 2867 OM OM1 2867 -0.550000 15.99940
2868 OM 2868 OM OM1 2868 -0.550000 15.99940
2869 OM 2869 OM OM1 2869 -0.550000 15.99940
2870 OM 2870 OM OM1 2870 -0.550000 15.99940
2871 OM 2871 OM OM1 2871 -0.550000 15.99940
2872 OM 2872 OM OM1 2872 -0.550000 15.99940
2873 OM 2873 OM OM1 2873 -0.550000 15.99940
2874 OM 2874 OM OM1 2874 -0.550000 15.99940
2875 OM 2875 OM OM1 2875 -0.550000 15.99940
2876 OM 2876 OM OM1 2876 -0.550000 15.99940
2877 OM 2877 OM OM1 2877 -0.550000 15.99940
2878 OM 2878 OM OM1 2878 -0.550000 15.99940
2879 OM 2879 OM OM1 2879 -0.550000 15.99940
2880 OM 2880 OM OM1 2880 -0.550000 15.99940
2881 OM 2881 OM OM1 2881 -0.550000 15.99940
2882 OM 2882 OM OM1 2882 -0.550000 15.99940
2883 OM 2883 OM OM1 2883 -0.550000 15.99940
2884 OM 2884 OM OM1 2884 -0.550000 15.99940
2885 OM 2885 OM OM1 2885 -0.550000 15.99940
2886 OM 2886 OM OM1 2886 -0.550000 15.99940
2887 OM 2887 OM OM1 2887 -0.550000 15.99940
2888 OM 2888 OM OM1 2888 -0.550000 15.99940
2889 OM 2889 OM OM1 2889 -0.550000 15.99940
2890 OM 2890 OM OM1 2890 -0.550000 15.99940
2891 OM 2891 OM OM1 2891 -0.550000 15.99940
2892 OM 2892 OM OM1 2892 -0.550000 15.99940
2893 OM 2893 OM OM1 2893 -0.550000 15.99940
2894 OM 2894 OM OM1 2894 -0.550000 15.99940
2895 OM 2895 OM OM1 2895 -0.550000 15.99940
2896 OM 2896 OM OM1 2896 -0.550000 15.99940
2897 OM 2897 OM OM1 2897 -0.550000 15.99940
2898 OM 2898 OM OM1 2898 -0.550000 15.99940
2899 OM 2899 OM OM1 2899 -0.550000 15.99940
2900 OM 2900 OM OM1 2900 -0.550000 15.99940
2901 OM 2901 OM OM1 2901 -0.550000 15.99940
2902 OM 2902 OM OM1 2902 -0.550000 15.99940
2903 OM 2903 OM OM1 2903 -0.550000 15.99940
2904 OM 2904 OM OM1 2904 -0.550000 15.99940
2905 OM 2905 OM OM1 2905 -0.550000 15.99940
2906 OM 2906 OM OM1 2906 -0.550000 15.99940
2907 OM 2907 OM OM1 2907 -0.550000 15.99940
2908 OM 2908 OM OM1 2908 -0.550000 15.99940
2909 OM 2909 OM OM1 2909 -0.550000 15.99940
2910 OM 2910 OM OM1 2910 -0.550000 15.99940
2911 OM 2911 OM OM1 2911 -0.550000 15.99940
2912 OM 2912 OM OM1 2912 -0.550000 15.99940
2913 OM 2913 OM OM1 2913 -0.550000 15.99940
2914 OM 2914 OM OM1 2914 -0.550000 15.99940
2915 OM 2915 OM OM1 2915 -0.550000 15.99940
2916 OM 2916 OM OM1 2916 -0.550000 15.99940
2917 OM 2917 OM OM1 2917 -0.550000 15.99940
2918 OM 2918 OM OM1 2918 -0.550000 15.99940
2919 OM 2919 OM OM1 2919 -0.550000 15.99940
2920 OM 2920 OM OM1 2920 -0.550000 15.99940
2921 OM 2921 OM OM1 2921 -0.550000 15.99940
2922 OM 2922 OM OM1 2922 -0.550000 15.99940
2923 OM 2923 OM OM1 2923 -0.550000 15.99940
2924 OM 2924 OM OM1 2924 -0.550000 15.99940
2925 OM 2925 OM OM1 2925 -0.550000 15.99940
2926 OM 2926 OM OM1 2926 -0.550000 15.99940
2927 OM 2927 OM OM1 2927 -0.550000 15.99940
2928 OM 2928 OM OM1 2928 -0.550000 15.99940
2929 OM 2929 OM OM1 2929 -0.550000 15.99940
2930 OM 2930 OM OM1 2930 -0.550000 15.99940
2931 OM 2931 OM OM1 2931 -0.550000 15.99940
2932 OM 2932 OM OM1 2932 -0.550000 15.99940
2933 OM 2933 OM OM1 2933 -0.550000 15.99940
2934 OM 2934 OM OM1 2934 -0.550000 15.99940
2935 OM 2935 OM OM1 2935 -0.550000 15.99940
2936 OM 2936 OM OM1 2936 -0.550000 15.99940
2937 OM 2937 OM OM1 2937 -0.550000 15.99940
2938 OM 2938 OM OM1 2938 -0.550000 15.99940
2939 OM 2939 OM OM1 2939 -0.550000 15.99940
2940 OM 2940 OM OM1 2940 -0.550000 15.99940
2941 OM 2941 OM OM1 2941 -0.550000 15.99940
2942 OM 2942 OM OM1 2942 -0.550000 15.99940
2943 OM 2943 OM OM1 2943 -0.550000 15.99940
2944 OM 2944 OM OM1 2944 -0.550000 15.99940
2945 OM 2945 OM OM1 2945 -0.550000 15.99940
2946 OM 2946 OM OM1 2946 -0.550000 15.99940
2947 OM 2947 OM OM1 2947 -0.550000 15.99940
2948 OM 2948 OM OM1 2948 -0.550000 15.99940
2949 OM 2949 OM OM1 2949 -0.550000 15.99940
2950 OM 2950 OM OM1 2950 -0.550000 15.99940
2951 OM 2951 OM OM1 2951 -0.550000 15.99940
2952 OM 2952 OM OM1 2952 -0.550000 15.99940
2953 OM 2953 OM OM1 2953 -0.550000 15.99940
2954 OM 2954 OM OM1 2954 -0.550000 15.99940
2955 OM 2955 OM OM1 2955 -0.550000 15.99940
2956 OM 2956 OM OM1 2956 -0.550000 15.99940
2957 OM 2957 OM OM1 2957 -0.550000 15.99940
2958 OM 2958 OM OM1 2958 -0.550000 15.99940
2959 OM 2959 OM OM1 2959 -0.550000 15.99940
2960 OM 2960 OM OM1 2960 -0.550000 15.99940
2961 OM 2961 OM OM1 2961 -0.550000 15.99940
2962 OM 2962 OM OM1 2962 -0.550000 15.99940
2963 OM 2963 OM OM1 2963 -0.550000 15.99940
2964 OM 2964 OM OM1 2964 -0.550000 15.99940
2965 OM 2965 OM OM1 2965 -0.550000 15.99940
2966 OM 2966 OM OM1 2966 -0.550000 15.99940
2967 OM 2967 OM OM1 2967 -0.550000 15.99940
2968 OM 2968 OM OM1 2968 -0.550000 15.99940
2969 OM 2969 OM OM1 2969 -0.550000 15.99940
2970 OM 2970 OM OM1 2970 -0.550000 15.99940
2971 OM 2971 OM OM1 2971 -0.550000 15.99940
2972 OM 2972 OM OM1 2972 -0.550000 15.99940
2973 OM 2973 OM OM1 2973 -0.550000 15.99940
2974 OM 2974 OM OM1 2974 -0.550000 15.99940
2975 OM 2975 OM OM1 2975 -0.550000 15.99940
2976 OM 2976 OM OM1 2976 -0.550000 15.99940
2977 OM 2977 OM OM1 2977 -0.550000 15.99940
2978 OM 2978 OM OM1 2978 -0.550000 15.99940
2979 OM 2979 OM OM1 2979 -0.550000 15.99940
2980 OM 2980 OM OM1 2980 -0.550000 15.99940
2981 OM 2981 OM OM1 2981 -0.550000 15.99940
2982 OM 2982 OM OM1 2982 -0.550000 15.99940
2983 OM 2983 OM OM1 2983 -0.550000 15.99940
2984 OM 2984 OM OM1 2984 -0.550000 15.99940
2985 OM 2985 OM OM1 2985 -0.550000 15.99940
2986 OM 2986 OM OM1 2986 -0.550000 15.99940
2987 OM 2987 OM OM1 2987 -0.550000 15.99940
2988 OM 2988 OM OM1 2988 -0.550000 15.99940
2989 OM 2989 OM OM1 2989 -0.550000 15.99940
2990 OM 2990 OM OM1 2990 -0.550000 15.99940
2991 OM 2991 OM OM1 2991 -0.550000 15.99940
2992 OM 2992 OM OM1 2992 -0.550000 15.99940
2993 OM 2993 OM OM1 2993 -0.550000 15.99940
2994 OM 2994 OM OM1 2994 -0.550000 15.99940
2995 OM 2995 OM OM1 2995 -0.550000 15.99940
2996 OM 2996 OM OM1 2996 -0.550000 15.99940
2997 OM 2997 OM OM1 2997 -0.550000 15.99940
2998 OM 2998 OM OM1 2998 -0.550000 15.99940
2999 OM 2999 OM OM1 2999 -0.550000 15.99940
3000 OM 3000 OM OM1 3000 -0.550000 15.99940
3001 OM 3001 OM OM1 3001 -0.550000 15.99940
3002 OM 3002 OM OM1 3002 -0.550000 15.99940
3003 OM 3003 OM OM1 3003 -0.550000 15.99940
3004 OM 3004 OM OM1 3004 -0.550000 15.99940
3005 OM 3005 OM OM1 3005 -0.550000 15.99940
3006 OM 3006 OM OM1 3006 -0.550000 15.99940
3007 OM 3007 OM OM1 3007 -0.550000 15.99940
3008 OM 3008 OM OM1 3008 -0.550000 15.99940
3009 OM 3009 OM OM1 3009 -0.550000 15.99940
3010 OM 3010 OM OM1 3010 -0.550000 15.99940
3011 OM 3011 OM OM1 3011 -0.550000 15.99940
3012 OM 3012 OM OM1 3012 -0.550000 15.99940
3013 OM 3013 OM OM1 3013 -0.550000 15.99940
3014 OM 3014 OM OM1 3014 -0.550000 15.99940
3015 OM 3015 OM OM1 3015 -0.550000 15.99940
3016 OM 3016 OM OM1 3016 -0.550000 15.99940
3017 OM 3017 OM OM1 3017 -0.550000 15.99940
3018 OM 3018 OM OM1 3018 -0.550000 15.99940
3019 OM 3019 OM OM1 3019 -0.550000 15.99940
3020 OM 3020 OM OM1 3020 -0.550000 15.99940
3021 OM 3021 OM OM1 3021 -0.550000 15.99940
3022 OM 3022 OM OM1 3022 -0.550000 15.99940
3023 OM 3023 OM OM1 3023 -0.550000 15.99940
3024 OM 3024 OM OM1 3024 -0.550000 15.99940
3025 OM 3025 OM OM1 3025 -0.550000 15.99940
3026 OM 3026 OM OM1 3026 -0.550000 15.99940
3027 OM 3027 OM OM1 3027 -0.550000 15.99940
3028 OM 3028 OM OM1 3028 -0.550000 15.99940
3029 OM 3029 OM OM1 3029 -0.550000 15.99940
3030 OM 3030 OM OM1 3030 -0.550000 15.99940
3031 OM 3031 OM OM1 3031 -0.550000 15.99940
3032 OM 3032 OM OM1 3032 -0.550000 15.99940
3033 OM 3033 OM OM1 3033 -0.550000 15.99940
3034 OM 3034 OM OM1 3034 -0.550000 15.99940
3035 OM 3035 OM OM1 3035 -0.550000 15.99940
3036 OM 3036 OM OM1 3036 -0.550000 15.99940
3037 OM 3037 OM OM1 3037 -0.550000 15.99940
3038 OM 3038 OM OM1 3038 -0.550000 15.99940
3039 OM 3039 OM OM1 3039 -0.550000 15.99940
3040 OM 3040 OM OM1 3040 -0.550000 15.99940
3041 OM 3041 OM OM1 3041 -0.550000 15.99940
3042 OM 3042 OM OM1 3042 -0.550000 15.99940
3043 OM 3043 OM OM1 3043 -0.550000 15.99940
3044 OM 3044 OM OM1 3044 -0.550000 15.99940
3045 OM 3045 OM OM1 3045 -0.550000 15.99940
3046 OM 3046 OM OM1 3046 -0.550000 15.99940
3047 OM 3047 OM OM1 3047 -0.550000 15.99940
3048 OM 3048 OM OM1 3048 -0.550000 15.99940
3049 OM 3049 OM OM1 3049 -0.550000 15.99940
3050 OM 3050 OM OM1 3050 -0.550000 15.99940
3051 OM 3051 OM OM1 3051 -0.550000 15.99940
3052 OM 3052 OM OM1 3052 -0.550000 15.99940
3053 OM 3053 OM OM1 3053 -0.550000 15.99940
3054 OM 3054 OM OM1 3054 -0.550000 15.99940
3055 OM 3055 OM OM1 3055 -0.550000 15.99940
3056 OM 3056 OM OM1 3056 -0.550000 15.99940
3057 OM 3057 OM OM1 3057 -0.550000 15.99940
3058 OM 3058 OM OM1 3058 -0.550000 15.99940
3059 OM 3059 OM OM1 3059 -0.550000 15.99940
3060 OM 3060 OM OM1 3060 -0.550000 15.99940
3061 OM 3061 OM OM1 3061 -0.550000 15.99940
3062 OM 3062 OM OM1 3062 -0.550000 15.99940
3063 OM 3063 OM OM1 3063 -0.550000 15.99940
3064 OM 3064 OM OM1 3064 -0.550000 15.99940
3065 OM 3065 OM OM1 3065 -0.550000 15.99940
3066 OM 3066 OM OM1 3066 -0.550000 15.99940
3067 OM 3067 OM OM1 3067 -0.550000 15.99940
3068 OM 3068 OM OM1 3068 -0.550000 15.99940
3069 OM 3069 OM OM1 3069 -0.550000 15.99940
3070 OM 3070 OM OM1 3070 -0.550000 15.99940
3071 OM 3071 OM OM1 3071 -0.550000 15.99940
3072 OM 3072 OM OM1 3072 -0.550000 15.99940
3073 OM 3073 OM OM1 3073 -0.550000 15.99940
3074 OM 3074 OM OM1 3074 -0.550000 15.99940
3075 OM 3075 OM OM1 3075 -0.550000 15.99940
3076 OM 3076 OM OM1 3076 -0.550000 15.99940
3077 OM 3077 OM OM1 3077 -0.550000 15.99940
3078 OM 3078 OM OM1 3078 -0.550000 15.99940
3079 OM 3079 OM OM1 3079 -0.550000 15.99940
3080 OM 3080 OM OM1 3080 -0.550000 15.99940
3081 OM 3081 OM OM1 3081 -0.550000 15.99940
3082 OM 3082 OM OM1 3082 -0.550000 15.99940
3083 OM 3083 OM OM1 3083 -0.550000 15.99940
3084 OM 3084 OM OM1 3084 -0.550000 15.99940
3085 OM 3085 OM OM1 3085 -0.550000 15.99940
3086 OM 3086 OM OM1 3086 -0.550000 15.99940
3087 OM 3087 OM OM1 3087 -0.550000 15.99940
3088 OM 3088 OM OM1 3088 -0.550000 15.99940
3089 OM 3089 OM OM1 3089 -0.550000 15.99940
3090 OM 3090 OM OM1 3090 -0.550000 15.99940
3091 OM 3091 OM OM1 3091 -0.550000 15.99940
3092 OM 3092 OM OM1 3092 -0.550000 15.99940
3093 OM 3093 OM OM1 3093 -0.550000 15.99940
3094 OM 3094 OM OM1 3094 -0.550000 15.99940
3095 OM 3095 OM OM1 3095 -0.550000 15.99940
3096 OM 3096 OM OM1 3096 -0.550000 15.99940
3097 OM 3097 OM OM1 3097 -0.550000 15.99940
3098 OM 3098 OM OM1 3098 -0.550000 15.99940
3099 OM 3099 OM OM1 3099 -0.550000 15.99940
3100 OM 3100 OM OM1 3100 -0.550000 15.99940
3101 OM 3101 OM OM1 3101 -0.550000 15.99940
3102 OM 3102 OM OM1 3102 -0.550000 15.99940
3103 OM 3103 OM OM1 3103 -0.550000 15.99940
3104 OM 3104 OM OM1 3104 -0.550000 15.99940
3105 OM 3105 OM OM1 3105 -0.550000 15.99940
3106 OM 3106 OM OM1 3106 -0.550000 15.99940
3107 OM 3107 OM OM1 3107 -0.550000 15.99940
3108 OM 3108 OM OM1 3108 -0.550000 15.99940
3109 OM 3109 OM OM1 3109 -0.550000 15.99940
3110 OM 3110 OM OM1 3110 -0.550000 15.99940
3111 OM 3111 OM OM1 3111 -0.550000 15.99940
3112 OM 3112 OM OM1 3112 -0.550000 15.99940
3113 OM 3113 OM OM1 3113 -0.550000 15.99940
3114 OM 3114 OM OM1 3114 -0.550000 15.99940
3115 OM 3115 OM OM1 3115 -0.550000 15.99940
3116 OM 3116 OM OM1 3116 -0.550000 15.99940
3117 OM 3117 OM OM1 3117 -0.550000 15.99940
3118 OM 3118 OM OM1 3118 -0.550000 15.99940
3119 OM 3119 OM OM1 3119 -0.550000 15.99940
3120 OM 3120 OM OM1 3120 -0.550000 15.99940
3121 OM 3121 OM OM1 3121 -0.550000 15.99940
3122 OM 3122 OM OM1 3122 -0.550000 15.99940
3123 OM 3123 OM OM1 3123 -0.550000 15.99940
3124 OM 3124 OM OM1 3124 -0.550000 15.99940
3125 OM 3125 OM OM1 3125 -0.550000 15.99940
3126 OM 3126 OM OM1 3126 -0.550000 15.99940
3127 OM 3127 OM OM1 3127 -0.550000 15.99940
3128 OM 3128 OM OM1 3128 -0.550000 15.99940
3129 OM 3129 OM OM1 3129 -0.550000 15.99940
3130 OM 3130 OM OM1 3130 -0.550000 15.99940
3131 OM 3131 OM OM1 3131 -0.550000 15.99940
3132 OM 3132 OM OM1 3132 -0.550000 15.99940
3133 OM 3133 OM OM1 3133 -0.550000 15.99940
3134 OM 3134 OM OM1 3134 -0.550000 15.99940
3135 OM 3135 OM OM1 3135 -0.550000 15.99940
3136 OM 3136 OM OM1 3136 -0.550000 15.99940
3137 OM 3137 OM OM1 3137 -0.550000 15.99940
3138 OM 3138 OM OM1 3138 -0.550000 15.99940
3139 OM 3139 OM OM1 3139 -0.550000 15.99940
3140 OM 3140 OM OM1 3140 -0.550000 15.99940
3141 OM 3141 OM OM1 3141 -0.550000 15.99940
3142 OM 3142 OM OM1 3142 -0.550000 15.99940
3143 OM 3143 OM OM1 3143 -0.550000 15.99940
3144 OM 3144 OM OM1 3144 -0.550000 15.99940
3145 OM 3145 OM OM1 3145 -0.550000 15.99940
3146 OM 3146 OM OM1 3146 -0.550000 15.99940
3147 OM 3147 OM OM1 3147 -0.550000 15.99940
3148 OM 3148 OM OM1 3148 -0.550000 15.99940
3149 OM 3149 OM OM1 3149 -0.550000 15.99940
3150 OM 3150 OM OM1 3150 -0.550000 15.99940
3151 OM 3151 OM OM1 3151 -0.550000 15.99940
3152 OM 3152 OM OM1 3152 -0.550000 15.99940
3153 OM 3153 OM OM1 3153 -0.550000 15.99940
3154 OM 3154 OM OM1 3154 -0.550000 15.99940
3155 OM 3155 OM OM1 3155 -0.550000 15.99940
3156 OM 3156 OM OM1 3156 -0.550000 15.99940
3157 OM 3157 OM OM1 3157 -0.550000 15.99940
3158 OM 3158 OM OM1 3158 -0.550000 15.99940
3159 OM 3159 OM OM1 3159 -0.550000 15.99940
3160 OM 3160 OM OM1 3160 -0.550000 15.99940
3161 OM 3161 OM OM1 3161 -0.550000 15.99940
3162 OM 3162 OM OM1 3162 -0.550000 15.99940
3163 OM 3163 OM OM1 3163 -0.550000 15.99940
3164 OM 3164 OM OM1 3164 -0.550000 15.99940
3165 OM 3165 OM OM1 3165 -0.550000 15.99940
3166 OM 3166 OM OM1 3166 -0.550000 15.99940
3167 OM 3167 OM OM1 3167 -0.550000 15.99940
3168 OM 3168 OM OM1 3168 -0.550000 15.99940
3169 OM 3169 OM OM1 3169 -0.550000 15.99940
3170 OM 3170 OM OM1 3170 -0.550000 15.99940
3171 OM 3171 OM OM1 3171 -0.550000 15.99940
3172 OM 3172 OM OM1 3172 -0.550000 15.99940
3173 OM 3173 OM OM1 3173 -0.550000 15.99940
3174 OM 3174 OM OM1 3174 -0.550000 15.99940
3175 OM 3175 OM OM1 3175 -0.550000 15.99940
3176 OM 3176 OM OM1 3176 -0.550000 15.99940
3177 OM 3177 OM OM1 3177 -0.550000 15.99940
3178 OM 3178 OM OM1 3178 -0.550000 15.99940
3179 OM 3179 OM OM1 3179 -0.550000 15.99940
3180 OM 3180 OM OM1 3180 -0.550000 15.99940
3181 OM 3181 OM OM1 3181 -0.550000 15.99940
3182 OM 3182 OM OM1 3182 -0.550000 15.99940
3183 OM 3183 OM OM1 3183 -0.550000 15.99940
3184 OM 3184 OM OM1 3184 -0.550000 15.99940
3185 OM 3185 OM OM1 3185 -0.550000 15.99940
3186 OM 3186 OM OM1 3186 -0.550000 15.99940
3187 OM 3187 OM OM1 3187 -0.550000 15.99940
3188 OM 3188 OM OM1 3188 -0.550000 15.99940
3189 OM 3189 OM OM1 3189 -0.550000 15.99940
3190 OM 3190 OM OM1 3190 -0.550000 15.99940
3191 OM 3191 OM OM1 3191 -0.550000 15.99940
3192 OM 3192 OM OM1 3192 -0.550000 15.99940
3193 OM 3193 OM OM1 3193 -0.550000 15.99940
3194 OM 3194 OM OM1 3194 -0.550000 15.99940
3195 OM 3195 OM OM1 3195 -0.550000 15.99940
3196 OM 3196 OM OM1 3196 -0.550000 15.99940
3197 OM 3197 OM OM1 3197 -0.550000 15.99940
3198 OM 3198 OM OM1 3198 -0.550000 15.99940
3199 OM 3199 OM OM1 3199 -0.550000 15.99940
3200 OM 3200 OM OM1 3200 -0.550000 15.99940
3201 OM 3201 OM OM1 3201 -0.550000 15.99940
3202 OM 3202 OM OM1 3202 -0.550000 15.99940
3203 OM 3203 OM OM1 3203 -0.550000 15.99940
3204 OM 3204 OM OM1 3204 -0.550000 15.99940
3205 OM 3205 OM OM1 3205 -0.550000 15.99940
3206 OM 3206 OM OM1 3206 -0.550000 15.99940
3207 OM 3207 OM OM1 3207 -0.550000 15.99940
3208 OM 3208 OM OM1 3208 -0.550000 15.99940
3209 OM 3209 OM OM1 3209 -0.550000 15.99940
3210 OM 3210 OM OM1 3210 -0.550000 15.99940
3211 OM 3211 OM OM1 3211 -0.550000 15.99940
3212 OM 3212 OM OM1 3212 -0.550000 15.99940
3213 OM 3213 OM OM1 3213 -0.550000 15.99940
3214 OM 3214 OM OM1 3214 -0.550000 15.99940
3215 OM 3215 OM OM1 3215 -0.550000 15.99940
3216 OM 3216 OM OM1 3216 -0.550000 15.99940
3217 OM 3217 OM OM1 3217 -0.550000 15.99940
3218 OM 3218 OM OM1 3218 -0.550000 15.99940
3219 OM 3219 OM OM1 3219 -0.550000 15.99940
3220 OM 3220 OM OM1 3220 -0.550000 15.99940
3221 OM 3221 OM OM1 3221 -0.550000 15.99940
3222 OM 3222 OM OM1 3222 -0.550000 15.99940
3223 OM 3223 OM OM1 3223 -0.550000 15.99940
3224 OM 3224 OM OM1 3224 -0.550000 15.99940
3225 OM 3225 OM OM1 3225 -0.550000 15.99940
3226 OM 3226 OM OM1 3226 -0.550000 15.99940
3227 OM 3227 OM OM1 3227 -0.550000 15.99940
3228 OM 3228 OM OM1 3228 -0.550000 15.99940
3229 OM 3229 OM OM1 3229 -0.550000 15.99940
3230 OM 3230 OM OM1 3230 -0.550000 15.99940
3231 OM 3231 OM OM1 3231 -0.550000 15.99940
3232 OM 3232 OM OM1 3232 -0.550000 15.99940
3233 OM 3233 OM OM1 3233 -0.550000 15.99940
3234 OM 3234 OM OM1 3234 -0.550000 15.99940
3235 OM 3235 OM OM1 3235 -0.550000 15.99940
3236 OM 3236 OM OM1 3236 -0.550000 15.99940
3237 OM 3237 OM OM1 3237 -0.550000 15.99940
3238 OM 3238 OM OM1 3238 -0.550000 15.99940
3239 OM 3239 OM OM1 3239 -0.550000 15.99940
3240 OM 3240 OM OM1 3240 -0.550000 15.99940
3241 OM 3241 OM OM1 3241 -0.550000 15.99940
3242 OM 3242 OM OM1 3242 -0.550000 15.99940
3243 OM 3243 OM OM1 3243 -0.550000 15.99940
3244 OM 3244 OM OM1 3244 -0.550000 15.99940
3245 OM 3245 OM OM1 3245 -0.550000 15.99940
3246 OM 3246 OM OM1 3246 -0.550000 15.99940
3247 OM 3247 OM OM1 3247 -0.550000 15.99940
3248 OM 3248 OM OM1 3248 -0.550000 15.99940
3249 OM 3249 OM OM1 3249 -0.550000 15.99940
3250 OM 3250 OM OM1 3250 -0.550000 15.99940
3251 OM 3251 OM OM1 3251 -0.550000 15.99940
3252 OM 3252 OM OM1 3252 -0.550000 15.99940
3253 OM 3253 OM OM1 3253 -0.550000 15.99940
3254 OM 3254 OM OM1 3254 -0.550000 15.99940
3255 OM 3255 OM OM1 3255 -0.550000 15.99940
3256 OM 3256 OM OM1 3256 -0.550000 15.99940
3257 OM 3257 OM OM1 3257 -0.550000 15.99940
3258 OM 3258 OM OM1 3258 -0.550000 15.99940
3259 OM 3259 OM OM1 3259 -0.550000 15.99940
3260 OM 3260 OM OM1 3260 -0.550000 15.99940
3261 OM 3261 OM OM1 3261 -0.550000 15.99940
3262 OM 3262 OM OM1 3262 -0.550000 15.99940
3263 OM 3263 OM OM1 3263 -0.550000 15.99940
3264 OM 3264 OM OM1 3264 -0.550000 15.99940
3265 OM 3265 OM OM1 3265 -0.550000 15.99940
3266 OM 3266 OM OM1 3266 -0.550000 15.99940
3267 OM 3267 OM OM1 3267 -0.550000 15.99940
3268 OM 3268 OM OM1 3268 -0.550000 15.99940
3269 OM 3269 OM OM1 3269 -0.550000 15.99940
3270 OM 3270 OM OM1 3270 -0.550000 15.99940
3271 OM 3271 OM OM1 3271 -0.550000 15.99940
3272 OM 3272 OM OM1 3272 -0.550000 15.99940
3273 OM 3273 OM OM1 3273 -0.550000 15.99940
3274 OM 3274 OM OM1 3274 -0.550000 15.99940
3275 OM 3275 OM OM1 3275 -0.550000 15.99940
3276 OM 3276 OM OM1 3276 -0.550000 15.99940
3277 OM 3277 OM OM1 3277 -0.550000 15.99940
3278 OM 3278 OM OM1 3278 -0.550000 15.99940
3279 OM 3279 OM OM1 3279 -0.550000 15.99940
3280 OM 3280 OM OM1 3280 -0.550000 15.99940
3281 OM 3281 OM OM1 3281 -0.550000 15.99940
3282 OM 3282 OM OM1 3282 -0.550000 15.99940
3283 OM 3283 OM OM1 3283 -0.550000 15.99940
3284 OM 3284 OM OM1 3284 -0.550000 15.99940
3285 OM 3285 OM OM1 3285 -0.550000 15.99940
3286 OM 3286 OM OM1 3286 -0.550000 15.99940
3287 OM 3287 OM OM1 3287 -0.550000 15.99940
3288 OM 3288 OM OM1 3288 -0.550000 15.99940
3289 OM 3289 OM OM1 3289 -0.550000 15.99940
3290 OM 3290 OM OM1 3290 -0.550000 15.99940
3291 OM 3291 OM OM1 3291 -0.550000 15.99940
3292 OM 3292 OM OM1 3292 -0.550000 15.99940
3293 OM 3293 OM OM1 3293 -0.550000 15.99940
3294 OM 3294 OM OM1 3294 -0.550000 15.99940
3295 OM 3295 OM OM1 3295 -0.550000 15.99940
3296 OM 3296 OM OM1 3296 -0.550000 15.99940
3297 OM 3297 OM OM1 3297 -0.550000 15.99940
3298 OM 3298 OM OM1 3298 -0.550000 15.99940
3299 OM 3299 OM OM1 3299 -0.550000 15.99940
3300 OM 3300 OM OM1 3300 -0.550000 15.99940
3301 OM 3301 OM OM1 3301 -0.550000 15.99940
3302 OM 3302 OM OM1 3302 -0.550000 15.99940
3303 OM 3303 OM OM1 3303 -0.550000 15.99940
3304 OM 3304 OM OM1 3304 -0.550000 15.99940
3305 OM 3305 OM OM1 3305 -0.550000 15.99940
3306 OM 3306 OM OM1 3306 -0.550000 15.99940
3307 OM 3307 OM OM1 3307 -0.550000 15.99940
3308 OM 3308 OM OM1 3308 -0.550000 15.99940
3309 OM 3309 OM OM1 3309 -0.550000 15.99940
3310 OM 3310 OM OM1 3310 -0.550000 15.99940
3311 OM 3311 OM OM1 3311 -0.550000 15.99940
3312 OM 3312 OM OM1 3312 -0.550000 15.99940
3313 OM 3313 OM OM1 3313 -0.550000 15.99940
3314 OM 3314 OM OM1 3314 -0.550000 15.99940
3315 OM 3315 OM OM1 3315 -0.550000 15.99940
3316 OM 3316 OM OM1 3316 -0.550000 15.99940
3317 OM 3317 OM OM1 3317 -0.550000 15.99940
3318 OM 3318 OM OM1 3318 -0.550000 15.99940
3319 OM 3319 OM OM1 3319 -0.550000 15.99940
3320 OM 3320 OM OM1 3320 -0.550000 15.99940
3321 OM 3321 OM OM1 3321 -0.550000 15.99940
3322 OM 3322 OM OM1 3322 -0.550000 15.99940
3323 OM 3323 OM OM1 3323 -0.550000 15.99940
3324 OM 3324 OM OM1 3324 -0.550000 15.99940
3325 OM 3325 OM OM1 3325 -0.550000 15.99940
3326 OM 3326 OM OM1 3326 -0.550000 15.99940
3327 OM 3327 OM OM1 3327 -0.550000 15.99940
3328 OM 3328 OM OM1 3328 -0.550000 15.99940
3329 OM 3329 OM OM1 3329 -0.550000 15.99940
3330 OM 3330 OM OM1 3330 -0.550000 15.99940
3331 OM 3331 OM OM1 3331 -0.550000 15.99940
3332 OM 3332 OM OM1 3332 -0.550000 15.99940
3333 OM 3333 OM OM1 3333 -0.550000 15.99940
3334 OM 3334 OM OM1 3334 -0.550000 15.99940
3335 OM 3335 OM OM1 3335 -0.550000 15.99940
3336 OM 3336 OM OM1 3336 -0.550000 15.99940
3337 OM 3337 OM OM1 3337 -0.550000 15.99940
3338 OM 3338 OM OM1 3338 -0.550000 15.99940
3339 OM 3339 OM OM1 3339 -0.550000 15.99940
3340 OM 3340 OM OM1 3340 -0.550000 15.99940
3341 OM 3341 OM OM1 3341 -0.550000 15.99940
3342 OM 3342 OM OM1 3342 -0.550000 15.99940
3343 OM 3343 OM OM1 3343 -0.550000 15.99940
3344 OM 3344 OM OM1 3344 -0.550000 15.99940
3345 OM 3345 OM OM1 3345 -0.550000 15.99940
3346 OM 3346 OM OM1 3346 -0.550000 15.99940
3347 OM 3347 OM OM1 3347 -0.550000 15.99940
3348 OM 3348 OM OM1 3348 -0.550000 15.99940
3349 OM 3349 OM OM1 3349 -0.550000 15.99940
3350 OM 3350 OM OM1 3350 -0.550000 15.99940
3351 OM 3351 OM OM1 3351 -0.550000 15.99940
3352 OM 3352 OM OM1 3352 -0.550000 15.99940
3353 OM 3353 OM OM1 3353 -0.550000 15.99940
3354 OM 3354 OM OM1 3354 -0.550000 15.99940
3355 OM 3355 OM OM1 3355 -0.550000 15.99940
3356 OM 3356 OM OM1 3356 -0.550000 15.99940
3357 OM 3357 OM OM1 3357 -0.550000 15.99940
3358 OM 3358 OM OM1 3358 -0.550000 15.99940
3359 OM 3359 OM OM1 3359 -0.550000 15.99940
3360 OM 3360 OM OM1 3360 -0.550000 15.99940
3361 OM 3361 OM OM1 3361 -0.550000 15.99940
3362 OM 3362 OM OM1 3362 -0.550000 15.99940
3363 OM 3363 OM OM1 3363 -0.550000 15.99940
3364 OM 3364 OM OM1 3364 -0.550000 15.99940
3365 OM 3365 OM OM1 3365 -0.550000 15.99940
3366 OM 3366 OM OM1 3366 -0.550000 15.99940
3367 OM 3367 OM OM1 3367 -0.550000 15.99940
3368 OM 3368 OM OM1 3368 -0.550000 15.99940
3369 OM 3369 OM OM1 3369 -0.550000 15.99940
3370 OM 3370 OM OM1 3370 -0.550000 15.99940
3371 OM 3371 OM OM1 3371 -0.550000 15.99940
3372 OM 3372 OM OM1 3372 -0.550000 15.99940
3373 OM 3373 OM OM1 3373 -0.550000 15.99940
3374 OM 3374 OM OM1 3374 -0.550000 15.99940
3375 OM 3375 OM OM1 3375 -0.550000 15.99940
3376 OM 3376 OM OM1 3376 -0.550000 15.99940
3377 OM 3377 OM OM1 3377 -0.550000 15.99940
3378 OM 3378 OM OM1 3378 -0.550000 15.99940
3379 OM 3379 OM OM1 3379 -0.550000 15.99940
3380 OM 3380 OM OM1 3380 -0.550000 15.99940
3381 OM 3381 OM OM1 3381 -0.550000 15.99940
3382 OM 3382 OM OM1 3382 -0.550000 15.99940
3383 OM 3383 OM OM1 3383 -0.550000 15.99940
3384 OM 3384 OM OM1 3384 -0.550000 15.99940
3385 OM 3385 OM OM1 3385 -0.550000 15.99940
3386 OM 3386 OM OM1 3386 -0.550000 15.99940
3387 OM 3387 OM OM1 3387 -0.550000 15.99940
3388 OM 3388 OM OM1 3388 -0.550000 15.99940
3389 OM 3389 OM OM1 3389 -0.550000 15.99940
3390 OM 3390 OM OM1 3390 -0.550000 15.99940
3391 OM 3391 OM OM1 3391 -0.550000 15.99940
3392 OM 3392 OM OM1 3392 -0.550000 15.99940
3393 OM 3393 OM OM1 3393 -0.550000 15.99940
3394 OM 3394 OM OM1 3394 -0.550000 15.99940
3395 OM 3395 OM OM1 3395 -0.550000 15.99940
3396 OM 3396 OM OM1 3396 -0.550000 15.99940
3397 OM 3397 OM OM1 3397 -0.550000 15.99940
3398 OM 3398 OM OM1 3398 -0.550000 15.99940
3399 OM 3399 OM OM1 3399 -0.550000 15.99940
3400 OM 3400 OM OM1 3400 -0.550000 15.99940
3401 OM 3401 OM OM1 3401 -0.550000 15.99940
3402 OM 3402 OM OM1 3402 -0.550000 15.99940
3403 OM 3403 OM OM1 3403 -0.550000 15.99940
3404 OM 3404 OM OM1 3404 -0.550000 15.99940
3405 OM 3405 OM OM1 3405 -0.550000 15.99940
3406 OM 3406 OM OM1 3406 -0.550000 15.99940
3407 OM 3407 OM OM1 3407 -0.550000 15.99940
3408 OM 3408 OM OM1 3408 -0.550000 15.99940
3409 OM 3409 OM OM1 3409 -0.550000 15.99940
3410 OM 3410 OM OM1 3410 -0.550000 15.99940
3411 OM 3411 OM OM1 3411 -0.550000 15.99940
3412 OM 3412 OM OM1 3412 -0.550000 15.99940
3413 OM 3413 OM OM1 3413 -0.550000 15.99940
3414 OM 3414 OM OM1 3414 -0.550000 15.99940
3415 OM 3415 OM OM1 3415 -0.550000 15.99940
3416 OM 3416 OM OM1 3416 -0.550000 15.99940
3417 OM 3417 OM OM1 3417 -0.550000 15.99940
3418 OM 3418 OM OM1 3418 -0.550000 15.99940
3419 OM 3419 OM OM1 3419 -0.550000 15.99940
3420 OM 3420 OM OM1 3420 -0.550000 15.99940
3421 OM 3421 OM OM1 3421 -0.550000 15.99940
3422 OM 3422 OM OM1 3422 -0.550000 15.99940
3423 OM 3423 OM OM1 3423 -0.550000 15.99940
3424 OM 3424 OM OM1 3424 -0.550000 15.99940
3425 OM 3425 OM OM1 3425 -0.550000 15.99940
3426 OM 3426 OM OM1 3426 -0.550000 15.99940
3427 OM 3427 OM OM1 3427 -0.550000 15.99940
3428 OM 3428 OM OM1 3428 -0.550000 15.99940
3429 OM 3429 OM OM1 3429 -0.550000 15.99940
3430 OM 3430 OM OM1 3430 -0.550000 15.99940
3431 OM 3431 OM OM1 3431 -0.550000 15.99940
3432 OM 3432 OM OM1 3432 -0.550000 15.99940
3433 OM 3433 OM OM1 3433 -0.550000 15.99940
3434 OM 3434 OM OM1 3434 -0.550000 15.99940
3435 OM 3435 OM OM1 3435 -0.550000 15.99940
3436 OM 3436 OM OM1 3436 -0.550000 15.99940
3437 OM 3437 OM OM1 3437 -0.550000 15.99940
3438 OM 3438 OM OM1 3438 -0.550000 15.99940
3439 OM 3439 OM OM1 3439 -0.550000 15.99940
3440 OM 3440 OM OM1 3440 -0.550000 15.99940
3441 OM 3441 OM OM1 3441 -0.550000 15.99940
3442 OM 3442 OM OM1 3442 -0.550000 15.99940
3443 OM 3443 OM OM1 3443 -0.550000 15.99940
3444 OM 3444 OM OM1 3444 -0.550000 15.99940
3445 OM 3445 OM OM1 3445 -0.550000 15.99940
3446 OM 3446 OM OM1 3446 -0.550000 15.99940
3447 OM 3447 OM OM1 3447 -0.550000 15.99940
3448 OM 3448 OM OM1 3448 -0.550000 15.99940
3449 OM 3449 OM OM1 3449 -0.550000 15.99940
3450 OM 3450 OM OM1 3450 -0.550000 15.99940
3451 OM 3451 OM OM1 3451 -0.550000 15.99940
3452 OM 3452 OM OM1 3452 -0.550000 15.99940
3453 OM 3453 OM OM1 3453 -0.550000 15.99940
3454 OM 3454 OM OM1 3454 -0.550000 15.99940
3455 OM 3455 OM OM1 3455 -0.550000 15.99940
3456 OM 3456 OM OM1 3456 -0.550000 15.99940
3457 OM 3457 OM OM1 3457 -0.550000 15.99940
3458 OM 3458 OM OM1 3458 -0.550000 15.99940
3459 OM 3459 OM OM1 3459 -0.550000 15.99940
3460 OM 3460 OM OM1 3460 -0.550000 15.99940
3461 OM 3461 OM OM1 3461 -0.550000 15.99940
3462 OM 3462 OM OM1 3462 -0.550000 15.99940
3463 OM 3463 OM OM1 3463 -0.550000 15.99940
3464 OM 3464 OM OM1 3464 -0.550000 15.99940
3465 OM 3465 OM OM1 3465 -0.550000 15.99940
3466 OM 3466 OM OM1 3466 -0.550000 15.99940
3467 OM 3467 OM OM1 3467 -0.550000 15.99940
3468 OM 3468 OM OM1 3468 -0.550000 15.99940
3469 OM 3469 OM OM1 3469 -0.550000 15.99940
3470 OM 3470 OM OM1 3470 -0.550000 15.99940
3471 OM 3471 OM OM1 3471 -0.550000 15.99940
3472 OM 3472 OM OM1 3472 -0.550000 15.99940
3473 OM 3473 OM OM1 3473 -0.550000 15.99940
3474 OM 3474 OM OM1 3474 -0.550000 15.99940
3475 OM 3475 OM OM1 3475 -0.550000 15.99940
3476 OM 3476 OM OM1 3476 -0.550000 15.99940
3477 OM 3477 OM OM1 3477 -0.550000 15.99940
3478 OM 3478 OM OM1 3478 -0.550000 15.99940
3479 OM 3479 OM OM1 3479 -0.550000 15.99940
3480 OM 3480 OM OM1 3480 -0.550000 15.99940
3481 OM 3481 OM OM1 3481 -0.550000 15.99940
3482 OM 3482 OM OM1 3482 -0.550000 15.99940
3483 OM 3483 OM OM1 3483 -0.550000 15.99940
3484 OM 3484 OM OM1 3484 -0.550000 15.99940
3485 OM 3485 OM OM1 3485 -0.550000 15.99940
3486 OM 3486 OM OM1 3486 -0.550000 15.99940
3487 OM 3487 OM OM1 3487 -0.550000 15.99940
3488 OM 3488 OM OM1 3488 -0.550000 15.99940
3489 OM 3489 OM OM1 3489 -0.550000 15.99940
3490 OM 3490 OM OM1 3490 -0.550000 15.99940
3491 OM 3491 OM OM1 3491 -0.550000 15.99940
3492 OM 3492 OM OM1 3492 -0.550000 15.99940
3493 OM 3493 OM OM1 3493 -0.550000 15.99940
3494 OM 3494 OM OM1 3494 -0.550000 15.99940
3495 OM 3495 OM OM1 3495 -0.550000 15.99940
3496 OM 3496 OM OM1 3496 -0.550000 15.99940
3497 OM 3497 OM OM1 3497 -0.550000 15.99940
3498 OM 3498 OM OM1 3498 -0.550000 15.99940
3499 OM 3499 OM OM1 3499 -0.550000 15.99940
3500 OM 3500 OM OM1 3500 -0.550000 15.99940
3501 OM 3501 OM OM1 3501 -0.550000 15.99940
3502 OM 3502 OM OM1 3502 -0.550000 15.99940
3503 OM 3503 OM OM1 3503 -0.550000 15.99940
3504 OM 3504 OM OM1 3504 -0.550000 15.99940
3505 OM 3505 OM OM1 3505 -0.550000 15.99940
3506 OM 3506 OM OM1 3506 -0.550000 15.99940
3507 OM 3507 OM OM1 3507 -0.550000 15.99940
3508 OM 3508 OM OM1 3508 -0.550000 15.99940
3509 OM 3509 OM OM1 3509 -0.550000 15.99940
3510 OM 3510 OM OM1 3510 -0.550000 15.99940
3511 OM 3511 OM OM1 3511 -0.550000 15.99940
3512 OM 3512 OM OM1 3512 -0.550000 15.99940
3513 OM 3513 OM OM1 3513 -0.550000 15.99940
3514 OM 3514 OM OM1 3514 -0.550000 15.99940
3515 OM 3515 OM OM1 3515 -0.550000 15.99940
3516 OM 3516 OM OM1 3516 -0.550000 15.99940
3517 OM 3517 OM OM1 3517 -0.550000 15.99940
3518 OM 3518 OM OM1 3518 -0.550000 15.99940
3519 OM 3519 OM OM1 3519 -0.550000 15.99940
3520 OM 3520 OM OM1 3520 -0.550000 15.99940
3521 OM 3521 OM OM1 3521 -0.550000 15.99940
3522 OM 3522 OM OM1 3522 -0.550000 15.99940
3523 OM 3523 OM OM1 3523 -0.550000 15.99940
3524 OM 3524 OM OM1 3524 -0.550000 15.99940
3525 OM 3525 OM OM1 3525 -0.550000 15.99940
3526 OM 3526 OM OM1 3526 -0.550000 15.99940
3527 OM 3527 OM OM1 3527 -0.550000 15.99940
3528 OM 3528 OM OM1 3528 -0.550000 15.99940
3529 OM 3529 OM OM1 3529 -0.550000 15.99940
3530 OM 3530 OM OM1 3530 -0.550000 15.99940
3531 OM 3531 OM OM1 3531 -0.550000 15.99940
3532 OM 3532 OM OM1 3532 -0.550000 15.99940
3533 OM 3533 OM OM1 3533 -0.550000 15.99940
3534 OM 3534 OM OM1 3534 -0.550000 15.99940
3535 OM 3535 OM OM1 3535 -0.550000 15.99940
3536 OM 3536 OM OM1 3536 -0.550000 15.99940
3537 OM 3537 OM OM1 3537 -0.550000 15.99940
3538 OM 3538 OM OM1 3538 -0.550000 15.99940
3539 OM 3539 OM OM1 3539 -0.550000 15.99940
3540 OM 3540 OM OM1 3540 -0.550000 15.99940
3541 OM 3541 OM OM1 3541 -0.550000 15.99940
3542 OM 3542 OM OM1 3542 -0.550000 15.99940
3543 OM 3543 OM OM1 3543 -0.550000 15.99940
3544 OM 3544 OM OM1 3544 -0.550000 15.99940
3545 OM 3545 OM OM1 3545 -0.550000 15.99940
3546 OM 3546 OM OM1 3546 -0.550000 15.99940
3547 OM 3547 OM OM1 3547 -0.550000 15.99940
3548 OM 3548 OM OM1 3548 -0.550000 15.99940
3549 OM 3549 OM OM1 3549 -0.550000 15.99940
3550 OM 3550 OM OM1 3550 -0.550000 15.99940
3551 OM 3551 OM OM1 3551 -0.550000 15.99940
3552 OM 3552 OM OM1 3552 -0.550000 15.99940
3553 OM 3553 OM OM1 3553 -0.550000 15.99940
3554 OM 3554 OM OM1 3554 -0.550000 15.99940
3555 OM 3555 OM OM1 3555 -0.550000 15.99940
3556 OM 3556 OM OM1 3556 -0.550000 15.99940
3557 OM 3557 OM OM1 3557 -0.550000 15.99940
3558 OM 3558 OM OM1 3558 -0.550000 15.99940
3559 OM 3559 OM OM1 3559 -0.550000 15.99940
3560 OM 3560 OM OM1 3560 -0.550000 15.99940
3561 OM 3561 OM OM1 3561 -0.550000 15.99940
3562 OM 3562 OM OM1 3562 -0.550000 15.99940
3563 OM 3563 OM OM1 3563 -0.550000 15.99940
3564 OM 3564 OM OM1 3564 -0.550000 15.99940
3565 OM 3565 OM OM1 3565 -0.550000 15.99940
3566 OM 3566 OM OM1 3566 -0.550000 15.99940
3567 OM 3567 OM OM1 3567 -0.550000 15.99940
3568 OM 3568 OM OM1 3568 -0.550000 15.99940
3569 OM 3569 OM OM1 3569 -0.550000 15.99940
3570 OM 3570 OM OM1 3570 -0.550000 15.99940
3571 OM 3571 OM OM1 3571 -0.550000 15.99940
3572 OM 3572 OM OM1 3572 -0.550000 15.99940
3573 OM 3573 OM OM1 3573 -0.550000 15.99940
3574 OM 3574 OM OM1 3574 -0.550000 15.99940
3575 OM 3575 OM OM1 3575 -0.550000 15.99940
3576 OM 3576 OM OM1 3576 -0.550000 15.99940
3577 OM 3577 OM OM1 3577 -0.550000 15.99940
3578 OM 3578 OM OM1 3578 -0.550000 15.99940
3579 OM 3579 OM OM1 3579 -0.550000 15.99940
3580 OM 3580 OM OM1 3580 -0.550000 15.99940
3581 OM 3581 OM OM1 3581 -0.550000 15.99940
3582 OM 3582 OM OM1 3582 -0.550000 15.99940
3583 OM 3583 OM OM1 3583 -0.550000 15.99940
3584 OM 3584 OM OM1 3584 -0.550000 15.99940
3585 OM 3585 OM OM1 3585 -0.550000 15.99940
3586 OM 3586 OM OM1 3586 -0.550000 15.99940
3587 OM 3587 OM OM1 3587 -0.550000 15.99940
3588 OM 3588 OM OM1 3588 -0.550000 15.99940
3589 OM 3589 OM OM1 3589 -0.550000 15.99940
3590 OM 3590 OM OM1 3590 -0.550000 15.99940
3591 OM 3591 OM OM1 3591 -0.550000 15.99940
3592 OM 3592 OM OM1 3592 -0.550000 15.99940
3593 OM 3593 OM OM1 3593 -0.550000 15.99940
3594 OM 3594 OM OM1 3594 -0.550000 15.99940
3595 OM 3595 OM OM1 3595 -0.550000 15.99940
3596 OM 3596 OM OM1 3596 -0.550000 15.99940
3597 OM 3597 OM OM1 3597 -0.550000 15.99940
3598 OM 3598 OM OM1 3598 -0.550000 15.99940
3599 OM 3599 OM OM1 3599 -0.550000 15.99940
3600 OM 3600 OM OM1 3600 -0.550000 15.99940
3601 OM 3601 OM OM1 3601 -0.550000 15.99940
3602 OM 3602 OM OM1 3602 -0.550000 15.99940
3603 OM 3603 OM OM1 3603 -0.550000 15.99940
3604 OM 3604 OM OM1 3604 -0.550000 15.99940
3605 OM 3605 OM OM1 3605 -0.550000 15.99940
3606 OM 3606 OM OM1 3606 -0.550000 15.99940
3607 OM 3607 OM OM1 3607 -0.550000 15.99940
3608 OM 3608 OM OM1 3608 -0.550000 15.99940
3609 OM 3609 OM OM1 3609 -0.550000 15.99940
3610 OM 3610 OM OM1 3610 -0.550000 15.99940
3611 OM 3611 OM OM1 3611 -0.550000 15.99940
3612 OM 3612 OM OM1 3612 -0.550000 15.99940
3613 OM 3613 OM OM1 3613 -0.550000 15.99940
3614 OM 3614 OM OM1 3614 -0.550000 15.99940
3615 OM 3615 OM OM1 3615 -0.550000 15.99940
3616 OM 3616 OM OM1 3616 -0.550000 15.99940
3617 OM 3617 OM OM1 3617 -0.550000 15.99940
3618 OM 3618 OM OM1 3618 -0.550000 15.99940
3619 OM 3619 OM OM1 3619 -0.550000 15.99940
3620 OM 3620 OM OM1 3620 -0.550000 15.99940
3621 OM 3621 OM OM1 3621 -0.550000 15.99940
3622 OM 3622 OM OM1 3622 -0.550000 15.99940
3623 OM 3623 OM OM1 3623 -0.550000 15.99940
3624 OM 3624 OM OM1 3624 -0.550000 15.99940
3625 OM 3625 OM OM1 3625 -0.550000 15.99940
3626 OM 3626 OM OM1 3626 -0.550000 15.99940
3627 OM 3627 OM OM1 3627 -0.550000 15.99940
3628 OM 3628 OM OM1 3628 -0.550000 15.99940
3629 OM 3629 OM OM1 3629 -0.550000 15.99940
3630 OM 3630 OM OM1 3630 -0.550000 15.99940
3631 OM 3631 OM OM1 3631 -0.550000 15.99940
3632 OM 3632 OM OM1 3632 -0.550000 15.99940
3633 OM 3633 OM OM1 3633 -0.550000 15.99940
3634 OM 3634 OM OM1 3634 -0.550000 15.99940
3635 OM 3635 OM OM1 3635 -0.550000 15.99940
3636 OM 3636 OM OM1 3636 -0.550000 15.99940
3637 OM 3637 OM OM1 3637 -0.550000 15.99940
3638 OM 3638 OM OM1 3638 -0.550000 15.99940
3639 OM 3639 OM OM1 3639 -0.550000 15.99940
3640 OM 3640 OM OM1 3640 -0.550000 15.99940
3641 OM 3641 OM OM1 3641 -0.550000 15.99940
3642 OM 3642 OM OM1 3642 -0.550000 15.99940
3643 OM 3643 OM OM1 3643 -0.550000 15.99940
3644 OM 3644 OM OM1 3644 -0.550000 15.99940
3645 OM 3645 OM OM1 3645 -0.550000 15.99940
3646 OM 3646 OM OM1 3646 -0.550000 15.99940
3647 OM 3647 OM OM1 3647 -0.550000 15.99940
3648 OM 3648 OM OM1 3648 -0.550000 15.99940
3649 OM 3649 OM OM1 3649 -0.550000 15.99940
3650 OM 3650 OM OM1 3650 -0.550000 15.99940
3651 OM 3651 OM OM1 3651 -0.550000 15.99940
3652 OM 3652 OM OM1 3652 -0.550000 15.99940
3653 OM 3653 OM OM1 3653 -0.550000 15.99940
3654 OM 3654 OM OM1 3654 -0.550000 15.99940
3655 OM 3655 OM OM1 3655 -0.550000 15.99940
3656 OM 3656 OM OM1 3656 -0.550000 15.99940
3657 OM 3657 OM OM1 3657 -0.550000 15.99940
3658 OM 3658 OM OM1 3658 -0.550000 15.99940
3659 OM 3659 OM OM1 3659 -0.550000 15.99940
3660 OM 3660 OM OM1 3660 -0.550000 15.99940
3661 OM 3661 OM OM1 3661 -0.550000 15.99940
3662 OM 3662 OM OM1 3662 -0.550000 15.99940
3663 OM 3663 OM OM1 3663 -0.550000 15.99940
3664 OM 3664 OM OM1 3664 -0.550000 15.99940
3665 OM 3665 OM OM1 3665 -0.550000 15.99940
3666 OM 3666 OM OM1 3666 -0.550000 15.99940
3667 OM 3667 OM OM1 3667 -0.550000 15.99940
3668 OM 3668 OM OM1 3668 -0.550000 15.99940
3669 OM 3669 OM OM1 3669 -0.550000 15.99940
3670 OM 3670 OM OM1 3670 -0.550000 15.99940
3671 OM 3671 OM OM1 3671 -0.550000 15.99940
3672 OM 3672 OM OM1 3672 -0.550000 15.99940
3673 OM 3673 OM OM1 3673 -0.550000 15.99940
3674 OM 3674 OM OM1 3674 -0.550000 15.99940
3675 OM 3675 OM OM1 3675 -0.550000 15.99940
3676 OM 3676 OM OM1 3676 -0.550000 15.99940
3677 OM 3677 OM OM1 3677 -0.550000 15.99940
3678 OM 3678 OM OM1 3678 -0.550000 15.99940
3679 OM 3679 OM OM1 3679 -0.550000 15.99940
3680 OM 3680 OM OM1 3680 -0.550000 15.99940
3681 OM 3681 OM OM1 3681 -0.550000 15.99940
3682 OM 3682 OM OM1 3682 -0.550000 15.99940
3683 OM 3683 OM OM1 3683 -0.550000 15.99940
3684 OM 3684 OM OM1 3684 -0.550000 15.99940
3685 OM 3685 OM OM1 3685 -0.550000 15.99940
3686 OM 3686 OM OM1 3686 -0.550000 15.99940
3687 OM 3687 OM OM1 3687 -0.550000 15.99940
3688 OM 3688 OM OM1 3688 -0.550000 15.99940
3689 OM 3689 OM OM1 3689 -0.550000 15.99940
3690 OM 3690 OM OM1 3690 -0.550000 15.99940
3691 OM 3691 OM OM1 3691 -0.550000 15.99940
3692 OM 3692 OM OM1 3692 -0.550000 15.99940
3693 OM 3693 OM OM1 3693 -0.550000 15.99940
3694 OM 3694 OM OM1 3694 -0.550000 15.99940
3695 OM 3695 OM OM1 3695 -0.550000 15.99940
3696 OM 3696 OM OM1 3696 -0.550000 15.99940
3697 OM 3697 OM OM1 3697 -0.550000 15.99940
3698 OM 3698 OM OM1 3698 -0.550000 15.99940
3699 OM 3699 OM OM1 3699 -0.550000 15.99940
3700 OM 3700 OM OM1 3700 -0.550000 15.99940
3701 OM 3701 OM OM1 3701 -0.550000 15.99940
3702 OM 3702 OM OM1 3702 -0.550000 15.99940
3703 OM 3703 OM OM1 3703 -0.550000 15.99940
3704 OM 3704 OM OM1 3704 -0.550000 15.99940
3705 OM 3705 OM OM1 3705 -0.550000 15.99940
3706 OM 3706 OM OM1 3706 -0.550000 15.99940
3707 OM 3707 OM OM1 3707 -0.550000 15.99940
3708 OM 3708 OM OM1 3708 -0.550000 15.99940
3709 OM 3709 OM OM1 3709 -0.550000 15.99940
3710 OM 3710 OM OM1 3710 -0.550000 15.99940
3711 OM 3711 OM OM1 3711 -0.550000 15.99940
3712 OM 3712 OM OM1 3712 -0.550000 15.99940
3713 OM 3713 OM OM1 3713 -0.550000 15.99940
3714 OM 3714 OM OM1 3714 -0.550000 15.99940
3715 OM 3715 OM OM1 3715 -0.550000 15.99940
3716 OM 3716 OM OM1 3716 -0.550000 15.99940
3717 OM 3717 OM OM1 3717 -0.550000 15.99940
3718 OM 3718 OM OM1 3718 -0.550000 15.99940
3719 OM 3719 OM OM1 3719 -0.550000 15.99940
3720 OM 3720 OM OM1 3720 -0.550000 15.99940
3721 OM 3721 OM OM1 3721 -0.550000 15.99940
3722 OM 3722 OM OM1 3722 -0.550000 15.99940
3723 OM 3723 OM OM1 3723 -0.550000 15.99940
3724 OM 3724 OM OM1 3724 -0.550000 15.99940
3725 OM 3725 OM OM1 3725 -0.550000 15.99940
3726 OM 3726 OM OM1 3726 -0.550000 15.99940
3727 OM 3727 OM OM1 3727 -0.550000 15.99940
3728 OM 3728 OM OM1 3728 -0.550000 15.99940
3729 OM 3729 OM OM1 3729 -0.550000 15.99940
3730 OM 3730 OM OM1 3730 -0.550000 15.99940
3731 OM 3731 OM OM1 3731 -0.550000 15.99940
3732 OM 3732 OM OM1 3732 -0.550000 15.99940
3733 OM 3733 OM OM1 3733 -0.550000 15.99940
3734 OM 3734 OM OM1 3734 -0.550000 15.99940
3735 OM 3735 OM OM1 3735 -0.550000 15.99940
3736 OM 3736 OM OM1 3736 -0.550000 15.99940
3737 OM 3737 OM OM1 3737 -0.550000 15.99940
3738 OM 3738 OM OM1 3738 -0.550000 15.99940
3739 OM 3739 OM OM1 3739 -0.550000 15.99940
3740 OM 3740 OM OM1 3740 -0.550000 15.99940
3741 OM 3741 OM OM1 3741 -0.550000 15.99940
3742 OM 3742 OM OM1 3742 -0.550000 15.99940
3743 OM 3743 OM OM1 3743 -0.550000 15.99940
3744 OM 3744 OM OM1 3744 -0.550000 15.99940
3745 OM 3745 OM OM1 3745 -0.550000 15.99940
3746 OM 3746 OM OM1 3746 -0.550000 15.99940
3747 OM 3747 OM OM1 3747 -0.550000 15.99940
3748 OM 3748 OM OM1 3748 -0.550000 15.99940
3749 OM 3749 OM OM1 3749 -0.550000 15.99940
3750 OM 3750 OM OM1 3750 -0.550000 15.99940
3751 OM 3751 OM OM1 3751 -0.550000 15.99940
3752 OM 3752 OM OM1 3752 -0.550000 15.99940
3753 OM 3753 OM OM1 3753 -0.550000 15.99940
3754 OM 3754 OM OM1 3754 -0.550000 15.99940
3755 OM 3755 OM OM1 3755 -0.550000 15.99940
3756 OM 3756 OM OM1 3756 -0.550000 15.99940
3757 OM 3757 OM OM1 3757 -0.550000 15.99940
3758 OM 3758 OM OM1 3758 -0.550000 15.99940
3759 OM 3759 OM OM1 3759 -0.550000 15.99940
3760 OM 3760 OM OM1 3760 -0.550000 15.99940
3761 OM 3761 OM OM1 3761 -0.550000 15.99940
3762 OM 3762 OM OM1 3762 -0.550000 15.99940
3763 OM 3763 OM OM1 3763 -0.550000 15.99940
3764 OM 3764 OM OM1 3764 -0.550000 15.99940
3765 OM 3765 OM OM1 3765 -0.550000 15.99940
3766 OM 3766 OM OM1 3766 -0.550000 15.99940
3767 OM 3767 OM OM1 3767 -0.550000 15.99940
3768 OM 3768 OM OM1 3768 -0.550000 15.99940
3769 OM 3769 OM OM1 3769 -0.550000 15.99940
3770 OM 3770 OM OM1 3770 -0.550000 15.99940
3771 OM 3771 OM OM1 3771 -0.550000 15.99940
3772 OM 3772 OM OM1 3772 -0.550000 15.99940
3773 OM 3773 OM OM1 3773 -0.550000 15.99940
3774 OM 3774 OM OM1 3774 -0.550000 15.99940
3775 OM 3775 OM OM1 3775 -0.550000 15.99940
3776 OM 3776 OM OM1 3776 -0.550000 15.99940
3777 OM 3777 OM OM1 3777 -0.550000 15.99940
3778 OM 3778 OM OM1 3778 -0.550000 15.99940
3779 OM 3779 OM OM1 3779 -0.550000 15.99940
3780 OM 3780 OM OM1 3780 -0.550000 15.99940
3781 OM 3781 OM OM1 3781 -0.550000 15.99940
3782 OM 3782 OM OM1 3782 -0.550000 15.99940
3783 OM 3783 OM OM1 3783 -0.550000 15.99940
3784 OM 3784 OM OM1 3784 -0.550000 15.99940
3785 OM 3785 OM OM1 3785 -0.550000 15.99940
3786 OM 3786 OM OM1 3786 -0.550000 15.99940
3787 OM 3787 OM OM1 3787 -0.550000 15.99940
3788 OM 3788 OM OM1 3788 -0.550000 15.99940
3789 OM 3789 OM OM1 3789 -0.550000 15.99940
3790 OM 3790 OM OM1 3790 -0.550000 15.99940
3791 OM 3791 OM OM1 3791 -0.550000 15.99940
3792 OM 3792 OM OM1 3792 -0.550000 15.99940
3793 OM 3793 OM OM1 3793 -0.550000 15.99940
3794 OM 3794 OM OM1 3794 -0.550000 15.99940
3795 OM 3795 OM OM1 3795 -0.550000 15.99940
3796 OM 3796 OM OM1 3796 -0.550000 15.99940
3797 OM 3797 OM OM1 3797 -0.550000 15.99940
3798 OM 3798 OM OM1 3798 -0.550000 15.99940
3799 OM 3799 OM OM1 3799 -0.550000 15.99940
3800 OM 3800 OM OM1 3800 -0.550000 15.99940
3801 OM 3801 OM OM1 3801 -0.550000 15.99940
3802 OM 3802 OM OM1 3802 -0.550000 15.99940
3803 OM 3803 OM OM1 3803 -0.550000 15.99940
3804 OM 3804 OM OM1 3804 -0.550000 15.99940
3805 OM 3805 OM OM1 3805 -0.550000 15.99940
3806 OM 3806 OM OM1 3806 -0.550000 15.99940
3807 OM 3807 OM OM1 3807 -0.550000 15.99940
3808 OM 3808 OM OM1 3808 -0.550000 15.99940
3809 OM 3809 OM OM1 3809 -0.550000 15.99940
3810 OM 3810 OM OM1 3810 -0.550000 15.99940
3811 OM 3811 OM OM1 3811 -0.550000 15.99940
3812 OM 3812 OM OM1 3812 -0.550000 15.99940
3813 OM 3813 OM OM1 3813 -0.550000 15.99940
3814 OM 3814 OM OM1 3814 -0.550000 15.99940
3815 OM 3815 OM OM1 3815 -0.550000 15.99940
3816 OM 3816 OM OM1 3816 -0.550000 15.99940
3817 OM 3817 OM OM1 3817 -0.550000 15.99940
3818 OM 3818 OM OM1 3818 -0.550000 15.99940
3819 OM 3819 OM OM1 3819 -0.550000 15.99940
3820 OM 3820 OM OM1 3820 -0.550000 15.99940
3821 OM 3821 OM OM1 3821 -0.550000 15.99940
3822 OM 3822 OM OM1 3822 -0.550000 15.99940
3823 OM 3823 OM OM1 3823 -0.550000 15.99940
3824 OM 3824 OM OM1 3824 -0.550000 15.99940
3825 OM 3825 OM OM1 3825 -0.550000 15.99940
3826 OM 3826 OM OM1 3826 -0.550000 15.99940
3827 OM 3827 OM OM1 3827 -0.550000 15.99940
3828 OM 3828 OM OM1 3828 -0.550000 15.99940
3829 OM 3829 OM OM1 3829 -0.550000 15.99940
3830 OM 3830 OM OM1 3830 -0.550000 15.99940
3831 OM 3831 OM OM1 3831 -0.550000 15.99940
3832 OM 3832 OM OM1 3832 -0.550000 15.99940
3833 OM 3833 OM OM1 3833 -0.550000 15.99940
3834 OM 3834 OM OM1 3834 -0.550000 15.99940
3835 OM 3835 OM OM1 3835 -0.550000 15.99940
3836 OM 3836 OM OM1 3836 -0.550000 15.99940
3837 OM 3837 OM OM1 3837 -0.550000 15.99940
3838 OM 3838 OM OM1 3838 -0.550000 15.99940
3839 OM 3839 OM OM1 3839 -0.550000 15.99940
3840 OM 3840 OM OM1 3840 -0.550000 15.99940
3841 OM 3841 OM OM1 3841 -0.550000 15.99940
3842 OM 3842 OM OM1 3842 -0.550000 15.99940
3843 OM 3843 OM OM1 3843 -0.550000 15.99940
3844 OM 3844 OM OM1 3844 -0.550000 15.99940
3845 OM 3845 OM OM1 3845 -0.550000 15.99940
3846 OM 3846 OM OM1 3846 -0.550000 15.99940
3847 OM 3847 OM OM1 3847 -0.550000 15.99940
3848 OM 3848 OM OM1 3848 -0.550000 15.99940
3849 OM 3849 OM OM1 3849 -0.550000 15.99940
3850 OM 3850 OM OM1 3850 -0.550000 15.99940
3851 OM 3851 OM OM1 3851 -0.550000 15.99940
3852 OM 3852 OM OM1 3852 -0.550000 15.99940
3853 OM 3853 OM OM1 3853 -0.550000 15.99940
3854 OM 3854 OM OM1 3854 -0.550000 15.99940
3855 OM 3855 OM OM1 3855 -0.550000 15.99940
3856 OM 3856 OM OM1 3856 -0.550000 15.99940
3857 OM 3857 OM OM1 3857 -0.550000 15.99940
3858 OM 3858 OM OM1 3858 -0.550000 15.99940
3859 OM 3859 OM OM1 3859 -0.550000 15.99940
3860 OM 3860 OM OM1 3860 -0.550000 15.99940
3861 OM 3861 OM OM1 3861 -0.550000 15.99940
3862 OM 3862 OM OM1 3862 -0.550000 15.99940
3863 OM 3863 OM OM1 3863 -0.550000 15.99940
3864 OM 3864 OM OM1 3864 -0.550000 15.99940
3865 OM 3865 OM OM1 3865 -0.550000 15.99940
3866 OM 3866 OM OM1 3866 -0.550000 15.99940
3867 OM 3867 OM OM1 3867 -0.550000 15.99940
3868 OM 3868 OM OM1 3868 -0.550000 15.99940
3869 OM 3869 OM OM1 3869 -0.550000 15.99940
3870 OM 3870 OM OM1 3870 -0.550000 15.99940
3871 OM 3871 OM OM1 3871 -0.550000 15.99940
3872 OM 3872 OM OM1 3872 -0.550000 15.99940
3873 OM 3873 OM OM1 3873 -0.550000 15.99940
3874 OM 3874 OM OM1 3874 -0.550000 15.99940
3875 OM 3875 OM OM1 3875 -0.550000 15.99940
3876 OM 3876 OM OM1 3876 -0.550000 15.99940
3877 OM 3877 OM OM1 3877 -0.550000 15.99940
3878 OM 3878 OM OM1 3878 -0.550000 15.99940
3879 OM 3879 OM OM1 3879 -0.550000 15.99940
3880 OM 3880 OM OM1 3880 -0.550000 15.99940
3881 OM 3881 OM OM1 3881 -0.550000 15.99940
3882 OM 3882 OM OM1 3882 -0.550000 15.99940
3883 OM 3883 OM OM1 3883 -0.550000 15.99940
3884 OM 3884 OM OM1 3884 -0.550000 15.99940
3885 OM 3885 OM OM1 3885 -0.550000 15.99940
3886 OM 3886 OM OM1 3886 -0.550000 15.99940
3887 OM 3887 OM OM1 3887 -0.550000 15.99940
3888 OM 3888 OM OM1 3888 -0.550000 15.99940
3889 OM 3889 OM OM1 3889 -0.550000 15.99940
3890 OM 3890 OM OM1 3890 -0.550000 15.99940
3891 OM 3891 OM OM1 3891 -0.550000 15.99940
3892 OM 3892 OM OM1 3892 -0.550000 15.99940
3893 OM 3893 OM OM1 3893 -0.550000 15.99940
3894 OM 3894 OM OM1 3894 -0.550000 15.99940
3895 OM 3895 OM OM1 3895 -0.550000 15.99940
3896 OM 3896 OM OM1 3896 -0.550000 15.99940
3897 OM 3897 OM OM1 3897 -0.550000 15.99940
3898 OM 3898 OM OM1 3898 -0.550000 15.99940
3899 OM 3899 OM OM1 3899 -0.550000 15.99940
3900 OM 3900 OM OM1 3900 -0.550000 15.99940
3901 OM 3901 OM OM1 3901 -0.550000 15.99940
3902 OM 3902 OM OM1 3902 -0.550000 15.99940
3903 OM 3903 OM OM1 3903 -0.550000 15.99940
3904 OM 3904 OM OM1 3904 -0.550000 15.99940
3905 OM 3905 OM OM1 3905 -0.550000 15.99940
3906 OM 3906 OM OM1 3906 -0.550000 15.99940
3907 OM 3907 OM OM1 3907 -0.550000 15.99940
3908 OM 3908 OM OM1 3908 -0.550000 15.99940
3909 OM 3909 OM OM1 3909 -0.550000 15.99940
3910 OM 3910 OM OM1 3910 -0.550000 15.99940
3911 OM 3911 OM OM1 3911 -0.550000 15.99940
3912 OM 3912 OM OM1 3912 -0.550000 15.99940
3913 OM 3913 OM OM1 3913 -0.550000 15.99940
3914 OM 3914 OM OM1 3914 -0.550000 15.99940
3915 OM 3915 OM OM1 3915 -0.550000 15.99940
3916 OM 3916 OM OM1 3916 -0.550000 15.99940
3917 OM 3917 OM OM1 3917 -0.550000 15.99940
3918 OM 3918 OM OM1 3918 -0.550000 15.99940
3919 OM 3919 OM OM1 3919 -0.550000 15.99940
3920 OM 3920 OM OM1 3920 -0.550000 15.99940
3921 OM 3921 OM OM1 3921 -0.550000 15.99940
3922 OM 3922 OM OM1 3922 -0.550000 15.99940
3923 OM 3923 OM OM1 3923 -0.550000 15.99940
3924 OM 3924 OM OM1 3924 -0.550000 15.99940
3925 OM 3925 OM OM1 3925 -0.550000 15.99940
3926 OM 3926 OM OM1 3926 -0.550000 15.99940
3927 OM 3927 OM OM1 3927 -0.550000 15.99940
3928 OM 3928 OM OM1 3928 -0.550000 15.99940
3929 OM 3929 OM OM1 3929 -0.550000 15.99940
3930 OM 3930 OM OM1 3930 -0.550000 15.99940
3931 OM 3931 OM OM1 3931 -0.550000 15.99940
3932 OM 3932 OM OM1 3932 -0.550000 15.99940
3933 OM 3933 OM OM1 3933 -0.550000 15.99940
3934 OM 3934 OM OM1 3934 -0.550000 15.99940
3935 OM 3935 OM OM1 3935 -0.550000 15.99940
3936 OM 3936 OM OM1 3936 -0.550000 15.99940
3937 OM 3937 OM OM1 3937 -0.550000 15.99940
3938 OM 3938 OM OM1 3938 -0.550000 15.99940
3939 OM 3939 OM OM1 3939 -0.550000 15.99940
3940 OM 3940 OM OM1 3940 -0.550000 15.99940
3941 OM 3941 OM OM1 3941 -0.550000 15.99940
3942 OM 3942 OM OM1 3942 -0.550000 15.99940
3943 OM 3943 OM OM1 3943 -0.550000 15.99940
3944 OM 3944 OM OM1 3944 -0.550000 15.99940
3945 OM 3945 OM OM1 3945 -0.550000 15.99940
3946 OM 3946 OM OM1 3946 -0.550000 15.99940
3947 OM 3947 OM OM1 3947 -0.550000 15.99940
3948 OM 3948 OM OM1 3948 -0.550000 15.99940
3949 OM 3949 OM OM1 3949 -0.550000 15.99940
3950 OM 3950 OM OM1 3950 -0.550000 15.99940
3951 OM 3951 OM OM1 3951 -0.550000 15.99940
3952 OM 3952 OM OM1 3952 -0.550000 15.99940
3953 OM 3953 OM OM1 3953 -0.550000 15.99940
3954 OM 3954 OM OM1 3954 -0.550000 15.99940
3955 OM 3955 OM OM1 3955 -0.550000 15.99940
3956 OM 3956 OM OM1 3956 -0.550000 15.99940
3957 OM 3957 OM OM1 3957 -0.550000 15.99940
3958 OM 3958 OM OM1 3958 -0.550000 15.99940
3959 OM 3959 OM OM1 3959 -0.550000 15.99940
3960 OM 3960 OM OM1 3960 -0.550000 15.99940
3961 OM 3961 OM OM1 3961 -0.550000 15.99940
3962 OM 3962 OM OM1 3962 -0.550000 15.99940
3963 OM 3963 OM OM1 3963 -0.550000 15.99940
3964 OM 3964 OM OM1 3964 -0.550000 15.99940
3965 OM 3965 OM OM1 3965 -0.550000 15.99940
3966 OM 3966 OM OM1 3966 -0.550000 15.99940
3967 OM 3967 OM OM1 3967 -0.550000 15.99940
3968 OM 3968 OM OM1 3968 -0.550000 15.99940
3969 OM 3969 OM OM1 3969 -0.550000 15.99940
3970 OM 3970 OM OM1 3970 -0.550000 15.99940
3971 OM 3971 OM OM1 3971 -0.550000 15.99940
3972 OM 3972 OM OM1 3972 -0.550000 15.99940
3973 OM 3973 OM OM1 3973 -0.550000 15.99940
3974 OM 3974 OM OM1 3974 -0.550000 15.99940
3975 OM 3975 OM OM1 3975 -0.550000 15.99940
3976 OM 3976 OM OM1 3976 -0.550000 15.99940
3977 OM 3977 OM OM1 3977 -0.550000 15.99940
3978 OM 3978 OM OM1 3978 -0.550000 15.99940
3979 OM 3979 OM OM1 3979 -0.550000 15.99940
3980 OM 3980 OM OM1 3980 -0.550000 15.99940
3981 OM 3981 OM OM1 3981 -0.550000 15.99940
3982 OM 3982 OM OM1 3982 -0.550000 15.99940
3983 OM 3983 OM OM1 3983 -0.550000 15.99940
3984 OM 3984 OM OM1 3984 -0.550000 15.99940
3985 OM 3985 OM OM1 3985 -0.550000 15.99940
3986 OM 3986 OM OM1 3986 -0.550000 15.99940
3987 OM 3987 OM OM1 3987 -0.550000 15.99940
3988 OM 3988 OM OM1 3988 -0.550000 15.99940
3989 OM 3989 OM OM1 3989 -0.550000 15.99940
3990 OM 3990 OM OM1 3990 -0.550000 15.99940
3991 OM 3991 OM OM1 3991 -0.550000 15.99940
3992 OM 3992 OM OM1 3992 -0.550000 15.99940
3993 OM 3993 OM OM1 3993 -0.550000 15.99940
3994 OM 3994 OM OM1 3994 -0.550000 15.99940
3995 OM 3995 OM OM1 3995 -0.550000 15.99940
3996 OM 3996 OM OM1 3996 -0.550000 15.99940
3997 OM 3997 OM OM1 3997 -0.550000 15.99940
3998 OM 3998 OM OM1 3998 -0.550000 15.99940
3999 OM 3999 OM OM1 3999 -0.550000 15.99940
4000 OM 4000 OM OM1 4000 -0.550000 15.99940
4001 OM 4001 OM OM1 4001 -0.550000 15.99940
4002 OM 4002 OM OM1 4002 -0.550000 15.99940
4003 OM 4003 OM OM1 4003 -0.550000 15.99940
4004 OM 4004 OM OM1 4004 -0.550000 15.99940
4005 OM 4005 OM OM1 4005 -0.550000 15.99940
4006 OM 4006 OM OM1 4006 -0.550000 15.99940
4007 OM 4007 OM OM1 4007 -0.550000 15.99940
4008 OM 4008 OM OM1 4008 -0.550000 15.99940
4009 OM 4009 OM OM1 4009 -0.550000 15.99940
4010 OM 4010 OM OM1 4010 -0.550000 15.99940
4011 OM 4011 OM OM1 4011 -0.550000 15.99940
4012 OM 4012 OM OM1 4012 -0.550000 15.99940
4013 OM 4013 OM OM1 4013 -0.550000 15.99940
4014 OM 4014 OM OM1 4014 -0.550000 15.99940
4015 OM 4015 OM OM1 4015 -0.550000 15.99940
4016 OM 4016 OM OM1 4016 -0.550000 15.99940
4017 OM 4017 OM OM1 4017 -0.550000 15.99940
4018 OM 4018 OM OM1 4018 -0.550000 15.99940
4019 OM 4019 OM OM1 4019 -0.550000 15.99940
4020 OM 4020 OM OM1 4020 -0.550000 15.99940
4021 OM 4021 OM OM1 4021 -0.550000 15.99940
4022 OM 4022 OM OM1 4022 -0.550000 15.99940
4023 OM 4023 OM OM1 4023 -0.550000 15.99940
4024 OM 4024 OM OM1 4024 -0.550000 15.99940
4025 OM 4025 OM OM1 4025 -0.550000 15.99940
4026 OM 4026 OM OM1 4026 -0.550000 15.99940
4027 OM 4027 OM OM1 4027 -0.550000 15.99940
4028 OM 4028 OM OM1 4028 -0.550000 15.99940
4029 OM 4029 OM OM1 4029 -0.550000 15.99940
4030 OM 4030 OM OM1 4030 -0.550000 15.99940
4031 OM 4031 OM OM1 4031 -0.550000 15.99940
4032 OM 4032 OM OM1 4032 -0.550000 15.99940
4033 OM 4033 OM OM1 4033 -0.550000 15.99940
4034 OM 4034 OM OM1 4034 -0.550000 15.99940
4035 OM 4035 OM OM1 4035 -0.550000 15.99940
4036 OM 4036 OM OM1 4036 -0.550000 15.99940
4037 OM 4037 OM OM1 4037 -0.550000 15.99940
4038 OM 4038 OM OM1 4038 -0.550000 15.99940
4039 OM 4039 OM OM1 4039 -0.550000 15.99940
4040 OM 4040 OM OM1 4040 -0.550000 15.99940
4041 OM 4041 OM OM1 4041 -0.550000 15.99940
4042 OM 4042 OM OM1 4042 -0.550000 15.99940
4043 OM 4043 OM OM1 4043 -0.550000 15.99940
4044 OM 4044 OM OM1 4044 -0.550000 15.99940
4045 OM 4045 OM OM1 4045 -0.550000 15.99940
4046 OM 4046 OM OM1 4046 -0.550000 15.99940
4047 OM 4047 OM OM1 4047 -0.550000 15.99940
4048 OM 4048 OM OM1 4048 -0.550000 15.99940
4049 OM 4049 OM OM1 4049 -0.550000 15.99940
4050 OM 4050 OM OM1 4050 -0.550000 15.99940
4051 OM 4051 OM OM1 4051 -0.550000 15.99940
4052 OM 4052 OM OM1 4052 -0.550000 15.99940
4053 OM 4053 OM OM1 4053 -0.550000 15.99940
4054 OM 4054 OM OM1 4054 -0.550000 15.99940
4055 OM 4055 OM OM1 4055 -0.550000 15.99940
4056 OM 4056 OM OM1 4056 -0.550000 15.99940
4057 OM 4057 OM OM1 4057 -0.550000 15.99940
4058 OM 4058 OM OM1 4058 -0.550000 15.99940
4059 OM 4059 OM OM1 4059 -0.550000 15.99940
4060 OM 4060 OM OM1 4060 -0.550000 15.99940
4061 OM 4061 OM OM1 4061 -0.550000 15.99940
4062 OM 4062 OM OM1 4062 -0.550000 15.99940
4063 OM 4063 OM OM1 4063 -0.550000 15.99940
4064 OM 4064 OM OM1 4064 -0.550000 15.99940
4065 OM 4065 OM OM1 4065 -0.550000 15.99940
4066 OM 4066 OM OM1 4066 -0.550000 15.99940
4067 OM 4067 OM OM1 4067 -0.550000 15.99940
4068 OM 4068 OM OM1 4068 -0.550000 15.99940
4069 OM 4069 OM OM1 4069 -0.550000 15.99940
4070 OM 4070 OM OM1 4070 -0.550000 15.99940
4071 OM 4071 OM OM1 4071 -0.550000 15.99940
4072 OM 4072 OM OM1 4072 -0.550000 15.99940
4073 OM 4073 OM OM1 4073 -0.550000 15.99940
4074 OM 4074 OM OM1 4074 -0.550000 15.99940
4075 OM 4075 OM OM1 4075 -0.550000 15.99940
4076 OM 4076 OM OM1 4076 -0.550000 15.99940
4077 OM 4077 OM OM1 4077 -0.550000 15.99940
4078 OM 4078 OM OM1 4078 -0.550000 15.99940
4079 OM 4079 OM OM1 4079 -0.550000 15.99940
4080 OM 4080 OM OM1 4080 -0.550000 15.99940
4081 OM 4081 OM OM1 4081 -0.550000 15.99940
4082 OM 4082 OM OM1 4082 -0.550000 15.99940
4083 OM 4083 OM OM1 4083 -0.550000 15.99940
4084 OM 4084 OM OM1 4084 -0.550000 15.99940
4085 OM 4085 OM OM1 4085 -0.550000 15.99940
4086 OM 4086 OM OM1 4086 -0.550000 15.99940
4087 OM 4087 OM OM1 4087 -0.550000 15.99940
4088 OM 4088 OM OM1 4088 -0.550000 15.99940
4089 OM 4089 OM OM1 4089 -0.550000 15.99940
4090 OM 4090 OM OM1 4090 -0.550000 15.99940
4091 OM 4091 OM OM1 4091 -0.550000 15.99940
4092 OM 4092 OM OM1 4092 -0.550000 15.99940
4093 OM 4093 OM OM1 4093 -0.550000 15.99940
4094 OM 4094 OM OM1 4094 -0.550000 15.99940
4095 OM 4095 OM OM1 4095 -0.550000 15.99940
4096 OM 4096 OM OM1 4096 -0.550000 15.99940
4097 OM 4097 OM OM1 4097 -0.550000 15.99940
4098 OM 4098 OM OM1 4098 -0.550000 15.99940
4099 OM 4099 OM OM1 4099 -0.550000 15.99940
4100 OM 4100 OM OM1 4100 -0.550000 15.99940
4101 OM 4101 OM OM1 4101 -0.550000 15.99940
4102 OM 4102 OM OM1 4102 -0.550000 15.99940
4103 OM 4103 OM OM1 4103 -0.550000 15.99940
4104 OM 4104 OM OM1 4104 -0.550000 15.99940
4105 OM 4105 OM OM1 4105 -0.550000 15.99940
4106 OM 4106 OM OM1 4106 -0.550000 15.99940
4107 OM 4107 OM OM1 4107 -0.550000 15.99940
4108 OM 4108 OM OM1 4108 -0.550000 15.99940
4109 OM 4109 OM OM1 4109 -0.550000 15.99940
4110 OM 4110 OM OM1 4110 -0.550000 15.99940
4111 OM 4111 OM OM1 4111 -0.550000 15.99940
4112 OM 4112 OM OM1 4112 -0.550000 15.99940
4113 OM 4113 OM OM1 4113 -0.550000 15.99940
4114 OM 4114 OM OM1 4114 -0.550000 15.99940
4115 OM 4115 OM OM1 4115 -0.550000 15.99940
4116 OM 4116 OM OM1 4116 -0.550000 15.99940
4117 OM 4117 OM OM1 4117 -0.550000 15.99940
4118 OM 4118 OM OM1 4118 -0.550000 15.99940
4119 OM 4119 OM OM1 4119 -0.550000 15.99940
4120 OM 4120 OM OM1 4120 -0.550000 15.99940
4121 OM 4121 OM OM1 4121 -0.550000 15.99940
4122 OM 4122 OM OM1 4122 -0.550000 15.99940
4123 OM 4123 OM OM1 4123 -0.550000 15.99940
4124 OM 4124 OM OM1 4124 -0.550000 15.99940
4125 OM 4125 OM OM1 4125 -0.550000 15.99940
4126 OM 4126 OM OM1 4126 -0.550000 15.99940
4127 OM 4127 OM OM1 4127 -0.550000 15.99940
4128 OM 4128 OM OM1 4128 -0.550000 15.99940
4129 OM 4129 OM OM1 4129 -0.550000 15.99940
4130 OM 4130 OM OM1 4130 -0.550000 15.99940
4131 OM 4131 OM OM1 4131 -0.550000 15.99940
4132 OM 4132 OM OM1 4132 -0.550000 15.99940
4133 OM 4133 OM OM1 4133 -0.550000 15.99940
4134 OM 4134 OM OM1 4134 -0.550000 15.99940
4135 OM 4135 OM OM1 4135 -0.550000 15.99940
4136 OM 4136 OM OM1 4136 -0.550000 15.99940
4137 OM 4137 OM OM1 4137 -0.550000 15.99940
4138 OM 4138 OM OM1 4138 -0.550000 15.99940
4139 OM 4139 OM OM1 4139 -0.550000 15.99940
4140 OM 4140 OM OM1 4140 -0.550000 15.99940
4141 OM 4141 OM OM1 4141 -0.550000 15.99940
4142 OM 4142 OM OM1 4142 -0.550000 15.99940
4143 OM 4143 OM OM1 4143 -0.550000 15.99940
4144 OM 4144 OM OM1 4144 -0.550000 15.99940
4145 OM 4145 OM OM1 4145 -0.550000 15.99940
4146 OM 4146 OM OM1 4146 -0.550000 15.99940
4147 OM 4147 OM OM1 4147 -0.550000 15.99940
4148 OM 4148 OM OM1 4148 -0.550000 15.99940
4149 OM 4149 OM OM1 4149 -0.550000 15.99940
4150 OM 4150 OM OM1 4150 -0.550000 15.99940
4151 OM 4151 OM OM1 4151 -0.550000 15.99940
4152 OM 4152 OM OM1 4152 -0.550000 15.99940
4153 OM 4153 OM OM1 4153 -0.550000 15.99940
4154 OM 4154 OM OM1 4154 -0.550000 15.99940
4155 OM 4155 OM OM1 4155 -0.550000 15.99940
4156 OM 4156 OM OM1 4156 -0.550000 15.99940
4157 OM 4157 OM OM1 4157 -0.550000 15.99940
4158 OM 4158 OM OM1 4158 -0.550000 15.99940
4159 OM 4159 OM OM1 4159 -0.550000 15.99940
4160 OM 4160 OM OM1 4160 -0.550000 15.99940
4161 OM 4161 OM OM1 4161 -0.550000 15.99940
4162 OM 4162 OM OM1 4162 -0.550000 15.99940
4163 OM 4163 OM OM1 4163 -0.550000 15.99940
4164 OM 4164 OM OM1 4164 -0.550000 15.99940
4165 OM 4165 OM OM1 4165 -0.550000 15.99940
4166 OM 4166 OM OM1 4166 -0.550000 15.99940
4167 OM 4167 OM OM1 4167 -0.550000 15.99940
4168 OM 4168 OM OM1 4168 -0.550000 15.99940
4169 OM 4169 OM OM1 4169 -0.550000 15.99940
4170 OM 4170 OM OM1 4170 -0.550000 15.99940
4171 OM 4171 OM OM1 4171 -0.550000 15.99940
4172 OM 4172 OM OM1 4172 -0.550000 15.99940
4173 OM 4173 OM OM1 4173 -0.550000 15.99940
4174 OM 4174 OM OM1 4174 -0.550000 15.99940
4175 OM 4175 OM OM1 4175 -0.550000 15.99940
4176 OM 4176 OM OM1 4176 -0.550000 15.99940
4177 OM 4177 OM OM1 4177 -0.550000 15.99940
4178 OM 4178 OM OM1 4178 -0.550000 15.99940
4179 OM 4179 OM OM1 4179 -0.550000 15.99940
4180 OM 4180 OM OM1 4180 -0.550000 15.99940
4181 OM 4181 OM OM1 4181 -0.550000 15.99940
4182 OM 4182 OM OM1 4182 -0.550000 15.99940
4183 OM 4183 OM OM1 4183 -0.550000 15.99940
4184 OM 4184 OM OM1 4184 -0.550000 15.99940
4185 OM 4185 OM OM1 4185 -0.550000 15.99940
4186 OM 4186 OM OM1 4186 -0.550000 15.99940
4187 OM 4187 OM OM1 4187 -0.550000 15.99940
4188 OM 4188 OM OM1 4188 -0.550000 15.99940
4189 OM 4189 OM OM1 4189 -0.550000 15.99940
4190 OM 4190 OM OM1 4190 -0.550000 15.99940
4191 OM 4191 OM OM1 4191 -0.550000 15.99940
4192 OM 4192 OM OM1 4192 -0.550000 15.99940
4193 OM 4193 OM OM1 4193 -0.550000 15.99940
4194 OM 4194 OM OM1 4194 -0.550000 15.99940
4195 OM 4195 OM OM1 4195 -0.550000 15.99940
4196 OM 4196 OM OM1 4196 -0.550000 15.99940
4197 OM 4197 OM OM1 4197 -0.550000 15.99940
4198 OM 4198 OM OM1 4198 -0.550000 15.99940
4199 OM 4199 OM OM1 4199 -0.550000 15.99940
4200 OM 4200 OM OM1 4200 -0.550000 15.99940
4201 OM 4201 OM OM1 4201 -0.550000 15.99940
4202 OM 4202 OM OM1 4202 -0.550000 15.99940
4203 OM 4203 OM OM1 4203 -0.550000 15.99940
4204 OM 4204 OM OM1 4204 -0.550000 15.99940
4205 OM 4205 OM OM1 4205 -0.550000 15.99940
4206 OM 4206 OM OM1 4206 -0.550000 15.99940
4207 OM 4207 OM OM1 4207 -0.550000 15.99940
4208 OM 4208 OM OM1 4208 -0.550000 15.99940
4209 OM 4209 OM OM1 4209 -0.550000 15.99940
4210 OM 4210 OM OM1 4210 -0.550000 15.99940
4211 OM 4211 OM OM1 4211 -0.550000 15.99940
4212 OM 4212 OM OM1 4212 -0.550000 15.99940
4213 OM 4213 OM OM1 4213 -0.550000 15.99940
4214 OM 4214 OM OM1 4214 -0.550000 15.99940
4215 OM 4215 OM OM1 4215 -0.550000 15.99940
4216 OM 4216 OM OM1 4216 -0.550000 15.99940
4217 OM 4217 OM OM1 4217 -0.550000 15.99940
4218 OM 4218 OM OM1 4218 -0.550000 15.99940
4219 OM 4219 OM OM1 4219 -0.550000 15.99940
4220 OM 4220 OM OM1 4220 -0.550000 15.99940
4221 OM 4221 OM OM1 4221 -0.550000 15.99940
4222 OM 4222 OM OM1 4222 -0.550000 15.99940
4223 OM 4223 OM OM1 4223 -0.550000 15.99940
4224 OM 4224 OM OM1 4224 -0.550000 15.99940
4225 OM 4225 OM OM1 4225 -0.550000 15.99940
4226 OM 4226 OM OM1 4226 -0.550000 15.99940
4227 OM 4227 OM OM1 4227 -0.550000 15.99940
4228 OM 4228 OM OM1 4228 -0.550000 15.99940
4229 OM 4229 OM OM1 4229 -0.550000 15.99940
4230 OM 4230 OM OM1 4230 -0.550000 15.99940
4231 OM 4231 OM OM1 4231 -0.550000 15.99940
4232 OM 4232 OM OM1 4232 -0.550000 15.99940
4233 OM 4233 OM OM1 4233 -0.550000 15.99940
4234 OM 4234 OM OM1 4234 -0.550000 15.99940
4235 OM 4235 OM OM1 4235 -0.550000 15.99940
4236 OM 4236 OM OM1 4236 -0.550000 15.99940
4237 OM 4237 OM OM1 4237 -0.550000 15.99940
4238 OM 4238 OM OM1 4238 -0.550000 15.99940
4239 OM 4239 OM OM1 4239 -0.550000 15.99940
4240 OM 4240 OM OM1 4240 -0.550000 15.99940
4241 OM 4241 OM OM1 4241 -0.550000 15.99940
4242 OM 4242 OM OM1 4242 -0.550000 15.99940
4243 OM 4243 OM OM1 4243 -0.550000 15.99940
4244 OM 4244 OM OM1 4244 -0.550000 15.99940
4245 OM 4245 OM OM1 4245 -0.550000 15.99940
4246 OM 4246 OM OM1 4246 -0.550000 15.99940
4247 OM 4247 OM OM1 4247 -0.550000 15.99940
4248 OM 4248 OM OM1 4248 -0.550000 15.99940
4249 OM 4249 OM OM1 4249 -0.550000 15.99940
4250 OM 4250 OM OM1 4250 -0.550000 15.99940
4251 OM 4251 OM OM1 4251 -0.550000 15.99940
4252 OM 4252 OM OM1 4252 -0.550000 15.99940
4253 OM 4253 OM OM1 4253 -0.550000 15.99940
4254 OM 4254 OM OM1 4254 -0.550000 15.99940
4255 OM 4255 OM OM1 4255 -0.550000 15.99940
4256 OM 4256 OM OM1 4256 -0.550000 15.99940
4257 OM 4257 OM OM1 4257 -0.550000 15.99940
4258 OM 4258 OM OM1 4258 -0.550000 15.99940
4259 OM 4259 OM OM1 4259 -0.550000 15.99940
4260 OM 4260 OM OM1 4260 -0.550000 15.99940
4261 OM 4261 OM OM1 4261 -0.550000 15.99940
4262 OM 4262 OM OM1 4262 -0.550000 15.99940
4263 OM 4263 OM OM1 4263 -0.550000 15.99940
4264 OM 4264 OM OM1 4264 -0.550000 15.99940
4265 OM 4265 OM OM1 4265 -0.550000 15.99940
4266 OM 4266 OM OM1 4266 -0.550000 15.99940
4267 OM 4267 OM OM1 4267 -0.550000 15.99940
4268 OM 4268 OM OM1 4268 -0.550000 15.99940
4269 OM 4269 OM OM1 4269 -0.550000 15.99940
4270 OM 4270 OM OM1 4270 -0.550000 15.99940
4271 OM 4271 OM OM1 4271 -0.550000 15.99940
4272 OM 4272 OM OM1 4272 -0.550000 15.99940
4273 OM 4273 OM OM1 4273 -0.550000 15.99940
4274 OM 4274 OM OM1 4274 -0.550000 15.99940
4275 OM 4275 OM OM1 4275 -0.550000 15.99940
4276 OM 4276 OM OM1 4276 -0.550000 15.99940
4277 OM 4277 OM OM1 4277 -0.550000 15.99940
4278 OM 4278 OM OM1 4278 -0.550000 15.99940
4279 OM 4279 OM OM1 4279 -0.550000 15.99940
4280 OM 4280 OM OM1 4280 -0.550000 15.99940
4281 OM 4281 OM OM1 4281 -0.550000 15.99940
4282 OM 4282 OM OM1 4282 -0.550000 15.99940
4283 OM 4283 OM OM1 4283 -0.550000 15.99940
4284 OM 4284 OM OM1 4284 -0.550000 15.99940
4285 OM 4285 OM OM1 4285 -0.550000 15.99940
4286 OM 4286 OM OM1 4286 -0.550000 15.99940
4287 OM 4287 OM OM1 4287 -0.550000 15.99940
4288 OM 4288 OM OM1 4288 -0.550000 15.99940
4289 OM 4289 OM OM1 4289 -0.550000 15.99940
4290 OM 4290 OM OM1 4290 -0.550000 15.99940
4291 OM 4291 OM OM1 4291 -0.550000 15.99940
4292 OM 4292 OM OM1 4292 -0.550000 15.99940
4293 OM 4293 OM OM1 4293 -0.550000 15.99940
4294 OM 4294 OM OM1 4294 -0.550000 15.99940
4295 OM 4295 OM OM1 4295 -0.550000 15.99940
4296 OM 4296 OM OM1 4296 -0.550000 15.99940
4297 OM 4297 OM OM1 4297 -0.550000 15.99940
4298 OM 4298 OM OM1 4298 -0.550000 15.99940
4299 OM 4299 OM OM1 4299 -0.550000 15.99940
4300 OM 4300 OM OM1 4300 -0.550000 15.99940
4301 OM 4301 OM OM1 4301 -0.550000 15.99940
4302 OM 4302 OM OM1 4302 -0.550000 15.99940
4303 OM 4303 OM OM1 4303 -0.550000 15.99940
4304 OM 4304 OM OM1 4304 -0.550000 15.99940
4305 OM 4305 OM OM1 4305 -0.550000 15.99940
4306 OM 4306 OM OM1 4306 -0.550000 15.99940
4307 OM 4307 OM OM1 4307 -0.550000 15.99940
4308 OM 4308 OM OM1 4308 -0.550000 15.99940
4309 OM 4309 OM OM1 4309 -0.550000 15.99940
4310 OM 4310 OM OM1 4310 -0.550000 15.99940
4311 OM 4311 OM OM1 4311 -0.550000 15.99940
4312 OM 4312 OM OM1 4312 -0.550000 15.99940
4313 OM 4313 OM OM1 4313 -0.550000 15.99940
4314 OM 4314 OM OM1 4314 -0.550000 15.99940
4315 OM 4315 OM OM1 4315 -0.550000 15.99940
4316 OM 4316 OM OM1 4316 -0.550000 15.99940
4317 OM 4317 OM OM1 4317 -0.550000 15.99940
4318 OM 4318 OM OM1 4318 -0.550000 15.99940
4319 OM 4319 OM OM1 4319 -0.550000 15.99940
4320 OM 4320 OM OM1 4320 -0.550000 15.99940
4321 OM 4321 OM OM1 4321 -0.550000 15.99940
4322 OM 4322 OM OM1 4322 -0.550000 15.99940
4323 OM 4323 OM OM1 4323 -0.550000 15.99940
4324 OM 4324 OM OM1 4324 -0.550000 15.99940
4325 OM 4325 OM OM1 4325 -0.550000 15.99940
4326 OM 4326 OM OM1 4326 -0.550000 15.99940
4327 OM 4327 OM OM1 4327 -0.550000 15.99940
4328 OM 4328 OM OM1 4328 -0.550000 15.99940
4329 OM 4329 OM OM1 4329 -0.550000 15.99940
4330 OM 4330 OM OM1 4330 -0.550000 15.99940
4331 OM 4331 OM OM1 4331 -0.550000 15.99940
4332 OM 4332 OM OM1 4332 -0.550000 15.99940
4333 OM 4333 OM OM1 4333 -0.550000 15.99940
4334 OM 4334 OM OM1 4334 -0.550000 15.99940
4335 OM 4335 OM OM1 4335 -0.550000 15.99940
4336 OM 4336 OM OM1 4336 -0.550000 15.99940
4337 OM 4337 OM OM1 4337 -0.550000 15.99940
4338 OM 4338 OM OM1 4338 -0.550000 15.99940
4339 OM 4339 OM OM1 4339 -0.550000 15.99940
4340 OM 4340 OM OM1 4340 -0.550000 15.99940
4341 OM 4341 OM OM1 4341 -0.550000 15.99940
4342 OM 4342 OM OM1 4342 -0.550000 15.99940
4343 OM 4343 OM OM1 4343 -0.550000 15.99940
4344 OM 4344 OM OM1 4344 -0.550000 15.99940
4345 OM 4345 OM OM1 4345 -0.550000 15.99940
4346 OM 4346 OM OM1 4346 -0.550000 15.99940
4347 OM 4347 OM OM1 4347 -0.550000 15.99940
4348 OM 4348 OM OM1 4348 -0.550000 15.99940
4349 OM 4349 OM OM1 4349 -0.550000 15.99940
4350 OM 4350 OM OM1 4350 -0.550000 15.99940
4351 OM 4351 OM OM1 4351 -0.550000 15.99940
4352 OM 4352 OM OM1 4352 -0.550000 15.99940
4353 OM 4353 OM OM1 4353 -0.550000 15.99940
4354 OM 4354 OM OM1 4354 -0.550000 15.99940
4355 OM 4355 OM OM1 4355 -0.550000 15.99940
4356 OM 4356 OM OM1 4356 -0.550000 15.99940
4357 OM 4357 OM OM1 4357 -0.550000 15.99940
4358 OM 4358 OM OM1 4358 -0.550000 15.99940
4359 OM 4359 OM OM1 4359 -0.550000 15.99940
4360 OM 4360 OM OM1 4360 -0.550000 15.99940
4361 OM 4361 OM OM1 4361 -0.550000 15.99940
4362 OM 4362 OM OM1 4362 -0.550000 15.99940
4363 OM 4363 OM OM1 4363 -0.550000 15.99940
4364 OM 4364 OM OM1 4364 -0.550000 15.99940
4365 OM 4365 OM OM1 4365 -0.550000 15.99940
4366 OM 4366 OM OM1 4366 -0.550000 15.99940
4367 OM 4367 OM OM1 4367 -0.550000 15.99940
4368 OM 4368 OM OM1 4368 -0.550000 15.99940
4369 OM 4369 OM OM1 4369 -0.550000 15.99940
4370 OM 4370 OM OM1 4370 -0.550000 15.99940
4371 OM 4371 OM OM1 4371 -0.550000 15.99940
4372 OM 4372 OM OM1 4372 -0.550000 15.99940
4373 OM 4373 OM OM1 4373 -0.550000 15.99940
4374 OM 4374 OM OM1 4374 -0.550000 15.99940
4375 OM 4375 OM OM1 4375 -0.550000 15.99940
4376 OM 4376 OM OM1 4376 -0.550000 15.99940
4377 OM 4377 OM OM1 4377 -0.550000 15.99940
4378 OM 4378 OM OM1 4378 -0.550000 15.99940
4379 OM 4379 OM OM1 4379 -0.550000 15.99940
4380 OM 4380 OM OM1 4380 -0.550000 15.99940
4381 OM 4381 OM OM1 4381 -0.550000 15.99940
4382 OM 4382 OM OM1 4382 -0.550000 15.99940
4383 OM 4383 OM OM1 4383 -0.550000 15.99940
4384 OM 4384 OM OM1 4384 -0.550000 15.99940
4385 OM 4385 OM OM1 4385 -0.550000 15.99940
4386 OM 4386 OM OM1 4386 -0.550000 15.99940
4387 OM 4387 OM OM1 4387 -0.550000 15.99940
4388 OM 4388 OM OM1 4388 -0.550000 15.99940
4389 OM 4389 OM OM1 4389 -0.550000 15.99940
4390 OM 4390 OM OM1 4390 -0.550000 15.99940
4391 OM 4391 OM OM1 4391 -0.550000 15.99940
4392 OM 4392 OM OM1 4392 -0.550000 15.99940
4393 OM 4393 OM OM1 4393 -0.550000 15.99940
4394 OM 4394 OM OM1 4394 -0.550000 15.99940
4395 OM 4395 OM OM1 4395 -0.550000 15.99940
4396 OM 4396 OM OM1 4396 -0.550000 15.99940
4397 OM 4397 OM OM1 4397 -0.550000 15.99940
4398 OM 4398 OM OM1 4398 -0.550000 15.99940
4399 OM 4399 OM OM1 4399 -0.550000 15.99940
4400 OM 4400 OM OM1 4400 -0.550000 15.99940
4401 OM 4401 OM OM1 4401 -0.550000 15.99940
4402 OM 4402 OM OM1 4402 -0.550000 15.99940
4403 OM 4403 OM OM1 4403 -0.550000 15.99940
4404 OM 4404 OM OM1 4404 -0.550000 15.99940
4405 OM 4405 OM OM1 4405 -0.550000 15.99940
4406 OM 4406 OM OM1 4406 -0.550000 15.99940
4407 OM 4407 OM OM1 4407 -0.550000 15.99940
4408 OM 4408 OM OM1 4408 -0.550000 15.99940
4409 OM 4409 OM OM1 4409 -0.550000 15.99940
4410 OM 4410 OM OM1 4410 -0.550000 15.99940
4411 OM 4411 OM OM1 4411 -0.550000 15.99940
4412 OM 4412 OM OM1 4412 -0.550000 15.99940
4413 OM 4413 OM OM1 4413 -0.550000 15.99940
4414 OM 4414 OM OM1 4414 -0.550000 15.99940
4415 OM 4415 OM OM1 4415 -0.550000 15.99940
4416 OM 4416 OM OM1 4416 -0.550000 15.99940
4417 OM 4417 OM OM1 4417 -0.550000 15.99940
4418 OM 4418 OM OM1 4418 -0.550000 15.99940
4419 OM 4419 OM OM1 4419 -0.550000 15.99940
4420 OM 4420 OM OM1 4420 -0.550000 15.99940
4421 OM 4421 OM OM1 4421 -0.550000 15.99940
4422 OM 4422 OM OM1 4422 -0.550000 15.99940
4423 OM 4423 OM OM1 4423 -0.550000 15.99940
4424 OM 4424 OM OM1 4424 -0.550000 15.99940
4425 OM 4425 OM OM1 4425 -0.550000 15.99940
4426 OM 4426 OM OM1 4426 -0.550000 15.99940
4427 OM 4427 OM OM1 4427 -0.550000 15.99940
4428 OM 4428 OM OM1 4428 -0.550000 15.99940
4429 OM 4429 OM OM1 4429 -0.550000 15.99940
4430 OM 4430 OM OM1 4430 -0.550000 15.99940
4431 OM 4431 OM OM1 4431 -0.550000 15.99940
4432 OM 4432 OM OM1 4432 -0.550000 15.99940
4433 OM 4433 OM OM1 4433 -0.550000 15.99940
4434 OM 4434 OM OM1 4434 -0.550000 15.99940
4435 OM 4435 OM OM1 4435 -0.550000 15.99940
4436 OM 4436 OM OM1 4436 -0.550000 15.99940
4437 OM 4437 OM OM1 4437 -0.550000 15.99940
4438 OM 4438 OM OM1 4438 -0.550000 15.99940
4439 OM 4439 OM OM1 4439 -0.550000 15.99940
4440 OM 4440 OM OM1 4440 -0.550000 15.99940
4441 OM 4441 OM OM1 4441 -0.550000 15.99940
4442 OM 4442 OM OM1 4442 -0.550000 15.99940
4443 OM 4443 OM OM1 4443 -0.550000 15.99940
4444 OM 4444 OM OM1 4444 -0.550000 15.99940
4445 OM 4445 OM OM1 4445 -0.550000 15.99940
4446 OM 4446 OM OM1 4446 -0.550000 15.99940
4447 OM 4447 OM OM1 4447 -0.550000 15.99940
4448 OM 4448 OM OM1 4448 -0.550000 15.99940
4449 OM 4449 OM OM1 4449 -0.550000 15.99940
4450 OM 4450 OM OM1 4450 -0.550000 15.99940
4451 OM 4451 OM OM1 4451 -0.550000 15.99940
4452 OM 4452 OM OM1 4452 -0.550000 15.99940
4453 OM 4453 OM OM1 4453 -0.550000 15.99940
4454 OM 4454 OM OM1 4454 -0.550000 15.99940
4455 OM 4455 OM OM1 4455 -0.550000 15.99940
4456 OM 4456 OM OM1 4456 -0.550000 15.99940
4457 OM 4457 OM OM1 4457 -0.550000 15.99940
4458 OM 4458 OM OM1 4458 -0.550000 15.99940
4459 OM 4459 OM OM1 4459 -0.550000 15.99940
4460 OM 4460 OM OM1 4460 -0.550000 15.99940
4461 OM 4461 OM OM1 4461 -0.550000 15.99940
4462 OM 4462 OM OM1 4462 -0.550000 15.99940
4463 OM 4463 OM OM1 4463 -0.550000 15.99940
4464 OM 4464 OM OM1 4464 -0.550000 15.99940
4465 OM 4465 OM OM1 4465 -0.550000 15.99940
4466 OM 4466 OM OM1 4466 -0.550000 15.99940
4467 OM 4467 OM OM1 4467 -0.550000 15.99940
4468 OM 4468 OM OM1 4468 -0.550000 15.99940
4469 OM 4469 OM OM1 4469 -0.550000 15.99940
4470 OM 4470 OM OM1 4470 -0.550000 15.99940
4471 OM 4471 OM OM1 4471 -0.550000 15.99940
4472 OM 4472 OM OM1 4472 -0.550000 15.99940
4473 OM 4473 OM OM1 4473 -0.550000 15.99940
4474 OM 4474 OM OM1 4474 -0.550000 15.99940
4475 OM 4475 OM OM1 4475 -0.550000 15.99940
4476 OM 4476 OM OM1 4476 -0.550000 15.99940
4477 OM 4477 OM OM1 4477 -0.550000 15.99940
4478 OM 4478 OM OM1 4478 -0.550000 15.99940
4479 OM 4479 OM OM1 4479 -0.550000 15.99940
4480 OM 4480 OM OM1 4480 -0.550000 15.99940
4481 OM 4481 OM OM1 4481 -0.550000 15.99940
4482 OM 4482 OM OM1 4482 -0.550000 15.99940
4483 OM 4483 OM OM1 4483 -0.550000 15.99940
4484 OM 4484 OM OM1 4484 -0.550000 15.99940
4485 OM 4485 OM OM1 4485 -0.550000 15.99940
4486 OM 4486 OM OM1 4486 -0.550000 15.99940
4487 OM 4487 OM OM1 4487 -0.550000 15.99940
4488 OM 4488 OM OM1 4488 -0.550000 15.99940
4489 OM 4489 OM OM1 4489 -0.550000 15.99940
4490 OM 4490 OM OM1 4490 -0.550000 15.99940
4491 OM 4491 OM OM1 4491 -0.550000 15.99940
4492 OM 4492 OM OM1 4492 -0.550000 15.99940
4493 OM 4493 OM OM1 4493 -0.550000 15.99940
4494 OM 4494 OM OM1 4494 -0.550000 15.99940
4495 OM 4495 OM OM1 4495 -0.550000 15.99940
4496 OM 4496 OM OM1 4496 -0.550000 15.99940
4497 OM 4497 OM OM1 4497 -0.550000 15.99940
4498 OM 4498 OM OM1 4498 -0.550000 15.99940
4499 OM 4499 OM OM1 4499 -0.550000 15.99940
4500 OM 4500 OM OM1 4500 -0.550000 15.99940
4501 OM 4501 OM OM1 4501 -0.550000 15.99940
4502 OM 4502 OM OM1 4502 -0.550000 15.99940
4503 OM 4503 OM OM1 4503 -0.550000 15.99940
4504 OM 4504 OM OM1 4504 -0.550000 15.99940
4505 OM 4505 OM OM1 4505 -0.550000 15.99940
4506 OM 4506 OM OM1 4506 -0.550000 15.99940
4507 OM 4507 OM OM1 4507 -0.550000 15.99940
4508 OM 4508 OM OM1 4508 -0.550000 15.99940
4509 OM 4509 OM OM1 4509 -0.550000 15.99940
4510 OM 4510 OM OM1 4510 -0.550000 15.99940
4511 OM 4511 OM OM1 4511 -0.550000 15.99940
4512 OM 4512 OM OM1 4512 -0.550000 15.99940
4513 OM 4513 OM OM1 4513 -0.550000 15.99940
4514 OM 4514 OM OM1 4514 -0.550000 15.99940
4515 OM 4515 OM OM1 4515 -0.550000 15.99940
4516 OM 4516 OM OM1 4516 -0.550000 15.99940
4517 OM 4517 OM OM1 4517 -0.550000 15.99940
4518 OM 4518 OM OM1 4518 -0.550000 15.99940
4519 OM 4519 OM OM1 4519 -0.550000 15.99940
4520 OM 4520 OM OM1 4520 -0.550000 15.99940
4521 OM 4521 OM OM1 4521 -0.550000 15.99940
4522 OM 4522 OM OM1 4522 -0.550000 15.99940
4523 OM 4523 OM OM1 4523 -0.550000 15.99940
4524 OM 4524 OM OM1 4524 -0.550000 15.99940
4525 OM 4525 OM OM1 4525 -0.550000 15.99940
4526 OM 4526 OM OM1 4526 -0.550000 15.99940
4527 OM 4527 OM OM1 4527 -0.550000 15.99940
4528 OM 4528 OM OM1 4528 -0.550000 15.99940
4529 OM 4529 OM OM1 4529 -0.550000 15.99940
4530 OM 4530 OM OM1 4530 -0.550000 15.99940
4531 OM 4531 OM OM1 4531 -0.550000 15.99940
4532 OM 4532 OM OM1 4532 -0.550000 15.99940
4533 OM 4533 OM OM1 4533 -0.550000 15.99940
4534 OM 4534 OM OM1 4534 -0.550000 15.99940
4535 OM 4535 OM OM1 4535 -0.550000 15.99940
4536 OM 4536 OM OM1 4536 -0.550000 15.99940
4537 OM 4537 OM OM1 4537 -0.550000 15.99940
4538 OM 4538 OM OM1 4538 -0.550000 15.99940
4539 OM 4539 OM OM1 4539 -0.550000 15.99940
4540 OM 4540 OM OM1 4540 -0.550000 15.99940
4541 OM 4541 OM OM1 4541 -0.550000 15.99940
4542 OM 4542 OM OM1 4542 -0.550000 15.99940
4543 OM 4543 OM OM1 4543 -0.550000 15.99940
4544 OM 4544 OM OM1 4544 -0.550000 15.99940
4545 OM 4545 OM OM1 4545 -0.550000 15.99940
4546 OM 4546 OM OM1 4546 -0.550000 15.99940
4547 OM 4547 OM OM1 4547 -0.550000 15.99940
4548 OM 4548 OM OM1 4548 -0.550000 15.99940
4549 OM 4549 OM OM1 4549 -0.550000 15.99940
4550 OM 4550 OM OM1 4550 -0.550000 15.99940
4551 OM 4551 OM OM1 4551 -0.550000 15.99940
4552 OM 4552 OM OM1 4552 -0.550000 15.99940
4553 OM 4553 OM OM1 4553 -0.550000 15.99940
4554 OM 4554 OM OM1 4554 -0.550000 15.99940
4555 OM 4555 OM OM1 4555 -0.550000 15.99940
4556 OM 4556 OM OM1 4556 -0.550000 15.99940
4557 OM 4557 OM OM1 4557 -0.550000 15.99940
4558 OM 4558 OM OM1 4558 -0.550000 15.99940
4559 OM 4559 OM OM1 4559 -0.550000 15.99940
4560 OM 4560 OM OM1 4560 -0.550000 15.99940
4561 OM 4561 OM OM1 4561 -0.550000 15.99940
4562 OM 4562 OM OM1 4562 -0.550000 15.99940
4563 OM 4563 OM OM1 4563 -0.550000 15.99940
4564 OM 4564 OM OM1 4564 -0.550000 15.99940
4565 OM 4565 OM OM1 4565 -0.550000 15.99940
4566 OM 4566 OM OM1 4566 -0.550000 15.99940
4567 OM 4567 OM OM1 4567 -0.550000 15.99940
4568 OM 4568 OM OM1 4568 -0.550000 15.99940
4569 OM 4569 OM OM1 4569 -0.550000 15.99940
4570 OM 4570 OM OM1 4570 -0.550000 15.99940
4571 OM 4571 OM OM1 4571 -0.550000 15.99940
4572 OM 4572 OM OM1 4572 -0.550000 15.99940
4573 OM 4573 OM OM1 4573 -0.550000 15.99940
4574 OM 4574 OM OM1 4574 -0.550000 15.99940
4575 OM 4575 OM OM1 4575 -0.550000 15.99940
4576 OM 4576 OM OM1 4576 -0.550000 15.99940
4577 OM 4577 OM OM1 4577 -0.550000 15.99940
4578 OM 4578 OM OM1 4578 -0.550000 15.99940
4579 OM 4579 OM OM1 4579 -0.550000 15.99940
4580 OM 4580 OM OM1 4580 -0.550000 15.99940
4581 OM 4581 OM OM1 4581 -0.550000 15.99940
4582 OM 4582 OM OM1 4582 -0.550000 15.99940
4583 OM 4583 OM OM1 4583 -0.550000 15.99940
4584 OM 4584 OM OM1 4584 -0.550000 15.99940
4585 OM 4585 OM OM1 4585 -0.550000 15.99940
4586 OM 4586 OM OM1 4586 -0.550000 15.99940
4587 OM 4587 OM OM1 4587 -0.550000 15.99940
4588 OM 4588 OM OM1 4588 -0.550000 15.99940
4589 OM 4589 OM OM1 4589 -0.550000 15.99940
4590 OM 4590 OM OM1 4590 -0.550000 15.99940
4591 OM 4591 OM OM1 4591 -0.550000 15.99940
4592 OM 4592 OM OM1 4592 -0.550000 15.99940
4593 OM 4593 OM OM1 4593 -0.550000 15.99940
4594 OM 4594 OM OM1 4594 -0.550000 15.99940
4595 OM 4595 OM OM1 4595 -0.550000 15.99940
4596 OM 4596 OM OM1 4596 -0.550000 15.99940
4597 OM 4597 OM OM1 4597 -0.550000 15.99940
4598 OM 4598 OM OM1 4598 -0.550000 15.99940
4599 OM 4599 OM OM1 4599 -0.550000 15.99940
4600 OM 4600 OM OM1 4600 -0.550000 15.99940
4601 OM 4601 OM OM1 4601 -0.550000 15.99940
4602 OM 4602 OM OM1 4602 -0.550000 15.99940
4603 OM 4603 OM OM1 4603 -0.550000 15.99940
4604 OM 4604 OM OM1 4604 -0.550000 15.99940
4605 OM 4605 OM OM1 4605 -0.550000 15.99940
4606 OM 4606 OM OM1 4606 -0.550000 15.99940
4607 OM 4607 OM OM1 4607 -0.550000 15.99940
4608 OM 4608 OM OM1 4608 -0.550000 15.99940
4609 OM 4609 OM OM1 4609 -0.550000 15.99940
4610 OM 4610 OM OM1 4610 -0.550000 15.99940
4611 OM 4611 OM OM1 4611 -0.550000 15.99940
4612 OM 4612 OM OM1 4612 -0.550000 15.99940
4613 OM 4613 OM OM1 4613 -0.550000 15.99940
4614 OM 4614 OM OM1 4614 -0.550000 15.99940
4615 OM 4615 OM OM1 4615 -0.550000 15.99940
4616 OM 4616 OM OM1 4616 -0.550000 15.99940
4617 OM 4617 OM OM1 4617 -0.550000 15.99940
4618 OM 4618 OM OM1 4618 -0.550000 15.99940
4619 OM 4619 OM OM1 4619 -0.550000 15.99940
4620 OM 4620 OM OM1 4620 -0.550000 15.99940
4621 OM 4621 OM OM1 4621 -0.550000 15.99940
4622 OM 4622 OM OM1 4622 -0.550000 15.99940
4623 OM 4623 OM OM1 4623 -0.550000 15.99940
4624 OM 4624 OM OM1 4624 -0.550000 15.99940
4625 OM 4625 OM OM1 4625 -0.550000 15.99940
4626 OM 4626 OM OM1 4626 -0.550000 15.99940
4627 OM 4627 OM OM1 4627 -0.550000 15.99940
4628 OM 4628 OM OM1 4628 -0.550000 15.99940
4629 OM 4629 OM OM1 4629 -0.550000 15.99940
4630 OM 4630 OM OM1 4630 -0.550000 15.99940
4631 OM 4631 OM OM1 4631 -0.550000 15.99940
4632 OM 4632 OM OM1 4632 -0.550000 15.99940
4633 OM 4633 OM OM1 4633 -0.550000 15.99940
4634 OM 4634 OM OM1 4634 -0.550000 15.99940
4635 OM 4635 OM OM1 4635 -0.550000 15.99940
4636 OM 4636 OM OM1 4636 -0.550000 15.99940
4637 OM 4637 OM OM1 4637 -0.550000 15.99940
4638 OM 4638 OM OM1 4638 -0.550000 15.99940
4639 OM 4639 OM OM1 4639 -0.550000 15.99940
4640 OM 4640 OM OM1 4640 -0.550000 15.99940
4641 OM 4641 OM OM1 4641 -0.550000 15.99940
4642 OM 4642 OM OM1 4642 -0.550000 15.99940
4643 OM 4643 OM OM1 4643 -0.550000 15.99940
4644 OM 4644 OM OM1 4644 -0.550000 15.99940
4645 OM 4645 OM OM1 4645 -0.550000 15.99940
4646 OM 4646 OM OM1 4646 -0.550000 15.99940
4647 OM 4647 OM OM1 4647 -0.550000 15.99940
4648 OM 4648 OM OM1 4648 -0.550000 15.99940
4649 OM 4649 OM OM1 4649 -0.550000 15.99940
4650 OM 4650 OM OM1 4650 -0.550000 15.99940
4651 OM 4651 OM OM1 4651 -0.550000 15.99940
4652 OM 4652 OM OM1 4652 -0.550000 15.99940
4653 OM 4653 OM OM1 4653 -0.550000 15.99940
4654 OM 4654 OM OM1 4654 -0.550000 15.99940
4655 OM 4655 OM OM1 4655 -0.550000 15.99940
4656 OM 4656 OM OM1 4656 -0.550000 15.99940
4657 OM 4657 OM OM1 4657 -0.550000 15.99940
4658 OM 4658 OM OM1 4658 -0.550000 15.99940
4659 OM 4659 OM OM1 4659 -0.550000 15.99940
4660 OM 4660 OM OM1 4660 -0.550000 15.99940
4661 OM 4661 OM OM1 4661 -0.550000 15.99940
4662 OM 4662 OM OM1 4662 -0.550000 15.99940
4663 OM 4663 OM OM1 4663 -0.550000 15.99940
4664 OM 4664 OM OM1 4664 -0.550000 15.99940
4665 OM 4665 OM OM1 4665 -0.550000 15.99940
4666 OM 4666 OM OM1 4666 -0.550000 15.99940
4667 OM 4667 OM OM1 4667 -0.550000 15.99940
4668 OM 4668 OM OM1 4668 -0.550000 15.99940
4669 OM 4669 OM OM1 4669 -0.550000 15.99940
4670 OM 4670 OM OM1 4670 -0.550000 15.99940
4671 OM 4671 OM OM1 4671 -0.550000 15.99940
4672 OM 4672 OM OM1 4672 -0.550000 15.99940
4673 OM 4673 OM OM1 4673 -0.550000 15.99940
4674 OM 4674 OM OM1 4674 -0.550000 15.99940
4675 OM 4675 OM OM1 4675 -0.550000 15.99940
4676 OM 4676 OM OM1 4676 -0.550000 15.99940
4677 OM 4677 OM OM1 4677 -0.550000 15.99940
4678 OM 4678 OM OM1 4678 -0.550000 15.99940
4679 OM 4679 OM OM1 4679 -0.550000 15.99940
4680 OM 4680 OM OM1 4680 -0.550000 15.99940
4681 OM 4681 OM OM1 4681 -0.550000 15.99940
4682 OM 4682 OM OM1 4682 -0.550000 15.99940
4683 OM 4683 OM OM1 4683 -0.550000 15.99940
4684 OM 4684 OM OM1 4684 -0.550000 15.99940
4685 OM 4685 OM OM1 4685 -0.550000 15.99940
4686 OM 4686 OM OM1 4686 -0.550000 15.99940
4687 OM 4687 OM OM1 4687 -0.550000 15.99940
4688 OM 4688 OM OM1 4688 -0.550000 15.99940
4689 OM 4689 OM OM1 4689 -0.550000 15.99940
4690 OM 4690 OM OM1 4690 -0.550000 15.99940
4691 OM 4691 OM OM1 4691 -0.550000 15.99940
4692 OM 4692 OM OM1 4692 -0.550000 15.99940
4693 OM 4693 OM OM1 4693 -0.550000 15.99940
4694 OM 4694 OM OM1 4694 -0.550000 15.99940
4695 OM 4695 OM OM1 4695 -0.550000 15.99940
4696 OM 4696 OM OM1 4696 -0.550000 15.99940
4697 OM 4697 OM OM1 4697 -0.550000 15.99940
4698 OM 4698 OM OM1 4698 -0.550000 15.99940
4699 OM 4699 OM OM1 4699 -0.550000 15.99940
4700 OM 4700 OM OM1 4700 -0.550000 15.99940
4701 OM 4701 OM OM1 4701 -0.550000 15.99940
4702 OM 4702 OM OM1 4702 -0.550000 15.99940
4703 OM 4703 OM OM1 4703 -0.550000 15.99940
4704 OM 4704 OM OM1 4704 -0.550000 15.99940
4705 OM 4705 OM OM1 4705 -0.550000 15.99940
4706 OM 4706 OM OM1 4706 -0.550000 15.99940
4707 OM 4707 OM OM1 4707 -0.550000 15.99940
4708 OM 4708 OM OM1 4708 -0.550000 15.99940
4709 OM 4709 OM OM1 4709 -0.550000 15.99940
4710 OM 4710 OM OM1 4710 -0.550000 15.99940
4711 OM 4711 OM OM1 4711 -0.550000 15.99940
4712 OM 4712 OM OM1 4712 -0.550000 15.99940
4713 OM 4713 OM OM1 4713 -0.550000 15.99940
4714 OM 4714 OM OM1 4714 -0.550000 15.99940
4715 OM 4715 OM OM1 4715 -0.550000 15.99940
4716 OM 4716 OM OM1 4716 -0.550000 15.99940
4717 OM 4717 OM OM1 4717 -0.550000 15.99940
4718 OM 4718 OM OM1 4718 -0.550000 15.99940
4719 OM 4719 OM OM1 4719 -0.550000 15.99940
4720 OM 4720 OM OM1 4720 -0.550000 15.99940
4721 OM 4721 OM OM1 4721 -0.550000 15.99940
4722 OM 4722 OM OM1 4722 -0.550000 15.99940
4723 OM 4723 OM OM1 4723 -0.550000 15.99940
4724 OM 4724 OM OM1 4724 -0.550000 15.99940
4725 OM 4725 OM OM1 4725 -0.550000 15.99940
4726 OM 4726 OM OM1 4726 -0.550000 15.99940
4727 OM 4727 OM OM1 4727 -0.550000 15.99940
4728 OM 4728 OM OM1 4728 -0.550000 15.99940
4729 OM 4729 OM OM1 4729 -0.550000 15.99940
4730 OM 4730 OM OM1 4730 -0.550000 15.99940
4731 OM 4731 OM OM1 4731 -0.550000 15.99940
4732 OM 4732 OM OM1 4732 -0.550000 15.99940
4733 OM 4733 OM OM1 4733 -0.550000 15.99940
4734 OM 4734 OM OM1 4734 -0.550000 15.99940
4735 OM 4735 OM OM1 4735 -0.550000 15.99940
4736 OM 4736 OM OM1 4736 -0.550000 15.99940
4737 OM 4737 OM OM1 4737 -0.550000 15.99940
4738 OM 4738 OM OM1 4738 -0.550000 15.99940
4739 OM 4739 OM OM1 4739 -0.550000 15.99940
4740 OM 4740 OM OM1 4740 -0.550000 15.99940
4741 OM 4741 OM OM1 4741 -0.550000 15.99940
4742 OM 4742 OM OM1 4742 -0.550000 15.99940
4743 OM 4743 OM OM1 4743 -0.550000 15.99940
4744 OM 4744 OM OM1 4744 -0.550000 15.99940
4745 OM 4745 OM OM1 4745 -0.550000 15.99940
4746 OM 4746 OM OM1 4746 -0.550000 15.99940
4747 OM 4747 OM OM1 4747 -0.550000 15.99940
4748 OM 4748 OM OM1 4748 -0.550000 15.99940
4749 OM 4749 OM OM1 4749 -0.550000 15.99940
4750 OM 4750 OM OM1 4750 -0.550000 15.99940
4751 OM 4751 OM OM1 4751 -0.550000 15.99940
4752 OM 4752 OM OM1 4752 -0.550000 15.99940
4753 OM 4753 OM OM1 4753 -0.550000 15.99940
4754 OM 4754 OM OM1 4754 -0.550000 15.99940
4755 OM 4755 OM OM1 4755 -0.550000 15.99940
4756 OM 4756 OM OM1 4756 -0.550000 15.99940
4757 OM 4757 OM OM1 4757 -0.550000 15.99940
4758 OM 4758 OM OM1 4758 -0.550000 15.99940
4759 OM 4759 OM OM1 4759 -0.550000 15.99940
4760 OM 4760 OM OM1 4760 -0.550000 15.99940
4761 OM 4761 OM OM1 4761 -0.550000 15.99940
4762 OM 4762 OM OM1 4762 -0.550000 15.99940
4763 OM 4763 OM OM1 4763 -0.550000 15.99940
4764 OM 4764 OM OM1 4764 -0.550000 15.99940
4765 OM 4765 OM OM1 4765 -0.550000 15.99940
4766 OM 4766 OM OM1 4766 -0.550000 15.99940
4767 OM 4767 OM OM1 4767 -0.550000 15.99940
4768 OM 4768 OM OM1 4768 -0.550000 15.99940
4769 OM 4769 OM OM1 4769 -0.550000 15.99940
4770 OM 4770 OM OM1 4770 -0.550000 15.99940
4771 OM 4771 OM OM1 4771 -0.550000 15.99940
4772 OM 4772 OM OM1 4772 -0.550000 15.99940
4773 OM 4773 OM OM1 4773 -0.550000 15.99940
4774 OM 4774 OM OM1 4774 -0.550000 15.99940
4775 OM 4775 OM OM1 4775 -0.550000 15.99940
4776 OM 4776 OM OM1 4776 -0.550000 15.99940
4777 OM 4777 OM OM1 4777 -0.550000 15.99940
4778 OM 4778 OM OM1 4778 -0.550000 15.99940
4779 OM 4779 OM OM1 4779 -0.550000 15.99940
4780 OM 4780 OM OM1 4780 -0.550000 15.99940
4781 OM 4781 OM OM1 4781 -0.550000 15.99940
4782 OM 4782 OM OM1 4782 -0.550000 15.99940
4783 OM 4783 OM OM1 4783 -0.550000 15.99940
4784 OM 4784 OM OM1 4784 -0.550000 15.99940
4785 OM 4785 OM OM1 4785 -0.550000 15.99940
4786 OM 4786 OM OM1 4786 -0.550000 15.99940
4787 OM 4787 OM OM1 4787 -0.550000 15.99940
4788 OM 4788 OM OM1 4788 -0.550000 15.99940
4789 OM 4789 OM OM1 4789 -0.550000 15.99940
4790 OM 4790 OM OM1 4790 -0.550000 15.99940
4791 OM 4791 OM OM1 4791 -0.550000 15.99940
4792 OM 4792 OM OM1 4792 -0.550000 15.99940
4793 OM 4793 OM OM1 4793 -0.550000 15.99940
4794 OM 4794 OM OM1 4794 -0.550000 15.99940
4795 OM 4795 OM OM1 4795 -0.550000 15.99940
4796 OM 4796 OM OM1 4796 -0.550000 15.99940
4797 OM 4797 OM OM1 4797 -0.550000 15.99940
4798 OM 4798 OM OM1 4798 -0.550000 15.99940
4799 OM 4799 OM OM1 4799 -0.550000 15.99940
4800 OM 4800 OM OM1 4800 -0.550000 15.99940
4801 OM 4801 OM OM1 4801 -0.550000 15.99940
4802 OM 4802 OM OM1 4802 -0.550000 15.99940
4803 OM 4803 OM OM1 4803 -0.550000 15.99940
4804 OM 4804 OM OM1 4804 -0.550000 15.99940
4805 OM 4805 OM OM1 4805 -0.550000 15.99940
4806 OM 4806 OM OM1 4806 -0.550000 15.99940
4807 OM 4807 OM OM1 4807 -0.550000 15.99940
4808 OM 4808 OM OM1 4808 -0.550000 15.99940
4809 OM 4809 OM OM1 4809 -0.550000 15.99940
4810 OM 4810 OM OM1 4810 -0.550000 15.99940
4811 OM 4811 OM OM1 4811 -0.550000 15.99940
4812 OM 4812 OM OM1 4812 -0.550000 15.99940
4813 OM 4813 OM OM1 4813 -0.550000 15.99940
4814 OM 4814 OM OM1 4814 -0.550000 15.99940
4815 OM 4815 OM OM1 4815 -0.550000 15.99940
4816 OM 4816 OM OM1 4816 -0.550000 15.99940
4817 OM 4817 OM OM1 4817 -0.550000 15.99940
4818 OM 4818 OM OM1 4818 -0.550000 15.99940
4819 OM 4819 OM OM1 4819 -0.550000 15.99940
4820 OM 4820 OM OM1 4820 -0.550000 15.99940
4821 OM 4821 OM OM1 4821 -0.550000 15.99940
4822 OM 4822 OM OM1 4822 -0.550000 15.99940
4823 OM 4823 OM OM1 4823 -0.550000 15.99940
4824 OM 4824 OM OM1 4824 -0.550000 15.99940
4825 OM 4825 OM OM1 4825 -0.550000 15.99940
4826 OM 4826 OM OM1 4826 -0.550000 15.99940
4827 OM 4827 OM OM1 4827 -0.550000 15.99940
4828 OM 4828 OM OM1 4828 -0.550000 15.99940
4829 OM 4829 OM OM1 4829 -0.550000 15.99940
4830 OM 4830 OM OM1 4830 -0.550000 15.99940
4831 OM 4831 OM OM1 4831 -0.550000 15.99940
4832 OM 4832 OM OM1 4832 -0.550000 15.99940
4833 OM 4833 OM OM1 4833 -0.550000 15.99940
4834 OM 4834 OM OM1 4834 -0.550000 15.99940
4835 OM 4835 OM OM1 4835 -0.550000 15.99940
4836 OM 4836 OM OM1 4836 -0.550000 15.99940
4837 OM 4837 OM OM1 4837 -0.550000 15.99940
4838 OM 4838 OM OM1 4838 -0.550000 15.99940
4839 OM 4839 OM OM1 4839 -0.550000 15.99940
4840 OM 4840 OM OM1 4840 -0.550000 15.99940
4841 OM 4841 OM OM1 4841 -0.550000 15.99940
4842 OM 4842 OM OM1 4842 -0.550000 15.99940
4843 OM 4843 OM OM1 4843 -0.550000 15.99940
4844 OM 4844 OM OM1 4844 -0.550000 15.99940
4845 OM 4845 OM OM1 4845 -0.550000 15.99940
4846 OM 4846 OM OM1 4846 -0.550000 15.99940
4847 OM 4847 OM OM1 4847 -0.550000 15.99940
4848 OM 4848 OM OM1 4848 -0.550000 15.99940
4849 OM 4849 OM OM1 4849 -0.550000 15.99940
4850 OM 4850 OM OM1 4850 -0.550000 15.99940
4851 OM 4851 OM OM1 4851 -0.550000 15.99940
4852 OM 4852 OM OM1 4852 -0.550000 15.99940
4853 OM 4853 OM OM1 4853 -0.550000 15.99940
4854 OM 4854 OM OM1 4854 -0.550000 15.99940
4855 OM 4855 OM OM1 4855 -0.550000 15.99940
4856 OM 4856 OM OM1 4856 -0.550000 15.99940
4857 OM 4857 OM OM1 4857 -0.550000 15.99940
4858 OM 4858 OM OM1 4858 -0.550000 15.99940
4859 OM 4859 OM OM1 4859 -0.550000 15.99940
4860 OM 4860 OM OM1 4860 -0.550000 15.99940
4861 OM 4861 OM OM1 4861 -0.550000 15.99940
4862 OM 4862 OM OM1 4862 -0.550000 15.99940
4863 OM 4863 OM OM1 4863 -0.550000 15.99940
4864 OM 4864 OM OM1 4864 -0.550000 15.99940
4865 OM 4865 OM OM1 4865 -0.550000 15.99940
4866 OM 4866 OM OM1 4866 -0.550000 15.99940
4867 OM 4867 OM OM1 4867 -0.550000 15.99940
4868 OM 4868 OM OM1 4868 -0.550000 15.99940
4869 OM 4869 OM OM1 4869 -0.550000 15.99940
4870 OM 4870 OM OM1 4870 -0.550000 15.99940
4871 OM 4871 OM OM1 4871 -0.550000 15.99940
4872 OM 4872 OM OM1 4872 -0.550000 15.99940
4873 OM 4873 OM OM1 4873 -0.550000 15.99940
4874 OM 4874 OM OM1 4874 -0.550000 15.99940
4875 OM 4875 OM OM1 4875 -0.550000 15.99940
4876 OM 4876 OM OM1 4876 -0.550000 15.99940
4877 OM 4877 OM OM1 4877 -0.550000 15.99940
4878 OM 4878 OM OM1 4878 -0.550000 15.99940
4879 OM 4879 OM OM1 4879 -0.550000 15.99940
4880 OM 4880 OM OM1 4880 -0.550000 15.99940
4881 OM 4881 OM OM1 4881 -0.550000 15.99940
4882 OM 4882 OM OM1 4882 -0.550000 15.99940
4883 OM 4883 OM OM1 4883 -0.550000 15.99940
4884 OM 4884 OM OM1 4884 -0.550000 15.99940
4885 OM 4885 OM OM1 4885 -0.550000 15.99940
4886 OM 4886 OM OM1 4886 -0.550000 15.99940
4887 OM 4887 OM OM1 4887 -0.550000 15.99940
4888 OM 4888 OM OM1 4888 -0.550000 15.99940
4889 OM 4889 OM OM1 4889 -0.550000 15.99940
4890 OM 4890 OM OM1 4890 -0.550000 15.99940
4891 OM 4891 OM OM1 4891 -0.550000 15.99940
4892 OM 4892 OM OM1 4892 -0.550000 15.99940
4893 OM 4893 OM OM1 4893 -0.550000 15.99940
4894 OM 4894 OM OM1 4894 -0.550000 15.99940
4895 OM 4895 OM OM1 4895 -0.550000 15.99940
4896 OM 4896 OM OM1 4896 -0.550000 15.99940
4897 OM 4897 OM OM1 4897 -0.550000 15.99940
4898 OM 4898 OM OM1 4898 -0.550000 15.99940
4899 OM 4899 OM OM1 4899 -0.550000 15.99940
4900 OM 4900 OM OM1 4900 -0.550000 15.99940
4901 OM 4901 OM OM1 4901 -0.550000 15.99940
4902 OM 4902 OM OM1 4902 -0.550000 15.99940
4903 OM 4903 OM OM1 4903 -0.550000 15.99940
4904 OM 4904 OM OM1 4904 -0.550000 15.99940
4905 OM 4905 OM OM1 4905 -0.550000 15.99940
4906 OM 4906 OM OM1 4906 -0.550000 15.99940
4907 OM 4907 OM OM1 4907 -0.550000 15.99940
4908 OM 4908 OM OM1 4908 -0.550000 15.99940
4909 OM 4909 OM OM1 4909 -0.550000 15.99940
4910 OM 4910 OM OM1 4910 -0.550000 15.99940
4911 OM 4911 OM OM1 4911 -0.550000 15.99940
4912 OM 4912 OM OM1 4912 -0.550000 15.99940
4913 OM 4913 OM OM1 4913 -0.550000 15.99940
4914 OM 4914 OM OM1 4914 -0.550000 15.99940
4915 OM 4915 OM OM1 4915 -0.550000 15.99940
4916 OM 4916 OM OM1 4916 -0.550000 15.99940
4917 OM 4917 OM OM1 4917 -0.550000 15.99940
4918 OM 4918 OM OM1 4918 -0.550000 15.99940
4919 OM 4919 OM OM1 4919 -0.550000 15.99940
4920 OM 4920 OM OM1 4920 -0.550000 15.99940
4921 OM 4921 OM OM1 4921 -0.550000 15.99940
4922 OM 4922 OM OM1 4922 -0.550000 15.99940
4923 OM 4923 OM OM1 4923 -0.550000 15.99940
4924 OM 4924 OM OM1 4924 -0.550000 15.99940
4925 OM 4925 OM OM1 4925 -0.550000 15.99940
4926 OM 4926 OM OM1 4926 -0.550000 15.99940
4927 OM 4927 OM OM1 4927 -0.550000 15.99940
4928 OM 4928 OM OM1 4928 -0.550000 15.99940
4929 OM 4929 OM OM1 4929 -0.550000 15.99940
4930 OM 4930 OM OM1 4930 -0.550000 15.99940
4931 OM 4931 OM OM1 4931 -0.550000 15.99940
4932 OM 4932 OM OM1 4932 -0.550000 15.99940
4933 OM 4933 OM OM1 4933 -0.550000 15.99940
4934 OM 4934 OM OM1 4934 -0.550000 15.99940
4935 OM 4935 OM OM1 4935 -0.550000 15.99940
4936 OM 4936 OM OM1 4936 -0.550000 15.99940
4937 OM 4937 OM OM1 4937 -0.550000 15.99940
4938 OM 4938 OM OM1 4938 -0.550000 15.99940
4939 OM 4939 OM OM1 4939 -0.550000 15.99940
4940 OM 4940 OM OM1 4940 -0.550000 15.99940
4941 OM 4941 OM OM1 4941 -0.550000 15.99940
4942 OM 4942 OM OM1 4942 -0.550000 15.99940
4943 OM 4943 OM OM1 4943 -0.550000 15.99940
4944 OM 4944 OM OM1 4944 -0.550000 15.99940
4945 OM 4945 OM OM1 4945 -0.550000 15.99940
4946 OM 4946 OM OM1 4946 -0.550000 15.99940
4947 OM 4947 OM OM1 4947 -0.550000 15.99940
4948 OM 4948 OM OM1 4948 -0.550000 15.99940
4949 OM 4949 OM OM1 4949 -0.550000 15.99940
4950 OM 4950 OM OM1 4950 -0.550000 15.99940
4951 OM 4951 OM OM1 4951 -0.550000 15.99940
4952 OM 4952 OM OM1 4952 -0.550000 15.99940
4953 OM 4953 OM OM1 4953 -0.550000 15.99940
4954 OM 4954 OM OM1 4954 -0.550000 15.99940
4955 OM 4955 OM OM1 4955 -0.550000 15.99940
4956 OM 4956 OM OM1 4956 -0.550000 15.99940
4957 OM 4957 OM OM1 4957 -0.550000 15.99940
4958 OM 4958 OM OM1 4958 -0.550000 15.99940
4959 OM 4959 OM OM1 4959 -0.550000 15.99940
4960 OM 4960 OM OM1 4960 -0.550000 15.99940
4961 OM 4961 OM OM1 4961 -0.550000 15.99940
4962 OM 4962 OM OM1 4962 -0.550000 15.99940
4963 OM 4963 OM OM1 4963 -0.550000 15.99940
4964 OM 4964 OM OM1 4964 -0.550000 15.99940
4965 OM 4965 OM OM1 4965 -0.550000 15.99940
4966 OM 4966 OM OM1 4966 -0.550000 15.99940
4967 OM 4967 OM OM1 4967 -0.550000 15.99940
4968 OM 4968 OM OM1 4968 -0.550000 15.99940
4969 OM 4969 OM OM1 4969 -0.550000 15.99940
4970 OM 4970 OM OM1 4970 -0.550000 15.99940
4971 OM 4971 OM OM1 4971 -0.550000 15.99940
4972 OM 4972 OM OM1 4972 -0.550000 15.99940
4973 OM 4973 OM OM1 4973 -0.550000 15.99940
4974 OM 4974 OM OM1 4974 -0.550000 15.99940
4975 OM 4975 OM OM1 4975 -0.550000 15.99940
4976 OM 4976 OM OM1 4976 -0.550000 15.99940
4977 OM 4977 OM OM1 4977 -0.550000 15.99940
4978 OM 4978 OM OM1 4978 -0.550000 15.99940
4979 OM 4979 OM OM1 4979 -0.550000 15.99940
4980 OM 4980 OM OM1 4980 -0.550000 15.99940
4981 OM 4981 OM OM1 4981 -0.550000 15.99940
4982 OM 4982 OM OM1 4982 -0.550000 15.99940
4983 OM 4983 OM OM1 4983 -0.550000 15.99940
4984 OM 4984 OM OM1 4984 -0.550000 15.99940
4985 OM 4985 OM OM1 4985 -0.550000 15.99940
4986 OM 4986 OM OM1 4986 -0.550000 15.99940
4987 OM 4987 OM OM1 4987 -0.550000 15.99940
4988 OM 4988 OM OM1 4988 -0.550000 15.99940
4989 OM 4989 OM OM1 4989 -0.550000 15.99940
4990 OM 4990 OM OM1 4990 -0.550000 15.99940
4991 OM 4991 OM OM1 4991 -0.550000 15.99940
4992 OM 4992 OM OM1 4992 -0.550000 15.99940
4993 OM 4993 OM OM1 4993 -0.550000 15.99940
4994 OM 4994 OM OM1 4994 -0.550000 15.99940
4995 OM 4995 OM OM1 4995 -0.550000 15.99940
4996 OM 4996 OM OM1 4996 -0.550000 15.99940
4997 OM 4997 OM OM1 4997 -0.550000 15.99940
4998 OM 4998 OM OM1 4998 -0.550000 15.99940
4999 OM 4999 OM OM1 4999 -0.550000 15.99940
5000 OM 5000 OM OM1 5000 -0.550000 15.99940
5001 OM 5001 OM OM1 5001 -0.550000 15.99940
5002 OM 5002 OM OM1 5002 -0.550000 15.99940
5003 OM 5003 OM OM1 5003 -0.550000 15.99940
5004 OM 5004 OM OM1 5004 -0.550000 15.99940
5005 OM 5005 OM OM1 5005 -0.550000 15.99940
5006 OM 5006 OM OM1 5006 -0.550000 15.99940
5007 OM 5007 OM OM1 5007 -0.550000 15.99940
5008 OM 5008 OM OM1 5008 -0.550000 15.99940
5009 OM 5009 OM OM1 5009 -0.550000 15.99940
5010 OM 5010 OM OM1 5010 -0.550000 15.99940
5011 OM 5011 OM OM1 5011 -0.550000 15.99940
5012 OM 5012 OM OM1 5012 -0.550000 15.99940
5013 OM 5013 OM OM1 5013 -0.550000 15.99940
5014 OM 5014 OM OM1 5014 -0.550000 15.99940
5015 OM 5015 OM OM1 5015 -0.550000 15.99940
5016 OM 5016 OM OM1 5016 -0.550000 15.99940
5017 OM 5017 OM OM1 5017 -0.550000 15.99940
5018 OM 5018 OM OM1 5018 -0.550000 15.99940
5019 OM 5019 OM OM1 5019 -0.550000 15.99940
5020 OM 5020 OM OM1 5020 -0.550000 15.99940
5021 OM 5021 OM OM1 5021 -0.550000 15.99940
5022 OM 5022 OM OM1 5022 -0.550000 15.99940
5023 OM 5023 OM OM1 5023 -0.550000 15.99940
5024 OM 5024 OM OM1 5024 -0.550000 15.99940
5025 OM 5025 OM OM1 5025 -0.550000 15.99940
5026 OM 5026 OM OM1 5026 -0.550000 15.99940
5027 OM 5027 OM OM1 5027 -0.550000 15.99940
5028 OM 5028 OM OM1 5028 -0.550000 15.99940
5029 OM 5029 OM OM1 5029 -0.550000 15.99940
5030 OM 5030 OM OM1 5030 -0.550000 15.99940
5031 OM 5031 OM OM1 5031 -0.550000 15.99940
5032 OM 5032 OM OM1 5032 -0.550000 15.99940
5033 OM 5033 OM OM1 5033 -0.550000 15.99940
5034 OM 5034 OM OM1 5034 -0.550000 15.99940
5035 OM 5035 OM OM1 5035 -0.550000 15.99940
5036 OM 5036 OM OM1 5036 -0.550000 15.99940
5037 OM 5037 OM OM1 5037 -0.550000 15.99940
5038 OM 5038 OM OM1 5038 -0.550000 15.99940
5039 OM 5039 OM OM1 5039 -0.550000 15.99940
5040 OM 5040 OM OM1 5040 -0.550000 15.99940
5041 OM 5041 OM OM1 5041 -0.550000 15.99940
5042 OM 5042 OM OM1 5042 -0.550000 15.99940
5043 OM 5043 OM OM1 5043 -0.550000 15.99940
5044 OM 5044 OM OM1 5044 -0.550000 15.99940
5045 OM 5045 OM OM1 5045 -0.550000 15.99940
5046 OM 5046 OM OM1 5046 -0.550000 15.99940
5047 OM 5047 OM OM1 5047 -0.550000 15.99940
5048 OM 5048 OM OM1 5048 -0.550000 15.99940
5049 OM 5049 OM OM1 5049 -0.550000 15.99940
5050 OM 5050 OM OM1 5050 -0.550000 15.99940
5051 OM 5051 OM OM1 5051 -0.550000 15.99940
5052 OM 5052 OM OM1 5052 -0.550000 15.99940
5053 OM 5053 OM OM1 5053 -0.550000 15.99940
5054 OM 5054 OM OM1 5054 -0.550000 15.99940
5055 OM 5055 OM OM1 5055 -0.550000 15.99940
5056 OM 5056 OM OM1 5056 -0.550000 15.99940
5057 OM 5057 OM OM1 5057 -0.550000 15.99940
5058 OM 5058 OM OM1 5058 -0.550000 15.99940
5059 OM 5059 OM OM1 5059 -0.550000 15.99940
5060 OM 5060 OM OM1 5060 -0.550000 15.99940
5061 OM 5061 OM OM1 5061 -0.550000 15.99940
5062 OM 5062 OM OM1 5062 -0.550000 15.99940
5063 OM 5063 OM OM1 5063 -0.550000 15.99940
5064 OM 5064 OM OM1 5064 -0.550000 15.99940
5065 OM 5065 OM OM1 5065 -0.550000 15.99940
5066 OM 5066 OM OM1 5066 -0.550000 15.99940
5067 OM 5067 OM OM1 5067 -0.550000 15.99940
5068 OM 5068 OM OM1 5068 -0.550000 15.99940
5069 OM 5069 OM OM1 5069 -0.550000 15.99940
5070 OM 5070 OM OM1 5070 -0.550000 15.99940
5071 OM 5071 OM OM1 5071 -0.550000 15.99940
5072 OM 5072 OM OM1 5072 -0.550000 15.99940
5073 OM 5073 OM OM1 5073 -0.550000 15.99940
5074 OM 5074 OM OM1 5074 -0.550000 15.99940
5075 OM 5075 OM OM1 5075 -0.550000 15.99940
5076 OM 5076 OM OM1 5076 -0.550000 15.99940
5077 OM 5077 OM OM1 5077 -0.550000 15.99940
5078 OM 5078 OM OM1 5078 -0.550000 15.99940
5079 OM 5079 OM OM1 5079 -0.550000 15.99940
5080 OM 5080 OM OM1 5080 -0.550000 15.99940
5081 OM 5081 OM OM1 5081 -0.550000 15.99940
5082 OM 5082 OM OM1 5082 -0.550000 15.99940
5083 OM 5083 OM OM1 5083 -0.550000 15.99940
5084 OM 5084 OM OM1 5084 -0.550000 15.99940
5085 OM 5085 OM OM1 5085 -0.550000 15.99940
5086 OM 5086 OM OM1 5086 -0.550000 15.99940
5087 OM 5087 OM OM1 5087 -0.550000 15.99940
5088 OM 5088 OM OM1 5088 -0.550000 15.99940
5089 OM 5089 OM OM1 5089 -0.550000 15.99940
5090 OM 5090 OM OM1 5090 -0.550000 15.99940
5091 OM 5091 OM OM1 5091 -0.550000 15.99940
5092 OM 5092 OM OM1 5092 -0.550000 15.99940
5093 OM 5093 OM OM1 5093 -0.550000 15.99940
5094 OM 5094 OM OM1 5094 -0.550000 15.99940
5095 OM 5095 OM OM1 5095 -0.550000 15.99940
5096 OM 5096 OM OM1 5096 -0.550000 15.99940
5097 OM 5097 OM OM1 5097 -0.550000 15.99940
5098 OM 5098 OM OM1 5098 -0.550000 15.99940
5099 OM 5099 OM OM1 5099 -0.550000 15.99940
5100 OM 5100 OM OM1 5100 -0.550000 15.99940
5101 OM 5101 OM OM1 5101 -0.550000 15.99940
5102 OM 5102 OM OM1 5102 -0.550000 15.99940
5103 OM 5103 OM OM1 5103 -0.550000 15.99940
5104 OM 5104 OM OM1 5104 -0.550000 15.99940
5105 OM 5105 OM OM1 5105 -0.550000 15.99940
5106 OM 5106 OM OM1 5106 -0.550000 15.99940
5107 OM 5107 OM OM1 5107 -0.550000 15.99940
5108 OM 5108 OM OM1 5108 -0.550000 15.99940
5109 OM 5109 OM OM1 5109 -0.550000 15.99940
5110 OM 5110 OM OM1 5110 -0.550000 15.99940
5111 OM 5111 OM OM1 5111 -0.550000 15.99940
5112 OM 5112 OM OM1 5112 -0.550000 15.99940
5113 OM 5113 OM OM1 5113 -0.550000 15.99940
5114 OM 5114 OM OM1 5114 -0.550000 15.99940
5115 OM 5115 OM OM1 5115 -0.550000 15.99940
5116 OM 5116 OM OM1 5116 -0.550000 15.99940
5117 OM 5117 OM OM1 5117 -0.550000 15.99940
5118 OM 5118 OM OM1 5118 -0.550000 15.99940
5119 OM 5119 OM OM1 5119 -0.550000 15.99940
5120 OM 5120 OM OM1 5120 -0.550000 15.99940
5121 OM 5121 OM OM1 5121 -0.550000 15.99940
5122 OM 5122 OM OM1 5122 -0.550000 15.99940
5123 OM 5123 OM OM1 5123 -0.550000 15.99940
5124 OM 5124 OM OM1 5124 -0.550000 15.99940
5125 OM 5125 OM OM1 5125 -0.550000 15.99940
5126 OM 5126 OM OM1 5126 -0.550000 15.99940
5127 OM 5127 OM OM1 5127 -0.550000 15.99940
5128 OM 5128 OM OM1 5128 -0.550000 15.99940
5129 OM 5129 OM OM1 5129 -0.550000 15.99940
5130 OM 5130 OM OM1 5130 -0.550000 15.99940
5131 OM 5131 OM OM1 5131 -0.550000 15.99940
5132 OM 5132 OM OM1 5132 -0.550000 15.99940
5133 OM 5133 OM OM1 5133 -0.550000 15.99940
5134 OM 5134 OM OM1 5134 -0.550000 15.99940
5135 OM 5135 OM OM1 5135 -0.550000 15.99940
5136 OM 5136 OM OM1 5136 -0.550000 15.99940
5137 OM 5137 OM OM1 5137 -0.550000 15.99940
5138 OM 5138 OM OM1 5138 -0.550000 15.99940
5139 OM 5139 OM OM1 5139 -0.550000 15.99940
5140 OM 5140 OM OM1 5140 -0.550000 15.99940
5141 OM 5141 OM OM1 5141 -0.550000 15.99940
5142 OM 5142 OM OM1 5142 -0.550000 15.99940
5143 OM 5143 OM OM1 5143 -0.550000 15.99940
5144 OM 5144 OM OM1 5144 -0.550000 15.99940
5145 OM 5145 OM OM1 5145 -0.550000 15.99940
5146 OM 5146 OM OM1 5146 -0.550000 15.99940
5147 OM 5147 OM OM1 5147 -0.550000 15.99940
5148 OM 5148 OM OM1 5148 -0.550000 15.99940
5149 OM 5149 OM OM1 5149 -0.550000 15.99940
5150 OM 5150 OM OM1 5150 -0.550000 15.99940
5151 OM 5151 OM OM1 5151 -0.550000 15.99940
5152 OM 5152 OM OM1 5152 -0.550000 15.99940
5153 OM 5153 OM OM1 5153 -0.550000 15.99940
5154 OM 5154 OM OM1 5154 -0.550000 15.99940
5155 OM 5155 OM OM1 5155 -0.550000 15.99940
5156 OM 5156 OM OM1 5156 -0.550000 15.99940
5157 OM 5157 OM OM1 5157 -0.550000 15.99940
5158 OM 5158 OM OM1 5158 -0.550000 15.99940
5159 OM 5159 OM OM1 5159 -0.550000 15.99940
5160 OM 5160 OM OM1 5160 -0.550000 15.99940
5161 OM 5161 OM OM1 5161 -0.550000 15.99940
5162 OM 5162 OM OM1 5162 -0.550000 15.99940
5163 OM 5163 OM OM1 5163 -0.550000 15.99940
5164 OM 5164 OM OM1 5164 -0.550000 15.99940
5165 OM 5165 OM OM1 5165 -0.550000 15.99940
5166 OM 5166 OM OM1 5166 -0.550000 15.99940
5167 OM 5167 OM OM1 5167 -0.550000 15.99940
5168 OM 5168 OM OM1 5168 -0.550000 15.99940
5169 OM 5169 OM OM1 5169 -0.550000 15.99940
5170 OM 5170 OM OM1 5170 -0.550000 15.99940
5171 OM 5171 OM OM1 5171 -0.550000 15.99940
5172 OM 5172 OM OM1 5172 -0.550000 15.99940
5173 OM 5173 OM OM1 5173 -0.550000 15.99940
5174 OM 5174 OM OM1 5174 -0.550000 15.99940
5175 OM 5175 OM OM1 5175 -0.550000 15.99940
5176 OM 5176 OM OM1 5176 -0.550000 15.99940
5177 OM 5177 OM OM1 5177 -0.550000 15.99940
5178 OM 5178 OM OM1 5178 -0.550000 15.99940
5179 OM 5179 OM OM1 5179 -0.550000 15.99940
5180 OM 5180 OM OM1 5180 -0.550000 15.99940
5181 OM 5181 OM OM1 5181 -0.550000 15.99940
5182 OM 5182 OM OM1 5182 -0.550000 15.99940
5183 OM 5183 OM OM1 5183 -0.550000 15.99940
5184 OM 5184 OM OM1 5184 -0.550000 15.99940
5185 OM 5185 OM OM1 5185 -0.550000 15.99940
5186 OM 5186 OM OM1 5186 -0.550000 15.99940
5187 OM 5187 OM OM1 5187 -0.550000 15.99940
5188 OM 5188 OM OM1 5188 -0.550000 15.99940
5189 OM 5189 OM OM1 5189 -0.550000 15.99940
5190 OM 5190 OM OM1 5190 -0.550000 15.99940
5191 OM 5191 OM OM1 5191 -0.550000 15.99940
5192 OM 5192 OM OM1 5192 -0.550000 15.99940
5193 OM 5193 OM OM1 5193 -0.550000 15.99940
5194 OM 5194 OM OM1 5194 -0.550000 15.99940
5195 OM 5195 OM OM1 5195 -0.550000 15.99940
5196 OM 5196 OM OM1 5196 -0.550000 15.99940
5197 OM 5197 OM OM1 5197 -0.550000 15.99940
5198 OM 5198 OM OM1 5198 -0.550000 15.99940
5199 OM 5199 OM OM1 5199 -0.550000 15.99940
5200 OM 5200 OM OM1 5200 -0.550000 15.99940
5201 OM 5201 OM OM1 5201 -0.550000 15.99940
5202 OM 5202 OM OM1 5202 -0.550000 15.99940
5203 OM 5203 OM OM1 5203 -0.550000 15.99940
5204 OM 5204 OM OM1 5204 -0.550000 15.99940
5205 OM 5205 OM OM1 5205 -0.550000 15.99940
5206 OM 5206 OM OM1 5206 -0.550000 15.99940
5207 OM 5207 OM OM1 5207 -0.550000 15.99940
5208 OM 5208 OM OM1 5208 -0.550000 15.99940
5209 OM 5209 OM OM1 5209 -0.550000 15.99940
5210 OM 5210 OM OM1 5210 -0.550000 15.99940
5211 OM 5211 OM OM1 5211 -0.550000 15.99940
5212 OM 5212 OM OM1 5212 -0.550000 15.99940
5213 OM 5213 OM OM1 5213 -0.550000 15.99940
5214 OM 5214 OM OM1 5214 -0.550000 15.99940
5215 OM 5215 OM OM1 5215 -0.550000 15.99940
5216 OM 5216 OM OM1 5216 -0.550000 15.99940
5217 OM 5217 OM OM1 5217 -0.550000 15.99940
5218 OM 5218 OM OM1 5218 -0.550000 15.99940
5219 OM 5219 OM OM1 5219 -0.550000 15.99940
5220 OM 5220 OM OM1 5220 -0.550000 15.99940
5221 OM 5221 OM OM1 5221 -0.550000 15.99940
5222 OM 5222 OM OM1 5222 -0.550000 15.99940
5223 OM 5223 OM OM1 5223 -0.550000 15.99940
5224 OM 5224 OM OM1 5224 -0.550000 15.99940
5225 OM 5225 OM OM1 5225 -0.550000 15.99940
5226 OM 5226 OM OM1 5226 -0.550000 15.99940
5227 OM 5227 OM OM1 5227 -0.550000 15.99940
5228 OM 5228 OM OM1 5228 -0.550000 15.99940
5229 OM 5229 OM OM1 5229 -0.550000 15.99940
5230 OM 5230 OM OM1 5230 -0.550000 15.99940
5231 OM 5231 OM OM1 5231 -0.550000 15.99940
5232 OM 5232 OM OM1 5232 -0.550000 15.99940
5233 OM 5233 OM OM1 5233 -0.550000 15.99940
5234 OM 5234 OM OM1 5234 -0.550000 15.99940
5235 OM 5235 OM OM1 5235 -0.550000 15.99940
5236 OM 5236 OM OM1 5236 -0.550000 15.99940
5237 OM 5237 OM OM1 5237 -0.550000 15.99940
5238 OM 5238 OM OM1 5238 -0.550000 15.99940
5239 OM 5239 OM OM1 5239 -0.550000 15.99940
5240 OM 5240 OM OM1 5240 -0.550000 15.99940
5241 OM 5241 OM OM1 5241 -0.550000 15.99940
5242 OM 5242 OM OM1 5242 -0.550000 15.99940
5243 OM 5243 OM OM1 5243 -0.550000 15.99940
5244 OM 5244 OM OM1 5244 -0.550000 15.99940
5245 OM 5245 OM OM1 5245 -0.550000 15.99940
5246 OM 5246 OM OM1 5246 -0.550000 15.99940
5247 OM 5247 OM OM1 5247 -0.550000 15.99940
5248 OM 5248 OM OM1 5248 -0.550000 15.99940
5249 OM 5249 OM OM1 5249 -0.550000 15.99940
5250 OM 5250 OM OM1 5250 -0.550000 15.99940
5251 OM 5251 OM OM1 5251 -0.550000 15.99940
5252 OM 5252 OM OM1 5252 -0.550000 15.99940
5253 OM 5253 OM OM1 5253 -0.550000 15.99940
5254 OM 5254 OM OM1 5254 -0.550000 15.99940
5255 OM 5255 OM OM1 5255 -0.550000 15.99940
5256 OM 5256 OM OM1 5256 -0.550000 15.99940
5257 OM 5257 OM OM1 5257 -0.550000 15.99940
5258 OM 5258 OM OM1 5258 -0.550000 15.99940
5259 OM 5259 OM OM1 5259 -0.550000 15.99940
5260 OM 5260 OM OM1 5260 -0.550000 15.99940
5261 OM 5261 OM OM1 5261 -0.550000 15.99940
5262 OM 5262 OM OM1 5262 -0.550000 15.99940
5263 OM 5263 OM OM1 5263 -0.550000 15.99940
5264 OM 5264 OM OM1 5264 -0.550000 15.99940
5265 OM 5265 OM OM1 5265 -0.550000 15.99940
5266 OM 5266 OM OM1 5266 -0.550000 15.99940
5267 OM 5267 OM OM1 5267 -0.550000 15.99940
5268 OM 5268 OM OM1 5268 -0.550000 15.99940
5269 OM 5269 OM OM1 5269 -0.550000 15.99940
5270 OM 5270 OM OM1 5270 -0.550000 15.99940
5271 OM 5271 OM OM1 5271 -0.550000 15.99940
5272 OM 5272 OM OM1 5272 -0.550000 15.99940
5273 OM 5273 OM OM1 5273 -0.550000 15.99940
5274 OM 5274 OM OM1 5274 -0.550000 15.99940
5275 OM 5275 OM OM1 5275 -0.550000 15.99940
5276 OM 5276 OM OM1 5276 -0.550000 15.99940
5277 OM 5277 OM OM1 5277 -0.550000 15.99940
5278 OM 5278 OM OM1 5278 -0.550000 15.99940
5279 OM 5279 OM OM1 5279 -0.550000 15.99940
5280 OM 5280 OM OM1 5280 -0.550000 15.99940
5281 OM 5281 OM OM1 5281 -0.550000 15.99940
5282 OM 5282 OM OM1 5282 -0.550000 15.99940
5283 OM 5283 OM OM1 5283 -0.550000 15.99940
5284 OM 5284 OM OM1 5284 -0.550000 15.99940
5285 OM 5285 OM OM1 5285 -0.550000 15.99940
5286 OM 5286 OM OM1 5286 -0.550000 15.99940
5287 OM 5287 OM OM1 5287 -0.550000 15.99940
5288 OM 5288 OM OM1 5288 -0.550000 15.99940
5289 OM 5289 OM OM1 5289 -0.550000 15.99940
5290 OM 5290 OM OM1 5290 -0.550000 15.99940
5291 OM 5291 OM OM1 5291 -0.550000 15.99940
5292 OM 5292 OM OM1 5292 -0.550000 15.99940
5293 OM 5293 OM OM1 5293 -0.550000 15.99940
5294 OM 5294 OM OM1 5294 -0.550000 15.99940
5295 OM 5295 OM OM1 5295 -0.550000 15.99940
5296 OM 5296 OM OM1 5296 -0.550000 15.99940
5297 OM 5297 OM OM1 5297 -0.550000 15.99940
5298 OM 5298 OM OM1 5298 -0.550000 15.99940
5299 OM 5299 OM OM1 5299 -0.550000 15.99940
5300 OM 5300 OM OM1 5300 -0.550000 15.99940
5301 OM 5301 OM OM1 5301 -0.550000 15.99940
5302 OM 5302 OM OM1 5302 -0.550000 15.99940
5303 OM 5303 OM OM1 5303 -0.550000 15.99940
5304 OM 5304 OM OM1 5304 -0.550000 15.99940
5305 OM 5305 OM OM1 5305 -0.550000 15.99940
5306 OM 5306 OM OM1 5306 -0.550000 15.99940
5307 OM 5307 OM OM1 5307 -0.550000 15.99940
5308 OM 5308 OM OM1 5308 -0.550000 15.99940
5309 OM 5309 OM OM1 5309 -0.550000 15.99940
5310 OM 5310 OM OM1 5310 -0.550000 15.99940
5311 OM 5311 OM OM1 5311 -0.550000 15.99940
5312 OM 5312 OM OM1 5312 -0.550000 15.99940
5313 OM 5313 OM OM1 5313 -0.550000 15.99940
5314 OM 5314 OM OM1 5314 -0.550000 15.99940
5315 OM 5315 OM OM1 5315 -0.550000 15.99940
5316 OM 5316 OM OM1 5316 -0.550000 15.99940
5317 OM 5317 OM OM1 5317 -0.550000 15.99940
5318 OM 5318 OM OM1 5318 -0.550000 15.99940
5319 OM 5319 OM OM1 5319 -0.550000 15.99940
5320 OM 5320 OM OM1 5320 -0.550000 15.99940
5321 OM 5321 OM OM1 5321 -0.550000 15.99940
5322 OM 5322 OM OM1 5322 -0.550000 15.99940
5323 OM 5323 OM OM1 5323 -0.550000 15.99940
5324 OM 5324 OM OM1 5324 -0.550000 15.99940
5325 OM 5325 OM OM1 5325 -0.550000 15.99940
5326 OM 5326 OM OM1 5326 -0.550000 15.99940
5327 OM 5327 OM OM1 5327 -0.550000 15.99940
5328 OM 5328 OM OM1 5328 -0.550000 15.99940
5329 OM 5329 OM OM1 5329 -0.550000 15.99940
5330 OM 5330 OM OM1 5330 -0.550000 15.99940
5331 OM 5331 OM OM1 5331 -0.550000 15.99940
5332 OM 5332 OM OM1 5332 -0.550000 15.99940
5333 OM 5333 OM OM1 5333 -0.550000 15.99940
5334 OM 5334 OM OM1 5334 -0.550000 15.99940
5335 OM 5335 OM OM1 5335 -0.550000 15.99940
5336 OM 5336 OM OM1 5336 -0.550000 15.99940
5337 OM 5337 OM OM1 5337 -0.550000 15.99940
5338 OM 5338 OM OM1 5338 -0.550000 15.99940
5339 OM 5339 OM OM1 5339 -0.550000 15.99940
5340 OM 5340 OM OM1 5340 -0.550000 15.99940
5341 OM 5341 OM OM1 5341 -0.550000 15.99940
5342 OM 5342 OM OM1 5342 -0.550000 15.99940
5343 OM 5343 OM OM1 5343 -0.550000 15.99940
5344 OM 5344 OM OM1 5344 -0.550000 15.99940
5345 OM 5345 OM OM1 5345 -0.550000 15.99940
5346 OM 5346 OM OM1 5346 -0.550000 15.99940
5347 OM 5347 OM OM1 5347 -0.550000 15.99940
5348 OM 5348 OM OM1 5348 -0.550000 15.99940
5349 OM 5349 OM OM1 5349 -0.550000 15.99940
5350 OM 5350 OM OM1 5350 -0.550000 15.99940
5351 OM 5351 OM OM1 5351 -0.550000 15.99940
5352 OM 5352 OM OM1 5352 -0.550000 15.99940
5353 OM 5353 OM OM1 5353 -0.550000 15.99940
5354 OM 5354 OM OM1 5354 -0.550000 15.99940
5355 OM 5355 OM OM1 5355 -0.550000 15.99940
5356 OM 5356 OM OM1 5356 -0.550000 15.99940
5357 OM 5357 OM OM1 5357 -0.550000 15.99940
5358 OM 5358 OM OM1 5358 -0.550000 15.99940
5359 OM 5359 OM OM1 5359 -0.550000 15.99940
5360 OM 5360 OM OM1 5360 -0.550000 15.99940
5361 OM 5361 OM OM1 5361 -0.550000 15.99940
5362 OM 5362 OM OM1 5362 -0.550000 15.99940
5363 OM 5363 OM OM1 5363 -0.550000 15.99940
5364 OM 5364 OM OM1 5364 -0.550000 15.99940
5365 OM 5365 OM OM1 5365 -0.550000 15.99940
5366 OM 5366 OM OM1 5366 -0.550000 15.99940
5367 OM 5367 OM OM1 5367 -0.550000 15.99940
5368 OM 5368 OM OM1 5368 -0.550000 15.99940
5369 OM 5369 OM OM1 5369 -0.550000 15.99940
5370 OM 5370 OM OM1 5370 -0.550000 15.99940
5371 OM 5371 OM OM1 5371 -0.550000 15.99940
5372 OM 5372 OM OM1 5372 -0.550000 15.99940
5373 OM 5373 OM OM1 5373 -0.550000 15.99940
5374 OM 5374 OM OM1 5374 -0.550000 15.99940
5375 OM 5375 OM OM1 5375 -0.550000 15.99940
5376 OM 5376 OM OM1 5376 -0.550000 15.99940
5377 OM 5377 OM OM1 5377 -0.550000 15.99940
5378 OM 5378 OM OM1 5378 -0.550000 15.99940
5379 OM 5379 OM OM1 5379 -0.550000 15.99940
5380 OM 5380 OM OM1 5380 -0.550000 15.99940
5381 OM 5381 OM OM1 5381 -0.550000 15.99940
5382 OM 5382 OM OM1 5382 -0.550000 15.99940
5383 OM 5383 OM OM1 5383 -0.550000 15.99940
5384 OM 5384 OM OM1 5384 -0.550000 15.99940
5385 OM 5385 OM OM1 5385 -0.550000 15.99940
5386 OM 5386 OM OM1 5386 -0.550000 15.99940
5387 OM 5387 OM OM1 5387 -0.550000 15.99940
5388 OM 5388 OM OM1 5388 -0.550000 15.99940
5389 OM 5389 OM OM1 5389 -0.550000 15.99940
5390 OM 5390 OM OM1 5390 -0.550000 15.99940
5391 OM 5391 OM OM1 5391 -0.550000 15.99940
5392 OM 5392 OM OM1 5392 -0.550000 15.99940
5393 OM 5393 OM OM1 5393 -0.550000 15.99940
5394 OM 5394 OM OM1 5394 -0.550000 15.99940
5395 OM 5395 OM OM1 5395 -0.550000 15.99940
5396 OM 5396 OM OM1 5396 -0.550000 15.99940
5397 OM 5397 OM OM1 5397 -0.550000 15.99940
5398 OM 5398 OM OM1 5398 -0.550000 15.99940
5399 OM 5399 OM OM1 5399 -0.550000 15.99940
5400 OM 5400 OM OM1 5400 -0.550000 15.99940
5401 OM 5401 OM OM1 5401 -0.550000 15.99940
5402 OM 5402 OM OM1 5402 -0.550000 15.99940
5403 OM 5403 OM OM1 5403 -0.550000 15.99940
5404 OM 5404 OM OM1 5404 -0.550000 15.99940
5405 OM 5405 OM OM1 5405 -0.550000 15.99940
5406 OM 5406 OM OM1 5406 -0.550000 15.99940
5407 OM 5407 OM OM1 5407 -0.550000 15.99940
5408 OM 5408 OM OM1 5408 -0.550000 15.99940
5409 OM 5409 OM OM1 5409 -0.550000 15.99940
5410 OM 5410 OM OM1 5410 -0.550000 15.99940
5411 OM 5411 OM OM1 5411 -0.550000 15.99940
5412 OM 5412 OM OM1 5412 -0.550000 15.99940
5413 OM 5413 OM OM1 5413 -0.550000 15.99940
5414 OM 5414 OM OM1 5414 -0.550000 15.99940
5415 OM 5415 OM OM1 5415 -0.550000 15.99940
5416 OM 5416 OM OM1 5416 -0.550000 15.99940
5417 OM 5417 OM OM1 5417 -0.550000 15.99940
5418 OM 5418 OM OM1 5418 -0.550000 15.99940
5419 OM 5419 OM OM1 5419 -0.550000 15.99940
5420 OM 5420 OM OM1 5420 -0.550000 15.99940
5421 OM 5421 OM OM1 5421 -0.550000 15.99940
5422 OM 5422 OM OM1 5422 -0.550000 15.99940
5423 OM 5423 OM OM1 5423 -0.550000 15.99940
5424 OM 5424 OM OM1 5424 -0.550000 15.99940
5425 OM 5425 OM OM1 5425 -0.550000 15.99940
5426 OM 5426 OM OM1 5426 -0.550000 15.99940
5427 OM 5427 OM OM1 5427 -0.550000 15.99940
5428 OM 5428 OM OM1 5428 -0.550000 15.99940
5429 OM 5429 OM OM1 5429 -0.550000 15.99940
5430 OM 5430 OM OM1 5430 -0.550000 15.99940
5431 OM 5431 OM OM1 5431 -0.550000 15.99940
5432 OM 5432 OM OM1 5432 -0.550000 15.99940
5433 OM 5433 OM OM1 5433 -0.550000 15.99940
5434 OM 5434 OM OM1 5434 -0.550000 15.99940
5435 OM 5435 OM OM1 5435 -0.550000 15.99940
5436 OM 5436 OM OM1 5436 -0.550000 15.99940
5437 OM 5437 OM OM1 5437 -0.550000 15.99940
5438 OM 5438 OM OM1 5438 -0.550000 15.99940
5439 OM 5439 OM OM1 5439 -0.550000 15.99940
5440 OM 5440 OM OM1 5440 -0.550000 15.99940
5441 OM 5441 OM OM1 5441 -0.550000 15.99940
5442 OM 5442 OM OM1 5442 -0.550000 15.99940
5443 OM 5443 OM OM1 5443 -0.550000 15.99940
5444 OM 5444 OM OM1 5444 -0.550000 15.99940
5445 OM 5445 OM OM1 5445 -0.550000 15.99940
5446 OM 5446 OM OM1 5446 -0.550000 15.99940
5447 OM 5447 OM OM1 5447 -0.550000 15.99940
5448 OM 5448 OM OM1 5448 -0.550000 15.99940
5449 OM 5449 OM OM1 5449 -0.550000 15.99940
5450 OM 5450 OM OM1 5450 -0.550000 15.99940
5451 OM 5451 OM OM1 5451 -0.550000 15.99940
5452 OM 5452 OM OM1 5452 -0.550000 15.99940
5453 OM 5453 OM OM1 5453 -0.550000 15.99940
5454 OM 5454 OM OM1 5454 -0.550000 15.99940
5455 OM 5455 OM OM1 5455 -0.550000 15.99940
5456 OM 5456 OM OM1 5456 -0.550000 15.99940
5457 OM 5457 OM OM1 5457 -0.550000 15.99940
5458 OM 5458 OM OM1 5458 -0.550000 15.99940
5459 OM 5459 OM OM1 5459 -0.550000 15.99940
5460 OM 5460 OM OM1 5460 -0.550000 15.99940
5461 OM 5461 OM OM1 5461 -0.550000 15.99940
5462 OM 5462 OM OM1 5462 -0.550000 15.99940
5463 OM 5463 OM OM1 5463 -0.550000 15.99940
5464 OM 5464 OM OM1 5464 -0.550000 15.99940
5465 OM 5465 OM OM1 5465 -0.550000 15.99940
5466 OM 5466 OM OM1 5466 -0.550000 15.99940
5467 OM 5467 OM OM1 5467 -0.550000 15.99940
5468 OM 5468 OM OM1 5468 -0.550000 15.99940
5469 OM 5469 OM OM1 5469 -0.550000 15.99940
5470 OM 5470 OM OM1 5470 -0.550000 15.99940
5471 OM 5471 OM OM1 5471 -0.550000 15.99940
5472 OM 5472 OM OM1 5472 -0.550000 15.99940
5473 OM 5473 OM OM1 5473 -0.550000 15.99940
5474 OM 5474 OM OM1 5474 -0.550000 15.99940
5475 OM 5475 OM OM1 5475 -0.550000 15.99940
5476 OM 5476 OM OM1 5476 -0.550000 15.99940
5477 OM 5477 OM OM1 5477 -0.550000 15.99940
5478 OM 5478 OM OM1 5478 -0.550000 15.99940
5479 OM 5479 OM OM1 5479 -0.550000 15.99940
5480 OM 5480 OM OM1 5480 -0.550000 15.99940
5481 OM 5481 OM OM1 5481 -0.550000 15.99940
5482 OM 5482 OM OM1 5482 -0.550000 15.99940
5483 OM 5483 OM OM1 5483 -0.550000 15.99940
5484 OM 5484 OM OM1 5484 -0.550000 15.99940
5485 OM 5485 OM OM1 5485 -0.550000 15.99940
5486 OM 5486 OM OM1 5486 -0.550000 15.99940
5487 OM 5487 OM OM1 5487 -0.550000 15.99940
5488 OM 5488 OM OM1 5488 -0.550000 15.99940
5489 OM 5489 OM OM1 5489 -0.550000 15.99940
5490 OM 5490 OM OM1 5490 -0.550000 15.99940
5491 OM 5491 OM OM1 5491 -0.550000 15.99940
5492 OM 5492 OM OM1 5492 -0.550000 15.99940
5493 OM 5493 OM OM1 5493 -0.550000 15.99940
5494 OM 5494 OM OM1 5494 -0.550000 15.99940
5495 OM 5495 OM OM1 5495 -0.550000 15.99940
5496 OM 5496 OM OM1 5496 -0.550000 15.99940
5497 OM 5497 OM OM1 5497 -0.550000 15.99940
5498 OM 5498 OM OM1 5498 -0.550000 15.99940
5499 OM 5499 OM OM1 5499 -0.550000 15.99940
5500 OM 5500 OM OM1 5500 -0.550000 15.99940
5501 OM 5501 OM OM1 5501 -0.550000 15.99940
5502 OM 5502 OM OM1 5502 -0.550000 15.99940
5503 OM 5503 OM OM1 5503 -0.550000 15.99940
5504 OM 5504 OM OM1 5504 -0.550000 15.99940
5505 OM 5505 OM OM1 5505 -0.550000 15.99940
5506 OM 5506 OM OM1 5506 -0.550000 15.99940
5507 OM 5507 OM OM1 5507 -0.550000 15.99940
5508 OM 5508 OM OM1 5508 -0.550000 15.99940
5509 OM 5509 OM OM1 5509 -0.550000 15.99940
5510 OM 5510 OM OM1 5510 -0.550000 15.99940
5511 OM 5511 OM OM1 5511 -0.550000 15.99940
5512 OM 5512 OM OM1 5512 -0.550000 15.99940
5513 OM 5513 OM OM1 5513 -0.550000 15.99940
5514 OM 5514 OM OM1 5514 -0.550000 15.99940
5515 OM 5515 OM OM1 5515 -0.550000 15.99940
5516 OM 5516 OM OM1 5516 -0.550000 15.99940
5517 OM 5517 OM OM1 5517 -0.550000 15.99940
5518 OM 5518 OM OM1 5518 -0.550000 15.99940
5519 OM 5519 OM OM1 5519 -0.550000 15.99940
5520 OM 5520 OM OM1 5520 -0.550000 15.99940
5521 OM 5521 OM OM1 5521 -0.550000 15.99940
5522 OM 5522 OM OM1 5522 -0.550000 15.99940
5523 OM 5523 OM OM1 5523 -0.550000 15.99940
5524 OM 5524 OM OM1 5524 -0.550000 15.99940
5525 OM 5525 OM OM1 5525 -0.550000 15.99940
5526 OM 5526 OM OM1 5526 -0.550000 15.99940
5527 OM 5527 OM OM1 5527 -0.550000 15.99940
5528 OM 5528 OM OM1 5528 -0.550000 15.99940
5529 OM 5529 OM OM1 5529 -0.550000 15.99940
5530 OM 5530 OM OM1 5530 -0.550000 15.99940
5531 OM 5531 OM OM1 5531 -0.550000 15.99940
5532 OM 5532 OM OM1 5532 -0.550000 15.99940
5533 OM 5533 OM OM1 5533 -0.550000 15.99940
5534 OM 5534 OM OM1 5534 -0.550000 15.99940
5535 OM 5535 OM OM1 5535 -0.550000 15.99940
5536 OM 5536 OM OM1 5536 -0.550000 15.99940
5537 OM 5537 OM OM1 5537 -0.550000 15.99940
5538 OM 5538 OM OM1 5538 -0.550000 15.99940
5539 OM 5539 OM OM1 5539 -0.550000 15.99940
5540 OM 5540 OM OM1 5540 -0.550000 15.99940
5541 OM 5541 OM OM1 5541 -0.550000 15.99940
5542 OM 5542 OM OM1 5542 -0.550000 15.99940
5543 OM 5543 OM OM1 5543 -0.550000 15.99940
5544 OM 5544 OM OM1 5544 -0.550000 15.99940
5545 OM 5545 OM OM1 5545 -0.550000 15.99940
5546 OM 5546 OM OM1 5546 -0.550000 15.99940
5547 OM 5547 OM OM1 5547 -0.550000 15.99940
5548 OM 5548 OM OM1 5548 -0.550000 15.99940
5549 OM 5549 OM OM1 5549 -0.550000 15.99940
5550 OM 5550 OM OM1 5550 -0.550000 15.99940
5551 OM 5551 OM OM1 5551 -0.550000 15.99940
5552 OM 5552 OM OM1 5552 -0.550000 15.99940
5553 OM 5553 OM OM1 5553 -0.550000 15.99940
5554 OM 5554 OM OM1 5554 -0.550000 15.99940
5555 OM 5555 OM OM1 5555 -0.550000 15.99940
5556 OM 5556 OM OM1 5556 -0.550000 15.99940
5557 OM 5557 OM OM1 5557 -0.550000 15.99940
5558 OM 5558 OM OM1 5558 -0.550000 15.99940
5559 OM 5559 OM OM1 5559 -0.550000 15.99940
5560 OM 5560 OM OM1 5560 -0.550000 15.99940
5561 OM 5561 OM OM1 5561 -0.550000 15.99940
5562 OM 5562 OM OM1 5562 -0.550000 15.99940
5563 OM 5563 OM OM1 5563 -0.550000 15.99940
5564 OM 5564 OM OM1 5564 -0.550000 15.99940
5565 OM 5565 OM OM1 5565 -0.550000 15.99940
5566 OM 5566 OM OM1 5566 -0.550000 15.99940
5567 OM 5567 OM OM1 5567 -0.550000 15.99940
5568 OM 5568 OM OM1 5568 -0.550000 15.99940
5569 OM 5569 OM OM1 5569 -0.550000 15.99940
5570 OM 5570 OM OM1 5570 -0.550000 15.99940
5571 OM 5571 OM OM1 5571 -0.550000 15.99940
5572 OM 5572 OM OM1 5572 -0.550000 15.99940
5573 OM 5573 OM OM1 5573 -0.550000 15.99940
5574 OM 5574 OM OM1 5574 -0.550000 15.99940
5575 OM 5575 OM OM1 5575 -0.550000 15.99940
5576 OM 5576 OM OM1 5576 -0.550000 15.99940
5577 OM 5577 OM OM1 5577 -0.550000 15.99940
5578 OM 5578 OM OM1 5578 -0.550000 15.99940
5579 OM 5579 OM OM1 5579 -0.550000 15.99940
5580 OM 5580 OM OM1 5580 -0.550000 15.99940
5581 OM 5581 OM OM1 5581 -0.550000 15.99940
5582 OM 5582 OM OM1 5582 -0.550000 15.99940
5583 OM 5583 OM OM1 5583 -0.550000 15.99940
5584 OM 5584 OM OM1 5584 -0.550000 15.99940
5585 OM 5585 OM OM1 5585 -0.550000 15.99940
5586 OM 5586 OM OM1 5586 -0.550000 15.99940
5587 OM 5587 OM OM1 5587 -0.550000 15.99940
5588 OM 5588 OM OM1 5588 -0.550000 15.99940
5589 OM 5589 OM OM1 5589 -0.550000 15.99940
5590 OM 5590 OM OM1 5590 -0.550000 15.99940
5591 OM 5591 OM OM1 5591 -0.550000 15.99940
5592 OM 5592 OM OM1 5592 -0.550000 15.99940
5593 OM 5593 OM OM1 5593 -0.550000 15.99940
5594 OM 5594 OM OM1 5594 -0.550000 15.99940
5595 OM 5595 OM OM1 5595 -0.550000 15.99940
5596 OM 5596 OM OM1 5596 -0.550000 15.99940
5597 OM 5597 OM OM1 5597 -0.550000 15.99940
5598 OM 5598 OM OM1 5598 -0.550000 15.99940
5599 OM 5599 OM OM1 5599 -0.550000 15.99940
5600 OM 5600 OM OM1 5600 -0.550000 15.99940
5601 OM 5601 OM OM1 5601 -0.550000 15.99940
5602 OM 5602 OM OM1 5602 -0.550000 15.99940
5603 OM 5603 OM OM1 5603 -0.550000 15.99940
5604 OM 5604 OM OM1 5604 -0.550000 15.99940
5605 OM 5605 OM OM1 5605 -0.550000 15.99940
5606 OM 5606 OM OM1 5606 -0.550000 15.99940
5607 OM 5607 OM OM1 5607 -0.550000 15.99940
5608 OM 5608 OM OM1 5608 -0.550000 15.99940
5609 OM 5609 OM OM1 5609 -0.550000 15.99940
5610 OM 5610 OM OM1 5610 -0.550000 15.99940
5611 OM 5611 OM OM1 5611 -0.550000 15.99940
5612 OM 5612 OM OM1 5612 -0.550000 15.99940
5613 OM 5613 OM OM1 5613 -0.550000 15.99940
5614 OM 5614 OM OM1 5614 -0.550000 15.99940
5615 OM 5615 OM OM1 5615 -0.550000 15.99940
5616 OM 5616 OM OM1 5616 -0.550000 15.99940
5617 OM 5617 OM OM1 5617 -0.550000 15.99940
5618 OM 5618 OM OM1 5618 -0.550000 15.99940
5619 OM 5619 OM OM1 5619 -0.550000 15.99940
5620 OM 5620 OM OM1 5620 -0.550000 15.99940
5621 OM 5621 OM OM1 5621 -0.550000 15.99940
5622 OM 5622 OM OM1 5622 -0.550000 15.99940
5623 OM 5623 OM OM1 5623 -0.550000 15.99940
5624 OM 5624 OM OM1 5624 -0.550000 15.99940
5625 OM 5625 OM OM1 5625 -0.550000 15.99940
5626 OM 5626 OM OM1 5626 -0.550000 15.99940
5627 OM 5627 OM OM1 5627 -0.550000 15.99940
5628 OM 5628 OM OM1 5628 -0.550000 15.99940
5629 OM 5629 OM OM1 5629 -0.550000 15.99940
5630 OM 5630 OM OM1 5630 -0.550000 15.99940
5631 OM 5631 OM OM1 5631 -0.550000 15.99940
5632 OM 5632 OM OM1 5632 -0.550000 15.99940
5633 OM 5633 OM OM1 5633 -0.550000 15.99940
5634 OM 5634 OM OM1 5634 -0.550000 15.99940
5635 OM 5635 OM OM1 5635 -0.550000 15.99940
5636 OM 5636 OM OM1 5636 -0.550000 15.99940
5637 OM 5637 OM OM1 5637 -0.550000 15.99940
5638 OM 5638 OM OM1 5638 -0.550000 15.99940
5639 OM 5639 OM OM1 5639 -0.550000 15.99940
5640 OM 5640 OM OM1 5640 -0.550000 15.99940
5641 OM 5641 OM OM1 5641 -0.550000 15.99940
5642 OM 5642 OM OM1 5642 -0.550000 15.99940
5643 OM 5643 OM OM1 5643 -0.550000 15.99940
5644 OM 5644 OM OM1 5644 -0.550000 15.99940
5645 OM 5645 OM OM1 5645 -0.550000 15.99940
5646 OM 5646 OM OM1 5646 -0.550000 15.99940
5647 OM 5647 OM OM1 5647 -0.550000 15.99940
5648 OM 5648 OM OM1 5648 -0.550000 15.99940
5649 OM 5649 OM OM1 5649 -0.550000 15.99940
5650 OM 5650 OM OM1 5650 -0.550000 15.99940
5651 OM 5651 OM OM1 5651 -0.550000 15.99940
5652 OM 5652 OM OM1 5652 -0.550000 15.99940
5653 OM 5653 OM OM1 5653 -0.550000 15.99940
5654 OM 5654 OM OM1 5654 -0.550000 15.99940
5655 OM 5655 OM OM1 5655 -0.550000 15.99940
5656 OM 5656 OM OM1 5656 -0.550000 15.99940
5657 OM 5657 OM OM1 5657 -0.550000 15.99940
5658 OM 5658 OM OM1 5658 -0.550000 15.99940
5659 OM 5659 OM OM1 5659 -0.550000 15.99940
5660 OM 5660 OM OM1 5660 -0.550000 15.99940
5661 OM 5661 OM OM1 5661 -0.550000 15.99940
5662 OM 5662 OM OM1 5662 -0.550000 15.99940
5663 OM 5663 OM OM1 5663 -0.550000 15.99940
5664 OM 5664 OM OM1 5664 -0.550000 15.99940
5665 OM 5665 OM OM1 5665 -0.550000 15.99940
5666 OM 5666 OM OM1 5666 -0.550000 15.99940
5667 OM 5667 OM OM1 5667 -0.550000 15.99940
5668 OM 5668 OM OM1 5668 -0.550000 15.99940
5669 OM 5669 OM OM1 5669 -0.550000 15.99940
5670 OM 5670 OM OM1 5670 -0.550000 15.99940
5671 OM 5671 OM OM1 5671 -0.550000 15.99940
5672 OM 5672 OM OM1 5672 -0.550000 15.99940
5673 OM 5673 OM OM1 5673 -0.550000 15.99940
5674 OM 5674 OM OM1 5674 -0.550000 15.99940
5675 OM 5675 OM OM1 5675 -0.550000 15.99940
5676 OM 5676 OM OM1 5676 -0.550000 15.99940
5677 OM 5677 OM OM1 5677 -0.550000 15.99940
5678 OM 5678 OM OM1 5678 -0.550000 15.99940
5679 OM 5679 OM OM1 5679 -0.550000 15.99940
5680 OM 5680 OM OM1 5680 -0.550000 15.99940
5681 OM 5681 OM OM1 5681 -0.550000 15.99940
5682 OM 5682 OM OM1 5682 -0.550000 15.99940
5683 OM 5683 OM OM1 5683 -0.550000 15.99940
5684 OM 5684 OM OM1 5684 -0.550000 15.99940
5685 OM 5685 OM OM1 5685 -0.550000 15.99940
5686 OM 5686 OM OM1 5686 -0.550000 15.99940
5687 OM 5687 OM OM1 5687 -0.550000 15.99940
5688 OM 5688 OM OM1 5688 -0.550000 15.99940
5689 OM 5689 OM OM1 5689 -0.550000 15.99940
5690 OM 5690 OM OM1 5690 -0.550000 15.99940
5691 OM 5691 OM OM1 5691 -0.550000 15.99940
5692 OM 5692 OM OM1 5692 -0.550000 15.99940
5693 OM 5693 OM OM1 5693 -0.550000 15.99940
5694 OM 5694 OM OM1 5694 -0.550000 15.99940
5695 OM 5695 OM OM1 5695 -0.550000 15.99940
5696 OM 5696 OM OM1 5696 -0.550000 15.99940
5697 OM 5697 OM OM1 5697 -0.550000 15.99940
5698 OM 5698 OM OM1 5698 -0.550000 15.99940
5699 OM 5699 OM OM1 5699 -0.550000 15.99940
5700 OM 5700 OM OM1 5700 -0.550000 15.99940
5701 OM 5701 OM OM1 5701 -0.550000 15.99940
5702 OM 5702 OM OM1 5702 -0.550000 15.99940
5703 OM 5703 OM OM1 5703 -0.550000 15.99940
5704 OM 5704 OM OM1 5704 -0.550000 15.99940
5705 OM 5705 OM OM1 5705 -0.550000 15.99940
5706 OM 5706 OM OM1 5706 -0.550000 15.99940
5707 OM 5707 OM OM1 5707 -0.550000 15.99940
5708 OM 5708 OM OM1 5708 -0.550000 15.99940
5709 OM 5709 OM OM1 5709 -0.550000 15.99940
5710 OM 5710 OM OM1 5710 -0.550000 15.99940
5711 OM 5711 OM OM1 5711 -0.550000 15.99940
5712 OM 5712 OM OM1 5712 -0.550000 15.99940
5713 OM 5713 OM OM1 5713 -0.550000 15.99940
5714 OM 5714 OM OM1 5714 -0.550000 15.99940
5715 OM 5715 OM OM1 5715 -0.550000 15.99940
5716 OM 5716 OM OM1 5716 -0.550000 15.99940
5717 OM 5717 OM OM1 5717 -0.550000 15.99940
5718 OM 5718 OM OM1 5718 -0.550000 15.99940
5719 OM 5719 OM OM1 5719 -0.550000 15.99940
5720 OM 5720 OM OM1 5720 -0.550000 15.99940
5721 OM 5721 OM OM1 5721 -0.550000 15.99940
5722 OM 5722 OM OM1 5722 -0.550000 15.99940
5723 OM 5723 OM OM1 5723 -0.550000 15.99940
5724 OM 5724 OM OM1 5724 -0.550000 15.99940
5725 OM 5725 OM OM1 5725 -0.550000 15.99940
5726 OM 5726 OM OM1 5726 -0.550000 15.99940
5727 OM 5727 OM OM1 5727 -0.550000 15.99940
5728 OM 5728 OM OM1 5728 -0.550000 15.99940
5729 OM 5729 OM OM1 5729 -0.550000 15.99940
5730 OM 5730 OM OM1 5730 -0.550000 15.99940
5731 OM 5731 OM OM1 5731 -0.550000 15.99940
5732 OM 5732 OM OM1 5732 -0.550000 15.99940
5733 OM 5733 OM OM1 5733 -0.550000 15.99940
5734 OM 5734 OM OM1 5734 -0.550000 15.99940
5735 OM 5735 OM OM1 5735 -0.550000 15.99940
5736 OM 5736 OM OM1 5736 -0.550000 15.99940
5737 OM 5737 OM OM1 5737 -0.550000 15.99940
5738 OM 5738 OM OM1 5738 -0.550000 15.99940
5739 OM 5739 OM OM1 5739 -0.550000 15.99940
5740 OM 5740 OM OM1 5740 -0.550000 15.99940
5741 OM 5741 OM OM1 5741 -0.550000 15.99940
5742 OM 5742 OM OM1 5742 -0.550000 15.99940
5743 OM 5743 OM OM1 5743 -0.550000 15.99940
5744 OM 5744 OM OM1 5744 -0.550000 15.99940
5745 OM 5745 OM OM1 5745 -0.550000 15.99940
5746 OM 5746 OM OM1 5746 -0.550000 15.99940
5747 OM 5747 OM OM1 5747 -0.550000 15.99940
5748 OM 5748 OM OM1 5748 -0.550000 15.99940
5749 OM 5749 OM OM1 5749 -0.550000 15.99940
5750 OM 5750 OM OM1 5750 -0.550000 15.99940
5751 OM 5751 OM OM1 5751 -0.550000 15.99940
5752 OM 5752 OM OM1 5752 -0.550000 15.99940
5753 OM 5753 OM OM1 5753 -0.550000 15.99940
5754 OM 5754 OM OM1 5754 -0.550000 15.99940
5755 OM 5755 OM OM1 5755 -0.550000 15.99940
5756 OM 5756 OM OM1 5756 -0.550000 15.99940
5757 OM 5757 OM OM1 5757 -0.550000 15.99940
5758 OM 5758 OM OM1 5758 -0.550000 15.99940
5759 OM 5759 OM OM1 5759 -0.550000 15.99940
5760 OM 5760 OM OM1 5760 -0.550000 15.99940
5761 OM 5761 OM OM1 5761 -0.550000 15.99940
5762 OM 5762 OM OM1 5762 -0.550000 15.99940
5763 OM 5763 OM OM1 5763 -0.550000 15.99940
5764 OM 5764 OM OM1 5764 -0.550000 15.99940
5765 OM 5765 OM OM1 5765 -0.550000 15.99940
5766 OM 5766 OM OM1 5766 -0.550000 15.99940
5767 OM 5767 OM OM1 5767 -0.550000 15.99940
5768 OM 5768 OM OM1 5768 -0.550000 15.99940
5769 OM 5769 OM OM1 5769 -0.550000 15.99940
5770 OM 5770 OM OM1 5770 -0.550000 15.99940
5771 OM 5771 OM OM1 5771 -0.550000 15.99940
5772 OM 5772 OM OM1 5772 -0.550000 15.99940
5773 OM 5773 OM OM1 5773 -0.550000 15.99940
5774 OM 5774 OM OM1 5774 -0.550000 15.99940
5775 OM 5775 OM OM1 5775 -0.550000 15.99940
5776 OM 5776 OM OM1 5776 -0.550000 15.99940
5777 OM 5777 OM OM1 5777 -0.550000 15.99940
5778 OM 5778 OM OM1 5778 -0.550000 15.99940
5779 OM 5779 OM OM1 5779 -0.550000 15.99940
5780 OM 5780 OM OM1 5780 -0.550000 15.99940
5781 OM 5781 OM OM1 5781 -0.550000 15.99940
5782 OM 5782 OM OM1 5782 -0.550000 15.99940
5783 OM 5783 OM OM1 5783 -0.550000 15.99940
5784 OM 5784 OM OM1 5784 -0.550000 15.99940
5785 OM 5785 OM OM1 5785 -0.550000 15.99940
5786 OM 5786 OM OM1 5786 -0.550000 15.99940
5787 OM 5787 OM OM1 5787 -0.550000 15.99940
5788 OM 5788 OM OM1 5788 -0.550000 15.99940
5789 OM 5789 OM OM1 5789 -0.550000 15.99940
5790 OM 5790 OM OM1 5790 -0.550000 15.99940
5791 OM 5791 OM OM1 5791 -0.550000 15.99940
5792 OM 5792 OM OM1 5792 -0.550000 15.99940
5793 OM 5793 OM OM1 5793 -0.550000 15.99940
5794 OM 5794 OM OM1 5794 -0.550000 15.99940
5795 OM 5795 OM OM1 5795 -0.550000 15.99940
5796 OM 5796 OM OM1 5796 -0.550000 15.99940
5797 OM 5797 OM OM1 5797 -0.550000 15.99940
5798 OM 5798 OM OM1 5798 -0.550000 15.99940
5799 OM 5799 OM OM1 5799 -0.550000 15.99940
5800 OM 5800 OM OM1 5800 -0.550000 15.99940
5801 OM 5801 OM OM1 5801 -0.550000 15.99940
5802 OM 5802 OM OM1 5802 -0.550000 15.99940
5803 OM 5803 OM OM1 5803 -0.550000 15.99940
5804 OM 5804 OM OM1 5804 -0.550000 15.99940
5805 OM 5805 OM OM1 5805 -0.550000 15.99940
5806 OM 5806 OM OM1 5806 -0.550000 15.99940
5807 OM 5807 OM OM1 5807 -0.550000 15.99940
5808 OM 5808 OM OM1 5808 -0.550000 15.99940
5809 OM 5809 OM OM1 5809 -0.550000 15.99940
5810 OM 5810 OM OM1 5810 -0.550000 15.99940
5811 OM 5811 OM OM1 5811 -0.550000 15.99940
5812 OM 5812 OM OM1 5812 -0.550000 15.99940
5813 OM 5813 OM OM1 5813 -0.550000 15.99940
5814 OM 5814 OM OM1 5814 -0.550000 15.99940
5815 OM 5815 OM OM1 5815 -0.550000 15.99940
5816 OM 5816 OM OM1 5816 -0.550000 15.99940
5817 OM 5817 OM OM1 5817 -0.550000 15.99940
5818 OM 5818 OM OM1 5818 -0.550000 15.99940
5819 OM 5819 OM OM1 5819 -0.550000 15.99940
5820 OM 5820 OM OM1 5820 -0.550000 15.99940
5821 OM 5821 OM OM1 5821 -0.550000 15.99940
5822 OM 5822 OM OM1 5822 -0.550000 15.99940
5823 OM 5823 OM OM1 5823 -0.550000 15.99940
5824 OM 5824 OM OM1 5824 -0.550000 15.99940
5825 OM 5825 OM OM1 5825 -0.550000 15.99940
5826 OM 5826 OM OM1 5826 -0.550000 15.99940
5827 OM 5827 OM OM1 5827 -0.550000 15.99940
5828 OM 5828 OM OM1 5828 -0.550000 15.99940
5829 OM 5829 OM OM1 5829 -0.550000 15.99940
5830 OM 5830 OM OM1 5830 -0.550000 15.99940
5831 OM 5831 OM OM1 5831 -0.550000 15.99940
5832 OM 5832 OM OM1 5832 -0.550000 15.99940
5833 OM 5833 OM OM1 5833 -0.550000 15.99940
5834 OM 5834 OM OM1 5834 -0.550000 15.99940
5835 OM 5835 OM OM1 5835 -0.550000 15.99940
5836 OM 5836 OM OM1 5836 -0.550000 15.99940
5837 OM 5837 OM OM1 5837 -0.550000 15.99940
5838 OM 5838 OM OM1 5838 -0.550000 15.99940
5839 OM 5839 OM OM1 5839 -0.550000 15.99940
5840 OM 5840 OM OM1 5840 -0.550000 15.99940
5841 OM 5841 OM OM1 5841 -0.550000 15.99940
5842 OM 5842 OM OM1 5842 -0.550000 15.99940
5843 OM 5843 OM OM1 5843 -0.550000 15.99940
5844 OM 5844 OM OM1 5844 -0.550000 15.99940
5845 OM 5845 OM OM1 5845 -0.550000 15.99940
5846 OM 5846 OM OM1 5846 -0.550000 15.99940
5847 OM 5847 OM OM1 5847 -0.550000 15.99940
5848 OM 5848 OM OM1 5848 -0.550000 15.99940
5849 OM 5849 OM OM1 5849 -0.550000 15.99940
5850 OM 5850 OM OM1 5850 -0.550000 15.99940
5851 OM 5851 OM OM1 5851 -0.550000 15.99940
5852 OM 5852 OM OM1 5852 -0.550000 15.99940
5853 OM 5853 OM OM1 5853 -0.550000 15.99940
5854 OM 5854 OM OM1 5854 -0.550000 15.99940
5855 OM 5855 OM OM1 5855 -0.550000 15.99940
5856 OM 5856 OM OM1 5856 -0.550000 15.99940
5857 OM 5857 OM OM1 5857 -0.550000 15.99940
5858 OM 5858 OM OM1 5858 -0.550000 15.99940
5859 OM 5859 OM OM1 5859 -0.550000 15.99940
5860 OM 5860 OM OM1 5860 -0.550000 15.99940
5861 OM 5861 OM OM1 5861 -0.550000 15.99940
5862 OM 5862 OM OM1 5862 -0.550000 15.99940
5863 OM 5863 OM OM1 5863 -0.550000 15.99940
5864 OM 5864 OM OM1 5864 -0.550000 15.99940
5865 OM 5865 OM OM1 5865 -0.550000 15.99940
5866 OM 5866 OM OM1 5866 -0.550000 15.99940
5867 OM 5867 OM OM1 5867 -0.550000 15.99940
5868 OM 5868 OM OM1 5868 -0.550000 15.99940
5869 OM 5869 OM OM1 5869 -0.550000 15.99940
5870 OM 5870 OM OM1 5870 -0.550000 15.99940
5871 OM 5871 OM OM1 5871 -0.550000 15.99940
5872 OM 5872 OM OM1 5872 -0.550000 15.99940
5873 OM 5873 OM OM1 5873 -0.550000 15.99940
5874 OM 5874 OM OM1 5874 -0.550000 15.99940
5875 OM 5875 OM OM1 5875 -0.550000 15.99940
5876 OM 5876 OM OM1 5876 -0.550000 15.99940
5877 OM 5877 OM OM1 5877 -0.550000 15.99940
5878 OM 5878 OM OM1 5878 -0.550000 15.99940
5879 OM 5879 OM OM1 5879 -0.550000 15.99940
5880 OM 5880 OM OM1 5880 -0.550000 15.99940
5881 OM 5881 OM OM1 5881 -0.550000 15.99940
5882 OM 5882 OM OM1 5882 -0.550000 15.99940
5883 OM 5883 OM OM1 5883 -0.550000 15.99940
5884 OM 5884 OM OM1 5884 -0.550000 15.99940
5885 OM 5885 OM OM1 5885 -0.550000 15.99940
5886 OM 5886 OM OM1 5886 -0.550000 15.99940
5887 OM 5887 OM OM1 5887 -0.550000 15.99940
5888 OM 5888 OM OM1 5888 -0.550000 15.99940
5889 OM 5889 OM OM1 5889 -0.550000 15.99940
5890 OM 5890 OM OM1 5890 -0.550000 15.99940
5891 OM 5891 OM OM1 5891 -0.550000 15.99940
5892 OM 5892 OM OM1 5892 -0.550000 15.99940
5893 OM 5893 OM OM1 5893 -0.550000 15.99940
5894 OM 5894 OM OM1 5894 -0.550000 15.99940
5895 OM 5895 OM OM1 5895 -0.550000 15.99940
5896 OM 5896 OM OM1 5896 -0.550000 15.99940
5897 OM 5897 OM OM1 5897 -0.550000 15.99940
5898 OM 5898 OM OM1 5898 -0.550000 15.99940
5899 OM 5899 OM OM1 5899 -0.550000 15.99940
5900 OM 5900 OM OM1 5900 -0.550000 15.99940
5901 OM 5901 OM OM1 5901 -0.550000 15.99940
5902 OM 5902 OM OM1 5902 -0.550000 15.99940
5903 OM 5903 OM OM1 5903 -0.550000 15.99940
5904 OM 5904 OM OM1 5904 -0.550000 15.99940
5905 OM 5905 OM OM1 5905 -0.550000 15.99940
5906 OM 5906 OM OM1 5906 -0.550000 15.99940
5907 OM 5907 OM OM1 5907 -0.550000 15.99940
5908 OM 5908 OM OM1 5908 -0.550000 15.99940
5909 OM 5909 OM OM1 5909 -0.550000 15.99940
5910 OM 5910 OM OM1 5910 -0.550000 15.99940
5911 OM 5911 OM OM1 5911 -0.550000 15.99940
5912 OM 5912 OM OM1 5912 -0.550000 15.99940
5913 OM 5913 OM OM1 5913 -0.550000 15.99940
5914 OM 5914 OM OM1 5914 -0.550000 15.99940
5915 OM 5915 OM OM1 5915 -0.550000 15.99940
5916 OM 5916 OM OM1 5916 -0.550000 15.99940
5917 OM 5917 OM OM1 5917 -0.550000 15.99940
5918 OM 5918 OM OM1 5918 -0.550000 15.99940
5919 OM 5919 OM OM1 5919 -0.550000 15.99940
5920 OM 5920 OM OM1 5920 -0.550000 15.99940
5921 OM 5921 OM OM1 5921 -0.550000 15.99940
5922 OM 5922 OM OM1 5922 -0.550000 15.99940
5923 OM 5923 OM OM1 5923 -0.550000 15.99940
5924 OM 5924 OM OM1 5924 -0.550000 15.99940
5925 OM 5925 OM OM1 5925 -0.550000 15.99940
5926 OM 5926 OM OM1 5926 -0.550000 15.99940
5927 OM 5927 OM OM1 5927 -0.550000 15.99940
5928 OM 5928 OM OM1 5928 -0.550000 15.99940
5929 OM 5929 OM OM1 5929 -0.550000 15.99940
5930 OM 5930 OM OM1 5930 -0.550000 15.99940
5931 OM 5931 OM OM1 5931 -0.550000 15.99940
5932 OM 5932 OM OM1 5932 -0.550000 15.99940
5933 OM 5933 OM OM1 5933 -0.550000 15.99940
5934 OM 5934 OM OM1 5934 -0.550000 15.99940
5935 OM 5935 OM OM1 5935 -0.550000 15.99940
5936 OM 5936 OM OM1 5936 -0.550000 15.99940
5937 OM 5937 OM OM1 5937 -0.550000 15.99940
5938 OM 5938 OM OM1 5938 -0.550000 15.99940
5939 OM 5939 OM OM1 5939 -0.550000 15.99940
5940 OM 5940 OM OM1 5940 -0.550000 15.99940
5941 OM 5941 OM OM1 5941 -0.550000 15.99940
5942 OM 5942 OM OM1 5942 -0.550000 15.99940
5943 OM 5943 OM OM1 5943 -0.550000 15.99940
5944 OM 5944 OM OM1 5944 -0.550000 15.99940
5945 OM 5945 OM OM1 5945 -0.550000 15.99940
5946 OM 5946 OM OM1 5946 -0.550000 15.99940
5947 OM 5947 OM OM1 5947 -0.550000 15.99940
5948 OM 5948 OM OM1 5948 -0.550000 15.99940
5949 OM 5949 OM OM1 5949 -0.550000 15.99940
5950 OM 5950 OM OM1 5950 -0.550000 15.99940
5951 OM 5951 OM OM1 5951 -0.550000 15.99940
5952 OM 5952 OM OM1 5952 -0.550000 15.99940
5953 OM 5953 OM OM1 5953 -0.550000 15.99940
5954 OM 5954 OM OM1 5954 -0.550000 15.99940
5955 OM 5955 OM OM1 5955 -0.550000 15.99940
5956 OM 5956 OM OM1 5956 -0.550000 15.99940
5957 OM 5957 OM OM1 5957 -0.550000 15.99940
5958 OM 5958 OM OM1 5958 -0.550000 15.99940
5959 OM 5959 OM OM1 5959 -0.550000 15.99940
5960 OM 5960 OM OM1 5960 -0.550000 15.99940
5961 OM 5961 OM OM1 5961 -0.550000 15.99940
5962 OM 5962 OM OM1 5962 -0.550000 15.99940
5963 OM 5963 OM OM1 5963 -0.550000 15.99940
5964 OM 5964 OM OM1 5964 -0.550000 15.99940
5965 OM 5965 OM OM1 5965 -0.550000 15.99940
5966 OM 5966 OM OM1 5966 -0.550000 15.99940
5967 OM 5967 OM OM1 5967 -0.550000 15.99940
5968 OM 5968 OM OM1 5968 -0.550000 15.99940
5969 OM 5969 OM OM1 5969 -0.550000 15.99940
5970 OM 5970 OM OM1 5970 -0.550000 15.99940
5971 OM 5971 OM OM1 5971 -0.550000 15.99940
5972 OM 5972 OM OM1 5972 -0.550000 15.99940
5973 OM 5973 OM OM1 5973 -0.550000 15.99940
5974 OM 5974 OM OM1 5974 -0.550000 15.99940
5975 OM 5975 OM OM1 5975 -0.550000 15.99940
5976 OM 5976 OM OM1 5976 -0.550000 15.99940
5977 OM 5977 OM OM1 5977 -0.550000 15.99940
5978 OM 5978 OM OM1 5978 -0.550000 15.99940
5979 OM 5979 OM OM1 5979 -0.550000 15.99940
5980 OM 5980 OM OM1 5980 -0.550000 15.99940
5981 OM 5981 OM OM1 5981 -0.550000 15.99940
5982 OM 5982 OM OM1 5982 -0.550000 15.99940
5983 OM 5983 OM OM1 5983 -0.550000 15.99940
5984 OM 5984 OM OM1 5984 -0.550000 15.99940
5985 OM 5985 OM OM1 5985 -0.550000 15.99940
5986 OM 5986 OM OM1 5986 -0.550000 15.99940
5987 OM 5987 OM OM1 5987 -0.550000 15.99940
5988 OM 5988 OM OM1 5988 -0.550000 15.99940
5989 OM 5989 OM OM1 5989 -0.550000 15.99940
5990 OM 5990 OM OM1 5990 -0.550000 15.99940
5991 OM 5991 OM OM1 5991 -0.550000 15.99940
5992 OM 5992 OM OM1 5992 -0.550000 15.99940
5993 OM 5993 OM OM1 5993 -0.550000 15.99940
5994 OM 5994 OM OM1 5994 -0.550000 15.99940
5995 OM 5995 OM OM1 5995 -0.550000 15.99940
5996 OM 5996 OM OM1 5996 -0.550000 15.99940
5997 OM 5997 OM OM1 5997 -0.550000 15.99940
5998 OM 5998 OM OM1 5998 -0.550000 15.99940
5999 OM 5999 OM OM1 5999 -0.550000 15.99940
6000 OM 6000 OM OM1 6000 -0.550000 15.99940
6001 OM 6001 OM OM1 6001 -0.550000 15.99940
6002 OM 6002 OM OM1 6002 -0.550000 15.99940
6003 OM 6003 OM OM1 6003 -0.550000 15.99940
6004 OM 6004 OM OM1 6004 -0.550000 15.99940
6005 OM 6005 OM OM1 6005 -0.550000 15.99940
6006 OM 6006 OM OM1 6006 -0.550000 15.99940
6007 OM 6007 OM OM1 6007 -0.550000 15.99940
6008 OM 6008 OM OM1 6008 -0.550000 15.99940
6009 OM 6009 OM OM1 6009 -0.550000 15.99940
6010 OM 6010 OM OM1 6010 -0.550000 15.99940
6011 OM 6011 OM OM1 6011 -0.550000 15.99940
6012 OM 6012 OM OM1 6012 -0.550000 15.99940
6013 OM 6013 OM OM1 6013 -0.550000 15.99940
6014 OM 6014 OM OM1 6014 -0.550000 15.99940
6015 OM 6015 OM OM1 6015 -0.550000 15.99940
6016 OM 6016 OM OM1 6016 -0.550000 15.99940
6017 OM 6017 OM OM1 6017 -0.550000 15.99940
6018 OM 6018 OM OM1 6018 -0.550000 15.99940
6019 OM 6019 OM OM1 6019 -0.550000 15.99940
6020 OM 6020 OM OM1 6020 -0.550000 15.99940
6021 OM 6021 OM OM1 6021 -0.550000 15.99940
6022 OM 6022 OM OM1 6022 -0.550000 15.99940
6023 OM 6023 OM OM1 6023 -0.550000 15.99940
6024 OM 6024 OM OM1 6024 -0.550000 15.99940
6025 OM 6025 OM OM1 6025 -0.550000 15.99940
6026 OM 6026 OM OM1 6026 -0.550000 15.99940
6027 OM 6027 OM OM1 6027 -0.550000 15.99940
6028 OM 6028 OM OM1 6028 -0.550000 15.99940
6029 OM 6029 OM OM1 6029 -0.550000 15.99940
6030 OM 6030 OM OM1 6030 -0.550000 15.99940
6031 OM 6031 OM OM1 6031 -0.550000 15.99940
6032 OM 6032 OM OM1 6032 -0.550000 15.99940
6033 OM 6033 OM OM1 6033 -0.550000 15.99940
6034 OM 6034 OM OM1 6034 -0.550000 15.99940
6035 OM 6035 OM OM1 6035 -0.550000 15.99940
6036 OM 6036 OM OM1 6036 -0.550000 15.99940
6037 OM 6037 OM OM1 6037 -0.550000 15.99940
6038 OM 6038 OM OM1 6038 -0.550000 15.99940
6039 OM 6039 OM OM1 6039 -0.550000 15.99940
6040 OM 6040 OM OM1 6040 -0.550000 15.99940
6041 OM 6041 OM OM1 6041 -0.550000 15.99940
6042 OM 6042 OM OM1 6042 -0.550000 15.99940
6043 OM 6043 OM OM1 6043 -0.550000 15.99940
6044 OM 6044 OM OM1 6044 -0.550000 15.99940
6045 OM 6045 OM OM1 6045 -0.550000 15.99940
6046 OM 6046 OM OM1 6046 -0.550000 15.99940
6047 OM 6047 OM OM1 6047 -0.550000 15.99940
6048 OM 6048 OM OM1 6048 -0.550000 15.99940
6049 OM 6049 OM OM1 6049 -0.550000 15.99940
6050 OM 6050 OM OM1 6050 -0.550000 15.99940
6051 OM 6051 OM OM1 6051 -0.550000 15.99940
6052 OM 6052 OM OM1 6052 -0.550000 15.99940
6053 OM 6053 OM OM1 6053 -0.550000 15.99940
6054 OM 6054 OM OM1 6054 -0.550000 15.99940
6055 OM 6055 OM OM1 6055 -0.550000 15.99940
6056 OM 6056 OM OM1 6056 -0.550000 15.99940
6057 OM 6057 OM OM1 6057 -0.550000 15.99940
6058 OM 6058 OM OM1 6058 -0.550000 15.99940
6059 OM 6059 OM OM1 6059 -0.550000 15.99940
6060 OM 6060 OM OM1 6060 -0.550000 15.99940
6061 OM 6061 OM OM1 6061 -0.550000 15.99940
6062 OM 6062 OM OM1 6062 -0.550000 15.99940
6063 OM 6063 OM OM1 6063 -0.550000 15.99940
6064 OM 6064 OM OM1 6064 -0.550000 15.99940
6065 OM 6065 OM OM1 6065 -0.550000 15.99940
6066 OM 6066 OM OM1 6066 -0.550000 15.99940
6067 OM 6067 OM OM1 6067 -0.550000 15.99940
6068 OM 6068 OM OM1 6068 -0.550000 15.99940
6069 OM 6069 OM OM1 6069 -0.550000 15.99940
6070 OM 6070 OM OM1 6070 -0.550000 15.99940
6071 OM 6071 OM OM1 6071 -0.550000 15.99940
6072 OM 6072 OM OM1 6072 -0.550000 15.99940
6073 OM 6073 OM OM1 6073 -0.550000 15.99940
6074 OM 6074 OM OM1 6074 -0.550000 15.99940
6075 OM 6075 OM OM1 6075 -0.550000 15.99940
6076 OM 6076 OM OM1 6076 -0.550000 15.99940
6077 OM 6077 OM OM1 6077 -0.550000 15.99940
6078 OM 6078 OM OM1 6078 -0.550000 15.99940
6079 OM 6079 OM OM1 6079 -0.550000 15.99940
6080 OM 6080 OM OM1 6080 -0.550000 15.99940
6081 OM 6081 OM OM1 6081 -0.550000 15.99940
6082 OM 6082 OM OM1 6082 -0.550000 15.99940
6083 OM 6083 OM OM1 6083 -0.550000 15.99940
6084 OM 6084 OM OM1 6084 -0.550000 15.99940
6085 OM 6085 OM OM1 6085 -0.550000 15.99940
6086 OM 6086 OM OM1 6086 -0.550000 15.99940
6087 OM 6087 OM OM1 6087 -0.550000 15.99940
6088 OM 6088 OM OM1 6088 -0.550000 15.99940
6089 OM 6089 OM OM1 6089 -0.550000 15.99940
6090 OM 6090 OM OM1 6090 -0.550000 15.99940
6091 OM 6091 OM OM1 6091 -0.550000 15.99940
6092 OM 6092 OM OM1 6092 -0.550000 15.99940
6093 OM 6093 OM OM1 6093 -0.550000 15.99940
6094 OM 6094 OM OM1 6094 -0.550000 15.99940
6095 OM 6095 OM OM1 6095 -0.550000 15.99940
6096 OM 6096 OM OM1 6096 -0.550000 15.99940
6097 OM 6097 OM OM1 6097 -0.550000 15.99940
6098 OM 6098 OM OM1 6098 -0.550000 15.99940
6099 OM 6099 OM OM1 6099 -0.550000 15.99940
6100 OM 6100 OM OM1 6100 -0.550000 15.99940
6101 OM 6101 OM OM1 6101 -0.550000 15.99940
6102 OM 6102 OM OM1 6102 -0.550000 15.99940
6103 OM 6103 OM OM1 6103 -0.550000 15.99940
6104 OM 6104 OM OM1 6104 -0.550000 15.99940
6105 OM 6105 OM OM1 6105 -0.550000 15.99940
6106 OM 6106 OM OM1 6106 -0.550000 15.99940
6107 OM 6107 OM OM1 6107 -0.550000 15.99940
6108 OM 6108 OM OM1 6108 -0.550000 15.99940
6109 OM 6109 OM OM1 6109 -0.550000 15.99940
6110 OM 6110 OM OM1 6110 -0.550000 15.99940
6111 OM 6111 OM OM1 6111 -0.550000 15.99940
6112 OM 6112 OM OM1 6112 -0.550000 15.99940
6113 OM 6113 OM OM1 6113 -0.550000 15.99940
6114 OM 6114 OM OM1 6114 -0.550000 15.99940
6115 OM 6115 OM OM1 6115 -0.550000 15.99940
6116 OM 6116 OM OM1 6116 -0.550000 15.99940
6117 OM 6117 OM OM1 6117 -0.550000 15.99940
6118 OM 6118 OM OM1 6118 -0.550000 15.99940
6119 OM 6119 OM OM1 6119 -0.550000 15.99940
6120 OM 6120 OM OM1 6120 -0.550000 15.99940
6121 OM 6121 OM OM1 6121 -0.550000 15.99940
6122 OM 6122 OM OM1 6122 -0.550000 15.99940
6123 OM 6123 OM OM1 6123 -0.550000 15.99940
6124 OM 6124 OM OM1 6124 -0.550000 15.99940
6125 OM 6125 OM OM1 6125 -0.550000 15.99940
6126 OM 6126 OM OM1 6126 -0.550000 15.99940
6127 OM 6127 OM OM1 6127 -0.550000 15.99940
6128 OM 6128 OM OM1 6128 -0.550000 15.99940
6129 OM 6129 OM OM1 6129 -0.550000 15.99940
6130 OM 6130 OM OM1 6130 -0.550000 15.99940
6131 OM 6131 OM OM1 6131 -0.550000 15.99940
6132 OM 6132 OM OM1 6132 -0.550000 15.99940
6133 OM 6133 OM OM1 6133 -0.550000 15.99940
6134 OM 6134 OM OM1 6134 -0.550000 15.99940
6135 OM 6135 OM OM1 6135 -0.550000 15.99940
6136 OM 6136 OM OM1 6136 -0.550000 15.99940
6137 OM 6137 OM OM1 6137 -0.550000 15.99940
6138 OM 6138 OM OM1 6138 -0.550000 15.99940
6139 OM 6139 OM OM1 6139 -0.550000 15.99940
6140 OM 6140 OM OM1 6140 -0.550000 15.99940
6141 OM 6141 OM OM1 6141 -0.550000 15.99940
6142 OM 6142 OM OM1 6142 -0.550000 15.99940
6143 OM 6143 OM OM1 6143 -0.550000 15.99940
6144 OM 6144 OM OM1 6144 -0.550000 15.99940
6145 OM 6145 OM OM1 6145 -0.550000 15.99940
6146 OM 6146 OM OM1 6146 -0.550000 15.99940
6147 OM 6147 OM OM1 6147 -0.550000 15.99940
6148 OM 6148 OM OM1 6148 -0.550000 15.99940
6149 OM 6149 OM OM1 6149 -0.550000 15.99940
6150 OM 6150 OM OM1 6150 -0.550000 15.99940
6151 OM 6151 OM OM1 6151 -0.550000 15.99940
6152 OM 6152 OM OM1 6152 -0.550000 15.99940
6153 OM 6153 OM OM1 6153 -0.550000 15.99940
6154 OM 6154 OM OM1 6154 -0.550000 15.99940
6155 OM 6155 OM OM1 6155 -0.550000 15.99940
6156 OM 6156 OM OM1 6156 -0.550000 15.99940
6157 OM 6157 OM OM1 6157 -0.550000 15.99940
6158 OM 6158 OM OM1 6158 -0.550000 15.99940
6159 OM 6159 OM OM1 6159 -0.550000 15.99940
6160 OM 6160 OM OM1 6160 -0.550000 15.99940
6161 OM 6161 OM OM1 6161 -0.550000 15.99940
6162 OM 6162 OM OM1 6162 -0.550000 15.99940
6163 OM 6163 OM OM1 6163 -0.550000 15.99940
6164 OM 6164 OM OM1 6164 -0.550000 15.99940
6165 OM 6165 OM OM1 6165 -0.550000 15.99940
6166 OM 6166 OM OM1 6166 -0.550000 15.99940
6167 OM 6167 OM OM1 6167 -0.550000 15.99940
6168 OM 6168 OM OM1 6168 -0.550000 15.99940
6169 OM 6169 OM OM1 6169 -0.550000 15.99940
6170 OM 6170 OM OM1 6170 -0.550000 15.99940
6171 OM 6171 OM OM1 6171 -0.550000 15.99940
6172 OM 6172 OM OM1 6172 -0.550000 15.99940
6173 OM 6173 OM OM1 6173 -0.550000 15.99940
6174 OM 6174 OM OM1 6174 -0.550000 15.99940
6175 OM 6175 OM OM1 6175 -0.550000 15.99940
6176 OM 6176 OM OM1 6176 -0.550000 15.99940
6177 OM 6177 OM OM1 6177 -0.550000 15.99940
6178 OM 6178 OM OM1 6178 -0.550000 15.99940
6179 OM 6179 OM OM1 6179 -0.550000 15.99940
6180 OM 6180 OM OM1 6180 -0.550000 15.99940
6181 OM 6181 OM OM1 6181 -0.550000 15.99940
6182 OM 6182 OM OM1 6182 -0.550000 15.99940
6183 OM 6183 OM OM1 6183 -0.550000 15.99940
6184 OM 6184 OM OM1 6184 -0.550000 15.99940
6185 OM 6185 OM OM1 6185 -0.550000 15.99940
6186 OM 6186 OM OM1 6186 -0.550000 15.99940
6187 OM 6187 OM OM1 6187 -0.550000 15.99940
6188 OM 6188 OM OM1 6188 -0.550000 15.99940
6189 OM 6189 OM OM1 6189 -0.550000 15.99940
6190 OM 6190 OM OM1 6190 -0.550000 15.99940
6191 OM 6191 OM OM1 6191 -0.550000 15.99940
6192 OM 6192 OM OM1 6192 -0.550000 15.99940
6193 OM 6193 OM OM1 6193 -0.550000 15.99940
6194 OM 6194 OM OM1 6194 -0.550000 15.99940
6195 OM 6195 OM OM1 6195 -0.550000 15.99940
6196 OM 6196 OM OM1 6196 -0.550000 15.99940
6197 OM 6197 OM OM1 6197 -0.550000 15.99940
6198 OM 6198 OM OM1 6198 -0.550000 15.99940
6199 OM 6199 OM OM1 6199 -0.550000 15.99940
6200 OM 6200 OM OM1 6200 -0.550000 15.99940
6201 OM 6201 OM OM1 6201 -0.550000 15.99940
6202 OM 6202 OM OM1 6202 -0.550000 15.99940
6203 OM 6203 OM OM1 6203 -0.550000 15.99940
6204 OM 6204 OM OM1 6204 -0.550000 15.99940
6205 OM 6205 OM OM1 6205 -0.550000 15.99940
6206 OM 6206 OM OM1 6206 -0.550000 15.99940
6207 OM 6207 OM OM1 6207 -0.550000 15.99940
6208 OM 6208 OM OM1 6208 -0.550000 15.99940
6209 OM 6209 OM OM1 6209 -0.550000 15.99940
6210 OM 6210 OM OM1 6210 -0.550000 15.99940
6211 OM 6211 OM OM1 6211 -0.550000 15.99940
6212 OM 6212 OM OM1 6212 -0.550000 15.99940
6213 OM 6213 OM OM1 6213 -0.550000 15.99940
6214 OM 6214 OM OM1 6214 -0.550000 15.99940
6215 OM 6215 OM OM1 6215 -0.550000 15.99940
6216 OM 6216 OM OM1 6216 -0.550000 15.99940
6217 OM 6217 OM OM1 6217 -0.550000 15.99940
6218 OM 6218 OM OM1 6218 -0.550000 15.99940
6219 OM 6219 OM OM1 6219 -0.550000 15.99940
6220 OM 6220 OM OM1 6220 -0.550000 15.99940
6221 OM 6221 OM OM1 6221 -0.550000 15.99940
6222 OM 6222 OM OM1 6222 -0.550000 15.99940
6223 OM 6223 OM OM1 6223 -0.550000 15.99940
6224 OM 6224 OM OM1 6224 -0.550000 15.99940
6225 OM 6225 OM OM1 6225 -0.550000 15.99940
6226 OM 6226 OM OM1 6226 -0.550000 15.99940
6227 OM 6227 OM OM1 6227 -0.550000 15.99940
6228 OM 6228 OM OM1 6228 -0.550000 15.99940
6229 OM 6229 OM OM1 6229 -0.550000 15.99940
6230 OM 6230 OM OM1 6230 -0.550000 15.99940
6231 OM 6231 OM OM1 6231 -0.550000 15.99940
6232 OM 6232 OM OM1 6232 -0.550000 15.99940
6233 OM 6233 OM OM1 6233 -0.550000 15.99940
6234 OM 6234 OM OM1 6234 -0.550000 15.99940
6235 OM 6235 OM OM1 6235 -0.550000 15.99940
6236 OM 6236 OM OM1 6236 -0.550000 15.99940
6237 OM 6237 OM OM1 6237 -0.550000 15.99940
6238 OM 6238 OM OM1 6238 -0.550000 15.99940
6239 OM 6239 OM OM1 6239 -0.550000 15.99940
6240 OM 6240 OM OM1 6240 -0.550000 15.99940
6241 OM 6241 OM OM1 6241 -0.550000 15.99940
6242 OM 6242 OM OM1 6242 -0.550000 15.99940
6243 OM 6243 OM OM1 6243 -0.550000 15.99940
6244 OM 6244 OM OM1 6244 -0.550000 15.99940
6245 OM 6245 OM OM1 6245 -0.550000 15.99940
6246 OM 6246 OM OM1 6246 -0.550000 15.99940
6247 OM 6247 OM OM1 6247 -0.550000 15.99940
6248 OM 6248 OM OM1 6248 -0.550000 15.99940
6249 OM 6249 OM OM1 6249 -0.550000 15.99940
6250 OM 6250 OM OM1 6250 -0.550000 15.99940
6251 OM 6251 OM OM1 6251 -0.550000 15.99940
6252 OM 6252 OM OM1 6252 -0.550000 15.99940
6253 OM 6253 OM OM1 6253 -0.550000 15.99940
6254 OM 6254 OM OM1 6254 -0.550000 15.99940
6255 OM 6255 OM OM1 6255 -0.550000 15.99940
6256 OM 6256 OM OM1 6256 -0.550000 15.99940
6257 OM 6257 OM OM1 6257 -0.550000 15.99940
6258 OM 6258 OM OM1 6258 -0.550000 15.99940
6259 OM 6259 OM OM1 6259 -0.550000 15.99940
6260 OM 6260 OM OM1 6260 -0.550000 15.99940
6261 OM 6261 OM OM1 6261 -0.550000 15.99940
6262 OM 6262 OM OM1 6262 -0.550000 15.99940
6263 OM 6263 OM OM1 6263 -0.550000 15.99940
6264 OM 6264 OM OM1 6264 -0.550000 15.99940
6265 OM 6265 OM OM1 6265 -0.550000 15.99940
6266 OM 6266 OM OM1 6266 -0.550000 15.99940
6267 OM 6267 OM OM1 6267 -0.550000 15.99940
6268 OM 6268 OM OM1 6268 -0.550000 15.99940
6269 OM 6269 OM OM1 6269 -0.550000 15.99940
6270 OM 6270 OM OM1 6270 -0.550000 15.99940
6271 OM 6271 OM OM1 6271 -0.550000 15.99940
6272 OM 6272 OM OM1 6272 -0.550000 15.99940
6273 OM 6273 OM OM1 6273 -0.550000 15.99940
6274 OM 6274 OM OM1 6274 -0.550000 15.99940
6275 OM 6275 OM OM1 6275 -0.550000 15.99940
6276 OM 6276 OM OM1 6276 -0.550000 15.99940
6277 OM 6277 OM OM1 6277 -0.550000 15.99940
6278 OM 6278 OM OM1 6278 -0.550000 15.99940
6279 OM 6279 OM OM1 6279 -0.550000 15.99940
6280 OM 6280 OM OM1 6280 -0.550000 15.99940
6281 OM 6281 OM OM1 6281 -0.550000 15.99940
6282 OM 6282 OM OM1 6282 -0.550000 15.99940
6283 OM 6283 OM OM1 6283 -0.550000 15.99940
6284 OM 6284 OM OM1 6284 -0.550000 15.99940
6285 OM 6285 OM OM1 6285 -0.550000 15.99940
6286 OM 6286 OM OM1 6286 -0.550000 15.99940
6287 OM 6287 OM OM1 6287 -0.550000 15.99940
6288 OM 6288 OM OM1 6288 -0.550000 15.99940
6289 OM 6289 OM OM1 6289 -0.550000 15.99940
6290 OM 6290 OM OM1 6290 -0.550000 15.99940
6291 OM 6291 OM OM1 6291 -0.550000 15.99940
6292 OM 6292 OM OM1 6292 -0.550000 15.99940
6293 OM 6293 OM OM1 6293 -0.550000 15.99940
6294 OM 6294 OM OM1 6294 -0.550000 15.99940
6295 OM 6295 OM OM1 6295 -0.550000 15.99940
6296 OM 6296 OM OM1 6296 -0.550000 15.99940
6297 OM 6297 OM OM1 6297 -0.550000 15.99940
6298 OM 6298 OM OM1 6298 -0.550000 15.99940
6299 OM 6299 OM OM1 6299 -0.550000 15.99940
6300 OM 6300 OM OM1 6300 -0.550000 15.99940
6301 OM 6301 OM OM1 6301 -0.550000 15.99940
6302 OM 6302 OM OM1 6302 -0.550000 15.99940
6303 OM 6303 OM OM1 6303 -0.550000 15.99940
6304 OM 6304 OM OM1 6304 -0.550000 15.99940
6305 OM 6305 OM OM1 6305 -0.550000 15.99940
6306 OM 6306 OM OM1 6306 -0.550000 15.99940
6307 OM 6307 OM OM1 6307 -0.550000 15.99940
6308 OM 6308 OM OM1 6308 -0.550000 15.99940
6309 OM 6309 OM OM1 6309 -0.550000 15.99940
6310 OM 6310 OM OM1 6310 -0.550000 15.99940
6311 OM 6311 OM OM1 6311 -0.550000 15.99940
6312 OM 6312 OM OM1 6312 -0.550000 15.99940
6313 OM 6313 OM OM1 6313 -0.550000 15.99940
6314 OM 6314 OM OM1 6314 -0.550000 15.99940
6315 OM 6315 OM OM1 6315 -0.550000 15.99940
6316 OM 6316 OM OM1 6316 -0.550000 15.99940
6317 OM 6317 OM OM1 6317 -0.550000 15.99940
6318 OM 6318 OM OM1 6318 -0.550000 15.99940
6319 OM 6319 OM OM1 6319 -0.550000 15.99940
6320 OM 6320 OM OM1 6320 -0.550000 15.99940
6321 OM 6321 OM OM1 6321 -0.550000 15.99940
6322 OM 6322 OM OM1 6322 -0.550000 15.99940
6323 OM 6323 OM OM1 6323 -0.550000 15.99940
6324 OM 6324 OM OM1 6324 -0.550000 15.99940
6325 OM 6325 OM OM1 6325 -0.550000 15.99940
6326 OM 6326 OM OM1 6326 -0.550000 15.99940
6327 OM 6327 OM OM1 6327 -0.550000 15.99940
6328 OM 6328 OM OM1 6328 -0.550000 15.99940
6329 OM 6329 OM OM1 6329 -0.550000 15.99940
6330 OM 6330 OM OM1 6330 -0.550000 15.99940
6331 OM 6331 OM OM1 6331 -0.550000 15.99940
6332 OM 6332 OM OM1 6332 -0.550000 15.99940
6333 OM 6333 OM OM1 6333 -0.550000 15.99940
6334 OM 6334 OM OM1 6334 -0.550000 15.99940
6335 OM 6335 OM OM1 6335 -0.550000 15.99940
6336 OM 6336 OM OM1 6336 -0.550000 15.99940
6337 OM 6337 OM OM1 6337 -0.550000 15.99940
6338 OM 6338 OM OM1 6338 -0.550000 15.99940
6339 OM 6339 OM OM1 6339 -0.550000 15.99940
6340 OM 6340 OM OM1 6340 -0.550000 15.99940
6341 OM 6341 OM OM1 6341 -0.550000 15.99940
6342 OM 6342 OM OM1 6342 -0.550000 15.99940
6343 OM 6343 OM OM1 6343 -0.550000 15.99940
6344 OM 6344 OM OM1 6344 -0.550000 15.99940
6345 OM 6345 OM OM1 6345 -0.550000 15.99940
6346 OM 6346 OM OM1 6346 -0.550000 15.99940
6347 OM 6347 OM OM1 6347 -0.550000 15.99940
6348 OM 6348 OM OM1 6348 -0.550000 15.99940
6349 OM 6349 OM OM1 6349 -0.550000 15.99940
6350 OM 6350 OM OM1 6350 -0.550000 15.99940
6351 OM 6351 OM OM1 6351 -0.550000 15.99940
6352 OM 6352 OM OM1 6352 -0.550000 15.99940
6353 OM 6353 OM OM1 6353 -0.550000 15.99940
6354 OM 6354 OM OM1 6354 -0.550000 15.99940
6355 OM 6355 OM OM1 6355 -0.550000 15.99940
6356 OM 6356 OM OM1 6356 -0.550000 15.99940
6357 OM 6357 OM OM1 6357 -0.550000 15.99940
6358 OM 6358 OM OM1 6358 -0.550000 15.99940
6359 OM 6359 OM OM1 6359 -0.550000 15.99940
6360 OM 6360 OM OM1 6360 -0.550000 15.99940
6361 OM 6361 OM OM1 6361 -0.550000 15.99940
6362 OM 6362 OM OM1 6362 -0.550000 15.99940
6363 OM 6363 OM OM1 6363 -0.550000 15.99940
6364 OM 6364 OM OM1 6364 -0.550000 15.99940
6365 OM 6365 OM OM1 6365 -0.550000 15.99940
6366 OM 6366 OM OM1 6366 -0.550000 15.99940
6367 OM 6367 OM OM1 6367 -0.550000 15.99940
6368 OM 6368 OM OM1 6368 -0.550000 15.99940
6369 OM 6369 OM OM1 6369 -0.550000 15.99940
6370 OM 6370 OM OM1 6370 -0.550000 15.99940
6371 OM 6371 OM OM1 6371 -0.550000 15.99940
6372 OM 6372 OM OM1 6372 -0.550000 15.99940
6373 OM 6373 OM OM1 6373 -0.550000 15.99940
6374 OM 6374 OM OM1 6374 -0.550000 15.99940
6375 OM 6375 OM OM1 6375 -0.550000 15.99940
6376 OM 6376 OM OM1 6376 -0.550000 15.99940
6377 OM 6377 OM OM1 6377 -0.550000 15.99940
6378 OM 6378 OM OM1 6378 -0.550000 15.99940
6379 OM 6379 OM OM1 6379 -0.550000 15.99940
6380 OM 6380 OM OM1 6380 -0.550000 15.99940
6381 OM 6381 OM OM1 6381 -0.550000 15.99940
6382 OM 6382 OM OM1 6382 -0.550000 15.99940
6383 OM 6383 OM OM1 6383 -0.550000 15.99940
6384 OM 6384 OM OM1 6384 -0.550000 15.99940
6385 OM 6385 OM OM1 6385 -0.550000 15.99940
6386 OM 6386 OM OM1 6386 -0.550000 15.99940
6387 OM 6387 OM OM1 6387 -0.550000 15.99940
6388 OM 6388 OM OM1 6388 -0.550000 15.99940
6389 OM 6389 OM OM1 6389 -0.550000 15.99940
6390 OM 6390 OM OM1 6390 -0.550000 15.99940
6391 OM 6391 OM OM1 6391 -0.550000 15.99940
6392 OM 6392 OM OM1 6392 -0.550000 15.99940
6393 OM 6393 OM OM1 6393 -0.550000 15.99940
6394 OM 6394 OM OM1 6394 -0.550000 15.99940
6395 OM 6395 OM OM1 6395 -0.550000 15.99940
6396 OM 6396 OM OM1 6396 -0.550000 15.99940
6397 OM 6397 OM OM1 6397 -0.550000 15.99940
6398 OM 6398 OM OM1 6398 -0.550000 15.99940
6399 OM 6399 OM OM1 6399 -0.550000 15.99940
6400 OM 6400 OM OM1 6400 -0.550000 15.99940
6401 OM 6401 OM OM1 6401 -0.550000 15.99940
6402 OM 6402 OM OM1 6402 -0.550000 15.99940
6403 OM 6403 OM OM1 6403 -0.550000 15.99940
6404 OM 6404 OM OM1 6404 -0.550000 15.99940
6405 OM 6405 OM OM1 6405 -0.550000 15.99940
6406 OM 6406 OM OM1 6406 -0.550000 15.99940
6407 OM 6407 OM OM1 6407 -0.550000 15.99940
6408 OM 6408 OM OM1 6408 -0.550000 15.99940
6409 OM 6409 OM OM1 6409 -0.550000 15.99940
6410 OM 6410 OM OM1 6410 -0.550000 15.99940
6411 OM 6411 OM OM1 6411 -0.550000 15.99940
6412 OM 6412 OM OM1 6412 -0.550000 15.99940
6413 OM 6413 OM OM1 6413 -0.550000 15.99940
6414 OM 6414 OM OM1 6414 -0.550000 15.99940
6415 OM 6415 OM OM1 6415 -0.550000 15.99940
6416 OM 6416 OM OM1 6416 -0.550000 15.99940
6417 OM 6417 OM OM1 6417 -0.550000 15.99940
6418 OM 6418 OM OM1 6418 -0.550000 15.99940
6419 OM 6419 OM OM1 6419 -0.550000 15.99940
6420 OM 6420 OM OM1 6420 -0.550000 15.99940
6421 OM 6421 OM OM1 6421 -0.550000 15.99940
6422 OM 6422 OM OM1 6422 -0.550000 15.99940
6423 OM 6423 OM OM1 6423 -0.550000 15.99940
6424 OM 6424 OM OM1 6424 -0.550000 15.99940
6425 OM 6425 OM OM1 6425 -0.550000 15.99940
6426 OM 6426 OM OM1 6426 -0.550000 15.99940
6427 OM 6427 OM OM1 6427 -0.550000 15.99940
6428 OM 6428 OM OM1 6428 -0.550000 15.99940
6429 OM 6429 OM OM1 6429 -0.550000 15.99940
6430 OM 6430 OM OM1 6430 -0.550000 15.99940
6431 OM 6431 OM OM1 6431 -0.550000 15.99940
6432 OM 6432 OM OM1 6432 -0.550000 15.99940
6433 OM 6433 OM OM1 6433 -0.550000 15.99940
6434 OM 6434 OM OM1 6434 -0.550000 15.99940
6435 OM 6435 OM OM1 6435 -0.550000 15.99940
6436 OM 6436 OM OM1 6436 -0.550000 15.99940
6437 OM 6437 OM OM1 6437 -0.550000 15.99940
6438 OM 6438 OM OM1 6438 -0.550000 15.99940
6439 OM 6439 OM OM1 6439 -0.550000 15.99940
6440 OM 6440 OM OM1 6440 -0.550000 15.99940
6441 OM 6441 OM OM1 6441 -0.550000 15.99940
6442 OM 6442 OM OM1 6442 -0.550000 15.99940
6443 OM 6443 OM OM1 6443 -0.550000 15.99940
6444 OM 6444 OM OM1 6444 -0.550000 15.99940
6445 OM 6445 OM OM1 6445 -0.550000 15.99940
6446 OM 6446 OM OM1 6446 -0.550000 15.99940
6447 OM 6447 OM OM1 6447 -0.550000 15.99940
6448 OM 6448 OM OM1 6448 -0.550000 15.99940
6449 OM 6449 OM OM1 6449 -0.550000 15.99940
6450 OM 6450 OM OM1 6450 -0.550000 15.99940
6451 OM 6451 OM OM1 6451 -0.550000 15.99940
6452 OM 6452 OM OM1 6452 -0.550000 15.99940
6453 OM 6453 OM OM1 6453 -0.550000 15.99940
6454 OM 6454 OM OM1 6454 -0.550000 15.99940
6455 OM 6455 OM OM1 6455 -0.550000 15.99940
6456 OM 6456 OM OM1 6456 -0.550000 15.99940
6457 OM 6457 OM OM1 6457 -0.550000 15.99940
6458 OM 6458 OM OM1 6458 -0.550000 15.99940
6459 OM 6459 OM OM1 6459 -0.550000 15.99940
6460 OM 6460 OM OM1 6460 -0.550000 15.99940
6461 OM 6461 OM OM1 6461 -0.550000 15.99940
6462 OM 6462 OM OM1 6462 -0.550000 15.99940
6463 OM 6463 OM OM1 6463 -0.550000 15.99940
6464 OM 6464 OM OM1 6464 -0.550000 15.99940
6465 OM 6465 OM OM1 6465 -0.550000 15.99940
6466 OM 6466 OM OM1 6466 -0.550000 15.99940
6467 OM 6467 OM OM1 6467 -0.550000 15.99940
6468 OM 6468 OM OM1 6468 -0.550000 15.99940
6469 OM 6469 OM OM1 6469 -0.550000 15.99940
6470 OM 6470 OM OM1 6470 -0.550000 15.99940
6471 OM 6471 OM OM1 6471 -0.550000 15.99940
6472 OM 6472 OM OM1 6472 -0.550000 15.99940
6473 OM 6473 OM OM1 6473 -0.550000 15.99940
6474 OM 6474 OM OM1 6474 -0.550000 15.99940
6475 OM 6475 OM OM1 6475 -0.550000 15.99940
6476 OM 6476 OM OM1 6476 -0.550000 15.99940
6477 OM 6477 OM OM1 6477 -0.550000 15.99940
6478 OM 6478 OM OM1 6478 -0.550000 15.99940
6479 OM 6479 OM OM1 6479 -0.550000 15.99940
6480 OM 6480 OM OM1 6480 -0.550000 15.99940
6481 OM 6481 OM OM1 6481 -0.550000 15.99940
6482 OM 6482 OM OM1 6482 -0.550000 15.99940
6483 OM 6483 OM OM1 6483 -0.550000 15.99940
6484 OM 6484 OM OM1 6484 -0.550000 15.99940
6485 OM 6485 OM OM1 6485 -0.550000 15.99940
6486 OM 6486 OM OM1 6486 -0.550000 15.99940
6487 OM 6487 OM OM1 6487 -0.550000 15.99940
6488 OM 6488 OM OM1 6488 -0.550000 15.99940
6489 OM 6489 OM OM1 6489 -0.550000 15.99940
6490 OM 6490 OM OM1 6490 -0.550000 15.99940
6491 OM 6491 OM OM1 6491 -0.550000 15.99940
6492 OM 6492 OM OM1 6492 -0.550000 15.99940
6493 OM 6493 OM OM1 6493 -0.550000 15.99940
6494 OM 6494 OM OM1 6494 -0.550000 15.99940
6495 OM 6495 OM OM1 6495 -0.550000 15.99940
6496 OM 6496 OM OM1 6496 -0.550000 15.99940
6497 OM 6497 OM OM1 6497 -0.550000 15.99940
6498 OM 6498 OM OM1 6498 -0.550000 15.99940
6499 OM 6499 OM OM1 6499 -0.550000 15.99940
6500 OM 6500 OM OM1 6500 -0.550000 15.99940
6501 OM 6501 OM OM1 6501 -0.550000 15.99940
6502 OM 6502 OM OM1 6502 -0.550000 15.99940
6503 OM 6503 OM OM1 6503 -0.550000 15.99940
6504 OM 6504 OM OM1 6504 -0.550000 15.99940
6505 OM 6505 OM OM1 6505 -0.550000 15.99940
6506 OM 6506 OM OM1 6506 -0.550000 15.99940
6507 OM 6507 OM OM1 6507 -0.550000 15.99940
6508 OM 6508 OM OM1 6508 -0.550000 15.99940
6509 OM 6509 OM OM1 6509 -0.550000 15.99940
6510 OM 6510 OM OM1 6510 -0.550000 15.99940
6511 OM 6511 OM OM1 6511 -0.550000 15.99940
6512 OM 6512 OM OM1 6512 -0.550000 15.99940
6513 OM 6513 OM OM1 6513 -0.550000 15.99940
6514 OM 6514 OM OM1 6514 -0.550000 15.99940
6515 OM 6515 OM OM1 6515 -0.550000 15.99940
6516 OM 6516 OM OM1 6516 -0.550000 15.99940
6517 OM 6517 OM OM1 6517 -0.550000 15.99940
6518 OM 6518 OM OM1 6518 -0.550000 15.99940
6519 OM 6519 OM OM1 6519 -0.550000 15.99940
6520 OM 6520 OM OM1 6520 -0.550000 15.99940
6521 OM 6521 OM OM1 6521 -0.550000 15.99940
6522 OM 6522 OM OM1 6522 -0.550000 15.99940
6523 OM 6523 OM OM1 6523 -0.550000 15.99940
6524 OM 6524 OM OM1 6524 -0.550000 15.99940
6525 OM 6525 OM OM1 6525 -0.550000 15.99940
6526 OM 6526 OM OM1 6526 -0.550000 15.99940
6527 OM 6527 OM OM1 6527 -0.550000 15.99940
6528 OM 6528 OM OM1 6528 -0.550000 15.99940
6529 OM 6529 OM OM1 6529 -0.550000 15.99940
6530 OM 6530 OM OM1 6530 -0.550000 15.99940
6531 OM 6531 OM OM1 6531 -0.550000 15.99940
6532 OM 6532 OM OM1 6532 -0.550000 15.99940
6533 OM 6533 OM OM1 6533 -0.550000 15.99940
6534 OM 6534 OM OM1 6534 -0.550000 15.99940
6535 OM 6535 OM OM1 6535 -0.550000 15.99940
6536 OM 6536 OM OM1 6536 -0.550000 15.99940
6537 OM 6537 OM OM1 6537 -0.550000 15.99940
6538 OM 6538 OM OM1 6538 -0.550000 15.99940
6539 OM 6539 OM OM1 6539 -0.550000 15.99940
6540 OM 6540 OM OM1 6540 -0.550000 15.99940
6541 OM 6541 OM OM1 6541 -0.550000 15.99940
6542 OM 6542 OM OM1 6542 -0.550000 15.99940
6543 OM 6543 OM OM1 6543 -0.550000 15.99940
6544 OM 6544 OM OM1 6544 -0.550000 15.99940
6545 OM 6545 OM OM1 6545 -0.550000 15.99940
6546 OM 6546 OM OM1 6546 -0.550000 15.99940
6547 OM 6547 OM OM1 6547 -0.550000 15.99940
6548 OM 6548 OM OM1 6548 -0.550000 15.99940
6549 OM 6549 OM OM1 6549 -0.550000 15.99940
6550 OM 6550 OM OM1 6550 -0.550000 15.99940
6551 OM 6551 OM OM1 6551 -0.550000 15.99940
6552 OM 6552 OM OM1 6552 -0.550000 15.99940
6553 OM 6553 OM OM1 6553 -0.550000 15.99940
6554 OM 6554 OM OM1 6554 -0.550000 15.99940
6555 OM 6555 OM OM1 6555 -0.550000 15.99940
6556 OM 6556 OM OM1 6556 -0.550000 15.99940
6557 OM 6557 OM OM1 6557 -0.550000 15.99940
6558 OM 6558 OM OM1 6558 -0.550000 15.99940
6559 OM 6559 OM OM1 6559 -0.550000 15.99940
6560 OM 6560 OM OM1 6560 -0.550000 15.99940
6561 OM 6561 OM OM1 6561 -0.550000 15.99940
6562 OM 6562 OM OM1 6562 -0.550000 15.99940
6563 OM 6563 OM OM1 6563 -0.550000 15.99940
6564 OM 6564 OM OM1 6564 -0.550000 15.99940
6565 OM 6565 OM OM1 6565 -0.550000 15.99940
6566 OM 6566 OM OM1 6566 -0.550000 15.99940
6567 OM 6567 OM OM1 6567 -0.550000 15.99940
6568 OM 6568 OM OM1 6568 -0.550000 15.99940
6569 OM 6569 OM OM1 6569 -0.550000 15.99940
6570 OM 6570 OM OM1 6570 -0.550000 15.99940
6571 OM 6571 OM OM1 6571 -0.550000 15.99940
6572 OM 6572 OM OM1 6572 -0.550000 15.99940
6573 OM 6573 OM OM1 6573 -0.550000 15.99940
6574 OM 6574 OM OM1 6574 -0.550000 15.99940
6575 OM 6575 OM OM1 6575 -0.550000 15.99940
6576 OM 6576 OM OM1 6576 -0.550000 15.99940
6577 OM 6577 OM OM1 6577 -0.550000 15.99940
6578 OM 6578 OM OM1 6578 -0.550000 15.99940
6579 OM 6579 OM OM1 6579 -0.550000 15.99940
6580 OM 6580 OM OM1 6580 -0.550000 15.99940
6581 OM 6581 OM OM1 6581 -0.550000 15.99940
6582 OM 6582 OM OM1 6582 -0.550000 15.99940
6583 OM 6583 OM OM1 6583 -0.550000 15.99940
6584 OM 6584 OM OM1 6584 -0.550000 15.99940
6585 OM 6585 OM OM1 6585 -0.550000 15.99940
6586 OM 6586 OM OM1 6586 -0.550000 15.99940
6587 OM 6587 OM OM1 6587 -0.550000 15.99940
6588 OM 6588 OM OM1 6588 -0.550000 15.99940
6589 OM 6589 OM OM1 6589 -0.550000 15.99940
6590 OM 6590 OM OM1 6590 -0.550000 15.99940
6591 OM 6591 OM OM1 6591 -0.550000 15.99940
6592 OM 6592 OM OM1 6592 -0.550000 15.99940
6593 OM 6593 OM OM1 6593 -0.550000 15.99940
6594 OM 6594 OM OM1 6594 -0.550000 15.99940
6595 OM 6595 OM OM1 6595 -0.550000 15.99940
6596 OM 6596 OM OM1 6596 -0.550000 15.99940
6597 OM 6597 OM OM1 6597 -0.550000 15.99940
6598 OM 6598 OM OM1 6598 -0.550000 15.99940
6599 OM 6599 OM OM1 6599 -0.550000 15.99940
6600 OM 6600 OM OM1 6600 -0.550000 15.99940
6601 OM 6601 OM OM1 6601 -0.550000 15.99940
6602 OM 6602 OM OM1 6602 -0.550000 15.99940
6603 OM 6603 OM OM1 6603 -0.550000 15.99940
6604 OM 6604 OM OM1 6604 -0.550000 15.99940
6605 OM 6605 OM OM1 6605 -0.550000 15.99940
6606 OM 6606 OM OM1 6606 -0.550000 15.99940
6607 OM 6607 OM OM1 6607 -0.550000 15.99940
6608 OM 6608 OM OM1 6608 -0.550000 15.99940
6609 OM 6609 OM OM1 6609 -0.550000 15.99940
6610 OM 6610 OM OM1 6610 -0.550000 15.99940
6611 OM 6611 OM OM1 6611 -0.550000 15.99940
6612 OM 6612 OM OM1 6612 -0.550000 15.99940
6613 OM 6613 OM OM1 6613 -0.550000 15.99940
6614 OM 6614 OM OM1 6614 -0.550000 15.99940
6615 OM 6615 OM OM1 6615 -0.550000 15.99940
6616 OM 6616 OM OM1 6616 -0.550000 15.99940
6617 OM 6617 OM OM1 6617 -0.550000 15.99940
6618 OM 6618 OM OM1 6618 -0.550000 15.99940
6619 OM 6619 OM OM1 6619 -0.550000 15.99940
6620 OM 6620 OM OM1 6620 -0.550000 15.99940
6621 OM 6621 OM OM1 6621 -0.550000 15.99940
6622 OM 6622 OM OM1 6622 -0.550000 15.99940
6623 OM 6623 OM OM1 6623 -0.550000 15.99940
6624 OM 6624 OM OM1 6624 -0.550000 15.99940
6625 OM 6625 OM OM1 6625 -0.550000 15.99940
6626 OM 6626 OM OM1 6626 -0.550000 15.99940
6627 OM 6627 OM OM1 6627 -0.550000 15.99940
6628 OM 6628 OM OM1 6628 -0.550000 15.99940
6629 OM 6629 OM OM1 6629 -0.550000 15.99940
6630 OM 6630 OM OM1 6630 -0.550000 15.99940
6631 OM 6631 OM OM1 6631 -0.550000 15.99940
6632 OM 6632 OM OM1 6632 -0.550000 15.99940
6633 OM 6633 OM OM1 6633 -0.550000 15.99940
6634 OM 6634 OM OM1 6634 -0.550000 15.99940
6635 OM 6635 OM OM1 6635 -0.550000 15.99940
6636 OM 6636 OM OM1 6636 -0.550000 15.99940
6637 OM 6637 OM OM1 6637 -0.550000 15.99940
6638 OM 6638 OM OM1 6638 -0.550000 15.99940
6639 OM 6639 OM OM1 6639 -0.550000 15.99940
6640 OM 6640 OM OM1 6640 -0.550000 15.99940
6641 OM 6641 OM OM1 6641 -0.550000 15.99940
6642 OM 6642 OM OM1 6642 -0.550000 15.99940
6643 OM 6643 OM OM1 6643 -0.550000 15.99940
6644 OM 6644 OM OM1 6644 -0.550000 15.99940
6645 OM 6645 OM OM1 6645 -0.550000 15.99940
6646 OM 6646 OM OM1 6646 -0.550000 15.99940
6647 OM 6647 OM OM1 6647 -0.550000 15.99940
6648 OM 6648 OM OM1 6648 -0.550000 15.99940
6649 OM 6649 OM OM1 6649 -0.550000 15.99940
6650 OM 6650 OM OM1 6650 -0.550000 15.99940
6651 OM 6651 OM OM1 6651 -0.550000 15.99940
6652 OM 6652 OM OM1 6652 -0.550000 15.99940
6653 OM 6653 OM OM1 6653 -0.550000 15.99940
6654 OM 6654 OM OM1 6654 -0.550000 15.99940
6655 OM 6655 OM OM1 6655 -0.550000 15.99940
6656 OM 6656 OM OM1 6656 -0.550000 15.99940
6657 OM 6657 OM OM1 6657 -0.550000 15.99940
6658 OM 6658 OM OM1 6658 -0.550000 15.99940
6659 OM 6659 OM OM1 6659 -0.550000 15.99940
6660 OM 6660 OM OM1 6660 -0.550000 15.99940
6661 OM 6661 OM OM1 6661 -0.550000 15.99940
6662 OM 6662 OM OM1 6662 -0.550000 15.99940
6663 OM 6663 OM OM1 6663 -0.550000 15.99940
6664 OM 6664 OM OM1 6664 -0.550000 15.99940
6665 OM 6665 OM OM1 6665 -0.550000 15.99940
6666 OM 6666 OM OM1 6666 -0.550000 15.99940
6667 OM 6667 OM OM1 6667 -0.550000 15.99940
6668 OM 6668 OM OM1 6668 -0.550000 15.99940
6669 OM 6669 OM OM1 6669 -0.550000 15.99940
6670 OM 6670 OM OM1 6670 -0.550000 15.99940
6671 OM 6671 OM OM1 6671 -0.550000 15.99940
6672 OM 6672 OM OM1 6672 -0.550000 15.99940
6673 OM 6673 OM OM1 6673 -0.550000 15.99940
6674 OM 6674 OM OM1 6674 -0.550000 15.99940
6675 OM 6675 OM OM1 6675 -0.550000 15.99940
6676 OM 6676 OM OM1 6676 -0.550000 15.99940
6677 OM 6677 OM OM1 6677 -0.550000 15.99940
6678 OM 6678 OM OM1 6678 -0.550000 15.99940
6679 OM 6679 OM OM1 6679 -0.550000 15.99940
6680 OM 6680 OM OM1 6680 -0.550000 15.99940
6681 OM 6681 OM OM1 6681 -0.550000 15.99940
6682 OM 6682 OM OM1 6682 -0.550000 15.99940
6683 OM 6683 OM OM1 6683 -0.550000 15.99940
6684 OM 6684 OM OM1 6684 -0.550000 15.99940
6685 OM 6685 OM OM1 6685 -0.550000 15.99940
6686 OM 6686 OM OM1 6686 -0.550000 15.99940
6687 OM 6687 OM OM1 6687 -0.550000 15.99940
6688 OM 6688 OM OM1 6688 -0.550000 15.99940
6689 OM 6689 OM OM1 6689 -0.550000 15.99940
6690 OM 6690 OM OM1 6690 -0.550000 15.99940
6691 OM 6691 OM OM1 6691 -0.550000 15.99940
6692 OM 6692 OM OM1 6692 -0.550000 15.99940
6693 OM 6693 OM OM1 6693 -0.550000 15.99940
6694 OM 6694 OM OM1 6694 -0.550000 15.99940
6695 OM 6695 OM OM1 6695 -0.550000 15.99940
6696 OM 6696 OM OM1 6696 -0.550000 15.99940
6697 OM 6697 OM OM1 6697 -0.550000 15.99940
6698 OM 6698 OM OM1 6698 -0.550000 15.99940
6699 OM 6699 OM OM1 6699 -0.550000 15.99940
6700 OM 6700 OM OM1 6700 -0.550000 15.99940
6701 OM 6701 OM OM1 6701 -0.550000 15.99940
6702 OM 6702 OM OM1 6702 -0.550000 15.99940
6703 OM 6703 OM OM1 6703 -0.550000 15.99940
6704 OM 6704 OM OM1 6704 -0.550000 15.99940
6705 OM 6705 OM OM1 6705 -0.550000 15.99940
6706 OM 6706 OM OM1 6706 -0.550000 15.99940
6707 OM 6707 OM OM1 6707 -0.550000 15.99940
6708 OM 6708 OM OM1 6708 -0.550000 15.99940
6709 OM 6709 OM OM1 6709 -0.550000 15.99940
6710 OM 6710 OM OM1 6710 -0.550000 15.99940
6711 OM 6711 OM OM1 6711 -0.550000 15.99940
6712 OM 6712 OM OM1 6712 -0.550000 15.99940
6713 OM 6713 OM OM1 6713 -0.550000 15.99940
6714 OM 6714 OM OM1 6714 -0.550000 15.99940
6715 OM 6715 OM OM1 6715 -0.550000 15.99940
6716 OM 6716 OM OM1 6716 -0.550000 15.99940
6717 OM 6717 OM OM1 6717 -0.550000 15.99940
6718 OM 6718 OM OM1 6718 -0.550000 15.99940
6719 OM 6719 OM OM1 6719 -0.550000 15.99940
6720 OM 6720 OM OM1 6720 -0.550000 15.99940
6721 OM 6721 OM OM1 6721 -0.550000 15.99940
6722 OM 6722 OM OM1 6722 -0.550000 15.99940
6723 OM 6723 OM OM1 6723 -0.550000 15.99940
6724 OM 6724 OM OM1 6724 -0.550000 15.99940
6725 OM 6725 OM OM1 6725 -0.550000 15.99940
6726 OM 6726 OM OM1 6726 -0.550000 15.99940
6727 OM 6727 OM OM1 6727 -0.550000 15.99940
6728 OM 6728 OM OM1 6728 -0.550000 15.99940
6729 OM 6729 OM OM1 6729 -0.550000 15.99940
6730 OM 6730 OM OM1 6730 -0.550000 15.99940
6731 OM 6731 OM OM1 6731 -0.550000 15.99940
6732 OM 6732 OM OM1 6732 -0.550000 15.99940
6733 OM 6733 OM OM1 6733 -0.550000 15.99940
6734 OM 6734 OM OM1 6734 -0.550000 15.99940
6735 OM 6735 OM OM1 6735 -0.550000 15.99940
6736 OM 6736 OM OM1 6736 -0.550000 15.99940
6737 OM 6737 OM OM1 6737 -0.550000 15.99940
6738 OM 6738 OM OM1 6738 -0.550000 15.99940
6739 OM 6739 OM OM1 6739 -0.550000 15.99940
6740 OM 6740 OM OM1 6740 -0.550000 15.99940
6741 OM 6741 OM OM1 6741 -0.550000 15.99940
6742 OM 6742 OM OM1 6742 -0.550000 15.99940
6743 OM 6743 OM OM1 6743 -0.550000 15.99940
6744 OM 6744 OM OM1 6744 -0.550000 15.99940
6745 OM 6745 OM OM1 6745 -0.550000 15.99940
6746 OM 6746 OM OM1 6746 -0.550000 15.99940
6747 OM 6747 OM OM1 6747 -0.550000 15.99940
6748 OM 6748 OM OM1 6748 -0.550000 15.99940
6749 OM 6749 OM OM1 6749 -0.550000 15.99940
6750 OM 6750 OM OM1 6750 -0.550000 15.99940
6751 OM 6751 OM OM1 6751 -0.550000 15.99940
6752 OM 6752 OM OM1 6752 -0.550000 15.99940
6753 OM 6753 OM OM1 6753 -0.550000 15.99940
6754 OM 6754 OM OM1 6754 -0.550000 15.99940
6755 OM 6755 OM OM1 6755 -0.550000 15.99940
6756 OM 6756 OM OM1 6756 -0.550000 15.99940
6757 OM 6757 OM OM1 6757 -0.550000 15.99940
6758 OM 6758 OM OM1 6758 -0.550000 15.99940
6759 OM 6759 OM OM1 6759 -0.550000 15.99940
6760 OM 6760 OM OM1 6760 -0.550000 15.99940
6761 OM 6761 OM OM1 6761 -0.550000 15.99940
6762 OM 6762 OM OM1 6762 -0.550000 15.99940
6763 OM 6763 OM OM1 6763 -0.550000 15.99940
6764 OM 6764 OM OM1 6764 -0.550000 15.99940
6765 OM 6765 OM OM1 6765 -0.550000 15.99940
6766 OM 6766 OM OM1 6766 -0.550000 15.99940
6767 OM 6767 OM OM1 6767 -0.550000 15.99940
6768 OM 6768 OM OM1 6768 -0.550000 15.99940
6769 OM 6769 OM OM1 6769 -0.550000 15.99940
6770 OM 6770 OM OM1 6770 -0.550000 15.99940
6771 OM 6771 OM OM1 6771 -0.550000 15.99940
6772 OM 6772 OM OM1 6772 -0.550000 15.99940
6773 OM 6773 OM OM1 6773 -0.550000 15.99940
6774 OM 6774 OM OM1 6774 -0.550000 15.99940
6775 OM 6775 OM OM1 6775 -0.550000 15.99940
6776 OM 6776 OM OM1 6776 -0.550000 15.99940
6777 OM 6777 OM OM1 6777 -0.550000 15.99940
6778 OM 6778 OM OM1 6778 -0.550000 15.99940
6779 OM 6779 OM OM1 6779 -0.550000 15.99940
6780 OM 6780 OM OM1 6780 -0.550000 15.99940
6781 OM 6781 OM OM1 6781 -0.550000 15.99940
6782 OM 6782 OM OM1 6782 -0.550000 15.99940
6783 OM 6783 OM OM1 6783 -0.550000 15.99940
6784 OM 6784 OM OM1 6784 -0.550000 15.99940
6785 OM 6785 OM OM1 6785 -0.550000 15.99940
6786 OM 6786 OM OM1 6786 -0.550000 15.99940
6787 OM 6787 OM OM1 6787 -0.550000 15.99940
6788 OM 6788 OM OM1 6788 -0.550000 15.99940
6789 OM 6789 OM OM1 6789 -0.550000 15.99940
6790 OM 6790 OM OM1 6790 -0.550000 15.99940
6791 OM 6791 OM OM1 6791 -0.550000 15.99940
6792 OM 6792 OM OM1 6792 -0.550000 15.99940
6793 OM 6793 OM OM1 6793 -0.550000 15.99940
6794 OM 6794 OM OM1 6794 -0.550000 15.99940
6795 OM 6795 OM OM1 6795 -0.550000 15.99940
6796 OM 6796 OM OM1 6796 -0.550000 15.99940
6797 OM 6797 OM OM1 6797 -0.550000 15.99940
6798 OM 6798 OM OM1 6798 -0.550000 15.99940
6799 OM 6799 OM OM1 6799 -0.550000 15.99940
6800 OM 6800 OM OM1 6800 -0.550000 15.99940
6801 OM 6801 OM OM1 6801 -0.550000 15.99940
6802 OM 6802 OM OM1 6802 -0.550000 15.99940
6803 OM 6803 OM OM1 6803 -0.550000 15.99940
6804 OM 6804 OM OM1 6804 -0.550000 15.99940
6805 OM 6805 OM OM1 6805 -0.550000 15.99940
6806 OM 6806 OM OM1 6806 -0.550000 15.99940
6807 OM 6807 OM OM1 6807 -0.550000 15.99940
6808 OM 6808 OM OM1 6808 -0.550000 15.99940
6809 OM 6809 OM OM1 6809 -0.550000 15.99940
6810 OM 6810 OM OM1 6810 -0.550000 15.99940
6811 OM 6811 OM OM1 6811 -0.550000 15.99940
6812 OM 6812 OM OM1 6812 -0.550000 15.99940
6813 OM 6813 OM OM1 6813 -0.550000 15.99940
6814 OM 6814 OM OM1 6814 -0.550000 15.99940
6815 OM 6815 OM OM1 6815 -0.550000 15.99940
6816 OM 6816 OM OM1 6816 -0.550000 15.99940
6817 OM 6817 OM OM1 6817 -0.550000 15.99940
6818 OM 6818 OM OM1 6818 -0.550000 15.99940
6819 OM 6819 OM OM1 6819 -0.550000 15.99940
6820 OM 6820 OM OM1 6820 -0.550000 15.99940
6821 OM 6821 OM OM1 6821 -0.550000 15.99940
6822 OM 6822 OM OM1 6822 -0.550000 15.99940
6823 OM 6823 OM OM1 6823 -0.550000 15.99940
6824 OM 6824 OM OM1 6824 -0.550000 15.99940
6825 OM 6825 OM OM1 6825 -0.550000 15.99940
6826 OM 6826 OM OM1 6826 -0.550000 15.99940
6827 OM 6827 OM OM1 6827 -0.550000 15.99940
6828 OM 6828 OM OM1 6828 -0.550000 15.99940
6829 OM 6829 OM OM1 6829 -0.550000 15.99940
6830 OM 6830 OM OM1 6830 -0.550000 15.99940
6831 OM 6831 OM OM1 6831 -0.550000 15.99940
6832 OM 6832 OM OM1 6832 -0.550000 15.99940
6833 OM 6833 OM OM1 6833 -0.550000 15.99940
6834 OM 6834 OM OM1 6834 -0.550000 15.99940
6835 OM 6835 OM OM1 6835 -0.550000 15.99940
6836 OM 6836 OM OM1 6836 -0.550000 15.99940
6837 OM 6837 OM OM1 6837 -0.550000 15.99940
6838 OM 6838 OM OM1 6838 -0.550000 15.99940
6839 OM 6839 OM OM1 6839 -0.550000 15.99940
6840 OM 6840 OM OM1 6840 -0.550000 15.99940
6841 OM 6841 OM OM1 6841 -0.550000 15.99940
6842 OM 6842 OM OM1 6842 -0.550000 15.99940
6843 OM 6843 OM OM1 6843 -0.550000 15.99940
6844 OM 6844 OM OM1 6844 -0.550000 15.99940
6845 OM 6845 OM OM1 6845 -0.550000 15.99940
6846 OM 6846 OM OM1 6846 -0.550000 15.99940
6847 OM 6847 OM OM1 6847 -0.550000 15.99940
6848 OM 6848 OM OM1 6848 -0.550000 15.99940
6849 OM 6849 OM OM1 6849 -0.550000 15.99940
6850 OM 6850 OM OM1 6850 -0.550000 15.99940
6851 OM 6851 OM OM1 6851 -0.550000 15.99940
6852 OM 6852 OM OM1 6852 -0.550000 15.99940
6853 OM 6853 OM OM1 6853 -0.550000 15.99940
6854 OM 6854 OM OM1 6854 -0.550000 15.99940
6855 OM 6855 OM OM1 6855 -0.550000 15.99940
6856 OM 6856 OM OM1 6856 -0.550000 15.99940
6857 OM 6857 OM OM1 6857 -0.550000 15.99940
6858 OM 6858 OM OM1 6858 -0.550000 15.99940
6859 OM 6859 OM OM1 6859 -0.550000 15.99940
6860 OM 6860 OM OM1 6860 -0.550000 15.99940
6861 OM 6861 OM OM1 6861 -0.550000 15.99940
6862 OM 6862 OM OM1 6862 -0.550000 15.99940
6863 OM 6863 OM OM1 6863 -0.550000 15.99940
6864 OM 6864 OM OM1 6864 -0.550000 15.99940
6865 OM 6865 OM OM1 6865 -0.550000 15.99940
6866 OM 6866 OM OM1 6866 -0.550000 15.99940
6867 OM 6867 OM OM1 6867 -0.550000 15.99940
6868 OM 6868 OM OM1 6868 -0.550000 15.99940
6869 OM 6869 OM OM1 6869 -0.550000 15.99940
6870 OM 6870 OM OM1 6870 -0.550000 15.99940
6871 OM 6871 OM OM1 6871 -0.550000 15.99940
6872 OM 6872 OM OM1 6872 -0.550000 15.99940
6873 OM 6873 OM OM1 6873 -0.550000 15.99940
6874 OM 6874 OM OM1 6874 -0.550000 15.99940
6875 OM 6875 OM OM1 6875 -0.550000 15.99940
6876 OM 6876 OM OM1 6876 -0.550000 15.99940
6877 OM 6877 OM OM1 6877 -0.550000 15.99940
6878 OM 6878 OM OM1 6878 -0.550000 15.99940
6879 OM 6879 OM OM1 6879 -0.550000 15.99940
6880 OM 6880 OM OM1 6880 -0.550000 15.99940
6881 OM 6881 OM OM1 6881 -0.550000 15.99940
6882 OM 6882 OM OM1 6882 -0.550000 15.99940
6883 OM 6883 OM OM1 6883 -0.550000 15.99940
6884 OM 6884 OM OM1 6884 -0.550000 15.99940
6885 OM 6885 OM OM1 6885 -0.550000 15.99940
6886 OM 6886 OM OM1 6886 -0.550000 15.99940
6887 OM 6887 OM OM1 6887 -0.550000 15.99940
6888 OM 6888 OM OM1 6888 -0.550000 15.99940
6889 OM 6889 OM OM1 6889 -0.550000 15.99940
6890 OM 6890 OM OM1 6890 -0.550000 15.99940
6891 OM 6891 OM OM1 6891 -0.550000 15.99940
6892 OM 6892 OM OM1 6892 -0.550000 15.99940
6893 OM 6893 OM OM1 6893 -0.550000 15.99940
6894 OM 6894 OM OM1 6894 -0.550000 15.99940
6895 OM 6895 OM OM1 6895 -0.550000 15.99940
6896 OM 6896 OM OM1 6896 -0.550000 15.99940
6897 OM 6897 OM OM1 6897 -0.550000 15.99940
6898 OM 6898 OM OM1 6898 -0.550000 15.99940
6899 OM 6899 OM OM1 6899 -0.550000 15.99940
6900 OM 6900 OM OM1 6900 -0.550000 15.99940
6901 OM 6901 OM OM1 6901 -0.550000 15.99940
6902 OM 6902 OM OM1 6902 -0.550000 15.99940
6903 OM 6903 OM OM1 6903 -0.550000 15.99940
6904 OM 6904 OM OM1 6904 -0.550000 15.99940
6905 OM 6905 OM OM1 6905 -0.550000 15.99940
6906 OM 6906 OM OM1 6906 -0.550000 15.99940
6907 OM 6907 OM OM1 6907 -0.550000 15.99940
6908 OM 6908 OM OM1 6908 -0.550000 15.99940
6909 OM 6909 OM OM1 6909 -0.550000 15.99940
6910 OM 6910 OM OM1 6910 -0.550000 15.99940
6911 OM 6911 OM OM1 6911 -0.550000 15.99940
6912 OM 6912 OM OM1 6912 -0.550000 15.99940
6913 OM 6913 OM OM1 6913 -0.550000 15.99940
6914 OM 6914 OM OM1 6914 -0.550000 15.99940
6915 OM 6915 OM OM1 6915 -0.550000 15.99940
6916 OM 6916 OM OM1 6916 -0.550000 15.99940
6917 OM 6917 OM OM1 6917 -0.550000 15.99940
6918 OM 6918 OM OM1 6918 -0.550000 15.99940
6919 OM 6919 OM OM1 6919 -0.550000 15.99940
6920 OM 6920 OM OM1 6920 -0.550000 15.99940
6921 OM 6921 OM OM1 6921 -0.550000 15.99940
6922 OM 6922 OM OM1 6922 -0.550000 15.99940
6923 OM 6923 OM OM1 6923 -0.550000 15.99940
6924 OM 6924 OM OM1 6924 -0.550000 15.99940
6925 OM 6925 OM OM1 6925 -0.550000 15.99940
6926 OM 6926 OM OM1 6926 -0.550000 15.99940
6927 OM 6927 OM OM1 6927 -0.550000 15.99940
6928 OM 6928 OM OM1 6928 -0.550000 15.99940
6929 OM 6929 OM OM1 6929 -0.550000 15.99940
6930 OM 6930 OM OM1 6930 -0.550000 15.99940
6931 OM 6931 OM OM1 6931 -0.550000 15.99940
6932 OM 6932 OM OM1 6932 -0.550000 15.99940
6933 OM 6933 OM OM1 6933 -0.550000 15.99940
6934 OM 6934 OM OM1 6934 -0.550000 15.99940
6935 OM 6935 OM OM1 6935 -0.550000 15.99940
6936 OM 6936 OM OM1 6936 -0.550000 15.99940
6937 OM 6937 OM OM1 6937 -0.550000 15.99940
6938 OM 6938 OM OM1 6938 -0.550000 15.99940
6939 OM 6939 OM OM1 6939 -0.550000 15.99940
6940 OM 6940 OM OM1 6940 -0.550000 15.99940
6941 OM 6941 OM OM1 6941 -0.550000 15.99940
6942 OM 6942 OM OM1 6942 -0.550000 15.99940
6943 OM 6943 OM OM1 6943 -0.550000 15.99940
6944 OM 6944 OM OM1 6944 -0.550000 15.99940
6945 OM 6945 OM OM1 6945 -0.550000 15.99940
6946 OM 6946 OM OM1 6946 -0.550000 15.99940
6947 OM 6947 OM OM1 6947 -0.550000 15.99940
6948 OM 6948 OM OM1 6948 -0.550000 15.99940
6949 OM 6949 OM OM1 6949 -0.550000 15.99940
6950 OM 6950 OM OM1 6950 -0.550000 15.99940
6951 OM 6951 OM OM1 6951 -0.550000 15.99940
6952 OM 6952 OM OM1 6952 -0.550000 15.99940
6953 OM 6953 OM OM1 6953 -0.550000 15.99940
6954 OM 6954 OM OM1 6954 -0.550000 15.99940
6955 OM 6955 OM OM1 6955 -0.550000 15.99940
6956 OM 6956 OM OM1 6956 -0.550000 15.99940
6957 OM 6957 OM OM1 6957 -0.550000 15.99940
6958 OM 6958 OM OM1 6958 -0.550000 15.99940
6959 OM 6959 OM OM1 6959 -0.550000 15.99940
6960 OM 6960 OM OM1 6960 -0.550000 15.99940
6961 OM 6961 OM OM1 6961 -0.550000 15.99940
6962 OM 6962 OM OM1 6962 -0.550000 15.99940
6963 OM 6963 OM OM1 6963 -0.550000 15.99940
6964 OM 6964 OM OM1 6964 -0.550000 15.99940
6965 OM 6965 OM OM1 6965 -0.550000 15.99940
6966 OM 6966 OM OM1 6966 -0.550000 15.99940
6967 OM 6967 OM OM1 6967 -0.550000 15.99940
6968 OM 6968 OM OM1 6968 -0.550000 15.99940
6969 OM 6969 OM OM1 6969 -0.550000 15.99940
6970 OM 6970 OM OM1 6970 -0.550000 15.99940
6971 OM 6971 OM OM1 6971 -0.550000 15.99940
6972 OM 6972 OM OM1 6972 -0.550000 15.99940
6973 OM 6973 OM OM1 6973 -0.550000 15.99940
6974 OM 6974 OM OM1 6974 -0.550000 15.99940
6975 OM 6975 OM OM1 6975 -0.550000 15.99940
6976 OM 6976 OM OM1 6976 -0.550000 15.99940
6977 OM 6977 OM OM1 6977 -0.550000 15.99940
6978 OM 6978 OM OM1 6978 -0.550000 15.99940
6979 OM 6979 OM OM1 6979 -0.550000 15.99940
6980 OM 6980 OM OM1 6980 -0.550000 15.99940
6981 OM 6981 OM OM1 6981 -0.550000 15.99940
6982 OM 6982 OM OM1 6982 -0.550000 15.99940
6983 OM 6983 OM OM1 6983 -0.550000 15.99940
6984 OM 6984 OM OM1 6984 -0.550000 15.99940
6985 OM 6985 OM OM1 6985 -0.550000 15.99940
6986 OM 6986 OM OM1 6986 -0.550000 15.99940
6987 OM 6987 OM OM1 6987 -0.550000 15.99940
6988 OM 6988 OM OM1 6988 -0.550000 15.99940
6989 OM 6989 OM OM1 6989 -0.550000 15.99940
6990 OM 6990 OM OM1 6990 -0.550000 15.99940
6991 OM 6991 OM OM1 6991 -0.550000 15.99940
6992 OM 6992 OM OM1 6992 -0.550000 15.99940
6993 OM 6993 OM OM1 6993 -0.550000 15.99940
6994 OM 6994 OM OM1 6994 -0.550000 15.99940
6995 OM 6995 OM OM1 6995 -0.550000 15.99940
6996 OM 6996 OM OM1 6996 -0.550000 15.99940
6997 OM 6997 OM OM1 6997 -0.550000 15.99940
6998 OM 6998 OM OM1 6998 -0.550000 15.99940
6999 OM 6999 OM OM1 6999 -0.550000 15.99940
7000 OM 7000 OM OM1 7000 -0.550000 15.99940
7001 OM 7001 OM OM1 7001 -0.550000 15.99940
7002 OM 7002 OM OM1 7002 -0.550000 15.99940
7003 OM 7003 OM OM1 7003 -0.550000 15.99940
7004 OM 7004 OM OM1 7004 -0.550000 15.99940
7005 OM 7005 OM OM1 7005 -0.550000 15.99940
7006 OM 7006 OM OM1 7006 -0.550000 15.99940
7007 OM 7007 OM OM1 7007 -0.550000 15.99940
7008 OM 7008 OM OM1 7008 -0.550000 15.99940
7009 OM 7009 OM OM1 7009 -0.550000 15.99940
7010 OM 7010 OM OM1 7010 -0.550000 15.99940
7011 OM 7011 OM OM1 7011 -0.550000 15.99940
7012 OM 7012 OM OM1 7012 -0.550000 15.99940
7013 OM 7013 OM OM1 7013 -0.550000 15.99940
7014 OM 7014 OM OM1 7014 -0.550000 15.99940
7015 OM 7015 OM OM1 7015 -0.550000 15.99940
7016 OM 7016 OM OM1 7016 -0.550000 15.99940
7017 OM 7017 OM OM1 7017 -0.550000 15.99940
7018 OM 7018 OM OM1 7018 -0.550000 15.99940
7019 OM 7019 OM OM1 7019 -0.550000 15.99940
7020 OM 7020 OM OM1 7020 -0.550000 15.99940
7021 OM 7021 OM OM1 7021 -0.550000 15.99940
7022 OM 7022 OM OM1 7022 -0.550000 15.99940
7023 OM 7023 OM OM1 7023 -0.550000 15.99940
7024 OM 7024 OM OM1 7024 -0.550000 15.99940
7025 OM 7025 OM OM1 7025 -0.550000 15.99940
7026 OM 7026 OM OM1 7026 -0.550000 15.99940
7027 OM 7027 OM OM1 7027 -0.550000 15.99940
7028 OM 7028 OM OM1 7028 -0.550000 15.99940
7029 OM 7029 OM OM1 7029 -0.550000 15.99940
7030 OM 7030 OM OM1 7030 -0.550000 15.99940
7031 OM 7031 OM OM1 7031 -0.550000 15.99940
7032 OM 7032 OM OM1 7032 -0.550000 15.99940
7033 OM 7033 OM OM1 7033 -0.550000 15.99940
7034 OM 7034 OM OM1 7034 -0.550000 15.99940
7035 OM 7035 OM OM1 7035 -0.550000 15.99940
7036 OM 7036 OM OM1 7036 -0.550000 15.99940
7037 OM 7037 OM OM1 7037 -0.550000 15.99940
7038 OM 7038 OM OM1 7038 -0.550000 15.99940
7039 OM 7039 OM OM1 7039 -0.550000 15.99940
7040 OM 7040 OM OM1 7040 -0.550000 15.99940
7041 OM 7041 OM OM1 7041 -0.550000 15.99940
7042 OM 7042 OM OM1 7042 -0.550000 15.99940
7043 OM 7043 OM OM1 7043 -0.550000 15.99940
7044 OM 7044 OM OM1 7044 -0.550000 15.99940
7045 OM 7045 OM OM1 7045 -0.550000 15.99940
7046 OM 7046 OM OM1 7046 -0.550000 15.99940
7047 OM 7047 OM OM1 7047 -0.550000 15.99940
7048 OM 7048 OM OM1 7048 -0.550000 15.99940
7049 OM 7049 OM OM1 7049 -0.550000 15.99940
7050 OM 7050 OM OM1 7050 -0.550000 15.99940
7051 OM 7051 OM OM1 7051 -0.550000 15.99940
7052 OM 7052 OM OM1 7052 -0.550000 15.99940
7053 OM 7053 OM OM1 7053 -0.550000 15.99940
7054 OM 7054 OM OM1 7054 -0.550000 15.99940
7055 OM 7055 OM OM1 7055 -0.550000 15.99940
7056 OM 7056 OM OM1 7056 -0.550000 15.99940
7057 OM 7057 OM OM1 7057 -0.550000 15.99940
7058 OM 7058 OM OM1 7058 -0.550000 15.99940
7059 OM 7059 OM OM1 7059 -0.550000 15.99940
7060 OM 7060 OM OM1 7060 -0.550000 15.99940
7061 OM 7061 OM OM1 7061 -0.550000 15.99940
7062 OM 7062 OM OM1 7062 -0.550000 15.99940
7063 OM 7063 OM OM1 7063 -0.550000 15.99940
7064 OM 7064 OM OM1 7064 -0.550000 15.99940
7065 OM 7065 OM OM1 7065 -0.550000 15.99940
7066 OM 7066 OM OM1 7066 -0.550000 15.99940
7067 OM 7067 OM OM1 7067 -0.550000 15.99940
7068 OM 7068 OM OM1 7068 -0.550000 15.99940
7069 OM 7069 OM OM1 7069 -0.550000 15.99940
7070 OM 7070 OM OM1 7070 -0.550000 15.99940
7071 OM 7071 OM OM1 7071 -0.550000 15.99940
7072 OM 7072 OM OM1 7072 -0.550000 15.99940
7073 OM 7073 OM OM1 7073 -0.550000 15.99940
7074 OM 7074 OM OM1 7074 -0.550000 15.99940
7075 OM 7075 OM OM1 7075 -0.550000 15.99940
7076 OM 7076 OM OM1 7076 -0.550000 15.99940
7077 OM 7077 OM OM1 7077 -0.550000 15.99940
7078 OM 7078 OM OM1 7078 -0.550000 15.99940
7079 OM 7079 OM OM1 7079 -0.550000 15.99940
7080 OM 7080 OM OM1 7080 -0.550000 15.99940
7081 OM 7081 OM OM1 7081 -0.550000 15.99940
7082 OM 7082 OM OM1 7082 -0.550000 15.99940
7083 OM 7083 OM OM1 7083 -0.550000 15.99940
7084 OM 7084 OM OM1 7084 -0.550000 15.99940
7085 OM 7085 OM OM1 7085 -0.550000 15.99940
7086 OM 7086 OM OM1 7086 -0.550000 15.99940
7087 OM 7087 OM OM1 7087 -0.550000 15.99940
7088 OM 7088 OM OM1 7088 -0.550000 15.99940
7089 OM 7089 OM OM1 7089 -0.550000 15.99940
7090 OM 7090 OM OM1 7090 -0.550000 15.99940
7091 OM 7091 OM OM1 7091 -0.550000 15.99940
7092 OM 7092 OM OM1 7092 -0.550000 15.99940
7093 OM 7093 OM OM1 7093 -0.550000 15.99940
7094 OM 7094 OM OM1 7094 -0.550000 15.99940
7095 OM 7095 OM OM1 7095 -0.550000 15.99940
7096 OM 7096 OM OM1 7096 -0.550000 15.99940
7097 OM 7097 OM OM1 7097 -0.550000 15.99940
7098 OM 7098 OM OM1 7098 -0.550000 15.99940
7099 OM 7099 OM OM1 7099 -0.550000 15.99940
7100 OM 7100 OM OM1 7100 -0.550000 15.99940
7101 OM 7101 OM OM1 7101 -0.550000 15.99940
7102 OM 7102 OM OM1 7102 -0.550000 15.99940
7103 OM 7103 OM OM1 7103 -0.550000 15.99940
7104 OM 7104 OM OM1 7104 -0.550000 15.99940
7105 OM 7105 OM OM1 7105 -0.550000 15.99940
7106 OM 7106 OM OM1 7106 -0.550000 15.99940
7107 OM 7107 OM OM1 7107 -0.550000 15.99940
7108 OM 7108 OM OM1 7108 -0.550000 15.99940
7109 OM 7109 OM OM1 7109 -0.550000 15.99940
7110 OM 7110 OM OM1 7110 -0.550000 15.99940
7111 OM 7111 OM OM1 7111 -0.550000 15.99940
7112 OM 7112 OM OM1 7112 -0.550000 15.99940
7113 OM 7113 OM OM1 7113 -0.550000 15.99940
7114 OM 7114 OM OM1 7114 -0.550000 15.99940
7115 OM 7115 OM OM1 7115 -0.550000 15.99940
7116 OM 7116 OM OM1 7116 -0.550000 15.99940
7117 OM 7117 OM OM1 7117 -0.550000 15.99940
7118 OM 7118 OM OM1 7118 -0.550000 15.99940
7119 OM 7119 OM OM1 7119 -0.550000 15.99940
7120 OM 7120 OM OM1 7120 -0.550000 15.99940
7121 OM 7121 OM OM1 7121 -0.550000 15.99940
7122 OM 7122 OM OM1 7122 -0.550000 15.99940
7123 OM 7123 OM OM1 7123 -0.550000 15.99940
7124 OM 7124 OM OM1 7124 -0.550000 15.99940
7125 OM 7125 OM OM1 7125 -0.550000 15.99940
7126 OM 7126 OM OM1 7126 -0.550000 15.99940
7127 OM 7127 OM OM1 7127 -0.550000 15.99940
7128 OM 7128 OM OM1 7128 -0.550000 15.99940
7129 OM 7129 OM OM1 7129 -0.550000 15.99940
7130 OM 7130 OM OM1 7130 -0.550000 15.99940
7131 OM 7131 OM OM1 7131 -0.550000 15.99940
7132 OM 7132 OM OM1 7132 -0.550000 15.99940
7133 OM 7133 OM OM1 7133 -0.550000 15.99940
7134 OM 7134 OM OM1 7134 -0.550000 15.99940
7135 OM 7135 OM OM1 7135 -0.550000 15.99940
7136 OM 7136 OM OM1 7136 -0.550000 15.99940
7137 OM 7137 OM OM1 7137 -0.550000 15.99940
7138 OM 7138 OM OM1 7138 -0.550000 15.99940
7139 OM 7139 OM OM1 7139 -0.550000 15.99940
7140 OM 7140 OM OM1 7140 -0.550000 15.99940
7141 OM 7141 OM OM1 7141 -0.550000 15.99940
7142 OM 7142 OM OM1 7142 -0.550000 15.99940
7143 OM 7143 OM OM1 7143 -0.550000 15.99940
7144 OM 7144 OM OM1 7144 -0.550000 15.99940
7145 OM 7145 OM OM1 7145 -0.550000 15.99940
7146 OM 7146 OM OM1 7146 -0.550000 15.99940
7147 OM 7147 OM OM1 7147 -0.550000 15.99940
7148 OM 7148 OM OM1 7148 -0.550000 15.99940
7149 OM 7149 OM OM1 7149 -0.550000 15.99940
7150 OM 7150 OM OM1 7150 -0.550000 15.99940
7151 OM 7151 OM OM1 7151 -0.550000 15.99940
7152 OM 7152 OM OM1 7152 -0.550000 15.99940
7153 OM 7153 OM OM1 7153 -0.550000 15.99940
7154 OM 7154 OM OM1 7154 -0.550000 15.99940
7155 OM 7155 OM OM1 7155 -0.550000 15.99940
7156 OM 7156 OM OM1 7156 -0.550000 15.99940
7157 OM 7157 OM OM1 7157 -0.550000 15.99940
7158 OM 7158 OM OM1 7158 -0.550000 15.99940
7159 OM 7159 OM OM1 7159 -0.550000 15.99940
7160 OM 7160 OM OM1 7160 -0.550000 15.99940
7161 OM 7161 OM OM1 7161 -0.550000 15.99940
7162 OM 7162 OM OM1 7162 -0.550000 15.99940
7163 OM 7163 OM OM1 7163 -0.550000 15.99940
7164 OM 7164 OM OM1 7164 -0.550000 15.99940
7165 OM 7165 OM OM1 7165 -0.550000 15.99940
7166 OM 7166 OM OM1 7166 -0.550000 15.99940
7167 OM 7167 OM OM1 7167 -0.550000 15.99940
7168 OM 7168 OM OM1 7168 -0.550000 15.99940
7169 OM 7169 OM OM1 7169 -0.550000 15.99940
7170 OM 7170 OM OM1 7170 -0.550000 15.99940
7171 OM 7171 OM OM1 7171 -0.550000 15.99940
7172 OM 7172 OM OM1 7172 -0.550000 15.99940
7173 OM 7173 OM OM1 7173 -0.550000 15.99940
7174 OM 7174 OM OM1 7174 -0.550000 15.99940
7175 OM 7175 OM OM1 7175 -0.550000 15.99940
7176 OM 7176 OM OM1 7176 -0.550000 15.99940
7177 OM 7177 OM OM1 7177 -0.550000 15.99940
7178 OM 7178 OM OM1 7178 -0.550000 15.99940
7179 OM 7179 OM OM1 7179 -0.550000 15.99940
7180 OM 7180 OM OM1 7180 -0.550000 15.99940
7181 OM 7181 OM OM1 7181 -0.550000 15.99940
7182 OM 7182 OM OM1 7182 -0.550000 15.99940
7183 OM 7183 OM OM1 7183 -0.550000 15.99940
7184 OM 7184 OM OM1 7184 -0.550000 15.99940
7185 OM 7185 OM OM1 7185 -0.550000 15.99940
7186 OM 7186 OM OM1 7186 -0.550000 15.99940
7187 OM 7187 OM OM1 7187 -0.550000 15.99940
7188 OM 7188 OM OM1 7188 -0.550000 15.99940
7189 OM 7189 OM OM1 7189 -0.550000 15.99940
7190 OM 7190 OM OM1 7190 -0.550000 15.99940
7191 OM 7191 OM OM1 7191 -0.550000 15.99940
7192 OM 7192 OM OM1 7192 -0.550000 15.99940
7193 OM 7193 OM OM1 7193 -0.550000 15.99940
7194 OM 7194 OM OM1 7194 -0.550000 15.99940
7195 OM 7195 OM OM1 7195 -0.550000 15.99940
7196 OM 7196 OM OM1 7196 -0.550000 15.99940
7197 OM 7197 OM OM1 7197 -0.550000 15.99940
7198 OM 7198 OM OM1 7198 -0.550000 15.99940
7199 OM 7199 OM OM1 7199 -0.550000 15.99940
7200 OM 7200 OM OM1 7200 -0.550000 15.99940
7201 OM 7201 OM OM1 7201 -0.550000 15.99940
7202 OM 7202 OM OM1 7202 -0.550000 15.99940
7203 OM 7203 OM OM1 7203 -0.550000 15.99940
7204 OM 7204 OM OM1 7204 -0.550000 15.99940
7205 OM 7205 OM OM1 7205 -0.550000 15.99940
7206 OM 7206 OM OM1 7206 -0.550000 15.99940
7207 OM 7207 OM OM1 7207 -0.550000 15.99940
7208 OM 7208 OM OM1 7208 -0.550000 15.99940
7209 OM 7209 OM OM1 7209 -0.550000 15.99940
7210 OM 7210 OM OM1 7210 -0.550000 15.99940
7211 OM 7211 OM OM1 7211 -0.550000 15.99940
7212 OM 7212 OM OM1 7212 -0.550000 15.99940
7213 OM 7213 OM OM1 7213 -0.550000 15.99940
7214 OM 7214 OM OM1 7214 -0.550000 15.99940
7215 OM 7215 OM OM1 7215 -0.550000 15.99940
7216 OM 7216 OM OM1 7216 -0.550000 15.99940
7217 OM 7217 OM OM1 7217 -0.550000 15.99940
7218 OM 7218 OM OM1 7218 -0.550000 15.99940
7219 OM 7219 OM OM1 7219 -0.550000 15.99940
7220 OM 7220 OM OM1 7220 -0.550000 15.99940
7221 OM 7221 OM OM1 7221 -0.550000 15.99940
7222 OM 7222 OM OM1 7222 -0.550000 15.99940
7223 OM 7223 OM OM1 7223 -0.550000 15.99940
7224 OM 7224 OM OM1 7224 -0.550000 15.99940
7225 OM 7225 OM OM1 7225 -0.550000 15.99940
7226 OM 7226 OM OM1 7226 -0.550000 15.99940
7227 OM 7227 OM OM1 7227 -0.550000 15.99940
7228 OM 7228 OM OM1 7228 -0.550000 15.99940
7229 OM 7229 OM OM1 7229 -0.550000 15.99940
7230 OM 7230 OM OM1 7230 -0.550000 15.99940
7231 OM 7231 OM OM1 7231 -0.550000 15.99940
7232 OM 7232 OM OM1 7232 -0.550000 15.99940
7233 OM 7233 OM OM1 7233 -0.550000 15.99940
7234 OM 7234 OM OM1 7234 -0.550000 15.99940
7235 OM 7235 OM OM1 7235 -0.550000 15.99940
7236 OM 7236 OM OM1 7236 -0.550000 15.99940
7237 OM 7237 OM OM1 7237 -0.550000 15.99940
7238 OM 7238 OM OM1 7238 -0.550000 15.99940
7239 OM 7239 OM OM1 7239 -0.550000 15.99940
7240 OM 7240 OM OM1 7240 -0.550000 15.99940
7241 OM 7241 OM OM1 7241 -0.550000 15.99940
7242 OM 7242 OM OM1 7242 -0.550000 15.99940
7243 OM 7243 OM OM1 7243 -0.550000 15.99940
7244 OM 7244 OM OM1 7244 -0.550000 15.99940
7245 OM 7245 OM OM1 7245 -0.550000 15.99940
7246 OM 7246 OM OM1 7246 -0.550000 15.99940
7247 OM 7247 OM OM1 7247 -0.550000 15.99940
7248 OM 7248 OM OM1 7248 -0.550000 15.99940
7249 OM 7249 OM OM1 7249 -0.550000 15.99940
7250 OM 7250 OM OM1 7250 -0.550000 15.99940
7251 OM 7251 OM OM1 7251 -0.550000 15.99940
7252 OM 7252 OM OM1 7252 -0.550000 15.99940
7253 OM 7253 OM OM1 7253 -0.550000 15.99940
7254 OM 7254 OM OM1 7254 -0.550000 15.99940
7255 OM 7255 OM OM1 7255 -0.550000 15.99940
7256 OM 7256 OM OM1 7256 -0.550000 15.99940
7257 OM 7257 OM OM1 7257 -0.550000 15.99940
7258 OM 7258 OM OM1 7258 -0.550000 15.99940
7259 OM 7259 OM OM1 7259 -0.550000 15.99940
7260 OM 7260 OM OM1 7260 -0.550000 15.99940
7261 OM 7261 OM OM1 7261 -0.550000 15.99940
7262 OM 7262 OM OM1 7262 -0.550000 15.99940
7263 OM 7263 OM OM1 7263 -0.550000 15.99940
7264 OM 7264 OM OM1 7264 -0.550000 15.99940
7265 OM 7265 OM OM1 7265 -0.550000 15.99940
7266 OM 7266 OM OM1 7266 -0.550000 15.99940
7267 OM 7267 OM OM1 7267 -0.550000 15.99940
7268 OM 7268 OM OM1 7268 -0.550000 15.99940
7269 OM 7269 OM OM1 7269 -0.550000 15.99940
7270 OM 7270 OM OM1 7270 -0.550000 15.99940
7271 OM 7271 OM OM1 7271 -0.550000 15.99940
7272 OM 7272 OM OM1 7272 -0.550000 15.99940
7273 OM 7273 OM OM1 7273 -0.550000 15.99940
7274 OM 7274 OM OM1 7274 -0.550000 15.99940
7275 OM 7275 OM OM1 7275 -0.550000 15.99940
7276 OM 7276 OM OM1 7276 -0.550000 15.99940
7277 OM 7277 OM OM1 7277 -0.550000 15.99940
7278 OM 7278 OM OM1 7278 -0.550000 15.99940
7279 OM 7279 OM OM1 7279 -0.550000 15.99940
7280 OM 7280 OM OM1 7280 -0.550000 15.99940
7281 OM 7281 OM OM1 7281 -0.550000 15.99940
7282 OM 7282 OM OM1 7282 -0.550000 15.99940
7283 OM 7283 OM OM1 7283 -0.550000 15.99940
7284 OM 7284 OM OM1 7284 -0.550000 15.99940
7285 OM 7285 OM OM1 7285 -0.550000 15.99940
7286 OM 7286 OM OM1 7286 -0.550000 15.99940
7287 OM 7287 OM OM1 7287 -0.550000 15.99940
7288 OM 7288 OM OM1 7288 -0.550000 15.99940
7289 OM 7289 OM OM1 7289 -0.550000 15.99940
7290 OM 7290 OM OM1 7290 -0.550000 15.99940
7291 OM 7291 OM OM1 7291 -0.550000 15.99940
7292 OM 7292 OM OM1 7292 -0.550000 15.99940
7293 OM 7293 OM OM1 7293 -0.550000 15.99940
7294 OM 7294 OM OM1 7294 -0.550000 15.99940
7295 OM 7295 OM OM1 7295 -0.550000 15.99940
7296 OM 7296 OM OM1 7296 -0.550000 15.99940
7297 OM 7297 OM OM1 7297 -0.550000 15.99940
7298 OM 7298 OM OM1 7298 -0.550000 15.99940
7299 OM 7299 OM OM1 7299 -0.550000 15.99940
7300 OM 7300 OM OM1 7300 -0.550000 15.99940
7301 OM 7301 OM OM1 7301 -0.550000 15.99940
7302 OM 7302 OM OM1 7302 -0.550000 15.99940
7303 OM 7303 OM OM1 7303 -0.550000 15.99940
7304 OM 7304 OM OM1 7304 -0.550000 15.99940
7305 OM 7305 OM OM1 7305 -0.550000 15.99940
7306 OM 7306 OM OM1 7306 -0.550000 15.99940
7307 OM 7307 OM OM1 7307 -0.550000 15.99940
7308 OM 7308 OM OM1 7308 -0.550000 15.99940
7309 OM 7309 OM OM1 7309 -0.550000 15.99940
7310 OM 7310 OM OM1 7310 -0.550000 15.99940
7311 OM 7311 OM OM1 7311 -0.550000 15.99940
7312 OM 7312 OM OM1 7312 -0.550000 15.99940
7313 OM 7313 OM OM1 7313 -0.550000 15.99940
7314 OM 7314 OM OM1 7314 -0.550000 15.99940
7315 OM 7315 OM OM1 7315 -0.550000 15.99940
7316 OM 7316 OM OM1 7316 -0.550000 15.99940
7317 OM 7317 OM OM1 7317 -0.550000 15.99940
7318 OM 7318 OM OM1 7318 -0.550000 15.99940
7319 OM 7319 OM OM1 7319 -0.550000 15.99940
7320 OM 7320 OM OM1 7320 -0.550000 15.99940
7321 OM 7321 OM OM1 7321 -0.550000 15.99940
7322 OM 7322 OM OM1 7322 -0.550000 15.99940
7323 OM 7323 OM OM1 7323 -0.550000 15.99940
7324 OM 7324 OM OM1 7324 -0.550000 15.99940
7325 OM 7325 OM OM1 7325 -0.550000 15.99940
7326 OM 7326 OM OM1 7326 -0.550000 15.99940
7327 OM 7327 OM OM1 7327 -0.550000 15.99940
7328 OM 7328 OM OM1 7328 -0.550000 15.99940
7329 OM 7329 OM OM1 7329 -0.550000 15.99940
7330 OM 7330 OM OM1 7330 -0.550000 15.99940
7331 OM 7331 OM OM1 7331 -0.550000 15.99940
7332 OM 7332 OM OM1 7332 -0.550000 15.99940
7333 OM 7333 OM OM1 7333 -0.550000 15.99940
7334 OM 7334 OM OM1 7334 -0.550000 15.99940
7335 OM 7335 OM OM1 7335 -0.550000 15.99940
7336 OM 7336 OM OM1 7336 -0.550000 15.99940
7337 OM 7337 OM OM1 7337 -0.550000 15.99940
7338 OM 7338 OM OM1 7338 -0.550000 15.99940
7339 OM 7339 OM OM1 7339 -0.550000 15.99940
7340 OM 7340 OM OM1 7340 -0.550000 15.99940
7341 OM 7341 OM OM1 7341 -0.550000 15.99940
7342 OM 7342 OM OM1 7342 -0.550000 15.99940
7343 OM 7343 OM OM1 7343 -0.550000 15.99940
7344 OM 7344 OM OM1 7344 -0.550000 15.99940
7345 OM 7345 OM OM1 7345 -0.550000 15.99940
7346 OM 7346 OM OM1 7346 -0.550000 15.99940
7347 OM 7347 OM OM1 7347 -0.550000 15.99940
7348 OM 7348 OM OM1 7348 -0.550000 15.99940
7349 OM 7349 OM OM1 7349 -0.550000 15.99940
7350 OM 7350 OM OM1 7350 -0.550000 15.99940
7351 OM 7351 OM OM1 7351 -0.550000 15.99940
7352 OM 7352 OM OM1 7352 -0.550000 15.99940
7353 OM 7353 OM OM1 7353 -0.550000 15.99940
7354 OM 7354 OM OM1 7354 -0.550000 15.99940
7355 OM 7355 OM OM1 7355 -0.550000 15.99940
7356 OM 7356 OM OM1 7356 -0.550000 15.99940
7357 OM 7357 OM OM1 7357 -0.550000 15.99940
7358 OM 7358 OM OM1 7358 -0.550000 15.99940
7359 OM 7359 OM OM1 7359 -0.550000 15.99940
7360 OM 7360 OM OM1 7360 -0.550000 15.99940
7361 OM 7361 OM OM1 7361 -0.550000 15.99940
7362 OM 7362 OM OM1 7362 -0.550000 15.99940
7363 OM 7363 OM OM1 7363 -0.550000 15.99940
7364 OM 7364 OM OM1 7364 -0.550000 15.99940
7365 OM 7365 OM OM1 7365 -0.550000 15.99940
7366 OM 7366 OM OM1 7366 -0.550000 15.99940
7367 OM 7367 OM OM1 7367 -0.550000 15.99940
7368 OM 7368 OM OM1 7368 -0.550000 15.99940
7369 OM 7369 OM OM1 7369 -0.550000 15.99940
7370 OM 7370 OM OM1 7370 -0.550000 15.99940
7371 OM 7371 OM OM1 7371 -0.550000 15.99940
7372 OM 7372 OM OM1 7372 -0.550000 15.99940
7373 OM 7373 OM OM1 7373 -0.550000 15.99940
7374 OM 7374 OM OM1 7374 -0.550000 15.99940
7375 OM 7375 OM OM1 7375 -0.550000 15.99940
7376 OM 7376 OM OM1 7376 -0.550000 15.99940
7377 OM 7377 OM OM1 7377 -0.550000 15.99940
7378 OM 7378 OM OM1 7378 -0.550000 15.99940
7379 OM 7379 OM OM1 7379 -0.550000 15.99940
7380 OM 7380 OM OM1 7380 -0.550000 15.99940
7381 OM 7381 OM OM1 7381 -0.550000 15.99940
7382 OM 7382 OM OM1 7382 -0.550000 15.99940
7383 OM 7383 OM OM1 7383 -0.550000 15.99940
7384 OM 7384 OM OM1 7384 -0.550000 15.99940
7385 OM 7385 OM OM1 7385 -0.550000 15.99940
7386 OM 7386 OM OM1 7386 -0.550000 15.99940
7387 OM 7387 OM OM1 7387 -0.550000 15.99940
7388 OM 7388 OM OM1 7388 -0.550000 15.99940
7389 OM 7389 OM OM1 7389 -0.550000 15.99940
7390 OM 7390 OM OM1 7390 -0.550000 15.99940
7391 OM 7391 OM OM1 7391 -0.550000 15.99940
7392 OM 7392 OM OM1 7392 -0.550000 15.99940
7393 OM 7393 OM OM1 7393 -0.550000 15.99940
7394 OM 7394 OM OM1 7394 -0.550000 15.99940
7395 OM 7395 OM OM1 7395 -0.550000 15.99940
7396 OM 7396 OM OM1 7396 -0.550000 15.99940
7397 OM 7397 OM OM1 7397 -0.550000 15.99940
7398 OM 7398 OM OM1 7398 -0.550000 15.99940
7399 OM 7399 OM OM1 7399 -0.550000 15.99940
7400 OM 7400 OM OM1 7400 -0.550000 15.99940
7401 OM 7401 OM OM1 7401 -0.550000 15.99940
7402 OM 7402 OM OM1 7402 -0.550000 15.99940
7403 OM 7403 OM OM1 7403 -0.550000 15.99940
7404 OM 7404 OM OM1 7404 -0.550000 15.99940
7405 OM 7405 OM OM1 7405 -0.550000 15.99940
7406 OM 7406 OM OM1 7406 -0.550000 15.99940
7407 OM 7407 OM OM1 7407 -0.550000 15.99940
7408 OM 7408 OM OM1 7408 -0.550000 15.99940
7409 OM 7409 OM OM1 7409 -0.550000 15.99940
7410 OM 7410 OM OM1 7410 -0.550000 15.99940
7411 OM 7411 OM OM1 7411 -0.550000 15.99940
7412 OM 7412 OM OM1 7412 -0.550000 15.99940
7413 OM 7413 OM OM1 7413 -0.550000 15.99940
7414 OM 7414 OM OM1 7414 -0.550000 15.99940
7415 OM 7415 OM OM1 7415 -0.550000 15.99940
7416 OM 7416 OM OM1 7416 -0.550000 15.99940
7417 OM 7417 OM OM1 7417 -0.550000 15.99940
7418 OM 7418 OM OM1 7418 -0.550000 15.99940
7419 OM 7419 OM OM1 7419 -0.550000 15.99940
7420 OM 7420 OM OM1 7420 -0.550000 15.99940
7421 OM 7421 OM OM1 7421 -0.550000 15.99940
7422 OM 7422 OM OM1 7422 -0.550000 15.99940
7423 OM 7423 OM OM1 7423 -0.550000 15.99940
7424 OM 7424 OM OM1 7424 -0.550000 15.99940
7425 OM 7425 OM OM1 7425 -0.550000 15.99940
7426 OM 7426 OM OM1 7426 -0.550000 15.99940
7427 OM 7427 OM OM1 7427 -0.550000 15.99940
7428 OM 7428 OM OM1 7428 -0.550000 15.99940
7429 OM 7429 OM OM1 7429 -0.550000 15.99940
7430 OM 7430 OM OM1 7430 -0.550000 15.99940
7431 OM 7431 OM OM1 7431 -0.550000 15.99940
7432 OM 7432 OM OM1 7432 -0.550000 15.99940
7433 OM 7433 OM OM1 7433 -0.550000 15.99940
7434 OM 7434 OM OM1 7434 -0.550000 15.99940
7435 OM 7435 OM OM1 7435 -0.550000 15.99940
7436 OM 7436 OM OM1 7436 -0.550000 15.99940
7437 OM 7437 OM OM1 7437 -0.550000 15.99940
7438 OM 7438 OM OM1 7438 -0.550000 15.99940
7439 OM 7439 OM OM1 7439 -0.550000 15.99940
7440 OM 7440 OM OM1 7440 -0.550000 15.99940
7441 OM 7441 OM OM1 7441 -0.550000 15.99940
7442 OM 7442 OM OM1 7442 -0.550000 15.99940
7443 OM 7443 OM OM1 7443 -0.550000 15.99940
7444 OM 7444 OM OM1 7444 -0.550000 15.99940
7445 OM 7445 OM OM1 7445 -0.550000 15.99940
7446 OM 7446 OM OM1 7446 -0.550000 15.99940
7447 OM 7447 OM OM1 7447 -0.550000 15.99940
7448 OM 7448 OM OM1 7448 -0.550000 15.99940
7449 OM 7449 OM OM1 7449 -0.550000 15.99940
7450 OM 7450 OM OM1 7450 -0.550000 15.99940
7451 OM 7451 OM OM1 7451 -0.550000 15.99940
7452 OM 7452 OM OM1 7452 -0.550000 15.99940
7453 OM 7453 OM OM1 7453 -0.550000 15.99940
7454 OM 7454 OM OM1 7454 -0.550000 15.99940
7455 OM 7455 OM OM1 7455 -0.550000 15.99940
7456 OM 7456 OM OM1 7456 -0.550000 15.99940
7457 OM 7457 OM OM1 7457 -0.550000 15.99940
7458 OM 7458 OM OM1 7458 -0.550000 15.99940
7459 OM 7459 OM OM1 7459 -0.550000 15.99940
7460 OM 7460 OM OM1 7460 -0.550000 15.99940
7461 OM 7461 OM OM1 7461 -0.550000 15.99940
7462 OM 7462 OM OM1 7462 -0.550000 15.99940
7463 OM 7463 OM OM1 7463 -0.550000 15.99940
7464 OM 7464 OM OM1 7464 -0.550000 15.99940
7465 OM 7465 OM OM1 7465 -0.550000 15.99940
7466 OM 7466 OM OM1 7466 -0.550000 15.99940
7467 OM 7467 OM OM1 7467 -0.550000 15.99940
7468 OM 7468 OM OM1 7468 -0.550000 15.99940
7469 OM 7469 OM OM1 7469 -0.550000 15.99940
7470 OM 7470 OM OM1 7470 -0.550000 15.99940
7471 OM 7471 OM OM1 7471 -0.550000 15.99940
7472 OM 7472 OM OM1 7472 -0.550000 15.99940
7473 OM 7473 OM OM1 7473 -0.550000 15.99940
7474 OM 7474 OM OM1 7474 -0.550000 15.99940
7475 OM 7475 OM OM1 7475 -0.550000 15.99940
7476 OM 7476 OM OM1 7476 -0.550000 15.99940
7477 OM 7477 OM OM1 7477 -0.550000 15.99940
7478 OM 7478 OM OM1 7478 -0.550000 15.99940
7479 OM 7479 OM OM1 7479 -0.550000 15.99940
7480 OM 7480 OM OM1 7480 -0.550000 15.99940
7481 OM 7481 OM OM1 7481 -0.550000 15.99940
7482 OM 7482 OM OM1 7482 -0.550000 15.99940
7483 OM 7483 OM OM1 7483 -0.550000 15.99940
7484 OM 7484 OM OM1 7484 -0.550000 15.99940
7485 OM 7485 OM OM1 7485 -0.550000 15.99940
7486 OM 7486 OM OM1 7486 -0.550000 15.99940
7487 OM 7487 OM OM1 7487 -0.550000 15.99940
7488 OM 7488 OM OM1 7488 -0.550000 15.99940
7489 OM 7489 OM OM1 7489 -0.550000 15.99940
7490 OM 7490 OM OM1 7490 -0.550000 15.99940
7491 OM 7491 OM OM1 7491 -0.550000 15.99940
7492 OM 7492 OM OM1 7492 -0.550000 15.99940
7493 OM 7493 OM OM1 7493 -0.550000 15.99940
7494 OM 7494 OM OM1 7494 -0.550000 15.99940
7495 OM 7495 OM OM1 7495 -0.550000 15.99940
7496 OM 7496 OM OM1 7496 -0.550000 15.99940
7497 OM 7497 OM OM1 7497 -0.550000 15.99940
7498 OM 7498 OM OM1 7498 -0.550000 15.99940
7499 OM 7499 OM OM1 7499 -0.550000 15.99940
7500 OM 7500 OM OM1 7500 -0.550000 15.99940
7501 OM 7501 OM OM1 7501 -0.550000 15.99940
7502 OM 7502 OM OM1 7502 -0.550000 15.99940
7503 OM 7503 OM OM1 7503 -0.550000 15.99940
7504 OM 7504 OM OM1 7504 -0.550000 15.99940
7505 OM 7505 OM OM1 7505 -0.550000 15.99940
7506 OM 7506 OM OM1 7506 -0.550000 15.99940
7507 OM 7507 OM OM1 7507 -0.550000 15.99940
7508 OM 7508 OM OM1 7508 -0.550000 15.99940
7509 OM 7509 OM OM1 7509 -0.550000 15.99940
7510 OM 7510 OM OM1 7510 -0.550000 15.99940
7511 OM 7511 OM OM1 7511 -0.550000 15.99940
7512 OM 7512 OM OM1 7512 -0.550000 15.99940
7513 OM 7513 OM OM1 7513 -0.550000 15.99940
7514 OM 7514 OM OM1 7514 -0.550000 15.99940
7515 OM 7515 OM OM1 7515 -0.550000 15.99940
7516 OM 7516 OM OM1 7516 -0.550000 15.99940
7517 OM 7517 OM OM1 7517 -0.550000 15.99940
7518 OM 7518 OM OM1 7518 -0.550000 15.99940
7519 OM 7519 OM OM1 7519 -0.550000 15.99940
7520 OM 7520 OM OM1 7520 -0.550000 15.99940
7521 OM 7521 OM OM1 7521 -0.550000 15.99940
7522 OM 7522 OM OM1 7522 -0.550000 15.99940
7523 OM 7523 OM OM1 7523 -0.550000 15.99940
7524 OM 7524 OM OM1 7524 -0.550000 15.99940
7525 OM 7525 OM OM1 7525 -0.550000 15.99940
7526 OM 7526 OM OM1 7526 -0.550000 15.99940
7527 OM 7527 OM OM1 7527 -0.550000 15.99940
7528 OM 7528 OM OM1 7528 -0.550000 15.99940
7529 OM 7529 OM OM1 7529 -0.550000 15.99940
7530 OM 7530 OM OM1 7530 -0.550000 15.99940
7531 OM 7531 OM OM1 7531 -0.550000 15.99940
7532 OM 7532 OM OM1 7532 -0.550000 15.99940
7533 OM 7533 OM OM1 7533 -0.550000 15.99940
7534 OM 7534 OM OM1 7534 -0.550000 15.99940
7535 OM 7535 OM OM1 7535 -0.550000 15.99940
7536 OM 7536 OM OM1 7536 -0.550000 15.99940
7537 OM 7537 OM OM1 7537 -0.550000 15.99940
7538 OM 7538 OM OM1 7538 -0.550000 15.99940
7539 OM 7539 OM OM1 7539 -0.550000 15.99940
7540 OM 7540 OM OM1 7540 -0.550000 15.99940
7541 OM 7541 OM OM1 7541 -0.550000 15.99940
7542 OM 7542 OM OM1 7542 -0.550000 15.99940
7543 OM 7543 OM OM1 7543 -0.550000 15.99940
7544 OM 7544 OM OM1 7544 -0.550000 15.99940
7545 OM 7545 OM OM1 7545 -0.550000 15.99940
7546 OM 7546 OM OM1 7546 -0.550000 15.99940
7547 OM 7547 OM OM1 7547 -0.550000 15.99940
7548 OM 7548 OM OM1 7548 -0.550000 15.99940
7549 OM 7549 OM OM1 7549 -0.550000 15.99940
7550 OM 7550 OM OM1 7550 -0.550000 15.99940
7551 OM 7551 OM OM1 7551 -0.550000 15.99940
7552 OM 7552 OM OM1 7552 -0.550000 15.99940
7553 OM 7553 OM OM1 7553 -0.550000 15.99940
7554 OM 7554 OM OM1 7554 -0.550000 15.99940
7555 OM 7555 OM OM1 7555 -0.550000 15.99940
7556 OM 7556 OM OM1 7556 -0.550000 15.99940
7557 OM 7557 OM OM1 7557 -0.550000 15.99940
7558 OM 7558 OM OM1 7558 -0.550000 15.99940
7559 OM 7559 OM OM1 7559 -0.550000 15.99940
7560 OM 7560 OM OM1 7560 -0.550000 15.99940
7561 OM 7561 OM OM1 7561 -0.550000 15.99940
7562 OM 7562 OM OM1 7562 -0.550000 15.99940
7563 OM 7563 OM OM1 7563 -0.550000 15.99940
7564 OM 7564 OM OM1 7564 -0.550000 15.99940
7565 OM 7565 OM OM1 7565 -0.550000 15.99940
7566 OM 7566 OM OM1 7566 -0.550000 15.99940
7567 OM 7567 OM OM1 7567 -0.550000 15.99940
7568 OM 7568 OM OM1 7568 -0.550000 15.99940
7569 OM 7569 OM OM1 7569 -0.550000 15.99940
7570 OM 7570 OM OM1 7570 -0.550000 15.99940
7571 OM 7571 OM OM1 7571 -0.550000 15.99940
7572 OM 7572 OM OM1 7572 -0.550000 15.99940
7573 OM 7573 OM OM1 7573 -0.550000 15.99940
7574 OM 7574 OM OM1 7574 -0.550000 15.99940
7575 OM 7575 OM OM1 7575 -0.550000 15.99940
7576 OM 7576 OM OM1 7576 -0.550000 15.99940
7577 OM 7577 OM OM1 7577 -0.550000 15.99940
7578 OM 7578 OM OM1 7578 -0.550000 15.99940
7579 OM 7579 OM OM1 7579 -0.550000 15.99940
7580 OM 7580 OM OM1 7580 -0.550000 15.99940
7581 OM 7581 OM OM1 7581 -0.550000 15.99940
7582 OM 7582 OM OM1 7582 -0.550000 15.99940
7583 OM 7583 OM OM1 7583 -0.550000 15.99940
7584 OM 7584 OM OM1 7584 -0.550000 15.99940
7585 OM 7585 OM OM1 7585 -0.550000 15.99940
7586 OM 7586 OM OM1 7586 -0.550000 15.99940
7587 OM 7587 OM OM1 7587 -0.550000 15.99940
7588 OM 7588 OM OM1 7588 -0.550000 15.99940
7589 OM 7589 OM OM1 7589 -0.550000 15.99940
7590 OM 7590 OM OM1 7590 -0.550000 15.99940
7591 OM 7591 OM OM1 7591 -0.550000 15.99940
7592 OM 7592 OM OM1 7592 -0.550000 15.99940
7593 OM 7593 OM OM1 7593 -0.550000 15.99940
7594 OM 7594 OM OM1 7594 -0.550000 15.99940
7595 OM 7595 OM OM1 7595 -0.550000 15.99940
7596 OM 7596 OM OM1 7596 -0.550000 15.99940
7597 OM 7597 OM OM1 7597 -0.550000 15.99940
7598 OM 7598 OM OM1 7598 -0.550000 15.99940
7599 OM 7599 OM OM1 7599 -0.550000 15.99940
7600 OM 7600 OM OM1 7600 -0.550000 15.99940
7601 OM 7601 OM OM1 7601 -0.550000 15.99940
7602 OM 7602 OM OM1 7602 -0.550000 15.99940
7603 OM 7603 OM OM1 7603 -0.550000 15.99940
7604 OM 7604 OM OM1 7604 -0.550000 15.99940
7605 OM 7605 OM OM1 7605 -0.550000 15.99940
7606 OM 7606 OM OM1 7606 -0.550000 15.99940
7607 OM 7607 OM OM1 7607 -0.550000 15.99940
7608 OM 7608 OM OM1 7608 -0.550000 15.99940
7609 OM 7609 OM OM1 7609 -0.550000 15.99940
7610 OM 7610 OM OM1 7610 -0.550000 15.99940
7611 OM 7611 OM OM1 7611 -0.550000 15.99940
7612 OM 7612 OM OM1 7612 -0.550000 15.99940
7613 OM 7613 OM OM1 7613 -0.550000 15.99940
7614 OM 7614 OM OM1 7614 -0.550000 15.99940
7615 OM 7615 OM OM1 7615 -0.550000 15.99940
7616 OM 7616 OM OM1 7616 -0.550000 15.99940
7617 OM 7617 OM OM1 7617 -0.550000 15.99940
7618 OM 7618 OM OM1 7618 -0.550000 15.99940
7619 OM 7619 OM OM1 7619 -0.550000 15.99940
7620 OM 7620 OM OM1 7620 -0.550000 15.99940
7621 OM 7621 OM OM1 7621 -0.550000 15.99940
7622 OM 7622 OM OM1 7622 -0.550000 15.99940
7623 OM 7623 OM OM1 7623 -0.550000 15.99940
7624 OM 7624 OM OM1 7624 -0.550000 15.99940
7625 OM 7625 OM OM1 7625 -0.550000 15.99940
7626 OM 7626 OM OM1 7626 -0.550000 15.99940
7627 OM 7627 OM OM1 7627 -0.550000 15.99940
7628 OM 7628 OM OM1 7628 -0.550000 15.99940
7629 OM 7629 OM OM1 7629 -0.550000 15.99940
7630 OM 7630 OM OM1 7630 -0.550000 15.99940
7631 OM 7631 OM OM1 7631 -0.550000 15.99940
7632 OM 7632 OM OM1 7632 -0.550000 15.99940
7633 OM 7633 OM OM1 7633 -0.550000 15.99940
7634 OM 7634 OM OM1 7634 -0.550000 15.99940
7635 OM 7635 OM OM1 7635 -0.550000 15.99940
7636 OM 7636 OM OM1 7636 -0.550000 15.99940
7637 OM 7637 OM OM1 7637 -0.550000 15.99940
7638 OM 7638 OM OM1 7638 -0.550000 15.99940
7639 OM 7639 OM OM1 7639 -0.550000 15.99940
7640 OM 7640 OM OM1 7640 -0.550000 15.99940
7641 OM 7641 OM OM1 7641 -0.550000 15.99940
7642 OM 7642 OM OM1 7642 -0.550000 15.99940
7643 OM 7643 OM OM1 7643 -0.550000 15.99940
7644 OM 7644 OM OM1 7644 -0.550000 15.99940
7645 OM 7645 OM OM1 7645 -0.550000 15.99940
7646 OM 7646 OM OM1 7646 -0.550000 15.99940
7647 OM 7647 OM OM1 7647 -0.550000 15.99940
7648 OM 7648 OM OM1 7648 -0.550000 15.99940
7649 OM 7649 OM OM1 7649 -0.550000 15.99940
7650 OM 7650 OM OM1 7650 -0.550000 15.99940
7651 OM 7651 OM OM1 7651 -0.550000 15.99940
7652 OM 7652 OM OM1 7652 -0.550000 15.99940
7653 OM 7653 OM OM1 7653 -0.550000 15.99940
7654 OM 7654 OM OM1 7654 -0.550000 15.99940
7655 OM 7655 OM OM1 7655 -0.550000 15.99940
7656 OM 7656 OM OM1 7656 -0.550000 15.99940
7657 OM 7657 OM OM1 7657 -0.550000 15.99940
7658 OM 7658 OM OM1 7658 -0.550000 15.99940
7659 OM 7659 OM OM1 7659 -0.550000 15.99940
7660 OM 7660 OM OM1 7660 -0.550000 15.99940
7661 OM 7661 OM OM1 7661 -0.550000 15.99940
7662 OM 7662 OM OM1 7662 -0.550000 15.99940
7663 OM 7663 OM OM1 7663 -0.550000 15.99940
7664 OM 7664 OM OM1 7664 -0.550000 15.99940
7665 OM 7665 OM OM1 7665 -0.550000 15.99940
7666 OM 7666 OM OM1 7666 -0.550000 15.99940
7667 OM 7667 OM OM1 7667 -0.550000 15.99940
7668 OM 7668 OM OM1 7668 -0.550000 15.99940
7669 OM 7669 OM OM1 7669 -0.550000 15.99940
7670 OM 7670 OM OM1 7670 -0.550000 15.99940
7671 OM 7671 OM OM1 7671 -0.550000 15.99940
7672 OM 7672 OM OM1 7672 -0.550000 15.99940
7673 OM 7673 OM OM1 7673 -0.550000 15.99940
7674 OM 7674 OM OM1 7674 -0.550000 15.99940
7675 OM 7675 OM OM1 7675 -0.550000 15.99940
7676 OM 7676 OM OM1 7676 -0.550000 15.99940
7677 OM 7677 OM OM1 7677 -0.550000 15.99940
7678 OM 7678 OM OM1 7678 -0.550000 15.99940
7679 OM 7679 OM OM1 7679 -0.550000 15.99940
7680 OM 7680 OM OM1 7680 -0.550000 15.99940
7681 OM 7681 OM OM1 7681 -0.550000 15.99940
7682 OM 7682 OM OM1 7682 -0.550000 15.99940
7683 OM 7683 OM OM1 7683 -0.550000 15.99940
7684 OM 7684 OM OM1 7684 -0.550000 15.99940
7685 OM 7685 OM OM1 7685 -0.550000 15.99940
7686 OM 7686 OM OM1 7686 -0.550000 15.99940
7687 OM 7687 OM OM1 7687 -0.550000 15.99940
7688 OM 7688 OM OM1 7688 -0.550000 15.99940
7689 OM 7689 OM OM1 7689 -0.550000 15.99940
7690 OM 7690 OM OM1 7690 -0.550000 15.99940
7691 OM 7691 OM OM1 7691 -0.550000 15.99940
7692 OM 7692 OM OM1 7692 -0.550000 15.99940
7693 OM 7693 OM OM1 7693 -0.550000 15.99940
7694 OM 7694 OM OM1 7694 -0.550000 15.99940
7695 OM 7695 OM OM1 7695 -0.550000 15.99940
7696 OM 7696 OM OM1 7696 -0.550000 15.99940
7697 OM 7697 OM OM1 7697 -0.550000 15.99940
7698 OM 7698 OM OM1 7698 -0.550000 15.99940
7699 OM 7699 OM OM1 7699 -0.550000 15.99940
7700 OM 7700 OM OM1 7700 -0.550000 15.99940
7701 OM 7701 OM OM1 7701 -0.550000 15.99940
7702 OM 7702 OM OM1 7702 -0.550000 15.99940
7703 OM 7703 OM OM1 7703 -0.550000 15.99940
7704 OM 7704 OM OM1 7704 -0.550000 15.99940
7705 OM 7705 OM OM1 7705 -0.550000 15.99940
7706 OM 7706 OM OM1 7706 -0.550000 15.99940
7707 OM 7707 OM OM1 7707 -0.550000 15.99940
7708 OM 7708 OM OM1 7708 -0.550000 15.99940
7709 OM 7709 OM OM1 7709 -0.550000 15.99940
7710 OM 7710 OM OM1 7710 -0.550000 15.99940
7711 OM 7711 OM OM1 7711 -0.550000 15.99940
7712 OM 7712 OM OM1 7712 -0.550000 15.99940
7713 OM 7713 OM OM1 7713 -0.550000 15.99940
7714 OM 7714 OM OM1 7714 -0.550000 15.99940
7715 OM 7715 OM OM1 7715 -0.550000 15.99940
7716 OM 7716 OM OM1 7716 -0.550000 15.99940
7717 OM 7717 OM OM1 7717 -0.550000 15.99940
7718 OM 7718 OM OM1 7718 -0.550000 15.99940
7719 OM 7719 OM OM1 7719 -0.550000 15.99940
7720 OM 7720 OM OM1 7720 -0.550000 15.99940
7721 OM 7721 OM OM1 7721 -0.550000 15.99940
7722 OM 7722 OM OM1 7722 -0.550000 15.99940
7723 OM 7723 OM OM1 7723 -0.550000 15.99940
7724 OM 7724 OM OM1 7724 -0.550000 15.99940
7725 OM 7725 OM OM1 7725 -0.550000 15.99940
7726 OM 7726 OM OM1 7726 -0.550000 15.99940
7727 OM 7727 OM OM1 7727 -0.550000 15.99940
7728 OM 7728 OM OM1 7728 -0.550000 15.99940
7729 OM 7729 OM OM1 7729 -0.550000 15.99940
7730 OM 7730 OM OM1 7730 -0.550000 15.99940
7731 OM 7731 OM OM1 7731 -0.550000 15.99940
7732 OM 7732 OM OM1 7732 -0.550000 15.99940
7733 OM 7733 OM OM1 7733 -0.550000 15.99940
7734 OM 7734 OM OM1 7734 -0.550000 15.99940
7735 OM 7735 OM OM1 7735 -0.550000 15.99940
7736 OM 7736 OM OM1 7736 -0.550000 15.99940
7737 OM 7737 OM OM1 7737 -0.550000 15.99940
7738 OM 7738 OM OM1 7738 -0.550000 15.99940
7739 OM 7739 OM OM1 7739 -0.550000 15.99940
7740 OM 7740 OM OM1 7740 -0.550000 15.99940
7741 OM 7741 OM OM1 7741 -0.550000 15.99940
7742 OM 7742 OM OM1 7742 -0.550000 15.99940
7743 OM 7743 OM OM1 7743 -0.550000 15.99940
7744 OM 7744 OM OM1 7744 -0.550000 15.99940
7745 OM 7745 OM OM1 7745 -0.550000 15.99940
7746 OM 7746 OM OM1 7746 -0.550000 15.99940
7747 OM 7747 OM OM1 7747 -0.550000 15.99940
7748 OM 7748 OM OM1 7748 -0.550000 15.99940
7749 OM 7749 OM OM1 7749 -0.550000 15.99940
7750 OM 7750 OM OM1 7750 -0.550000 15.99940
7751 OM 7751 OM OM1 7751 -0.550000 15.99940
7752 OM 7752 OM OM1 7752 -0.550000 15.99940
7753 OM 7753 OM OM1 7753 -0.550000 15.99940
7754 OM 7754 OM OM1 7754 -0.550000 15.99940
7755 OM 7755 OM OM1 7755 -0.550000 15.99940
7756 OM 7756 OM OM1 7756 -0.550000 15.99940
7757 OM 7757 OM OM1 7757 -0.550000 15.99940
7758 OM 7758 OM OM1 7758 -0.550000 15.99940
7759 OM 7759 OM OM1 7759 -0.550000 15.99940
7760 OM 7760 OM OM1 7760 -0.550000 15.99940
7761 OM 7761 OM OM1 7761 -0.550000 15.99940
7762 OM 7762 OM OM1 7762 -0.550000 15.99940
7763 OM 7763 OM OM1 7763 -0.550000 15.99940
7764 OM 7764 OM OM1 7764 -0.550000 15.99940
7765 OM 7765 OM OM1 7765 -0.550000 15.99940
7766 OM 7766 OM OM1 7766 -0.550000 15.99940
7767 OM 7767 OM OM1 7767 -0.550000 15.99940
7768 OM 7768 OM OM1 7768 -0.550000 15.99940
7769 OM 7769 OM OM1 7769 -0.550000 15.99940
7770 OM 7770 OM OM1 7770 -0.550000 15.99940
7771 OM 7771 OM OM1 7771 -0.550000 15.99940
7772 OM 7772 OM OM1 7772 -0.550000 15.99940
7773 OM 7773 OM OM1 7773 -0.550000 15.99940
7774 OM 7774 OM OM1 7774 -0.550000 15.99940
7775 OM 7775 OM OM1 7775 -0.550000 15.99940
7776 OM 7776 OM OM1 7776 -0.550000 15.99940
7777 OM 7777 OM OM1 7777 -0.550000 15.99940
7778 OM 7778 OM OM1 7778 -0.550000 15.99940
7779 OM 7779 OM OM1 7779 -0.550000 15.99940
7780 OM 7780 OM OM1 7780 -0.550000 15.99940
7781 OM 7781 OM OM1 7781 -0.550000 15.99940
7782 OM 7782 OM OM1 7782 -0.550000 15.99940
7783 OM 7783 OM OM1 7783 -0.550000 15.99940
7784 OM 7784 OM OM1 7784 -0.550000 15.99940
7785 OM 7785 OM OM1 7785 -0.550000 15.99940
7786 OM 7786 OM OM1 7786 -0.550000 15.99940
7787 OM 7787 OM OM1 7787 -0.550000 15.99940
7788 OM 7788 OM OM1 7788 -0.550000 15.99940
7789 OM 7789 OM OM1 7789 -0.550000 15.99940
7790 OM 7790 OM OM1 7790 -0.550000 15.99940
7791 OM 7791 OM OM1 7791 -0.550000 15.99940
7792 OM 7792 OM OM1 7792 -0.550000 15.99940
7793 OM 7793 OM OM1 7793 -0.550000 15.99940
7794 OM 7794 OM OM1 7794 -0.550000 15.99940
7795 OM 7795 OM OM1 7795 -0.550000 15.99940
7796 OM 7796 OM OM1 7796 -0.550000 15.99940
7797 OM 7797 OM OM1 7797 -0.550000 15.99940
7798 OM 7798 OM OM1 7798 -0.550000 15.99940
7799 OM 7799 OM OM1 7799 -0.550000 15.99940
7800 OM 7800 OM OM1 7800 -0.550000 15.99940
7801 OM 7801 OM OM1 7801 -0.550000 15.99940
7802 OM 7802 OM OM1 7802 -0.550000 15.99940
7803 OM 7803 OM OM1 7803 -0.550000 15.99940
7804 OM 7804 OM OM1 7804 -0.550000 15.99940
7805 OM 7805 OM OM1 7805 -0.550000 15.99940
7806 OM 7806 OM OM1 7806 -0.550000 15.99940
7807 OM 7807 OM OM1 7807 -0.550000 15.99940
7808 OM 7808 OM OM1 7808 -0.550000 15.99940
7809 OM 7809 OM OM1 7809 -0.550000 15.99940
7810 OM 7810 OM OM1 7810 -0.550000 15.99940
7811 OM 7811 OM OM1 7811 -0.550000 15.99940
7812 OM 7812 OM OM1 7812 -0.550000 15.99940
7813 OM 7813 OM OM1 7813 -0.550000 15.99940
7814 OM 7814 OM OM1 7814 -0.550000 15.99940
7815 OM 7815 OM OM1 7815 -0.550000 15.99940
7816 OM 7816 OM OM1 7816 -0.550000 15.99940
7817 OM 7817 OM OM1 7817 -0.550000 15.99940
7818 OM 7818 OM OM1 7818 -0.550000 15.99940
7819 OM 7819 OM OM1 7819 -0.550000 15.99940
7820 OM 7820 OM OM1 7820 -0.550000 15.99940
7821 OM 7821 OM OM1 7821 -0.550000 15.99940
7822 OM 7822 OM OM1 7822 -0.550000 15.99940
7823 OM 7823 OM OM1 7823 -0.550000 15.99940
7824 OM 7824 OM OM1 7824 -0.550000 15.99940
7825 OM 7825 OM OM1 7825 -0.550000 15.99940
7826 OM 7826 OM OM1 7826 -0.550000 15.99940
7827 OM 7827 OM OM1 7827 -0.550000 15.99940
7828 OM 7828 OM OM1 7828 -0.550000 15.99940
7829 OM 7829 OM OM1 7829 -0.550000 15.99940
7830 OM 7830 OM OM1 7830 -0.550000 15.99940
7831 OM 7831 OM OM1 7831 -0.550000 15.99940
7832 OM 7832 OM OM1 7832 -0.550000 15.99940
7833 OM 7833 OM OM1 7833 -0.550000 15.99940
7834 OM 7834 OM OM1 7834 -0.550000 15.99940
7835 OM 7835 OM OM1 7835 -0.550000 15.99940
7836 OM 7836 OM OM1 7836 -0.550000 15.99940
7837 OM 7837 OM OM1 7837 -0.550000 15.99940
7838 OM 7838 OM OM1 7838 -0.550000 15.99940
7839 OM 7839 OM OM1 7839 -0.550000 15.99940
7840 OM 7840 OM OM1 7840 -0.550000 15.99940
7841 OM 7841 OM OM1 7841 -0.550000 15.99940
7842 OM 7842 OM OM1 7842 -0.550000 15.99940
7843 OM 7843 OM OM1 7843 -0.550000 15.99940
7844 OM 7844 OM OM1 7844 -0.550000 15.99940
7845 OM 7845 OM OM1 7845 -0.550000 15.99940
7846 OM 7846 OM OM1 7846 -0.550000 15.99940
7847 OM 7847 OM OM1 7847 -0.550000 15.99940
7848 OM 7848 OM OM1 7848 -0.550000 15.99940
7849 OM 7849 OM OM1 7849 -0.550000 15.99940
7850 OM 7850 OM OM1 7850 -0.550000 15.99940
7851 OM 7851 OM OM1 7851 -0.550000 15.99940
7852 OM 7852 OM OM1 7852 -0.550000 15.99940
7853 OM 7853 OM OM1 7853 -0.550000 15.99940
7854 OM 7854 OM OM1 7854 -0.550000 15.99940
7855 OM 7855 OM OM1 7855 -0.550000 15.99940
7856 OM 7856 OM OM1 7856 -0.550000 15.99940
7857 OM 7857 OM OM1 7857 -0.550000 15.99940
7858 OM 7858 OM OM1 7858 -0.550000 15.99940
7859 OM 7859 OM OM1 7859 -0.550000 15.99940
7860 OM 7860 OM OM1 7860 -0.550000 15.99940
7861 OM 7861 OM OM1 7861 -0.550000 15.99940
7862 OM 7862 OM OM1 7862 -0.550000 15.99940
7863 OM 7863 OM OM1 7863 -0.550000 15.99940
7864 OM 7864 OM OM1 7864 -0.550000 15.99940
7865 OM 7865 OM OM1 7865 -0.550000 15.99940
7866 OM 7866 OM OM1 7866 -0.550000 15.99940
7867 OM 7867 OM OM1 7867 -0.550000 15.99940
7868 OM 7868 OM OM1 7868 -0.550000 15.99940
7869 OM 7869 OM OM1 7869 -0.550000 15.99940
7870 OM 7870 OM OM1 7870 -0.550000 15.99940
7871 OM 7871 OM OM1 7871 -0.550000 15.99940
7872 OM 7872 OM OM1 7872 -0.550000 15.99940
7873 OM 7873 OM OM1 7873 -0.550000 15.99940
7874 OM 7874 OM OM1 7874 -0.550000 15.99940
7875 OM 7875 OM OM1 7875 -0.550000 15.99940
7876 OM 7876 OM OM1 7876 -0.550000 15.99940
7877 OM 7877 OM OM1 7877 -0.550000 15.99940
7878 OM 7878 OM OM1 7878 -0.550000 15.99940
7879 OM 7879 OM OM1 7879 -0.550000 15.99940
7880 OM 7880 OM OM1 7880 -0.550000 15.99940
7881 OM 7881 OM OM1 7881 -0.550000 15.99940
7882 OM 7882 OM OM1 7882 -0.550000 15.99940
7883 OM 7883 OM OM1 7883 -0.550000 15.99940
7884 OM 7884 OM OM1 7884 -0.550000 15.99940
7885 OM 7885 OM OM1 7885 -0.550000 15.99940
7886 OM 7886 OM OM1 7886 -0.550000 15.99940
7887 OM 7887 OM OM1 7887 -0.550000 15.99940
7888 OM 7888 OM OM1 7888 -0.550000 15.99940
7889 OM 7889 OM OM1 7889 -0.550000 15.99940
7890 OM 7890 OM OM1 7890 -0.550000 15.99940
7891 OM 7891 OM OM1 7891 -0.550000 15.99940
7892 OM 7892 OM OM1 7892 -0.550000 15.99940
7893 OM 7893 OM OM1 7893 -0.550000 15.99940
7894 OM 7894 OM OM1 7894 -0.550000 15.99940
7895 OM 7895 OM OM1 7895 -0.550000 15.99940
7896 OM 7896 OM OM1 7896 -0.550000 15.99940
7897 OM 7897 OM OM1 7897 -0.550000 15.99940
7898 OM 7898 OM OM1 7898 -0.550000 15.99940
7899 OM 7899 OM OM1 7899 -0.550000 15.99940
7900 OM 7900 OM OM1 7900 -0.550000 15.99940
7901 OM 7901 OM OM1 7901 -0.550000 15.99940
7902 OM 7902 OM OM1 7902 -0.550000 15.99940
7903 OM 7903 OM OM1 7903 -0.550000 15.99940
7904 OM 7904 OM OM1 7904 -0.550000 15.99940
7905 OM 7905 OM OM1 7905 -0.550000 15.99940
7906 OM 7906 OM OM1 7906 -0.550000 15.99940
7907 OM 7907 OM OM1 7907 -0.550000 15.99940
7908 OM 7908 OM OM1 7908 -0.550000 15.99940
7909 OM 7909 OM OM1 7909 -0.550000 15.99940
7910 OM 7910 OM OM1 7910 -0.550000 15.99940
7911 OM 7911 OM OM1 7911 -0.550000 15.99940
7912 OM 7912 OM OM1 7912 -0.550000 15.99940
7913 OM 7913 OM OM1 7913 -0.550000 15.99940
7914 OM 7914 OM OM1 7914 -0.550000 15.99940
7915 OM 7915 OM OM1 7915 -0.550000 15.99940
7916 OM 7916 OM OM1 7916 -0.550000 15.99940
7917 OM 7917 OM OM1 7917 -0.550000 15.99940
7918 OM 7918 OM OM1 7918 -0.550000 15.99940
7919 OM 7919 OM OM1 7919 -0.550000 15.99940
7920 OM 7920 OM OM1 7920 -0.550000 15.99940
7921 OM 7921 OM OM1 7921 -0.550000 15.99940
7922 OM 7922 OM OM1 7922 -0.550000 15.99940
7923 OM 7923 OM OM1 7923 -0.550000 15.99940
7924 OM 7924 OM OM1 7924 -0.550000 15.99940
7925 OM 7925 OM OM1 7925 -0.550000 15.99940
7926 OM 7926 OM OM1 7926 -0.550000 15.99940
7927 OM 7927 OM OM1 7927 -0.550000 15.99940
7928 OM 7928 OM OM1 7928 -0.550000 15.99940
7929 OM 7929 OM OM1 7929 -0.550000 15.99940
7930 OM 7930 OM OM1 7930 -0.550000 15.99940
7931 OM 7931 OM OM1 7931 -0.550000 15.99940
7932 OM 7932 OM OM1 7932 -0.550000 15.99940
7933 OM 7933 OM OM1 7933 -0.550000 15.99940
7934 OM 7934 OM OM1 7934 -0.550000 15.99940
7935 OM 7935 OM OM1 7935 -0.550000 15.99940
7936 OM 7936 OM OM1 7936 -0.550000 15.99940
7937 OM 7937 OM OM1 7937 -0.550000 15.99940
7938 OM 7938 OM OM1 7938 -0.550000 15.99940
7939 OM 7939 OM OM1 7939 -0.550000 15.99940
7940 OM 7940 OM OM1 7940 -0.550000 15.99940
7941 OM 7941 OM OM1 7941 -0.550000 15.99940
7942 OM 7942 OM OM1 7942 -0.550000 15.99940
7943 OM 7943 OM OM1 7943 -0.550000 15.99940
7944 OM 7944 OM OM1 7944 -0.550000 15.99940
7945 OM 7945 OM OM1 7945 -0.550000 15.99940
7946 OM 7946 OM OM1 7946 -0.550000 15.99940
7947 OM 7947 OM OM1 7947 -0.550000 15.99940
7948 OM 7948 OM OM1 7948 -0.550000 15.99940
7949 OM 7949 OM OM1 7949 -0.550000 15.99940
7950 OM 7950 OM OM1 7950 -0.550000 15.99940
7951 OM 7951 OM OM1 7951 -0.550000 15.99940
7952 OM 7952 OM OM1 7952 -0.550000 15.99940
7953 OM 7953 OM OM1 7953 -0.550000 15.99940
7954 OM 7954 OM OM1 7954 -0.550000 15.99940
7955 OM 7955 OM OM1 7955 -0.550000 15.99940
7956 OM 7956 OM OM1 7956 -0.550000 15.99940
7957 OM 7957 OM OM1 7957 -0.550000 15.99940
7958 OM 7958 OM OM1 7958 -0.550000 15.99940
7959 OM 7959 OM OM1 7959 -0.550000 15.99940
7960 OM 7960 OM OM1 7960 -0.550000 15.99940
7961 OM 7961 OM OM1 7961 -0.550000 15.99940
7962 OM 7962 OM OM1 7962 -0.550000 15.99940
7963 OM 7963 OM OM1 7963 -0.550000 15.99940
7964 OM 7964 OM OM1 7964 -0.550000 15.99940
7965 OM 7965 OM OM1 7965 -0.550000 15.99940
7966 OM 7966 OM OM1 7966 -0.550000 15.99940
7967 OM 7967 OM OM1 7967 -0.550000 15.99940
7968 OM 7968 OM OM1 7968 -0.550000 15.99940
7969 OM 7969 OM OM1 7969 -0.550000 15.99940
7970 OM 7970 OM OM1 7970 -0.550000 15.99940
7971 OM 7971 OM OM1 7971 -0.550000 15.99940
7972 OM 7972 OM OM1 7972 -0.550000 15.99940
7973 OM 7973 OM OM1 7973 -0.550000 15.99940
7974 OM 7974 OM OM1 7974 -0.550000 15.99940
7975 OM 7975 OM OM1 7975 -0.550000 15.99940
7976 OM 7976 OM OM1 7976 -0.550000 15.99940
7977 OM 7977 OM OM1 7977 -0.550000 15.99940
7978 OM 7978 OM OM1 7978 -0.550000 15.99940
7979 OM 7979 OM OM1 7979 -0.550000 15.99940
7980 OM 7980 OM OM1 7980 -0.550000 15.99940
7981 OM 7981 OM OM1 7981 -0.550000 15.99940
7982 OM 7982 OM OM1 7982 -0.550000 15.99940
7983 OM 7983 OM OM1 7983 -0.550000 15.99940
7984 OM 7984 OM OM1 7984 -0.550000 15.99940
7985 OM 7985 OM OM1 7985 -0.550000 15.99940
7986 OM 7986 OM OM1 7986 -0.550000 15.99940
7987 OM 7987 OM OM1 7987 -0.550000 15.99940
7988 OM 7988 OM OM1 7988 -0.550000 15.99940
7989 OM 7989 OM OM1 7989 -0.550000 15.99940
7990 OM 7990 OM OM1 7990 -0.550000 15.99940
7991 OM 7991 OM OM1 7991 -0.550000 15.99940
7992 OM 7992 OM OM1 7992 -0.550000 15.99940
7993 OM 7993 OM OM1 7993 -0.550000 15.99940
7994 OM 7994 OM OM1 7994 -0.550000 15.99940
7995 OM 7995 OM OM1 7995 -0.550000 15.99940
7996 OM 7996 OM OM1 7996 -0.550000 15.99940
7997 OM 7997 OM OM1 7997 -0.550000 15.99940
7998 OM 7998 OM OM1 7998 -0.550000 15.99940
7999 OM 7999 OM OM1 7999 -0.550000 15.99940
8000 OM 8000 OM OM1 8000 -0.550000 15.99940
8001 OM 8001 OM OM1 8001 -0.550000 15.99940
8002 OM 8002 OM OM1 8002 -0.550000 15.99940
8003 OM 8003 OM OM1 8003 -0.550000 15.99940
8004 OM 8004 OM OM1 8004 -0.550000 15.99940
8005 OM 8005 OM OM1 8005 -0.550000 15.99940
8006 OM 8006 OM OM1 8006 -0.550000 15.99940
8007 OM 8007 OM OM1 8007 -0.550000 15.99940
8008 OM 8008 OM OM1 8008 -0.550000 15.99940
8009 OM 8009 OM OM1 8009 -0.550000 15.99940
8010 OM 8010 OM OM1 8010 -0.550000 15.99940
8011 OM 8011 OM OM1 8011 -0.550000 15.99940
8012 OM 8012 OM OM1 8012 -0.550000 15.99940
8013 OM 8013 OM OM1 8013 -0.550000 15.99940
8014 OM 8014 OM OM1 8014 -0.550000 15.99940
8015 OM 8015 OM OM1 8015 -0.550000 15.99940
8016 OM 8016 OM OM1 8016 -0.550000 15.99940
8017 OM 8017 OM OM1 8017 -0.550000 15.99940
8018 OM 8018 OM OM1 8018 -0.550000 15.99940
8019 OM 8019 OM OM1 8019 -0.550000 15.99940
8020 OM 8020 OM OM1 8020 -0.550000 15.99940
8021 OM 8021 OM OM1 8021 -0.550000 15.99940
8022 OM 8022 OM OM1 8022 -0.550000 15.99940
8023 OM 8023 OM OM1 8023 -0.550000 15.99940
8024 OM 8024 OM OM1 8024 -0.550000 15.99940
8025 OM 8025 OM OM1 8025 -0.550000 15.99940
8026 OM 8026 OM OM1 8026 -0.550000 15.99940
8027 OM 8027 OM OM1 8027 -0.550000 15.99940
8028 OM 8028 OM OM1 8028 -0.550000 15.99940
8029 OM 8029 OM OM1 8029 -0.550000 15.99940
8030 OM 8030 OM OM1 8030 -0.550000 15.99940
8031 OM 8031 OM OM1 8031 -0.550000 15.99940
8032 OM 8032 OM OM1 8032 -0.550000 15.99940
8033 OM 8033 OM OM1 8033 -0.550000 15.99940
8034 OM 8034 OM OM1 8034 -0.550000 15.99940
8035 OM 8035 OM OM1 8035 -0.550000 15.99940
8036 OM 8036 OM OM1 8036 -0.550000 15.99940
8037 OM 8037 OM OM1 8037 -0.550000 15.99940
8038 OM 8038 OM OM1 8038 -0.550000 15.99940
8039 OM 8039 OM OM1 8039 -0.550000 15.99940
8040 OM 8040 OM OM1 8040 -0.550000 15.99940
8041 OM 8041 OM OM1 8041 -0.550000 15.99940
8042 OM 8042 OM OM1 8042 -0.550000 15.99940
8043 OM 8043 OM OM1 8043 -0.550000 15.99940
8044 OM 8044 OM OM1 8044 -0.550000 15.99940
8045 OM 8045 OM OM1 8045 -0.550000 15.99940
8046 OM 8046 OM OM1 8046 -0.550000 15.99940
8047 OM 8047 OM OM1 8047 -0.550000 15.99940
8048 OM 8048 OM OM1 8048 -0.550000 15.99940
8049 OM 8049 OM OM1 8049 -0.550000 15.99940
8050 OM 8050 OM OM1 8050 -0.550000 15.99940
8051 OM 8051 OM OM1 8051 -0.550000 15.99940
8052 OM 8052 OM OM1 8052 -0.550000 15.99940
8053 OM 8053 OM OM1 8053 -0.550000 15.99940
8054 OM 8054 OM OM1 8054 -0.550000 15.99940
8055 OM 8055 OM OM1 8055 -0.550000 15.99940
8056 OM 8056 OM OM1 8056 -0.550000 15.99940
8057 OM 8057 OM OM1 8057 -0.550000 15.99940
8058 OM 8058 OM OM1 8058 -0.550000 15.99940
8059 OM 8059 OM OM1 8059 -0.550000 15.99940
8060 OM 8060 OM OM1 8060 -0.550000 15.99940
8061 OM 8061 OM OM1 8061 -0.550000 15.99940
8062 OM 8062 OM OM1 8062 -0.550000 15.99940
8063 OM 8063 OM OM1 8063 -0.550000 15.99940
8064 OM 8064 OM OM1 8064 -0.550000 15.99940
8065 OM 8065 OM OM1 8065 -0.550000 15.99940
8066 OM 8066 OM OM1 8066 -0.550000 15.99940
8067 OM 8067 OM OM1 8067 -0.550000 15.99940
8068 OM 8068 OM OM1 8068 -0.550000 15.99940
8069 OM 8069 OM OM1 8069 -0.550000 15.99940
8070 OM 8070 OM OM1 8070 -0.550000 15.99940
8071 OM 8071 OM OM1 8071 -0.550000 15.99940
8072 OM 8072 OM OM1 8072 -0.550000 15.99940
8073 OM 8073 OM OM1 8073 -0.550000 15.99940
8074 OM 8074 OM OM1 8074 -0.550000 15.99940
8075 OM 8075 OM OM1 8075 -0.550000 15.99940
8076 OM 8076 OM OM1 8076 -0.550000 15.99940
8077 OM 8077 OM OM1 8077 -0.550000 15.99940
8078 OM 8078 OM OM1 8078 -0.550000 15.99940
8079 OM 8079 OM OM1 8079 -0.550000 15.99940
8080 OM 8080 OM OM1 8080 -0.550000 15.99940
8081 OM 8081 OM OM1 8081 -0.550000 15.99940
8082 OM 8082 OM OM1 8082 -0.550000 15.99940
8083 OM 8083 OM OM1 8083 -0.550000 15.99940
8084 OM 8084 OM OM1 8084 -0.550000 15.99940
8085 OM 8085 OM OM1 8085 -0.550000 15.99940
8086 OM 8086 OM OM1 8086 -0.550000 15.99940
8087 OM 8087 OM OM1 8087 -0.550000 15.99940
8088 OM 8088 OM OM1 8088 -0.550000 15.99940
8089 OM 8089 OM OM1 8089 -0.550000 15.99940
8090 OM 8090 OM OM1 8090 -0.550000 15.99940
8091 OM 8091 OM OM1 8091 -0.550000 15.99940
8092 OM 8092 OM OM1 8092 -0.550000 15.99940
8093 OM 8093 OM OM1 8093 -0.550000 15.99940
8094 OM 8094 OM OM1 8094 -0.550000 15.99940
8095 OM 8095 OM OM1 8095 -0.550000 15.99940
8096 OM 8096 OM OM1 8096 -0.550000 15.99940
8097 OM 8097 OM OM1 8097 -0.550000 15.99940
8098 OM 8098 OM OM1 8098 -0.550000 15.99940
8099 OM 8099 OM OM1 8099 -0.550000 15.99940
8100 OM 8100 OM OM1 8100 -0.550000 15.99940
8101 OM 8101 OM OM1 8101 -0.550000 15.99940
8102 OM 8102 OM OM1 8102 -0.550000 15.99940
8103 OM 8103 OM OM1 8103 -0.550000 15.99940
8104 OM 8104 OM OM1 8104 -0.550000 15.99940
8105 OM 8105 OM OM1 8105 -0.550000 15.99940
8106 OM 8106 OM OM1 8106 -0.550000 15.99940
8107 OM 8107 OM OM1 8107 -0.550000 15.99940
8108 OM 8108 OM OM1 8108 -0.550000 15.99940
8109 OM 8109 OM OM1 8109 -0.550000 15.99940
8110 OM 8110 OM OM1 8110 -0.550000 15.99940
8111 OM 8111 OM OM1 8111 -0.550000 15.99940
8112 OM 8112 OM OM1 8112 -0.550000 15.99940
8113 OM 8113 OM OM1 8113 -0.550000 15.99940
8114 OM 8114 OM OM1 8114 -0.550000 15.99940
8115 OM 8115 OM OM1 8115 -0.550000 15.99940
8116 OM 8116 OM OM1 8116 -0.550000 15.99940
8117 OM 8117 OM OM1 8117 -0.550000 15.99940
8118 OM 8118 OM OM1 8118 -0.550000 15.99940
8119 OM 8119 OM OM1 8119 -0.550000 15.99940
8120 OM 8120 OM OM1 8120 -0.550000 15.99940
8121 OM 8121 OM OM1 8121 -0.550000 15.99940
8122 OM 8122 OM OM1 8122 -0.550000 15.99940
8123 OM 8123 OM OM1 8123 -0.550000 15.99940
8124 OM 8124 OM OM1 8124 -0.550000 15.99940
8125 OM 8125 OM OM1 8125 -0.550000 15.99940
8126 OM 8126 OM OM1 8126 -0.550000 15.99940
8127 OM 8127 OM OM1 8127 -0.550000 15.99940
8128 OM 8128 OM OM1 8128 -0.550000 15.99940
8129 OM 8129 OM OM1 8129 -0.550000 15.99940
8130 OM 8130 OM OM1 8130 -0.550000 15.99940
8131 OM 8131 OM OM1 8131 -0.550000 15.99940
8132 OM 8132 OM OM1 8132 -0.550000 15.99940
8133 OM 8133 OM OM1 8133 -0.550000 15.99940
8134 OM 8134 OM OM1 8134 -0.550000 15.99940
8135 OM 8135 OM OM1 8135 -0.550000 15.99940
8136 OM 8136 OM OM1 8136 -0.550000 15.99940
8137 OM 8137 OM OM1 8137 -0.550000 15.99940
8138 OM 8138 OM OM1 8138 -0.550000 15.99940
8139 OM 8139 OM OM1 8139 -0.550000 15.99940
8140 OM 8140 OM OM1 8140 -0.550000 15.99940
8141 OM 8141 OM OM1 8141 -0.550000 15.99940
8142 OM 8142 OM OM1 8142 -0.550000 15.99940
8143 OM 8143 OM OM1 8143 -0.550000 15.99940
8144 OM 8144 OM OM1 8144 -0.550000 15.99940
8145 OM 8145 OM OM1 8145 -0.550000 15.99940
8146 OM 8146 OM OM1 8146 -0.550000 15.99940
8147 OM 8147 OM OM1 8147 -0.550000 15.99940
8148 OM 8148 OM OM1 8148 -0.550000 15.99940
8149 OM 8149 OM OM1 8149 -0.550000 15.99940
8150 OM 8150 OM OM1 8150 -0.550000 15.99940
8151 OM 8151 OM OM1 8151 -0.550000 15.99940
8152 OM 8152 OM OM1 8152 -0.550000 15.99940
8153 OM 8153 OM OM1 8153 -0.550000 15.99940
8154 OM 8154 OM OM1 8154 -0.550000 15.99940
8155 OM 8155 OM OM1 8155 -0.550000 15.99940
8156 OM 8156 OM OM1 8156 -0.550000 15.99940
8157 OM 8157 OM OM1 8157 -0.550000 15.99940
8158 OM 8158 OM OM1 8158 -0.550000 15.99940
8159 OM 8159 OM OM1 8159 -0.550000 15.99940
8160 OM 8160 OM OM1 8160 -0.550000 15.99940
8161 OM 8161 OM OM1 8161 -0.550000 15.99940
8162 OM 8162 OM OM1 8162 -0.550000 15.99940
8163 OM 8163 OM OM1 8163 -0.550000 15.99940
8164 OM 8164 OM OM1 8164 -0.550000 15.99940
8165 OM 8165 OM OM1 8165 -0.550000 15.99940
8166 OM 8166 OM OM1 8166 -0.550000 15.99940
8167 OM 8167 OM OM1 8167 -0.550000 15.99940
8168 OM 8168 OM OM1 8168 -0.550000 15.99940
8169 OM 8169 OM OM1 8169 -0.550000 15.99940
8170 OM 8170 OM OM1 8170 -0.550000 15.99940
8171 OM 8171 OM OM1 8171 -0.550000 15.99940
8172 OM 8172 OM OM1 8172 -0.550000 15.99940
8173 OM 8173 OM OM1 8173 -0.550000 15.99940
8174 OM 8174 OM OM1 8174 -0.550000 15.99940
8175 OM 8175 OM OM1 8175 -0.550000 15.99940
8176 OM 8176 OM OM1 8176 -0.550000 15.99940
8177 OM 8177 OM OM1 8177 -0.550000 15.99940
8178 OM 8178 OM OM1 8178 -0.550000 15.99940
8179 OM 8179 OM OM1 8179 -0.550000 15.99940
8180 OM 8180 OM OM1 8180 -0.550000 15.99940
8181 OM 8181 OM OM1 8181 -0.550000 15.99940
8182 OM 8182 OM OM1 8182 -0.550000 15.99940
8183 OM 8183 OM OM1 8183 -0.550000 15.99940
8184 OM 8184 OM OM1 8184 -0.550000 15.99940
8185 OM 8185 OM OM1 8185 -0.550000 15.99940
8186 OM 8186 OM OM1 8186 -0.550000 15.99940
8187 OM 8187 OM OM1 8187 -0.550000 15.99940
8188 OM 8188 OM OM1 8188 -0.550000 15.99940
8189 OM 8189 OM OM1 8189 -0.550000 15.99940
8190 OM 8190 OM OM1 8190 -0.550000 15.99940
8191 OM 8191 OM OM1 8191 -0.550000 15.99940
8192 OM 8192 OM OM1 8192 -0.550000 15.99940
8193 OM 8193 OM OM1 8193 -0.550000 15.99940
8194 OM 8194 OM OM1 8194 -0.550000 15.99940
8195 OM 8195 OM OM1 8195 -0.550000 15.99940
8196 OM 8196 OM OM1 8196 -0.550000 15.99940
8197 OM 8197 OM OM1 8197 -0.550000 15.99940
8198 OM 8198 OM OM1 8198 -0.550000 15.99940
8199 OM 8199 OM OM1 8199 -0.550000 15.99940
8200 OM 8200 OM OM1 8200 -0.550000 15.99940
8201 OM 8201 OM OM1 8201 -0.550000 15.99940
8202 OM 8202 OM OM1 8202 -0.550000 15.99940
8203 OM 8203 OM OM1 8203 -0.550000 15.99940
8204 OM 8204 OM OM1 8204 -0.550000 15.99940
8205 OM 8205 OM OM1 8205 -0.550000 15.99940
8206 OM 8206 OM OM1 8206 -0.550000 15.99940
8207 OM 8207 OM OM1 8207 -0.550000 15.99940
8208 OM 8208 OM OM1 8208 -0.550000 15.99940
8209 OM 8209 OM OM1 8209 -0.550000 15.99940
8210 OM 8210 OM OM1 8210 -0.550000 15.99940
8211 OM 8211 OM OM1 8211 -0.550000 15.99940
8212 OM 8212 OM OM1 8212 -0.550000 15.99940
8213 OM 8213 OM OM1 8213 -0.550000 15.99940
8214 OM 8214 OM OM1 8214 -0.550000 15.99940
8215 OM 8215 OM OM1 8215 -0.550000 15.99940
8216 OM 8216 OM OM1 8216 -0.550000 15.99940
8217 OM 8217 OM OM1 8217 -0.550000 15.99940
8218 OM 8218 OM OM1 8218 -0.550000 15.99940
8219 OM 8219 OM OM1 8219 -0.550000 15.99940
8220 OM 8220 OM OM1 8220 -0.550000 15.99940
8221 OM 8221 OM OM1 8221 -0.550000 15.99940
8222 OM 8222 OM OM1 8222 -0.550000 15.99940
8223 OM 8223 OM OM1 8223 -0.550000 15.99940
8224 OM 8224 OM OM1 8224 -0.550000 15.99940
8225 OM 8225 OM OM1 8225 -0.550000 15.99940
8226 OM 8226 OM OM1 8226 -0.550000 15.99940
8227 OM 8227 OM OM1 8227 -0.550000 15.99940
8228 OM 8228 OM OM1 8228 -0.550000 15.99940
8229 OM 8229 OM OM1 8229 -0.550000 15.99940
8230 OM 8230 OM OM1 8230 -0.550000 15.99940
8231 OM 8231 OM OM1 8231 -0.550000 15.99940
8232 OM 8232 OM OM1 8232 -0.550000 15.99940
8233 OM 8233 OM OM1 8233 -0.550000 15.99940
8234 OM 8234 OM OM1 8234 -0.550000 15.99940
8235 OM 8235 OM OM1 8235 -0.550000 15.99940
8236 OM 8236 OM OM1 8236 -0.550000 15.99940
8237 OM 8237 OM OM1 8237 -0.550000 15.99940
8238 OM 8238 OM OM1 8238 -0.550000 15.99940
8239 OM 8239 OM OM1 8239 -0.550000 15.99940
8240 OM 8240 OM OM1 8240 -0.550000 15.99940
8241 OM 8241 OM OM1 8241 -0.550000 15.99940
8242 OM 8242 OM OM1 8242 -0.550000 15.99940
8243 OM 8243 OM OM1 8243 -0.550000 15.99940
8244 OM 8244 OM OM1 8244 -0.550000 15.99940
8245 OM 8245 OM OM1 8245 -0.550000 15.99940
8246 OM 8246 OM OM1 8246 -0.550000 15.99940
8247 OM 8247 OM OM1 8247 -0.550000 15.99940
8248 OM 8248 OM OM1 8248 -0.550000 15.99940
8249 OM 8249 OM OM1 8249 -0.550000 15.99940
8250 OM 8250 OM OM1 8250 -0.550000 15.99940
8251 OM 8251 OM OM1 8251 -0.550000 15.99940
8252 OM 8252 OM OM1 8252 -0.550000 15.99940
8253 OM 8253 OM OM1 8253 -0.550000 15.99940
8254 OM 8254 OM OM1 8254 -0.550000 15.99940
8255 OM 8255 OM OM1 8255 -0.550000 15.99940
8256 OM 8256 OM OM1 8256 -0.550000 15.99940
8257 OM 8257 OM OM1 8257 -0.550000 15.99940
8258 OM 8258 OM OM1 8258 -0.550000 15.99940
8259 OM 8259 OM OM1 8259 -0.550000 15.99940
8260 OM 8260 OM OM1 8260 -0.550000 15.99940
8261 OM 8261 OM OM1 8261 -0.550000 15.99940
8262 OM 8262 OM OM1 8262 -0.550000 15.99940
8263 OM 8263 OM OM1 8263 -0.550000 15.99940
8264 OM 8264 OM OM1 8264 -0.550000 15.99940
8265 OM 8265 OM OM1 8265 -0.550000 15.99940
8266 OM 8266 OM OM1 8266 -0.550000 15.99940
8267 OM 8267 OM OM1 8267 -0.550000 15.99940
8268 OM 8268 OM OM1 8268 -0.550000 15.99940
8269 OM 8269 OM OM1 8269 -0.550000 15.99940
8270 OM 8270 OM OM1 8270 -0.550000 15.99940
8271 OM 8271 OM OM1 8271 -0.550000 15.99940
8272 OM 8272 OM OM1 8272 -0.550000 15.99940
8273 OM 8273 OM OM1 8273 -0.550000 15.99940
8274 OM 8274 OM OM1 8274 -0.550000 15.99940
8275 OM 8275 OM OM1 8275 -0.550000 15.99940
8276 OM 8276 OM OM1 8276 -0.550000 15.99940
8277 OM 8277 OM OM1 8277 -0.550000 15.99940
8278 OM 8278 OM OM1 8278 -0.550000 15.99940
8279 OM 8279 OM OM1 8279 -0.550000 15.99940
8280 OM 8280 OM OM1 8280 -0.550000 15.99940
8281 OM 8281 OM OM1 8281 -0.550000 15.99940
8282 OM 8282 OM OM1 8282 -0.550000 15.99940
8283 OM 8283 OM OM1 8283 -0.550000 15.99940
8284 OM 8284 OM OM1 8284 -0.550000 15.99940
8285 OM 8285 OM OM1 8285 -0.550000 15.99940
8286 OM 8286 OM OM1 8286 -0.550000 15.99940
8287 OM 8287 OM OM1 8287 -0.550000 15.99940
8288 OM 8288 OM OM1 8288 -0.550000 15.99940
8289 OM 8289 OM OM1 8289 -0.550000 15.99940
8290 OM 8290 OM OM1 8290 -0.550000 15.99940
8291 OM 8291 OM OM1 8291 -0.550000 15.99940
8292 OM 8292 OM OM1 8292 -0.550000 15.99940
8293 OM 8293 OM OM1 8293 -0.550000 15.99940
8294 OM 8294 OM OM1 8294 -0.550000 15.99940
8295 OM 8295 OM OM1 8295 -0.550000 15.99940
8296 OM 8296 OM OM1 8296 -0.550000 15.99940
8297 OM 8297 OM OM1 8297 -0.550000 15.99940
8298 OM 8298 OM OM1 8298 -0.550000 15.99940
8299 OM 8299 OM OM1 8299 -0.550000 15.99940
8300 OM 8300 OM OM1 8300 -0.550000 15.99940
8301 OM 8301 OM OM1 8301 -0.550000 15.99940
8302 OM 8302 OM OM1 8302 -0.550000 15.99940
8303 OM 8303 OM OM1 8303 -0.550000 15.99940
8304 OM 8304 OM OM1 8304 -0.550000 15.99940
8305 OM 8305 OM OM1 8305 -0.550000 15.99940
8306 OM 8306 OM OM1 8306 -0.550000 15.99940
8307 OM 8307 OM OM1 8307 -0.550000 15.99940
8308 OM 8308 OM OM1 8308 -0.550000 15.99940
8309 OM 8309 OM OM1 8309 -0.550000 15.99940
8310 OM 8310 OM OM1 8310 -0.550000 15.99940
8311 OM 8311 OM OM1 8311 -0.550000 15.99940
8312 OM 8312 OM OM1 8312 -0.550000 15.99940
8313 OM 8313 OM OM1 8313 -0.550000 15.99940
8314 OM 8314 OM OM1 8314 -0.550000 15.99940
8315 OM 8315 OM OM1 8315 -0.550000 15.99940
8316 OM 8316 OM OM1 8316 -0.550000 15.99940
8317 OM 8317 OM OM1 8317 -0.550000 15.99940
8318 OM 8318 OM OM1 8318 -0.550000 15.99940
8319 OM 8319 OM OM1 8319 -0.550000 15.99940
8320 OM 8320 OM OM1 8320 -0.550000 15.99940
8321 OM 8321 OM OM1 8321 -0.550000 15.99940
8322 OM 8322 OM OM1 8322 -0.550000 15.99940
8323 OM 8323 OM OM1 8323 -0.550000 15.99940
8324 OM 8324 OM OM1 8324 -0.550000 15.99940
8325 OM 8325 OM OM1 8325 -0.550000 15.99940
8326 OM 8326 OM OM1 8326 -0.550000 15.99940
8327 OM 8327 OM OM1 8327 -0.550000 15.99940
8328 OM 8328 OM OM1 8328 -0.550000 15.99940
8329 OM 8329 OM OM1 8329 -0.550000 15.99940
8330 OM 8330 OM OM1 8330 -0.550000 15.99940
8331 OM 8331 OM OM1 8331 -0.550000 15.99940
8332 OM 8332 OM OM1 8332 -0.550000 15.99940
8333 OM 8333 OM OM1 8333 -0.550000 15.99940
8334 OM 8334 OM OM1 8334 -0.550000 15.99940
8335 OM 8335 OM OM1 8335 -0.550000 15.99940
8336 OM 8336 OM OM1 8336 -0.550000 15.99940
8337 OM 8337 OM OM1 8337 -0.550000 15.99940
8338 OM 8338 OM OM1 8338 -0.550000 15.99940
8339 OM 8339 OM OM1 8339 -0.550000 15.99940
8340 OM 8340 OM OM1 8340 -0.550000 15.99940
8341 OM 8341 OM OM1 8341 -0.550000 15.99940
8342 OM 8342 OM OM1 8342 -0.550000 15.99940
8343 OM 8343 OM OM1 8343 -0.550000 15.99940
8344 OM 8344 OM OM1 8344 -0.550000 15.99940
8345 OM 8345 OM OM1 8345 -0.550000 15.99940
8346 OM 8346 OM OM1 8346 -0.550000 15.99940
8347 OM 8347 OM OM1 8347 -0.550000 15.99940
8348 OM 8348 OM OM1 8348 -0.550000 15.99940
8349 OM 8349 OM OM1 8349 -0.550000 15.99940
8350 OM 8350 OM OM1 8350 -0.550000 15.99940
8351 OM 8351 OM OM1 8351 -0.550000 15.99940
8352 OM 8352 OM OM1 8352 -0.550000 15.99940
8353 OM 8353 OM OM1 8353 -0.550000 15.99940
8354 OM 8354 OM OM1 8354 -0.550000 15.99940
8355 OM 8355 OM OM1 8355 -0.550000 15.99940
8356 OM 8356 OM OM1 8356 -0.550000 15.99940
8357 OM 8357 OM OM1 8357 -0.550000 15.99940
8358 OM 8358 OM OM1 8358 -0.550000 15.99940
8359 OM 8359 OM OM1 8359 -0.550000 15.99940
8360 OM 8360 OM OM1 8360 -0.550000 15.99940
8361 OM 8361 OM OM1 8361 -0.550000 15.99940
8362 OM 8362 OM OM1 8362 -0.550000 15.99940
8363 OM 8363 OM OM1 8363 -0.550000 15.99940
8364 OM 8364 OM OM1 8364 -0.550000 15.99940
8365 OM 8365 OM OM1 8365 -0.550000 15.99940
8366 OM 8366 OM OM1 8366 -0.550000 15.99940
8367 OM 8367 OM OM1 8367 -0.550000 15.99940
8368 OM 8368 OM OM1 8368 -0.550000 15.99940
8369 OM 8369 OM OM1 8369 -0.550000 15.99940
8370 OM 8370 OM OM1 8370 -0.550000 15.99940
8371 OM 8371 OM OM1 8371 -0.550000 15.99940
8372 OM 8372 OM OM1 8372 -0.550000 15.99940
8373 OM 8373 OM OM1 8373 -0.550000 15.99940
8374 OM 8374 OM OM1 8374 -0.550000 15.99940
8375 OM 8375 OM OM1 8375 -0.550000 15.99940
8376 OM 8376 OM OM1 8376 -0.550000 15.99940
8377 OM 8377 OM OM1 8377 -0.550000 15.99940
8378 OM 8378 OM OM1 8378 -0.550000 15.99940
8379 OM 8379 OM OM1 8379 -0.550000 15.99940
8380 OM 8380 OM OM1 8380 -0.550000 15.99940
8381 OM 8381 OM OM1 8381 -0.550000 15.99940
8382 OM 8382 OM OM1 8382 -0.550000 15.99940
8383 OM 8383 OM OM1 8383 -0.550000 15.99940
8384 OM 8384 OM OM1 8384 -0.550000 15.99940
8385 OM 8385 OM OM1 8385 -0.550000 15.99940
8386 OM 8386 OM OM1 8386 -0.550000 15.99940
8387 OM 8387 OM OM1 8387 -0.550000 15.99940
8388 OM 8388 OM OM1 8388 -0.550000 15.99940
8389 OM 8389 OM OM1 8389 -0.550000 15.99940
8390 OM 8390 OM OM1 8390 -0.550000 15.99940
8391 OM 8391 OM OM1 8391 -0.550000 15.99940
8392 OM 8392 OM OM1 8392 -0.550000 15.99940
8393 OM 8393 OM OM1 8393 -0.550000 15.99940
8394 OM 8394 OM OM1 8394 -0.550000 15.99940
8395 OM 8395 OM OM1 8395 -0.550000 15.99940
8396 OM 8396 OM OM1 8396 -0.550000 15.99940
8397 OM 8397 OM OM1 8397 -0.550000 15.99940
8398 OM 8398 OM OM1 8398 -0.550000 15.99940
8399 OM 8399 OM OM1 8399 -0.550000 15.99940
8400 OM 8400 OM OM1 8400 -0.550000 15.99940
8401 OM 8401 OM OM1 8401 -0.550000 15.99940
8402 OM 8402 OM OM1 8402 -0.550000 15.99940
8403 OM 8403 OM OM1 8403 -0.550000 15.99940
8404 OM 8404 OM OM1 8404 -0.550000 15.99940
8405 OM 8405 OM OM1 8405 -0.550000 15.99940
8406 OM 8406 OM OM1 8406 -0.550000 15.99940
8407 OM 8407 OM OM1 8407 -0.550000 15.99940
8408 OM 8408 OM OM1 8408 -0.550000 15.99940
8409 OM 8409 OM OM1 8409 -0.550000 15.99940
8410 OM 8410 OM OM1 8410 -0.550000 15.99940
8411 OM 8411 OM OM1 8411 -0.550000 15.99940
8412 OM 8412 OM OM1 8412 -0.550000 15.99940
8413 OM 8413 OM OM1 8413 -0.550000 15.99940
8414 OM 8414 OM OM1 8414 -0.550000 15.99940
8415 OM 8415 OM OM1 8415 -0.550000 15.99940
8416 OM 8416 OM OM1 8416 -0.550000 15.99940
8417 OM 8417 OM OM1 8417 -0.550000 15.99940
8418 OM 8418 OM OM1 8418 -0.550000 15.99940
8419 OM 8419 OM OM1 8419 -0.550000 15.99940
8420 OM 8420 OM OM1 8420 -0.550000 15.99940
8421 OM 8421 OM OM1 8421 -0.550000 15.99940
8422 OM 8422 OM OM1 8422 -0.550000 15.99940
8423 OM 8423 OM OM1 8423 -0.550000 15.99940
8424 OM 8424 OM OM1 8424 -0.550000 15.99940
8425 OM 8425 OM OM1 8425 -0.550000 15.99940
8426 OM 8426 OM OM1 8426 -0.550000 15.99940
8427 OM 8427 OM OM1 8427 -0.550000 15.99940
8428 OM 8428 OM OM1 8428 -0.550000 15.99940
8429 OM 8429 OM OM1 8429 -0.550000 15.99940
8430 OM 8430 OM OM1 8430 -0.550000 15.99940
8431 OM 8431 OM OM1 8431 -0.550000 15.99940
8432 OM 8432 OM OM1 8432 -0.550000 15.99940
8433 OM 8433 OM OM1 8433 -0.550000 15.99940
8434 OM 8434 OM OM1 8434 -0.550000 15.99940
8435 OM 8435 OM OM1 8435 -0.550000 15.99940
8436 OM 8436 OM OM1 8436 -0.550000 15.99940
8437 OM 8437 OM OM1 8437 -0.550000 15.99940
8438 OM 8438 OM OM1 8438 -0.550000 15.99940
8439 OM 8439 OM OM1 8439 -0.550000 15.99940
8440 OM 8440 OM OM1 8440 -0.550000 15.99940
8441 OM 8441 OM OM1 8441 -0.550000 15.99940
8442 OM 8442 OM OM1 8442 -0.550000 15.99940
8443 OM 8443 OM OM1 8443 -0.550000 15.99940
8444 OM 8444 OM OM1 8444 -0.550000 15.99940
8445 OM 8445 OM OM1 8445 -0.550000 15.99940
8446 OM 8446 OM OM1 8446 -0.550000 15.99940
8447 OM 8447 OM OM1 8447 -0.550000 15.99940
8448 OM 8448 OM OM1 8448 -0.550000 15.99940
8449 OM 8449 OM OM1 8449 -0.550000 15.99940
8450 OM 8450 OM OM1 8450 -0.550000 15.99940
8451 OM 8451 OM OM1 8451 -0.550000 15.99940
8452 OM 8452 OM OM1 8452 -0.550000 15.99940
8453 OM 8453 OM OM1 8453 -0.550000 15.99940
8454 OM 8454 OM OM1 8454 -0.550000 15.99940
8455 OM 8455 OM OM1 8455 -0.550000 15.99940
8456 OM 8456 OM OM1 8456 -0.550000 15.99940
8457 OM 8457 OM OM1 8457 -0.550000 15.99940
8458 OM 8458 OM OM1 8458 -0.550000 15.99940
8459 OM 8459 OM OM1 8459 -0.550000 15.99940
8460 OM 8460 OM OM1 8460 -0.550000 15.99940
8461 OM 8461 OM OM1 8461 -0.550000 15.99940
8462 OM 8462 OM OM1 8462 -0.550000 15.99940
8463 OM 8463 OM OM1 8463 -0.550000 15.99940
8464 OM 8464 OM OM1 8464 -0.550000 15.99940
8465 OM 8465 OM OM1 8465 -0.550000 15.99940
8466 OM 8466 OM OM1 8466 -0.550000 15.99940
8467 OM 8467 OM OM1 8467 -0.550000 15.99940
8468 OM 8468 OM OM1 8468 -0.550000 15.99940
8469 OM 8469 OM OM1 8469 -0.550000 15.99940
8470 OM 8470 OM OM1 8470 -0.550000 15.99940
8471 OM 8471 OM OM1 8471 -0.550000 15.99940
8472 OM 8472 OM OM1 8472 -0.550000 15.99940
8473 OM 8473 OM OM1 8473 -0.550000 15.99940
8474 OM 8474 OM OM1 8474 -0.550000 15.99940
8475 OM 8475 OM OM1 8475 -0.550000 15.99940
8476 OM 8476 OM OM1 8476 -0.550000 15.99940
8477 OM 8477 OM OM1 8477 -0.550000 15.99940
8478 OM 8478 OM OM1 8478 -0.550000 15.99940
8479 OM 8479 OM OM1 8479 -0.550000 15.99940
8480 OM 8480 OM OM1 8480 -0.550000 15.99940
8481 OM 8481 OM OM1 8481 -0.550000 15.99940
8482 OM 8482 OM OM1 8482 -0.550000 15.99940
8483 OM 8483 OM OM1 8483 -0.550000 15.99940
8484 OM 8484 OM OM1 8484 -0.550000 15.99940
8485 OM 8485 OM OM1 8485 -0.550000 15.99940
8486 OM 8486 OM OM1 8486 -0.550000 15.99940
8487 OM 8487 OM OM1 8487 -0.550000 15.99940
8488 OM 8488 OM OM1 8488 -0.550000 15.99940
8489 OM 8489 OM OM1 8489 -0.550000 15.99940
8490 OM 8490 OM OM1 8490 -0.550000 15.99940
8491 OM 8491 OM OM1 8491 -0.550000 15.99940
8492 OM 8492 OM OM1 8492 -0.550000 15.99940
8493 OM 8493 OM OM1 8493 -0.550000 15.99940
8494 OM 8494 OM OM1 8494 -0.550000 15.99940
8495 OM 8495 OM OM1 8495 -0.550000 15.99940
8496 OM 8496 OM OM1 8496 -0.550000 15.99940
8497 OM 8497 OM OM1 8497 -0.550000 15.99940
8498 OM 8498 OM OM1 8498 -0.550000 15.99940
8499 OM 8499 OM OM1 8499 -0.550000 15.99940
8500 OM 8500 OM OM1 8500 -0.550000 15.99940
8501 OM 8501 OM OM1 8501 -0.550000 15.99940
8502 OM 8502 OM OM1 8502 -0.550000 15.99940
8503 OM 8503 OM OM1 8503 -0.550000 15.99940
8504 OM 8504 OM OM1 8504 -0.550000 15.99940
8505 OM 8505 OM OM1 8505 -0.550000 15.99940
8506 OM 8506 OM OM1 8506 -0.550000 15.99940
8507 OM 8507 OM OM1 8507 -0.550000 15.99940
8508 OM 8508 OM OM1 8508 -0.550000 15.99940
8509 OM 8509 OM OM1 8509 -0.550000 15.99940
8510 OM 8510 OM OM1 8510 -0.550000 15.99940
8511 OM 8511 OM OM1 8511 -0.550000 15.99940
8512 OM 8512 OM OM1 8512 -0.550000 15.99940
8513 OM 8513 OM OM1 8513 -0.550000 15.99940
8514 OM 8514 OM OM1 8514 -0.550000 15.99940
8515 OM 8515 OM OM1 8515 -0.550000 15.99940
8516 OM 8516 OM OM1 8516 -0.550000 15.99940
8517 OM 8517 OM OM1 8517 -0.550000 15.99940
8518 OM 8518 OM OM1 8518 -0.550000 15.99940
8519 OM 8519 OM OM1 8519 -0.550000 15.99940
8520 OM 8520 OM OM1 8520 -0.550000 15.99940
8521 OM 8521 OM OM1 8521 -0.550000 15.99940
8522 OM 8522 OM OM1 8522 -0.550000 15.99940
8523 OM 8523 OM OM1 8523 -0.550000 15.99940
8524 OM 8524 OM OM1 8524 -0.550000 15.99940
8525 OM 8525 OM OM1 8525 -0.550000 15.99940
8526 OM 8526 OM OM1 8526 -0.550000 15.99940
8527 OM 8527 OM OM1 8527 -0.550000 15.99940
8528 OM 8528 OM OM1 8528 -0.550000 15.99940
8529 OM 8529 OM OM1 8529 -0.550000 15.99940
8530 OM 8530 OM OM1 8530 -0.550000 15.99940
8531 OM 8531 OM OM1 8531 -0.550000 15.99940
8532 OM 8532 OM OM1 8532 -0.550000 15.99940
8533 OM 8533 OM OM1 8533 -0.550000 15.99940
8534 OM 8534 OM OM1 8534 -0.550000 15.99940
8535 OM 8535 OM OM1 8535 -0.550000 15.99940
8536 OM 8536 OM OM1 8536 -0.550000 15.99940
8537 OM 8537 OM OM1 8537 -0.550000 15.99940
8538 OM 8538 OM OM1 8538 -0.550000 15.99940
8539 OM 8539 OM OM1 8539 -0.550000 15.99940
8540 OM 8540 OM OM1 8540 -0.550000 15.99940
8541 OM 8541 OM OM1 8541 -0.550000 15.99940
8542 OM 8542 OM OM1 8542 -0.550000 15.99940
8543 OM 8543 OM OM1 8543 -0.550000 15.99940
8544 OM 8544 OM OM1 8544 -0.550000 15.99940
8545 OM 8545 OM OM1 8545 -0.550000 15.99940
8546 OM 8546 OM OM1 8546 -0.550000 15.99940
8547 OM 8547 OM OM1 8547 -0.550000 15.99940
8548 OM 8548 OM OM1 8548 -0.550000 15.99940
8549 OM 8549 OM OM1 8549 -0.550000 15.99940
8550 OM 8550 OM OM1 8550 -0.550000 15.99940
8551 OM 8551 OM OM1 8551 -0.550000 15.99940
8552 OM 8552 OM OM1 8552 -0.550000 15.99940
8553 OM 8553 OM OM1 8553 -0.550000 15.99940
8554 OM 8554 OM OM1 8554 -0.550000 15.99940
8555 OM 8555 OM OM1 8555 -0.550000 15.99940
8556 OM 8556 OM OM1 8556 -0.550000 15.99940
8557 OM 8557 OM OM1 8557 -0.550000 15.99940
8558 OM 8558 OM OM1 8558 -0.550000 15.99940
8559 OM 8559 OM OM1 8559 -0.550000 15.99940
8560 OM 8560 OM OM1 8560 -0.550000 15.99940
8561 OM 8561 OM OM1 8561 -0.550000 15.99940
8562 OM 8562 OM OM1 8562 -0.550000 15.99940
8563 OM 8563 OM OM1 8563 -0.550000 15.99940
8564 OM 8564 OM OM1 8564 -0.550000 15.99940
8565 OM 8565 OM OM1 8565 -0.550000 15.99940
8566 OM 8566 OM OM1 8566 -0.550000 15.99940
8567 OM 8567 OM OM1 8567 -0.550000 15.99940
8568 OM 8568 OM OM1 8568 -0.550000 15.99940
8569 OM 8569 OM OM1 8569 -0.550000 15.99940
8570 OM 8570 OM OM1 8570 -0.550000 15.99940
8571 OM 8571 OM OM1 8571 -0.550000 15.99940
8572 OM 8572 OM OM1 8572 -0.550000 15.99940
8573 OM 8573 OM OM1 8573 -0.550000 15.99940
8574 OM 8574 OM OM1 8574 -0.550000 15.99940
8575 OM 8575 OM OM1 8575 -0.550000 15.99940
8576 OM 8576 OM OM1 8576 -0.550000 15.99940
8577 OM 8577 OM OM1 8577 -0.550000 15.99940
8578 OM 8578 OM OM1 8578 -0.550000 15.99940
8579 OM 8579 OM OM1 8579 -0.550000 15.99940
8580 OM 8580 OM OM1 8580 -0.550000 15.99940
8581 OM 8581 OM OM1 8581 -0.550000 15.99940
8582 OM 8582 OM OM1 8582 -0.550000 15.99940
8583 OM 8583 OM OM1 8583 -0.550000 15.99940
8584 OM 8584 OM OM1 8584 -0.550000 15.99940
8585 OM 8585 OM OM1 8585 -0.550000 15.99940
8586 OM 8586 OM OM1 8586 -0.550000 15.99940
8587 OM 8587 OM OM1 8587 -0.550000 15.99940
8588 OM 8588 OM OM1 8588 -0.550000 15.99940
8589 OM 8589 OM OM1 8589 -0.550000 15.99940
8590 OM 8590 OM OM1 8590 -0.550000 15.99940
8591 OM 8591 OM OM1 8591 -0.550000 15.99940
8592 OM 8592 OM OM1 8592 -0.550000 15.99940
8593 OM 8593 OM OM1 8593 -0.550000 15.99940
8594 OM 8594 OM OM1 8594 -0.550000 15.99940
8595 OM 8595 OM OM1 8595 -0.550000 15.99940
8596 OM 8596 OM OM1 8596 -0.550000 15.99940
8597 OM 8597 OM OM1 8597 -0.550000 15.99940
8598 OM 8598 OM OM1 8598 -0.550000 15.99940
8599 OM 8599 OM OM1 8599 -0.550000 15.99940
8600 OM 8600 OM OM1 8600 -0.550000 15.99940
8601 OM 8601 OM OM1 8601 -0.550000 15.99940
8602 OM 8602 OM OM1 8602 -0.550000 15.99940
8603 OM 8603 OM OM1 8603 -0.550000 15.99940
8604 OM 8604 OM OM1 8604 -0.550000 15.99940
8605 OM 8605 OM OM1 8605 -0.550000 15.99940
8606 OM 8606 OM OM1 8606 -0.550000 15.99940
8607 OM 8607 OM OM1 8607 -0.550000 15.99940
8608 OM 8608 OM OM1 8608 -0.550000 15.99940
8609 OM 8609 OM OM1 8609 -0.550000 15.99940
8610 OM 8610 OM OM1 8610 -0.550000 15.99940
8611 OM 8611 OM OM1 8611 -0.550000 15.99940
8612 OM 8612 OM OM1 8612 -0.550000 15.99940
8613 OM 8613 OM OM1 8613 -0.550000 15.99940
8614 OM 8614 OM OM1 8614 -0.550000 15.99940
8615 OM 8615 OM OM1 8615 -0.550000 15.99940
8616 OM 8616 OM OM1 8616 -0.550000 15.99940
8617 OM 8617 OM OM1 8617 -0.550000 15.99940
8618 OM 8618 OM OM1 8618 -0.550000 15.99940
8619 OM 8619 OM OM1 8619 -0.550000 15.99940
8620 OM 8620 OM OM1 8620 -0.550000 15.99940
8621 OM 8621 OM OM1 8621 -0.550000 15.99940
8622 OM 8622 OM OM1 8622 -0.550000 15.99940
8623 OM 8623 OM OM1 8623 -0.550000 15.99940
8624 OM 8624 OM OM1 8624 -0.550000 15.99940
8625 OM 8625 OM OM1 8625 -0.550000 15.99940
8626 OM 8626 OM OM1 8626 -0.550000 15.99940
8627 OM 8627 OM OM1 8627 -0.550000 15.99940
8628 OM 8628 OM OM1 8628 -0.550000 15.99940
8629 OM 8629 OM OM1 8629 -0.550000 15.99940
8630 OM 8630 OM OM1 8630 -0.550000 15.99940
8631 OM 8631 OM OM1 8631 -0.550000 15.99940
8632 OM 8632 OM OM1 8632 -0.550000 15.99940
8633 OM 8633 OM OM1 8633 -0.550000 15.99940
8634 OM 8634 OM OM1 8634 -0.550000 15.99940
8635 OM 8635 OM OM1 8635 -0.550000 15.99940
8636 OM 8636 OM OM1 8636 -0.550000 15.99940
8637 OM 8637 OM OM1 8637 -0.550000 15.99940
8638 OM 8638 OM OM1 8638 -0.550000 15.99940
8639 OM 8639 OM OM1 8639 -0.550000 15.99940
8640 OM 8640 OM OM1 8640 -0.550000 15.99940
8641 OM 8641 OM OM1 8641 -0.550000 15.99940
8642 OM 8642 OM OM1 8642 -0.550000 15.99940
8643 OM 8643 OM OM1 8643 -0.550000 15.99940
8644 OM 8644 OM OM1 8644 -0.550000 15.99940
8645 OM 8645 OM OM1 8645 -0.550000 15.99940
8646 OM 8646 OM OM1 8646 -0.550000 15.99940
8647 OM 8647 OM OM1 8647 -0.550000 15.99940
8648 OM 8648 OM OM1 8648 -0.550000 15.99940
8649 OM 8649 OM OM1 8649 -0.550000 15.99940
8650 OM 8650 OM OM1 8650 -0.550000 15.99940
8651 OM 8651 OM OM1 8651 -0.550000 15.99940
8652 OM 8652 OM OM1 8652 -0.550000 15.99940
8653 OM 8653 OM OM1 8653 -0.550000 15.99940
8654 OM 8654 OM OM1 8654 -0.550000 15.99940
8655 OM 8655 OM OM1 8655 -0.550000 15.99940
8656 OM 8656 OM OM1 8656 -0.550000 15.99940
8657 OM 8657 OM OM1 8657 -0.550000 15.99940
8658 OM 8658 OM OM1 8658 -0.550000 15.99940
8659 OM 8659 OM OM1 8659 -0.550000 15.99940
8660 OM 8660 OM OM1 8660 -0.550000 15.99940
8661 OM 8661 OM OM1 8661 -0.550000 15.99940
8662 OM 8662 OM OM1 8662 -0.550000 15.99940
8663 OM 8663 OM OM1 8663 -0.550000 15.99940
8664 OM 8664 OM OM1 8664 -0.550000 15.99940
8665 OM 8665 OM OM1 8665 -0.550000 15.99940
8666 OM 8666 OM OM1 8666 -0.550000 15.99940
8667 OM 8667 OM OM1 8667 -0.550000 15.99940
8668 OM 8668 OM OM1 8668 -0.550000 15.99940
8669 OM 8669 OM OM1 8669 -0.550000 15.99940
8670 OM 8670 OM OM1 8670 -0.550000 15.99940
8671 OM 8671 OM OM1 8671 -0.550000 15.99940
8672 OM 8672 OM OM1 8672 -0.550000 15.99940
8673 OM 8673 OM OM1 8673 -0.550000 15.99940
8674 OM 8674 OM OM1 8674 -0.550000 15.99940
8675 OM 8675 OM OM1 8675 -0.550000 15.99940
8676 OM 8676 OM OM1 8676 -0.550000 15.99940
8677 OM 8677 OM OM1 8677 -0.550000 15.99940
8678 OM 8678 OM OM1 8678 -0.550000 15.99940
8679 OM 8679 OM OM1 8679 -0.550000 15.99940
8680 OM 8680 OM OM1 8680 -0.550000 15.99940
8681 OM 8681 OM OM1 8681 -0.550000 15.99940
8682 OM 8682 OM OM1 8682 -0.550000 15.99940
8683 OM 8683 OM OM1 8683 -0.550000 15.99940
8684 OM 8684 OM OM1 8684 -0.550000 15.99940
8685 OM 8685 OM OM1 8685 -0.550000 15.99940
8686 OM 8686 OM OM1 8686 -0.550000 15.99940
8687 OM 8687 OM OM1 8687 -0.550000 15.99940
8688 OM 8688 OM OM1 8688 -0.550000 15.99940
8689 OM 8689 OM OM1 8689 -0.550000 15.99940
8690 OM 8690 OM OM1 8690 -0.550000 15.99940
8691 OM 8691 OM OM1 8691 -0.550000 15.99940
8692 OM 8692 OM OM1 8692 -0.550000 15.99940
8693 OM 8693 OM OM1 8693 -0.550000 15.99940
8694 OM 8694 OM OM1 8694 -0.550000 15.99940
8695 OM 8695 OM OM1 8695 -0.550000 15.99940
8696 OM 8696 OM OM1 8696 -0.550000 15.99940
8697 OM 8697 OM OM1 8697 -0.550000 15.99940
8698 OM 8698 OM OM1 8698 -0.550000 15.99940
8699 OM 8699 OM OM1 8699 -0.550000 15.99940
8700 OM 8700 OM OM1 8700 -0.550000 15.99940
8701 OM 8701 OM OM1 8701 -0.550000 15.99940
8702 OM 8702 OM OM1 8702 -0.550000 15.99940
8703 OM 8703 OM OM1 8703 -0.550000 15.99940
8704 OM 8704 OM OM1 8704 -0.550000 15.99940
8705 OM 8705 OM OM1 8705 -0.550000 15.99940
8706 OM 8706 OM OM1 8706 -0.550000 15.99940
8707 OM 8707 OM OM1 8707 -0.550000 15.99940
8708 OM 8708 OM OM1 8708 -0.550000 15.99940
8709 OM 8709 OM OM1 8709 -0.550000 15.99940
8710 OM 8710 OM OM1 8710 -0.550000 15.99940
8711 OM 8711 OM OM1 8711 -0.550000 15.99940
8712 OM 8712 OM OM1 8712 -0.550000 15.99940
8713 OM 8713 OM OM1 8713 -0.550000 15.99940
8714 OM 8714 OM OM1 8714 -0.550000 15.99940
8715 OM 8715 OM OM1 8715 -0.550000 15.99940
8716 OM 8716 OM OM1 8716 -0.550000 15.99940
8717 OM 8717 OM OM1 8717 -0.550000 15.99940
8718 OM 8718 OM OM1 8718 -0.550000 15.99940
8719 OM 8719 OM OM1 8719 -0.550000 15.99940
8720 OM 8720 OM OM1 8720 -0.550000 15.99940
8721 OM 8721 OM OM1 8721 -0.550000 15.99940
8722 OM 8722 OM OM1 8722 -0.550000 15.99940
8723 OM 8723 OM OM1 8723 -0.550000 15.99940
8724 OM 8724 OM OM1 8724 -0.550000 15.99940
8725 OM 8725 OM OM1 8725 -0.550000 15.99940
8726 OM 8726 OM OM1 8726 -0.550000 15.99940
8727 OM 8727 OM OM1 8727 -0.550000 15.99940
8728 OM 8728 OM OM1 8728 -0.550000 15.99940
8729 OM 8729 OM OM1 8729 -0.550000 15.99940
8730 OM 8730 OM OM1 8730 -0.550000 15.99940
8731 OM 8731 OM OM1 8731 -0.550000 15.99940
8732 OM 8732 OM OM1 8732 -0.550000 15.99940
8733 OM 8733 OM OM1 8733 -0.550000 15.99940
8734 OM 8734 OM OM1 8734 -0.550000 15.99940
8735 OM 8735 OM OM1 8735 -0.550000 15.99940
8736 OM 8736 OM OM1 8736 -0.550000 15.99940
8737 OM 8737 OM OM1 8737 -0.550000 15.99940
8738 OM 8738 OM OM1 8738 -0.550000 15.99940
8739 OM 8739 OM OM1 8739 -0.550000 15.99940
8740 OM 8740 OM OM1 8740 -0.550000 15.99940
8741 OM 8741 OM OM1 8741 -0.550000 15.99940
8742 OM 8742 OM OM1 8742 -0.550000 15.99940
8743 OM 8743 OM OM1 8743 -0.550000 15.99940
8744 OM 8744 OM OM1 8744 -0.550000 15.99940
8745 OM 8745 OM OM1 8745 -0.550000 15.99940
8746 OM 8746 OM OM1 8746 -0.550000 15.99940
8747 OM 8747 OM OM1 8747 -0.550000 15.99940
8748 OM 8748 OM OM1 8748 -0.550000 15.99940
8749 OM 8749 OM OM1 8749 -0.550000 15.99940
8750 OM 8750 OM OM1 8750 -0.550000 15.99940
8751 OM 8751 OM OM1 8751 -0.550000 15.99940
8752 OM 8752 OM OM1 8752 -0.550000 15.99940
8753 OM 8753 OM OM1 8753 -0.550000 15.99940
8754 OM 8754 OM OM1 8754 -0.550000 15.99940
8755 OM 8755 OM OM1 8755 -0.550000 15.99940
8756 OM 8756 OM OM1 8756 -0.550000 15.99940
8757 OM 8757 OM OM1 8757 -0.550000 15.99940
8758 OM 8758 OM OM1 8758 -0.550000 15.99940
8759 OM 8759 OM OM1 8759 -0.550000 15.99940
8760 OM 8760 OM OM1 8760 -0.550000 15.99940
8761 OM 8761 OM OM1 8761 -0.550000 15.99940
8762 OM 8762 OM OM1 8762 -0.550000 15.99940
8763 OM 8763 OM OM1 8763 -0.550000 15.99940
8764 OM 8764 OM OM1 8764 -0.550000 15.99940
8765 OM 8765 OM OM1 8765 -0.550000 15.99940
8766 OM 8766 OM OM1 8766 -0.550000 15.99940
8767 OM 8767 OM OM1 8767 -0.550000 15.99940
8768 OM 8768 OM OM1 8768 -0.550000 15.99940
8769 OM 8769 OM OM1 8769 -0.550000 15.99940
8770 OM 8770 OM OM1 8770 -0.550000 15.99940
8771 OM 8771 OM OM1 8771 -0.550000 15.99940
8772 OM 8772 OM OM1 8772 -0.550000 15.99940
8773 OM 8773 OM OM1 8773 -0.550000 15.99940
8774 OM 8774 OM OM1 8774 -0.550000 15.99940
8775 OM 8775 OM OM1 8775 -0.550000 15.99940
8776 OM 8776 OM OM1 8776 -0.550000 15.99940
8777 OM 8777 OM OM1 8777 -0.550000 15.99940
8778 OM 8778 OM OM1 8778 -0.550000 15.99940
8779 OM 8779 OM OM1 8779 -0.550000 15.99940
8780 OM 8780 OM OM1 8780 -0.550000 15.99940
8781 OM 8781 OM OM1 8781 -0.550000 15.99940
8782 OM 8782 OM OM1 8782 -0.550000 15.99940
8783 OM 8783 OM OM1 8783 -0.550000 15.99940
8784 OM 8784 OM OM1 8784 -0.550000 15.99940
8785 OM 8785 OM OM1 8785 -0.550000 15.99940
8786 OM 8786 OM OM1 8786 -0.550000 15.99940
8787 OM 8787 OM OM1 8787 -0.550000 15.99940
8788 OM 8788 OM OM1 8788 -0.550000 15.99940
8789 OM 8789 OM OM1 8789 -0.550000 15.99940
8790 OM 8790 OM OM1 8790 -0.550000 15.99940
8791 OM 8791 OM OM1 8791 -0.550000 15.99940
8792 OM 8792 OM OM1 8792 -0.550000 15.99940
8793 OM 8793 OM OM1 8793 -0.550000 15.99940
8794 OM 8794 OM OM1 8794 -0.550000 15.99940
8795 OM 8795 OM OM1 8795 -0.550000 15.99940
8796 OM 8796 OM OM1 8796 -0.550000 15.99940
8797 OM 8797 OM OM1 8797 -0.550000 15.99940
8798 OM 8798 OM OM1 8798 -0.550000 15.99940
8799 OM 8799 OM OM1 8799 -0.550000 15.99940
8800 OM 8800 OM OM1 8800 -0.550000 15.99940
8801 OM 8801 OM OM1 8801 -0.550000 15.99940
8802 OM 8802 OM OM1 8802 -0.550000 15.99940
8803 OM 8803 OM OM1 8803 -0.550000 15.99940
8804 OM 8804 OM OM1 8804 -0.550000 15.99940
8805 OM 8805 OM OM1 8805 -0.550000 15.99940
8806 OM 8806 OM OM1 8806 -0.550000 15.99940
8807 OM 8807 OM OM1 8807 -0.550000 15.99940
8808 OM 8808 OM OM1 8808 -0.550000 15.99940
8809 OM 8809 OM OM1 8809 -0.550000 15.99940
8810 OM 8810 OM OM1 8810 -0.550000 15.99940
8811 OM 8811 OM OM1 8811 -0.550000 15.99940
8812 OM 8812 OM OM1 8812 -0.550000 15.99940
8813 OM 8813 OM OM1 8813 -0.550000 15.99940
8814 OM 8814 OM OM1 8814 -0.550000 15.99940
8815 OM 8815 OM OM1 8815 -0.550000 15.99940
8816 OM 8816 OM OM1 8816 -0.550000 15.99940
8817 OM 8817 OM OM1 8817 -0.550000 15.99940
8818 OM 8818 OM OM1 8818 -0.550000 15.99940
8819 OM 8819 OM OM1 8819 -0.550000 15.99940
8820 OM 8820 OM OM1 8820 -0.550000 15.99940
8821 OM 8821 OM OM1 8821 -0.550000 15.99940
8822 OM 8822 OM OM1 8822 -0.550000 15.99940
8823 OM 8823 OM OM1 8823 -0.550000 15.99940
8824 OM 8824 OM OM1 8824 -0.550000 15.99940
8825 OM 8825 OM OM1 8825 -0.550000 15.99940
8826 OM 8826 OM OM1 8826 -0.550000 15.99940
8827 OM 8827 OM OM1 8827 -0.550000 15.99940
8828 OM 8828 OM OM1 8828 -0.550000 15.99940
8829 OM 8829 OM OM1 8829 -0.550000 15.99940
8830 OM 8830 OM OM1 8830 -0.550000 15.99940
8831 OM 8831 OM OM1 8831 -0.550000 15.99940
8832 OM 8832 OM OM1 8832 -0.550000 15.99940
8833 OM 8833 OM OM1 8833 -0.550000 15.99940
8834 OM 8834 OM OM1 8834 -0.550000 15.99940
8835 OM 8835 OM OM1 8835 -0.550000 15.99940
8836 OM 8836 OM OM1 8836 -0.550000 15.99940
8837 OM 8837 OM OM1 8837 -0.550000 15.99940
8838 OM 8838 OM OM1 8838 -0.550000 15.99940
8839 OM 8839 OM OM1 8839 -0.550000 15.99940
8840 OM 8840 OM OM1 8840 -0.550000 15.99940
8841 OM 8841 OM OM1 8841 -0.550000 15.99940
8842 OM 8842 OM OM1 8842 -0.550000 15.99940
8843 OM 8843 OM OM1 8843 -0.550000 15.99940
8844 OM 8844 OM OM1 8844 -0.550000 15.99940
8845 OM 8845 OM OM1 8845 -0.550000 15.99940
8846 OM 8846 OM OM1 8846 -0.550000 15.99940
8847 OM 8847 OM OM1 8847 -0.550000 15.99940
8848 OM 8848 OM OM1 8848 -0.550000 15.99940
8849 OM 8849 OM OM1 8849 -0.550000 15.99940
8850 OM 8850 OM OM1 8850 -0.550000 15.99940
8851 OM 8851 OM OM1 8851 -0.550000 15.99940
8852 OM 8852 OM OM1 8852 -0.550000 15.99940
8853 OM 8853 OM OM1 8853 -0.550000 15.99940
8854 OM 8854 OM OM1 8854 -0.550000 15.99940
8855 OM 8855 OM OM1 8855 -0.550000 15.99940
8856 OM 8856 OM OM1 8856 -0.550000 15.99940
8857 OM 8857 OM OM1 8857 -0.550000 15.99940
8858 OM 8858 OM OM1 8858 -0.550000 15.99940
8859 OM 8859 OM OM1 8859 -0.550000 15.99940
8860 OM 8860 OM OM1 8860 -0.550000 15.99940
8861 OM 8861 OM OM1 8861 -0.550000 15.99940
8862 OM 8862 OM OM1 8862 -0.550000 15.99940
8863 OM 8863 OM OM1 8863 -0.550000 15.99940
8864 OM 8864 OM OM1 8864 -0.550000 15.99940
8865 OM 8865 OM OM1 8865 -0.550000 15.99940
8866 OM 8866 OM OM1 8866 -0.550000 15.99940
8867 OM 8867 OM OM1 8867 -0.550000 15.99940
8868 OM 8868 OM OM1 8868 -0.550000 15.99940
8869 OM 8869 OM OM1 8869 -0.550000 15.99940
8870 OM 8870 OM OM1 8870 -0.550000 15.99940
8871 OM 8871 OM OM1 8871 -0.550000 15.99940
8872 OM 8872 OM OM1 8872 -0.550000 15.99940
8873 OM 8873 OM OM1 8873 -0.550000 15.99940
8874 OM 8874 OM OM1 8874 -0.550000 15.99940
8875 OM 8875 OM OM1 8875 -0.550000 15.99940
8876 OM 8876 OM OM1 8876 -0.550000 15.99940
8877 OM 8877 OM OM1 8877 -0.550000 15.99940
8878 OM 8878 OM OM1 8878 -0.550000 15.99940
8879 OM 8879 OM OM1 8879 -0.550000 15.99940
8880 OM 8880 OM OM1 8880 -0.550000 15.99940
8881 OM 8881 OM OM1 8881 -0.550000 15.99940
8882 OM 8882 OM OM1 8882 -0.550000 15.99940
8883 OM 8883 OM OM1 8883 -0.550000 15.99940
8884 OM 8884 OM OM1 8884 -0.550000 15.99940
8885 OM 8885 OM OM1 8885 -0.550000 15.99940
8886 OM 8886 OM OM1 8886 -0.550000 15.99940
8887 OM 8887 OM OM1 8887 -0.550000 15.99940
8888 OM 8888 OM OM1 8888 -0.550000 15.99940
8889 OM 8889 OM OM1 8889 -0.550000 15.99940
8890 OM 8890 OM OM1 8890 -0.550000 15.99940
8891 OM 8891 OM OM1 8891 -0.550000 15.99940
8892 OM 8892 OM OM1 8892 -0.550000 15.99940
8893 OM 8893 OM OM1 8893 -0.550000 15.99940
8894 OM 8894 OM OM1 8894 -0.550000 15.99940
8895 OM 8895 OM OM1 8895 -0.550000 15.99940
8896 OM 8896 OM OM1 8896 -0.550000 15.99940
8897 OM 8897 OM OM1 8897 -0.550000 15.99940
8898 OM 8898 OM OM1 8898 -0.550000 15.99940
8899 OM 8899 OM OM1 8899 -0.550000 15.99940
8900 OM 8900 OM OM1 8900 -0.550000 15.99940
8901 OM 8901 OM OM1 8901 -0.550000 15.99940
8902 OM 8902 OM OM1 8902 -0.550000 15.99940
8903 OM 8903 OM OM1 8903 -0.550000 15.99940
8904 OM 8904 OM OM1 8904 -0.550000 15.99940
8905 OM 8905 OM OM1 8905 -0.550000 15.99940
8906 OM 8906 OM OM1 8906 -0.550000 15.99940
8907 OM 8907 OM OM1 8907 -0.550000 15.99940
8908 OM 8908 OM OM1 8908 -0.550000 15.99940
8909 OM 8909 OM OM1 8909 -0.550000 15.99940
8910 OM 8910 OM OM1 8910 -0.550000 15.99940
8911 OM 8911 OM OM1 8911 -0.550000 15.99940
8912 OM 8912 OM OM1 8912 -0.550000 15.99940
8913 OM 8913 OM OM1 8913 -0.550000 15.99940
8914 OM 8914 OM OM1 8914 -0.550000 15.99940
8915 OM 8915 OM OM1 8915 -0.550000 15.99940
8916 OM 8916 OM OM1 8916 -0.550000 15.99940
8917 OM 8917 OM OM1 8917 -0.550000 15.99940
8918 OM 8918 OM OM1 8918 -0.550000 15.99940
8919 OM 8919 OM OM1 8919 -0.550000 15.99940
8920 OM 8920 OM OM1 8920 -0.550000 15.99940
8921 OM 8921 OM OM1 8921 -0.550000 15.99940
8922 OM 8922 OM OM1 8922 -0.550000 15.99940
8923 OM 8923 OM OM1 8923 -0.550000 15.99940
8924 OM 8924 OM OM1 8924 -0.550000 15.99940
8925 OM 8925 OM OM1 8925 -0.550000 15.99940
8926 OM 8926 OM OM1 8926 -0.550000 15.99940
8927 OM 8927 OM OM1 8927 -0.550000 15.99940
8928 OM 8928 OM OM1 8928 -0.550000 15.99940
8929 OM 8929 OM OM1 8929 -0.550000 15.99940
8930 OM 8930 OM OM1 8930 -0.550000 15.99940
8931 OM 8931 OM OM1 8931 -0.550000 15.99940
8932 OM 8932 OM OM1 8932 -0.550000 15.99940
8933 OM 8933 OM OM1 8933 -0.550000 15.99940
8934 OM 8934 OM OM1 8934 -0.550000 15.99940
8935 OM 8935 OM OM1 8935 -0.550000 15.99940
8936 OM 8936 OM OM1 8936 -0.550000 15.99940
8937 OM 8937 OM OM1 8937 -0.550000 15.99940
8938 OM 8938 OM OM1 8938 -0.550000 15.99940
8939 OM 8939 OM OM1 8939 -0.550000 15.99940
8940 OM 8940 OM OM1 8940 -0.550000 15.99940
8941 OM 8941 OM OM1 8941 -0.550000 15.99940
8942 OM 8942 OM OM1 8942 -0.550000 15.99940
8943 OM 8943 OM OM1 8943 -0.550000 15.99940
8944 OM 8944 OM OM1 8944 -0.550000 15.99940
8945 OM 8945 OM OM1 8945 -0.550000 15.99940
8946 OM 8946 OM OM1 8946 -0.550000 15.99940
8947 OM 8947 OM OM1 8947 -0.550000 15.99940
8948 OM 8948 OM OM1 8948 -0.550000 15.99940
8949 OM 8949 OM OM1 8949 -0.550000 15.99940
8950 OM 8950 OM OM1 8950 -0.550000 15.99940
8951 OM 8951 OM OM1 8951 -0.550000 15.99940
8952 OM 8952 OM OM1 8952 -0.550000 15.99940
8953 OM 8953 OM OM1 8953 -0.550000 15.99940
8954 OM 8954 OM OM1 8954 -0.550000 15.99940
8955 OM 8955 OM OM1 8955 -0.550000 15.99940
8956 OM 8956 OM OM1 8956 -0.550000 15.99940
8957 OM 8957 OM OM1 8957 -0.550000 15.99940
8958 OM 8958 OM OM1 8958 -0.550000 15.99940
8959 OM 8959 OM OM1 8959 -0.550000 15.99940
8960 OM 8960 OM OM1 8960 -0.550000 15.99940
8961 OM 8961 OM OM1 8961 -0.550000 15.99940
8962 OM 8962 OM OM1 8962 -0.550000 15.99940
8963 OM 8963 OM OM1 8963 -0.550000 15.99940
8964 OM 8964 OM OM1 8964 -0.550000 15.99940
8965 OM 8965 OM OM1 8965 -0.550000 15.99940
8966 OM 8966 OM OM1 8966 -0.550000 15.99940
8967 OM 8967 OM OM1 8967 -0.550000 15.99940
8968 OM 8968 OM OM1 8968 -0.550000 15.99940
8969 OM 8969 OM OM1 8969 -0.550000 15.99940
8970 OM 8970 OM OM1 8970 -0.550000 15.99940
8971 OM 8971 OM OM1 8971 -0.550000 15.99940
8972 OM 8972 OM OM1 8972 -0.550000 15.99940
8973 OM 8973 OM OM1 8973 -0.550000 15.99940
8974 OM 8974 OM OM1 8974 -0.550000 15.99940
8975 OM 8975 OM OM1 8975 -0.550000 15.99940
8976 OM 8976 OM OM1 8976 -0.550000 15.99940
8977 OM 8977 OM OM1 8977 -0.550000 15.99940
8978 OM 8978 OM OM1 8978 -0.550000 15.99940
8979 OM 8979 OM OM1 8979 -0.550000 15.99940
8980 OM 8980 OM OM1 8980 -0.550000 15.99940
8981 OM 8981 OM OM1 8981 -0.550000 15.99940
8982 OM 8982 OM OM1 8982 -0.550000 15.99940
8983 OM 8983 OM OM1 8983 -0.550000 15.99940
8984 OM 8984 OM OM1 8984 -0.550000 15.99940
8985 OM 8985 OM OM1 8985 -0.550000 15.99940
8986 OM 8986 OM OM1 8986 -0.550000 15.99940
8987 OM 8987 OM OM1 8987 -0.550000 15.99940
8988 OM 8988 OM OM1 8988 -0.550000 15.99940
8989 OM 8989 OM OM1 8989 -0.550000 15.99940
8990 OM 8990 OM OM1 8990 -0.550000 15.99940
8991 OM 8991 OM OM1 8991 -0.550000 15.99940
8992 OM 8992 OM OM1 8992 -0.550000 15.99940
8993 OM 8993 OM OM1 8993 -0.550000 15.99940
8994 OM 8994 OM OM1 8994 -0.550000 15.99940
8995 OM 8995 OM OM1 8995 -0.550000 15.99940
8996 OM 8996 OM OM1 8996 -0.550000 15.99940
8997 OM 8997 OM OM1 8997 -0.550000 15.99940
8998 OM 8998 OM OM1 8998 -0.550000 15.99940
8999 OM 8999 OM OM1 8999 -0.550000 15.99940
9000 OM 9000 OM OM1 9000 -0.550000 15.99940
9001 OM 9001 OM OM1 9001 -0.550000 15.99940
9002 OM 9002 OM OM1 9002 -0.550000 15.99940
9003 OM 9003 OM OM1 9003 -0.550000 15.99940
9004 OM 9004 OM OM1 9004 -0.550000 15.99940
9005 OM 9005 OM OM1 9005 -0.550000 15.99940
9006 OM 9006 OM OM1 9006 -0.550000 15.99940
9007 OM 9007 OM OM1 9007 -0.550000 15.99940
9008 OM 9008 OM OM1 9008 -0.550000 15.99940
9009 OM 9009 OM OM1 9009 -0.550000 15.99940
9010 OM 9010 OM OM1 9010 -0.550000 15.99940
9011 OM 9011 OM OM1 9011 -0.550000 15.99940
9012 OM 9012 OM OM1 9012 -0.550000 15.99940
9013 OM 9013 OM OM1 9013 -0.550000 15.99940
9014 OM 9014 OM OM1 9014 -0.550000 15.99940
9015 OM 9015 OM OM1 9015 -0.550000 15.99940
9016 OM 9016 OM OM1 9016 -0.550000 15.99940
9017 OM 9017 OM OM1 9017 -0.550000 15.99940
9018 OM 9018 OM OM1 9018 -0.550000 15.99940
9019 OM 9019 OM OM1 9019 -0.550000 15.99940
9020 OM 9020 OM OM1 9020 -0.550000 15.99940
9021 OM 9021 OM OM1 9021 -0.550000 15.99940
9022 OM 9022 OM OM1 9022 -0.550000 15.99940
9023 OM 9023 OM OM1 9023 -0.550000 15.99940
9024 OM 9024 OM OM1 9024 -0.550000 15.99940
9025 OM 9025 OM OM1 9025 -0.550000 15.99940
9026 OM 9026 OM OM1 9026 -0.550000 15.99940
9027 OM 9027 OM OM1 9027 -0.550000 15.99940
9028 OM 9028 OM OM1 9028 -0.550000 15.99940
9029 OM 9029 OM OM1 9029 -0.550000 15.99940
9030 OM 9030 OM OM1 9030 -0.550000 15.99940
9031 OM 9031 OM OM1 9031 -0.550000 15.99940
9032 OM 9032 OM OM1 9032 -0.550000 15.99940
9033 OM 9033 OM OM1 9033 -0.550000 15.99940
9034 OM 9034 OM OM1 9034 -0.550000 15.99940
9035 OM 9035 OM OM1 9035 -0.550000 15.99940
9036 OM 9036 OM OM1 9036 -0.550000 15.99940
9037 OM 9037 OM OM1 9037 -0.550000 15.99940
9038 OM 9038 OM OM1 9038 -0.550000 15.99940
9039 OM 9039 OM OM1 9039 -0.550000 15.99940
9040 OM 9040 OM OM1 9040 -0.550000 15.99940
9041 OM 9041 OM OM1 9041 -0.550000 15.99940
9042 OM 9042 OM OM1 9042 -0.550000 15.99940
9043 OM 9043 OM OM1 9043 -0.550000 15.99940
9044 OM 9044 OM OM1 9044 -0.550000 15.99940
9045 OM 9045 OM OM1 9045 -0.550000 15.99940
9046 OM 9046 OM OM1 9046 -0.550000 15.99940
9047 OM 9047 OM OM1 9047 -0.550000 15.99940
9048 OM 9048 OM OM1 9048 -0.550000 15.99940
9049 OM 9049 OM OM1 9049 -0.550000 15.99940
9050 OM 9050 OM OM1 9050 -0.550000 15.99940
9051 OM 9051 OM OM1 9051 -0.550000 15.99940
9052 OM 9052 OM OM1 9052 -0.550000 15.99940
9053 OM 9053 OM OM1 9053 -0.550000 15.99940
9054 OM 9054 OM OM1 9054 -0.550000 15.99940
9055 OM 9055 OM OM1 9055 -0.550000 15.99940
9056 OM 9056 OM OM1 9056 -0.550000 15.99940
9057 OM 9057 OM OM1 9057 -0.550000 15.99940
9058 OM 9058 OM OM1 9058 -0.550000 15.99940
9059 OM 9059 OM OM1 9059 -0.550000 15.99940
9060 OM 9060 OM OM1 9060 -0.550000 15.99940
9061 OM 9061 OM OM1 9061 -0.550000 15.99940
9062 OM 9062 OM OM1 9062 -0.550000 15.99940
9063 OM 9063 OM OM1 9063 -0.550000 15.99940
9064 OM 9064 OM OM1 9064 -0.550000 15.99940
9065 OM 9065 OM OM1 9065 -0.550000 15.99940
9066 OM 9066 OM OM1 9066 -0.550000 15.99940
9067 OM 9067 OM OM1 9067 -0.550000 15.99940
9068 OM 9068 OM OM1 9068 -0.550000 15.99940
9069 OM 9069 OM OM1 9069 -0.550000 15.99940
9070 OM 9070 OM OM1 9070 -0.550000 15.99940
9071 OM 9071 OM OM1 9071 -0.550000 15.99940
9072 OM 9072 OM OM1 9072 -0.550000 15.99940
9073 OM 9073 OM OM1 9073 -0.550000 15.99940
9074 OM 9074 OM OM1 9074 -0.550000 15.99940
9075 OM 9075 OM OM1 9075 -0.550000 15.99940
9076 OM 9076 OM OM1 9076 -0.550000 15.99940
9077 OM 9077 OM OM1 9077 -0.550000 15.99940
9078 OM 9078 OM OM1 9078 -0.550000 15.99940
9079 OM 9079 OM OM1 9079 -0.550000 15.99940
9080 OM 9080 OM OM1 9080 -0.550000 15.99940
9081 OM 9081 OM OM1 9081 -0.550000 15.99940
9082 OM 9082 OM OM1 9082 -0.550000 15.99940
9083 OM 9083 OM OM1 9083 -0.550000 15.99940
9084 OM 9084 OM OM1 9084 -0.550000 15.99940
9085 OM 9085 OM OM1 9085 -0.550000 15.99940
9086 OM 9086 OM OM1 9086 -0.550000 15.99940
9087 OM 9087 OM OM1 9087 -0.550000 15.99940
9088 OM 9088 OM OM1 9088 -0.550000 15.99940
9089 OM 9089 OM OM1 9089 -0.550000 15.99940
9090 OM 9090 OM OM1 9090 -0.550000 15.99940
9091 OM 9091 OM OM1 9091 -0.550000 15.99940
9092 OM 9092 OM OM1 9092 -0.550000 15.99940
9093 OM 9093 OM OM1 9093 -0.550000 15.99940
9094 OM 9094 OM OM1 9094 -0.550000 15.99940
9095 OM 9095 OM OM1 9095 -0.550000 15.99940
9096 OM 9096 OM OM1 9096 -0.550000 15.99940
9097 OM 9097 OM OM1 9097 -0.550000 15.99940
9098 OM 9098 OM OM1 9098 -0.550000 15.99940
9099 OM 9099 OM OM1 9099 -0.550000 15.99940
9100 OM 9100 OM OM1 9100 -0.550000 15.99940
9101 OM 9101 OM OM1 9101 -0.550000 15.99940
9102 OM 9102 OM OM1 9102 -0.550000 15.99940
9103 OM 9103 OM OM1 9103 -0.550000 15.99940
9104 OM 9104 OM OM1 9104 -0.550000 15.99940
9105 OM 9105 OM OM1 9105 -0.550000 15.99940
9106 OM 9106 OM OM1 9106 -0.550000 15.99940
9107 OM 9107 OM OM1 9107 -0.550000 15.99940
9108 OM 9108 OM OM1 9108 -0.550000 15.99940
9109 OM 9109 OM OM1 9109 -0.550000 15.99940
9110 OM 9110 OM OM1 9110 -0.550000 15.99940
9111 OM 9111 OM OM1 9111 -0.550000 15.99940
9112 OM 9112 OM OM1 9112 -0.550000 15.99940
9113 OM 9113 OM OM1 9113 -0.550000 15.99940
9114 OM 9114 OM OM1 9114 -0.550000 15.99940
9115 OM 9115 OM OM1 9115 -0.550000 15.99940
9116 OM 9116 OM OM1 9116 -0.550000 15.99940
9117 OM 9117 OM OM1 9117 -0.550000 15.99940
9118 OM 9118 OM OM1 9118 -0.550000 15.99940
9119 OM 9119 OM OM1 9119 -0.550000 15.99940
9120 OM 9120 OM OM1 9120 -0.550000 15.99940
9121 OM 9121 OM OM1 9121 -0.550000 15.99940
9122 OM 9122 OM OM1 9122 -0.550000 15.99940
9123 OM 9123 OM OM1 9123 -0.550000 15.99940
9124 OM 9124 OM OM1 9124 -0.550000 15.99940
9125 OM 9125 OM OM1 9125 -0.550000 15.99940
9126 OM 9126 OM OM1 9126 -0.550000 15.99940
9127 OM 9127 OM OM1 9127 -0.550000 15.99940
9128 OM 9128 OM OM1 9128 -0.550000 15.99940
9129 OM 9129 OM OM1 9129 -0.550000 15.99940
9130 OM 9130 OM OM1 9130 -0.550000 15.99940
9131 OM 9131 OM OM1 9131 -0.550000 15.99940
9132 OM 9132 OM OM1 9132 -0.550000 15.99940
9133 OM 9133 OM OM1 9133 -0.550000 15.99940
9134 OM 9134 OM OM1 9134 -0.550000 15.99940
9135 OM 9135 OM OM1 9135 -0.550000 15.99940
9136 OM 9136 OM OM1 9136 -0.550000 15.99940
9137 OM 9137 OM OM1 9137 -0.550000 15.99940
9138 OM 9138 OM OM1 9138 -0.550000 15.99940
9139 OM 9139 OM OM1 9139 -0.550000 15.99940
9140 OM 9140 OM OM1 9140 -0.550000 15.99940
9141 OM 9141 OM OM1 9141 -0.550000 15.99940
9142 OM 9142 OM OM1 9142 -0.550000 15.99940
9143 OM 9143 OM OM1 9143 -0.550000 15.99940
9144 OM 9144 OM OM1 9144 -0.550000 15.99940
9145 OM 9145 OM OM1 9145 -0.550000 15.99940
9146 OM 9146 OM OM1 9146 -0.550000 15.99940
9147 OM 9147 OM OM1 9147 -0.550000 15.99940
9148 OM 9148 OM OM1 9148 -0.550000 15.99940
9149 OM 9149 OM OM1 9149 -0.550000 15.99940
9150 OM 9150 OM OM1 9150 -0.550000 15.99940
9151 OM 9151 OM OM1 9151 -0.550000 15.99940
9152 OM 9152 OM OM1 9152 -0.550000 15.99940
9153 OM 9153 OM OM1 9153 -0.550000 15.99940
9154 OM 9154 OM OM1 9154 -0.550000 15.99940
9155 OM 9155 OM OM1 9155 -0.550000 15.99940
9156 OM 9156 OM OM1 9156 -0.550000 15.99940
9157 OM 9157 OM OM1 9157 -0.550000 15.99940
9158 OM 9158 OM OM1 9158 -0.550000 15.99940
9159 OM 9159 OM OM1 9159 -0.550000 15.99940
9160 OM 9160 OM OM1 9160 -0.550000 15.99940
9161 OM 9161 OM OM1 9161 -0.550000 15.99940
9162 OM 9162 OM OM1 9162 -0.550000 15.99940
9163 OM 9163 OM OM1 9163 -0.550000 15.99940
9164 OM 9164 OM OM1 9164 -0.550000 15.99940
9165 OM 9165 OM OM1 9165 -0.550000 15.99940
9166 OM 9166 OM OM1 9166 -0.550000 15.99940
9167 OM 9167 OM OM1 9167 -0.550000 15.99940
9168 OM 9168 OM OM1 9168 -0.550000 15.99940
9169 OM 9169 OM OM1 9169 -0.550000 15.99940
9170 OM 9170 OM OM1 9170 -0.550000 15.99940
9171 OM 9171 OM OM1 9171 -0.550000 15.99940
9172 OM 9172 OM OM1 9172 -0.550000 15.99940
9173 OM 9173 OM OM1 9173 -0.550000 15.99940
9174 OM 9174 OM OM1 9174 -0.550000 15.99940
9175 OM 9175 OM OM1 9175 -0.550000 15.99940
9176 OM 9176 OM OM1 9176 -0.550000 15.99940
9177 OM 9177 OM OM1 9177 -0.550000 15.99940
9178 OM 9178 OM OM1 9178 -0.550000 15.99940
9179 OM 9179 OM OM1 9179 -0.550000 15.99940
9180 OM 9180 OM OM1 9180 -0.550000 15.99940
9181 OM 9181 OM OM1 9181 -0.550000 15.99940
9182 OM 9182 OM OM1 9182 -0.550000 15.99940
9183 OM 9183 OM OM1 9183 -0.550000 15.99940
9184 OM 9184 OM OM1 9184 -0.550000 15.99940
9185 OM 9185 OM OM1 9185 -0.550000 15.99940
9186 OM 9186 OM OM1 9186 -0.550000 15.99940
9187 OM 9187 OM OM1 9187 -0.550000 15.99940
9188 OM 9188 OM OM1 9188 -0.550000 15.99940
9189 OM 9189 OM OM1 9189 -0.550000 15.99940
9190 OM 9190 OM OM1 9190 -0.550000 15.99940
9191 OM 9191 OM OM1 9191 -0.550000 15.99940
9192 OM 9192 OM OM1 9192 -0.550000 15.99940
9193 OM 9193 OM OM1 9193 -0.550000 15.99940
9194 OM 9194 OM OM1 9194 -0.550000 15.99940
9195 OM 9195 OM OM1 9195 -0.550000 15.99940
9196 OM 9196 OM OM1 9196 -0.550000 15.99940
9197 OM 9197 OM OM1 9197 -0.550000 15.99940
9198 OM 9198 OM OM1 9198 -0.550000 15.99940
9199 OM 9199 OM OM1 9199 -0.550000 15.99940
9200 OM 9200 OM OM1 9200 -0.550000 15.99940
9201 OM 9201 OM OM1 9201 -0.550000 15.99940
9202 OM 9202 OM OM1 9202 -0.550000 15.99940
9203 OM 9203 OM OM1 9203 -0.550000 15.99940
9204 OM 9204 OM OM1 9204 -0.550000 15.99940
9205 OM 9205 OM OM1 9205 -0.550000 15.99940
9206 OM 9206 OM OM1 9206 -0.550000 15.99940
9207 OM 9207 OM OM1 9207 -0.550000 15.99940
9208 OM 9208 OM OM1 9208 -0.550000 15.99940
9209 OM 9209 OM OM1 9209 -0.550000 15.99940
9210 OM 9210 OM OM1 9210 -0.550000 15.99940
9211 OM 9211 OM OM1 9211 -0.550000 15.99940
9212 OM 9212 OM OM1 9212 -0.550000 15.99940
9213 OM 9213 OM OM1 9213 -0.550000 15.99940
9214 OM 9214 OM OM1 9214 -0.550000 15.99940
9215 OM 9215 OM OM1 9215 -0.550000 15.99940
9216 OM 9216 OM OM1 9216 -0.550000 15.99940
9217 OM 9217 OM OM1 9217 -0.550000 15.99940
9218 OM 9218 OM OM1 9218 -0.550000 15.99940
9219 OM 9219 OM OM1 9219 -0.550000 15.99940
9220 OM 9220 OM OM1 9220 -0.550000 15.99940
9221 OM 9221 OM OM1 9221 -0.550000 15.99940
9222 OM 9222 OM OM1 9222 -0.550000 15.99940
9223 OM 9223 OM OM1 9223 -0.550000 15.99940
9224 OM 9224 OM OM1 9224 -0.550000 15.99940
9225 OM 9225 OM OM1 9225 -0.550000 15.99940
9226 OM 9226 OM OM1 9226 -0.550000 15.99940
9227 OM 9227 OM OM1 9227 -0.550000 15.99940
9228 OM 9228 OM OM1 9228 -0.550000 15.99940
9229 OM 9229 OM OM1 9229 -0.550000 15.99940
9230 OM 9230 OM OM1 9230 -0.550000 15.99940
9231 OM 9231 OM OM1 9231 -0.550000 15.99940
9232 OM 9232 OM OM1 9232 -0.550000 15.99940
9233 OM 9233 OM OM1 9233 -0.550000 15.99940
9234 OM 9234 OM OM1 9234 -0.550000 15.99940
9235 OM 9235 OM OM1 9235 -0.550000 15.99940
9236 OM 9236 OM OM1 9236 -0.550000 15.99940
9237 OM 9237 OM OM1 9237 -0.550000 15.99940
9238 OM 9238 OM OM1 9238 -0.550000 15.99940
9239 OM 9239 OM OM1 9239 -0.550000 15.99940
9240 OM 9240 OM OM1 9240 -0.550000 15.99940
9241 OM 9241 OM OM1 9241 -0.550000 15.99940
9242 OM 9242 OM OM1 9242 -0.550000 15.99940
9243 OM 9243 OM OM1 9243 -0.550000 15.99940
9244 OM 9244 OM OM1 9244 -0.550000 15.99940
9245 OM 9245 OM OM1 9245 -0.550000 15.99940
9246 OM 9246 OM OM1 9246 -0.550000 15.99940
9247 OM 9247 OM OM1 9247 -0.550000 15.99940
9248 OM 9248 OM OM1 9248 -0.550000 15.99940
9249 OM 9249 OM OM1 9249 -0.550000 15.99940
9250 OM 9250 OM OM1 9250 -0.550000 15.99940
9251 OM 9251 OM OM1 9251 -0.550000 15.99940
9252 OM 9252 OM OM1 9252 -0.550000 15.99940
9253 OM 9253 OM OM1 9253 -0.550000 15.99940
9254 OM 9254 OM OM1 9254 -0.550000 15.99940
9255 OM 9255 OM OM1 9255 -0.550000 15.99940
9256 OM 9256 OM OM1 9256 -0.550000 15.99940
9257 OM 9257 OM OM1 9257 -0.550000 15.99940
9258 OM 9258 OM OM1 9258 -0.550000 15.99940
9259 OM 9259 OM OM1 9259 -0.550000 15.99940
9260 OM 9260 OM OM1 9260 -0.550000 15.99940
9261 OM 9261 OM OM1 9261 -0.550000 15.99940
9262 OM 9262 OM OM1 9262 -0.550000 15.99940
9263 OM 9263 OM OM1 9263 -0.550000 15.99940
9264 OM 9264 OM OM1 9264 -0.550000 15.99940
9265 OM 9265 OM OM1 9265 -0.550000 15.99940
9266 OM 9266 OM OM1 9266 -0.550000 15.99940
9267 OM 9267 OM OM1 9267 -0.550000 15.99940
9268 OM 9268 OM OM1 9268 -0.550000 15.99940
9269 OM 9269 OM OM1 9269 -0.550000 15.99940
9270 OM 9270 OM OM1 9270 -0.550000 15.99940
9271 OM 9271 OM OM1 9271 -0.550000 15.99940
9272 OM 9272 OM OM1 9272 -0.550000 15.99940
9273 OM 9273 OM OM1 9273 -0.550000 15.99940
9274 OM 9274 OM OM1 9274 -0.550000 15.99940
9275 OM 9275 OM OM1 9275 -0.550000 15.99940
9276 OM 9276 OM OM1 9276 -0.550000 15.99940
9277 OM 9277 OM OM1 9277 -0.550000 15.99940
9278 OM 9278 OM OM1 9278 -0.550000 15.99940
9279 OM 9279 OM OM1 9279 -0.550000 15.99940
9280 OM 9280 OM OM1 9280 -0.550000 15.99940
9281 OM 9281 OM OM1 9281 -0.550000 15.99940
9282 OM 9282 OM OM1 9282 -0.550000 15.99940
9283 OM 9283 OM OM1 9283 -0.550000 15.99940
9284 OM 9284 OM OM1 9284 -0.550000 15.99940
9285 OM 9285 OM OM1 9285 -0.550000 15.99940
9286 OM 9286 OM OM1 9286 -0.550000 15.99940
9287 OM 9287 OM OM1 9287 -0.550000 15.99940
9288 OM 9288 OM OM1 9288 -0.550000 15.99940
9289 OM 9289 OM OM1 9289 -0.550000 15.99940
9290 OM 9290 OM OM1 9290 -0.550000 15.99940
9291 OM 9291 OM OM1 9291 -0.550000 15.99940
9292 OM 9292 OM OM1 9292 -0.550000 15.99940
9293 OM 9293 OM OM1 9293 -0.550000 15.99940
9294 OM 9294 OM OM1 9294 -0.550000 15.99940
9295 OM 9295 OM OM1 9295 -0.550000 15.99940
9296 OM 9296 OM OM1 9296 -0.550000 15.99940
9297 OM 9297 OM OM1 9297 -0.550000 15.99940
9298 OM 9298 OM OM1 9298 -0.550000 15.99940
9299 OM 9299 OM OM1 9299 -0.550000 15.99940
9300 OM 9300 OM OM1 9300 -0.550000 15.99940
9301 OM 9301 OM OM1 9301 -0.550000 15.99940
9302 OM 9302 OM OM1 9302 -0.550000 15.99940
9303 OM 9303 OM OM1 9303 -0.550000 15.99940
9304 OM 9304 OM OM1 9304 -0.550000 15.99940
9305 OM 9305 OM OM1 9305 -0.550000 15.99940
9306 OM 9306 OM OM1 9306 -0.550000 15.99940
9307 OM 9307 OM OM1 9307 -0.550000 15.99940
9308 OM 9308 OM OM1 9308 -0.550000 15.99940
9309 OM 9309 OM OM1 9309 -0.550000 15.99940
9310 OM 9310 OM OM1 9310 -0.550000 15.99940
9311 OM 9311 OM OM1 9311 -0.550000 15.99940
9312 OM 9312 OM OM1 9312 -0.550000 15.99940
9313 OM 9313 OM OM1 9313 -0.550000 15.99940
9314 OM 9314 OM OM1 9314 -0.550000 15.99940
9315 OM 9315 OM OM1 9315 -0.550000 15.99940
9316 OM 9316 OM OM1 9316 -0.550000 15.99940
9317 OM 9317 OM OM1 9317 -0.550000 15.99940
9318 OM 9318 OM OM1 9318 -0.550000 15.99940
9319 OM 9319 OM OM1 9319 -0.550000 15.99940
9320 OM 9320 OM OM1 9320 -0.550000 15.99940
9321 OM 9321 OM OM1 9321 -0.550000 15.99940
9322 OM 9322 OM OM1 9322 -0.550000 15.99940
9323 OM 9323 OM OM1 9323 -0.550000 15.99940
9324 OM 9324 OM OM1 9324 -0.550000 15.99940
9325 OM 9325 OM OM1 9325 -0.550000 15.99940
9326 OM 9326 OM OM1 9326 -0.550000 15.99940
9327 OM 9327 OM OM1 9327 -0.550000 15.99940
9328 OM 9328 OM OM1 9328 -0.550000 15.99940
9329 OM 9329 OM OM1 9329 -0.550000 15.99940
9330 OM 9330 OM OM1 9330 -0.550000 15.99940
9331 OM 9331 OM OM1 9331 -0.550000 15.99940
9332 OM 9332 OM OM1 9332 -0.550000 15.99940
9333 OM 9333 OM OM1 9333 -0.550000 15.99940
9334 OM 9334 OM OM1 9334 -0.550000 15.99940
9335 OM 9335 OM OM1 9335 -0.550000 15.99940
9336 OM 9336 OM OM1 9336 -0.550000 15.99940
9337 OM 9337 OM OM1 9337 -0.550000 15.99940
9338 OM 9338 OM OM1 9338 -0.550000 15.99940
9339 OM 9339 OM OM1 9339 -0.550000 15.99940
9340 OM 9340 OM OM1 9340 -0.550000 15.99940
9341 OM 9341 OM OM1 9341 -0.550000 15.99940
9342 OM 9342 OM OM1 9342 -0.550000 15.99940
9343 OM 9343 OM OM1 9343 -0.550000 15.99940
9344 OM 9344 OM OM1 9344 -0.550000 15.99940
9345 OM 9345 OM OM1 9345 -0.550000 15.99940
9346 OM 9346 OM OM1 9346 -0.550000 15.99940
9347 OM 9347 OM OM1 9347 -0.550000 15.99940
9348 OM 9348 OM OM1 9348 -0.550000 15.99940
9349 OM 9349 OM OM1 9349 -0.550000 15.99940
9350 OM 9350 OM OM1 9350 -0.550000 15.99940
9351 OM 9351 OM OM1 9351 -0.550000 15.99940
9352 OM 9352 OM OM1 9352 -0.550000 15.99940
9353 OM 9353 OM OM1 9353 -0.550000 15.99940
9354 OM 9354 OM OM1 9354 -0.550000 15.99940
9355 OM 9355 OM OM1 9355 -0.550000 15.99940
9356 OM 9356 OM OM1 9356 -0.550000 15.99940
9357 OM 9357 OM OM1 9357 -0.550000 15.99940
9358 OM 9358 OM OM1 9358 -0.550000 15.99940
9359 OM 9359 OM OM1 9359 -0.550000 15.99940
9360 OM 9360 OM OM1 9360 -0.550000 15.99940
9361 OM 9361 OM OM1 9361 -0.550000 15.99940
9362 OM 9362 OM OM1 9362 -0.550000 15.99940
9363 OM 9363 OM OM1 9363 -0.550000 15.99940
9364 OM 9364 OM OM1 9364 -0.550000 15.99940
9365 OM 9365 OM OM1 9365 -0.550000 15.99940
9366 OM 9366 OM OM1 9366 -0.550000 15.99940
9367 OM 9367 OM OM1 9367 -0.550000 15.99940
9368 OM 9368 OM OM1 9368 -0.550000 15.99940
9369 OM 9369 OM OM1 9369 -0.550000 15.99940
9370 OM 9370 OM OM1 9370 -0.550000 15.99940
9371 OM 9371 OM OM1 9371 -0.550000 15.99940
9372 OM 9372 OM OM1 9372 -0.550000 15.99940
9373 OM 9373 OM OM1 9373 -0.550000 15.99940
9374 OM 9374 OM OM1 9374 -0.550000 15.99940
9375 OM 9375 OM OM1 9375 -0.550000 15.99940
9376 OM 9376 OM OM1 9376 -0.550000 15.99940
9377 OM 9377 OM OM1 9377 -0.550000 15.99940
9378 OM 9378 OM OM1 9378 -0.550000 15.99940
9379 OM 9379 OM OM1 9379 -0.550000 15.99940
9380 OM 9380 OM OM1 9380 -0.550000 15.99940
9381 OM 9381 OM OM1 9381 -0.550000 15.99940
9382 OM 9382 OM OM1 9382 -0.550000 15.99940
9383 OM 9383 OM OM1 9383 -0.550000 15.99940
9384 OM 9384 OM OM1 9384 -0.550000 15.99940
9385 OM 9385 OM OM1 9385 -0.550000 15.99940
9386 OM 9386 OM OM1 9386 -0.550000 15.99940
9387 OM 9387 OM OM1 9387 -0.550000 15.99940
9388 OM 9388 OM OM1 9388 -0.550000 15.99940
9389 OM 9389 OM OM1 9389 -0.550000 15.99940
9390 OM 9390 OM OM1 9390 -0.550000 15.99940
9391 OM 9391 OM OM1 9391 -0.550000 15.99940
9392 OM 9392 OM OM1 9392 -0.550000 15.99940
9393 OM 9393 OM OM1 9393 -0.550000 15.99940
9394 OM 9394 OM OM1 9394 -0.550000 15.99940
9395 OM 9395 OM OM1 9395 -0.550000 15.99940
9396 OM 9396 OM OM1 9396 -0.550000 15.99940
9397 OM 9397 OM OM1 9397 -0.550000 15.99940
9398 OM 9398 OM OM1 9398 -0.550000 15.99940
9399 OM 9399 OM OM1 9399 -0.550000 15.99940
9400 OM 9400 OM OM1 9400 -0.550000 15.99940
9401 OM 9401 OM OM1 9401 -0.550000 15.99940
9402 OM 9402 OM OM1 9402 -0.550000 15.99940
9403 OM 9403 OM OM1 9403 -0.550000 15.99940
9404 OM 9404 OM OM1 9404 -0.550000 15.99940
9405 OM 9405 OM OM1 9405 -0.550000 15.99940
9406 OM 9406 OM OM1 9406 -0.550000 15.99940
9407 OM 9407 OM OM1 9407 -0.550000 15.99940
9408 OM 9408 OM OM1 9408 -0.550000 15.99940
9409 OM 9409 OM OM1 9409 -0.550000 15.99940
9410 OM 9410 OM OM1 9410 -0.550000 15.99940
9411 OM 9411 OM OM1 9411 -0.550000 15.99940
9412 OM 9412 OM OM1 9412 -0.550000 15.99940
9413 OM 9413 OM OM1 9413 -0.550000 15.99940
9414 OM 9414 OM OM1 9414 -0.550000 15.99940
9415 OM 9415 OM OM1 9415 -0.550000 15.99940
9416 OM 9416 OM OM1 9416 -0.550000 15.99940
9417 OM 9417 OM OM1 9417 -0.550000 15.99940
9418 OM 9418 OM OM1 9418 -0.550000 15.99940
9419 OM 9419 OM OM1 9419 -0.550000 15.99940
9420 OM 9420 OM OM1 9420 -0.550000 15.99940
9421 OM 9421 OM OM1 9421 -0.550000 15.99940
9422 OM 9422 OM OM1 9422 -0.550000 15.99940
9423 OM 9423 OM OM1 9423 -0.550000 15.99940
9424 OM 9424 OM OM1 9424 -0.550000 15.99940
9425 OM 9425 OM OM1 9425 -0.550000 15.99940
9426 OM 9426 OM OM1 9426 -0.550000 15.99940
9427 OM 9427 OM OM1 9427 -0.550000 15.99940
9428 OM 9428 OM OM1 9428 -0.550000 15.99940
9429 OM 9429 OM OM1 9429 -0.550000 15.99940
9430 OM 9430 OM OM1 9430 -0.550000 15.99940
9431 OM 9431 OM OM1 9431 -0.550000 15.99940
9432 OM 9432 OM OM1 9432 -0.550000 15.99940
9433 OM 9433 OM OM1 9433 -0.550000 15.99940
9434 OM 9434 OM OM1 9434 -0.550000 15.99940
9435 OM 9435 OM OM1 9435 -0.550000 15.99940
9436 OM 9436 OM OM1 9436 -0.550000 15.99940
9437 OM 9437 OM OM1 9437 -0.550000 15.99940
9438 OM 9438 OM OM1 9438 -0.550000 15.99940
9439 OM 9439 OM OM1 9439 -0.550000 15.99940
9440 OM 9440 OM OM1 9440 -0.550000 15.99940
9441 OM 9441 OM OM1 9441 -0.550000 15.99940
9442 OM 9442 OM OM1 9442 -0.550000 15.99940
9443 OM 9443 OM OM1 9443 -0.550000 15.99940
9444 OM 9444 OM OM1 9444 -0.550000 15.99940
9445 OM 9445 OM OM1 9445 -0.550000 15.99940
9446 OM 9446 OM OM1 9446 -0.550000 15.99940
9447 OM 9447 OM OM1 9447 -0.550000 15.99940
9448 OM 9448 OM OM1 9448 -0.550000 15.99940
9449 OM 9449 OM OM1 9449 -0.550000 15.99940
9450 OM 9450 OM OM1 9450 -0.550000 15.99940
9451 OM 9451 OM OM1 9451 -0.550000 15.99940
9452 OM 9452 OM OM1 9452 -0.550000 15.99940
9453 OM 9453 OM OM1 9453 -0.550000 15.99940
9454 OM 9454 OM OM1 9454 -0.550000 15.99940
9455 OM 9455 OM OM1 9455 -0.550000 15.99940
9456 OM 9456 OM OM1 9456 -0.550000 15.99940
9457 OM 9457 OM OM1 9457 -0.550000 15.99940
9458 OM 9458 OM OM1 9458 -0.550000 15.99940
9459 OM 9459 OM OM1 9459 -0.550000 15.99940
9460 OM 9460 OM OM1 9460 -0.550000 15.99940
9461 OM 9461 OM OM1 9461 -0.550000 15.99940
9462 OM 9462 OM OM1 9462 -0.550000 15.99940
9463 OM 9463 OM OM1 9463 -0.550000 15.99940
9464 OM 9464 OM OM1 9464 -0.550000 15.99940
9465 OM 9465 OM OM1 9465 -0.550000 15.99940
9466 OM 9466 OM OM1 9466 -0.550000 15.99940
9467 OM 9467 OM OM1 9467 -0.550000 15.99940
9468 OM 9468 OM OM1 9468 -0.550000 15.99940
9469 OM 9469 OM OM1 9469 -0.550000 15.99940
9470 OM 9470 OM OM1 9470 -0.550000 15.99940
9471 OM 9471 OM OM1 9471 -0.550000 15.99940
9472 OM 9472 OM OM1 9472 -0.550000 15.99940
9473 OM 9473 OM OM1 9473 -0.550000 15.99940
9474 OM 9474 OM OM1 9474 -0.550000 15.99940
9475 OM 9475 OM OM1 9475 -0.550000 15.99940
9476 OM 9476 OM OM1 9476 -0.550000 15.99940
9477 OM 9477 OM OM1 9477 -0.550000 15.99940
9478 OM 9478 OM OM1 9478 -0.550000 15.99940
9479 OM 9479 OM OM1 9479 -0.550000 15.99940
9480 OM 9480 OM OM1 9480 -0.550000 15.99940
9481 OM 9481 OM OM1 9481 -0.550000 15.99940
9482 OM 9482 OM OM1 9482 -0.550000 15.99940
9483 OM 9483 OM OM1 9483 -0.550000 15.99940
9484 OM 9484 OM OM1 9484 -0.550000 15.99940
9485 OM 9485 OM OM1 9485 -0.550000 15.99940
9486 OM 9486 OM OM1 9486 -0.550000 15.99940
9487 OM 9487 OM OM1 9487 -0.550000 15.99940
9488 OM 9488 OM OM1 9488 -0.550000 15.99940
9489 OM 9489 OM OM1 9489 -0.550000 15.99940
9490 OM 9490 OM OM1 9490 -0.550000 15.99940
9491 OM 9491 OM OM1 9491 -0.550000 15.99940
9492 OM 9492 OM OM1 9492 -0.550000 15.99940
9493 OM 9493 OM OM1 9493 -0.550000 15.99940
9494 OM 9494 OM OM1 9494 -0.550000 15.99940
9495 OM 9495 OM OM1 9495 -0.550000 15.99940
9496 OM 9496 OM OM1 9496 -0.550000 15.99940
9497 OM 9497 OM OM1 9497 -0.550000 15.99940
9498 OM 9498 OM OM1 9498 -0.550000 15.99940
9499 OM 9499 OM OM1 9499 -0.550000 15.99940
9500 OM 9500 OM OM1 9500 -0.550000 15.99940
9501 OM 9501 OM OM1 9501 -0.550000 15.99940
9502 OM 9502 OM OM1 9502 -0.550000 15.99940
9503 OM 9503 OM OM1 9503 -0.550000 15.99940
9504 OM 9504 OM OM1 9504 -0.550000 15.99940
9505 OM 9505 OM OM1 9505 -0.550000 15.99940
9506 OM 9506 OM OM1 9506 -0.550000 15.99940
9507 OM 9507 OM OM1 9507 -0.550000 15.99940
9508 OM 9508 OM OM1 9508 -0.550000 15.99940
9509 OM 9509 OM OM1 9509 -0.550000 15.99940
9510 OM 9510 OM OM1 9510 -0.550000 15.99940
9511 OM 9511 OM OM1 9511 -0.550000 15.99940
9512 OM 9512 OM OM1 9512 -0.550000 15.99940
9513 OM 9513 OM OM1 9513 -0.550000 15.99940
9514 OM 9514 OM OM1 9514 -0.550000 15.99940
9515 OM 9515 OM OM1 9515 -0.550000 15.99940
9516 OM 9516 OM OM1 9516 -0.550000 15.99940
9517 OM 9517 OM OM1 9517 -0.550000 15.99940
9518 OM 9518 OM OM1 9518 -0.550000 15.99940
9519 OM 9519 OM OM1 9519 -0.550000 15.99940
9520 OM 9520 OM OM1 9520 -0.550000 15.99940
9521 OM 9521 OM OM1 9521 -0.550000 15.99940
9522 OM 9522 OM OM1 9522 -0.550000 15.99940
9523 OM 9523 OM OM1 9523 -0.550000 15.99940
9524 OM 9524 OM OM1 9524 -0.550000 15.99940
9525 OM 9525 OM OM1 9525 -0.550000 15.99940
9526 OM 9526 OM OM1 9526 -0.550000 15.99940
9527 OM 9527 OM OM1 9527 -0.550000 15.99940
9528 OM 9528 OM OM1 9528 -0.550000 15.99940
9529 OM 9529 OM OM1 9529 -0.550000 15.99940
9530 OM 9530 OM OM1 9530 -0.550000 15.99940
9531 OM 9531 OM OM1 9531 -0.550000 15.99940
9532 OM 9532 OM OM1 9532 -0.550000 15.99940
9533 OM 9533 OM OM1 9533 -0.550000 15.99940
9534 OM 9534 OM OM1 9534 -0.550000 15.99940
9535 OM 9535 OM OM1 9535 -0.550000 15.99940
9536 OM 9536 OM OM1 9536 -0.550000 15.99940
9537 OM 9537 OM OM1 9537 -0.550000 15.99940
9538 OM 9538 OM OM1 9538 -0.550000 15.99940
9539 OM 9539 OM OM1 9539 -0.550000 15.99940
9540 OM 9540 OM OM1 9540 -0.550000 15.99940
9541 OM 9541 OM OM1 9541 -0.550000 15.99940
9542 OM 9542 OM OM1 9542 -0.550000 15.99940
9543 OM 9543 OM OM1 9543 -0.550000 15.99940
9544 OM 9544 OM OM1 9544 -0.550000 15.99940
9545 OM 9545 OM OM1 9545 -0.550000 15.99940
9546 OM 9546 OM OM1 9546 -0.550000 15.99940
9547 OM 9547 OM OM1 9547 -0.550000 15.99940
9548 OM 9548 OM OM1 9548 -0.550000 15.99940
9549 OM 9549 OM OM1 9549 -0.550000 15.99940
9550 OM 9550 OM OM1 9550 -0.550000 15.99940
9551 OM 9551 OM OM1 9551 -0.550000 15.99940
9552 OM 9552 OM OM1 9552 -0.550000 15.99940
9553 OM 9553 OM OM1 9553 -0.550000 15.99940
9554 OM 9554 OM OM1 9554 -0.550000 15.99940
9555 OM 9555 OM OM1 9555 -0.550000 15.99940
9556 OM 9556 OM OM1 9556 -0.550000 15.99940
9557 OM 9557 OM OM1 9557 -0.550000 15.99940
9558 OM 9558 OM OM1 9558 -0.550000 15.99940
9559 OM 9559 OM OM1 9559 -0.550000 15.99940
9560 OM 9560 OM OM1 9560 -0.550000 15.99940
9561 OM 9561 OM OM1 9561 -0.550000 15.99940
9562 OM 9562 OM OM1 9562 -0.550000 15.99940
9563 OM 9563 OM OM1 9563 -0.550000 15.99940
9564 OM 9564 OM OM1 9564 -0.550000 15.99940
9565 OM 9565 OM OM1 9565 -0.550000 15.99940
9566 OM 9566 OM OM1 9566 -0.550000 15.99940
9567 OM 9567 OM OM1 9567 -0.550000 15.99940
9568 OM 9568 OM OM1 9568 -0.550000 15.99940
9569 OM 9569 OM OM1 9569 -0.550000 15.99940
9570 OM 9570 OM OM1 9570 -0.550000 15.99940
9571 OM 9571 OM OM1 9571 -0.550000 15.99940
9572 OM 9572 OM OM1 9572 -0.550000 15.99940
9573 OM 9573 OM OM1 9573 -0.550000 15.99940
9574 OM 9574 OM OM1 9574 -0.550000 15.99940
9575 OM 9575 OM OM1 9575 -0.550000 15.99940
9576 OM 9576 OM OM1 9576 -0.550000 15.99940
9577 OM 9577 OM OM1 9577 -0.550000 15.99940
9578 OM 9578 OM OM1 9578 -0.550000 15.99940
9579 OM 9579 OM OM1 9579 -0.550000 15.99940
9580 OM 9580 OM OM1 9580 -0.550000 15.99940
9581 OM 9581 OM OM1 9581 -0.550000 15.99940
9582 OM 9582 OM OM1 9582 -0.550000 15.99940
9583 OM 9583 OM OM1 9583 -0.550000 15.99940
9584 OM 9584 OM OM1 9584 -0.550000 15.99940
9585 OM 9585 OM OM1 9585 -0.550000 15.99940
9586 OM 9586 OM OM1 9586 -0.550000 15.99940
9587 OM 9587 OM OM1 9587 -0.550000 15.99940
9588 OM 9588 OM OM1 9588 -0.550000 15.99940
9589 OM 9589 OM OM1 9589 -0.550000 15.99940
9590 OM 9590 OM OM1 9590 -0.550000 15.99940
9591 OM 9591 OM OM1 9591 -0.550000 15.99940
9592 OM 9592 OM OM1 9592 -0.550000 15.99940
9593 OM 9593 OM OM1 9593 -0.550000 15.99940
9594 OM 9594 OM OM1 9594 -0.550000 15.99940
9595 OM 9595 OM OM1 9595 -0.550000 15.99940
9596 OM 9596 OM OM1 9596 -0.550000 15.99940
9597 OM 9597 OM OM1 9597 -0.550000 15.99940
9598 OM 9598 OM OM1 9598 -0.550000 15.99940
9599 OM 9599 OM OM1 9599 -0.550000 15.99940
9600 OM 9600 OM OM1 9600 -0.550000 15.99940
9601 OM 9601 OM OM1 9601 -0.550000 15.99940
9602 OM 9602 OM OM1 9602 -0.550000 15.99940
9603 OM 9603 OM OM1 9603 -0.550000 15.99940
9604 OM 9604 OM OM1 9604 -0.550000 15.99940
9605 OM 9605 OM OM1 9605 -0.550000 15.99940
9606 OM 9606 OM OM1 9606 -0.550000 15.99940
9607 OM 9607 OM OM1 9607 -0.550000 15.99940
9608 OM 9608 OM OM1 9608 -0.550000 15.99940
9609 OM 9609 OM OM1 9609 -0.550000 15.99940
9610 OM 9610 OM OM1 9610 -0.550000 15.99940
9611 OM 9611 OM OM1 9611 -0.550000 15.99940
9612 OM 9612 OM OM1 9612 -0.550000 15.99940
9613 OM 9613 OM OM1 9613 -0.550000 15.99940
9614 OM 9614 OM OM1 9614 -0.550000 15.99940
9615 OM 9615 OM OM1 9615 -0.550000 15.99940
9616 OM 9616 OM OM1 9616 -0.550000 15.99940
9617 OM 9617 OM OM1 9617 -0.550000 15.99940
9618 OM 9618 OM OM1 9618 -0.550000 15.99940
9619 OM 9619 OM OM1 9619 -0.550000 15.99940
9620 OM 9620 OM OM1 9620 -0.550000 15.99940
9621 OM 9621 OM OM1 9621 -0.550000 15.99940
9622 OM 9622 OM OM1 9622 -0.550000 15.99940
9623 OM 9623 OM OM1 9623 -0.550000 15.99940
9624 OM 9624 OM OM1 9624 -0.550000 15.99940
9625 OM 9625 OM OM1 9625 -0.550000 15.99940
9626 OM 9626 OM OM1 9626 -0.550000 15.99940
9627 OM 9627 OM OM1 9627 -0.550000 15.99940
9628 OM 9628 OM OM1 9628 -0.550000 15.99940
9629 OM 9629 OM OM1 9629 -0.550000 15.99940
9630 OM 9630 OM OM1 9630 -0.550000 15.99940
9631 OM 9631 OM OM1 9631 -0.550000 15.99940
9632 OM 9632 OM OM1 9632 -0.550000 15.99940
9633 OM 9633 OM OM1 9633 -0.550000 15.99940
9634 OM 9634 OM OM1 9634 -0.550000 15.99940
9635 OM 9635 OM OM1 9635 -0.550000 15.99940
9636 OM 9636 OM OM1 9636 -0.550000 15.99940
9637 OM 9637 OM OM1 9637 -0.550000 15.99940
9638 OM 9638 OM OM1 9638 -0.550000 15.99940
9639 OM 9639 OM OM1 9639 -0.550000 15.99940
9640 OM 9640 OM OM1 9640 -0.550000 15.99940
9641 OM 9641 OM OM1 9641 -0.550000 15.99940
9642 OM 9642 OM OM1 9642 -0.550000 15.99940
9643 OM 9643 OM OM1 9643 -0.550000 15.99940
9644 OM 9644 OM OM1 9644 -0.550000 15.99940
9645 OM 9645 OM OM1 9645 -0.550000 15.99940
9646 OM 9646 OM OM1 9646 -0.550000 15.99940
9647 OM 9647 OM OM1 9647 -0.550000 15.99940
9648 OM 9648 OM OM1 9648 -0.550000 15.99940
9649 OM 9649 OM OM1 9649 -0.550000 15.99940
9650 OM 9650 OM OM1 9650 -0.550000 15.99940
9651 OM 9651 OM OM1 9651 -0.550000 15.99940
9652 OM 9652 OM OM1 9652 -0.550000 15.99940
9653 OM 9653 OM OM1 9653 -0.550000 15.99940
9654 OM 9654 OM OM1 9654 -0.550000 15.99940
9655 OM 9655 OM OM1 9655 -0.550000 15.99940
9656 OM 9656 OM OM1 9656 -0.550000 15.99940
9657 OM 9657 OM OM1 9657 -0.550000 15.99940
9658 OM 9658 OM OM1 9658 -0.550000 15.99940
9659 OM 9659 OM OM1 9659 -0.550000 15.99940
9660 OM 9660 OM OM1 9660 -0.550000 15.99940
9661 OM 9661 OM OM1 9661 -0.550000 15.99940
9662 OM 9662 OM OM1 9662 -0.550000 15.99940
9663 OM 9663 OM OM1 9663 -0.550000 15.99940
9664 OM 9664 OM OM1 9664 -0.550000 15.99940
9665 OM 9665 OM OM1 9665 -0.550000 15.99940
9666 OM 9666 OM OM1 9666 -0.550000 15.99940
9667 OM 9667 OM OM1 9667 -0.550000 15.99940
9668 OM 9668 OM OM1 9668 -0.550000 15.99940
9669 OM 9669 OM OM1 9669 -0.550000 15.99940
9670 OM 9670 OM OM1 9670 -0.550000 15.99940
9671 OM 9671 OM OM1 9671 -0.550000 15.99940
9672 OM 9672 OM OM1 9672 -0.550000 15.99940
9673 OM 9673 OM OM1 9673 -0.550000 15.99940
9674 OM 9674 OM OM1 9674 -0.550000 15.99940
9675 OM 9675 OM OM1 9675 -0.550000 15.99940
9676 OM 9676 OM OM1 9676 -0.550000 15.99940
9677 OM 9677 OM OM1 9677 -0.550000 15.99940
9678 OM 9678 OM OM1 9678 -0.550000 15.99940
9679 OM 9679 OM OM1 9679 -0.550000 15.99940
9680 OM 9680 OM OM1 9680 -0.550000 15.99940
9681 OM 9681 OM OM1 9681 -0.550000 15.99940
9682 OM 9682 OM OM1 9682 -0.550000 15.99940
9683 OM 9683 OM OM1 9683 -0.550000 15.99940
9684 OM 9684 OM OM1 9684 -0.550000 15.99940
9685 OM 9685 OM OM1 9685 -0.550000 15.99940
9686 OM 9686 OM OM1 9686 -0.550000 15.99940
9687 OM 9687 OM OM1 9687 -0.550000 15.99940
9688 OM 9688 OM OM1 9688 -0.550000 15.99940
9689 OM 9689 OM OM1 9689 -0.550000 15.99940
9690 OM 9690 OM OM1 9690 -0.550000 15.99940
9691 OM 9691 OM OM1 9691 -0.550000 15.99940
9692 OM 9692 OM OM1 9692 -0.550000 15.99940
9693 OM 9693 OM OM1 9693 -0.550000 15.99940
9694 OM 9694 OM OM1 9694 -0.550000 15.99940
9695 OM 9695 OM OM1 9695 -0.550000 15.99940
9696 OM 9696 OM OM1 9696 -0.550000 15.99940
9697 OM 9697 OM OM1 9697 -0.550000 15.99940
9698 OM 9698 OM OM1 9698 -0.550000 15.99940
9699 OM 9699 OM OM1 9699 -0.550000 15.99940
9700 OM 9700 OM OM1 9700 -0.550000 15.99940
9701 OM 9701 OM OM1 9701 -0.550000 15.99940
9702 OM 9702 OM OM1 9702 -0.550000 15.99940
9703 OM 9703 OM OM1 9703 -0.550000 15.99940
9704 OM 9704 OM OM1 9704 -0.550000 15.99940
9705 OM 9705 OM OM1 9705 -0.550000 15.99940
9706 OM 9706 OM OM1 9706 -0.550000 15.99940
9707 OM 9707 OM OM1 9707 -0.550000 15.99940
9708 OM 9708 OM OM1 9708 -0.550000 15.99940
9709 OM 9709 OM OM1 9709 -0.550000 15.99940
9710 OM 9710 OM OM1 9710 -0.550000 15.99940
9711 OM 9711 OM OM1 9711 -0.550000 15.99940
9712 OM 9712 OM OM1 9712 -0.550000 15.99940
9713 OM 9713 OM OM1 9713 -0.550000 15.99940
9714 OM 9714 OM OM1 9714 -0.550000 15.99940
9715 OM 9715 OM OM1 9715 -0.550000 15.99940
9716 OM 9716 OM OM1 9716 -0.550000 15.99940
9717 OM 9717 OM OM1 9717 -0.550000 15.99940
9718 OM 9718 OM OM1 9718 -0.550000 15.99940
9719 OM 9719 OM OM1 9719 -0.550000 15.99940
9720 OM 9720 OM OM1 9720 -0.550000 15.99940
9721 OM 9721 OM OM1 9721 -0.550000 15.99940
9722 OM 9722 OM OM1 9722 -0.550000 15.99940
9723 OM 9723 OM OM1 9723 -0.550000 15.99940
9724 OM 9724 OM OM1 9724 -0.550000 15.99940
9725 OM 9725 OM OM1 9725 -0.550000 15.99940
9726 OM 9726 OM OM1 9726 -0.550000 15.99940
9727 OM 9727 OM OM1 9727 -0.550000 15.99940
9728 OM 9728 OM OM1 9728 -0.550000 15.99940
9729 OM 9729 OM OM1 9729 -0.550000 15.99940
9730 OM 9730 OM OM1 9730 -0.550000 15.99940
9731 OM 9731 OM OM1 9731 -0.550000 15.99940
9732 OM 9732 OM OM1 9732 -0.550000 15.99940
9733 OM 9733 OM OM1 9733 -0.550000 15.99940
9734 OM 9734 OM OM1 9734 -0.550000 15.99940
9735 OM 9735 OM OM1 9735 -0.550000 15.99940
9736 OM 9736 OM OM1 9736 -0.550000 15.99940
9737 OM 9737 OM OM1 9737 -0.550000 15.99940
9738 OM 9738 OM OM1 9738 -0.550000 15.99940
9739 OM 9739 OM OM1 9739 -0.550000 15.99940
9740 OM 9740 OM OM1 9740 -0.550000 15.99940
9741 OM 9741 OM OM1 9741 -0.550000 15.99940
9742 OM 9742 OM OM1 9742 -0.550000 15.99940
9743 OM 9743 OM OM1 9743 -0.550000 15.99940
9744 OM 9744 OM OM1 9744 -0.550000 15.99940
9745 OM 9745 OM OM1 9745 -0.550000 15.99940
9746 OM 9746 OM OM1 9746 -0.550000 15.99940
9747 OM 9747 OM OM1 9747 -0.550000 15.99940
9748 OM 9748 OM OM1 9748 -0.550000 15.99940
9749 OM 9749 OM OM1 9749 -0.550000 15.99940
9750 OM 9750 OM OM1 9750 -0.550000 15.99940
9751 OM 9751 OM OM1 9751 -0.550000 15.99940
9752 OM 9752 OM OM1 9752 -0.550000 15.99940
9753 OM 9753 OM OM1 9753 -0.550000 15.99940
9754 OM 9754 OM OM1 9754 -0.550000 15.99940
9755 OM 9755 OM OM1 9755 -0.550000 15.99940
9756 OM 9756 OM OM1 9756 -0.550000 15.99940
9757 OM 9757 OM OM1 9757 -0.550000 15.99940
9758 OM 9758 OM OM1 9758 -0.550000 15.99940
9759 OM 9759 OM OM1 9759 -0.550000 15.99940
9760 OM 9760 OM OM1 9760 -0.550000 15.99940
9761 OM 9761 OM OM1 9761 -0.550000 15.99940
9762 OM 9762 OM OM1 9762 -0.550000 15.99940
9763 OM 9763 OM OM1 9763 -0.550000 15.99940
9764 OM 9764 OM OM1 9764 -0.550000 15.99940
9765 OM 9765 OM OM1 9765 -0.550000 15.99940
9766 OM 9766 OM OM1 9766 -0.550000 15.99940
9767 OM 9767 OM OM1 9767 -0.550000 15.99940
9768 OM 9768 OM OM1 9768 -0.550000 15.99940
9769 OM 9769 OM OM1 9769 -0.550000 15.99940
9770 OM 9770 OM OM1 9770 -0.550000 15.99940
9771 OM 9771 OM OM1 9771 -0.550000 15.99940
9772 OM 9772 OM OM1 9772 -0.550000 15.99940
9773 OM 9773 OM OM1 9773 -0.550000 15.99940
9774 OM 9774 OM OM1 9774 -0.550000 15.99940
9775 OM 9775 OM OM1 9775 -0.550000 15.99940
9776 OM 9776 OM OM1 9776 -0.550000 15.99940
9777 OM 9777 OM OM1 9777 -0.550000 15.99940
9778 OM 9778 OM OM1 9778 -0.550000 15.99940
9779 OM 9779 OM OM1 9779 -0.550000 15.99940
9780 OM 9780 OM OM1 9780 -0.550000 15.99940
9781 OM 9781 OM OM1 9781 -0.550000 15.99940
9782 OM 9782 OM OM1 9782 -0.550000 15.99940
9783 OM 9783 OM OM1 9783 -0.550000 15.99940
9784 OM 9784 OM OM1 9784 -0.550000 15.99940
9785 OM 9785 OM OM1 9785 -0.550000 15.99940
9786 OM 9786 OM OM1 9786 -0.550000 15.99940
9787 OM 9787 OM OM1 9787 -0.550000 15.99940
9788 OM 9788 OM OM1 9788 -0.550000 15.99940
9789 OM 9789 OM OM1 9789 -0.550000 15.99940
9790 OM 9790 OM OM1 9790 -0.550000 15.99940
9791 OM 9791 OM OM1 9791 -0.550000 15.99940
9792 OM 9792 OM OM1 9792 -0.550000 15.99940
9793 OM 9793 OM OM1 9793 -0.550000 15.99940
9794 OM 9794 OM OM1 9794 -0.550000 15.99940
9795 OM 9795 OM OM1 9795 -0.550000 15.99940
9796 OM 9796 OM OM1 9796 -0.550000 15.99940
9797 OM 9797 OM OM1 9797 -0.550000 15.99940
9798 OM 9798 OM OM1 9798 -0.550000 15.99940
9799 OM 9799 OM OM1 9799 -0.550000 15.99940
9800 OM 9800 OM OM1 9800 -0.550000 15.99940
9801 OM 9801 OM OM1 9801 -0.550000 15.99940
9802 OM 9802 OM OM1 9802 -0.550000 15.99940
9803 OM 9803 OM OM1 9803 -0.550000 15.99940
9804 OM 9804 OM OM1 9804 -0.550000 15.99940
9805 OM 9805 OM OM1 9805 -0.550000 15.99940
9806 OM 9806 OM OM1 9806 -0.550000 15.99940
9807 OM 9807 OM OM1 9807 -0.550000 15.99940
9808 OM 9808 OM OM1 9808 -0.550000 15.99940
9809 OM 9809 OM OM1 9809 -0.550000 15.99940
9810 OM 9810 OM OM1 9810 -0.550000 15.99940
9811 OM 9811 OM OM1 9811 -0.550000 15.99940
9812 OM 9812 OM OM1 9812 -0.550000 15.99940
9813 OM 9813 OM OM1 9813 -0.550000 15.99940
9814 OM 9814 OM OM1 9814 -0.550000 15.99940
9815 OM 9815 OM OM1 9815 -0.550000 15.99940
9816 OM 9816 OM OM1 9816 -0.550000 15.99940
9817 OM 9817 OM OM1 9817 -0.550000 15.99940
9818 OM 9818 OM OM1 9818 -0.550000 15.99940
9819 OM 9819 OM OM1 9819 -0.550000 15.99940
9820 OM 9820 OM OM1 9820 -0.550000 15.99940
9821 OM 9821 OM OM1 9821 -0.550000 15.99940
9822 OM 9822 OM OM1 9822 -0.550000 15.99940
9823 OM 9823 OM OM1 9823 -0.550000 15.99940
9824 OM 9824 OM OM1 9824 -0.550000 15.99940
9825 OM 9825 OM OM1 9825 -0.550000 15.99940
9826 OM 9826 OM OM1 9826 -0.550000 15.99940
9827 OM 9827 OM OM1 9827 -0.550000 15.99940
9828 OM 9828 OM OM1 9828 -0.550000 15.99940
9829 OM 9829 OM OM1 9829 -0.550000 15.99940
9830 OM 9830 OM OM1 9830 -0.550000 15.99940
9831 OM 9831 OM OM1 9831 -0.550000 15.99940
9832 OM 9832 OM OM1 9832 -0.550000 15.99940
9833 OM 9833 OM OM1 9833 -0.550000 15.99940
9834 OM 9834 OM OM1 9834 -0.550000 15.99940
9835 OM 9835 OM OM1 9835 -0.550000 15.99940
9836 OM 9836 OM OM1 9836 -0.550000 15.99940
9837 OM 9837 OM OM1 9837 -0.550000 15.99940
9838 OM 9838 OM OM1 9838 -0.550000 15.99940
9839 OM 9839 OM OM1 9839 -0.550000 15.99940
9840 OM 9840 OM OM1 9840 -0.550000 15.99940
9841 OM 9841 OM OM1 9841 -0.550000 15.99940
9842 OM 9842 OM OM1 9842 -0.550000 15.99940
9843 OM 9843 OM OM1 9843 -0.550000 15.99940
9844 OM 9844 OM OM1 9844 -0.550000 15.99940
9845 OM 9845 OM OM1 9845 -0.550000 15.99940
9846 OM 9846 OM OM1 9846 -0.550000 15.99940
9847 OM 9847 OM OM1 9847 -0.550000 15.99940
9848 OM 9848 OM OM1 9848 -0.550000 15.99940
9849 OM 9849 OM OM1 9849 -0.550000 15.99940
9850 OM 9850 OM OM1 9850 -0.550000 15.99940
9851 OM 9851 OM OM1 9851 -0.550000 15.99940
9852 OM 9852 OM OM1 9852 -0.550000 15.99940
9853 OM 9853 OM OM1 9853 -0.550000 15.99940
9854 OM 9854 OM OM1 9854 -0.550000 15.99940
9855 OM 9855 OM OM1 9855 -0.550000 15.99940
9856 OM 9856 OM OM1 9856 -0.550000 15.99940
9857 OM 9857 OM OM1 9857 -0.550000 15.99940
9858 OM 9858 OM OM1 9858 -0.550000 15.99940
9859 OM 9859 OM OM1 9859 -0.550000 15.99940
9860 OM 9860 OM OM1 9860 -0.550000 15.99940
9861 OM 9861 OM OM1 9861 -0.550000 15.99940
9862 OM 9862 OM OM1 9862 -0.550000 15.99940
9863 OM 9863 OM OM1 9863 -0.550000 15.99940
9864 OM 9864 OM OM1 9864 -0.550000 15.99940
9865 OM 9865 OM OM1 9865 -0.550000 15.99940
9866 OM 9866 OM OM1 9866 -0.550000 15.99940
9867 OM 9867 OM OM1 9867 -0.550000 15.99940
9868 OM 9868 OM OM1 9868 -0.550000 15.99940
9869 OM 9869 OM OM1 9869 -0.550000 15.99940
9870 OM 9870 OM OM1 9870 -0.550000 15.99940
9871 OM 9871 OM OM1 9871 -0.550000 15.99940
9872 OM 9872 OM OM1 9872 -0.550000 15.99940
9873 OM 9873 OM OM1 9873 -0.550000 15.99940
9874 OM 9874 OM OM1 9874 -0.550000 15.99940
9875 OM 9875 OM OM1 9875 -0.550000 15.99940
9876 OM 9876 OM OM1 9876 -0.550000 15.99940
9877 OM 9877 OM OM1 9877 -0.550000 15.99940
9878 OM 9878 OM OM1 9878 -0.550000 15.99940
9879 OM 9879 OM OM1 9879 -0.550000 15.99940
9880 OM 9880 OM OM1 9880 -0.550000 15.99940
9881 OM 9881 OM OM1 9881 -0.550000 15.99940
9882 OM 9882 OM OM1 9882 -0.550000 15.99940
9883 OM 9883 OM OM1 9883 -0.550000 15.99940
9884 OM 9884 OM OM1 9884 -0.550000 15.99940
9885 OM 9885 OM OM1 9885 -0.550000 15.99940
9886 OM 9886 OM OM1 9886 -0.550000 15.99940
9887 OM 9887 OM OM1 9887 -0.550000 15.99940
9888 OM 9888 OM OM1 9888 -0.550000 15.99940
9889 OM 9889 OM OM1 9889 -0.550000 15.99940
9890 OM 9890 OM OM1 9890 -0.550000 15.99940
9891 OM 9891 OM OM1 9891 -0.550000 15.99940
9892 OM 9892 OM OM1 9892 -0.550000 15.99940
9893 OM 9893 OM OM1 9893 -0.550000 15.99940
9894 OM 9894 OM OM1 9894 -0.550000 15.99940
9895 OM 9895 OM OM1 9895 -0.550000 15.99940
9896 OM 9896 OM OM1 9896 -0.550000 15.99940
9897 OM 9897 OM OM1 9897 -0.550000 15.99940
9898 OM 9898 OM OM1 9898 -0.550000 15.99940
9899 OM 9899 OM OM1 9899 -0.550000 15.99940
9900 OM 9900 OM OM1 9900 -0.550000 15.99940
9901 OM 9901 OM OM1 9901 -0.550000 15.99940
9902 OM 9902 OM OM1 9902 -0.550000 15.99940
9903 OM 9903 OM OM1 9903 -0.550000 15.99940
9904 OM 9904 OM OM1 9904 -0.550000 15.99940
9905 OM 9905 OM OM1 9905 -0.550000 15.99940
9906 OM 9906 OM OM1 9906 -0.550000 15.99940
9907 OM 9907 OM OM1 9907 -0.550000 15.99940
9908 OM 9908 OM OM1 9908 -0.550000 15.99940
9909 OM 9909 OM OM1 9909 -0.550000 15.99940
9910 OM 9910 OM OM1 9910 -0.550000 15.99940
9911 OM 9911 OM OM1 9911 -0.550000 15.99940
9912 OM 9912 OM OM1 9912 -0.550000 15.99940
9913 OM 9913 OM OM1 9913 -0.550000 15.99940
9914 OM 9914 OM OM1 9914 -0.550000 15.99940
9915 OM 9915 OM OM1 9915 -0.550000 15.99940
9916 OM 9916 OM OM1 9916 -0.550000 15.99940
9917 OM 9917 OM OM1 9917 -0.550000 15.99940
9918 OM 9918 OM OM1 9918 -0.550000 15.99940
9919 OM 9919 OM OM1 9919 -0.550000 15.99940
9920 OM 9920 OM OM1 9920 -0.550000 15.99940
9921 OM 9921 OM OM1 9921 -0.550000 15.99940
9922 OM 9922 OM OM1 9922 -0.550000 15.99940
9923 OM 9923 OM OM1 9923 -0.550000 15.99940
9924 OM 9924 OM OM1 9924 -0.550000 15.99940
9925 OM 9925 OM OM1 9925 -0.550000 15.99940
9926 OM 9926 OM OM1 9926 -0.550000 15.99940
9927 OM 9927 OM OM1 9927 -0.550000 15.99940
9928 OM 9928 OM OM1 9928 -0.550000 15.99940
9929 OM 9929 OM OM1 9929 -0.550000 15.99940
9930 OM 9930 OM OM1 9930 -0.550000 15.99940
9931 OM 9931 OM OM1 9931 -0.550000 15.99940
9932 OM 9932 OM OM1 9932 -0.550000 15.99940
9933 OM 9933 OM OM1 9933 -0.550000 15.99940
9934 OM 9934 OM OM1 9934 -0.550000 15.99940
9935 OM 9935 OM OM1 9935 -0.550000 15.99940
9936 OM 9936 OM OM1 9936 -0.550000 15.99940
9937 OM 9937 OM OM1 9937 -0.550000 15.99940
9938 OM 9938 OM OM1 9938 -0.550000 15.99940
9939 OM 9939 OM OM1 9939 -0.550000 15.99940
9940 OM 9940 OM OM1 9940 -0.550000 15.99940
9941 OM 9941 OM OM1 9941 -0.550000 15.99940
9942 OM 9942 OM OM1 9942 -0.550000 15.99940
9943 OM 9943 OM OM1 9943 -0.550000 15.99940
9944 OM 9944 OM OM1 9944 -0.550000 15.99940
9945 OM 9945 OM OM1 9945 -0.550000 15.99940
9946 OM 9946 OM OM1 9946 -0.550000 15.99940
9947 OM 9947 OM OM1 9947 -0.550000 15.99940
9948 OM 9948 OM OM1 9948 -0.550000 15.99940
9949 OM 9949 OM OM1 9949 -0.550000 15.99940
9950 OM 9950 OM OM1 9950 -0.550000 15.99940
9951 OM 9951 OM OM1 9951 -0.550000 15.99940
9952 OM 9952 OM OM1 9952 -0.550000 15.99940
9953 OM 9953 OM OM1 9953 -0.550000 15.99940
9954 OM 9954 OM OM1 9954 -0.550000 15.99940
9955 OM 9955 OM OM1 9955 -0.550000 15.99940
9956 OM 9956 OM OM1 9956 -0.550000 15.99940
9957 OM 9957 OM OM1 9957 -0.550000 15.99940
9958 OM 9958 OM OM1 9958 -0.550000 15.99940
9959 OM 9959 OM OM1 9959 -0.550000 15.99940
9960 OM 9960 OM OM1 9960 -0.550000 15.99940
9961 OM 9961 OM OM1 9961 -0.550000 15.99940
9962 OM 9962 OM OM1 9962 -0.550000 15.99940
9963 OM 9963 OM OM1 9963 -0.550000 15.99940
9964 OM 9964 OM OM1 9964 -0.550000 15.99940
9965 OM 9965 OM OM1 9965 -0.550000 15.99940
9966 OM 9966 OM OM1 9966 -0.550000 15.99940
9967 OM 9967 OM OM1 9967 -0.550000 15.99940
9968 OM 9968 OM OM1 9968 -0.550000 15.99940
9969 OM 9969 OM OM1 9969 -0.550000 15.99940
9970 OM 9970 OM OM1 9970 -0.550000 15.99940
9971 OM 9971 OM OM1 9971 -0.550000 15.99940
9972 OM 9972 OM OM1 9972 -0.550000 15.99940
9973 OM 9973 OM OM1 9973 -0.550000 15.99940
9974 OM 9974 OM OM1 9974 -0.550000 15.99940
9975 OM 9975 OM OM1 9975 -0.550000 15.99940
9976 OM 9976 OM OM1 9976 -0.550000 15.99940
9977 OM 9977 OM OM1 9977 -0.550000 15.99940
9978 OM 9978 OM OM1 9978 -0.550000 15.99940
9979 OM 9979 OM OM1 9979 -0.550000 15.99940
9980 OM 9980 OM OM1 9980 -0.550000 15.99940
9981 OM 9981 OM OM1 9981 -0.550000 15.99940
9982 OM 9982 OM OM1 9982 -0.550000 15.99940
9983 OM 9983 OM OM1 9983 -0.550000 15.99940
9984 OM 9984 OM OM1 9984 -0.550000 15.99940
9985 OM 9985 OM OM1 9985 -0.550000 15.99940
9986 OM 9986 OM OM1 9986 -0.550000 15.99940
9987 OM 9987 OM OM1 9987 -0.550000 15.99940
9988 OM 9988 OM OM1 9988 -0.550000 15.99940
9989 OM 9989 OM OM1 9989 -0.550000 15.99940
9990 OM 9990 OM OM1 9990 -0.550000 15.99940
9991 OM 9991 OM OM1 9991 -0.550000 15.99940
9992 OM 9992 OM OM1 9992 -0.550000 15.99940
9993 OM 9993 OM OM1 9993 -0.550000 15.99940
9994 OM 9994 OM OM1 9994 -0.550000 15.99940
9995 OM 9995 OM OM1 9995 -0.550000 15.99940
9996 OM 9996 OM OM1 9996 -0.550000 15.99940
9997 OM 9997 OM OM1 9997 -0.550000 15.99940
9998 OM 9998 OM OM1 9998 -0.550000 15.99940
9999 OM 9999 OM OM1 9999 -0.550000 15.99940
10000 OM 10000 OM OM1 10000 -0.550000 15.99940
10001 OM 10001 OM OM1 10001 -0.550000 15.99940
10002 OM 10002 OM OM1 10002 -0.550000 15.99940
10003 OM 10003 OM OM1 10003 -0.550000 15.99940
10004 OM 10004 OM OM1 10004 -0.550000 15.99940
10005 OM 10005 OM OM1 10005 -0.550000 15.99940
10006 OM 10006 OM OM1 10006 -0.550000 15.99940
10007 OM 10007 OM OM1 10007 -0.550000 15.99940
10008 OM 10008 OM OM1 10008 -0.550000 15.99940
10009 OM 10009 OM OM1 10009 -0.550000 15.99940
10010 OM 10010 OM OM1 10010 -0.550000 15.99940
10011 OM 10011 OM OM1 10011 -0.550000 15.99940
10012 OM 10012 OM OM1 10012 -0.550000 15.99940
10013 OM 10013 OM OM1 10013 -0.550000 15.99940
10014 OM 10014 OM OM1 10014 -0.550000 15.99940
10015 OM 10015 OM OM1 10015 -0.550000 15.99940
10016 OM 10016 OM OM1 10016 -0.550000 15.99940
10017 OM 10017 OM OM1 10017 -0.550000 15.99940
10018 OM 10018 OM OM1 10018 -0.550000 15.99940
10019 OM 10019 OM OM1 10019 -0.550000 15.99940
10020 OM 10020 OM OM1 10020 -0.550000 15.99940
10021 OM 10021 OM OM1 10021 -0.550000 15.99940
10022 OM 10022 OM OM1 10022 -0.550000 15.99940
10023 OM 10023 OM OM1 10023 -0.550000 15.99940
10024 OM 10024 OM OM1 10024 -0.550000 15.99940
10025 OM 10025 OM OM1 10025 -0.550000 15.99940
10026 OM 10026 OM OM1 10026 -0.550000 15.99940
10027 OM 10027 OM OM1 10027 -0.550000 15.99940
10028 OM 10028 OM OM1 10028 -0.550000 15.99940
10029 OM 10029 OM OM1 10029 -0.550000 15.99940
10030 OM 10030 OM OM1 10030 -0.550000 15.99940
10031 OM 10031 OM OM1 10031 -0.550000 15.99940
10032 OM 10032 OM OM1 10032 -0.550000 15.99940
10033 OM 10033 OM OM1 10033 -0.550000 15.99940
10034 OM 10034 OM OM1 10034 -0.550000 15.99940
10035 OM 10035 OM OM1 10035 -0.550000 15.99940
10036 OM 10036 OM OM1 10036 -0.550000 15.99940
10037 OM 10037 OM OM1 10037 -0.550000 15.99940
10038 OM 10038 OM OM1 10038 -0.550000 15.99940
10039 OM 10039 OM OM1 10039 -0.550000 15.99940
10040 OM 10040 OM OM1 10040 -0.550000 15.99940
10041 OM 10041 OM OM1 10041 -0.550000 15.99940
10042 OM 10042 OM OM1 10042 -0.550000 15.99940
10043 OM 10043 OM OM1 10043 -0.550000 15.99940
10044 OM 10044 OM OM1 10044 -0.550000 15.99940
10045 OM 10045 OM OM1 10045 -0.550000 15.99940
10046 OM 10046 OM OM1 10046 -0.550000 15.99940
10047 OM 10047 OM OM1 10047 -0.550000 15.99940
10048 OM 10048 OM OM1 10048 -0.550000 15.99940
10049 OM 10049 OM OM1 10049 -0.550000 15.99940
10050 OM 10050 OM OM1 10050 -0.550000 15.99940
10051 OM 10051 OM OM1 10051 -0.550000 15.99940
10052 OM 10052 OM OM1 10052 -0.550000 15.99940
10053 OM 10053 OM OM1 10053 -0.550000 15.99940
10054 OM 10054 OM OM1 10054 -0.550000 15.99940
10055 OM 10055 OM OM1 10055 -0.550000 15.99940
10056 OM 10056 OM OM1 10056 -0.550000 15.99940
10057 OM 10057 OM OM1 10057 -0.550000 15.99940
10058 OM 10058 OM OM1 10058 -0.550000 15.99940
10059 OM 10059 OM OM1 10059 -0.550000 15.99940
10060 OM 10060 OM OM1 10060 -0.550000 15.99940
10061 OM 10061 OM OM1 10061 -0.550000 15.99940
10062 OM 10062 OM OM1 10062 -0.550000 15.99940
10063 OM 10063 OM OM1 10063 -0.550000 15.99940
10064 OM 10064 OM OM1 10064 -0.550000 15.99940
10065 OM 10065 OM OM1 10065 -0.550000 15.99940
10066 OM 10066 OM OM1 10066 -0.550000 15.99940
10067 OM 10067 OM OM1 10067 -0.550000 15.99940
10068 OM 10068 OM OM1 10068 -0.550000 15.99940
10069 OM 10069 OM OM1 10069 -0.550000 15.99940
10070 OM 10070 OM OM1 10070 -0.550000 15.99940
10071 OM 10071 OM OM1 10071 -0.550000 15.99940
10072 OM 10072 OM OM1 10072 -0.550000 15.99940
10073 OM 10073 OM OM1 10073 -0.550000 15.99940
10074 OM 10074 OM OM1 10074 -0.550000 15.99940
10075 OM 10075 OM OM1 10075 -0.550000 15.99940
10076 OM 10076 OM OM1 10076 -0.550000 15.99940
10077 OM 10077 OM OM1 10077 -0.550000 15.99940
10078 OM 10078 OM OM1 10078 -0.550000 15.99940
10079 OM 10079 OM OM1 10079 -0.550000 15.99940
10080 OM 10080 OM OM1 10080 -0.550000 15.99940
10081 OM 10081 OM OM1 10081 -0.550000 15.99940
10082 OM 10082 OM OM1 10082 -0.550000 15.99940
10083 OM 10083 OM OM1 10083 -0.550000 15.99940
10084 OM 10084 OM OM1 10084 -0.550000 15.99940
10085 OM 10085 OM OM1 10085 -0.550000 15.99940
10086 OM 10086 OM OM1 10086 -0.550000 15.99940
10087 OM 10087 OM OM1 10087 -0.550000 15.99940
10088 OM 10088 OM OM1 10088 -0.550000 15.99940
10089 OM 10089 OM OM1 10089 -0.550000 15.99940
10090 OM 10090 OM OM1 10090 -0.550000 15.99940
10091 OM 10091 OM OM1 10091 -0.550000 15.99940
10092 OM 10092 OM OM1 10092 -0.550000 15.99940
10093 OM 10093 OM OM1 10093 -0.550000 15.99940
10094 OM 10094 OM OM1 10094 -0.550000 15.99940
10095 OM 10095 OM OM1 10095 -0.550000 15.99940
10096 OM 10096 OM OM1 10096 -0.550000 15.99940
10097 OM 10097 OM OM1 10097 -0.550000 15.99940
10098 OM 10098 OM OM1 10098 -0.550000 15.99940
10099 OM 10099 OM OM1 10099 -0.550000 15.99940
10100 OM 10100 OM OM1 10100 -0.550000 15.99940
10101 OM 10101 OM OM1 10101 -0.550000 15.99940
10102 OM 10102 OM OM1 10102 -0.550000 15.99940
10103 OM 10103 OM OM1 10103 -0.550000 15.99940
10104 OM 10104 OM OM1 10104 -0.550000 15.99940
10105 OM 10105 OM OM1 10105 -0.550000 15.99940
10106 OM 10106 OM OM1 10106 -0.550000 15.99940
10107 OM 10107 OM OM1 10107 -0.550000 15.99940
10108 OM 10108 OM OM1 10108 -0.550000 15.99940
10109 OM 10109 OM OM1 10109 -0.550000 15.99940
10110 OM 10110 OM OM1 10110 -0.550000 15.99940
10111 OM 10111 OM OM1 10111 -0.550000 15.99940
10112 OM 10112 OM OM1 10112 -0.550000 15.99940
10113 OM 10113 OM OM1 10113 -0.550000 15.99940
10114 OM 10114 OM OM1 10114 -0.550000 15.99940
10115 OM 10115 OM OM1 10115 -0.550000 15.99940
10116 OM 10116 OM OM1 10116 -0.550000 15.99940
10117 OM 10117 OM OM1 10117 -0.550000 15.99940
10118 OM 10118 OM OM1 10118 -0.550000 15.99940
10119 OM 10119 OM OM1 10119 -0.550000 15.99940
10120 OM 10120 OM OM1 10120 -0.550000 15.99940
10121 OM 10121 OM OM1 10121 -0.550000 15.99940
10122 OM 10122 OM OM1 10122 -0.550000 15.99940
10123 OM 10123 OM OM1 10123 -0.550000 15.99940
10124 OM 10124 OM OM1 10124 -0.550000 15.99940
10125 OM 10125 OM OM1 10125 -0.550000 15.99940
10126 OM 10126 OM OM1 10126 -0.550000 15.99940
10127 OM 10127 OM OM1 10127 -0.550000 15.99940
10128 OM 10128 OM OM1 10128 -0.550000 15.99940
10129 OM 10129 OM OM1 10129 -0.550000 15.99940
10130 OM 10130 OM OM1 10130 -0.550000 15.99940
10131 OM 10131 OM OM1 10131 -0.550000 15.99940
10132 OM 10132 OM OM1 10132 -0.550000 15.99940
10133 OM 10133 OM OM1 10133 -0.550000 15.99940
10134 OM 10134 OM OM1 10134 -0.550000 15.99940
10135 OM 10135 OM OM1 10135 -0.550000 15.99940
10136 OM 10136 OM OM1 10136 -0.550000 15.99940
10137 OM 10137 OM OM1 10137 -0.550000 15.99940
10138 OM 10138 OM OM1 10138 -0.550000 15.99940
10139 OM 10139 OM OM1 10139 -0.550000 15.99940
10140 OM 10140 OM OM1 10140 -0.550000 15.99940
10141 OM 10141 OM OM1 10141 -0.550000 15.99940
10142 OM 10142 OM OM1 10142 -0.550000 15.99940
10143 OM 10143 OM OM1 10143 -0.550000 15.99940
10144 OM 10144 OM OM1 10144 -0.550000 15.99940
10145 OM 10145 OM OM1 10145 -0.550000 15.99940
10146 OM 10146 OM OM1 10146 -0.550000 15.99940
10147 OM 10147 OM OM1 10147 -0.550000 15.99940
10148 OM 10148 OM OM1 10148 -0.550000 15.99940
10149 OM 10149 OM OM1 10149 -0.550000 15.99940
10150 OM 10150 OM OM1 10150 -0.550000 15.99940
10151 OM 10151 OM OM1 10151 -0.550000 15.99940
10152 OM 10152 OM OM1 10152 -0.550000 15.99940
10153 OM 10153 OM OM1 10153 -0.550000 15.99940
10154 OM 10154 OM OM1 10154 -0.550000 15.99940
10155 OM 10155 OM OM1 10155 -0.550000 15.99940
10156 OM 10156 OM OM1 10156 -0.550000 15.99940
10157 OM 10157 OM OM1 10157 -0.550000 15.99940
10158 OM 10158 OM OM1 10158 -0.550000 15.99940
10159 OM 10159 OM OM1 10159 -0.550000 15.99940
10160 OM 10160 OM OM1 10160 -0.550000 15.99940
10161 OM 10161 OM OM1 10161 -0.550000 15.99940
10162 OM 10162 OM OM1 10162 -0.550000 15.99940
10163 OM 10163 OM OM1 10163 -0.550000 15.99940
10164 OM 10164 OM OM1 10164 -0.550000 15.99940
10165 OM 10165 OM OM1 10165 -0.550000 15.99940
10166 OM 10166 OM OM1 10166 -0.550000 15.99940
10167 OM 10167 OM OM1 10167 -0.550000 15.99940
10168 OM 10168 OM OM1 10168 -0.550000 15.99940
10169 OM 10169 OM OM1 10169 -0.550000 15.99940
10170 OM 10170 OM OM1 10170 -0.550000 15.99940
10171 OM 10171 OM OM1 10171 -0.550000 15.99940
10172 OM 10172 OM OM1 10172 -0.550000 15.99940
10173 OM 10173 OM OM1 10173 -0.550000 15.99940
10174 OM 10174 OM OM1 10174 -0.550000 15.99940
10175 OM 10175 OM OM1 10175 -0.550000 15.99940
10176 OM 10176 OM OM1 10176 -0.550000 15.99940
10177 OM 10177 OM OM1 10177 -0.550000 15.99940
10178 OM 10178 OM OM1 10178 -0.550000 15.99940
10179 OM 10179 OM OM1 10179 -0.550000 15.99940
10180 OM 10180 OM OM1 10180 -0.550000 15.99940
10181 OM 10181 OM OM1 10181 -0.550000 15.99940
10182 OM 10182 OM OM1 10182 -0.550000 15.99940
10183 OM 10183 OM OM1 10183 -0.550000 15.99940
10184 OM 10184 OM OM1 10184 -0.550000 15.99940
10185 OM 10185 OM OM1 10185 -0.550000 15.99940
10186 OM 10186 OM OM1 10186 -0.550000 15.99940
10187 OM 10187 OM OM1 10187 -0.550000 15.99940
10188 OM 10188 OM OM1 10188 -0.550000 15.99940
10189 OM 10189 OM OM1 10189 -0.550000 15.99940
10190 OM 10190 OM OM1 10190 -0.550000 15.99940
10191 OM 10191 OM OM1 10191 -0.550000 15.99940
10192 OM 10192 OM OM1 10192 -0.550000 15.99940
10193 OM 10193 OM OM1 10193 -0.550000 15.99940
10194 OM 10194 OM OM1 10194 -0.550000 15.99940
10195 OM 10195 OM OM1 10195 -0.550000 15.99940
10196 OM 10196 OM OM1 10196 -0.550000 15.99940
10197 OM 10197 OM OM1 10197 -0.550000 15.99940
10198 OM 10198 OM OM1 10198 -0.550000 15.99940
10199 OM 10199 OM OM1 10199 -0.550000 15.99940
10200 OM 10200 OM OM1 10200 -0.550000 15.99940
10201 OM 10201 OM OM1 10201 -0.550000 15.99940
10202 OM 10202 OM OM1 10202 -0.550000 15.99940
10203 OM 10203 OM OM1 10203 -0.550000 15.99940
10204 OM 10204 OM OM1 10204 -0.550000 15.99940
10205 OM 10205 OM OM1 10205 -0.550000 15.99940
10206 OM 10206 OM OM1 10206 -0.550000 15.99940
10207 OM 10207 OM OM1 10207 -0.550000 15.99940
10208 OM 10208 OM OM1 10208 -0.550000 15.99940
10209 OM 10209 OM OM1 10209 -0.550000 15.99940
10210 OM 10210 OM OM1 10210 -0.550000 15.99940
10211 OM 10211 OM OM1 10211 -0.550000 15.99940
10212 OM 10212 OM OM1 10212 -0.550000 15.99940
10213 OM 10213 OM OM1 10213 -0.550000 15.99940
10214 OM 10214 OM OM1 10214 -0.550000 15.99940
10215 OM 10215 OM OM1 10215 -0.550000 15.99940
10216 OM 10216 OM OM1 10216 -0.550000 15.99940
10217 OM 10217 OM OM1 10217 -0.550000 15.99940
10218 OM 10218 OM OM1 10218 -0.550000 15.99940
10219 OM 10219 OM OM1 10219 -0.550000 15.99940
10220 OM 10220 OM OM1 10220 -0.550000 15.99940
10221 OM 10221 OM OM1 10221 -0.550000 15.99940
10222 OM 10222 OM OM1 10222 -0.550000 15.99940
10223 OM 10223 OM OM1 10223 -0.550000 15.99940
10224 OM 10224 OM OM1 10224 -0.550000 15.99940
10225 OM 10225 OM OM1 10225 -0.550000 15.99940
10226 OM 10226 OM OM1 10226 -0.550000 15.99940
10227 OM 10227 OM OM1 10227 -0.550000 15.99940
10228 OM 10228 OM OM1 10228 -0.550000 15.99940
10229 OM 10229 OM OM1 10229 -0.550000 15.99940
10230 OM 10230 OM OM1 10230 -0.550000 15.99940
10231 OM 10231 OM OM1 10231 -0.550000 15.99940
10232 OM 10232 OM OM1 10232 -0.550000 15.99940
10233 OM 10233 OM OM1 10233 -0.550000 15.99940
10234 OM 10234 OM OM1 10234 -0.550000 15.99940
10235 OM 10235 OM OM1 10235 -0.550000 15.99940
10236 OM 10236 OM OM1 10236 -0.550000 15.99940
10237 OM 10237 OM OM1 10237 -0.550000 15.99940
10238 OM 10238 OM OM1 10238 -0.550000 15.99940
10239 OM 10239 OM OM1 10239 -0.550000 15.99940
10240 OM 10240 OM OM1 10240 -0.550000 15.99940
10241 OM 10241 OM OM1 10241 -0.550000 15.99940
10242 OM 10242 OM OM1 10242 -0.550000 15.99940
10243 OM 10243 OM OM1 10243 -0.550000 15.99940
10244 OM 10244 OM OM1 10244 -0.550000 15.99940
10245 OM 10245 OM OM1 10245 -0.550000 15.99940
10246 OM 10246 OM OM1 10246 -0.550000 15.99940
10247 OM 10247 OM OM1 10247 -0.550000 15.99940
10248 OM 10248 OM OM1 10248 -0.550000 15.99940
10249 OM 10249 OM OM1 10249 -0.550000 15.99940
10250 OM 10250 OM OM1 10250 -0.550000 15.99940
10251 OM 10251 OM OM1 10251 -0.550000 15.99940
10252 OM 10252 OM OM1 10252 -0.550000 15.99940
10253 OM 10253 OM OM1 10253 -0.550000 15.99940
10254 OM 10254 OM OM1 10254 -0.550000 15.99940
10255 OM 10255 OM OM1 10255 -0.550000 15.99940
10256 OM 10256 OM OM1 10256 -0.550000 15.99940
10257 OM 10257 OM OM1 10257 -0.550000 15.99940
10258 OM 10258 OM OM1 10258 -0.550000 15.99940
10259 OM 10259 OM OM1 10259 -0.550000 15.99940
10260 OM 10260 OM OM1 10260 -0.550000 15.99940
10261 OM 10261 OM OM1 10261 -0.550000 15.99940
10262 OM 10262 OM OM1 10262 -0.550000 15.99940
10263 OM 10263 OM OM1 10263 -0.550000 15.99940
10264 OM 10264 OM OM1 10264 -0.550000 15.99940
10265 OM 10265 OM OM1 10265 -0.550000 15.99940
10266 OM 10266 OM OM1 10266 -0.550000 15.99940
10267 OM 10267 OM OM1 10267 -0.550000 15.99940
10268 OM 10268 OM OM1 10268 -0.550000 15.99940
10269 OM 10269 OM OM1 10269 -0.550000 15.99940
10270 OM 10270 OM OM1 10270 -0.550000 15.99940
10271 OM 10271 OM OM1 10271 -0.550000 15.99940
10272 OM 10272 OM OM1 10272 -0.550000 15.99940
10273 OM 10273 OM OM1 10273 -0.550000 15.99940
10274 OM 10274 OM OM1 10274 -0.550000 15.99940
10275 OM 10275 OM OM1 10275 -0.550000 15.99940
10276 OM 10276 OM OM1 10276 -0.550000 15.99940
10277 OM 10277 OM OM1 10277 -0.550000 15.99940
10278 OM 10278 OM OM1 10278 -0.550000 15.99940
10279 OM 10279 OM OM1 10279 -0.550000 15.99940
10280 OM 10280 OM OM1 10280 -0.550000 15.99940
10281 OM 10281 OM OM1 10281 -0.550000 15.99940
10282 OM 10282 OM OM1 10282 -0.550000 15.99940
10283 OM 10283 OM OM1 10283 -0.550000 15.99940
10284 OM 10284 OM OM1 10284 -0.550000 15.99940
10285 OM 10285 OM OM1 10285 -0.550000 15.99940
10286 OM 10286 OM OM1 10286 -0.550000 15.99940
10287 OM 10287 OM OM1 10287 -0.550000 15.99940
10288 OM 10288 OM OM1 10288 -0.550000 15.99940
10289 OM 10289 OM OM1 10289 -0.550000 15.99940
10290 OM 10290 OM OM1 10290 -0.550000 15.99940
10291 OM 10291 OM OM1 10291 -0.550000 15.99940
10292 OM 10292 OM OM1 10292 -0.550000 15.99940
10293 OM 10293 OM OM1 10293 -0.550000 15.99940
10294 OM 10294 OM OM1 10294 -0.550000 15.99940
10295 OM 10295 OM OM1 10295 -0.550000 15.99940
10296 OM 10296 OM OM1 10296 -0.550000 15.99940
10297 OM 10297 OM OM1 10297 -0.550000 15.99940
10298 OM 10298 OM OM1 10298 -0.550000 15.99940
10299 OM 10299 OM OM1 10299 -0.550000 15.99940
10300 OM 10300 OM OM1 10300 -0.550000 15.99940
10301 OM 10301 OM OM1 10301 -0.550000 15.99940
10302 OM 10302 OM OM1 10302 -0.550000 15.99940
10303 OM 10303 OM OM1 10303 -0.550000 15.99940
10304 OM 10304 OM OM1 10304 -0.550000 15.99940
10305 OM 10305 OM OM1 10305 -0.550000 15.99940
10306 OM 10306 OM OM1 10306 -0.550000 15.99940
10307 OM 10307 OM OM1 10307 -0.550000 15.99940
10308 OM 10308 OM OM1 10308 -0.550000 15.99940
10309 OM 10309 OM OM1 10309 -0.550000 15.99940
10310 OM 10310 OM OM1 10310 -0.550000 15.99940
10311 OM 10311 OM OM1 10311 -0.550000 15.99940
10312 OM 10312 OM OM1 10312 -0.550000 15.99940
10313 OM 10313 OM OM1 10313 -0.550000 15.99940
10314 OM 10314 OM OM1 10314 -0.550000 15.99940
10315 OM 10315 OM OM1 10315 -0.550000 15.99940
10316 OM 10316 OM OM1 10316 -0.550000 15.99940
10317 OM 10317 OM OM1 10317 -0.550000 15.99940
10318 OM 10318 OM OM1 10318 -0.550000 15.99940
10319 OM 10319 OM OM1 10319 -0.550000 15.99940
10320 OM 10320 OM OM1 10320 -0.550000 15.99940
10321 OM 10321 OM OM1 10321 -0.550000 15.99940
10322 OM 10322 OM OM1 10322 -0.550000 15.99940
10323 OM 10323 OM OM1 10323 -0.550000 15.99940
10324 OM 10324 OM OM1 10324 -0.550000 15.99940
10325 OM 10325 OM OM1 10325 -0.550000 15.99940
10326 OM 10326 OM OM1 10326 -0.550000 15.99940
10327 OM 10327 OM OM1 10327 -0.550000 15.99940
10328 OM 10328 OM OM1 10328 -0.550000 15.99940
10329 OM 10329 OM OM1 10329 -0.550000 15.99940
10330 OM 10330 OM OM1 10330 -0.550000 15.99940
10331 OM 10331 OM OM1 10331 -0.550000 15.99940
10332 OM 10332 OM OM1 10332 -0.550000 15.99940
10333 OM 10333 OM OM1 10333 -0.550000 15.99940
10334 OM 10334 OM OM1 10334 -0.550000 15.99940
10335 OM 10335 OM OM1 10335 -0.550000 15.99940
10336 OM 10336 OM OM1 10336 -0.550000 15.99940
10337 OM 10337 OM OM1 10337 -0.550000 15.99940
10338 OM 10338 OM OM1 10338 -0.550000 15.99940
10339 OM 10339 OM OM1 10339 -0.550000 15.99940
10340 OM 10340 OM OM1 10340 -0.550000 15.99940
10341 OM 10341 OM OM1 10341 -0.550000 15.99940
10342 OM 10342 OM OM1 10342 -0.550000 15.99940
10343 OM 10343 OM OM1 10343 -0.550000 15.99940
10344 OM 10344 OM OM1 10344 -0.550000 15.99940
10345 OM 10345 OM OM1 10345 -0.550000 15.99940
10346 OM 10346 OM OM1 10346 -0.550000 15.99940
10347 OM 10347 OM OM1 10347 -0.550000 15.99940
10348 OM 10348 OM OM1 10348 -0.550000 15.99940
10349 OM 10349 OM OM1 10349 -0.550000 15.99940
10350 OM 10350 OM OM1 10350 -0.550000 15.99940
10351 OM 10351 OM OM1 10351 -0.550000 15.99940
10352 OM 10352 OM OM1 10352 -0.550000 15.99940
10353 OM 10353 OM OM1 10353 -0.550000 15.99940
10354 OM 10354 OM OM1 10354 -0.550000 15.99940
10355 OM 10355 OM OM1 10355 -0.550000 15.99940
10356 OM 10356 OM OM1 10356 -0.550000 15.99940
10357 OM 10357 OM OM1 10357 -0.550000 15.99940
10358 OM 10358 OM OM1 10358 -0.550000 15.99940
10359 OM 10359 OM OM1 10359 -0.550000 15.99940
10360 OM 10360 OM OM1 10360 -0.550000 15.99940
10361 OM 10361 OM OM1 10361 -0.550000 15.99940
10362 OM 10362 OM OM1 10362 -0.550000 15.99940
10363 OM 10363 OM OM1 10363 -0.550000 15.99940
10364 OM 10364 OM OM1 10364 -0.550000 15.99940
10365 OM 10365 OM OM1 10365 -0.550000 15.99940
10366 OM 10366 OM OM1 10366 -0.550000 15.99940
10367 OM 10367 OM OM1 10367 -0.550000 15.99940
10368 OM 10368 OM OM1 10368 -0.550000 15.99940
10369 OM 10369 OM OM1 10369 -0.550000 15.99940
10370 OM 10370 OM OM1 10370 -0.550000 15.99940
10371 OM 10371 OM OM1 10371 -0.550000 15.99940
10372 OM 10372 OM OM1 10372 -0.550000 15.99940
10373 OM 10373 OM OM1 10373 -0.550000 15.99940
10374 OM 10374 OM OM1 10374 -0.550000 15.99940
10375 OM 10375 OM OM1 10375 -0.550000 15.99940
10376 OM 10376 OM OM1 10376 -0.550000 15.99940
10377 OM 10377 OM OM1 10377 -0.550000 15.99940
10378 OM 10378 OM OM1 10378 -0.550000 15.99940
10379 OM 10379 OM OM1 10379 -0.550000 15.99940
10380 OM 10380 OM OM1 10380 -0.550000 15.99940
10381 OM 10381 OM OM1 10381 -0.550000 15.99940
10382 OM 10382 OM OM1 10382 -0.550000 15.99940
10383 OM 10383 OM OM1 10383 -0.550000 15.99940
10384 OM 10384 OM OM1 10384 -0.550000 15.99940
10385 OM 10385 OM OM1 10385 -0.550000 15.99940
10386 OM 10386 OM OM1 10386 -0.550000 15.99940
10387 OM 10387 OM OM1 10387 -0.550000 15.99940
10388 OM 10388 OM OM1 10388 -0.550000 15.99940
10389 OM 10389 OM OM1 10389 -0.550000 15.99940
10390 OM 10390 OM OM1 10390 -0.550000 15.99940
10391 OM 10391 OM OM1 10391 -0.550000 15.99940
10392 OM 10392 OM OM1 10392 -0.550000 15.99940
10393 OM 10393 OM OM1 10393 -0.550000 15.99940
10394 OM 10394 OM OM1 10394 -0.550000 15.99940
10395 OM 10395 OM OM1 10395 -0.550000 15.99940
10396 OM 10396 OM OM1 10396 -0.550000 15.99940
10397 OM 10397 OM OM1 10397 -0.550000 15.99940
10398 OM 10398 OM OM1 10398 -0.550000 15.99940
10399 OM 10399 OM OM1 10399 -0.550000 15.99940
10400 OM 10400 OM OM1 10400 -0.550000 15.99940
10401 OM 10401 OM OM1 10401 -0.550000 15.99940
10402 OM 10402 OM OM1 10402 -0.550000 15.99940
10403 OM 10403 OM OM1 10403 -0.550000 15.99940
10404 OM 10404 OM OM1 10404 -0.550000 15.99940
10405 OM 10405 OM OM1 10405 -0.550000 15.99940
10406 OM 10406 OM OM1 10406 -0.550000 15.99940
10407 OM 10407 OM OM1 10407 -0.550000 15.99940
10408 OM 10408 OM OM1 10408 -0.550000 15.99940
10409 OM 10409 OM OM1 10409 -0.550000 15.99940
10410 OM 10410 OM OM1 10410 -0.550000 15.99940
10411 OM 10411 OM OM1 10411 -0.550000 15.99940
10412 OM 10412 OM OM1 10412 -0.550000 15.99940
10413 OM 10413 OM OM1 10413 -0.550000 15.99940
10414 OM 10414 OM OM1 10414 -0.550000 15.99940
10415 OM 10415 OM OM1 10415 -0.550000 15.99940
10416 OM 10416 OM OM1 10416 -0.550000 15.99940
10417 OM 10417 OM OM1 10417 -0.550000 15.99940
10418 OM 10418 OM OM1 10418 -0.550000 15.99940
10419 OM 10419 OM OM1 10419 -0.550000 15.99940
10420 OM 10420 OM OM1 10420 -0.550000 15.99940
10421 OM 10421 OM OM1 10421 -0.550000 15.99940
10422 OM 10422 OM OM1 10422 -0.550000 15.99940
10423 OM 10423 OM OM1 10423 -0.550000 15.99940
10424 OM 10424 OM OM1 10424 -0.550000 15.99940
10425 OM 10425 OM OM1 10425 -0.550000 15.99940
10426 OM 10426 OM OM1 10426 -0.550000 15.99940
10427 OM 10427 OM OM1 10427 -0.550000 15.99940
10428 OM 10428 OM OM1 10428 -0.550000 15.99940
10429 OM 10429 OM OM1 10429 -0.550000 15.99940
10430 OM 10430 OM OM1 10430 -0.550000 15.99940
10431 OM 10431 OM OM1 10431 -0.550000 15.99940
10432 OM 10432 OM OM1 10432 -0.550000 15.99940
10433 OM 10433 OM OM1 10433 -0.550000 15.99940
10434 OM 10434 OM OM1 10434 -0.550000 15.99940
10435 OM 10435 OM OM1 10435 -0.550000 15.99940
10436 OM 10436 OM OM1 10436 -0.550000 15.99940
10437 OM 10437 OM OM1 10437 -0.550000 15.99940
10438 OM 10438 OM OM1 10438 -0.550000 15.99940
10439 OM 10439 OM OM1 10439 -0.550000 15.99940
10440 OM 10440 OM OM1 10440 -0.550000 15.99940
10441 OM 10441 OM OM1 10441 -0.550000 15.99940
10442 OM 10442 OM OM1 10442 -0.550000 15.99940
10443 OM 10443 OM OM1 10443 -0.550000 15.99940
10444 OM 10444 OM OM1 10444 -0.550000 15.99940
10445 OM 10445 OM OM1 10445 -0.550000 15.99940
10446 OM 10446 OM OM1 10446 -0.550000 15.99940
10447 OM 10447 OM OM1 10447 -0.550000 15.99940
10448 OM 10448 OM OM1 10448 -0.550000 15.99940
10449 OM 10449 OM OM1 10449 -0.550000 15.99940
10450 OM 10450 OM OM1 10450 -0.550000 15.99940
10451 OM 10451 OM OM1 10451 -0.550000 15.99940
10452 OM 10452 OM OM1 10452 -0.550000 15.99940
10453 OM 10453 OM OM1 10453 -0.550000 15.99940
10454 OM 10454 OM OM1 10454 -0.550000 15.99940
10455 OM 10455 OM OM1 10455 -0.550000 15.99940
10456 OM 10456 OM OM1 10456 -0.550000 15.99940
10457 OM 10457 OM OM1 10457 -0.550000 15.99940
10458 OM 10458 OM OM1 10458 -0.550000 15.99940
10459 OM 10459 OM OM1 10459 -0.550000 15.99940
10460 OM 10460 OM OM1 10460 -0.550000 15.99940
10461 OM 10461 OM OM1 10461 -0.550000 15.99940
10462 OM 10462 OM OM1 10462 -0.550000 15.99940
10463 OM 10463 OM OM1 10463 -0.550000 15.99940
10464 OM 10464 OM OM1 10464 -0.550000 15.99940
10465 OM 10465 OM OM1 10465 -0.550000 15.99940
10466 OM 10466 OM OM1 10466 -0.550000 15.99940
10467 OM 10467 OM OM1 10467 -0.550000 15.99940
10468 OM 10468 OM OM1 10468 -0.550000 15.99940
10469 OM 10469 OM OM1 10469 -0.550000 15.99940
10470 OM 10470 OM OM1 10470 -0.550000 15.99940
10471 OM 10471 OM OM1 10471 -0.550000 15.99940
10472 OM 10472 OM OM1 10472 -0.550000 15.99940
10473 OM 10473 OM OM1 10473 -0.550000 15.99940
10474 OM 10474 OM OM1 10474 -0.550000 15.99940
10475 OM 10475 OM OM1 10475 -0.550000 15.99940
10476 OM 10476 OM OM1 10476 -0.550000 15.99940
10477 OM 10477 OM OM1 10477 -0.550000 15.99940
10478 OM 10478 OM OM1 10478 -0.550000 15.99940
10479 OM 10479 OM OM1 10479 -0.550000 15.99940
10480 OM 10480 OM OM1 10480 -0.550000 15.99940
10481 OM 10481 OM OM1 10481 -0.550000 15.99940
10482 OM 10482 OM OM1 10482 -0.550000 15.99940
10483 OM 10483 OM OM1 10483 -0.550000 15.99940
10484 OM 10484 OM OM1 10484 -0.550000 15.99940
10485 OM 10485 OM OM1 10485 -0.550000 15.99940
10486 OM 10486 OM OM1 10486 -0.550000 15.99940
10487 OM 10487 OM OM1 10487 -0.550000 15.99940
10488 OM 10488 OM OM1 10488 -0.550000 15.99940
10489 OM 10489 OM OM1 10489 -0.550000 15.99940
10490 OM 10490 OM OM1 10490 -0.550000 15.99940
10491 OM 10491 OM OM1 10491 -0.550000 15.99940
10492 OM 10492 OM OM1 10492 -0.550000 15.99940
10493 OM 10493 OM OM1 10493 -0.550000 15.99940
10494 OM 10494 OM OM1 10494 -0.550000 15.99940
10495 OM 10495 OM OM1 10495 -0.550000 15.99940
10496 OM 10496 OM OM1 10496 -0.550000 15.99940
10497 OM 10497 OM OM1 10497 -0.550000 15.99940
10498 OM 10498 OM OM1 10498 -0.550000 15.99940
10499 OM 10499 OM OM1 10499 -0.550000 15.99940
10500 OM 10500 OM OM1 10500 -0.550000 15.99940
10501 OM 10501 OM OM1 10501 -0.550000 15.99940
10502 OM 10502 OM OM1 10502 -0.550000 15.99940
10503 OM 10503 OM OM1 10503 -0.550000 15.99940
10504 OM 10504 OM OM1 10504 -0.550000 15.99940
10505 OM 10505 OM OM1 10505 -0.550000 15.99940
10506 OM 10506 OM OM1 10506 -0.550000 15.99940
10507 OM 10507 OM OM1 10507 -0.550000 15.99940
10508 OM 10508 OM OM1 10508 -0.550000 15.99940
10509 OM 10509 OM OM1 10509 -0.550000 15.99940
10510 OM 10510 OM OM1 10510 -0.550000 15.99940
10511 OM 10511 OM OM1 10511 -0.550000 15.99940
10512 OM 10512 OM OM1 10512 -0.550000 15.99940
10513 OM 10513 OM OM1 10513 -0.550000 15.99940
10514 OM 10514 OM OM1 10514 -0.550000 15.99940
10515 OM 10515 OM OM1 10515 -0.550000 15.99940
10516 OM 10516 OM OM1 10516 -0.550000 15.99940
10517 OM 10517 OM OM1 10517 -0.550000 15.99940
10518 OM 10518 OM OM1 10518 -0.550000 15.99940
10519 OM 10519 OM OM1 10519 -0.550000 15.99940
10520 OM 10520 OM OM1 10520 -0.550000 15.99940
10521 OM 10521 OM OM1 10521 -0.550000 15.99940
10522 OM 10522 OM OM1 10522 -0.550000 15.99940
10523 OM 10523 OM OM1 10523 -0.550000 15.99940
10524 OM 10524 OM OM1 10524 -0.550000 15.99940
10525 OM 10525 OM OM1 10525 -0.550000 15.99940
10526 OM 10526 OM OM1 10526 -0.550000 15.99940
10527 OM 10527 OM OM1 10527 -0.550000 15.99940
10528 OM 10528 OM OM1 10528 -0.550000 15.99940
10529 OM 10529 OM OM1 10529 -0.550000 15.99940
10530 OM 10530 OM OM1 10530 -0.550000 15.99940
10531 OM 10531 OM OM1 10531 -0.550000 15.99940
10532 OM 10532 OM OM1 10532 -0.550000 15.99940
10533 OM 10533 OM OM1 10533 -0.550000 15.99940
10534 OM 10534 OM OM1 10534 -0.550000 15.99940
10535 OM 10535 OM OM1 10535 -0.550000 15.99940
10536 OM 10536 OM OM1 10536 -0.550000 15.99940
10537 OM 10537 OM OM1 10537 -0.550000 15.99940
10538 OM 10538 OM OM1 10538 -0.550000 15.99940
10539 OM 10539 OM OM1 10539 -0.550000 15.99940
10540 OM 10540 OM OM1 10540 -0.550000 15.99940
10541 OM 10541 OM OM1 10541 -0.550000 15.99940
10542 OM 10542 OM OM1 10542 -0.550000 15.99940
10543 OM 10543 OM OM1 10543 -0.550000 15.99940
10544 OM 10544 OM OM1 10544 -0.550000 15.99940
10545 OM 10545 OM OM1 10545 -0.550000 15.99940
10546 OM 10546 OM OM1 10546 -0.550000 15.99940
10547 OM 10547 OM OM1 10547 -0.550000 15.99940
10548 OM 10548 OM OM1 10548 -0.550000 15.99940
10549 OM 10549 OM OM1 10549 -0.550000 15.99940
10550 OM 10550 OM OM1 10550 -0.550000 15.99940
10551 OM 10551 OM OM1 10551 -0.550000 15.99940
10552 OM 10552 OM OM1 10552 -0.550000 15.99940
10553 OM 10553 OM OM1 10553 -0.550000 15.99940
10554 OM 10554 OM OM1 10554 -0.550000 15.99940
10555 OM 10555 OM OM1 10555 -0.550000 15.99940
10556 OM 10556 OM OM1 10556 -0.550000 15.99940
10557 OM 10557 OM OM1 10557 -0.550000 15.99940
10558 OM 10558 OM OM1 10558 -0.550000 15.99940
10559 OM 10559 OM OM1 10559 -0.550000 15.99940
10560 OM 10560 OM OM1 10560 -0.550000 15.99940
10561 OM 10561 OM OM1 10561 -0.550000 15.99940
10562 OM 10562 OM OM1 10562 -0.550000 15.99940
10563 OM 10563 OM OM1 10563 -0.550000 15.99940
10564 OM 10564 OM OM1 10564 -0.550000 15.99940
10565 OM 10565 OM OM1 10565 -0.550000 15.99940
10566 OM 10566 OM OM1 10566 -0.550000 15.99940
10567 OM 10567 OM OM1 10567 -0.550000 15.99940
10568 OM 10568 OM OM1 10568 -0.550000 15.99940
10569 OM 10569 OM OM1 10569 -0.550000 15.99940
10570 OM 10570 OM OM1 10570 -0.550000 15.99940
10571 OM 10571 OM OM1 10571 -0.550000 15.99940
10572 OM 10572 OM OM1 10572 -0.550000 15.99940
10573 OM 10573 OM OM1 10573 -0.550000 15.99940
10574 OM 10574 OM OM1 10574 -0.550000 15.99940
10575 OM 10575 OM OM1 10575 -0.550000 15.99940
10576 OM 10576 OM OM1 10576 -0.550000 15.99940
10577 OM 10577 OM OM1 10577 -0.550000 15.99940
10578 OM 10578 OM OM1 10578 -0.550000 15.99940
10579 OM 10579 OM OM1 10579 -0.550000 15.99940
10580 OM 10580 OM OM1 10580 -0.550000 15.99940
10581 OM 10581 OM OM1 10581 -0.550000 15.99940
10582 OM 10582 OM OM1 10582 -0.550000 15.99940
10583 OM 10583 OM OM1 10583 -0.550000 15.99940
10584 OM 10584 OM OM1 10584 -0.550000 15.99940
10585 OM 10585 OM OM1 10585 -0.550000 15.99940
10586 OM 10586 OM OM1 10586 -0.550000 15.99940
10587 OM 10587 OM OM1 10587 -0.550000 15.99940
10588 OM 10588 OM OM1 10588 -0.550000 15.99940
10589 OM 10589 OM OM1 10589 -0.550000 15.99940
10590 OM 10590 OM OM1 10590 -0.550000 15.99940
10591 OM 10591 OM OM1 10591 -0.550000 15.99940
10592 OM 10592 OM OM1 10592 -0.550000 15.99940
10593 OM 10593 OM OM1 10593 -0.550000 15.99940
10594 OM 10594 OM OM1 10594 -0.550000 15.99940
10595 OM 10595 OM OM1 10595 -0.550000 15.99940
10596 OM 10596 OM OM1 10596 -0.550000 15.99940
10597 OM 10597 OM OM1 10597 -0.550000 15.99940
10598 OM 10598 OM OM1 10598 -0.550000 15.99940
10599 OM 10599 OM OM1 10599 -0.550000 15.99940
10600 OM 10600 OM OM1 10600 -0.550000 15.99940
10601 OM 10601 OM OM1 10601 -0.550000 15.99940
10602 OM 10602 OM OM1 10602 -0.550000 15.99940
10603 OM 10603 OM OM1 10603 -0.550000 15.99940
10604 OM 10604 OM OM1 10604 -0.550000 15.99940
10605 OM 10605 OM OM1 10605 -0.550000 15.99940
10606 OM 10606 OM OM1 10606 -0.550000 15.99940
10607 OM 10607 OM OM1 10607 -0.550000 15.99940
10608 OM 10608 OM OM1 10608 -0.550000 15.99940
10609 OM 10609 OM OM1 10609 -0.550000 15.99940
10610 OM 10610 OM OM1 10610 -0.550000 15.99940
10611 OM 10611 OM OM1 10611 -0.550000 15.99940
10612 OM 10612 OM OM1 10612 -0.550000 15.99940
10613 OM 10613 OM OM1 10613 -0.550000 15.99940
10614 OM 10614 OM OM1 10614 -0.550000 15.99940
10615 OM 10615 OM OM1 10615 -0.550000 15.99940
10616 OM 10616 OM OM1 10616 -0.550000 15.99940
10617 OM 10617 OM OM1 10617 -0.550000 15.99940
10618 OM 10618 OM OM1 10618 -0.550000 15.99940
10619 OM 10619 OM OM1 10619 -0.550000 15.99940
10620 OM 10620 OM OM1 10620 -0.550000 15.99940
10621 OM 10621 OM OM1 10621 -0.550000 15.99940
10622 OM 10622 OM OM1 10622 -0.550000 15.99940
10623 OM 10623 OM OM1 10623 -0.550000 15.99940
10624 OM 10624 OM OM1 10624 -0.550000 15.99940
10625 OM 10625 OM OM1 10625 -0.550000 15.99940
10626 OM 10626 OM OM1 10626 -0.550000 15.99940
10627 OM 10627 OM OM1 10627 -0.550000 15.99940
10628 OM 10628 OM OM1 10628 -0.550000 15.99940
10629 OM 10629 OM OM1 10629 -0.550000 15.99940
10630 OM 10630 OM OM1 10630 -0.550000 15.99940
10631 OM 10631 OM OM1 10631 -0.550000 15.99940
10632 OM 10632 OM OM1 10632 -0.550000 15.99940
10633 OM 10633 OM OM1 10633 -0.550000 15.99940
10634 OM 10634 OM OM1 10634 -0.550000 15.99940
10635 OM 10635 OM OM1 10635 -0.550000 15.99940
10636 OM 10636 OM OM1 10636 -0.550000 15.99940
10637 OM 10637 OM OM1 10637 -0.550000 15.99940
10638 OM 10638 OM OM1 10638 -0.550000 15.99940
10639 OM 10639 OM OM1 10639 -0.550000 15.99940
10640 OM 10640 OM OM1 10640 -0.550000 15.99940
10641 OM 10641 OM OM1 10641 -0.550000 15.99940
10642 OM 10642 OM OM1 10642 -0.550000 15.99940
10643 OM 10643 OM OM1 10643 -0.550000 15.99940
10644 OM 10644 OM OM1 10644 -0.550000 15.99940
10645 OM 10645 OM OM1 10645 -0.550000 15.99940
10646 OM 10646 OM OM1 10646 -0.550000 15.99940
10647 OM 10647 OM OM1 10647 -0.550000 15.99940
10648 OM 10648 OM OM1 10648 -0.550000 15.99940
10649 OM 10649 OM OM1 10649 -0.550000 15.99940
10650 OM 10650 OM OM1 10650 -0.550000 15.99940
10651 OM 10651 OM OM1 10651 -0.550000 15.99940
10652 OM 10652 OM OM1 10652 -0.550000 15.99940
10653 OM 10653 OM OM1 10653 -0.550000 15.99940
10654 OM 10654 OM OM1 10654 -0.550000 15.99940
10655 OM 10655 OM OM1 10655 -0.550000 15.99940
10656 OM 10656 OM OM1 10656 -0.550000 15.99940
10657 OM 10657 OM OM1 10657 -0.550000 15.99940
10658 OM 10658 OM OM1 10658 -0.550000 15.99940
10659 OM 10659 OM OM1 10659 -0.550000 15.99940
10660 OM 10660 OM OM1 10660 -0.550000 15.99940
10661 OM 10661 OM OM1 10661 -0.550000 15.99940
10662 OM 10662 OM OM1 10662 -0.550000 15.99940
10663 OM 10663 OM OM1 10663 -0.550000 15.99940
10664 OM 10664 OM OM1 10664 -0.550000 15.99940
10665 OM 10665 OM OM1 10665 -0.550000 15.99940
10666 OM 10666 OM OM1 10666 -0.550000 15.99940
10667 OM 10667 OM OM1 10667 -0.550000 15.99940
10668 OM 10668 OM OM1 10668 -0.550000 15.99940
10669 OM 10669 OM OM1 10669 -0.550000 15.99940
10670 OM 10670 OM OM1 10670 -0.550000 15.99940
10671 OM 10671 OM OM1 10671 -0.550000 15.99940
10672 OM 10672 OM OM1 10672 -0.550000 15.99940
10673 OM 10673 OM OM1 10673 -0.550000 15.99940
10674 OM 10674 OM OM1 10674 -0.550000 15.99940
10675 OM 10675 OM OM1 10675 -0.550000 15.99940
10676 OM 10676 OM OM1 10676 -0.550000 15.99940
10677 OM 10677 OM OM1 10677 -0.550000 15.99940
10678 OM 10678 OM OM1 10678 -0.550000 15.99940
10679 OM 10679 OM OM1 10679 -0.550000 15.99940
10680 OM 10680 OM OM1 10680 -0.550000 15.99940
10681 OM 10681 OM OM1 10681 -0.550000 15.99940
10682 OM 10682 OM OM1 10682 -0.550000 15.99940
10683 OM 10683 OM OM1 10683 -0.550000 15.99940
10684 OM 10684 OM OM1 10684 -0.550000 15.99940
10685 OM 10685 OM OM1 10685 -0.550000 15.99940
10686 OM 10686 OM OM1 10686 -0.550000 15.99940
10687 OM 10687 OM OM1 10687 -0.550000 15.99940
10688 OM 10688 OM OM1 10688 -0.550000 15.99940
10689 OM 10689 OM OM1 10689 -0.550000 15.99940
10690 OM 10690 OM OM1 10690 -0.550000 15.99940
10691 OM 10691 OM OM1 10691 -0.550000 15.99940
10692 OM 10692 OM OM1 10692 -0.550000 15.99940
10693 OM 10693 OM OM1 10693 -0.550000 15.99940
10694 OM 10694 OM OM1 10694 -0.550000 15.99940
10695 OM 10695 OM OM1 10695 -0.550000 15.99940
10696 OM 10696 OM OM1 10696 -0.550000 15.99940
10697 OM 10697 OM OM1 10697 -0.550000 15.99940
10698 OM 10698 OM OM1 10698 -0.550000 15.99940
10699 OM 10699 OM OM1 10699 -0.550000 15.99940
10700 OM 10700 OM OM1 10700 -0.550000 15.99940
10701 OM 10701 OM OM1 10701 -0.550000 15.99940
10702 OM 10702 OM OM1 10702 -0.550000 15.99940
10703 OM 10703 OM OM1 10703 -0.550000 15.99940
10704 OM 10704 OM OM1 10704 -0.550000 15.99940
10705 OM 10705 OM OM1 10705 -0.550000 15.99940
10706 OM 10706 OM OM1 10706 -0.550000 15.99940
10707 OM 10707 OM OM1 10707 -0.550000 15.99940
10708 OM 10708 OM OM1 10708 -0.550000 15.99940
10709 OM 10709 OM OM1 10709 -0.550000 15.99940
10710 OM 10710 OM OM1 10710 -0.550000 15.99940
10711 OM 10711 OM OM1 10711 -0.550000 15.99940
10712 OM 10712 OM OM1 10712 -0.550000 15.99940
10713 OM 10713 OM OM1 10713 -0.550000 15.99940
10714 OM 10714 OM OM1 10714 -0.550000 15.99940
10715 OM 10715 OM OM1 10715 -0.550000 15.99940
10716 OM 10716 OM OM1 10716 -0.550000 15.99940
10717 OM 10717 OM OM1 10717 -0.550000 15.99940
10718 OM 10718 OM OM1 10718 -0.550000 15.99940
10719 OM 10719 OM OM1 10719 -0.550000 15.99940
10720 OM 10720 OM OM1 10720 -0.550000 15.99940
10721 OM 10721 OM OM1 10721 -0.550000 15.99940
10722 OM 10722 OM OM1 10722 -0.550000 15.99940
10723 OM 10723 OM OM1 10723 -0.550000 15.99940
10724 OM 10724 OM OM1 10724 -0.550000 15.99940
10725 OM 10725 OM OM1 10725 -0.550000 15.99940
10726 OM 10726 OM OM1 10726 -0.550000 15.99940
10727 OM 10727 OM OM1 10727 -0.550000 15.99940
10728 OM 10728 OM OM1 10728 -0.550000 15.99940
10729 OM 10729 OM OM1 10729 -0.550000 15.99940
10730 OM 10730 OM OM1 10730 -0.550000 15.99940
10731 OM 10731 OM OM1 10731 -0.550000 15.99940
10732 OM 10732 OM OM1 10732 -0.550000 15.99940
10733 OM 10733 OM OM1 10733 -0.550000 15.99940
10734 OM 10734 OM OM1 10734 -0.550000 15.99940
10735 OM 10735 OM OM1 10735 -0.550000 15.99940
10736 OM 10736 OM OM1 10736 -0.550000 15.99940
10737 OM 10737 OM OM1 10737 -0.550000 15.99940
10738 OM 10738 OM OM1 10738 -0.550000 15.99940
10739 OM 10739 OM OM1 10739 -0.550000 15.99940
10740 OM 10740 OM OM1 10740 -0.550000 15.99940
10741 OM 10741 OM OM1 10741 -0.550000 15.99940
10742 OM 10742 OM OM1 10742 -0.550000 15.99940
10743 OM 10743 OM OM1 10743 -0.550000 15.99940
10744 OM 10744 OM OM1 10744 -0.550000 15.99940
10745 OM 10745 OM OM1 10745 -0.550000 15.99940
10746 OM 10746 OM OM1 10746 -0.550000 15.99940
10747 OM 10747 OM OM1 10747 -0.550000 15.99940
10748 OM 10748 OM OM1 10748 -0.550000 15.99940
10749 OM 10749 OM OM1 10749 -0.550000 15.99940
10750 OM 10750 OM OM1 10750 -0.550000 15.99940
10751 OM 10751 OM OM1 10751 -0.550000 15.99940
10752 OM 10752 OM OM1 10752 -0.550000 15.99940
10753 OM 10753 OM OM1 10753 -0.550000 15.99940
10754 OM 10754 OM OM1 10754 -0.550000 15.99940
10755 OM 10755 OM OM1 10755 -0.550000 15.99940
10756 OM 10756 OM OM1 10756 -0.550000 15.99940
10757 OM 10757 OM OM1 10757 -0.550000 15.99940
10758 OM 10758 OM OM1 10758 -0.550000 15.99940
10759 OM 10759 OM OM1 10759 -0.550000 15.99940
10760 OM 10760 OM OM1 10760 -0.550000 15.99940
10761 OM 10761 OM OM1 10761 -0.550000 15.99940
10762 OM 10762 OM OM1 10762 -0.550000 15.99940
10763 OM 10763 OM OM1 10763 -0.550000 15.99940
10764 OM 10764 OM OM1 10764 -0.550000 15.99940
10765 OM 10765 OM OM1 10765 -0.550000 15.99940
10766 OM 10766 OM OM1 10766 -0.550000 15.99940
10767 OM 10767 OM OM1 10767 -0.550000 15.99940
10768 OM 10768 OM OM1 10768 -0.550000 15.99940
10769 OM 10769 OM OM1 10769 -0.550000 15.99940
10770 OM 10770 OM OM1 10770 -0.550000 15.99940
10771 OM 10771 OM OM1 10771 -0.550000 15.99940
10772 OM 10772 OM OM1 10772 -0.550000 15.99940
10773 OM 10773 OM OM1 10773 -0.550000 15.99940
10774 OM 10774 OM OM1 10774 -0.550000 15.99940
10775 OM 10775 OM OM1 10775 -0.550000 15.99940
10776 OM 10776 OM OM1 10776 -0.550000 15.99940
10777 OM 10777 OM OM1 10777 -0.550000 15.99940
10778 OM 10778 OM OM1 10778 -0.550000 15.99940
10779 OM 10779 OM OM1 10779 -0.550000 15.99940
10780 OM 10780 OM OM1 10780 -0.550000 15.99940
10781 OM 10781 OM OM1 10781 -0.550000 15.99940
10782 OM 10782 OM OM1 10782 -0.550000 15.99940
10783 OM 10783 OM OM1 10783 -0.550000 15.99940
10784 OM 10784 OM OM1 10784 -0.550000 15.99940
10785 OM 10785 OM OM1 10785 -0.550000 15.99940
10786 OM 10786 OM OM1 10786 -0.550000 15.99940
10787 OM 10787 OM OM1 10787 -0.550000 15.99940
10788 OM 10788 OM OM1 10788 -0.550000 15.99940
10789 OM 10789 OM OM1 10789 -0.550000 15.99940
10790 OM 10790 OM OM1 10790 -0.550000 15.99940
10791 OM 10791 OM OM1 10791 -0.550000 15.99940
10792 OM 10792 OM OM1 10792 -0.550000 15.99940
10793 OM 10793 OM OM1 10793 -0.550000 15.99940
10794 OM 10794 OM OM1 10794 -0.550000 15.99940
10795 OM 10795 OM OM1 10795 -0.550000 15.99940
10796 OM 10796 OM OM1 10796 -0.550000 15.99940
10797 OM 10797 OM OM1 10797 -0.550000 15.99940
10798 OM 10798 OM OM1 10798 -0.550000 15.99940
10799 OM 10799 OM OM1 10799 -0.550000 15.99940
10800 OM 10800 OM OM1 10800 -0.550000 15.99940
10801 OM 10801 OM OM1 10801 -0.550000 15.99940
10802 OM 10802 OM OM1 10802 -0.550000 15.99940
10803 OM 10803 OM OM1 10803 -0.550000 15.99940
10804 OM 10804 OM OM1 10804 -0.550000 15.99940
10805 OM 10805 OM OM1 10805 -0.550000 15.99940
10806 OM 10806 OM OM1 10806 -0.550000 15.99940
10807 OM 10807 OM OM1 10807 -0.550000 15.99940
10808 OM 10808 OM OM1 10808 -0.550000 15.99940
10809 OM 10809 OM OM1 10809 -0.550000 15.99940
10810 OM 10810 OM OM1 10810 -0.550000 15.99940
10811 OM 10811 OM OM1 10811 -0.550000 15.99940
10812 OM 10812 OM OM1 10812 -0.550000 15.99940
10813 OM 10813 OM OM1 10813 -0.550000 15.99940
10814 OM 10814 OM OM1 10814 -0.550000 15.99940
10815 OM 10815 OM OM1 10815 -0.550000 15.99940
10816 OM 10816 OM OM1 10816 -0.550000 15.99940
10817 OM 10817 OM OM1 10817 -0.550000 15.99940
10818 OM 10818 OM OM1 10818 -0.550000 15.99940
10819 OM 10819 OM OM1 10819 -0.550000 15.99940
10820 OM 10820 OM OM1 10820 -0.550000 15.99940
10821 OM 10821 OM OM1 10821 -0.550000 15.99940
10822 OM 10822 OM OM1 10822 -0.550000 15.99940
10823 OM 10823 OM OM1 10823 -0.550000 15.99940
10824 OM 10824 OM OM1 10824 -0.550000 15.99940
10825 OM 10825 OM OM1 10825 -0.550000 15.99940
10826 OM 10826 OM OM1 10826 -0.550000 15.99940
10827 OM 10827 OM OM1 10827 -0.550000 15.99940
10828 OM 10828 OM OM1 10828 -0.550000 15.99940
10829 OM 10829 OM OM1 10829 -0.550000 15.99940
10830 OM 10830 OM OM1 10830 -0.550000 15.99940
10831 OM 10831 OM OM1 10831 -0.550000 15.99940
10832 OM 10832 OM OM1 10832 -0.550000 15.99940
10833 OM 10833 OM OM1 10833 -0.550000 15.99940
10834 OM 10834 OM OM1 10834 -0.550000 15.99940
10835 OM 10835 OM OM1 10835 -0.550000 15.99940
10836 OM 10836 OM OM1 10836 -0.550000 15.99940
10837 OM 10837 OM OM1 10837 -0.550000 15.99940
10838 OM 10838 OM OM1 10838 -0.550000 15.99940
10839 OM 10839 OM OM1 10839 -0.550000 15.99940
10840 OM 10840 OM OM1 10840 -0.550000 15.99940
10841 OM 10841 OM OM1 10841 -0.550000 15.99940
10842 OM 10842 OM OM1 10842 -0.550000 15.99940
10843 OM 10843 OM OM1 10843 -0.550000 15.99940
10844 OM 10844 OM OM1 10844 -0.550000 15.99940
10845 OM 10845 OM OM1 10845 -0.550000 15.99940
10846 OM 10846 OM OM1 10846 -0.550000 15.99940
10847 OM 10847 OM OM1 10847 -0.550000 15.99940
10848 OM 10848 OM OM1 10848 -0.550000 15.99940
10849 OM 10849 OM OM1 10849 -0.550000 15.99940
10850 OM 10850 OM OM1 10850 -0.550000 15.99940
10851 OM 10851 OM OM1 10851 -0.550000 15.99940
10852 OM 10852 OM OM1 10852 -0.550000 15.99940
10853 OM 10853 OM OM1 10853 -0.550000 15.99940
10854 OM 10854 OM OM1 10854 -0.550000 15.99940
10855 OM 10855 OM OM1 10855 -0.550000 15.99940
10856 OM 10856 OM OM1 10856 -0.550000 15.99940
10857 OM 10857 OM OM1 10857 -0.550000 15.99940
10858 OM 10858 OM OM1 10858 -0.550000 15.99940
10859 OM 10859 OM OM1 10859 -0.550000 15.99940
10860 OM 10860 OM OM1 10860 -0.550000 15.99940
10861 OM 10861 OM OM1 10861 -0.550000 15.99940
10862 OM 10862 OM OM1 10862 -0.550000 15.99940
10863 OM 10863 OM OM1 10863 -0.550000 15.99940
10864 OM 10864 OM OM1 10864 -0.550000 15.99940
10865 OM 10865 OM OM1 10865 -0.550000 15.99940
10866 OM 10866 OM OM1 10866 -0.550000 15.99940
10867 OM 10867 OM OM1 10867 -0.550000 15.99940
10868 OM 10868 OM OM1 10868 -0.550000 15.99940
10869 OM 10869 OM OM1 10869 -0.550000 15.99940
10870 OM 10870 OM OM1 10870 -0.550000 15.99940
10871 OM 10871 OM OM1 10871 -0.550000 15.99940
10872 OM 10872 OM OM1 10872 -0.550000 15.99940
10873 OM 10873 OM OM1 10873 -0.550000 15.99940
10874 OM 10874 OM OM1 10874 -0.550000 15.99940
10875 OM 10875 OM OM1 10875 -0.550000 15.99940
10876 OM 10876 OM OM1 10876 -0.550000 15.99940
10877 OM 10877 OM OM1 10877 -0.550000 15.99940
10878 OM 10878 OM OM1 10878 -0.550000 15.99940
10879 OM 10879 OM OM1 10879 -0.550000 15.99940
10880 OM 10880 OM OM1 10880 -0.550000 15.99940
10881 OM 10881 OM OM1 10881 -0.550000 15.99940
10882 OM 10882 OM OM1 10882 -0.550000 15.99940
10883 OM 10883 OM OM1 10883 -0.550000 15.99940
10884 OM 10884 OM OM1 10884 -0.550000 15.99940
10885 OM 10885 OM OM1 10885 -0.550000 15.99940
10886 OM 10886 OM OM1 10886 -0.550000 15.99940
10887 OM 10887 OM OM1 10887 -0.550000 15.99940
10888 OM 10888 OM OM1 10888 -0.550000 15.99940
10889 OM 10889 OM OM1 10889 -0.550000 15.99940
10890 OM 10890 OM OM1 10890 -0.550000 15.99940
10891 OM 10891 OM OM1 10891 -0.550000 15.99940
10892 OM 10892 OM OM1 10892 -0.550000 15.99940
10893 OM 10893 OM OM1 10893 -0.550000 15.99940
10894 OM 10894 OM OM1 10894 -0.550000 15.99940
10895 OM 10895 OM OM1 10895 -0.550000 15.99940
10896 OM 10896 OM OM1 10896 -0.550000 15.99940
10897 OM 10897 OM OM1 10897 -0.550000 15.99940
10898 OM 10898 OM OM1 10898 -0.550000 15.99940
10899 OM 10899 OM OM1 10899 -0.550000 15.99940
10900 OM 10900 OM OM1 10900 -0.550000 15.99940
10901 OM 10901 OM OM1 10901 -0.550000 15.99940
10902 OM 10902 OM OM1 10902 -0.550000 15.99940
10903 OM 10903 OM OM1 10903 -0.550000 15.99940
10904 OM 10904 OM OM1 10904 -0.550000 15.99940
10905 OM 10905 OM OM1 10905 -0.550000 15.99940
10906 OM 10906 OM OM1 10906 -0.550000 15.99940
10907 OM 10907 OM OM1 10907 -0.550000 15.99940
10908 OM 10908 OM OM1 10908 -0.550000 15.99940
10909 OM 10909 OM OM1 10909 -0.550000 15.99940
10910 OM 10910 OM OM1 10910 -0.550000 15.99940
10911 OM 10911 OM OM1 10911 -0.550000 15.99940
10912 OM 10912 OM OM1 10912 -0.550000 15.99940
10913 OM 10913 OM OM1 10913 -0.550000 15.99940
10914 OM 10914 OM OM1 10914 -0.550000 15.99940
10915 OM 10915 OM OM1 10915 -0.550000 15.99940
10916 OM 10916 OM OM1 10916 -0.550000 15.99940
10917 OM 10917 OM OM1 10917 -0.550000 15.99940
10918 OM 10918 OM OM1 10918 -0.550000 15.99940
10919 OM 10919 OM OM1 10919 -0.550000 15.99940
10920 OM 10920 OM OM1 10920 -0.550000 15.99940
10921 OM 10921 OM OM1 10921 -0.550000 15.99940
10922 OM 10922 OM OM1 10922 -0.550000 15.99940
10923 OM 10923 OM OM1 10923 -0.550000 15.99940
10924 OM 10924 OM OM1 10924 -0.550000 15.99940
10925 OM 10925 OM OM1 10925 -0.550000 15.99940
10926 OM 10926 OM OM1 10926 -0.550000 15.99940
10927 OM 10927 OM OM1 10927 -0.550000 15.99940
10928 OM 10928 OM OM1 10928 -0.550000 15.99940
10929 OM 10929 OM OM1 10929 -0.550000 15.99940
10930 OM 10930 OM OM1 10930 -0.550000 15.99940
10931 OM 10931 OM OM1 10931 -0.550000 15.99940
10932 OM 10932 OM OM1 10932 -0.550000 15.99940
10933 OM 10933 OM OM1 10933 -0.550000 15.99940
10934 OM 10934 OM OM1 10934 -0.550000 15.99940
10935 OM 10935 OM OM1 10935 -0.550000 15.99940
10936 OM 10936 OM OM1 10936 -0.550000 15.99940
10937 OM 10937 OM OM1 10937 -0.550000 15.99940
10938 OM 10938 OM OM1 10938 -0.550000 15.99940
10939 OM 10939 OM OM1 10939 -0.550000 15.99940
10940 OM 10940 OM OM1 10940 -0.550000 15.99940
10941 OM 10941 OM OM1 10941 -0.550000 15.99940
10942 OM 10942 OM OM1 10942 -0.550000 15.99940
10943 OM 10943 OM OM1 10943 -0.550000 15.99940
10944 OM 10944 OM OM1 10944 -0.550000 15.99940
10945 OM 10945 OM OM1 10945 -0.550000 15.99940
10946 OM 10946 OM OM1 10946 -0.550000 15.99940
10947 OM 10947 OM OM1 10947 -0.550000 15.99940
10948 OM 10948 OM OM1 10948 -0.550000 15.99940
10949 OM 10949 OM OM1 10949 -0.550000 15.99940
10950 OM 10950 OM OM1 10950 -0.550000 15.99940
10951 OM 10951 OM OM1 10951 -0.550000 15.99940
10952 OM 10952 OM OM1 10952 -0.550000 15.99940
10953 OM 10953 OM OM1 10953 -0.550000 15.99940
10954 OM 10954 OM OM1 10954 -0.550000 15.99940
10955 OM 10955 OM OM1 10955 -0.550000 15.99940
10956 OM 10956 OM OM1 10956 -0.550000 15.99940
10957 OM 10957 OM OM1 10957 -0.550000 15.99940
10958 OM 10958 OM OM1 10958 -0.550000 15.99940
10959 OM 10959 OM OM1 10959 -0.550000 15.99940
10960 OM 10960 OM OM1 10960 -0.550000 15.99940
10961 OM 10961 OM OM1 10961 -0.550000 15.99940
10962 OM 10962 OM OM1 10962 -0.550000 15.99940
10963 OM 10963 OM OM1 10963 -0.550000 15.99940
10964 OM 10964 OM OM1 10964 -0.550000 15.99940
10965 OM 10965 OM OM1 10965 -0.550000 15.99940
10966 OM 10966 OM OM1 10966 -0.550000 15.99940
10967 OM 10967 OM OM1 10967 -0.550000 15.99940
10968 OM 10968 OM OM1 10968 -0.550000 15.99940
10969 OM 10969 OM OM1 10969 -0.550000 15.99940
10970 OM 10970 OM OM1 10970 -0.550000 15.99940
10971 OM 10971 OM OM1 10971 -0.550000 15.99940
10972 OM 10972 OM OM1 10972 -0.550000 15.99940
10973 OM 10973 OM OM1 10973 -0.550000 15.99940
10974 OM 10974 OM OM1 10974 -0.550000 15.99940
10975 OM 10975 OM OM1 10975 -0.550000 15.99940
10976 OM 10976 OM OM1 10976 -0.550000 15.99940
10977 OM 10977 OM OM1 10977 -0.550000 15.99940
10978 OM 10978 OM OM1 10978 -0.550000 15.99940
10979 OM 10979 OM OM1 10979 -0.550000 15.99940
10980 OM 10980 OM OM1 10980 -0.550000 15.99940
10981 OM 10981 OM OM1 10981 -0.550000 15.99940
10982 OM 10982 OM OM1 10982 -0.550000 15.99940
10983 OM 10983 OM OM1 10983 -0.550000 15.99940
10984 OM 10984 OM OM1 10984 -0.550000 15.99940
10985 OM 10985 OM OM1 10985 -0.550000 15.99940
10986 OM 10986 OM OM1 10986 -0.550000 15.99940
10987 OM 10987 OM OM1 10987 -0.550000 15.99940
10988 OM 10988 OM OM1 10988 -0.550000 15.99940
10989 OM 10989 OM OM1 10989 -0.550000 15.99940
10990 OM 10990 OM OM1 10990 -0.550000 15.99940
10991 OM 10991 OM OM1 10991 -0.550000 15.99940
10992 OM 10992 OM OM1 10992 -0.550000 15.99940
10993 OM 10993 OM OM1 10993 -0.550000 15.99940
10994 OM 10994 OM OM1 10994 -0.550000 15.99940
10995 OM 10995 OM OM1 10995 -0.550000 15.99940
10996 OM 10996 OM OM1 10996 -0.550000 15.99940
10997 OM 10997 OM OM1 10997 -0.550000 15.99940
10998 OM 10998 OM OM1 10998 -0.550000 15.99940
10999 OM 10999 OM OM1 10999 -0.550000 15.99940
11000 OM 11000 OM OM1 11000 -0.550000 15.99940
11001 OM 11001 OM OM1 11001 -0.550000 15.99940
11002 OM 11002 OM OM1 11002 -0.550000 15.99940
11003 OM 11003 OM OM1 11003 -0.550000 15.99940
11004 OM 11004 OM OM1 11004 -0.550000 15.99940
11005 OM 11005 OM OM1 11005 -0.550000 15.99940
11006 OM 11006 OM OM1 11006 -0.550000 15.99940
11007 OM 11007 OM OM1 11007 -0.550000 15.99940
11008 OM 11008 OM OM1 11008 -0.550000 15.99940
11009 OM 11009 OM OM1 11009 -0.550000 15.99940
11010 OM 11010 OM OM1 11010 -0.550000 15.99940
11011 OM 11011 OM OM1 11011 -0.550000 15.99940
11012 OM 11012 OM OM1 11012 -0.550000 15.99940
11013 OM 11013 OM OM1 11013 -0.550000 15.99940
11014 OM 11014 OM OM1 11014 -0.550000 15.99940
11015 OM 11015 OM OM1 11015 -0.550000 15.99940
11016 OM 11016 OM OM1 11016 -0.550000 15.99940
11017 OM 11017 OM OM1 11017 -0.550000 15.99940
11018 OM 11018 OM OM1 11018 -0.550000 15.99940
11019 OM 11019 OM OM1 11019 -0.550000 15.99940
11020 OM 11020 OM OM1 11020 -0.550000 15.99940
11021 OM 11021 OM OM1 11021 -0.550000 15.99940
11022 OM 11022 OM OM1 11022 -0.550000 15.99940
11023 OM 11023 OM OM1 11023 -0.550000 15.99940
11024 OM 11024 OM OM1 11024 -0.550000 15.99940
11025 OM 11025 OM OM1 11025 -0.550000 15.99940
11026 OM 11026 OM OM1 11026 -0.550000 15.99940
11027 OM 11027 OM OM1 11027 -0.550000 15.99940
11028 OM 11028 OM OM1 11028 -0.550000 15.99940
11029 OM 11029 OM OM1 11029 -0.550000 15.99940
11030 OM 11030 OM OM1 11030 -0.550000 15.99940
11031 OM 11031 OM OM1 11031 -0.550000 15.99940
11032 OM 11032 OM OM1 11032 -0.550000 15.99940
11033 OM 11033 OM OM1 11033 -0.550000 15.99940
11034 OM 11034 OM OM1 11034 -0.550000 15.99940
11035 OM 11035 OM OM1 11035 -0.550000 15.99940
11036 OM 11036 OM OM1 11036 -0.550000 15.99940
11037 OM 11037 OM OM1 11037 -0.550000 15.99940
11038 OM 11038 OM OM1 11038 -0.550000 15.99940
11039 OM 11039 OM OM1 11039 -0.550000 15.99940
11040 OM 11040 OM OM1 11040 -0.550000 15.99940
11041 OM 11041 OM OM1 11041 -0.550000 15.99940
11042 OM 11042 OM OM1 11042 -0.550000 15.99940
11043 OM 11043 OM OM1 11043 -0.550000 15.99940
11044 OM 11044 OM OM1 11044 -0.550000 15.99940
11045 OM 11045 OM OM1 11045 -0.550000 15.99940
11046 OM 11046 OM OM1 11046 -0.550000 15.99940
11047 OM 11047 OM OM1 11047 -0.550000 15.99940
11048 OM 11048 OM OM1 11048 -0.550000 15.99940
11049 OM 11049 OM OM1 11049 -0.550000 15.99940
11050 OM 11050 OM OM1 11050 -0.550000 15.99940
11051 OM 11051 OM OM1 11051 -0.550000 15.99940
11052 OM 11052 OM OM1 11052 -0.550000 15.99940
11053 OM 11053 OM OM1 11053 -0.550000 15.99940
11054 OM 11054 OM OM1 11054 -0.550000 15.99940
11055 OM 11055 OM OM1 11055 -0.550000 15.99940
11056 OM 11056 OM OM1 11056 -0.550000 15.99940
11057 OM 11057 OM OM1 11057 -0.550000 15.99940
11058 OM 11058 OM OM1 11058 -0.550000 15.99940
11059 OM 11059 OM OM1 11059 -0.550000 15.99940
11060 OM 11060 OM OM1 11060 -0.550000 15.99940
11061 OM 11061 OM OM1 11061 -0.550000 15.99940
11062 OM 11062 OM OM1 11062 -0.550000 15.99940
11063 OM 11063 OM OM1 11063 -0.550000 15.99940
11064 OM 11064 OM OM1 11064 -0.550000 15.99940
11065 OM 11065 OM OM1 11065 -0.550000 15.99940
11066 OM 11066 OM OM1 11066 -0.550000 15.99940
11067 OM 11067 OM OM1 11067 -0.550000 15.99940
11068 OM 11068 OM OM1 11068 -0.550000 15.99940
11069 OM 11069 OM OM1 11069 -0.550000 15.99940
11070 OM 11070 OM OM1 11070 -0.550000 15.99940
11071 OM 11071 OM OM1 11071 -0.550000 15.99940
11072 OM 11072 OM OM1 11072 -0.550000 15.99940
11073 OM 11073 OM OM1 11073 -0.550000 15.99940
11074 OM 11074 OM OM1 11074 -0.550000 15.99940
11075 OM 11075 OM OM1 11075 -0.550000 15.99940
11076 OM 11076 OM OM1 11076 -0.550000 15.99940
11077 OM 11077 OM OM1 11077 -0.550000 15.99940
11078 OM 11078 OM OM1 11078 -0.550000 15.99940
11079 OM 11079 OM OM1 11079 -0.550000 15.99940
11080 OM 11080 OM OM1 11080 -0.550000 15.99940
11081 OM 11081 OM OM1 11081 -0.550000 15.99940
11082 OM 11082 OM OM1 11082 -0.550000 15.99940
11083 OM 11083 OM OM1 11083 -0.550000 15.99940
11084 OM 11084 OM OM1 11084 -0.550000 15.99940
11085 OM 11085 OM OM1 11085 -0.550000 15.99940
11086 OM 11086 OM OM1 11086 -0.550000 15.99940
11087 OM 11087 OM OM1 11087 -0.550000 15.99940
11088 OM 11088 OM OM1 11088 -0.550000 15.99940
11089 OM 11089 OM OM1 11089 -0.550000 15.99940
11090 OM 11090 OM OM1 11090 -0.550000 15.99940
11091 OM 11091 OM OM1 11091 -0.550000 15.99940
11092 OM 11092 OM OM1 11092 -0.550000 15.99940
11093 OM 11093 OM OM1 11093 -0.550000 15.99940
11094 OM 11094 OM OM1 11094 -0.550000 15.99940
11095 OM 11095 OM OM1 11095 -0.550000 15.99940
11096 OM 11096 OM OM1 11096 -0.550000 15.99940
11097 OM 11097 OM OM1 11097 -0.550000 15.99940
11098 OM 11098 OM OM1 11098 -0.550000 15.99940
11099 OM 11099 OM OM1 11099 -0.550000 15.99940
11100 OM 11100 OM OM1 11100 -0.550000 15.99940
11101 OM 11101 OM OM1 11101 -0.550000 15.99940
11102 OM 11102 OM OM1 11102 -0.550000 15.99940
11103 OM 11103 OM OM1 11103 -0.550000 15.99940
11104 OM 11104 OM OM1 11104 -0.550000 15.99940
11105 OM 11105 OM OM1 11105 -0.550000 15.99940
11106 OM 11106 OM OM1 11106 -0.550000 15.99940
11107 OM 11107 OM OM1 11107 -0.550000 15.99940
11108 OM 11108 OM OM1 11108 -0.550000 15.99940
11109 OM 11109 OM OM1 11109 -0.550000 15.99940
11110 OM 11110 OM OM1 11110 -0.550000 15.99940
11111 OM 11111 OM OM1 11111 -0.550000 15.99940
11112 OM 11112 OM OM1 11112 -0.550000 15.99940
11113 OM 11113 OM OM1 11113 -0.550000 15.99940
11114 OM 11114 OM OM1 11114 -0.550000 15.99940
11115 OM 11115 OM OM1 11115 -0.550000 15.99940
11116 OM 11116 OM OM1 11116 -0.550000 15.99940
11117 OM 11117 OM OM1 11117 -0.550000 15.99940
11118 OM 11118 OM OM1 11118 -0.550000 15.99940
11119 OM 11119 OM OM1 11119 -0.550000 15.99940
11120 OM 11120 OM OM1 11120 -0.550000 15.99940
11121 OM 11121 OM OM1 11121 -0.550000 15.99940
11122 OM 11122 OM OM1 11122 -0.550000 15.99940
11123 OM 11123 OM OM1 11123 -0.550000 15.99940
11124 OM 11124 OM OM1 11124 -0.550000 15.99940
11125 OM 11125 OM OM1 11125 -0.550000 15.99940
11126 OM 11126 OM OM1 11126 -0.550000 15.99940
11127 OM 11127 OM OM1 11127 -0.550000 15.99940
11128 OM 11128 OM OM1 11128 -0.550000 15.99940
11129 OM 11129 OM OM1 11129 -0.550000 15.99940
11130 OM 11130 OM OM1 11130 -0.550000 15.99940
11131 OM 11131 OM OM1 11131 -0.550000 15.99940
11132 OM 11132 OM OM1 11132 -0.550000 15.99940
11133 OM 11133 OM OM1 11133 -0.550000 15.99940
11134 OM 11134 OM OM1 11134 -0.550000 15.99940
11135 OM 11135 OM OM1 11135 -0.550000 15.99940
11136 OM 11136 OM OM1 11136 -0.550000 15.99940
11137 OM 11137 OM OM1 11137 -0.550000 15.99940
11138 OM 11138 OM OM1 11138 -0.550000 15.99940
11139 OM 11139 OM OM1 11139 -0.550000 15.99940
11140 OM 11140 OM OM1 11140 -0.550000 15.99940
11141 OM 11141 OM OM1 11141 -0.550000 15.99940
11142 OM 11142 OM OM1 11142 -0.550000 15.99940
11143 OM 11143 OM OM1 11143 -0.550000 15.99940
11144 OM 11144 OM OM1 11144 -0.550000 15.99940
11145 OM 11145 OM OM1 11145 -0.550000 15.99940
11146 OM 11146 OM OM1 11146 -0.550000 15.99940
11147 OM 11147 OM OM1 11147 -0.550000 15.99940
11148 OM 11148 OM OM1 11148 -0.550000 15.99940
11149 OM 11149 OM OM1 11149 -0.550000 15.99940
11150 OM 11150 OM OM1 11150 -0.550000 15.99940
11151 OM 11151 OM OM1 11151 -0.550000 15.99940
11152 OM 11152 OM OM1 11152 -0.550000 15.99940
11153 OM 11153 OM OM1 11153 -0.550000 15.99940
11154 OM 11154 OM OM1 11154 -0.550000 15.99940
11155 OM 11155 OM OM1 11155 -0.550000 15.99940
11156 OM 11156 OM OM1 11156 -0.550000 15.99940
11157 OM 11157 OM OM1 11157 -0.550000 15.99940
11158 OM 11158 OM OM1 11158 -0.550000 15.99940
11159 OM 11159 OM OM1 11159 -0.550000 15.99940
11160 OM 11160 OM OM1 11160 -0.550000 15.99940
11161 OM 11161 OM OM1 11161 -0.550000 15.99940
11162 OM 11162 OM OM1 11162 -0.550000 15.99940
11163 OM 11163 OM OM1 11163 -0.550000 15.99940
11164 OM 11164 OM OM1 11164 -0.550000 15.99940
11165 OM 11165 OM OM1 11165 -0.550000 15.99940
11166 OM 11166 OM OM1 11166 -0.550000 15.99940
11167 OM 11167 OM OM1 11167 -0.550000 15.99940
11168 OM 11168 OM OM1 11168 -0.550000 15.99940
11169 OM 11169 OM OM1 11169 -0.550000 15.99940
11170 OM 11170 OM OM1 11170 -0.550000 15.99940
11171 OM 11171 OM OM1 11171 -0.550000 15.99940
11172 OM 11172 OM OM1 11172 -0.550000 15.99940
11173 OM 11173 OM OM1 11173 -0.550000 15.99940
11174 OM 11174 OM OM1 11174 -0.550000 15.99940
11175 OM 11175 OM OM1 11175 -0.550000 15.99940
11176 OM 11176 OM OM1 11176 -0.550000 15.99940
11177 OM 11177 OM OM1 11177 -0.550000 15.99940
11178 OM 11178 OM OM1 11178 -0.550000 15.99940
11179 OM 11179 OM OM1 11179 -0.550000 15.99940
11180 OM 11180 OM OM1 11180 -0.550000 15.99940
11181 OM 11181 OM OM1 11181 -0.550000 15.99940
11182 OM 11182 OM OM1 11182 -0.550000 15.99940
11183 OM 11183 OM OM1 11183 -0.550000 15.99940
11184 OM 11184 OM OM1 11184 -0.550000 15.99940
11185 OM 11185 OM OM1 11185 -0.550000 15.99940
11186 OM 11186 OM OM1 11186 -0.550000 15.99940
11187 OM 11187 OM OM1 11187 -0.550000 15.99940
11188 OM 11188 OM OM1 11188 -0.550000 15.99940
11189 OM 11189 OM OM1 11189 -0.550000 15.99940
11190 OM 11190 OM OM1 11190 -0.550000 15.99940
11191 OM 11191 OM OM1 11191 -0.550000 15.99940
11192 OM 11192 OM OM1 11192 -0.550000 15.99940
11193 OM 11193 OM OM1 11193 -0.550000 15.99940
11194 OM 11194 OM OM1 11194 -0.550000 15.99940
11195 OM 11195 OM OM1 11195 -0.550000 15.99940
11196 OM 11196 OM OM1 11196 -0.550000 15.99940
11197 OM 11197 OM OM1 11197 -0.550000 15.99940
11198 OM 11198 OM OM1 11198 -0.550000 15.99940
11199 OM 11199 OM OM1 11199 -0.550000 15.99940
11200 OM 11200 OM OM1 11200 -0.550000 15.99940
11201 OM 11201 OM OM1 11201 -0.550000 15.99940
11202 OM 11202 OM OM1 11202 -0.550000 15.99940
11203 OM 11203 OM OM1 11203 -0.550000 15.99940
11204 OM 11204 OM OM1 11204 -0.550000 15.99940
11205 OM 11205 OM OM1 11205 -0.550000 15.99940
11206 OM 11206 OM OM1 11206 -0.550000 15.99940
11207 OM 11207 OM OM1 11207 -0.550000 15.99940
11208 OM 11208 OM OM1 11208 -0.550000 15.99940
11209 OM 11209 OM OM1 11209 -0.550000 15.99940
11210 OM 11210 OM OM1 11210 -0.550000 15.99940
11211 OM 11211 OM OM1 11211 -0.550000 15.99940
11212 OM 11212 OM OM1 11212 -0.550000 15.99940
11213 OM 11213 OM OM1 11213 -0.550000 15.99940
11214 OM 11214 OM OM1 11214 -0.550000 15.99940
11215 OM 11215 OM OM1 11215 -0.550000 15.99940
11216 OM 11216 OM OM1 11216 -0.550000 15.99940
11217 OM 11217 OM OM1 11217 -0.550000 15.99940
11218 OM 11218 OM OM1 11218 -0.550000 15.99940
11219 OM 11219 OM OM1 11219 -0.550000 15.99940
11220 OM 11220 OM OM1 11220 -0.550000 15.99940
11221 OM 11221 OM OM1 11221 -0.550000 15.99940
11222 OM 11222 OM OM1 11222 -0.550000 15.99940
11223 OM 11223 OM OM1 11223 -0.550000 15.99940
11224 OM 11224 OM OM1 11224 -0.550000 15.99940
11225 OM 11225 OM OM1 11225 -0.550000 15.99940
11226 OM 11226 OM OM1 11226 -0.550000 15.99940
11227 OM 11227 OM OM1 11227 -0.550000 15.99940
11228 OM 11228 OM OM1 11228 -0.550000 15.99940
11229 OM 11229 OM OM1 11229 -0.550000 15.99940
11230 OM 11230 OM OM1 11230 -0.550000 15.99940
11231 OM 11231 OM OM1 11231 -0.550000 15.99940
11232 OM 11232 OM OM1 11232 -0.550000 15.99940
11233 OM 11233 OM OM1 11233 -0.550000 15.99940
11234 OM 11234 OM OM1 11234 -0.550000 15.99940
11235 OM 11235 OM OM1 11235 -0.550000 15.99940
11236 OM 11236 OM OM1 11236 -0.550000 15.99940
11237 OM 11237 OM OM1 11237 -0.550000 15.99940
11238 OM 11238 OM OM1 11238 -0.550000 15.99940
11239 OM 11239 OM OM1 11239 -0.550000 15.99940
11240 OM 11240 OM OM1 11240 -0.550000 15.99940
11241 OM 11241 OM OM1 11241 -0.550000 15.99940
11242 OM 11242 OM OM1 11242 -0.550000 15.99940
11243 OM 11243 OM OM1 11243 -0.550000 15.99940
11244 OM 11244 OM OM1 11244 -0.550000 15.99940
11245 OM 11245 OM OM1 11245 -0.550000 15.99940
11246 OM 11246 OM OM1 11246 -0.550000 15.99940
11247 OM 11247 OM OM1 11247 -0.550000 15.99940
11248 OM 11248 OM OM1 11248 -0.550000 15.99940
11249 OM 11249 OM OM1 11249 -0.550000 15.99940
11250 OM 11250 OM OM1 11250 -0.550000 15.99940
11251 OM 11251 OM OM1 11251 -0.550000 15.99940
11252 OM 11252 OM OM1 11252 -0.550000 15.99940
11253 OM 11253 OM OM1 11253 -0.550000 15.99940
11254 OM 11254 OM OM1 11254 -0.550000 15.99940
11255 OM 11255 OM OM1 11255 -0.550000 15.99940
11256 OM 11256 OM OM1 11256 -0.550000 15.99940
11257 OM 11257 OM OM1 11257 -0.550000 15.99940
11258 OM 11258 OM OM1 11258 -0.550000 15.99940
11259 OM 11259 OM OM1 11259 -0.550000 15.99940
11260 OM 11260 OM OM1 11260 -0.550000 15.99940
11261 OM 11261 OM OM1 11261 -0.550000 15.99940
11262 OM 11262 OM OM1 11262 -0.550000 15.99940
11263 OM 11263 OM OM1 11263 -0.550000 15.99940
11264 OM 11264 OM OM1 11264 -0.550000 15.99940
11265 OM 11265 OM OM1 11265 -0.550000 15.99940
11266 OM 11266 OM OM1 11266 -0.550000 15.99940
11267 OM 11267 OM OM1 11267 -0.550000 15.99940
11268 OM 11268 OM OM1 11268 -0.550000 15.99940
11269 OM 11269 OM OM1 11269 -0.550000 15.99940
11270 OM 11270 OM OM1 11270 -0.550000 15.99940
11271 OM 11271 OM OM1 11271 -0.550000 15.99940
11272 OM 11272 OM OM1 11272 -0.550000 15.99940
11273 OM 11273 OM OM1 11273 -0.550000 15.99940
11274 OM 11274 OM OM1 11274 -0.550000 15.99940
11275 OM 11275 OM OM1 11275 -0.550000 15.99940
11276 OM 11276 OM OM1 11276 -0.550000 15.99940
11277 OM 11277 OM OM1 11277 -0.550000 15.99940
11278 OM 11278 OM OM1 11278 -0.550000 15.99940
11279 OM 11279 OM OM1 11279 -0.550000 15.99940
11280 OM 11280 OM OM1 11280 -0.550000 15.99940
11281 OM 11281 OM OM1 11281 -0.550000 15.99940
11282 OM 11282 OM OM1 11282 -0.550000 15.99940
11283 OM 11283 OM OM1 11283 -0.550000 15.99940
11284 OM 11284 OM OM1 11284 -0.550000 15.99940
11285 OM 11285 OM OM1 11285 -0.550000 15.99940
11286 OM 11286 OM OM1 11286 -0.550000 15.99940
11287 OM 11287 OM OM1 11287 -0.550000 15.99940
11288 OM 11288 OM OM1 11288 -0.550000 15.99940
11289 OM 11289 OM OM1 11289 -0.550000 15.99940
11290 OM 11290 OM OM1 11290 -0.550000 15.99940
11291 OM 11291 OM OM1 11291 -0.550000 15.99940
11292 OM 11292 OM OM1 11292 -0.550000 15.99940
11293 OM 11293 OM OM1 11293 -0.550000 15.99940
11294 OM 11294 OM OM1 11294 -0.550000 15.99940
11295 OM 11295 OM OM1 11295 -0.550000 15.99940
11296 OM 11296 OM OM1 11296 -0.550000 15.99940
11297 OM 11297 OM OM1 11297 -0.550000 15.99940
11298 OM 11298 OM OM1 11298 -0.550000 15.99940
11299 OM 11299 OM OM1 11299 -0.550000 15.99940
11300 OM 11300 OM OM1 11300 -0.550000 15.99940
11301 OM 11301 OM OM1 11301 -0.550000 15.99940
11302 OM 11302 OM OM1 11302 -0.550000 15.99940
11303 OM 11303 OM OM1 11303 -0.550000 15.99940
11304 OM 11304 OM OM1 11304 -0.550000 15.99940
11305 OM 11305 OM OM1 11305 -0.550000 15.99940
11306 OM 11306 OM OM1 11306 -0.550000 15.99940
11307 OM 11307 OM OM1 11307 -0.550000 15.99940
11308 OM 11308 OM OM1 11308 -0.550000 15.99940
11309 OM 11309 OM OM1 11309 -0.550000 15.99940
11310 OM 11310 OM OM1 11310 -0.550000 15.99940
11311 OM 11311 OM OM1 11311 -0.550000 15.99940
11312 OM 11312 OM OM1 11312 -0.550000 15.99940
11313 OM 11313 OM OM1 11313 -0.550000 15.99940
11314 OM 11314 OM OM1 11314 -0.550000 15.99940
11315 OM 11315 OM OM1 11315 -0.550000 15.99940
11316 OM 11316 OM OM1 11316 -0.550000 15.99940
11317 OM 11317 OM OM1 11317 -0.550000 15.99940
11318 OM 11318 OM OM1 11318 -0.550000 15.99940
11319 OM 11319 OM OM1 11319 -0.550000 15.99940
11320 OM 11320 OM OM1 11320 -0.550000 15.99940
11321 OM 11321 OM OM1 11321 -0.550000 15.99940
11322 OM 11322 OM OM1 11322 -0.550000 15.99940
11323 OM 11323 OM OM1 11323 -0.550000 15.99940
11324 OM 11324 OM OM1 11324 -0.550000 15.99940
11325 OM 11325 OM OM1 11325 -0.550000 15.99940
11326 OM 11326 OM OM1 11326 -0.550000 15.99940
11327 OM 11327 OM OM1 11327 -0.550000 15.99940
11328 OM 11328 OM OM1 11328 -0.550000 15.99940
11329 OM 11329 OM OM1 11329 -0.550000 15.99940
11330 OM 11330 OM OM1 11330 -0.550000 15.99940
11331 OM 11331 OM OM1 11331 -0.550000 15.99940
11332 OM 11332 OM OM1 11332 -0.550000 15.99940
11333 OM 11333 OM OM1 11333 -0.550000 15.99940
11334 OM 11334 OM OM1 11334 -0.550000 15.99940
11335 OM 11335 OM OM1 11335 -0.550000 15.99940
11336 OM 11336 OM OM1 11336 -0.550000 15.99940
11337 OM 11337 OM OM1 11337 -0.550000 15.99940
11338 OM 11338 OM OM1 11338 -0.550000 15.99940
11339 OM 11339 OM OM1 11339 -0.550000 15.99940
11340 OM 11340 OM OM1 11340 -0.550000 15.99940
11341 OM 11341 OM OM1 11341 -0.550000 15.99940
11342 OM 11342 OM OM1 11342 -0.550000 15.99940
11343 OM 11343 OM OM1 11343 -0.550000 15.99940
11344 OM 11344 OM OM1 11344 -0.550000 15.99940
11345 OM 11345 OM OM1 11345 -0.550000 15.99940
11346 OM 11346 OM OM1 11346 -0.550000 15.99940
11347 OM 11347 OM OM1 11347 -0.550000 15.99940
11348 OM 11348 OM OM1 11348 -0.550000 15.99940
11349 OM 11349 OM OM1 11349 -0.550000 15.99940
11350 OM 11350 OM OM1 11350 -0.550000 15.99940
11351 OM 11351 OM OM1 11351 -0.550000 15.99940
11352 OM 11352 OM OM1 11352 -0.550000 15.99940
11353 OM 11353 OM OM1 11353 -0.550000 15.99940
11354 OM 11354 OM OM1 11354 -0.550000 15.99940
11355 OM 11355 OM OM1 11355 -0.550000 15.99940
11356 OM 11356 OM OM1 11356 -0.550000 15.99940
11357 OM 11357 OM OM1 11357 -0.550000 15.99940
11358 OM 11358 OM OM1 11358 -0.550000 15.99940
11359 OM 11359 OM OM1 11359 -0.550000 15.99940
11360 OM 11360 OM OM1 11360 -0.550000 15.99940
11361 OM 11361 OM OM1 11361 -0.550000 15.99940
11362 OM 11362 OM OM1 11362 -0.550000 15.99940
11363 OM 11363 OM OM1 11363 -0.550000 15.99940
11364 OM 11364 OM OM1 11364 -0.550000 15.99940
11365 OM 11365 OM OM1 11365 -0.550000 15.99940
11366 OM 11366 OM OM1 11366 -0.550000 15.99940
11367 OM 11367 OM OM1 11367 -0.550000 15.99940
11368 OM 11368 OM OM1 11368 -0.550000 15.99940
11369 OM 11369 OM OM1 11369 -0.550000 15.99940
11370 OM 11370 OM OM1 11370 -0.550000 15.99940
11371 OM 11371 OM OM1 11371 -0.550000 15.99940
11372 OM 11372 OM OM1 11372 -0.550000 15.99940
11373 OM 11373 OM OM1 11373 -0.550000 15.99940
11374 OM 11374 OM OM1 11374 -0.550000 15.99940
11375 OM 11375 OM OM1 11375 -0.550000 15.99940
11376 OM 11376 OM OM1 11376 -0.550000 15.99940
11377 OM 11377 OM OM1 11377 -0.550000 15.99940
11378 OM 11378 OM OM1 11378 -0.550000 15.99940
11379 SI 11379 SI SI1 11379 1.100000 28.08600
11380 SI 11380 SI SI1 11380 1.100000 28.08600
11381 SI 11381 SI SI1 11381 1.100000 28.08600
11382 SI 11382 SI SI1 11382 1.100000 28.08600
11383 SI 11383 SI SI1 11383 1.100000 28.08600
11384 SI 11384 SI SI1 11384 1.100000 28.08600
11385 SI 11385 SI SI1 11385 1.100000 28.08600
11386 SI 11386 SI SI1 11386 1.100000 28.08600
11387 SI 11387 SI SI1 11387 1.100000 28.08600
11388 SI 11388 SI SI1 11388 1.100000 28.08600
11389 SI 11389 SI SI1 11389 1.100000 28.08600
11390 SI 11390 SI SI1 11390 1.100000 28.08600
11391 SI 11391 SI SI1 11391 1.100000 28.08600
11392 SI 11392 SI SI1 11392 1.100000 28.08600
11393 SI 11393 SI SI1 11393 1.100000 28.08600
11394 SI 11394 SI SI1 11394 1.100000 28.08600
11395 SI 11395 SI SI1 11395 1.100000 28.08600
11396 SI 11396 SI SI1 11396 1.100000 28.08600
11397 SI 11397 SI SI1 11397 1.100000 28.08600
11398 SI 11398 SI SI1 11398 1.100000 28.08600
11399 SI 11399 SI SI1 11399 1.100000 28.08600
11400 SI 11400 SI SI1 11400 1.100000 28.08600
11401 SI 11401 SI SI1 11401 1.100000 28.08600
11402 SI 11402 SI SI1 11402 1.100000 28.08600
11403 SI 11403 SI SI1 11403 1.100000 28.08600
11404 SI 11404 SI SI1 11404 1.100000 28.08600
11405 SI 11405 SI SI1 11405 1.100000 28.08600
11406 SI 11406 SI SI1 11406 1.100000 28.08600
11407 SI 11407 SI SI1 11407 1.100000 28.08600
11408 SI 11408 SI SI1 11408 1.100000 28.08600
11409 SI 11409 SI SI1 11409 1.100000 28.08600
11410 SI 11410 SI SI1 11410 1.100000 28.08600
11411 SI 11411 SI SI1 11411 1.100000 28.08600
11412 SI 11412 SI SI1 11412 1.100000 28.08600
11413 SI 11413 SI SI1 11413 1.100000 28.08600
11414 SI 11414 SI SI1 11414 1.100000 28.08600
11415 SI 11415 SI SI1 11415 1.100000 28.08600
11416 SI 11416 SI SI1 11416 1.100000 28.08600
11417 SI 11417 SI SI1 11417 1.100000 28.08600
11418 SI 11418 SI SI1 11418 1.100000 28.08600
11419 SI 11419 SI SI1 11419 1.100000 28.08600
11420 SI 11420 SI SI1 11420 1.100000 28.08600
11421 SI 11421 SI SI1 11421 1.100000 28.08600
11422 SI 11422 SI SI1 11422 1.100000 28.08600
11423 SI 11423 SI SI1 11423 1.100000 28.08600
11424 SI 11424 SI SI1 11424 1.100000 28.08600
11425 SI 11425 SI SI1 11425 1.100000 28.08600
11426 SI 11426 SI SI1 11426 1.100000 28.08600
11427 SI 11427 SI SI1 11427 1.100000 28.08600
11428 SI 11428 SI SI1 11428 1.100000 28.08600
11429 SI 11429 SI SI1 11429 1.100000 28.08600
11430 SI 11430 SI SI1 11430 1.100000 28.08600
11431 SI 11431 SI SI1 11431 1.100000 28.08600
11432 SI 11432 SI SI1 11432 1.100000 28.08600
11433 SI 11433 SI SI1 11433 1.100000 28.08600
11434 SI 11434 SI SI1 11434 1.100000 28.08600
11435 SI 11435 SI SI1 11435 1.100000 28.08600
11436 SI 11436 SI SI1 11436 1.100000 28.08600
11437 SI 11437 SI SI1 11437 1.100000 28.08600
11438 SI 11438 SI SI1 11438 1.100000 28.08600
11439 SI 11439 SI SI1 11439 1.100000 28.08600
11440 SI 11440 SI SI1 11440 1.100000 28.08600
11441 SI 11441 SI SI1 11441 1.100000 28.08600
11442 SI 11442 SI SI1 11442 1.100000 28.08600
11443 SI 11443 SI SI1 11443 1.100000 28.08600
11444 SI 11444 SI SI1 11444 1.100000 28.08600
11445 SI 11445 SI SI1 11445 1.100000 28.08600
11446 SI 11446 SI SI1 11446 1.100000 28.08600
11447 SI 11447 SI SI1 11447 1.100000 28.08600
11448 SI 11448 SI SI1 11448 1.100000 28.08600
11449 SI 11449 SI SI1 11449 1.100000 28.08600
11450 SI 11450 SI SI1 11450 1.100000 28.08600
11451 SI 11451 SI SI1 11451 1.100000 28.08600
11452 SI 11452 SI SI1 11452 1.100000 28.08600
11453 SI 11453 SI SI1 11453 1.100000 28.08600
11454 SI 11454 SI SI1 11454 1.100000 28.08600
11455 SI 11455 SI SI1 11455 1.100000 28.08600
11456 SI 11456 SI SI1 11456 1.100000 28.08600
11457 SI 11457 SI SI1 11457 1.100000 28.08600
11458 SI 11458 SI SI1 11458 1.100000 28.08600
11459 SI 11459 SI SI1 11459 1.100000 28.08600
11460 SI 11460 SI SI1 11460 1.100000 28.08600
11461 SI 11461 SI SI1 11461 1.100000 28.08600
11462 SI 11462 SI SI1 11462 1.100000 28.08600
11463 SI 11463 SI SI1 11463 1.100000 28.08600
11464 SI 11464 SI SI1 11464 1.100000 28.08600
11465 SI 11465 SI SI1 11465 1.100000 28.08600
11466 SI 11466 SI SI1 11466 1.100000 28.08600
11467 SI 11467 SI SI1 11467 1.100000 28.08600
11468 SI 11468 SI SI1 11468 1.100000 28.08600
11469 SI 11469 SI SI1 11469 1.100000 28.08600
11470 SI 11470 SI SI1 11470 1.100000 28.08600
11471 SI 11471 SI SI1 11471 1.100000 28.08600
11472 SI 11472 SI SI1 11472 1.100000 28.08600
11473 SI 11473 SI SI1 11473 1.100000 28.08600
11474 SI 11474 SI SI1 11474 1.100000 28.08600
11475 SI 11475 SI SI1 11475 1.100000 28.08600
11476 SI 11476 SI SI1 11476 1.100000 28.08600
11477 SI 11477 SI SI1 11477 1.100000 28.08600
11478 SI 11478 SI SI1 11478 1.100000 28.08600
11479 SI 11479 SI SI1 11479 1.100000 28.08600
11480 SI 11480 SI SI1 11480 1.100000 28.08600
11481 SI 11481 SI SI1 11481 1.100000 28.08600
11482 SI 11482 SI SI1 11482 1.100000 28.08600
11483 SI 11483 SI SI1 11483 1.100000 28.08600
11484 SI 11484 SI SI1 11484 1.100000 28.08600
11485 SI 11485 SI SI1 11485 1.100000 28.08600
11486 SI 11486 SI SI1 11486 1.100000 28.08600
11487 SI 11487 SI SI1 11487 1.100000 28.08600
11488 SI 11488 SI SI1 11488 1.100000 28.08600
11489 SI 11489 SI SI1 11489 1.100000 28.08600
11490 SI 11490 SI SI1 11490 1.100000 28.08600
11491 SI 11491 SI SI1 11491 1.100000 28.08600
11492 SI 11492 SI SI1 11492 1.100000 28.08600
11493 SI 11493 SI SI1 11493 1.100000 28.08600
11494 SI 11494 SI SI1 11494 1.100000 28.08600
11495 SI 11495 SI SI1 11495 1.100000 28.08600
11496 SI 11496 SI SI1 11496 1.100000 28.08600
11497 SI 11497 SI SI1 11497 1.100000 28.08600
11498 SI 11498 SI SI1 11498 1.100000 28.08600
11499 SI 11499 SI SI1 11499 1.100000 28.08600
11500 SI 11500 SI SI1 11500 1.100000 28.08600
11501 SI 11501 SI SI1 11501 1.100000 28.08600
11502 SI 11502 SI SI1 11502 1.100000 28.08600
11503 SI 11503 SI SI1 11503 1.100000 28.08600
11504 SI 11504 SI SI1 11504 1.100000 28.08600
11505 SI 11505 SI SI1 11505 1.100000 28.08600
11506 SI 11506 SI SI1 11506 1.100000 28.08600
11507 SI 11507 SI SI1 11507 1.100000 28.08600
11508 SI 11508 SI SI1 11508 1.100000 28.08600
11509 SI 11509 SI SI1 11509 1.100000 28.08600
11510 SI 11510 SI SI1 11510 1.100000 28.08600
11511 SI 11511 SI SI1 11511 1.100000 28.08600
11512 SI 11512 SI SI1 11512 1.100000 28.08600
11513 SI 11513 SI SI1 11513 1.100000 28.08600
11514 SI 11514 SI SI1 11514 1.100000 28.08600
11515 SI 11515 SI SI1 11515 1.100000 28.08600
11516 SI 11516 SI SI1 11516 1.100000 28.08600
11517 SI 11517 SI SI1 11517 1.100000 28.08600
11518 SI 11518 SI SI1 11518 1.100000 28.08600
11519 SI 11519 SI SI1 11519 1.100000 28.08600
11520 SI 11520 SI SI1 11520 1.100000 28.08600
11521 SI 11521 SI SI1 11521 1.100000 28.08600
11522 SI 11522 SI SI1 11522 1.100000 28.08600
11523 SI 11523 SI SI1 11523 1.100000 28.08600
11524 SI 11524 SI SI1 11524 1.100000 28.08600
11525 SI 11525 SI SI1 11525 1.100000 28.08600
11526 SI 11526 SI SI1 11526 1.100000 28.08600
11527 SI 11527 SI SI1 11527 1.100000 28.08600
11528 SI 11528 SI SI1 11528 1.100000 28.08600
11529 SI 11529 SI SI1 11529 1.100000 28.08600
11530 SI 11530 SI SI1 11530 1.100000 28.08600
11531 SI 11531 SI SI1 11531 1.100000 28.08600
11532 SI 11532 SI SI1 11532 1.100000 28.08600
11533 SI 11533 SI SI1 11533 1.100000 28.08600
11534 SI 11534 SI SI1 11534 1.100000 28.08600
11535 SI 11535 SI SI1 11535 1.100000 28.08600
11536 SI 11536 SI SI1 11536 1.100000 28.08600
11537 SI 11537 SI SI1 11537 1.100000 28.08600
11538 SI 11538 SI SI1 11538 1.100000 28.08600
11539 SI 11539 SI SI1 11539 1.100000 28.08600
11540 SI 11540 SI SI1 11540 1.100000 28.08600
11541 SI 11541 SI SI1 11541 1.100000 28.08600
11542 SI 11542 SI SI1 11542 1.100000 28.08600
11543 SI 11543 SI SI1 11543 1.100000 28.08600
11544 SI 11544 SI SI1 11544 1.100000 28.08600
11545 SI 11545 SI SI1 11545 1.100000 28.08600
11546 SI 11546 SI SI1 11546 1.100000 28.08600
11547 SI 11547 SI SI1 11547 1.100000 28.08600
11548 SI 11548 SI SI1 11548 1.100000 28.08600
11549 SI 11549 SI SI1 11549 1.100000 28.08600
11550 SI 11550 SI SI1 11550 1.100000 28.08600
11551 SI 11551 SI SI1 11551 1.100000 28.08600
11552 SI 11552 SI SI1 11552 1.100000 28.08600
11553 SI 11553 SI SI1 11553 1.100000 28.08600
11554 SI 11554 SI SI1 11554 1.100000 28.08600
11555 SI 11555 SI SI1 11555 1.100000 28.08600
11556 SI 11556 SI SI1 11556 1.100000 28.08600
11557 SI 11557 SI SI1 11557 1.100000 28.08600
11558 SI 11558 SI SI1 11558 1.100000 28.08600
11559 SI 11559 SI SI1 11559 1.100000 28.08600
11560 SI 11560 SI SI1 11560 1.100000 28.08600
11561 SI 11561 SI SI1 11561 1.100000 28.08600
11562 SI 11562 SI SI1 11562 1.100000 28.08600
11563 SI 11563 SI SI1 11563 1.100000 28.08600
11564 SI 11564 SI SI1 11564 1.100000 28.08600
11565 SI 11565 SI SI1 11565 1.100000 28.08600
11566 SI 11566 SI SI1 11566 1.100000 28.08600
11567 SI 11567 SI SI1 11567 1.100000 28.08600
11568 SI 11568 SI SI1 11568 1.100000 28.08600
11569 SI 11569 SI SI1 11569 1.100000 28.08600
11570 SI 11570 SI SI1 11570 1.100000 28.08600
11571 SI 11571 SI SI1 11571 1.100000 28.08600
11572 SI 11572 SI SI1 11572 1.100000 28.08600
11573 SI 11573 SI SI1 11573 1.100000 28.08600
11574 SI 11574 SI SI1 11574 1.100000 28.08600
11575 SI 11575 SI SI1 11575 1.100000 28.08600
11576 SI 11576 SI SI1 11576 1.100000 28.08600
11577 SI 11577 SI SI1 11577 1.100000 28.08600
11578 SI 11578 SI SI1 11578 1.100000 28.08600
11579 SI 11579 SI SI1 11579 1.100000 28.08600
11580 SI 11580 SI SI1 11580 1.100000 28.08600
11581 SI 11581 SI SI1 11581 1.100000 28.08600
11582 SI 11582 SI SI1 11582 1.100000 28.08600
11583 SI 11583 SI SI1 11583 1.100000 28.08600
11584 SI 11584 SI SI1 11584 1.100000 28.08600
11585 SI 11585 SI SI1 11585 1.100000 28.08600
11586 SI 11586 SI SI1 11586 1.100000 28.08600
11587 SI 11587 SI SI1 11587 1.100000 28.08600
11588 SI 11588 SI SI1 11588 1.100000 28.08600
11589 SI 11589 SI SI1 11589 1.100000 28.08600
11590 SI 11590 SI SI1 11590 1.100000 28.08600
11591 SI 11591 SI SI1 11591 1.100000 28.08600
11592 SI 11592 SI SI1 11592 1.100000 28.08600
11593 SI 11593 SI SI1 11593 1.100000 28.08600
11594 SI 11594 SI SI1 11594 1.100000 28.08600
11595 SI 11595 SI SI1 11595 1.100000 28.08600
11596 SI 11596 SI SI1 11596 1.100000 28.08600
11597 SI 11597 SI SI1 11597 1.100000 28.08600
11598 SI 11598 SI SI1 11598 1.100000 28.08600
11599 SI 11599 SI SI1 11599 1.100000 28.08600
11600 SI 11600 SI SI1 11600 1.100000 28.08600
11601 SI 11601 SI SI1 11601 1.100000 28.08600
11602 SI 11602 SI SI1 11602 1.100000 28.08600
11603 SI 11603 SI SI1 11603 1.100000 28.08600
11604 SI 11604 SI SI1 11604 1.100000 28.08600
11605 SI 11605 SI SI1 11605 1.100000 28.08600
11606 SI 11606 SI SI1 11606 1.100000 28.08600
11607 SI 11607 SI SI1 11607 1.100000 28.08600
11608 SI 11608 SI SI1 11608 1.100000 28.08600
11609 SI 11609 SI SI1 11609 1.100000 28.08600
11610 SI 11610 SI SI1 11610 1.100000 28.08600
11611 SI 11611 SI SI1 11611 1.100000 28.08600
11612 SI 11612 SI SI1 11612 1.100000 28.08600
11613 SI 11613 SI SI1 11613 1.100000 28.08600
11614 SI 11614 SI SI1 11614 1.100000 28.08600
11615 SI 11615 SI SI1 11615 1.100000 28.08600
11616 SI 11616 SI SI1 11616 1.100000 28.08600
11617 SI 11617 SI SI1 11617 1.100000 28.08600
11618 SI 11618 SI SI1 11618 1.100000 28.08600
11619 SI 11619 SI SI1 11619 1.100000 28.08600
11620 SI 11620 SI SI1 11620 1.100000 28.08600
11621 SI 11621 SI SI1 11621 1.100000 28.08600
11622 SI 11622 SI SI1 11622 1.100000 28.08600
11623 SI 11623 SI SI1 11623 1.100000 28.08600
11624 SI 11624 SI SI1 11624 1.100000 28.08600
11625 SI 11625 SI SI1 11625 1.100000 28.08600
11626 SI 11626 SI SI1 11626 1.100000 28.08600
11627 SI 11627 SI SI1 11627 1.100000 28.08600
11628 SI 11628 SI SI1 11628 1.100000 28.08600
11629 SI 11629 SI SI1 11629 1.100000 28.08600
11630 SI 11630 SI SI1 11630 1.100000 28.08600
11631 SI 11631 SI SI1 11631 1.100000 28.08600
11632 SI 11632 SI SI1 11632 1.100000 28.08600
11633 SI 11633 SI SI1 11633 1.100000 28.08600
11634 SI 11634 SI SI1 11634 1.100000 28.08600
11635 SI 11635 SI SI1 11635 1.100000 28.08600
11636 SI 11636 SI SI1 11636 1.100000 28.08600
11637 SI 11637 SI SI1 11637 1.100000 28.08600
11638 SI 11638 SI SI1 11638 1.100000 28.08600
11639 SI 11639 SI SI1 11639 1.100000 28.08600
11640 SI 11640 SI SI1 11640 1.100000 28.08600
11641 SI 11641 SI SI1 11641 1.100000 28.08600
11642 SI 11642 SI SI1 11642 1.100000 28.08600
11643 SI 11643 SI SI1 11643 1.100000 28.08600
11644 SI 11644 SI SI1 11644 1.100000 28.08600
11645 SI 11645 SI SI1 11645 1.100000 28.08600
11646 SI 11646 SI SI1 11646 1.100000 28.08600
11647 SI 11647 SI SI1 11647 1.100000 28.08600
11648 SI 11648 SI SI1 11648 1.100000 28.08600
11649 SI 11649 SI SI1 11649 1.100000 28.08600
11650 SI 11650 SI SI1 11650 1.100000 28.08600
11651 SI 11651 SI SI1 11651 1.100000 28.08600
11652 SI 11652 SI SI1 11652 1.100000 28.08600
11653 SI 11653 SI SI1 11653 1.100000 28.08600
11654 SI 11654 SI SI1 11654 1.100000 28.08600
11655 SI 11655 SI SI1 11655 1.100000 28.08600
11656 SI 11656 SI SI1 11656 1.100000 28.08600
11657 SI 11657 SI SI1 11657 1.100000 28.08600
11658 SI 11658 SI SI1 11658 1.100000 28.08600
11659 SI 11659 SI SI1 11659 1.100000 28.08600
11660 SI 11660 SI SI1 11660 1.100000 28.08600
11661 SI 11661 SI SI1 11661 1.100000 28.08600
11662 SI 11662 SI SI1 11662 1.100000 28.08600
11663 SI 11663 SI SI1 11663 1.100000 28.08600
11664 SI 11664 SI SI1 11664 1.100000 28.08600
11665 SI 11665 SI SI1 11665 1.100000 28.08600
11666 SI 11666 SI SI1 11666 1.100000 28.08600
11667 SI 11667 SI SI1 11667 1.100000 28.08600
11668 SI 11668 SI SI1 11668 1.100000 28.08600
11669 SI 11669 SI SI1 11669 1.100000 28.08600
11670 SI 11670 SI SI1 11670 1.100000 28.08600
11671 SI 11671 SI SI1 11671 1.100000 28.08600
11672 SI 11672 SI SI1 11672 1.100000 28.08600
11673 SI 11673 SI SI1 11673 1.100000 28.08600
11674 SI 11674 SI SI1 11674 1.100000 28.08600
11675 SI 11675 SI SI1 11675 1.100000 28.08600
11676 SI 11676 SI SI1 11676 1.100000 28.08600
11677 SI 11677 SI SI1 11677 1.100000 28.08600
11678 SI 11678 SI SI1 11678 1.100000 28.08600
11679 SI 11679 SI SI1 11679 1.100000 28.08600
11680 SI 11680 SI SI1 11680 1.100000 28.08600
11681 SI 11681 SI SI1 11681 1.100000 28.08600
11682 SI 11682 SI SI1 11682 1.100000 28.08600
11683 SI 11683 SI SI1 11683 1.100000 28.08600
11684 SI 11684 SI SI1 11684 1.100000 28.08600
11685 SI 11685 SI SI1 11685 1.100000 28.08600
11686 SI 11686 SI SI1 11686 1.100000 28.08600
11687 SI 11687 SI SI1 11687 1.100000 28.08600
11688 SI 11688 SI SI1 11688 1.100000 28.08600
11689 SI 11689 SI SI1 11689 1.100000 28.08600
11690 SI 11690 SI SI1 11690 1.100000 28.08600
11691 SI 11691 SI SI1 11691 1.100000 28.08600
11692 SI 11692 SI SI1 11692 1.100000 28.08600
11693 SI 11693 SI SI1 11693 1.100000 28.08600
11694 SI 11694 SI SI1 11694 1.100000 28.08600
11695 SI 11695 SI SI1 11695 1.100000 28.08600
11696 SI 11696 SI SI1 11696 1.100000 28.08600
11697 SI 11697 SI SI1 11697 1.100000 28.08600
11698 SI 11698 SI SI1 11698 1.100000 28.08600
11699 SI 11699 SI SI1 11699 1.100000 28.08600
11700 SI 11700 SI SI1 11700 1.100000 28.08600
11701 SI 11701 SI SI1 11701 1.100000 28.08600
11702 SI 11702 SI SI1 11702 1.100000 28.08600
11703 SI 11703 SI SI1 11703 1.100000 28.08600
11704 SI 11704 SI SI1 11704 1.100000 28.08600
11705 SI 11705 SI SI1 11705 1.100000 28.08600
11706 SI 11706 SI SI1 11706 1.100000 28.08600
11707 SI 11707 SI SI1 11707 1.100000 28.08600
11708 SI 11708 SI SI1 11708 1.100000 28.08600
11709 SI 11709 SI SI1 11709 1.100000 28.08600
11710 SI 11710 SI SI1 11710 1.100000 28.08600
11711 SI 11711 SI SI1 11711 1.100000 28.08600
11712 SI 11712 SI SI1 11712 1.100000 28.08600
11713 SI 11713 SI SI1 11713 1.100000 28.08600
11714 SI 11714 SI SI1 11714 1.100000 28.08600
11715 SI 11715 SI SI1 11715 1.100000 28.08600
11716 SI 11716 SI SI1 11716 1.100000 28.08600
11717 SI 11717 SI SI1 11717 1.100000 28.08600
11718 SI 11718 SI SI1 11718 1.100000 28.08600
11719 SI 11719 SI SI1 11719 1.100000 28.08600
11720 SI 11720 SI SI1 11720 1.100000 28.08600
11721 SI 11721 SI SI1 11721 1.100000 28.08600
11722 SI 11722 SI SI1 11722 1.100000 28.08600
11723 SI 11723 SI SI1 11723 1.100000 28.08600
11724 SI 11724 SI SI1 11724 1.100000 28.08600
11725 SI 11725 SI SI1 11725 1.100000 28.08600
11726 SI 11726 SI SI1 11726 1.100000 28.08600
11727 SI 11727 SI SI1 11727 1.100000 28.08600
11728 SI 11728 SI SI1 11728 1.100000 28.08600
11729 SI 11729 SI SI1 11729 1.100000 28.08600
11730 SI 11730 SI SI1 11730 1.100000 28.08600
11731 SI 11731 SI SI1 11731 1.100000 28.08600
11732 SI 11732 SI SI1 11732 1.100000 28.08600
11733 SI 11733 SI SI1 11733 1.100000 28.08600
11734 SI 11734 SI SI1 11734 1.100000 28.08600
11735 SI 11735 SI SI1 11735 1.100000 28.08600
11736 SI 11736 SI SI1 11736 1.100000 28.08600
11737 SI 11737 SI SI1 11737 1.100000 28.08600
11738 SI 11738 SI SI1 11738 1.100000 28.08600
11739 SI 11739 SI SI1 11739 1.100000 28.08600
11740 SI 11740 SI SI1 11740 1.100000 28.08600
11741 SI 11741 SI SI1 11741 1.100000 28.08600
11742 SI 11742 SI SI1 11742 1.100000 28.08600
11743 SI 11743 SI SI1 11743 1.100000 28.08600
11744 SI 11744 SI SI1 11744 1.100000 28.08600
11745 SI 11745 SI SI1 11745 1.100000 28.08600
11746 SI 11746 SI SI1 11746 1.100000 28.08600
11747 SI 11747 SI SI1 11747 1.100000 28.08600
11748 SI 11748 SI SI1 11748 1.100000 28.08600
11749 SI 11749 SI SI1 11749 1.100000 28.08600
11750 SI 11750 SI SI1 11750 1.100000 28.08600
11751 SI 11751 SI SI1 11751 1.100000 28.08600
11752 SI 11752 SI SI1 11752 1.100000 28.08600
11753 SI 11753 SI SI1 11753 1.100000 28.08600
11754 SI 11754 SI SI1 11754 1.100000 28.08600
11755 SI 11755 SI SI1 11755 1.100000 28.08600
11756 SI 11756 SI SI1 11756 1.100000 28.08600
11757 SI 11757 SI SI1 11757 1.100000 28.08600
11758 SI 11758 SI SI1 11758 1.100000 28.08600
11759 SI 11759 SI SI1 11759 1.100000 28.08600
11760 SI 11760 SI SI1 11760 1.100000 28.08600
11761 SI 11761 SI SI1 11761 1.100000 28.08600
11762 SI 11762 SI SI1 11762 1.100000 28.08600
11763 SI 11763 SI SI1 11763 1.100000 28.08600
11764 SI 11764 SI SI1 11764 1.100000 28.08600
11765 SI 11765 SI SI1 11765 1.100000 28.08600
11766 SI 11766 SI SI1 11766 1.100000 28.08600
11767 SI 11767 SI SI1 11767 1.100000 28.08600
11768 SI 11768 SI SI1 11768 1.100000 28.08600
11769 SI 11769 SI SI1 11769 1.100000 28.08600
11770 SI 11770 SI SI1 11770 1.100000 28.08600
11771 SI 11771 SI SI1 11771 1.100000 28.08600
11772 SI 11772 SI SI1 11772 1.100000 28.08600
11773 SI 11773 SI SI1 11773 1.100000 28.08600
11774 SI 11774 SI SI1 11774 1.100000 28.08600
11775 SI 11775 SI SI1 11775 1.100000 28.08600
11776 SI 11776 SI SI1 11776 1.100000 28.08600
11777 SI 11777 SI SI1 11777 1.100000 28.08600
11778 SI 11778 SI SI1 11778 1.100000 28.08600
11779 SI 11779 SI SI1 11779 1.100000 28.08600
11780 SI 11780 SI SI1 11780 1.100000 28.08600
11781 SI 11781 SI SI1 11781 1.100000 28.08600
11782 SI 11782 SI SI1 11782 1.100000 28.08600
11783 SI 11783 SI SI1 11783 1.100000 28.08600
11784 SI 11784 SI SI1 11784 1.100000 28.08600
11785 SI 11785 SI SI1 11785 1.100000 28.08600
11786 SI 11786 SI SI1 11786 1.100000 28.08600
11787 SI 11787 SI SI1 11787 1.100000 28.08600
11788 SI 11788 SI SI1 11788 1.100000 28.08600
11789 SI 11789 SI SI1 11789 1.100000 28.08600
11790 SI 11790 SI SI1 11790 1.100000 28.08600
11791 SI 11791 SI SI1 11791 1.100000 28.08600
11792 SI 11792 SI SI1 11792 1.100000 28.08600
11793 SI 11793 SI SI1 11793 1.100000 28.08600
11794 SI 11794 SI SI1 11794 1.100000 28.08600
11795 SI 11795 SI SI1 11795 1.100000 28.08600
11796 SI 11796 SI SI1 11796 1.100000 28.08600
11797 SI 11797 SI SI1 11797 1.100000 28.08600
11798 SI 11798 SI SI1 11798 1.100000 28.08600
11799 SI 11799 SI SI1 11799 1.100000 28.08600
11800 SI 11800 SI SI1 11800 1.100000 28.08600
11801 SI 11801 SI SI1 11801 1.100000 28.08600
11802 SI 11802 SI SI1 11802 1.100000 28.08600
11803 SI 11803 SI SI1 11803 1.100000 28.08600
11804 SI 11804 SI SI1 11804 1.100000 28.08600
11805 SI 11805 SI SI1 11805 1.100000 28.08600
11806 SI 11806 SI SI1 11806 1.100000 28.08600
11807 SI 11807 SI SI1 11807 1.100000 28.08600
11808 SI 11808 SI SI1 11808 1.100000 28.08600
11809 SI 11809 SI SI1 11809 1.100000 28.08600
11810 SI 11810 SI SI1 11810 1.100000 28.08600
11811 SI 11811 SI SI1 11811 1.100000 28.08600
11812 SI 11812 SI SI1 11812 1.100000 28.08600
11813 SI 11813 SI SI1 11813 1.100000 28.08600
11814 SI 11814 SI SI1 11814 1.100000 28.08600
11815 SI 11815 SI SI1 11815 1.100000 28.08600
11816 SI 11816 SI SI1 11816 1.100000 28.08600
11817 SI 11817 SI SI1 11817 1.100000 28.08600
11818 SI 11818 SI SI1 11818 1.100000 28.08600
11819 SI 11819 SI SI1 11819 1.100000 28.08600
11820 SI 11820 SI SI1 11820 1.100000 28.08600
11821 SI 11821 SI SI1 11821 1.100000 28.08600
11822 SI 11822 SI SI1 11822 1.100000 28.08600
11823 SI 11823 SI SI1 11823 1.100000 28.08600
11824 SI 11824 SI SI1 11824 1.100000 28.08600
11825 SI 11825 SI SI1 11825 1.100000 28.08600
11826 SI 11826 SI SI1 11826 1.100000 28.08600
11827 SI 11827 SI SI1 11827 1.100000 28.08600
11828 SI 11828 SI SI1 11828 1.100000 28.08600
11829 SI 11829 SI SI1 11829 1.100000 28.08600
11830 SI 11830 SI SI1 11830 1.100000 28.08600
11831 SI 11831 SI SI1 11831 1.100000 28.08600
11832 SI 11832 SI SI1 11832 1.100000 28.08600
11833 SI 11833 SI SI1 11833 1.100000 28.08600
11834 SI 11834 SI SI1 11834 1.100000 28.08600
11835 SI 11835 SI SI1 11835 1.100000 28.08600
11836 SI 11836 SI SI1 11836 1.100000 28.08600
11837 SI 11837 SI SI1 11837 1.100000 28.08600
11838 SI 11838 SI SI1 11838 1.100000 28.08600
11839 SI 11839 SI SI1 11839 1.100000 28.08600
11840 SI 11840 SI SI1 11840 1.100000 28.08600
11841 SI 11841 SI SI1 11841 1.100000 28.08600
11842 SI 11842 SI SI1 11842 1.100000 28.08600
11843 SI 11843 SI SI1 11843 1.100000 28.08600
11844 SI 11844 SI SI1 11844 1.100000 28.08600
11845 SI 11845 SI SI1 11845 1.100000 28.08600
11846 SI 11846 SI SI1 11846 1.100000 28.08600
11847 SI 11847 SI SI1 11847 1.100000 28.08600
11848 SI 11848 SI SI1 11848 1.100000 28.08600
11849 SI 11849 SI SI1 11849 1.100000 28.08600
11850 SI 11850 SI SI1 11850 1.100000 28.08600
11851 SI 11851 SI SI1 11851 1.100000 28.08600
11852 SI 11852 SI SI1 11852 1.100000 28.08600
11853 SI 11853 SI SI1 11853 1.100000 28.08600
11854 SI 11854 SI SI1 11854 1.100000 28.08600
11855 SI 11855 SI SI1 11855 1.100000 28.08600
11856 SI 11856 SI SI1 11856 1.100000 28.08600
11857 SI 11857 SI SI1 11857 1.100000 28.08600
11858 SI 11858 SI SI1 11858 1.100000 28.08600
11859 SI 11859 SI SI1 11859 1.100000 28.08600
11860 SI 11860 SI SI1 11860 1.100000 28.08600
11861 SI 11861 SI SI1 11861 1.100000 28.08600
11862 SI 11862 SI SI1 11862 1.100000 28.08600
11863 SI 11863 SI SI1 11863 1.100000 28.08600
11864 SI 11864 SI SI1 11864 1.100000 28.08600
11865 SI 11865 SI SI1 11865 1.100000 28.08600
11866 SI 11866 SI SI1 11866 1.100000 28.08600
11867 SI 11867 SI SI1 11867 1.100000 28.08600
11868 SI 11868 SI SI1 11868 1.100000 28.08600
11869 SI 11869 SI SI1 11869 1.100000 28.08600
11870 SI 11870 SI SI1 11870 1.100000 28.08600
11871 SI 11871 SI SI1 11871 1.100000 28.08600
11872 SI 11872 SI SI1 11872 1.100000 28.08600
11873 SI 11873 SI SI1 11873 1.100000 28.08600
11874 SI 11874 SI SI1 11874 1.100000 28.08600
11875 SI 11875 SI SI1 11875 1.100000 28.08600
11876 SI 11876 SI SI1 11876 1.100000 28.08600
11877 SI 11877 SI SI1 11877 1.100000 28.08600
11878 SI 11878 SI SI1 11878 1.100000 28.08600
11879 SI 11879 SI SI1 11879 1.100000 28.08600
11880 SI 11880 SI SI1 11880 1.100000 28.08600
11881 SI 11881 SI SI1 11881 1.100000 28.08600
11882 SI 11882 SI SI1 11882 1.100000 28.08600
11883 SI 11883 SI SI1 11883 1.100000 28.08600
11884 SI 11884 SI SI1 11884 1.100000 28.08600
11885 SI 11885 SI SI1 11885 1.100000 28.08600
11886 SI 11886 SI SI1 11886 1.100000 28.08600
11887 SI 11887 SI SI1 11887 1.100000 28.08600
11888 SI 11888 SI SI1 11888 1.100000 28.08600
11889 SI 11889 SI SI1 11889 1.100000 28.08600
11890 SI 11890 SI SI1 11890 1.100000 28.08600
11891 SI 11891 SI SI1 11891 1.100000 28.08600
11892 SI 11892 SI SI1 11892 1.100000 28.08600
11893 SI 11893 SI SI1 11893 1.100000 28.08600
11894 SI 11894 SI SI1 11894 1.100000 28.08600
11895 SI 11895 SI SI1 11895 1.100000 28.08600
11896 SI 11896 SI SI1 11896 1.100000 28.08600
11897 SI 11897 SI SI1 11897 1.100000 28.08600
11898 SI 11898 SI SI1 11898 1.100000 28.08600
11899 SI 11899 SI SI1 11899 1.100000 28.08600
11900 SI 11900 SI SI1 11900 1.100000 28.08600
11901 SI 11901 SI SI1 11901 1.100000 28.08600
11902 SI 11902 SI SI1 11902 1.100000 28.08600
11903 SI 11903 SI SI1 11903 1.100000 28.08600
11904 SI 11904 SI SI1 11904 1.100000 28.08600
11905 SI 11905 SI SI1 11905 1.100000 28.08600
11906 SI 11906 SI SI1 11906 1.100000 28.08600
11907 SI 11907 SI SI1 11907 1.100000 28.08600
11908 SI 11908 SI SI1 11908 1.100000 28.08600
11909 SI 11909 SI SI1 11909 1.100000 28.08600
11910 SI 11910 SI SI1 11910 1.100000 28.08600
11911 SI 11911 SI SI1 11911 1.100000 28.08600
11912 SI 11912 SI SI1 11912 1.100000 28.08600
11913 SI 11913 SI SI1 11913 1.100000 28.08600
11914 SI 11914 SI SI1 11914 1.100000 28.08600
11915 SI 11915 SI SI1 11915 1.100000 28.08600
11916 SI 11916 SI SI1 11916 1.100000 28.08600
11917 SI 11917 SI SI1 11917 1.100000 28.08600
11918 SI 11918 SI SI1 11918 1.100000 28.08600
11919 SI 11919 SI SI1 11919 1.100000 28.08600
11920 SI 11920 SI SI1 11920 1.100000 28.08600
11921 SI 11921 SI SI1 11921 1.100000 28.08600
11922 SI 11922 SI SI1 11922 1.100000 28.08600
11923 SI 11923 SI SI1 11923 1.100000 28.08600
11924 SI 11924 SI SI1 11924 1.100000 28.08600
11925 SI 11925 SI SI1 11925 1.100000 28.08600
11926 SI 11926 SI SI1 11926 1.100000 28.08600
11927 SI 11927 SI SI1 11927 1.100000 28.08600
11928 SI 11928 SI SI1 11928 1.100000 28.08600
11929 SI 11929 SI SI1 11929 1.100000 28.08600
11930 SI 11930 SI SI1 11930 1.100000 28.08600
11931 SI 11931 SI SI1 11931 1.100000 28.08600
11932 SI 11932 SI SI1 11932 1.100000 28.08600
11933 SI 11933 SI SI1 11933 1.100000 28.08600
11934 SI 11934 SI SI1 11934 1.100000 28.08600
11935 SI 11935 SI SI1 11935 1.100000 28.08600
11936 SI 11936 SI SI1 11936 1.100000 28.08600
11937 SI 11937 SI SI1 11937 1.100000 28.08600
11938 SI 11938 SI SI1 11938 1.100000 28.08600
11939 SI 11939 SI SI1 11939 1.100000 28.08600
11940 SI 11940 SI SI1 11940 1.100000 28.08600
11941 SI 11941 SI SI1 11941 1.100000 28.08600
11942 SI 11942 SI SI1 11942 1.100000 28.08600
11943 SI 11943 SI SI1 11943 1.100000 28.08600
11944 SI 11944 SI SI1 11944 1.100000 28.08600
11945 SI 11945 SI SI1 11945 1.100000 28.08600
11946 SI 11946 SI SI1 11946 1.100000 28.08600
11947 SI 11947 SI SI1 11947 1.100000 28.08600
11948 SI 11948 SI SI1 11948 1.100000 28.08600
11949 SI 11949 SI SI1 11949 1.100000 28.08600
11950 SI 11950 SI SI1 11950 1.100000 28.08600
11951 SI 11951 SI SI1 11951 1.100000 28.08600
11952 SI 11952 SI SI1 11952 1.100000 28.08600
11953 SI 11953 SI SI1 11953 1.100000 28.08600
11954 SI 11954 SI SI1 11954 1.100000 28.08600
11955 SI 11955 SI SI1 11955 1.100000 28.08600
11956 SI 11956 SI SI1 11956 1.100000 28.08600
11957 SI 11957 SI SI1 11957 1.100000 28.08600
11958 SI 11958 SI SI1 11958 1.100000 28.08600
11959 SI 11959 SI SI1 11959 1.100000 28.08600
11960 SI 11960 SI SI1 11960 1.100000 28.08600
11961 SI 11961 SI SI1 11961 1.100000 28.08600
11962 SI 11962 SI SI1 11962 1.100000 28.08600
11963 SI 11963 SI SI1 11963 1.100000 28.08600
11964 SI 11964 SI SI1 11964 1.100000 28.08600
11965 SI 11965 SI SI1 11965 1.100000 28.08600
11966 SI 11966 SI SI1 11966 1.100000 28.08600
11967 SI 11967 SI SI1 11967 1.100000 28.08600
11968 SI 11968 SI SI1 11968 1.100000 28.08600
11969 SI 11969 SI SI1 11969 1.100000 28.08600
11970 SI 11970 SI SI1 11970 1.100000 28.08600
11971 SI 11971 SI SI1 11971 1.100000 28.08600
11972 SI 11972 SI SI1 11972 1.100000 28.08600
11973 SI 11973 SI SI1 11973 1.100000 28.08600
11974 SI 11974 SI SI1 11974 1.100000 28.08600
11975 SI 11975 SI SI1 11975 1.100000 28.08600
11976 SI 11976 SI SI1 11976 1.100000 28.08600
11977 SI 11977 SI SI1 11977 1.100000 28.08600
11978 SI 11978 SI SI1 11978 1.100000 28.08600
11979 SI 11979 SI SI1 11979 1.100000 28.08600
11980 SI 11980 SI SI1 11980 1.100000 28.08600
11981 SI 11981 SI SI1 11981 1.100000 28.08600
11982 SI 11982 SI SI1 11982 1.100000 28.08600
11983 SI 11983 SI SI1 11983 1.100000 28.08600
11984 SI 11984 SI SI1 11984 1.100000 28.08600
11985 SI 11985 SI SI1 11985 1.100000 28.08600
11986 SI 11986 SI SI1 11986 1.100000 28.08600
11987 SI 11987 SI SI1 11987 1.100000 28.08600
11988 SI 11988 SI SI1 11988 1.100000 28.08600
11989 SI 11989 SI SI1 11989 1.100000 28.08600
11990 SI 11990 SI SI1 11990 1.100000 28.08600
11991 SI 11991 SI SI1 11991 1.100000 28.08600
11992 SI 11992 SI SI1 11992 1.100000 28.08600
11993 SI 11993 SI SI1 11993 1.100000 28.08600
11994 SI 11994 SI SI1 11994 1.100000 28.08600
11995 SI 11995 SI SI1 11995 1.100000 28.08600
11996 SI 11996 SI SI1 11996 1.100000 28.08600
11997 SI 11997 SI SI1 11997 1.100000 28.08600
11998 SI 11998 SI SI1 11998 1.100000 28.08600
11999 SI 11999 SI SI1 11999 1.100000 28.08600
12000 SI 12000 SI SI1 12000 1.100000 28.08600
12001 SI 12001 SI SI1 12001 1.100000 28.08600
12002 SI 12002 SI SI1 12002 1.100000 28.08600
12003 SI 12003 SI SI1 12003 1.100000 28.08600
12004 SI 12004 SI SI1 12004 1.100000 28.08600
12005 SI 12005 SI SI1 12005 1.100000 28.08600
12006 SI 12006 SI SI1 12006 1.100000 28.08600
12007 SI 12007 SI SI1 12007 1.100000 28.08600
12008 SI 12008 SI SI1 12008 1.100000 28.08600
12009 SI 12009 SI SI1 12009 1.100000 28.08600
12010 SI 12010 SI SI1 12010 1.100000 28.08600
12011 SI 12011 SI SI1 12011 1.100000 28.08600
12012 SI 12012 SI SI1 12012 1.100000 28.08600
12013 SI 12013 SI SI1 12013 1.100000 28.08600
12014 SI 12014 SI SI1 12014 1.100000 28.08600
12015 SI 12015 SI SI1 12015 1.100000 28.08600
12016 SI 12016 SI SI1 12016 1.100000 28.08600
12017 SI 12017 SI SI1 12017 1.100000 28.08600
12018 SI 12018 SI SI1 12018 1.100000 28.08600
12019 SI 12019 SI SI1 12019 1.100000 28.08600
12020 SI 12020 SI SI1 12020 1.100000 28.08600
12021 SI 12021 SI SI1 12021 1.100000 28.08600
12022 SI 12022 SI SI1 12022 1.100000 28.08600
12023 SI 12023 SI SI1 12023 1.100000 28.08600
12024 SI 12024 SI SI1 12024 1.100000 28.08600
12025 SI 12025 SI SI1 12025 1.100000 28.08600
12026 SI 12026 SI SI1 12026 1.100000 28.08600
12027 SI 12027 SI SI1 12027 1.100000 28.08600
12028 SI 12028 SI SI1 12028 1.100000 28.08600
12029 SI 12029 SI SI1 12029 1.100000 28.08600
12030 SI 12030 SI SI1 12030 1.100000 28.08600
12031 SI 12031 SI SI1 12031 1.100000 28.08600
12032 SI 12032 SI SI1 12032 1.100000 28.08600
12033 SI 12033 SI SI1 12033 1.100000 28.08600
12034 SI 12034 SI SI1 12034 1.100000 28.08600
12035 SI 12035 SI SI1 12035 1.100000 28.08600
12036 SI 12036 SI SI1 12036 1.100000 28.08600
12037 SI 12037 SI SI1 12037 1.100000 28.08600
12038 SI 12038 SI SI1 12038 1.100000 28.08600
12039 SI 12039 SI SI1 12039 1.100000 28.08600
12040 SI 12040 SI SI1 12040 1.100000 28.08600
12041 SI 12041 SI SI1 12041 1.100000 28.08600
12042 SI 12042 SI SI1 12042 1.100000 28.08600
12043 SI 12043 SI SI1 12043 1.100000 28.08600
12044 SI 12044 SI SI1 12044 1.100000 28.08600
12045 SI 12045 SI SI1 12045 1.100000 28.08600
12046 SI 12046 SI SI1 12046 1.100000 28.08600
12047 SI 12047 SI SI1 12047 1.100000 28.08600
12048 SI 12048 SI SI1 12048 1.100000 28.08600
12049 SI 12049 SI SI1 12049 1.100000 28.08600
12050 SI 12050 SI SI1 12050 1.100000 28.08600
12051 SI 12051 SI SI1 12051 1.100000 28.08600
12052 SI 12052 SI SI1 12052 1.100000 28.08600
12053 SI 12053 SI SI1 12053 1.100000 28.08600
12054 SI 12054 SI SI1 12054 1.100000 28.08600
12055 SI 12055 SI SI1 12055 1.100000 28.08600
12056 SI 12056 SI SI1 12056 1.100000 28.08600
12057 SI 12057 SI SI1 12057 1.100000 28.08600
12058 SI 12058 SI SI1 12058 1.100000 28.08600
12059 SI 12059 SI SI1 12059 1.100000 28.08600
12060 SI 12060 SI SI1 12060 1.100000 28.08600
12061 SI 12061 SI SI1 12061 1.100000 28.08600
12062 SI 12062 SI SI1 12062 1.100000 28.08600
12063 SI 12063 SI SI1 12063 1.100000 28.08600
12064 SI 12064 SI SI1 12064 1.100000 28.08600
12065 SI 12065 SI SI1 12065 1.100000 28.08600
12066 SI 12066 SI SI1 12066 1.100000 28.08600
12067 SI 12067 SI SI1 12067 1.100000 28.08600
12068 SI 12068 SI SI1 12068 1.100000 28.08600
12069 SI 12069 SI SI1 12069 1.100000 28.08600
12070 SI 12070 SI SI1 12070 1.100000 28.08600
12071 SI 12071 SI SI1 12071 1.100000 28.08600
12072 SI 12072 SI SI1 12072 1.100000 28.08600
12073 SI 12073 SI SI1 12073 1.100000 28.08600
12074 SI 12074 SI SI1 12074 1.100000 28.08600
12075 SI 12075 SI SI1 12075 1.100000 28.08600
12076 SI 12076 SI SI1 12076 1.100000 28.08600
12077 SI 12077 SI SI1 12077 1.100000 28.08600
12078 SI 12078 SI SI1 12078 1.100000 28.08600
12079 SI 12079 SI SI1 12079 1.100000 28.08600
12080 SI 12080 SI SI1 12080 1.100000 28.08600
12081 SI 12081 SI SI1 12081 1.100000 28.08600
12082 SI 12082 SI SI1 12082 1.100000 28.08600
12083 SI 12083 SI SI1 12083 1.100000 28.08600
12084 SI 12084 SI SI1 12084 1.100000 28.08600
12085 SI 12085 SI SI1 12085 1.100000 28.08600
12086 SI 12086 SI SI1 12086 1.100000 28.08600
12087 SI 12087 SI SI1 12087 1.100000 28.08600
12088 SI 12088 SI SI1 12088 1.100000 28.08600
12089 SI 12089 SI SI1 12089 1.100000 28.08600
12090 SI 12090 SI SI1 12090 1.100000 28.08600
12091 SI 12091 SI SI1 12091 1.100000 28.08600
12092 SI 12092 SI SI1 12092 1.100000 28.08600
12093 SI 12093 SI SI1 12093 1.100000 28.08600
12094 SI 12094 SI SI1 12094 1.100000 28.08600
12095 SI 12095 SI SI1 12095 1.100000 28.08600
12096 SI 12096 SI SI1 12096 1.100000 28.08600
12097 SI 12097 SI SI1 12097 1.100000 28.08600
12098 SI 12098 SI SI1 12098 1.100000 28.08600
12099 SI 12099 SI SI1 12099 1.100000 28.08600
12100 SI 12100 SI SI1 12100 1.100000 28.08600
12101 SI 12101 SI SI1 12101 1.100000 28.08600
12102 SI 12102 SI SI1 12102 1.100000 28.08600
12103 SI 12103 SI SI1 12103 1.100000 28.08600
12104 SI 12104 SI SI1 12104 1.100000 28.08600
12105 SI 12105 SI SI1 12105 1.100000 28.08600
12106 SI 12106 SI SI1 12106 1.100000 28.08600
12107 SI 12107 SI SI1 12107 1.100000 28.08600
12108 SI 12108 SI SI1 12108 1.100000 28.08600
12109 SI 12109 SI SI1 12109 1.100000 28.08600
12110 SI 12110 SI SI1 12110 1.100000 28.08600
12111 SI 12111 SI SI1 12111 1.100000 28.08600
12112 SI 12112 SI SI1 12112 1.100000 28.08600
12113 SI 12113 SI SI1 12113 1.100000 28.08600
12114 SI 12114 SI SI1 12114 1.100000 28.08600
12115 SI 12115 SI SI1 12115 1.100000 28.08600
12116 SI 12116 SI SI1 12116 1.100000 28.08600
12117 SI 12117 SI SI1 12117 1.100000 28.08600
12118 SI 12118 SI SI1 12118 1.100000 28.08600
12119 SI 12119 SI SI1 12119 1.100000 28.08600
12120 SI 12120 SI SI1 12120 1.100000 28.08600
12121 SI 12121 SI SI1 12121 1.100000 28.08600
12122 SI 12122 SI SI1 12122 1.100000 28.08600
12123 SI 12123 SI SI1 12123 1.100000 28.08600
12124 SI 12124 SI SI1 12124 1.100000 28.08600
12125 SI 12125 SI SI1 12125 1.100000 28.08600
12126 SI 12126 SI SI1 12126 1.100000 28.08600
12127 SI 12127 SI SI1 12127 1.100000 28.08600
12128 SI 12128 SI SI1 12128 1.100000 28.08600
12129 SI 12129 SI SI1 12129 1.100000 28.08600
12130 SI 12130 SI SI1 12130 1.100000 28.08600
12131 SI 12131 SI SI1 12131 1.100000 28.08600
12132 SI 12132 SI SI1 12132 1.100000 28.08600
12133 SI 12133 SI SI1 12133 1.100000 28.08600
12134 SI 12134 SI SI1 12134 1.100000 28.08600
12135 SI 12135 SI SI1 12135 1.100000 28.08600
12136 SI 12136 SI SI1 12136 1.100000 28.08600
12137 SI 12137 SI SI1 12137 1.100000 28.08600
12138 SI 12138 SI SI1 12138 1.100000 28.08600
12139 SI 12139 SI SI1 12139 1.100000 28.08600
12140 SI 12140 SI SI1 12140 1.100000 28.08600
12141 SI 12141 SI SI1 12141 1.100000 28.08600
12142 SI 12142 SI SI1 12142 1.100000 28.08600
12143 SI 12143 SI SI1 12143 1.100000 28.08600
12144 SI 12144 SI SI1 12144 1.100000 28.08600
12145 SI 12145 SI SI1 12145 1.100000 28.08600
12146 SI 12146 SI SI1 12146 1.100000 28.08600
12147 SI 12147 SI SI1 12147 1.100000 28.08600
12148 SI 12148 SI SI1 12148 1.100000 28.08600
12149 SI 12149 SI SI1 12149 1.100000 28.08600
12150 SI 12150 SI SI1 12150 1.100000 28.08600
12151 SI 12151 SI SI1 12151 1.100000 28.08600
12152 SI 12152 SI SI1 12152 1.100000 28.08600
12153 SI 12153 SI SI1 12153 1.100000 28.08600
12154 SI 12154 SI SI1 12154 1.100000 28.08600
12155 SI 12155 SI SI1 12155 1.100000 28.08600
12156 SI 12156 SI SI1 12156 1.100000 28.08600
12157 SI 12157 SI SI1 12157 1.100000 28.08600
12158 SI 12158 SI SI1 12158 1.100000 28.08600
12159 SI 12159 SI SI1 12159 1.100000 28.08600
12160 SI 12160 SI SI1 12160 1.100000 28.08600
12161 SI 12161 SI SI1 12161 1.100000 28.08600
12162 SI 12162 SI SI1 12162 1.100000 28.08600
12163 SI 12163 SI SI1 12163 1.100000 28.08600
12164 SI 12164 SI SI1 12164 1.100000 28.08600
12165 SI 12165 SI SI1 12165 1.100000 28.08600
12166 SI 12166 SI SI1 12166 1.100000 28.08600
12167 SI 12167 SI SI1 12167 1.100000 28.08600
12168 SI 12168 SI SI1 12168 1.100000 28.08600
12169 SI 12169 SI SI1 12169 1.100000 28.08600
12170 SI 12170 SI SI1 12170 1.100000 28.08600
12171 SI 12171 SI SI1 12171 1.100000 28.08600
12172 SI 12172 SI SI1 12172 1.100000 28.08600
12173 SI 12173 SI SI1 12173 1.100000 28.08600
12174 SI 12174 SI SI1 12174 1.100000 28.08600
12175 SI 12175 SI SI1 12175 1.100000 28.08600
12176 SI 12176 SI SI1 12176 1.100000 28.08600
12177 SI 12177 SI SI1 12177 1.100000 28.08600
12178 SI 12178 SI SI1 12178 1.100000 28.08600
12179 SI 12179 SI SI1 12179 1.100000 28.08600
12180 SI 12180 SI SI1 12180 1.100000 28.08600
12181 SI 12181 SI SI1 12181 1.100000 28.08600
12182 SI 12182 SI SI1 12182 1.100000 28.08600
12183 SI 12183 SI SI1 12183 1.100000 28.08600
12184 SI 12184 SI SI1 12184 1.100000 28.08600
12185 SI 12185 SI SI1 12185 1.100000 28.08600
12186 SI 12186 SI SI1 12186 1.100000 28.08600
12187 SI 12187 SI SI1 12187 1.100000 28.08600
12188 SI 12188 SI SI1 12188 1.100000 28.08600
12189 SI 12189 SI SI1 12189 1.100000 28.08600
12190 SI 12190 SI SI1 12190 1.100000 28.08600
12191 SI 12191 SI SI1 12191 1.100000 28.08600
12192 SI 12192 SI SI1 12192 1.100000 28.08600
12193 SI 12193 SI SI1 12193 1.100000 28.08600
12194 SI 12194 SI SI1 12194 1.100000 28.08600
12195 SI 12195 SI SI1 12195 1.100000 28.08600
12196 SI 12196 SI SI1 12196 1.100000 28.08600
12197 SI 12197 SI SI1 12197 1.100000 28.08600
12198 SI 12198 SI SI1 12198 1.100000 28.08600
12199 SI 12199 SI SI1 12199 1.100000 28.08600
12200 SI 12200 SI SI1 12200 1.100000 28.08600
12201 SI 12201 SI SI1 12201 1.100000 28.08600
12202 SI 12202 SI SI1 12202 1.100000 28.08600
12203 SI 12203 SI SI1 12203 1.100000 28.08600
12204 SI 12204 SI SI1 12204 1.100000 28.08600
12205 SI 12205 SI SI1 12205 1.100000 28.08600
12206 SI 12206 SI SI1 12206 1.100000 28.08600
12207 SI 12207 SI SI1 12207 1.100000 28.08600
12208 SI 12208 SI SI1 12208 1.100000 28.08600
12209 SI 12209 SI SI1 12209 1.100000 28.08600
12210 SI 12210 SI SI1 12210 1.100000 28.08600
12211 SI 12211 SI SI1 12211 1.100000 28.08600
12212 SI 12212 SI SI1 12212 1.100000 28.08600
12213 SI 12213 SI SI1 12213 1.100000 28.08600
12214 SI 12214 SI SI1 12214 1.100000 28.08600
12215 SI 12215 SI SI1 12215 1.100000 28.08600
12216 SI 12216 SI SI1 12216 1.100000 28.08600
12217 SI 12217 SI SI1 12217 1.100000 28.08600
12218 SI 12218 SI SI1 12218 1.100000 28.08600
12219 SI 12219 SI SI1 12219 1.100000 28.08600
12220 SI 12220 SI SI1 12220 1.100000 28.08600
12221 SI 12221 SI SI1 12221 1.100000 28.08600
12222 SI 12222 SI SI1 12222 1.100000 28.08600
12223 SI 12223 SI SI1 12223 1.100000 28.08600
12224 SI 12224 SI SI1 12224 1.100000 28.08600
12225 SI 12225 SI SI1 12225 1.100000 28.08600
12226 SI 12226 SI SI1 12226 1.100000 28.08600
12227 SI 12227 SI SI1 12227 1.100000 28.08600
12228 SI 12228 SI SI1 12228 1.100000 28.08600
12229 SI 12229 SI SI1 12229 1.100000 28.08600
12230 SI 12230 SI SI1 12230 1.100000 28.08600
12231 SI 12231 SI SI1 12231 1.100000 28.08600
12232 SI 12232 SI SI1 12232 1.100000 28.08600
12233 SI 12233 SI SI1 12233 1.100000 28.08600
12234 SI 12234 SI SI1 12234 1.100000 28.08600
12235 SI 12235 SI SI1 12235 1.100000 28.08600
12236 SI 12236 SI SI1 12236 1.100000 28.08600
12237 SI 12237 SI SI1 12237 1.100000 28.08600
12238 SI 12238 SI SI1 12238 1.100000 28.08600
12239 SI 12239 SI SI1 12239 1.100000 28.08600
12240 SI 12240 SI SI1 12240 1.100000 28.08600
12241 SI 12241 SI SI1 12241 1.100000 28.08600
12242 SI 12242 SI SI1 12242 1.100000 28.08600
12243 SI 12243 SI SI1 12243 1.100000 28.08600
12244 SI 12244 SI SI1 12244 1.100000 28.08600
12245 SI 12245 SI SI1 12245 1.100000 28.08600
12246 SI 12246 SI SI1 12246 1.100000 28.08600
12247 SI 12247 SI SI1 12247 1.100000 28.08600
12248 SI 12248 SI SI1 12248 1.100000 28.08600
12249 SI 12249 SI SI1 12249 1.100000 28.08600
12250 SI 12250 SI SI1 12250 1.100000 28.08600
12251 SI 12251 SI SI1 12251 1.100000 28.08600
12252 SI 12252 SI SI1 12252 1.100000 28.08600
12253 SI 12253 SI SI1 12253 1.100000 28.08600
12254 SI 12254 SI SI1 12254 1.100000 28.08600
12255 SI 12255 SI SI1 12255 1.100000 28.08600
12256 SI 12256 SI SI1 12256 1.100000 28.08600
12257 SI 12257 SI SI1 12257 1.100000 28.08600
12258 SI 12258 SI SI1 12258 1.100000 28.08600
12259 SI 12259 SI SI1 12259 1.100000 28.08600
12260 SI 12260 SI SI1 12260 1.100000 28.08600
12261 SI 12261 SI SI1 12261 1.100000 28.08600
12262 SI 12262 SI SI1 12262 1.100000 28.08600
12263 SI 12263 SI SI1 12263 1.100000 28.08600
12264 SI 12264 SI SI1 12264 1.100000 28.08600
12265 SI 12265 SI SI1 12265 1.100000 28.08600
12266 SI 12266 SI SI1 12266 1.100000 28.08600
12267 SI 12267 SI SI1 12267 1.100000 28.08600
12268 SI 12268 SI SI1 12268 1.100000 28.08600
12269 SI 12269 SI SI1 12269 1.100000 28.08600
12270 SI 12270 SI SI1 12270 1.100000 28.08600
12271 SI 12271 SI SI1 12271 1.100000 28.08600
12272 SI 12272 SI SI1 12272 1.100000 28.08600
12273 SI 12273 SI SI1 12273 1.100000 28.08600
12274 SI 12274 SI SI1 12274 1.100000 28.08600
12275 SI 12275 SI SI1 12275 1.100000 28.08600
12276 SI 12276 SI SI1 12276 1.100000 28.08600
12277 SI 12277 SI SI1 12277 1.100000 28.08600
12278 SI 12278 SI SI1 12278 1.100000 28.08600
12279 SI 12279 SI SI1 12279 1.100000 28.08600
12280 SI 12280 SI SI1 12280 1.100000 28.08600
12281 SI 12281 SI SI1 12281 1.100000 28.08600
12282 SI 12282 SI SI1 12282 1.100000 28.08600
12283 SI 12283 SI SI1 12283 1.100000 28.08600
12284 SI 12284 SI SI1 12284 1.100000 28.08600
12285 SI 12285 SI SI1 12285 1.100000 28.08600
12286 SI 12286 SI SI1 12286 1.100000 28.08600
12287 SI 12287 SI SI1 12287 1.100000 28.08600
12288 SI 12288 SI SI1 12288 1.100000 28.08600
12289 SI 12289 SI SI1 12289 1.100000 28.08600
12290 SI 12290 SI SI1 12290 1.100000 28.08600
12291 SI 12291 SI SI1 12291 1.100000 28.08600
12292 SI 12292 SI SI1 12292 1.100000 28.08600
12293 SI 12293 SI SI1 12293 1.100000 28.08600
12294 SI 12294 SI SI1 12294 1.100000 28.08600
12295 SI 12295 SI SI1 12295 1.100000 28.08600
12296 SI 12296 SI SI1 12296 1.100000 28.08600
12297 SI 12297 SI SI1 12297 1.100000 28.08600
12298 SI 12298 SI SI1 12298 1.100000 28.08600
12299 SI 12299 SI SI1 12299 1.100000 28.08600
12300 SI 12300 SI SI1 12300 1.100000 28.08600
12301 SI 12301 SI SI1 12301 1.100000 28.08600
12302 SI 12302 SI SI1 12302 1.100000 28.08600
12303 SI 12303 SI SI1 12303 1.100000 28.08600
12304 SI 12304 SI SI1 12304 1.100000 28.08600
12305 SI 12305 SI SI1 12305 1.100000 28.08600
12306 SI 12306 SI SI1 12306 1.100000 28.08600
12307 SI 12307 SI SI1 12307 1.100000 28.08600
12308 SI 12308 SI SI1 12308 1.100000 28.08600
12309 SI 12309 SI SI1 12309 1.100000 28.08600
12310 SI 12310 SI SI1 12310 1.100000 28.08600
12311 SI 12311 SI SI1 12311 1.100000 28.08600
12312 SI 12312 SI SI1 12312 1.100000 28.08600
12313 SI 12313 SI SI1 12313 1.100000 28.08600
12314 SI 12314 SI SI1 12314 1.100000 28.08600
12315 SI 12315 SI SI1 12315 1.100000 28.08600
12316 SI 12316 SI SI1 12316 1.100000 28.08600
12317 SI 12317 SI SI1 12317 1.100000 28.08600
12318 SI 12318 SI SI1 12318 1.100000 28.08600
12319 SI 12319 SI SI1 12319 1.100000 28.08600
12320 SI 12320 SI SI1 12320 1.100000 28.08600
12321 SI 12321 SI SI1 12321 1.100000 28.08600
12322 SI 12322 SI SI1 12322 1.100000 28.08600
12323 SI 12323 SI SI1 12323 1.100000 28.08600
12324 SI 12324 SI SI1 12324 1.100000 28.08600
12325 SI 12325 SI SI1 12325 1.100000 28.08600
12326 SI 12326 SI SI1 12326 1.100000 28.08600
12327 SI 12327 SI SI1 12327 1.100000 28.08600
12328 SI 12328 SI SI1 12328 1.100000 28.08600
12329 SI 12329 SI SI1 12329 1.100000 28.08600
12330 SI 12330 SI SI1 12330 1.100000 28.08600
12331 SI 12331 SI SI1 12331 1.100000 28.08600
12332 SI 12332 SI SI1 12332 1.100000 28.08600
12333 SI 12333 SI SI1 12333 1.100000 28.08600
12334 SI 12334 SI SI1 12334 1.100000 28.08600
12335 SI 12335 SI SI1 12335 1.100000 28.08600
12336 SI 12336 SI SI1 12336 1.100000 28.08600
12337 SI 12337 SI SI1 12337 1.100000 28.08600
12338 SI 12338 SI SI1 12338 1.100000 28.08600
12339 SI 12339 SI SI1 12339 1.100000 28.08600
12340 SI 12340 SI SI1 12340 1.100000 28.08600
12341 SI 12341 SI SI1 12341 1.100000 28.08600
12342 SI 12342 SI SI1 12342 1.100000 28.08600
12343 SI 12343 SI SI1 12343 1.100000 28.08600
12344 SI 12344 SI SI1 12344 1.100000 28.08600
12345 SI 12345 SI SI1 12345 1.100000 28.08600
12346 SI 12346 SI SI1 12346 1.100000 28.08600
12347 SI 12347 SI SI1 12347 1.100000 28.08600
12348 SI 12348 SI SI1 12348 1.100000 28.08600
12349 SI 12349 SI SI1 12349 1.100000 28.08600
12350 SI 12350 SI SI1 12350 1.100000 28.08600
12351 SI 12351 SI SI1 12351 1.100000 28.08600
12352 SI 12352 SI SI1 12352 1.100000 28.08600
12353 SI 12353 SI SI1 12353 1.100000 28.08600
12354 SI 12354 SI SI1 12354 1.100000 28.08600
12355 SI 12355 SI SI1 12355 1.100000 28.08600
12356 SI 12356 SI SI1 12356 1.100000 28.08600
12357 SI 12357 SI SI1 12357 1.100000 28.08600
12358 SI 12358 SI SI1 12358 1.100000 28.08600
12359 SI 12359 SI SI1 12359 1.100000 28.08600
12360 SI 12360 SI SI1 12360 1.100000 28.08600
12361 SI 12361 SI SI1 12361 1.100000 28.08600
12362 SI 12362 SI SI1 12362 1.100000 28.08600
12363 SI 12363 SI SI1 12363 1.100000 28.08600
12364 SI 12364 SI SI1 12364 1.100000 28.08600
12365 SI 12365 SI SI1 12365 1.100000 28.08600
12366 SI 12366 SI SI1 12366 1.100000 28.08600
12367 SI 12367 SI SI1 12367 1.100000 28.08600
12368 SI 12368 SI SI1 12368 1.100000 28.08600
12369 SI 12369 SI SI1 12369 1.100000 28.08600
12370 SI 12370 SI SI1 12370 1.100000 28.08600
12371 SI 12371 SI SI1 12371 1.100000 28.08600
12372 SI 12372 SI SI1 12372 1.100000 28.08600
12373 SI 12373 SI SI1 12373 1.100000 28.08600
12374 SI 12374 SI SI1 12374 1.100000 28.08600
12375 SI 12375 SI SI1 12375 1.100000 28.08600
12376 SI 12376 SI SI1 12376 1.100000 28.08600
12377 SI 12377 SI SI1 12377 1.100000 28.08600
12378 SI 12378 SI SI1 12378 1.100000 28.08600
12379 SI 12379 SI SI1 12379 1.100000 28.08600
12380 SI 12380 SI SI1 12380 1.100000 28.08600
12381 SI 12381 SI SI1 12381 1.100000 28.08600
12382 SI 12382 SI SI1 12382 1.100000 28.08600
12383 SI 12383 SI SI1 12383 1.100000 28.08600
12384 SI 12384 SI SI1 12384 1.100000 28.08600
12385 SI 12385 SI SI1 12385 1.100000 28.08600
12386 SI 12386 SI SI1 12386 1.100000 28.08600
12387 SI 12387 SI SI1 12387 1.100000 28.08600
12388 SI 12388 SI SI1 12388 1.100000 28.08600
12389 SI 12389 SI SI1 12389 1.100000 28.08600
12390 SI 12390 SI SI1 12390 1.100000 28.08600
12391 SI 12391 SI SI1 12391 1.100000 28.08600
12392 SI 12392 SI SI1 12392 1.100000 28.08600
12393 SI 12393 SI SI1 12393 1.100000 28.08600
12394 SI 12394 SI SI1 12394 1.100000 28.08600
12395 SI 12395 SI SI1 12395 1.100000 28.08600
12396 SI 12396 SI SI1 12396 1.100000 28.08600
12397 SI 12397 SI SI1 12397 1.100000 28.08600
12398 SI 12398 SI SI1 12398 1.100000 28.08600
12399 SI 12399 SI SI1 12399 1.100000 28.08600
12400 SI 12400 SI SI1 12400 1.100000 28.08600
12401 SI 12401 SI SI1 12401 1.100000 28.08600
12402 SI 12402 SI SI1 12402 1.100000 28.08600
12403 SI 12403 SI SI1 12403 1.100000 28.08600
12404 SI 12404 SI SI1 12404 1.100000 28.08600
12405 SI 12405 SI SI1 12405 1.100000 28.08600
12406 SI 12406 SI SI1 12406 1.100000 28.08600
12407 SI 12407 SI SI1 12407 1.100000 28.08600
12408 SI 12408 SI SI1 12408 1.100000 28.08600
12409 SI 12409 SI SI1 12409 1.100000 28.08600
12410 SI 12410 SI SI1 12410 1.100000 28.08600
12411 SI 12411 SI SI1 12411 1.100000 28.08600
12412 SI 12412 SI SI1 12412 1.100000 28.08600
12413 SI 12413 SI SI1 12413 1.100000 28.08600
12414 SI 12414 SI SI1 12414 1.100000 28.08600
12415 SI 12415 SI SI1 12415 1.100000 28.08600
12416 SI 12416 SI SI1 12416 1.100000 28.08600
12417 SI 12417 SI SI1 12417 1.100000 28.08600
12418 SI 12418 SI SI1 12418 1.100000 28.08600
12419 SI 12419 SI SI1 12419 1.100000 28.08600
12420 SI 12420 SI SI1 12420 1.100000 28.08600
12421 SI 12421 SI SI1 12421 1.100000 28.08600
12422 SI 12422 SI SI1 12422 1.100000 28.08600
12423 SI 12423 SI SI1 12423 1.100000 28.08600
12424 SI 12424 SI SI1 12424 1.100000 28.08600
12425 SI 12425 SI SI1 12425 1.100000 28.08600
12426 SI 12426 SI SI1 12426 1.100000 28.08600
12427 SI 12427 SI SI1 12427 1.100000 28.08600
12428 SI 12428 SI SI1 12428 1.100000 28.08600
12429 SI 12429 SI SI1 12429 1.100000 28.08600
12430 SI 12430 SI SI1 12430 1.100000 28.08600
12431 SI 12431 SI SI1 12431 1.100000 28.08600
12432 SI 12432 SI SI1 12432 1.100000 28.08600
12433 SI 12433 SI SI1 12433 1.100000 28.08600
12434 SI 12434 SI SI1 12434 1.100000 28.08600
12435 SI 12435 SI SI1 12435 1.100000 28.08600
12436 SI 12436 SI SI1 12436 1.100000 28.08600
12437 SI 12437 SI SI1 12437 1.100000 28.08600
12438 SI 12438 SI SI1 12438 1.100000 28.08600
12439 SI 12439 SI SI1 12439 1.100000 28.08600
12440 SI 12440 SI SI1 12440 1.100000 28.08600
12441 SI 12441 SI SI1 12441 1.100000 28.08600
12442 SI 12442 SI SI1 12442 1.100000 28.08600
12443 SI 12443 SI SI1 12443 1.100000 28.08600
12444 SI 12444 SI SI1 12444 1.100000 28.08600
12445 SI 12445 SI SI1 12445 1.100000 28.08600
12446 SI 12446 SI SI1 12446 1.100000 28.08600
12447 SI 12447 SI SI1 12447 1.100000 28.08600
12448 SI 12448 SI SI1 12448 1.100000 28.08600
12449 SI 12449 SI SI1 12449 1.100000 28.08600
12450 SI 12450 SI SI1 12450 1.100000 28.08600
12451 SI 12451 SI SI1 12451 1.100000 28.08600
12452 SI 12452 SI SI1 12452 1.100000 28.08600
12453 SI 12453 SI SI1 12453 1.100000 28.08600
12454 SI 12454 SI SI1 12454 1.100000 28.08600
12455 SI 12455 SI SI1 12455 1.100000 28.08600
12456 SI 12456 SI SI1 12456 1.100000 28.08600
12457 SI 12457 SI SI1 12457 1.100000 28.08600
12458 SI 12458 SI SI1 12458 1.100000 28.08600
12459 SI 12459 SI SI1 12459 1.100000 28.08600
12460 SI 12460 SI SI1 12460 1.100000 28.08600
12461 SI 12461 SI SI1 12461 1.100000 28.08600
12462 SI 12462 SI SI1 12462 1.100000 28.08600
12463 SI 12463 SI SI1 12463 1.100000 28.08600
12464 SI 12464 SI SI1 12464 1.100000 28.08600
12465 SI 12465 SI SI1 12465 1.100000 28.08600
12466 SI 12466 SI SI1 12466 1.100000 28.08600
12467 SI 12467 SI SI1 12467 1.100000 28.08600
12468 SI 12468 SI SI1 12468 1.100000 28.08600
12469 SI 12469 SI SI1 12469 1.100000 28.08600
12470 SI 12470 SI SI1 12470 1.100000 28.08600
12471 SI 12471 SI SI1 12471 1.100000 28.08600
12472 SI 12472 SI SI1 12472 1.100000 28.08600
12473 SI 12473 SI SI1 12473 1.100000 28.08600
12474 SI 12474 SI SI1 12474 1.100000 28.08600
12475 SI 12475 SI SI1 12475 1.100000 28.08600
12476 SI 12476 SI SI1 12476 1.100000 28.08600
12477 SI 12477 SI SI1 12477 1.100000 28.08600
12478 SI 12478 SI SI1 12478 1.100000 28.08600
12479 SI 12479 SI SI1 12479 1.100000 28.08600
12480 SI 12480 SI SI1 12480 1.100000 28.08600
12481 SI 12481 SI SI1 12481 1.100000 28.08600
12482 SI 12482 SI SI1 12482 1.100000 28.08600
12483 SI 12483 SI SI1 12483 1.100000 28.08600
12484 SI 12484 SI SI1 12484 1.100000 28.08600
12485 SI 12485 SI SI1 12485 1.100000 28.08600
12486 SI 12486 SI SI1 12486 1.100000 28.08600
12487 SI 12487 SI SI1 12487 1.100000 28.08600
12488 SI 12488 SI SI1 12488 1.100000 28.08600
12489 SI 12489 SI SI1 12489 1.100000 28.08600
12490 SI 12490 SI SI1 12490 1.100000 28.08600
12491 SI 12491 SI SI1 12491 1.100000 28.08600
12492 SI 12492 SI SI1 12492 1.100000 28.08600
12493 SI 12493 SI SI1 12493 1.100000 28.08600
12494 SI 12494 SI SI1 12494 1.100000 28.08600
12495 SI 12495 SI SI1 12495 1.100000 28.08600
12496 SI 12496 SI SI1 12496 1.100000 28.08600
12497 SI 12497 SI SI1 12497 1.100000 28.08600
12498 SI 12498 SI SI1 12498 1.100000 28.08600
12499 SI 12499 SI SI1 12499 1.100000 28.08600
12500 SI 12500 SI SI1 12500 1.100000 28.08600
12501 SI 12501 SI SI1 12501 1.100000 28.08600
12502 SI 12502 SI SI1 12502 1.100000 28.08600
12503 SI 12503 SI SI1 12503 1.100000 28.08600
12504 SI 12504 SI SI1 12504 1.100000 28.08600
12505 SI 12505 SI SI1 12505 1.100000 28.08600
12506 SI 12506 SI SI1 12506 1.100000 28.08600
12507 SI 12507 SI SI1 12507 1.100000 28.08600
12508 SI 12508 SI SI1 12508 1.100000 28.08600
12509 SI 12509 SI SI1 12509 1.100000 28.08600
12510 SI 12510 SI SI1 12510 1.100000 28.08600
12511 SI 12511 SI SI1 12511 1.100000 28.08600
12512 SI 12512 SI SI1 12512 1.100000 28.08600
12513 SI 12513 SI SI1 12513 1.100000 28.08600
12514 SI 12514 SI SI1 12514 1.100000 28.08600
12515 SI 12515 SI SI1 12515 1.100000 28.08600
12516 SI 12516 SI SI1 12516 1.100000 28.08600
12517 SI 12517 SI SI1 12517 1.100000 28.08600
12518 SI 12518 SI SI1 12518 1.100000 28.08600
12519 SI 12519 SI SI1 12519 1.100000 28.08600
12520 SI 12520 SI SI1 12520 1.100000 28.08600
12521 SI 12521 SI SI1 12521 1.100000 28.08600
12522 SI 12522 SI SI1 12522 1.100000 28.08600
12523 SI 12523 SI SI1 12523 1.100000 28.08600
12524 SI 12524 SI SI1 12524 1.100000 28.08600
12525 SI 12525 SI SI1 12525 1.100000 28.08600
12526 SI 12526 SI SI1 12526 1.100000 28.08600
12527 SI 12527 SI SI1 12527 1.100000 28.08600
12528 SI 12528 SI SI1 12528 1.100000 28.08600
12529 SI 12529 SI SI1 12529 1.100000 28.08600
12530 SI 12530 SI SI1 12530 1.100000 28.08600
12531 SI 12531 SI SI1 12531 1.100000 28.08600
12532 SI 12532 SI SI1 12532 1.100000 28.08600
12533 SI 12533 SI SI1 12533 1.100000 28.08600
12534 SI 12534 SI SI1 12534 1.100000 28.08600
12535 SI 12535 SI SI1 12535 1.100000 28.08600
12536 SI 12536 SI SI1 12536 1.100000 28.08600
12537 SI 12537 SI SI1 12537 1.100000 28.08600
12538 SI 12538 SI SI1 12538 1.100000 28.08600
12539 SI 12539 SI SI1 12539 1.100000 28.08600
12540 SI 12540 SI SI1 12540 1.100000 28.08600
12541 SI 12541 SI SI1 12541 1.100000 28.08600
12542 SI 12542 SI SI1 12542 1.100000 28.08600
12543 SI 12543 SI SI1 12543 1.100000 28.08600
12544 SI 12544 SI SI1 12544 1.100000 28.08600
12545 SI 12545 SI SI1 12545 1.100000 28.08600
12546 SI 12546 SI SI1 12546 1.100000 28.08600
12547 SI 12547 SI SI1 12547 1.100000 28.08600
12548 SI 12548 SI SI1 12548 1.100000 28.08600
12549 SI 12549 SI SI1 12549 1.100000 28.08600
12550 SI 12550 SI SI1 12550 1.100000 28.08600
12551 SI 12551 SI SI1 12551 1.100000 28.08600
12552 SI 12552 SI SI1 12552 1.100000 28.08600
12553 SI 12553 SI SI1 12553 1.100000 28.08600
12554 SI 12554 SI SI1 12554 1.100000 28.08600
12555 SI 12555 SI SI1 12555 1.100000 28.08600
12556 SI 12556 SI SI1 12556 1.100000 28.08600
12557 SI 12557 SI SI1 12557 1.100000 28.08600
12558 SI 12558 SI SI1 12558 1.100000 28.08600
12559 SI 12559 SI SI1 12559 1.100000 28.08600
12560 SI 12560 SI SI1 12560 1.100000 28.08600
12561 SI 12561 SI SI1 12561 1.100000 28.08600
12562 SI 12562 SI SI1 12562 1.100000 28.08600
12563 SI 12563 SI SI1 12563 1.100000 28.08600
12564 SI 12564 SI SI1 12564 1.100000 28.08600
12565 SI 12565 SI SI1 12565 1.100000 28.08600
12566 SI 12566 SI SI1 12566 1.100000 28.08600
12567 SI 12567 SI SI1 12567 1.100000 28.08600
12568 SI 12568 SI SI1 12568 1.100000 28.08600
12569 SI 12569 SI SI1 12569 1.100000 28.08600
12570 SI 12570 SI SI1 12570 1.100000 28.08600
12571 SI 12571 SI SI1 12571 1.100000 28.08600
12572 SI 12572 SI SI1 12572 1.100000 28.08600
12573 SI 12573 SI SI1 12573 1.100000 28.08600
12574 SI 12574 SI SI1 12574 1.100000 28.08600
12575 SI 12575 SI SI1 12575 1.100000 28.08600
12576 SI 12576 SI SI1 12576 1.100000 28.08600
12577 SI 12577 SI SI1 12577 1.100000 28.08600
12578 SI 12578 SI SI1 12578 1.100000 28.08600
12579 SI 12579 SI SI1 12579 1.100000 28.08600
12580 SI 12580 SI SI1 12580 1.100000 28.08600
12581 SI 12581 SI SI1 12581 1.100000 28.08600
12582 SI 12582 SI SI1 12582 1.100000 28.08600
12583 SI 12583 SI SI1 12583 1.100000 28.08600
12584 SI 12584 SI SI1 12584 1.100000 28.08600
12585 SI 12585 SI SI1 12585 1.100000 28.08600
12586 SI 12586 SI SI1 12586 1.100000 28.08600
12587 SI 12587 SI SI1 12587 1.100000 28.08600
12588 SI 12588 SI SI1 12588 1.100000 28.08600
12589 SI 12589 SI SI1 12589 1.100000 28.08600
12590 SI 12590 SI SI1 12590 1.100000 28.08600
12591 SI 12591 SI SI1 12591 1.100000 28.08600
12592 SI 12592 SI SI1 12592 1.100000 28.08600
12593 SI 12593 SI SI1 12593 1.100000 28.08600
12594 SI 12594 SI SI1 12594 1.100000 28.08600
12595 SI 12595 SI SI1 12595 1.100000 28.08600
12596 SI 12596 SI SI1 12596 1.100000 28.08600
12597 SI 12597 SI SI1 12597 1.100000 28.08600
12598 SI 12598 SI SI1 12598 1.100000 28.08600
12599 SI 12599 SI SI1 12599 1.100000 28.08600
12600 SI 12600 SI SI1 12600 1.100000 28.08600
12601 SI 12601 SI SI1 12601 1.100000 28.08600
12602 SI 12602 SI SI1 12602 1.100000 28.08600
12603 SI 12603 SI SI1 12603 1.100000 28.08600
12604 SI 12604 SI SI1 12604 1.100000 28.08600
12605 SI 12605 SI SI1 12605 1.100000 28.08600
12606 SI 12606 SI SI1 12606 1.100000 28.08600
12607 SI 12607 SI SI1 12607 1.100000 28.08600
12608 SI 12608 SI SI1 12608 1.100000 28.08600
12609 SI 12609 SI SI1 12609 1.100000 28.08600
12610 SI 12610 SI SI1 12610 1.100000 28.08600
12611 SI 12611 SI SI1 12611 1.100000 28.08600
12612 SI 12612 SI SI1 12612 1.100000 28.08600
12613 SI 12613 SI SI1 12613 1.100000 28.08600
12614 SI 12614 SI SI1 12614 1.100000 28.08600
12615 SI 12615 SI SI1 12615 1.100000 28.08600
12616 SI 12616 SI SI1 12616 1.100000 28.08600
12617 SI 12617 SI SI1 12617 1.100000 28.08600
12618 SI 12618 SI SI1 12618 1.100000 28.08600
12619 SI 12619 SI SI1 12619 1.100000 28.08600
12620 SI 12620 SI SI1 12620 1.100000 28.08600
12621 SI 12621 SI SI1 12621 1.100000 28.08600
12622 SI 12622 SI SI1 12622 1.100000 28.08600
12623 SI 12623 SI SI1 12623 1.100000 28.08600
12624 SI 12624 SI SI1 12624 1.100000 28.08600
12625 SI 12625 SI SI1 12625 1.100000 28.08600
12626 SI 12626 SI SI1 12626 1.100000 28.08600
12627 SI 12627 SI SI1 12627 1.100000 28.08600
12628 SI 12628 SI SI1 12628 1.100000 28.08600
12629 SI 12629 SI SI1 12629 1.100000 28.08600
12630 SI 12630 SI SI1 12630 1.100000 28.08600
12631 SI 12631 SI SI1 12631 1.100000 28.08600
12632 SI 12632 SI SI1 12632 1.100000 28.08600
12633 SI 12633 SI SI1 12633 1.100000 28.08600
12634 SI 12634 SI SI1 12634 1.100000 28.08600
12635 SI 12635 SI SI1 12635 1.100000 28.08600
12636 SI 12636 SI SI1 12636 1.100000 28.08600
12637 SI 12637 SI SI1 12637 1.100000 28.08600
12638 SI 12638 SI SI1 12638 1.100000 28.08600
12639 SI 12639 SI SI1 12639 1.100000 28.08600
12640 SI 12640 SI SI1 12640 1.100000 28.08600
12641 SI 12641 SI SI1 12641 1.100000 28.08600
12642 SI 12642 SI SI1 12642 1.100000 28.08600
12643 SI 12643 SI SI1 12643 1.100000 28.08600
12644 SI 12644 SI SI1 12644 1.100000 28.08600
12645 SI 12645 SI SI1 12645 1.100000 28.08600
12646 SI 12646 SI SI1 12646 1.100000 28.08600
12647 SI 12647 SI SI1 12647 1.100000 28.08600
12648 SI 12648 SI SI1 12648 1.100000 28.08600
12649 SI 12649 SI SI1 12649 1.100000 28.08600
12650 SI 12650 SI SI1 12650 1.100000 28.08600
12651 SI 12651 SI SI1 12651 1.100000 28.08600
12652 SI 12652 SI SI1 12652 1.100000 28.08600
12653 SI 12653 SI SI1 12653 1.100000 28.08600
12654 SI 12654 SI SI1 12654 1.100000 28.08600
12655 SI 12655 SI SI1 12655 1.100000 28.08600
12656 SI 12656 SI SI1 12656 1.100000 28.08600
12657 SI 12657 SI SI1 12657 1.100000 28.08600
12658 SI 12658 SI SI1 12658 1.100000 28.08600
12659 SI 12659 SI SI1 12659 1.100000 28.08600
12660 SI 12660 SI SI1 12660 1.100000 28.08600
12661 SI 12661 SI SI1 12661 1.100000 28.08600
12662 SI 12662 SI SI1 12662 1.100000 28.08600
12663 SI 12663 SI SI1 12663 1.100000 28.08600
12664 SI 12664 SI SI1 12664 1.100000 28.08600
12665 SI 12665 SI SI1 12665 1.100000 28.08600
12666 SI 12666 SI SI1 12666 1.100000 28.08600
12667 SI 12667 SI SI1 12667 1.100000 28.08600
12668 SI 12668 SI SI1 12668 1.100000 28.08600
12669 SI 12669 SI SI1 12669 1.100000 28.08600
12670 SI 12670 SI SI1 12670 1.100000 28.08600
12671 SI 12671 SI SI1 12671 1.100000 28.08600
12672 SI 12672 SI SI1 12672 1.100000 28.08600
12673 SI 12673 SI SI1 12673 1.100000 28.08600
12674 SI 12674 SI SI1 12674 1.100000 28.08600
12675 SI 12675 SI SI1 12675 1.100000 28.08600
12676 SI 12676 SI SI1 12676 1.100000 28.08600
12677 SI 12677 SI SI1 12677 1.100000 28.08600
12678 SI 12678 SI SI1 12678 1.100000 28.08600
12679 SI 12679 SI SI1 12679 1.100000 28.08600
12680 SI 12680 SI SI1 12680 1.100000 28.08600
12681 SI 12681 SI SI1 12681 1.100000 28.08600
12682 SI 12682 SI SI1 12682 1.100000 28.08600
12683 SI 12683 SI SI1 12683 1.100000 28.08600
12684 SI 12684 SI SI1 12684 1.100000 28.08600
12685 SI 12685 SI SI1 12685 1.100000 28.08600
12686 SI 12686 SI SI1 12686 1.100000 28.08600
12687 SI 12687 SI SI1 12687 1.100000 28.08600
12688 SI 12688 SI SI1 12688 1.100000 28.08600
12689 SI 12689 SI SI1 12689 1.100000 28.08600
12690 SI 12690 SI SI1 12690 1.100000 28.08600
12691 SI 12691 SI SI1 12691 1.100000 28.08600
12692 SI 12692 SI SI1 12692 1.100000 28.08600
12693 SI 12693 SI SI1 12693 1.100000 28.08600
12694 SI 12694 SI SI1 12694 1.100000 28.08600
12695 SI 12695 SI SI1 12695 1.100000 28.08600
12696 SI 12696 SI SI1 12696 1.100000 28.08600
12697 SI 12697 SI SI1 12697 1.100000 28.08600
12698 SI 12698 SI SI1 12698 1.100000 28.08600
12699 SI 12699 SI SI1 12699 1.100000 28.08600
12700 SI 12700 SI SI1 12700 1.100000 28.08600
12701 SI 12701 SI SI1 12701 1.100000 28.08600
12702 SI 12702 SI SI1 12702 1.100000 28.08600
12703 SI 12703 SI SI1 12703 1.100000 28.08600
12704 SI 12704 SI SI1 12704 1.100000 28.08600
12705 SI 12705 SI SI1 12705 1.100000 28.08600
12706 SI 12706 SI SI1 12706 1.100000 28.08600
12707 SI 12707 SI SI1 12707 1.100000 28.08600
12708 SI 12708 SI SI1 12708 1.100000 28.08600
12709 SI 12709 SI SI1 12709 1.100000 28.08600
12710 SI 12710 SI SI1 12710 1.100000 28.08600
12711 SI 12711 SI SI1 12711 1.100000 28.08600
12712 SI 12712 SI SI1 12712 1.100000 28.08600
12713 SI 12713 SI SI1 12713 1.100000 28.08600
12714 SI 12714 SI SI1 12714 1.100000 28.08600
12715 SI 12715 SI SI1 12715 1.100000 28.08600
12716 SI 12716 SI SI1 12716 1.100000 28.08600
12717 SI 12717 SI SI1 12717 1.100000 28.08600
12718 SI 12718 SI SI1 12718 1.100000 28.08600
12719 SI 12719 SI SI1 12719 1.100000 28.08600
12720 SI 12720 SI SI1 12720 1.100000 28.08600
12721 SI 12721 SI SI1 12721 1.100000 28.08600
12722 SI 12722 SI SI1 12722 1.100000 28.08600
12723 SI 12723 SI SI1 12723 1.100000 28.08600
12724 SI 12724 SI SI1 12724 1.100000 28.08600
12725 SI 12725 SI SI1 12725 1.100000 28.08600
12726 SI 12726 SI SI1 12726 1.100000 28.08600
12727 SI 12727 SI SI1 12727 1.100000 28.08600
12728 SI 12728 SI SI1 12728 1.100000 28.08600
12729 SI 12729 SI SI1 12729 1.100000 28.08600
12730 SI 12730 SI SI1 12730 1.100000 28.08600
12731 SI 12731 SI SI1 12731 1.100000 28.08600
12732 SI 12732 SI SI1 12732 1.100000 28.08600
12733 SI 12733 SI SI1 12733 1.100000 28.08600
12734 SI 12734 SI SI1 12734 1.100000 28.08600
12735 SI 12735 SI SI1 12735 1.100000 28.08600
12736 SI 12736 SI SI1 12736 1.100000 28.08600
12737 SI 12737 SI SI1 12737 1.100000 28.08600
12738 SI 12738 SI SI1 12738 1.100000 28.08600
12739 SI 12739 SI SI1 12739 1.100000 28.08600
12740 SI 12740 SI SI1 12740 1.100000 28.08600
12741 SI 12741 SI SI1 12741 1.100000 28.08600
12742 SI 12742 SI SI1 12742 1.100000 28.08600
12743 SI 12743 SI SI1 12743 1.100000 28.08600
12744 SI 12744 SI SI1 12744 1.100000 28.08600
12745 SI 12745 SI SI1 12745 1.100000 28.08600
12746 SI 12746 SI SI1 12746 1.100000 28.08600
12747 SI 12747 SI SI1 12747 1.100000 28.08600
12748 SI 12748 SI SI1 12748 1.100000 28.08600
12749 SI 12749 SI SI1 12749 1.100000 28.08600
12750 SI 12750 SI SI1 12750 1.100000 28.08600
12751 SI 12751 SI SI1 12751 1.100000 28.08600
12752 SI 12752 SI SI1 12752 1.100000 28.08600
12753 SI 12753 SI SI1 12753 1.100000 28.08600
12754 SI 12754 SI SI1 12754 1.100000 28.08600
12755 SI 12755 SI SI1 12755 1.100000 28.08600
12756 SI 12756 SI SI1 12756 1.100000 28.08600
12757 SI 12757 SI SI1 12757 1.100000 28.08600
12758 SI 12758 SI SI1 12758 1.100000 28.08600
12759 SI 12759 SI SI1 12759 1.100000 28.08600
12760 SI 12760 SI SI1 12760 1.100000 28.08600
12761 SI 12761 SI SI1 12761 1.100000 28.08600
12762 SI 12762 SI SI1 12762 1.100000 28.08600
12763 SI 12763 SI SI1 12763 1.100000 28.08600
12764 SI 12764 SI SI1 12764 1.100000 28.08600
12765 SI 12765 SI SI1 12765 1.100000 28.08600
12766 SI 12766 SI SI1 12766 1.100000 28.08600
12767 SI 12767 SI SI1 12767 1.100000 28.08600
12768 SI 12768 SI SI1 12768 1.100000 28.08600
12769 SI 12769 SI SI1 12769 1.100000 28.08600
12770 SI 12770 SI SI1 12770 1.100000 28.08600
12771 SI 12771 SI SI1 12771 1.100000 28.08600
12772 SI 12772 SI SI1 12772 1.100000 28.08600
12773 SI 12773 SI SI1 12773 1.100000 28.08600
12774 SI 12774 SI SI1 12774 1.100000 28.08600
12775 SI 12775 SI SI1 12775 1.100000 28.08600
12776 SI 12776 SI SI1 12776 1.100000 28.08600
12777 SI 12777 SI SI1 12777 1.100000 28.08600
12778 SI 12778 SI SI1 12778 1.100000 28.08600
12779 SI 12779 SI SI1 12779 1.100000 28.08600
12780 SI 12780 SI SI1 12780 1.100000 28.08600
12781 SI 12781 SI SI1 12781 1.100000 28.08600
12782 SI 12782 SI SI1 12782 1.100000 28.08600
12783 SI 12783 SI SI1 12783 1.100000 28.08600
12784 SI 12784 SI SI1 12784 1.100000 28.08600
12785 SI 12785 SI SI1 12785 1.100000 28.08600
12786 SI 12786 SI SI1 12786 1.100000 28.08600
12787 SI 12787 SI SI1 12787 1.100000 28.08600
12788 SI 12788 SI SI1 12788 1.100000 28.08600
12789 SI 12789 SI SI1 12789 1.100000 28.08600
12790 SI 12790 SI SI1 12790 1.100000 28.08600
12791 SI 12791 SI SI1 12791 1.100000 28.08600
12792 SI 12792 SI SI1 12792 1.100000 28.08600
12793 SI 12793 SI SI1 12793 1.100000 28.08600
12794 SI 12794 SI SI1 12794 1.100000 28.08600
12795 SI 12795 SI SI1 12795 1.100000 28.08600
12796 SI 12796 SI SI1 12796 1.100000 28.08600
12797 SI 12797 SI SI1 12797 1.100000 28.08600
12798 SI 12798 SI SI1 12798 1.100000 28.08600
12799 SI 12799 SI SI1 12799 1.100000 28.08600
12800 SI 12800 SI SI1 12800 1.100000 28.08600
12801 SI 12801 SI SI1 12801 1.100000 28.08600
12802 SI 12802 SI SI1 12802 1.100000 28.08600
12803 SI 12803 SI SI1 12803 1.100000 28.08600
12804 SI 12804 SI SI1 12804 1.100000 28.08600
12805 SI 12805 SI SI1 12805 1.100000 28.08600
12806 SI 12806 SI SI1 12806 1.100000 28.08600
12807 SI 12807 SI SI1 12807 1.100000 28.08600
12808 SI 12808 SI SI1 12808 1.100000 28.08600
12809 SI 12809 SI SI1 12809 1.100000 28.08600
12810 SI 12810 SI SI1 12810 1.100000 28.08600
12811 SI 12811 SI SI1 12811 1.100000 28.08600
12812 SI 12812 SI SI1 12812 1.100000 28.08600
12813 SI 12813 SI SI1 12813 1.100000 28.08600
12814 SI 12814 SI SI1 12814 1.100000 28.08600
12815 SI 12815 SI SI1 12815 1.100000 28.08600
12816 SI 12816 SI SI1 12816 1.100000 28.08600
12817 SI 12817 SI SI1 12817 1.100000 28.08600
12818 SI 12818 SI SI1 12818 1.100000 28.08600
12819 SI 12819 SI SI1 12819 1.100000 28.08600
12820 SI 12820 SI SI1 12820 1.100000 28.08600
12821 SI 12821 SI SI1 12821 1.100000 28.08600
12822 SI 12822 SI SI1 12822 1.100000 28.08600
12823 SI 12823 SI SI1 12823 1.100000 28.08600
12824 SI 12824 SI SI1 12824 1.100000 28.08600
12825 SI 12825 SI SI1 12825 1.100000 28.08600
12826 SI 12826 SI SI1 12826 1.100000 28.08600
12827 SI 12827 SI SI1 12827 1.100000 28.08600
12828 SI 12828 SI SI1 12828 1.100000 28.08600
12829 SI 12829 SI SI1 12829 1.100000 28.08600
12830 SI 12830 SI SI1 12830 1.100000 28.08600
12831 SI 12831 SI SI1 12831 1.100000 28.08600
12832 SI 12832 SI SI1 12832 1.100000 28.08600
12833 SI 12833 SI SI1 12833 1.100000 28.08600
12834 SI 12834 SI SI1 12834 1.100000 28.08600
12835 SI 12835 SI SI1 12835 1.100000 28.08600
12836 SI 12836 SI SI1 12836 1.100000 28.08600
12837 SI 12837 SI SI1 12837 1.100000 28.08600
12838 SI 12838 SI SI1 12838 1.100000 28.08600
12839 SI 12839 SI SI1 12839 1.100000 28.08600
12840 SI 12840 SI SI1 12840 1.100000 28.08600
12841 SI 12841 SI SI1 12841 1.100000 28.08600
12842 SI 12842 SI SI1 12842 1.100000 28.08600
12843 SI 12843 SI SI1 12843 1.100000 28.08600
12844 SI 12844 SI SI1 12844 1.100000 28.08600
12845 SI 12845 SI SI1 12845 1.100000 28.08600
12846 SI 12846 SI SI1 12846 1.100000 28.08600
12847 SI 12847 SI SI1 12847 1.100000 28.08600
12848 SI 12848 SI SI1 12848 1.100000 28.08600
12849 SI 12849 SI SI1 12849 1.100000 28.08600
12850 SI 12850 SI SI1 12850 1.100000 28.08600
12851 SI 12851 SI SI1 12851 1.100000 28.08600
12852 SI 12852 SI SI1 12852 1.100000 28.08600
12853 SI 12853 SI SI1 12853 1.100000 28.08600
12854 SI 12854 SI SI1 12854 1.100000 28.08600
12855 SI 12855 SI SI1 12855 1.100000 28.08600
12856 SI 12856 SI SI1 12856 1.100000 28.08600
12857 SI 12857 SI SI1 12857 1.100000 28.08600
12858 SI 12858 SI SI1 12858 1.100000 28.08600
12859 SI 12859 SI SI1 12859 1.100000 28.08600
12860 SI 12860 SI SI1 12860 1.100000 28.08600
12861 SI 12861 SI SI1 12861 1.100000 28.08600
12862 SI 12862 SI SI1 12862 1.100000 28.08600
12863 SI 12863 SI SI1 12863 1.100000 28.08600
12864 SI 12864 SI SI1 12864 1.100000 28.08600
12865 SI 12865 SI SI1 12865 1.100000 28.08600
12866 SI 12866 SI SI1 12866 1.100000 28.08600
12867 SI 12867 SI SI1 12867 1.100000 28.08600
12868 SI 12868 SI SI1 12868 1.100000 28.08600
12869 SI 12869 SI SI1 12869 1.100000 28.08600
12870 SI 12870 SI SI1 12870 1.100000 28.08600
12871 SI 12871 SI SI1 12871 1.100000 28.08600
12872 SI 12872 SI SI1 12872 1.100000 28.08600
12873 SI 12873 SI SI1 12873 1.100000 28.08600
12874 SI 12874 SI SI1 12874 1.100000 28.08600
12875 SI 12875 SI SI1 12875 1.100000 28.08600
12876 SI 12876 SI SI1 12876 1.100000 28.08600
12877 SI 12877 SI SI1 12877 1.100000 28.08600
12878 SI 12878 SI SI1 12878 1.100000 28.08600
12879 SI 12879 SI SI1 12879 1.100000 28.08600
12880 SI 12880 SI SI1 12880 1.100000 28.08600
12881 SI 12881 SI SI1 12881 1.100000 28.08600
12882 SI 12882 SI SI1 12882 1.100000 28.08600
12883 SI 12883 SI SI1 12883 1.100000 28.08600
12884 SI 12884 SI SI1 12884 1.100000 28.08600
12885 SI 12885 SI SI1 12885 1.100000 28.08600
12886 SI 12886 SI SI1 12886 1.100000 28.08600
12887 SI 12887 SI SI1 12887 1.100000 28.08600
12888 SI 12888 SI SI1 12888 1.100000 28.08600
12889 SI 12889 SI SI1 12889 1.100000 28.08600
12890 SI 12890 SI SI1 12890 1.100000 28.08600
12891 SI 12891 SI SI1 12891 1.100000 28.08600
12892 SI 12892 SI SI1 12892 1.100000 28.08600
12893 SI 12893 SI SI1 12893 1.100000 28.08600
12894 SI 12894 SI SI1 12894 1.100000 28.08600
12895 SI 12895 SI SI1 12895 1.100000 28.08600
12896 SI 12896 SI SI1 12896 1.100000 28.08600
12897 SI 12897 SI SI1 12897 1.100000 28.08600
12898 SI 12898 SI SI1 12898 1.100000 28.08600
12899 SI 12899 SI SI1 12899 1.100000 28.08600
12900 SI 12900 SI SI1 12900 1.100000 28.08600
12901 SI 12901 SI SI1 12901 1.100000 28.08600
12902 SI 12902 SI SI1 12902 1.100000 28.08600
12903 SI 12903 SI SI1 12903 1.100000 28.08600
12904 SI 12904 SI SI1 12904 1.100000 28.08600
12905 SI 12905 SI SI1 12905 1.100000 28.08600
12906 SI 12906 SI SI1 12906 1.100000 28.08600
12907 SI 12907 SI SI1 12907 1.100000 28.08600
12908 SI 12908 SI SI1 12908 1.100000 28.08600
12909 SI 12909 SI SI1 12909 1.100000 28.08600
12910 SI 12910 SI SI1 12910 1.100000 28.08600
12911 SI 12911 SI SI1 12911 1.100000 28.08600
12912 SI 12912 SI SI1 12912 1.100000 28.08600
12913 SI 12913 SI SI1 12913 1.100000 28.08600
12914 SI 12914 SI SI1 12914 1.100000 28.08600
12915 SI 12915 SI SI1 12915 1.100000 28.08600
12916 SI 12916 SI SI1 12916 1.100000 28.08600
12917 SI 12917 SI SI1 12917 1.100000 28.08600
12918 SI 12918 SI SI1 12918 1.100000 28.08600
12919 SI 12919 SI SI1 12919 1.100000 28.08600
12920 SI 12920 SI SI1 12920 1.100000 28.08600
12921 SI 12921 SI SI1 12921 1.100000 28.08600
12922 SI 12922 SI SI1 12922 1.100000 28.08600
12923 SI 12923 SI SI1 12923 1.100000 28.08600
12924 SI 12924 SI SI1 12924 1.100000 28.08600
12925 SI 12925 SI SI1 12925 1.100000 28.08600
12926 SI 12926 SI SI1 12926 1.100000 28.08600
12927 SI 12927 SI SI1 12927 1.100000 28.08600
12928 SI 12928 SI SI1 12928 1.100000 28.08600
12929 SI 12929 SI SI1 12929 1.100000 28.08600
12930 SI 12930 SI SI1 12930 1.100000 28.08600
12931 SI 12931 SI SI1 12931 1.100000 28.08600
12932 SI 12932 SI SI1 12932 1.100000 28.08600
12933 SI 12933 SI SI1 12933 1.100000 28.08600
12934 SI 12934 SI SI1 12934 1.100000 28.08600
12935 SI 12935 SI SI1 12935 1.100000 28.08600
12936 SI 12936 SI SI1 12936 1.100000 28.08600
12937 SI 12937 SI SI1 12937 1.100000 28.08600
12938 SI 12938 SI SI1 12938 1.100000 28.08600
12939 SI 12939 SI SI1 12939 1.100000 28.08600
12940 SI 12940 SI SI1 12940 1.100000 28.08600
12941 SI 12941 SI SI1 12941 1.100000 28.08600
12942 SI 12942 SI SI1 12942 1.100000 28.08600
12943 SI 12943 SI SI1 12943 1.100000 28.08600
12944 SI 12944 SI SI1 12944 1.100000 28.08600
12945 SI 12945 SI SI1 12945 1.100000 28.08600
12946 SI 12946 SI SI1 12946 1.100000 28.08600
12947 SI 12947 SI SI1 12947 1.100000 28.08600
12948 SI 12948 SI SI1 12948 1.100000 28.08600
12949 SI 12949 SI SI1 12949 1.100000 28.08600
12950 SI 12950 SI SI1 12950 1.100000 28.08600
12951 SI 12951 SI SI1 12951 1.100000 28.08600
12952 SI 12952 SI SI1 12952 1.100000 28.08600
12953 SI 12953 SI SI1 12953 1.100000 28.08600
12954 SI 12954 SI SI1 12954 1.100000 28.08600
12955 SI 12955 SI SI1 12955 1.100000 28.08600
12956 SI 12956 SI SI1 12956 1.100000 28.08600
12957 SI 12957 SI SI1 12957 1.100000 28.08600
12958 SI 12958 SI SI1 12958 1.100000 28.08600
12959 SI 12959 SI SI1 12959 1.100000 28.08600
12960 SI 12960 SI SI1 12960 1.100000 28.08600
12961 SI 12961 SI SI1 12961 1.100000 28.08600
12962 SI 12962 SI SI1 12962 1.100000 28.08600
12963 SI 12963 SI SI1 12963 1.100000 28.08600
12964 SI 12964 SI SI1 12964 1.100000 28.08600
12965 SI 12965 SI SI1 12965 1.100000 28.08600
12966 SI 12966 SI SI1 12966 1.100000 28.08600
12967 SI 12967 SI SI1 12967 1.100000 28.08600
12968 SI 12968 SI SI1 12968 1.100000 28.08600
12969 SI 12969 SI SI1 12969 1.100000 28.08600
12970 SI 12970 SI SI1 12970 1.100000 28.08600
12971 SI 12971 SI SI1 12971 1.100000 28.08600
12972 SI 12972 SI SI1 12972 1.100000 28.08600
12973 SI 12973 SI SI1 12973 1.100000 28.08600
12974 SI 12974 SI SI1 12974 1.100000 28.08600
12975 SI 12975 SI SI1 12975 1.100000 28.08600
12976 SI 12976 SI SI1 12976 1.100000 28.08600
12977 SI 12977 SI SI1 12977 1.100000 28.08600
12978 SI 12978 SI SI1 12978 1.100000 28.08600
12979 SI 12979 SI SI1 12979 1.100000 28.08600
12980 SI 12980 SI SI1 12980 1.100000 28.08600
12981 SI 12981 SI SI1 12981 1.100000 28.08600
12982 SI 12982 SI SI1 12982 1.100000 28.08600
12983 SI 12983 SI SI1 12983 1.100000 28.08600
12984 SI 12984 SI SI1 12984 1.100000 28.08600
12985 SI 12985 SI SI1 12985 1.100000 28.08600
12986 SI 12986 SI SI1 12986 1.100000 28.08600
12987 SI 12987 SI SI1 12987 1.100000 28.08600
12988 SI 12988 SI SI1 12988 1.100000 28.08600
12989 SI 12989 SI SI1 12989 1.100000 28.08600
12990 SI 12990 SI SI1 12990 1.100000 28.08600
12991 SI 12991 SI SI1 12991 1.100000 28.08600
12992 SI 12992 SI SI1 12992 1.100000 28.08600
12993 SI 12993 SI SI1 12993 1.100000 28.08600
12994 SI 12994 SI SI1 12994 1.100000 28.08600
12995 SI 12995 SI SI1 12995 1.100000 28.08600
12996 SI 12996 SI SI1 12996 1.100000 28.08600
12997 SI 12997 SI SI1 12997 1.100000 28.08600
12998 SI 12998 SI SI1 12998 1.100000 28.08600
12999 SI 12999 SI SI1 12999 1.100000 28.08600
13000 SI 13000 SI SI1 13000 1.100000 28.08600
13001 SI 13001 SI SI1 13001 1.100000 28.08600
13002 SI 13002 SI SI1 13002 1.100000 28.08600
13003 SI 13003 SI SI1 13003 1.100000 28.08600
13004 SI 13004 SI SI1 13004 1.100000 28.08600
13005 SI 13005 SI SI1 13005 1.100000 28.08600
13006 SI 13006 SI SI1 13006 1.100000 28.08600
13007 SI 13007 SI SI1 13007 1.100000 28.08600
13008 SI 13008 SI SI1 13008 1.100000 28.08600
13009 SI 13009 SI SI1 13009 1.100000 28.08600
13010 SI 13010 SI SI1 13010 1.100000 28.08600
13011 SI 13011 SI SI1 13011 1.100000 28.08600
13012 SI 13012 SI SI1 13012 1.100000 28.08600
13013 SI 13013 SI SI1 13013 1.100000 28.08600
13014 SI 13014 SI SI1 13014 1.100000 28.08600
13015 SI 13015 SI SI1 13015 1.100000 28.08600
13016 SI 13016 SI SI1 13016 1.100000 28.08600
13017 SI 13017 SI SI1 13017 1.100000 28.08600
13018 SI 13018 SI SI1 13018 1.100000 28.08600
13019 SI 13019 SI SI1 13019 1.100000 28.08600
13020 SI 13020 SI SI1 13020 1.100000 28.08600
13021 SI 13021 SI SI1 13021 1.100000 28.08600
13022 SI 13022 SI SI1 13022 1.100000 28.08600
13023 SI 13023 SI SI1 13023 1.100000 28.08600
13024 SI 13024 SI SI1 13024 1.100000 28.08600
13025 SI 13025 SI SI1 13025 1.100000 28.08600
13026 SI 13026 SI SI1 13026 1.100000 28.08600
13027 SI 13027 SI SI1 13027 1.100000 28.08600
13028 SI 13028 SI SI1 13028 1.100000 28.08600
13029 SI 13029 SI SI1 13029 1.100000 28.08600
13030 SI 13030 SI SI1 13030 1.100000 28.08600
13031 SI 13031 SI SI1 13031 1.100000 28.08600
13032 SI 13032 SI SI1 13032 1.100000 28.08600
13033 SI 13033 SI SI1 13033 1.100000 28.08600
13034 SI 13034 SI SI1 13034 1.100000 28.08600
13035 SI 13035 SI SI1 13035 1.100000 28.08600
13036 SI 13036 SI SI1 13036 1.100000 28.08600
13037 SI 13037 SI SI1 13037 1.100000 28.08600
13038 SI 13038 SI SI1 13038 1.100000 28.08600
13039 SI 13039 SI SI1 13039 1.100000 28.08600
13040 SI 13040 SI SI1 13040 1.100000 28.08600
13041 SI 13041 SI SI1 13041 1.100000 28.08600
13042 SI 13042 SI SI1 13042 1.100000 28.08600
13043 SI 13043 SI SI1 13043 1.100000 28.08600
13044 SI 13044 SI SI1 13044 1.100000 28.08600
13045 SI 13045 SI SI1 13045 1.100000 28.08600
13046 SI 13046 SI SI1 13046 1.100000 28.08600
13047 SI 13047 SI SI1 13047 1.100000 28.08600
13048 SI 13048 SI SI1 13048 1.100000 28.08600
13049 SI 13049 SI SI1 13049 1.100000 28.08600
13050 SI 13050 SI SI1 13050 1.100000 28.08600
13051 SI 13051 SI SI1 13051 1.100000 28.08600
13052 SI 13052 SI SI1 13052 1.100000 28.08600
13053 SI 13053 SI SI1 13053 1.100000 28.08600
13054 SI 13054 SI SI1 13054 1.100000 28.08600
13055 SI 13055 SI SI1 13055 1.100000 28.08600
13056 SI 13056 SI SI1 13056 1.100000 28.08600
13057 SI 13057 SI SI1 13057 1.100000 28.08600
13058 SI 13058 SI SI1 13058 1.100000 28.08600
13059 SI 13059 SI SI1 13059 1.100000 28.08600
13060 SI 13060 SI SI1 13060 1.100000 28.08600
13061 SI 13061 SI SI1 13061 1.100000 28.08600
13062 SI 13062 SI SI1 13062 1.100000 28.08600
13063 SI 13063 SI SI1 13063 1.100000 28.08600
13064 SI 13064 SI SI1 13064 1.100000 28.08600
13065 SI 13065 SI SI1 13065 1.100000 28.08600
13066 SI 13066 SI SI1 13066 1.100000 28.08600
13067 SI 13067 SI SI1 13067 1.100000 28.08600
13068 SI 13068 SI SI1 13068 1.100000 28.08600
13069 SI 13069 SI SI1 13069 1.100000 28.08600
13070 SI 13070 SI SI1 13070 1.100000 28.08600
13071 SI 13071 SI SI1 13071 1.100000 28.08600
13072 SI 13072 SI SI1 13072 1.100000 28.08600
13073 SI 13073 SI SI1 13073 1.100000 28.08600
13074 SI 13074 SI SI1 13074 1.100000 28.08600
13075 SI 13075 SI SI1 13075 1.100000 28.08600
13076 SI 13076 SI SI1 13076 1.100000 28.08600
13077 SI 13077 SI SI1 13077 1.100000 28.08600
13078 SI 13078 SI SI1 13078 1.100000 28.08600
13079 SI 13079 SI SI1 13079 1.100000 28.08600
13080 SI 13080 SI SI1 13080 1.100000 28.08600
13081 SI 13081 SI SI1 13081 1.100000 28.08600
13082 SI 13082 SI SI1 13082 1.100000 28.08600
13083 SI 13083 SI SI1 13083 1.100000 28.08600
13084 SI 13084 SI SI1 13084 1.100000 28.08600
13085 SI 13085 SI SI1 13085 1.100000 28.08600
13086 SI 13086 SI SI1 13086 1.100000 28.08600
13087 SI 13087 SI SI1 13087 1.100000 28.08600
13088 SI 13088 SI SI1 13088 1.100000 28.08600
13089 SI 13089 SI SI1 13089 1.100000 28.08600
13090 SI 13090 SI SI1 13090 1.100000 28.08600
13091 SI 13091 SI SI1 13091 1.100000 28.08600
13092 SI 13092 SI SI1 13092 1.100000 28.08600
13093 SI 13093 SI SI1 13093 1.100000 28.08600
13094 SI 13094 SI SI1 13094 1.100000 28.08600
13095 SI 13095 SI SI1 13095 1.100000 28.08600
13096 SI 13096 SI SI1 13096 1.100000 28.08600
13097 SI 13097 SI SI1 13097 1.100000 28.08600
13098 SI 13098 SI SI1 13098 1.100000 28.08600
13099 SI 13099 SI SI1 13099 1.100000 28.08600
13100 SI 13100 SI SI1 13100 1.100000 28.08600
13101 SI 13101 SI SI1 13101 1.100000 28.08600
13102 SI 13102 SI SI1 13102 1.100000 28.08600
13103 SI 13103 SI SI1 13103 1.100000 28.08600
13104 SI 13104 SI SI1 13104 1.100000 28.08600
13105 SI 13105 SI SI1 13105 1.100000 28.08600
13106 SI 13106 SI SI1 13106 1.100000 28.08600
13107 SI 13107 SI SI1 13107 1.100000 28.08600
13108 SI 13108 SI SI1 13108 1.100000 28.08600
13109 SI 13109 SI SI1 13109 1.100000 28.08600
13110 SI 13110 SI SI1 13110 1.100000 28.08600
13111 SI 13111 SI SI1 13111 1.100000 28.08600
13112 SI 13112 SI SI1 13112 1.100000 28.08600
13113 SI 13113 SI SI1 13113 1.100000 28.08600
13114 SI 13114 SI SI1 13114 1.100000 28.08600
13115 SI 13115 SI SI1 13115 1.100000 28.08600
13116 SI 13116 SI SI1 13116 1.100000 28.08600
13117 SI 13117 SI SI1 13117 1.100000 28.08600
13118 SI 13118 SI SI1 13118 1.100000 28.08600
13119 SI 13119 SI SI1 13119 1.100000 28.08600
13120 SI 13120 SI SI1 13120 1.100000 28.08600
13121 SI 13121 SI SI1 13121 1.100000 28.08600
13122 SI 13122 SI SI1 13122 1.100000 28.08600
13123 SI 13123 SI SI1 13123 1.100000 28.08600
13124 SI 13124 SI SI1 13124 1.100000 28.08600
13125 SI 13125 SI SI1 13125 1.100000 28.08600
13126 SI 13126 SI SI1 13126 1.100000 28.08600
13127 SI 13127 SI SI1 13127 1.100000 28.08600
13128 SI 13128 SI SI1 13128 1.100000 28.08600
13129 SI 13129 SI SI1 13129 1.100000 28.08600
13130 SI 13130 SI SI1 13130 1.100000 28.08600
13131 SI 13131 SI SI1 13131 1.100000 28.08600
13132 SI 13132 SI SI1 13132 1.100000 28.08600
13133 SI 13133 SI SI1 13133 1.100000 28.08600
13134 SI 13134 SI SI1 13134 1.100000 28.08600
13135 SI 13135 SI SI1 13135 1.100000 28.08600
13136 SI 13136 SI SI1 13136 1.100000 28.08600
13137 SI 13137 SI SI1 13137 1.100000 28.08600
13138 SI 13138 SI SI1 13138 1.100000 28.08600
13139 SI 13139 SI SI1 13139 1.100000 28.08600
13140 SI 13140 SI SI1 13140 1.100000 28.08600
13141 SI 13141 SI SI1 13141 1.100000 28.08600
13142 SI 13142 SI SI1 13142 1.100000 28.08600
13143 SI 13143 SI SI1 13143 1.100000 28.08600
13144 SI 13144 SI SI1 13144 1.100000 28.08600
13145 SI 13145 SI SI1 13145 1.100000 28.08600
13146 SI 13146 SI SI1 13146 1.100000 28.08600
13147 SI 13147 SI SI1 13147 1.100000 28.08600
13148 SI 13148 SI SI1 13148 1.100000 28.08600
13149 SI 13149 SI SI1 13149 1.100000 28.08600
13150 SI 13150 SI SI1 13150 1.100000 28.08600
13151 SI 13151 SI SI1 13151 1.100000 28.08600
13152 SI 13152 SI SI1 13152 1.100000 28.08600
13153 SI 13153 SI SI1 13153 1.100000 28.08600
13154 SI 13154 SI SI1 13154 1.100000 28.08600
13155 SI 13155 SI SI1 13155 1.100000 28.08600
13156 SI 13156 SI SI1 13156 1.100000 28.08600
13157 SI 13157 SI SI1 13157 1.100000 28.08600
13158 SI 13158 SI SI1 13158 1.100000 28.08600
13159 SI 13159 SI SI1 13159 1.100000 28.08600
13160 SI 13160 SI SI1 13160 1.100000 28.08600
13161 SI 13161 SI SI1 13161 1.100000 28.08600
13162 SI 13162 SI SI1 13162 1.100000 28.08600
13163 SI 13163 SI SI1 13163 1.100000 28.08600
13164 SI 13164 SI SI1 13164 1.100000 28.08600
13165 SI 13165 SI SI1 13165 1.100000 28.08600
13166 SI 13166 SI SI1 13166 1.100000 28.08600
13167 SI 13167 SI SI1 13167 1.100000 28.08600
13168 SI 13168 SI SI1 13168 1.100000 28.08600
13169 SI 13169 SI SI1 13169 1.100000 28.08600
13170 SI 13170 SI SI1 13170 1.100000 28.08600
13171 SI 13171 SI SI1 13171 1.100000 28.08600
13172 SI 13172 SI SI1 13172 1.100000 28.08600
13173 SI 13173 SI SI1 13173 1.100000 28.08600
13174 SI 13174 SI SI1 13174 1.100000 28.08600
13175 SI 13175 SI SI1 13175 1.100000 28.08600
13176 SI 13176 SI SI1 13176 1.100000 28.08600
13177 SI 13177 SI SI1 13177 1.100000 28.08600
13178 SI 13178 SI SI1 13178 1.100000 28.08600
13179 SI 13179 SI SI1 13179 1.100000 28.08600
13180 SI 13180 SI SI1 13180 1.100000 28.08600
13181 SI 13181 SI SI1 13181 1.100000 28.08600
13182 SI 13182 SI SI1 13182 1.100000 28.08600
13183 SI 13183 SI SI1 13183 1.100000 28.08600
13184 SI 13184 SI SI1 13184 1.100000 28.08600
13185 SI 13185 SI SI1 13185 1.100000 28.08600
13186 SI 13186 SI SI1 13186 1.100000 28.08600
13187 SI 13187 SI SI1 13187 1.100000 28.08600
13188 SI 13188 SI SI1 13188 1.100000 28.08600
13189 SI 13189 SI SI1 13189 1.100000 28.08600
13190 SI 13190 SI SI1 13190 1.100000 28.08600
13191 SI 13191 SI SI1 13191 1.100000 28.08600
13192 SI 13192 SI SI1 13192 1.100000 28.08600
13193 SI 13193 SI SI1 13193 1.100000 28.08600
13194 SI 13194 SI SI1 13194 1.100000 28.08600
13195 SI 13195 SI SI1 13195 1.100000 28.08600
13196 SI 13196 SI SI1 13196 1.100000 28.08600
13197 SI 13197 SI SI1 13197 1.100000 28.08600
13198 SI 13198 SI SI1 13198 1.100000 28.08600
13199 SI 13199 SI SI1 13199 1.100000 28.08600
13200 SI 13200 SI SI1 13200 1.100000 28.08600
13201 SI 13201 SI SI1 13201 1.100000 28.08600
13202 SI 13202 SI SI1 13202 1.100000 28.08600
13203 SI 13203 SI SI1 13203 1.100000 28.08600
13204 SI 13204 SI SI1 13204 1.100000 28.08600
13205 SI 13205 SI SI1 13205 1.100000 28.08600
13206 SI 13206 SI SI1 13206 1.100000 28.08600
13207 SI 13207 SI SI1 13207 1.100000 28.08600
13208 SI 13208 SI SI1 13208 1.100000 28.08600
13209 SI 13209 SI SI1 13209 1.100000 28.08600
13210 SI 13210 SI SI1 13210 1.100000 28.08600
13211 SI 13211 SI SI1 13211 1.100000 28.08600
13212 SI 13212 SI SI1 13212 1.100000 28.08600
13213 SI 13213 SI SI1 13213 1.100000 28.08600
13214 SI 13214 SI SI1 13214 1.100000 28.08600
13215 SI 13215 SI SI1 13215 1.100000 28.08600
13216 SI 13216 SI SI1 13216 1.100000 28.08600
13217 SI 13217 SI SI1 13217 1.100000 28.08600
13218 SI 13218 SI SI1 13218 1.100000 28.08600
13219 SI 13219 SI SI1 13219 1.100000 28.08600
13220 SI 13220 SI SI1 13220 1.100000 28.08600
13221 SI 13221 SI SI1 13221 1.100000 28.08600
13222 SI 13222 SI SI1 13222 1.100000 28.08600
13223 SI 13223 SI SI1 13223 1.100000 28.08600
13224 SI 13224 SI SI1 13224 1.100000 28.08600
13225 SI 13225 SI SI1 13225 1.100000 28.08600
13226 SI 13226 SI SI1 13226 1.100000 28.08600
13227 SI 13227 SI SI1 13227 1.100000 28.08600
13228 SI 13228 SI SI1 13228 1.100000 28.08600
13229 SI 13229 SI SI1 13229 1.100000 28.08600
13230 SI 13230 SI SI1 13230 1.100000 28.08600
13231 SI 13231 SI SI1 13231 1.100000 28.08600
13232 SI 13232 SI SI1 13232 1.100000 28.08600
13233 SI 13233 SI SI1 13233 1.100000 28.08600
13234 SI 13234 SI SI1 13234 1.100000 28.08600
13235 SI 13235 SI SI1 13235 1.100000 28.08600
13236 SI 13236 SI SI1 13236 1.100000 28.08600
13237 SI 13237 SI SI1 13237 1.100000 28.08600
13238 SI 13238 SI SI1 13238 1.100000 28.08600
13239 SI 13239 SI SI1 13239 1.100000 28.08600
13240 SI 13240 SI SI1 13240 1.100000 28.08600
13241 SI 13241 SI SI1 13241 1.100000 28.08600
13242 SI 13242 SI SI1 13242 1.100000 28.08600
13243 SI 13243 SI SI1 13243 1.100000 28.08600
13244 SI 13244 SI SI1 13244 1.100000 28.08600
13245 SI 13245 SI SI1 13245 1.100000 28.08600
13246 SI 13246 SI SI1 13246 1.100000 28.08600
13247 SI 13247 SI SI1 13247 1.100000 28.08600
13248 SI 13248 SI SI1 13248 1.100000 28.08600
13249 SI 13249 SI SI1 13249 1.100000 28.08600
13250 SI 13250 SI SI1 13250 1.100000 28.08600
13251 SI 13251 SI SI1 13251 1.100000 28.08600
13252 SI 13252 SI SI1 13252 1.100000 28.08600
13253 SI 13253 SI SI1 13253 1.100000 28.08600
13254 SI 13254 SI SI1 13254 1.100000 28.08600
13255 SI 13255 SI SI1 13255 1.100000 28.08600
13256 SI 13256 SI SI1 13256 1.100000 28.08600
13257 SI 13257 SI SI1 13257 1.100000 28.08600
13258 SI 13258 SI SI1 13258 1.100000 28.08600
13259 SI 13259 SI SI1 13259 1.100000 28.08600
13260 SI 13260 SI SI1 13260 1.100000 28.08600
13261 SI 13261 SI SI1 13261 1.100000 28.08600
13262 SI 13262 SI SI1 13262 1.100000 28.08600
13263 SI 13263 SI SI1 13263 1.100000 28.08600
13264 SI 13264 SI SI1 13264 1.100000 28.08600
13265 SI 13265 SI SI1 13265 1.100000 28.08600
13266 SI 13266 SI SI1 13266 1.100000 28.08600
13267 SI 13267 SI SI1 13267 1.100000 28.08600
13268 SI 13268 SI SI1 13268 1.100000 28.08600
13269 SI 13269 SI SI1 13269 1.100000 28.08600
13270 SI 13270 SI SI1 13270 1.100000 28.08600
13271 SI 13271 SI SI1 13271 1.100000 28.08600
13272 SI 13272 SI SI1 13272 1.100000 28.08600
13273 SI 13273 SI SI1 13273 1.100000 28.08600
13274 SI 13274 SI SI1 13274 1.100000 28.08600
13275 SI 13275 SI SI1 13275 1.100000 28.08600
13276 SI 13276 SI SI1 13276 1.100000 28.08600
13277 SI 13277 SI SI1 13277 1.100000 28.08600
13278 SI 13278 SI SI1 13278 1.100000 28.08600
13279 SI 13279 SI SI1 13279 1.100000 28.08600
13280 SI 13280 SI SI1 13280 1.100000 28.08600
13281 SI 13281 SI SI1 13281 1.100000 28.08600
13282 SI 13282 SI SI1 13282 1.100000 28.08600
13283 SI 13283 SI SI1 13283 1.100000 28.08600
13284 SI 13284 SI SI1 13284 1.100000 28.08600
13285 SI 13285 SI SI1 13285 1.100000 28.08600
13286 SI 13286 SI SI1 13286 1.100000 28.08600
13287 SI 13287 SI SI1 13287 1.100000 28.08600
13288 SI 13288 SI SI1 13288 1.100000 28.08600
13289 SI 13289 SI SI1 13289 1.100000 28.08600
13290 SI 13290 SI SI1 13290 1.100000 28.08600
13291 SI 13291 SI SI1 13291 1.100000 28.08600
13292 SI 13292 SI SI1 13292 1.100000 28.08600
13293 SI 13293 SI SI1 13293 1.100000 28.08600
13294 SI 13294 SI SI1 13294 1.100000 28.08600
13295 SI 13295 SI SI1 13295 1.100000 28.08600
13296 SI 13296 SI SI1 13296 1.100000 28.08600
13297 SI 13297 SI SI1 13297 1.100000 28.08600
13298 SI 13298 SI SI1 13298 1.100000 28.08600
13299 SI 13299 SI SI1 13299 1.100000 28.08600
13300 SI 13300 SI SI1 13300 1.100000 28.08600
13301 SI 13301 SI SI1 13301 1.100000 28.08600
13302 SI 13302 SI SI1 13302 1.100000 28.08600
13303 SI 13303 SI SI1 13303 1.100000 28.08600
13304 SI 13304 SI SI1 13304 1.100000 28.08600
13305 SI 13305 SI SI1 13305 1.100000 28.08600
13306 SI 13306 SI SI1 13306 1.100000 28.08600
13307 SI 13307 SI SI1 13307 1.100000 28.08600
13308 SI 13308 SI SI1 13308 1.100000 28.08600
13309 SI 13309 SI SI1 13309 1.100000 28.08600
13310 SI 13310 SI SI1 13310 1.100000 28.08600
13311 SI 13311 SI SI1 13311 1.100000 28.08600
13312 SI 13312 SI SI1 13312 1.100000 28.08600
13313 SI 13313 SI SI1 13313 1.100000 28.08600
13314 SI 13314 SI SI1 13314 1.100000 28.08600
13315 SI 13315 SI SI1 13315 1.100000 28.08600
13316 SI 13316 SI SI1 13316 1.100000 28.08600
13317 SI 13317 SI SI1 13317 1.100000 28.08600
13318 SI 13318 SI SI1 13318 1.100000 28.08600
13319 SI 13319 SI SI1 13319 1.100000 28.08600
13320 SI 13320 SI SI1 13320 1.100000 28.08600
13321 SI 13321 SI SI1 13321 1.100000 28.08600
13322 SI 13322 SI SI1 13322 1.100000 28.08600
13323 SI 13323 SI SI1 13323 1.100000 28.08600
13324 SI 13324 SI SI1 13324 1.100000 28.08600
13325 SI 13325 SI SI1 13325 1.100000 28.08600
13326 SI 13326 SI SI1 13326 1.100000 28.08600
13327 SI 13327 SI SI1 13327 1.100000 28.08600
13328 SI 13328 SI SI1 13328 1.100000 28.08600
13329 SI 13329 SI SI1 13329 1.100000 28.08600
13330 SI 13330 SI SI1 13330 1.100000 28.08600
13331 SI 13331 SI SI1 13331 1.100000 28.08600
13332 SI 13332 SI SI1 13332 1.100000 28.08600
13333 SI 13333 SI SI1 13333 1.100000 28.08600
13334 SI 13334 SI SI1 13334 1.100000 28.08600
13335 SI 13335 SI SI1 13335 1.100000 28.08600
13336 SI 13336 SI SI1 13336 1.100000 28.08600
13337 SI 13337 SI SI1 13337 1.100000 28.08600
13338 SI 13338 SI SI1 13338 1.100000 28.08600
13339 SI 13339 SI SI1 13339 1.100000 28.08600
13340 SI 13340 SI SI1 13340 1.100000 28.08600
13341 SI 13341 SI SI1 13341 1.100000 28.08600
13342 SI 13342 SI SI1 13342 1.100000 28.08600
13343 SI 13343 SI SI1 13343 1.100000 28.08600
13344 SI 13344 SI SI1 13344 1.100000 28.08600
13345 SI 13345 SI SI1 13345 1.100000 28.08600
13346 SI 13346 SI SI1 13346 1.100000 28.08600
13347 SI 13347 SI SI1 13347 1.100000 28.08600
13348 SI 13348 SI SI1 13348 1.100000 28.08600
13349 SI 13349 SI SI1 13349 1.100000 28.08600
13350 SI 13350 SI SI1 13350 1.100000 28.08600
13351 SI 13351 SI SI1 13351 1.100000 28.08600
13352 SI 13352 SI SI1 13352 1.100000 28.08600
13353 SI 13353 SI SI1 13353 1.100000 28.08600
13354 SI 13354 SI SI1 13354 1.100000 28.08600
13355 SI 13355 SI SI1 13355 1.100000 28.08600
13356 SI 13356 SI SI1 13356 1.100000 28.08600
13357 SI 13357 SI SI1 13357 1.100000 28.08600
13358 SI 13358 SI SI1 13358 1.100000 28.08600
13359 SI 13359 SI SI1 13359 1.100000 28.08600
13360 SI 13360 SI SI1 13360 1.100000 28.08600
13361 SI 13361 SI SI1 13361 1.100000 28.08600
13362 SI 13362 SI SI1 13362 1.100000 28.08600
13363 SI 13363 SI SI1 13363 1.100000 28.08600
13364 SI 13364 SI SI1 13364 1.100000 28.08600
13365 SI 13365 SI SI1 13365 1.100000 28.08600
13366 SI 13366 SI SI1 13366 1.100000 28.08600
13367 SI 13367 SI SI1 13367 1.100000 28.08600
13368 SI 13368 SI SI1 13368 1.100000 28.08600
13369 SI 13369 SI SI1 13369 1.100000 28.08600
13370 SI 13370 SI SI1 13370 1.100000 28.08600
13371 SI 13371 SI SI1 13371 1.100000 28.08600
13372 SI 13372 SI SI1 13372 1.100000 28.08600
13373 SI 13373 SI SI1 13373 1.100000 28.08600
13374 SI 13374 SI SI1 13374 1.100000 28.08600
13375 SI 13375 SI SI1 13375 1.100000 28.08600
13376 SI 13376 SI SI1 13376 1.100000 28.08600
13377 SI 13377 SI SI1 13377 1.100000 28.08600
13378 SI 13378 SI SI1 13378 1.100000 28.08600
13379 SI 13379 SI SI1 13379 1.100000 28.08600
13380 SI 13380 SI SI1 13380 1.100000 28.08600
13381 SI 13381 SI SI1 13381 1.100000 28.08600
13382 SI 13382 SI SI1 13382 1.100000 28.08600
13383 SI 13383 SI SI1 13383 1.100000 28.08600
13384 SI 13384 SI SI1 13384 1.100000 28.08600
13385 SI 13385 SI SI1 13385 1.100000 28.08600
13386 SI 13386 SI SI1 13386 1.100000 28.08600
13387 SI 13387 SI SI1 13387 1.100000 28.08600
13388 SI 13388 SI SI1 13388 1.100000 28.08600
13389 SI 13389 SI SI1 13389 1.100000 28.08600
13390 SI 13390 SI SI1 13390 1.100000 28.08600
13391 SI 13391 SI SI1 13391 1.100000 28.08600
13392 SI 13392 SI SI1 13392 1.100000 28.08600
13393 SI 13393 SI SI1 13393 1.100000 28.08600
13394 SI 13394 SI SI1 13394 1.100000 28.08600
13395 SI 13395 SI SI1 13395 1.100000 28.08600
13396 SI 13396 SI SI1 13396 1.100000 28.08600
13397 SI 13397 SI SI1 13397 1.100000 28.08600
13398 SI 13398 SI SI1 13398 1.100000 28.08600
13399 SI 13399 SI SI1 13399 1.100000 28.08600
13400 SI 13400 SI SI1 13400 1.100000 28.08600
13401 SI 13401 SI SI1 13401 1.100000 28.08600
13402 SI 13402 SI SI1 13402 1.100000 28.08600
13403 SI 13403 SI SI1 13403 1.100000 28.08600
13404 SI 13404 SI SI1 13404 1.100000 28.08600
13405 SI 13405 SI SI1 13405 1.100000 28.08600
13406 SI 13406 SI SI1 13406 1.100000 28.08600
13407 SI 13407 SI SI1 13407 1.100000 28.08600
13408 SI 13408 SI SI1 13408 1.100000 28.08600
13409 SI 13409 SI SI1 13409 1.100000 28.08600
13410 SI 13410 SI SI1 13410 1.100000 28.08600
13411 SI 13411 SI SI1 13411 1.100000 28.08600
13412 SI 13412 SI SI1 13412 1.100000 28.08600
13413 SI 13413 SI SI1 13413 1.100000 28.08600
13414 SI 13414 SI SI1 13414 1.100000 28.08600
13415 SI 13415 SI SI1 13415 1.100000 28.08600
13416 SI 13416 SI SI1 13416 1.100000 28.08600
13417 SI 13417 SI SI1 13417 1.100000 28.08600
13418 SI 13418 SI SI1 13418 1.100000 28.08600
13419 SI 13419 SI SI1 13419 1.100000 28.08600
13420 SI 13420 SI SI1 13420 1.100000 28.08600
13421 SI 13421 SI SI1 13421 1.100000 28.08600
13422 SI 13422 SI SI1 13422 1.100000 28.08600
13423 SI 13423 SI SI1 13423 1.100000 28.08600
13424 SI 13424 SI SI1 13424 1.100000 28.08600
13425 SI 13425 SI SI1 13425 1.100000 28.08600
13426 SI 13426 SI SI1 13426 1.100000 28.08600
13427 SI 13427 SI SI1 13427 1.100000 28.08600
13428 SI 13428 SI SI1 13428 1.100000 28.08600
13429 SI 13429 SI SI1 13429 1.100000 28.08600
13430 SI 13430 SI SI1 13430 1.100000 28.08600
13431 SI 13431 SI SI1 13431 1.100000 28.08600
13432 SI 13432 SI SI1 13432 1.100000 28.08600
13433 SI 13433 SI SI1 13433 1.100000 28.08600
13434 SI 13434 SI SI1 13434 1.100000 28.08600
13435 SI 13435 SI SI1 13435 1.100000 28.08600
13436 SI 13436 SI SI1 13436 1.100000 28.08600
13437 SI 13437 SI SI1 13437 1.100000 28.08600
13438 SI 13438 SI SI1 13438 1.100000 28.08600
13439 SI 13439 SI SI1 13439 1.100000 28.08600
13440 SI 13440 SI SI1 13440 1.100000 28.08600
13441 SI 13441 SI SI1 13441 1.100000 28.08600
13442 SI 13442 SI SI1 13442 1.100000 28.08600
13443 SI 13443 SI SI1 13443 1.100000 28.08600
13444 SI 13444 SI SI1 13444 1.100000 28.08600
13445 SI 13445 SI SI1 13445 1.100000 28.08600
13446 SI 13446 SI SI1 13446 1.100000 28.08600
13447 SI 13447 SI SI1 13447 1.100000 28.08600
13448 SI 13448 SI SI1 13448 1.100000 28.08600
13449 SI 13449 SI SI1 13449 1.100000 28.08600
13450 SI 13450 SI SI1 13450 1.100000 28.08600
13451 SI 13451 SI SI1 13451 1.100000 28.08600
13452 SI 13452 SI SI1 13452 1.100000 28.08600
13453 SI 13453 SI SI1 13453 1.100000 28.08600
13454 SI 13454 SI SI1 13454 1.100000 28.08600
13455 SI 13455 SI SI1 13455 1.100000 28.08600
13456 SI 13456 SI SI1 13456 1.100000 28.08600
13457 SI 13457 SI SI1 13457 1.100000 28.08600
13458 SI 13458 SI SI1 13458 1.100000 28.08600
13459 SI 13459 SI SI1 13459 1.100000 28.08600
13460 SI 13460 SI SI1 13460 1.100000 28.08600
13461 SI 13461 SI SI1 13461 1.100000 28.08600
13462 SI 13462 SI SI1 13462 1.100000 28.08600
13463 SI 13463 SI SI1 13463 1.100000 28.08600
13464 SI 13464 SI SI1 13464 1.100000 28.08600
13465 SI 13465 SI SI1 13465 1.100000 28.08600
13466 SI 13466 SI SI1 13466 1.100000 28.08600
13467 SI 13467 SI SI1 13467 1.100000 28.08600
13468 SI 13468 SI SI1 13468 1.100000 28.08600
13469 SI 13469 SI SI1 13469 1.100000 28.08600
13470 SI 13470 SI SI1 13470 1.100000 28.08600
13471 SI 13471 SI SI1 13471 1.100000 28.08600
13472 SI 13472 SI SI1 13472 1.100000 28.08600
13473 SI 13473 SI SI1 13473 1.100000 28.08600
13474 SI 13474 SI SI1 13474 1.100000 28.08600
13475 SI 13475 SI SI1 13475 1.100000 28.08600
13476 SI 13476 SI SI1 13476 1.100000 28.08600
13477 SI 13477 SI SI1 13477 1.100000 28.08600
13478 SI 13478 SI SI1 13478 1.100000 28.08600
13479 SI 13479 SI SI1 13479 1.100000 28.08600
13480 SI 13480 SI SI1 13480 1.100000 28.08600
13481 SI 13481 SI SI1 13481 1.100000 28.08600
13482 SI 13482 SI SI1 13482 1.100000 28.08600
13483 SI 13483 SI SI1 13483 1.100000 28.08600
13484 SI 13484 SI SI1 13484 1.100000 28.08600
13485 SI 13485 SI SI1 13485 1.100000 28.08600
13486 SI 13486 SI SI1 13486 1.100000 28.08600
13487 SI 13487 SI SI1 13487 1.100000 28.08600
13488 SI 13488 SI SI1 13488 1.100000 28.08600
13489 SI 13489 SI SI1 13489 1.100000 28.08600
13490 SI 13490 SI SI1 13490 1.100000 28.08600
13491 SI 13491 SI SI1 13491 1.100000 28.08600
13492 SI 13492 SI SI1 13492 1.100000 28.08600
13493 SI 13493 SI SI1 13493 1.100000 28.08600
13494 SI 13494 SI SI1 13494 1.100000 28.08600
13495 SI 13495 SI SI1 13495 1.100000 28.08600
13496 SI 13496 SI SI1 13496 1.100000 28.08600
13497 SI 13497 SI SI1 13497 1.100000 28.08600
13498 SI 13498 SI SI1 13498 1.100000 28.08600
13499 SI 13499 SI SI1 13499 1.100000 28.08600
13500 SI 13500 SI SI1 13500 1.100000 28.08600
13501 SI 13501 SI SI1 13501 1.100000 28.08600
13502 SI 13502 SI SI1 13502 1.100000 28.08600
13503 SI 13503 SI SI1 13503 1.100000 28.08600
13504 SI 13504 SI SI1 13504 1.100000 28.08600
13505 SI 13505 SI SI1 13505 1.100000 28.08600
13506 SI 13506 SI SI1 13506 1.100000 28.08600
13507 SI 13507 SI SI1 13507 1.100000 28.08600
13508 SI 13508 SI SI1 13508 1.100000 28.08600
13509 SI 13509 SI SI1 13509 1.100000 28.08600
13510 SI 13510 SI SI1 13510 1.100000 28.08600
13511 SI 13511 SI SI1 13511 1.100000 28.08600
13512 SI 13512 SI SI1 13512 1.100000 28.08600
13513 SI 13513 SI SI1 13513 1.100000 28.08600
13514 SI 13514 SI SI1 13514 1.100000 28.08600
13515 SI 13515 SI SI1 13515 1.100000 28.08600
13516 SI 13516 SI SI1 13516 1.100000 28.08600
13517 SI 13517 SI SI1 13517 1.100000 28.08600
13518 SI 13518 SI SI1 13518 1.100000 28.08600
13519 SI 13519 SI SI1 13519 1.100000 28.08600
13520 SI 13520 SI SI1 13520 1.100000 28.08600
13521 SI 13521 SI SI1 13521 1.100000 28.08600
13522 SI 13522 SI SI1 13522 1.100000 28.08600
13523 SI 13523 SI SI1 13523 1.100000 28.08600
13524 SI 13524 SI SI1 13524 1.100000 28.08600
13525 SI 13525 SI SI1 13525 1.100000 28.08600
13526 SI 13526 SI SI1 13526 1.100000 28.08600
13527 SI 13527 SI SI1 13527 1.100000 28.08600
13528 SI 13528 SI SI1 13528 1.100000 28.08600
13529 SI 13529 SI SI1 13529 1.100000 28.08600
13530 SI 13530 SI SI1 13530 1.100000 28.08600
13531 SI 13531 SI SI1 13531 1.100000 28.08600
13532 SI 13532 SI SI1 13532 1.100000 28.08600
13533 SI 13533 SI SI1 13533 1.100000 28.08600
13534 SI 13534 SI SI1 13534 1.100000 28.08600
13535 SI 13535 SI SI1 13535 1.100000 28.08600
13536 SI 13536 SI SI1 13536 1.100000 28.08600
13537 SI 13537 SI SI1 13537 1.100000 28.08600
13538 SI 13538 SI SI1 13538 1.100000 28.08600
13539 SI 13539 SI SI1 13539 1.100000 28.08600
13540 SI 13540 SI SI1 13540 1.100000 28.08600
13541 SI 13541 SI SI1 13541 1.100000 28.08600
13542 SI 13542 SI SI1 13542 1.100000 28.08600
13543 SI 13543 SI SI1 13543 1.100000 28.08600
13544 SI 13544 SI SI1 13544 1.100000 28.08600
13545 SI 13545 SI SI1 13545 1.100000 28.08600
13546 SI 13546 SI SI1 13546 1.100000 28.08600
13547 SI 13547 SI SI1 13547 1.100000 28.08600
13548 SI 13548 SI SI1 13548 1.100000 28.08600
13549 SI 13549 SI SI1 13549 1.100000 28.08600
13550 SI 13550 SI SI1 13550 1.100000 28.08600
13551 SI 13551 SI SI1 13551 1.100000 28.08600
13552 SI 13552 SI SI1 13552 1.100000 28.08600
13553 SI 13553 SI SI1 13553 1.100000 28.08600
13554 SI 13554 SI SI1 13554 1.100000 28.08600
13555 SI 13555 SI SI1 13555 1.100000 28.08600
13556 SI 13556 SI SI1 13556 1.100000 28.08600
13557 SI 13557 SI SI1 13557 1.100000 28.08600
13558 SI 13558 SI SI1 13558 1.100000 28.08600
13559 SI 13559 SI SI1 13559 1.100000 28.08600
13560 SI 13560 SI SI1 13560 1.100000 28.08600
13561 SI 13561 SI SI1 13561 1.100000 28.08600
13562 SI 13562 SI SI1 13562 1.100000 28.08600
13563 SI 13563 SI SI1 13563 1.100000 28.08600
13564 SI 13564 SI SI1 13564 1.100000 28.08600
13565 SI 13565 SI SI1 13565 1.100000 28.08600
13566 SI 13566 SI SI1 13566 1.100000 28.08600
13567 SI 13567 SI SI1 13567 1.100000 28.08600
13568 SI 13568 SI SI1 13568 1.100000 28.08600
13569 SI 13569 SI SI1 13569 1.100000 28.08600
13570 SI 13570 SI SI1 13570 1.100000 28.08600
13571 SI 13571 SI SI1 13571 1.100000 28.08600
13572 SI 13572 SI SI1 13572 1.100000 28.08600
13573 SI 13573 SI SI1 13573 1.100000 28.08600
13574 SI 13574 SI SI1 13574 1.100000 28.08600
13575 SI 13575 SI SI1 13575 1.100000 28.08600
13576 SI 13576 SI SI1 13576 1.100000 28.08600
13577 SI 13577 SI SI1 13577 1.100000 28.08600
13578 SI 13578 SI SI1 13578 1.100000 28.08600
13579 SI 13579 SI SI1 13579 1.100000 28.08600
13580 SI 13580 SI SI1 13580 1.100000 28.08600
13581 SI 13581 SI SI1 13581 1.100000 28.08600
13582 SI 13582 SI SI1 13582 1.100000 28.08600
13583 SI 13583 SI SI1 13583 1.100000 28.08600
13584 SI 13584 SI SI1 13584 1.100000 28.08600
13585 SI 13585 SI SI1 13585 1.100000 28.08600
13586 SI 13586 SI SI1 13586 1.100000 28.08600
13587 SI 13587 SI SI1 13587 1.100000 28.08600
13588 SI 13588 SI SI1 13588 1.100000 28.08600
13589 SI 13589 SI SI1 13589 1.100000 28.08600
13590 SI 13590 SI SI1 13590 1.100000 28.08600
13591 SI 13591 SI SI1 13591 1.100000 28.08600
13592 SI 13592 SI SI1 13592 1.100000 28.08600
13593 SI 13593 SI SI1 13593 1.100000 28.08600
13594 SI 13594 SI SI1 13594 1.100000 28.08600
13595 SI 13595 SI SI1 13595 1.100000 28.08600
13596 SI 13596 SI SI1 13596 1.100000 28.08600
13597 SI 13597 SI SI1 13597 1.100000 28.08600
13598 SI 13598 SI SI1 13598 1.100000 28.08600
13599 SI 13599 SI SI1 13599 1.100000 28.08600
13600 SI 13600 SI SI1 13600 1.100000 28.08600
13601 SI 13601 SI SI1 13601 1.100000 28.08600
13602 SI 13602 SI SI1 13602 1.100000 28.08600
13603 SI 13603 SI SI1 13603 1.100000 28.08600
13604 SI 13604 SI SI1 13604 1.100000 28.08600
13605 SI 13605 SI SI1 13605 1.100000 28.08600
13606 SI 13606 SI SI1 13606 1.100000 28.08600
13607 SI 13607 SI SI1 13607 1.100000 28.08600
13608 SI 13608 SI SI1 13608 1.100000 28.08600
13609 SI 13609 SI SI1 13609 1.100000 28.08600
13610 SI 13610 SI SI1 13610 1.100000 28.08600
13611 SI 13611 SI SI1 13611 1.100000 28.08600
13612 SI 13612 SI SI1 13612 1.100000 28.08600
13613 SI 13613 SI SI1 13613 1.100000 28.08600
13614 SI 13614 SI SI1 13614 1.100000 28.08600
13615 SI 13615 SI SI1 13615 1.100000 28.08600
13616 SI 13616 SI SI1 13616 1.100000 28.08600
13617 SI 13617 SI SI1 13617 1.100000 28.08600
13618 SI 13618 SI SI1 13618 1.100000 28.08600
13619 SI 13619 SI SI1 13619 1.100000 28.08600
13620 SI 13620 SI SI1 13620 1.100000 28.08600
13621 SI 13621 SI SI1 13621 1.100000 28.08600
13622 SI 13622 SI SI1 13622 1.100000 28.08600
13623 SI 13623 SI SI1 13623 1.100000 28.08600
13624 SI 13624 SI SI1 13624 1.100000 28.08600
13625 SI 13625 SI SI1 13625 1.100000 28.08600
13626 SI 13626 SI SI1 13626 1.100000 28.08600
13627 SI 13627 SI SI1 13627 1.100000 28.08600
13628 SI 13628 SI SI1 13628 1.100000 28.08600
13629 SI 13629 SI SI1 13629 1.100000 28.08600
13630 SI 13630 SI SI1 13630 1.100000 28.08600
13631 SI 13631 SI SI1 13631 1.100000 28.08600
13632 SI 13632 SI SI1 13632 1.100000 28.08600
13633 SI 13633 SI SI1 13633 1.100000 28.08600
13634 SI 13634 SI SI1 13634 1.100000 28.08600
13635 SI 13635 SI SI1 13635 1.100000 28.08600
13636 SI 13636 SI SI1 13636 1.100000 28.08600
13637 SI 13637 SI SI1 13637 1.100000 28.08600
13638 SI 13638 SI SI1 13638 1.100000 28.08600
13639 SI 13639 SI SI1 13639 1.100000 28.08600
13640 SI 13640 SI SI1 13640 1.100000 28.08600
13641 SI 13641 SI SI1 13641 1.100000 28.08600
13642 SI 13642 SI SI1 13642 1.100000 28.08600
13643 SI 13643 SI SI1 13643 1.100000 28.08600
13644 SI 13644 SI SI1 13644 1.100000 28.08600
13645 SI 13645 SI SI1 13645 1.100000 28.08600
13646 SI 13646 SI SI1 13646 1.100000 28.08600
13647 SI 13647 SI SI1 13647 1.100000 28.08600
13648 SI 13648 SI SI1 13648 1.100000 28.08600
13649 SI 13649 SI SI1 13649 1.100000 28.08600
13650 SI 13650 SI SI1 13650 1.100000 28.08600
13651 SI 13651 SI SI1 13651 1.100000 28.08600
13652 SI 13652 SI SI1 13652 1.100000 28.08600
13653 SI 13653 SI SI1 13653 1.100000 28.08600
13654 SI 13654 SI SI1 13654 1.100000 28.08600
13655 SI 13655 SI SI1 13655 1.100000 28.08600
13656 SI 13656 SI SI1 13656 1.100000 28.08600
13657 SI 13657 SI SI1 13657 1.100000 28.08600
13658 SI 13658 SI SI1 13658 1.100000 28.08600
13659 SI 13659 SI SI1 13659 1.100000 28.08600
13660 SI 13660 SI SI1 13660 1.100000 28.08600
13661 SI 13661 SI SI1 13661 1.100000 28.08600
13662 SI 13662 SI SI1 13662 1.100000 28.08600
13663 SI 13663 SI SI1 13663 1.100000 28.08600
13664 SI 13664 SI SI1 13664 1.100000 28.08600
13665 SI 13665 SI SI1 13665 1.100000 28.08600
13666 SI 13666 SI SI1 13666 1.100000 28.08600
13667 SI 13667 SI SI1 13667 1.100000 28.08600
13668 SI 13668 SI SI1 13668 1.100000 28.08600
13669 SI 13669 SI SI1 13669 1.100000 28.08600
13670 SI 13670 SI SI1 13670 1.100000 28.08600
13671 SI 13671 SI SI1 13671 1.100000 28.08600
13672 SI 13672 SI SI1 13672 1.100000 28.08600
13673 SI 13673 SI SI1 13673 1.100000 28.08600
13674 SI 13674 SI SI1 13674 1.100000 28.08600
13675 SI 13675 SI SI1 13675 1.100000 28.08600
13676 SI 13676 SI SI1 13676 1.100000 28.08600
13677 SI 13677 SI SI1 13677 1.100000 28.08600
13678 SI 13678 SI SI1 13678 1.100000 28.08600
13679 SI 13679 SI SI1 13679 1.100000 28.08600
13680 SI 13680 SI SI1 13680 1.100000 28.08600
13681 SI 13681 SI SI1 13681 1.100000 28.08600
13682 SI 13682 SI SI1 13682 1.100000 28.08600
13683 SI 13683 SI SI1 13683 1.100000 28.08600
13684 SI 13684 SI SI1 13684 1.100000 28.08600
13685 SI 13685 SI SI1 13685 1.100000 28.08600
13686 SI 13686 SI SI1 13686 1.100000 28.08600
13687 SI 13687 SI SI1 13687 1.100000 28.08600
13688 SI 13688 SI SI1 13688 1.100000 28.08600
13689 SI 13689 SI SI1 13689 1.100000 28.08600
13690 SI 13690 SI SI1 13690 1.100000 28.08600
13691 SI 13691 SI SI1 13691 1.100000 28.08600
13692 SI 13692 SI SI1 13692 1.100000 28.08600
13693 SI 13693 SI SI1 13693 1.100000 28.08600
13694 SI 13694 SI SI1 13694 1.100000 28.08600
13695 SI 13695 SI SI1 13695 1.100000 28.08600
13696 SI 13696 SI SI1 13696 1.100000 28.08600
13697 SI 13697 SI SI1 13697 1.100000 28.08600
13698 SI 13698 SI SI1 13698 1.100000 28.08600
13699 SI 13699 SI SI1 13699 1.100000 28.08600
13700 SI 13700 SI SI1 13700 1.100000 28.08600
13701 SI 13701 SI SI1 13701 1.100000 28.08600
13702 SI 13702 SI SI1 13702 1.100000 28.08600
13703 SI 13703 SI SI1 13703 1.100000 28.08600
13704 SI 13704 SI SI1 13704 1.100000 28.08600
13705 SI 13705 SI SI1 13705 1.100000 28.08600
13706 SI 13706 SI SI1 13706 1.100000 28.08600
13707 SI 13707 SI SI1 13707 1.100000 28.08600
13708 SI 13708 SI SI1 13708 1.100000 28.08600
13709 SI 13709 SI SI1 13709 1.100000 28.08600
13710 SI 13710 SI SI1 13710 1.100000 28.08600
13711 SI 13711 SI SI1 13711 1.100000 28.08600
13712 SI 13712 SI SI1 13712 1.100000 28.08600
13713 SI 13713 SI SI1 13713 1.100000 28.08600
13714 SI 13714 SI SI1 13714 1.100000 28.08600
13715 SI 13715 SI SI1 13715 1.100000 28.08600
13716 SI 13716 SI SI1 13716 1.100000 28.08600
13717 SI 13717 SI SI1 13717 1.100000 28.08600
13718 SI 13718 SI SI1 13718 1.100000 28.08600
13719 SI 13719 SI SI1 13719 1.100000 28.08600
13720 SI 13720 SI SI1 13720 1.100000 28.08600
13721 SI 13721 SI SI1 13721 1.100000 28.08600
13722 SI 13722 SI SI1 13722 1.100000 28.08600
13723 SI 13723 SI SI1 13723 1.100000 28.08600
13724 SI 13724 SI SI1 13724 1.100000 28.08600
13725 SI 13725 SI SI1 13725 1.100000 28.08600
13726 SI 13726 SI SI1 13726 1.100000 28.08600
13727 SI 13727 SI SI1 13727 1.100000 28.08600
13728 SI 13728 SI SI1 13728 1.100000 28.08600
13729 SI 13729 SI SI1 13729 1.100000 28.08600
13730 SI 13730 SI SI1 13730 1.100000 28.08600
13731 SI 13731 SI SI1 13731 1.100000 28.08600
13732 SI 13732 SI SI1 13732 1.100000 28.08600
13733 SI 13733 SI SI1 13733 1.100000 28.08600
13734 SI 13734 SI SI1 13734 1.100000 28.08600
13735 SI 13735 SI SI1 13735 1.100000 28.08600
13736 SI 13736 SI SI1 13736 1.100000 28.08600
13737 SI 13737 SI SI1 13737 1.100000 28.08600
13738 SI 13738 SI SI1 13738 1.100000 28.08600
13739 SI 13739 SI SI1 13739 1.100000 28.08600
13740 SI 13740 SI SI1 13740 1.100000 28.08600
13741 SI 13741 SI SI1 13741 1.100000 28.08600
13742 SI 13742 SI SI1 13742 1.100000 28.08600
13743 SI 13743 SI SI1 13743 1.100000 28.08600
13744 SI 13744 SI SI1 13744 1.100000 28.08600
13745 SI 13745 SI SI1 13745 1.100000 28.08600
13746 SI 13746 SI SI1 13746 1.100000 28.08600
13747 SI 13747 SI SI1 13747 1.100000 28.08600
13748 SI 13748 SI SI1 13748 1.100000 28.08600
13749 SI 13749 SI SI1 13749 1.100000 28.08600
13750 SI 13750 SI SI1 13750 1.100000 28.08600
13751 SI 13751 SI SI1 13751 1.100000 28.08600
13752 SI 13752 SI SI1 13752 1.100000 28.08600
13753 SI 13753 SI SI1 13753 1.100000 28.08600
13754 SI 13754 SI SI1 13754 1.100000 28.08600
13755 SI 13755 SI SI1 13755 1.100000 28.08600
13756 SI 13756 SI SI1 13756 1.100000 28.08600
13757 SI 13757 SI SI1 13757 1.100000 28.08600
13758 SI 13758 SI SI1 13758 1.100000 28.08600
13759 SI 13759 SI SI1 13759 1.100000 28.08600
13760 SI 13760 SI SI1 13760 1.100000 28.08600
13761 SI 13761 SI SI1 13761 1.100000 28.08600
13762 SI 13762 SI SI1 13762 1.100000 28.08600
13763 SI 13763 SI SI1 13763 1.100000 28.08600
13764 SI 13764 SI SI1 13764 1.100000 28.08600
13765 SI 13765 SI SI1 13765 1.100000 28.08600
13766 SI 13766 SI SI1 13766 1.100000 28.08600
13767 SI 13767 SI SI1 13767 1.100000 28.08600
13768 SI 13768 SI SI1 13768 1.100000 28.08600
13769 SI 13769 SI SI1 13769 1.100000 28.08600
13770 SI 13770 SI SI1 13770 1.100000 28.08600
13771 SI 13771 SI SI1 13771 1.100000 28.08600
13772 SI 13772 SI SI1 13772 1.100000 28.08600
13773 SI 13773 SI SI1 13773 1.100000 28.08600
13774 SI 13774 SI SI1 13774 1.100000 28.08600
13775 SI 13775 SI SI1 13775 1.100000 28.08600
13776 SI 13776 SI SI1 13776 1.100000 28.08600
13777 SI 13777 SI SI1 13777 1.100000 28.08600
13778 SI 13778 SI SI1 13778 1.100000 28.08600
13779 SI 13779 SI SI1 13779 1.100000 28.08600
13780 SI 13780 SI SI1 13780 1.100000 28.08600
13781 SI 13781 SI SI1 13781 1.100000 28.08600
13782 SI 13782 SI SI1 13782 1.100000 28.08600
13783 SI 13783 SI SI1 13783 1.100000 28.08600
13784 SI 13784 SI SI1 13784 1.100000 28.08600
13785 SI 13785 SI SI1 13785 1.100000 28.08600
13786 SI 13786 SI SI1 13786 1.100000 28.08600
13787 SI 13787 SI SI1 13787 1.100000 28.08600
13788 SI 13788 SI SI1 13788 1.100000 28.08600
13789 SI 13789 SI SI1 13789 1.100000 28.08600
13790 SI 13790 SI SI1 13790 1.100000 28.08600
13791 SI 13791 SI SI1 13791 1.100000 28.08600
13792 SI 13792 SI SI1 13792 1.100000 28.08600
13793 SI 13793 SI SI1 13793 1.100000 28.08600
13794 SI 13794 SI SI1 13794 1.100000 28.08600
13795 SI 13795 SI SI1 13795 1.100000 28.08600
13796 SI 13796 SI SI1 13796 1.100000 28.08600
13797 SI 13797 SI SI1 13797 1.100000 28.08600
13798 SI 13798 SI SI1 13798 1.100000 28.08600
13799 SI 13799 SI SI1 13799 1.100000 28.08600
13800 SI 13800 SI SI1 13800 1.100000 28.08600
13801 SI 13801 SI SI1 13801 1.100000 28.08600
13802 SI 13802 SI SI1 13802 1.100000 28.08600
13803 SI 13803 SI SI1 13803 1.100000 28.08600
13804 SI 13804 SI SI1 13804 1.100000 28.08600
13805 SI 13805 SI SI1 13805 1.100000 28.08600
13806 SI 13806 SI SI1 13806 1.100000 28.08600
13807 SI 13807 SI SI1 13807 1.100000 28.08600
13808 SI 13808 SI SI1 13808 1.100000 28.08600
13809 SI 13809 SI SI1 13809 1.100000 28.08600
13810 SI 13810 SI SI1 13810 1.100000 28.08600
13811 SI 13811 SI SI1 13811 1.100000 28.08600
13812 SI 13812 SI SI1 13812 1.100000 28.08600
13813 SI 13813 SI SI1 13813 1.100000 28.08600
13814 SI 13814 SI SI1 13814 1.100000 28.08600
13815 SI 13815 SI SI1 13815 1.100000 28.08600
13816 SI 13816 SI SI1 13816 1.100000 28.08600
13817 SI 13817 SI SI1 13817 1.100000 28.08600
13818 SI 13818 SI SI1 13818 1.100000 28.08600
13819 SI 13819 SI SI1 13819 1.100000 28.08600
13820 SI 13820 SI SI1 13820 1.100000 28.08600
13821 SI 13821 SI SI1 13821 1.100000 28.08600
13822 SI 13822 SI SI1 13822 1.100000 28.08600
13823 SI 13823 SI SI1 13823 1.100000 28.08600
13824 SI 13824 SI SI1 13824 1.100000 28.08600
13825 SI 13825 SI SI1 13825 1.100000 28.08600
13826 SI 13826 SI SI1 13826 1.100000 28.08600
13827 SI 13827 SI SI1 13827 1.100000 28.08600
13828 SI 13828 SI SI1 13828 1.100000 28.08600
13829 SI 13829 SI SI1 13829 1.100000 28.08600
13830 SI 13830 SI SI1 13830 1.100000 28.08600
13831 SI 13831 SI SI1 13831 1.100000 28.08600
13832 SI 13832 SI SI1 13832 1.100000 28.08600
13833 SI 13833 SI SI1 13833 1.100000 28.08600
13834 SI 13834 SI SI1 13834 1.100000 28.08600
13835 SI 13835 SI SI1 13835 1.100000 28.08600
13836 SI 13836 SI SI1 13836 1.100000 28.08600
13837 SI 13837 SI SI1 13837 1.100000 28.08600
13838 SI 13838 SI SI1 13838 1.100000 28.08600
13839 SI 13839 SI SI1 13839 1.100000 28.08600
13840 SI 13840 SI SI1 13840 1.100000 28.08600
13841 SI 13841 SI SI1 13841 1.100000 28.08600
13842 SI 13842 SI SI1 13842 1.100000 28.08600
13843 SI 13843 SI SI1 13843 1.100000 28.08600
13844 SI 13844 SI SI1 13844 1.100000 28.08600
13845 SI 13845 SI SI1 13845 1.100000 28.08600
13846 SI 13846 SI SI1 13846 1.100000 28.08600
13847 SI 13847 SI SI1 13847 1.100000 28.08600
13848 SI 13848 SI SI1 13848 1.100000 28.08600
13849 SI 13849 SI SI1 13849 1.100000 28.08600
13850 SI 13850 SI SI1 13850 1.100000 28.08600
13851 SI 13851 SI SI1 13851 1.100000 28.08600
13852 SI 13852 SI SI1 13852 1.100000 28.08600
13853 SI 13853 SI SI1 13853 1.100000 28.08600
13854 SI 13854 SI SI1 13854 1.100000 28.08600
13855 SI 13855 SI SI1 13855 1.100000 28.08600
13856 SI 13856 SI SI1 13856 1.100000 28.08600
13857 SI 13857 SI SI1 13857 1.100000 28.08600
13858 SI 13858 SI SI1 13858 1.100000 28.08600
13859 SI 13859 SI SI1 13859 1.100000 28.08600
13860 SI 13860 SI SI1 13860 1.100000 28.08600
13861 SI 13861 SI SI1 13861 1.100000 28.08600
13862 SI 13862 SI SI1 13862 1.100000 28.08600
13863 SI 13863 SI SI1 13863 1.100000 28.08600
13864 SI 13864 SI SI1 13864 1.100000 28.08600
13865 SI 13865 SI SI1 13865 1.100000 28.08600
13866 SI 13866 SI SI1 13866 1.100000 28.08600
13867 SI 13867 SI SI1 13867 1.100000 28.08600
13868 SI 13868 SI SI1 13868 1.100000 28.08600
13869 SI 13869 SI SI1 13869 1.100000 28.08600
13870 SI 13870 SI SI1 13870 1.100000 28.08600
13871 SI 13871 SI SI1 13871 1.100000 28.08600
13872 SI 13872 SI SI1 13872 1.100000 28.08600
13873 SI 13873 SI SI1 13873 1.100000 28.08600
13874 SI 13874 SI SI1 13874 1.100000 28.08600
13875 SI 13875 SI SI1 13875 1.100000 28.08600
13876 SI 13876 SI SI1 13876 1.100000 28.08600
13877 SI 13877 SI SI1 13877 1.100000 28.08600
13878 SI 13878 SI SI1 13878 1.100000 28.08600
13879 SI 13879 SI SI1 13879 1.100000 28.08600
13880 SI 13880 SI SI1 13880 1.100000 28.08600
13881 SI 13881 SI SI1 13881 1.100000 28.08600
13882 SI 13882 SI SI1 13882 1.100000 28.08600
13883 SI 13883 SI SI1 13883 1.100000 28.08600
13884 SI 13884 SI SI1 13884 1.100000 28.08600
13885 SI 13885 SI SI1 13885 1.100000 28.08600
13886 SI 13886 SI SI1 13886 1.100000 28.08600
13887 SI 13887 SI SI1 13887 1.100000 28.08600
13888 SI 13888 SI SI1 13888 1.100000 28.08600
13889 SI 13889 SI SI1 13889 1.100000 28.08600
13890 SI 13890 SI SI1 13890 1.100000 28.08600
13891 SI 13891 SI SI1 13891 1.100000 28.08600
13892 SI 13892 SI SI1 13892 1.100000 28.08600
13893 SI 13893 SI SI1 13893 1.100000 28.08600
13894 SI 13894 SI SI1 13894 1.100000 28.08600
13895 SI 13895 SI SI1 13895 1.100000 28.08600
13896 SI 13896 SI SI1 13896 1.100000 28.08600
13897 SI 13897 SI SI1 13897 1.100000 28.08600
13898 SI 13898 SI SI1 13898 1.100000 28.08600
13899 SI 13899 SI SI1 13899 1.100000 28.08600
13900 SI 13900 SI SI1 13900 1.100000 28.08600
13901 SI 13901 SI SI1 13901 1.100000 28.08600
13902 SI 13902 SI SI1 13902 1.100000 28.08600
13903 SI 13903 SI SI1 13903 1.100000 28.08600
13904 SI 13904 SI SI1 13904 1.100000 28.08600
13905 SI 13905 SI SI1 13905 1.100000 28.08600
13906 SI 13906 SI SI1 13906 1.100000 28.08600
13907 SI 13907 SI SI1 13907 1.100000 28.08600
13908 SI 13908 SI SI1 13908 1.100000 28.08600
13909 SI 13909 SI SI1 13909 1.100000 28.08600
13910 SI 13910 SI SI1 13910 1.100000 28.08600
13911 SI 13911 SI SI1 13911 1.100000 28.08600
13912 SI 13912 SI SI1 13912 1.100000 28.08600
13913 SI 13913 SI SI1 13913 1.100000 28.08600
13914 SI 13914 SI SI1 13914 1.100000 28.08600
13915 SI 13915 SI SI1 13915 1.100000 28.08600
13916 SI 13916 SI SI1 13916 1.100000 28.08600
13917 SI 13917 SI SI1 13917 1.100000 28.08600
13918 SI 13918 SI SI1 13918 1.100000 28.08600
13919 SI 13919 SI SI1 13919 1.100000 28.08600
13920 SI 13920 SI SI1 13920 1.100000 28.08600
13921 SI 13921 SI SI1 13921 1.100000 28.08600
13922 SI 13922 SI SI1 13922 1.100000 28.08600
13923 SI 13923 SI SI1 13923 1.100000 28.08600
13924 SI 13924 SI SI1 13924 1.100000 28.08600
13925 SI 13925 SI SI1 13925 1.100000 28.08600
13926 SI 13926 SI SI1 13926 1.100000 28.08600
13927 SI 13927 SI SI1 13927 1.100000 28.08600
13928 SI 13928 SI SI1 13928 1.100000 28.08600
13929 SI 13929 SI SI1 13929 1.100000 28.08600
13930 SI 13930 SI SI1 13930 1.100000 28.08600
13931 SI 13931 SI SI1 13931 1.100000 28.08600
13932 SI 13932 SI SI1 13932 1.100000 28.08600
13933 SI 13933 SI SI1 13933 1.100000 28.08600
13934 SI 13934 SI SI1 13934 1.100000 28.08600
13935 SI 13935 SI SI1 13935 1.100000 28.08600
13936 SI 13936 SI SI1 13936 1.100000 28.08600
13937 SI 13937 SI SI1 13937 1.100000 28.08600
13938 SI 13938 SI SI1 13938 1.100000 28.08600
13939 SI 13939 SI SI1 13939 1.100000 28.08600
13940 SI 13940 SI SI1 13940 1.100000 28.08600
13941 SI 13941 SI SI1 13941 1.100000 28.08600
13942 SI 13942 SI SI1 13942 1.100000 28.08600
13943 SI 13943 SI SI1 13943 1.100000 28.08600
13944 SI 13944 SI SI1 13944 1.100000 28.08600
13945 SI 13945 SI SI1 13945 1.100000 28.08600
13946 SI 13946 SI SI1 13946 1.100000 28.08600
13947 SI 13947 SI SI1 13947 1.100000 28.08600
13948 SI 13948 SI SI1 13948 1.100000 28.08600
13949 SI 13949 SI SI1 13949 1.100000 28.08600
13950 SI 13950 SI SI1 13950 1.100000 28.08600
13951 SI 13951 SI SI1 13951 1.100000 28.08600
13952 SI 13952 SI SI1 13952 1.100000 28.08600
13953 SI 13953 SI SI1 13953 1.100000 28.08600
13954 SI 13954 SI SI1 13954 1.100000 28.08600
13955 SI 13955 SI SI1 13955 1.100000 28.08600
13956 SI 13956 SI SI1 13956 1.100000 28.08600
13957 SI 13957 SI SI1 13957 1.100000 28.08600
13958 SI 13958 SI SI1 13958 1.100000 28.08600
13959 SI 13959 SI SI1 13959 1.100000 28.08600
13960 SI 13960 SI SI1 13960 1.100000 28.08600
13961 SI 13961 SI SI1 13961 1.100000 28.08600
13962 SI 13962 SI SI1 13962 1.100000 28.08600
13963 SI 13963 SI SI1 13963 1.100000 28.08600
13964 SI 13964 SI SI1 13964 1.100000 28.08600
13965 SI 13965 SI SI1 13965 1.100000 28.08600
13966 SI 13966 SI SI1 13966 1.100000 28.08600
13967 SI 13967 SI SI1 13967 1.100000 28.08600
13968 SI 13968 SI SI1 13968 1.100000 28.08600
13969 SI 13969 SI SI1 13969 1.100000 28.08600
13970 SI 13970 SI SI1 13970 1.100000 28.08600
13971 SI 13971 SI SI1 13971 1.100000 28.08600
13972 SI 13972 SI SI1 13972 1.100000 28.08600
13973 SI 13973 SI SI1 13973 1.100000 28.08600
13974 SI 13974 SI SI1 13974 1.100000 28.08600
13975 SI 13975 SI SI1 13975 1.100000 28.08600
13976 SI 13976 SI SI1 13976 1.100000 28.08600
13977 SI 13977 SI SI1 13977 1.100000 28.08600
13978 SI 13978 SI SI1 13978 1.100000 28.08600
13979 SI 13979 SI SI1 13979 1.100000 28.08600
13980 SI 13980 SI SI1 13980 1.100000 28.08600
13981 SI 13981 SI SI1 13981 1.100000 28.08600
13982 SI 13982 SI SI1 13982 1.100000 28.08600
13983 SI 13983 SI SI1 13983 1.100000 28.08600
13984 SI 13984 SI SI1 13984 1.100000 28.08600
13985 SI 13985 SI SI1 13985 1.100000 28.08600
13986 SI 13986 SI SI1 13986 1.100000 28.08600
13987 SI 13987 SI SI1 13987 1.100000 28.08600
13988 SI 13988 SI SI1 13988 1.100000 28.08600
13989 SI 13989 SI SI1 13989 1.100000 28.08600
13990 SI 13990 SI SI1 13990 1.100000 28.08600
13991 SI 13991 SI SI1 13991 1.100000 28.08600
13992 SI 13992 SI SI1 13992 1.100000 28.08600
13993 SI 13993 SI SI1 13993 1.100000 28.08600
13994 SI 13994 SI SI1 13994 1.100000 28.08600
13995 SI 13995 SI SI1 13995 1.100000 28.08600
13996 SI 13996 SI SI1 13996 1.100000 28.08600
13997 SI 13997 SI SI1 13997 1.100000 28.08600
13998 SI 13998 SI SI1 13998 1.100000 28.08600
13999 SI 13999 SI SI1 13999 1.100000 28.08600
14000 SI 14000 SI SI1 14000 1.100000 28.08600
14001 SI 14001 SI SI1 14001 1.100000 28.08600
14002 SI 14002 SI SI1 14002 1.100000 28.08600
14003 SI 14003 SI SI1 14003 1.100000 28.08600
14004 SI 14004 SI SI1 14004 1.100000 28.08600
14005 SI 14005 SI SI1 14005 1.100000 28.08600
14006 SI 14006 SI SI1 14006 1.100000 28.08600
14007 SI 14007 SI SI1 14007 1.100000 28.08600
14008 SI 14008 SI SI1 14008 1.100000 28.08600
14009 SI 14009 SI SI1 14009 1.100000 28.08600
14010 SI 14010 SI SI1 14010 1.100000 28.08600
14011 SI 14011 SI SI1 14011 1.100000 28.08600
14012 SI 14012 SI SI1 14012 1.100000 28.08600
14013 SI 14013 SI SI1 14013 1.100000 28.08600
14014 SI 14014 SI SI1 14014 1.100000 28.08600
14015 SI 14015 SI SI1 14015 1.100000 28.08600
14016 SI 14016 SI SI1 14016 1.100000 28.08600
14017 SI 14017 SI SI1 14017 1.100000 28.08600
14018 SI 14018 SI SI1 14018 1.100000 28.08600
14019 SI 14019 SI SI1 14019 1.100000 28.08600
14020 SI 14020 SI SI1 14020 1.100000 28.08600
14021 SI 14021 SI SI1 14021 1.100000 28.08600
14022 SI 14022 SI SI1 14022 1.100000 28.08600
14023 SI 14023 SI SI1 14023 1.100000 28.08600
14024 SI 14024 SI SI1 14024 1.100000 28.08600
14025 SI 14025 SI SI1 14025 1.100000 28.08600
14026 SI 14026 SI SI1 14026 1.100000 28.08600
14027 SI 14027 SI SI1 14027 1.100000 28.08600
14028 SI 14028 SI SI1 14028 1.100000 28.08600
14029 SI 14029 SI SI1 14029 1.100000 28.08600
14030 SI 14030 SI SI1 14030 1.100000 28.08600
14031 SI 14031 SI SI1 14031 1.100000 28.08600
14032 SI 14032 SI SI1 14032 1.100000 28.08600
14033 SI 14033 SI SI1 14033 1.100000 28.08600
14034 SI 14034 SI SI1 14034 1.100000 28.08600
14035 SI 14035 SI SI1 14035 1.100000 28.08600
14036 SI 14036 SI SI1 14036 1.100000 28.08600
14037 SI 14037 SI SI1 14037 1.100000 28.08600
14038 SI 14038 SI SI1 14038 1.100000 28.08600
14039 SI 14039 SI SI1 14039 1.100000 28.08600
14040 SI 14040 SI SI1 14040 1.100000 28.08600
14041 SI 14041 SI SI1 14041 1.100000 28.08600
14042 SI 14042 SI SI1 14042 1.100000 28.08600
14043 SI 14043 SI SI1 14043 1.100000 28.08600
14044 SI 14044 SI SI1 14044 1.100000 28.08600
14045 SI 14045 SI SI1 14045 1.100000 28.08600
14046 SI 14046 SI SI1 14046 1.100000 28.08600
14047 SI 14047 SI SI1 14047 1.100000 28.08600
14048 SI 14048 SI SI1 14048 1.100000 28.08600
14049 SI 14049 SI SI1 14049 1.100000 28.08600
14050 SI 14050 SI SI1 14050 1.100000 28.08600
14051 SI 14051 SI SI1 14051 1.100000 28.08600
14052 SI 14052 SI SI1 14052 1.100000 28.08600
14053 SI 14053 SI SI1 14053 1.100000 28.08600
14054 SI 14054 SI SI1 14054 1.100000 28.08600
14055 SI 14055 SI SI1 14055 1.100000 28.08600
14056 SI 14056 SI SI1 14056 1.100000 28.08600
14057 SI 14057 SI SI1 14057 1.100000 28.08600
14058 SI 14058 SI SI1 14058 1.100000 28.08600
14059 SI 14059 SI SI1 14059 1.100000 28.08600
14060 SI 14060 SI SI1 14060 1.100000 28.08600
14061 SI 14061 SI SI1 14061 1.100000 28.08600
14062 SI 14062 SI SI1 14062 1.100000 28.08600
14063 SI 14063 SI SI1 14063 1.100000 28.08600
14064 SI 14064 SI SI1 14064 1.100000 28.08600
14065 SI 14065 SI SI1 14065 1.100000 28.08600
14066 SI 14066 SI SI1 14066 1.100000 28.08600
14067 SI 14067 SI SI1 14067 1.100000 28.08600
14068 SI 14068 SI SI1 14068 1.100000 28.08600
14069 SI 14069 SI SI1 14069 1.100000 28.08600
14070 SI 14070 SI SI1 14070 1.100000 28.08600
14071 SI 14071 SI SI1 14071 1.100000 28.08600
14072 SI 14072 SI SI1 14072 1.100000 28.08600
14073 SI 14073 SI SI1 14073 1.100000 28.08600
14074 SI 14074 SI SI1 14074 1.100000 28.08600
14075 SI 14075 SI SI1 14075 1.100000 28.08600
14076 SI 14076 SI SI1 14076 1.100000 28.08600
14077 SI 14077 SI SI1 14077 1.100000 28.08600
14078 SI 14078 SI SI1 14078 1.100000 28.08600
14079 SI 14079 SI SI1 14079 1.100000 28.08600
14080 SI 14080 SI SI1 14080 1.100000 28.08600
14081 SI 14081 SI SI1 14081 1.100000 28.08600
14082 SI 14082 SI SI1 14082 1.100000 28.08600
14083 SI 14083 SI SI1 14083 1.100000 28.08600
14084 SI 14084 SI SI1 14084 1.100000 28.08600
14085 SI 14085 SI SI1 14085 1.100000 28.08600
14086 SI 14086 SI SI1 14086 1.100000 28.08600
14087 SI 14087 SI SI1 14087 1.100000 28.08600
14088 SI 14088 SI SI1 14088 1.100000 28.08600
14089 SI 14089 SI SI1 14089 1.100000 28.08600
14090 SI 14090 SI SI1 14090 1.100000 28.08600
14091 SI 14091 SI SI1 14091 1.100000 28.08600
14092 SI 14092 SI SI1 14092 1.100000 28.08600
14093 SI 14093 SI SI1 14093 1.100000 28.08600
14094 SI 14094 SI SI1 14094 1.100000 28.08600
14095 SI 14095 SI SI1 14095 1.100000 28.08600
14096 SI 14096 SI SI1 14096 1.100000 28.08600
14097 SI 14097 SI SI1 14097 1.100000 28.08600
14098 SI 14098 SI SI1 14098 1.100000 28.08600
14099 SI 14099 SI SI1 14099 1.100000 28.08600
14100 SI 14100 SI SI1 14100 1.100000 28.08600
14101 SI 14101 SI SI1 14101 1.100000 28.08600
14102 SI 14102 SI SI1 14102 1.100000 28.08600
14103 SI 14103 SI SI1 14103 1.100000 28.08600
14104 SI 14104 SI SI1 14104 1.100000 28.08600
14105 SI 14105 SI SI1 14105 1.100000 28.08600
14106 SI 14106 SI SI1 14106 1.100000 28.08600
14107 SI 14107 SI SI1 14107 1.100000 28.08600
14108 SI 14108 SI SI1 14108 1.100000 28.08600
14109 SI 14109 SI SI1 14109 1.100000 28.08600
14110 SI 14110 SI SI1 14110 1.100000 28.08600
14111 SI 14111 SI SI1 14111 1.100000 28.08600
14112 SI 14112 SI SI1 14112 1.100000 28.08600
14113 SI 14113 SI SI1 14113 1.100000 28.08600
14114 SI 14114 SI SI1 14114 1.100000 28.08600
14115 SI 14115 SI SI1 14115 1.100000 28.08600
14116 SI 14116 SI SI1 14116 1.100000 28.08600
14117 SI 14117 SI SI1 14117 1.100000 28.08600
14118 SI 14118 SI SI1 14118 1.100000 28.08600
14119 SI 14119 SI SI1 14119 1.100000 28.08600
14120 SI 14120 SI SI1 14120 1.100000 28.08600
14121 SI 14121 SI SI1 14121 1.100000 28.08600
14122 SI 14122 SI SI1 14122 1.100000 28.08600
14123 SI 14123 SI SI1 14123 1.100000 28.08600
14124 SI 14124 SI SI1 14124 1.100000 28.08600
14125 SI 14125 SI SI1 14125 1.100000 28.08600
14126 SI 14126 SI SI1 14126 1.100000 28.08600
14127 SI 14127 SI SI1 14127 1.100000 28.08600
14128 SI 14128 SI SI1 14128 1.100000 28.08600
14129 SI 14129 SI SI1 14129 1.100000 28.08600
14130 SI 14130 SI SI1 14130 1.100000 28.08600
14131 SI 14131 SI SI1 14131 1.100000 28.08600
14132 SI 14132 SI SI1 14132 1.100000 28.08600
14133 SI 14133 SI SI1 14133 1.100000 28.08600
14134 SI 14134 SI SI1 14134 1.100000 28.08600
14135 SI 14135 SI SI1 14135 1.100000 28.08600
14136 SI 14136 SI SI1 14136 1.100000 28.08600
14137 SI 14137 SI SI1 14137 1.100000 28.08600
14138 SI 14138 SI SI1 14138 1.100000 28.08600
14139 SI 14139 SI SI1 14139 1.100000 28.08600
14140 SI 14140 SI SI1 14140 1.100000 28.08600
14141 SI 14141 SI SI1 14141 1.100000 28.08600
14142 SI 14142 SI SI1 14142 1.100000 28.08600
14143 SI 14143 SI SI1 14143 1.100000 28.08600
14144 SI 14144 SI SI1 14144 1.100000 28.08600
14145 SI 14145 SI SI1 14145 1.100000 28.08600
14146 SI 14146 SI SI1 14146 1.100000 28.08600
14147 SI 14147 SI SI1 14147 1.100000 28.08600
14148 SI 14148 SI SI1 14148 1.100000 28.08600
14149 SI 14149 SI SI1 14149 1.100000 28.08600
14150 SI 14150 SI SI1 14150 1.100000 28.08600
14151 SI 14151 SI SI1 14151 1.100000 28.08600
14152 SI 14152 SI SI1 14152 1.100000 28.08600
14153 SI 14153 SI SI1 14153 1.100000 28.08600
14154 SI 14154 SI SI1 14154 1.100000 28.08600
14155 SI 14155 SI SI1 14155 1.100000 28.08600
14156 SI 14156 SI SI1 14156 1.100000 28.08600
14157 SI 14157 SI SI1 14157 1.100000 28.08600
14158 SI 14158 SI SI1 14158 1.100000 28.08600
14159 SI 14159 SI SI1 14159 1.100000 28.08600
14160 SI 14160 SI SI1 14160 1.100000 28.08600
14161 SI 14161 SI SI1 14161 1.100000 28.08600
14162 SI 14162 SI SI1 14162 1.100000 28.08600
14163 SI 14163 SI SI1 14163 1.100000 28.08600
14164 SI 14164 SI SI1 14164 1.100000 28.08600
14165 SI 14165 SI SI1 14165 1.100000 28.08600
14166 SI 14166 SI SI1 14166 1.100000 28.08600
14167 SI 14167 SI SI1 14167 1.100000 28.08600
14168 SI 14168 SI SI1 14168 1.100000 28.08600
14169 SI 14169 SI SI1 14169 1.100000 28.08600
14170 SI 14170 SI SI1 14170 1.100000 28.08600
14171 SI 14171 SI SI1 14171 1.100000 28.08600
14172 SI 14172 SI SI1 14172 1.100000 28.08600
14173 SI 14173 SI SI1 14173 1.100000 28.08600
14174 SI 14174 SI SI1 14174 1.100000 28.08600
14175 SI 14175 SI SI1 14175 1.100000 28.08600
14176 SI 14176 SI SI1 14176 1.100000 28.08600
14177 SI 14177 SI SI1 14177 1.100000 28.08600
14178 SI 14178 SI SI1 14178 1.100000 28.08600
14179 SI 14179 SI SI1 14179 1.100000 28.08600
14180 SI 14180 SI SI1 14180 1.100000 28.08600
14181 SI 14181 SI SI1 14181 1.100000 28.08600
14182 SI 14182 SI SI1 14182 1.100000 28.08600
14183 SI 14183 SI SI1 14183 1.100000 28.08600
14184 SI 14184 SI SI1 14184 1.100000 28.08600
14185 SI 14185 SI SI1 14185 1.100000 28.08600
14186 SI 14186 SI SI1 14186 1.100000 28.08600
14187 SI 14187 SI SI1 14187 1.100000 28.08600
14188 SI 14188 SI SI1 14188 1.100000 28.08600
14189 SI 14189 SI SI1 14189 1.100000 28.08600
14190 SI 14190 SI SI1 14190 1.100000 28.08600
14191 SI 14191 SI SI1 14191 1.100000 28.08600
14192 SI 14192 SI SI1 14192 1.100000 28.08600
14193 SI 14193 SI SI1 14193 1.100000 28.08600
14194 SI 14194 SI SI1 14194 1.100000 28.08600
14195 SI 14195 SI SI1 14195 1.100000 28.08600
14196 SI 14196 SI SI1 14196 1.100000 28.08600
14197 SI 14197 SI SI1 14197 1.100000 28.08600
14198 SI 14198 SI SI1 14198 1.100000 28.08600
14199 SI 14199 SI SI1 14199 1.100000 28.08600
14200 SI 14200 SI SI1 14200 1.100000 28.08600
14201 SI 14201 SI SI1 14201 1.100000 28.08600
14202 SI 14202 SI SI1 14202 1.100000 28.08600
14203 SI 14203 SI SI1 14203 1.100000 28.08600
14204 SI 14204 SI SI1 14204 1.100000 28.08600
14205 SI 14205 SI SI1 14205 1.100000 28.08600
14206 SI 14206 SI SI1 14206 1.100000 28.08600
14207 SI 14207 SI SI1 14207 1.100000 28.08600
14208 SI 14208 SI SI1 14208 1.100000 28.08600
14209 SI 14209 SI SI1 14209 1.100000 28.08600
14210 SI 14210 SI SI1 14210 1.100000 28.08600
14211 SI 14211 SI SI1 14211 1.100000 28.08600
14212 SI 14212 SI SI1 14212 1.100000 28.08600
14213 SI 14213 SI SI1 14213 1.100000 28.08600
14214 SI 14214 SI SI1 14214 1.100000 28.08600
14215 SI 14215 SI SI1 14215 1.100000 28.08600
14216 SI 14216 SI SI1 14216 1.100000 28.08600
14217 SI 14217 SI SI1 14217 1.100000 28.08600
14218 SI 14218 SI SI1 14218 1.100000 28.08600
14219 SI 14219 SI SI1 14219 1.100000 28.08600
14220 SI 14220 SI SI1 14220 1.100000 28.08600
14221 SI 14221 SI SI1 14221 1.100000 28.08600
14222 SI 14222 SI SI1 14222 1.100000 28.08600
14223 SI 14223 SI SI1 14223 1.100000 28.08600
14224 SI 14224 SI SI1 14224 1.100000 28.08600
14225 SI 14225 SI SI1 14225 1.100000 28.08600
14226 SI 14226 SI SI1 14226 1.100000 28.08600
14227 SI 14227 SI SI1 14227 1.100000 28.08600
14228 SI 14228 SI SI1 14228 1.100000 28.08600
14229 SI 14229 SI SI1 14229 1.100000 28.08600
14230 SI 14230 SI SI1 14230 1.100000 28.08600
14231 SI 14231 SI SI1 14231 1.100000 28.08600
14232 SI 14232 SI SI1 14232 1.100000 28.08600
14233 SI 14233 SI SI1 14233 1.100000 28.08600
14234 SI 14234 SI SI1 14234 1.100000 28.08600
14235 SI 14235 SI SI1 14235 1.100000 28.08600
14236 SI 14236 SI SI1 14236 1.100000 28.08600
14237 SI 14237 SI SI1 14237 1.100000 28.08600
14238 SI 14238 SI SI1 14238 1.100000 28.08600
14239 SI 14239 SI SI1 14239 1.100000 28.08600
14240 SI 14240 SI SI1 14240 1.100000 28.08600
14241 SI 14241 SI SI1 14241 1.100000 28.08600
14242 SI 14242 SI SI1 14242 1.100000 28.08600
14243 SI 14243 SI SI1 14243 1.100000 28.08600
14244 SI 14244 SI SI1 14244 1.100000 28.08600
14245 SI 14245 SI SI1 14245 1.100000 28.08600
14246 SI 14246 SI SI1 14246 1.100000 28.08600
14247 SI 14247 SI SI1 14247 1.100000 28.08600
14248 SI 14248 SI SI1 14248 1.100000 28.08600
14249 SI 14249 SI SI1 14249 1.100000 28.08600
14250 SI 14250 SI SI1 14250 1.100000 28.08600
14251 SI 14251 SI SI1 14251 1.100000 28.08600
14252 SI 14252 SI SI1 14252 1.100000 28.08600
14253 SI 14253 SI SI1 14253 1.100000 28.08600
14254 SI 14254 SI SI1 14254 1.100000 28.08600
14255 SI 14255 SI SI1 14255 1.100000 28.08600
14256 SI 14256 SI SI1 14256 1.100000 28.08600
14257 SI 14257 SI SI1 14257 1.100000 28.08600
14258 SI 14258 SI SI1 14258 1.100000 28.08600
14259 SI 14259 SI SI1 14259 1.100000 28.08600
14260 SI 14260 SI SI1 14260 1.100000 28.08600
14261 SI 14261 SI SI1 14261 1.100000 28.08600
14262 SI 14262 SI SI1 14262 1.100000 28.08600
14263 SI 14263 SI SI1 14263 1.100000 28.08600
14264 SI 14264 SI SI1 14264 1.100000 28.08600
14265 SI 14265 SI SI1 14265 1.100000 28.08600
14266 SI 14266 SI SI1 14266 1.100000 28.08600
14267 SI 14267 SI SI1 14267 1.100000 28.08600
14268 SI 14268 SI SI1 14268 1.100000 28.08600
14269 SI 14269 SI SI1 14269 1.100000 28.08600
14270 SI 14270 SI SI1 14270 1.100000 28.08600
14271 SI 14271 SI SI1 14271 1.100000 28.08600
14272 SI 14272 SI SI1 14272 1.100000 28.08600
14273 SI 14273 SI SI1 14273 1.100000 28.08600
14274 SI 14274 SI SI1 14274 1.100000 28.08600
14275 SI 14275 SI SI1 14275 1.100000 28.08600
14276 SI 14276 SI SI1 14276 1.100000 28.08600
14277 SI 14277 SI SI1 14277 1.100000 28.08600
14278 SI 14278 SI SI1 14278 1.100000 28.08600
14279 SI 14279 SI SI1 14279 1.100000 28.08600
14280 SI 14280 SI SI1 14280 1.100000 28.08600
14281 SI 14281 SI SI1 14281 1.100000 28.08600
14282 SI 14282 SI SI1 14282 1.100000 28.08600
14283 SI 14283 SI SI1 14283 1.100000 28.08600
14284 SI 14284 SI SI1 14284 1.100000 28.08600
14285 SI 14285 SI SI1 14285 1.100000 28.08600
14286 SI 14286 SI SI1 14286 1.100000 28.08600
14287 SI 14287 SI SI1 14287 1.100000 28.08600
14288 SI 14288 SI SI1 14288 1.100000 28.08600
14289 SI 14289 SI SI1 14289 1.100000 28.08600
14290 SI 14290 SI SI1 14290 1.100000 28.08600
14291 SI 14291 SI SI1 14291 1.100000 28.08600
14292 SI 14292 SI SI1 14292 1.100000 28.08600
14293 SI 14293 SI SI1 14293 1.100000 28.08600
14294 SI 14294 SI SI1 14294 1.100000 28.08600
14295 SI 14295 SI SI1 14295 1.100000 28.08600
14296 SI 14296 SI SI1 14296 1.100000 28.08600
14297 SI 14297 SI SI1 14297 1.100000 28.08600
14298 SI 14298 SI SI1 14298 1.100000 28.08600
14299 SI 14299 SI SI1 14299 1.100000 28.08600
14300 SI 14300 SI SI1 14300 1.100000 28.08600
14301 SI 14301 SI SI1 14301 1.100000 28.08600
14302 SI 14302 SI SI1 14302 1.100000 28.08600
14303 SI 14303 SI SI1 14303 1.100000 28.08600
14304 SI 14304 SI SI1 14304 1.100000 28.08600
14305 SI 14305 SI SI1 14305 1.100000 28.08600
14306 SI 14306 SI SI1 14306 1.100000 28.08600
14307 SI 14307 SI SI1 14307 1.100000 28.08600
14308 SI 14308 SI SI1 14308 1.100000 28.08600
14309 SI 14309 SI SI1 14309 1.100000 28.08600
14310 SI 14310 SI SI1 14310 1.100000 28.08600
14311 SI 14311 SI SI1 14311 1.100000 28.08600
14312 SI 14312 SI SI1 14312 1.100000 28.08600
14313 SI 14313 SI SI1 14313 1.100000 28.08600
14314 SI 14314 SI SI1 14314 1.100000 28.08600
14315 SI 14315 SI SI1 14315 1.100000 28.08600
14316 SI 14316 SI SI1 14316 1.100000 28.08600
14317 SI 14317 SI SI1 14317 1.100000 28.08600
14318 SI 14318 SI SI1 14318 1.100000 28.08600
14319 SI 14319 SI SI1 14319 1.100000 28.08600
14320 SI 14320 SI SI1 14320 1.100000 28.08600
14321 SI 14321 SI SI1 14321 1.100000 28.08600
14322 SI 14322 SI SI1 14322 1.100000 28.08600
14323 SI 14323 SI SI1 14323 1.100000 28.08600
14324 SI 14324 SI SI1 14324 1.100000 28.08600
14325 SI 14325 SI SI1 14325 1.100000 28.08600
14326 SI 14326 SI SI1 14326 1.100000 28.08600
14327 SI 14327 SI SI1 14327 1.100000 28.08600
14328 SI 14328 SI SI1 14328 1.100000 28.08600
14329 SI 14329 SI SI1 14329 1.100000 28.08600
14330 SI 14330 SI SI1 14330 1.100000 28.08600
14331 SI 14331 SI SI1 14331 1.100000 28.08600
14332 SI 14332 SI SI1 14332 1.100000 28.08600
14333 SI 14333 SI SI1 14333 1.100000 28.08600
14334 SI 14334 SI SI1 14334 1.100000 28.08600
14335 SI 14335 SI SI1 14335 1.100000 28.08600
14336 SI 14336 SI SI1 14336 1.100000 28.08600
14337 SI 14337 SI SI1 14337 1.100000 28.08600
14338 SI 14338 SI SI1 14338 1.100000 28.08600
14339 SI 14339 SI SI1 14339 1.100000 28.08600
14340 SI 14340 SI SI1 14340 1.100000 28.08600
14341 SI 14341 SI SI1 14341 1.100000 28.08600
14342 SI 14342 SI SI1 14342 1.100000 28.08600
14343 SI 14343 SI SI1 14343 1.100000 28.08600
14344 SI 14344 SI SI1 14344 1.100000 28.08600
14345 SI 14345 SI SI1 14345 1.100000 28.08600
14346 SI 14346 SI SI1 14346 1.100000 28.08600
14347 SI 14347 SI SI1 14347 1.100000 28.08600
14348 SI 14348 SI SI1 14348 1.100000 28.08600
14349 SI 14349 SI SI1 14349 1.100000 28.08600
14350 SI 14350 SI SI1 14350 1.100000 28.08600
14351 SI 14351 SI SI1 14351 1.100000 28.08600
14352 SI 14352 SI SI1 14352 1.100000 28.08600
14353 SI 14353 SI SI1 14353 1.100000 28.08600
14354 SI 14354 SI SI1 14354 1.100000 28.08600
14355 SI 14355 SI SI1 14355 1.100000 28.08600
14356 SI 14356 SI SI1 14356 1.100000 28.08600
14357 SI 14357 SI SI1 14357 1.100000 28.08600
14358 SI 14358 SI SI1 14358 1.100000 28.08600
14359 SI 14359 SI SI1 14359 1.100000 28.08600
14360 SI 14360 SI SI1 14360 1.100000 28.08600
14361 SI 14361 SI SI1 14361 1.100000 28.08600
14362 SI 14362 SI SI1 14362 1.100000 28.08600
14363 SI 14363 SI SI1 14363 1.100000 28.08600
14364 SI 14364 SI SI1 14364 1.100000 28.08600
14365 SI 14365 SI SI1 14365 1.100000 28.08600
14366 SI 14366 SI SI1 14366 1.100000 28.08600
14367 SI 14367 SI SI1 14367 1.100000 28.08600
14368 SI 14368 SI SI1 14368 1.100000 28.08600
14369 SI 14369 SI SI1 14369 1.100000 28.08600
14370 SI 14370 SI SI1 14370 1.100000 28.08600
14371 SI 14371 SI SI1 14371 1.100000 28.08600
14372 SI 14372 SI SI1 14372 1.100000 28.08600
14373 SI 14373 SI SI1 14373 1.100000 28.08600
14374 SI 14374 SI SI1 14374 1.100000 28.08600
14375 SI 14375 SI SI1 14375 1.100000 28.08600
14376 SI 14376 SI SI1 14376 1.100000 28.08600
14377 SI 14377 SI SI1 14377 1.100000 28.08600
14378 SI 14378 SI SI1 14378 1.100000 28.08600
14379 SI 14379 SI SI1 14379 1.100000 28.08600
14380 SI 14380 SI SI1 14380 1.100000 28.08600
14381 SI 14381 SI SI1 14381 1.100000 28.08600
14382 SI 14382 SI SI1 14382 1.100000 28.08600
14383 SI 14383 SI SI1 14383 1.100000 28.08600
14384 SI 14384 SI SI1 14384 1.100000 28.08600
14385 SI 14385 SI SI1 14385 1.100000 28.08600
14386 SI 14386 SI SI1 14386 1.100000 28.08600
14387 SI 14387 SI SI1 14387 1.100000 28.08600
14388 SI 14388 SI SI1 14388 1.100000 28.08600
14389 SI 14389 SI SI1 14389 1.100000 28.08600
14390 SI 14390 SI SI1 14390 1.100000 28.08600
14391 SI 14391 SI SI1 14391 1.100000 28.08600
14392 SI 14392 SI SI1 14392 1.100000 28.08600
14393 SI 14393 SI SI1 14393 1.100000 28.08600
14394 SI 14394 SI SI1 14394 1.100000 28.08600
14395 SI 14395 SI SI1 14395 1.100000 28.08600
14396 SI 14396 SI SI1 14396 1.100000 28.08600
14397 SI 14397 SI SI1 14397 1.100000 28.08600
14398 SI 14398 SI SI1 14398 1.100000 28.08600
14399 SI 14399 SI SI1 14399 1.100000 28.08600
14400 SI 14400 SI SI1 14400 1.100000 28.08600
14401 SI 14401 SI SI1 14401 1.100000 28.08600
14402 SI 14402 SI SI1 14402 1.100000 28.08600
14403 SI 14403 SI SI1 14403 1.100000 28.08600
14404 SI 14404 SI SI1 14404 1.100000 28.08600
14405 SI 14405 SI SI1 14405 1.100000 28.08600
14406 SI 14406 SI SI1 14406 1.100000 28.08600
14407 SI 14407 SI SI1 14407 1.100000 28.08600
14408 SI 14408 SI SI1 14408 1.100000 28.08600
14409 SI 14409 SI SI1 14409 1.100000 28.08600
14410 SI 14410 SI SI1 14410 1.100000 28.08600
14411 SI 14411 SI SI1 14411 1.100000 28.08600
14412 SI 14412 SI SI1 14412 1.100000 28.08600
14413 SI 14413 SI SI1 14413 1.100000 28.08600
14414 SI 14414 SI SI1 14414 1.100000 28.08600
14415 SI 14415 SI SI1 14415 1.100000 28.08600
14416 SI 14416 SI SI1 14416 1.100000 28.08600
14417 SI 14417 SI SI1 14417 1.100000 28.08600
14418 SI 14418 SI SI1 14418 1.100000 28.08600
14419 SI 14419 SI SI1 14419 1.100000 28.08600
14420 SI 14420 SI SI1 14420 1.100000 28.08600
14421 SI 14421 SI SI1 14421 1.100000 28.08600
14422 SI 14422 SI SI1 14422 1.100000 28.08600
14423 SI 14423 SI SI1 14423 1.100000 28.08600
14424 SI 14424 SI SI1 14424 1.100000 28.08600
14425 SI 14425 SI SI1 14425 1.100000 28.08600
14426 SI 14426 SI SI1 14426 1.100000 28.08600
14427 SI 14427 SI SI1 14427 1.100000 28.08600
14428 SI 14428 SI SI1 14428 1.100000 28.08600
14429 SI 14429 SI SI1 14429 1.100000 28.08600
14430 SI 14430 SI SI1 14430 1.100000 28.08600
14431 SI 14431 SI SI1 14431 1.100000 28.08600
14432 SI 14432 SI SI1 14432 1.100000 28.08600
14433 SI 14433 SI SI1 14433 1.100000 28.08600
14434 SI 14434 SI SI1 14434 1.100000 28.08600
14435 SI 14435 SI SI1 14435 1.100000 28.08600
14436 SI 14436 SI SI1 14436 1.100000 28.08600
14437 SI 14437 SI SI1 14437 1.100000 28.08600
14438 SI 14438 SI SI1 14438 1.100000 28.08600
14439 SI 14439 SI SI1 14439 1.100000 28.08600
14440 SI 14440 SI SI1 14440 1.100000 28.08600
14441 SI 14441 SI SI1 14441 1.100000 28.08600
14442 SI 14442 SI SI1 14442 1.100000 28.08600
14443 SI 14443 SI SI1 14443 1.100000 28.08600
14444 SI 14444 SI SI1 14444 1.100000 28.08600
14445 SI 14445 SI SI1 14445 1.100000 28.08600
14446 SI 14446 SI SI1 14446 1.100000 28.08600
14447 SI 14447 SI SI1 14447 1.100000 28.08600
14448 SI 14448 SI SI1 14448 1.100000 28.08600
14449 SI 14449 SI SI1 14449 1.100000 28.08600
14450 SI 14450 SI SI1 14450 1.100000 28.08600
14451 SI 14451 SI SI1 14451 1.100000 28.08600
14452 SI 14452 SI SI1 14452 1.100000 28.08600
14453 SI 14453 SI SI1 14453 1.100000 28.08600
14454 SI 14454 SI SI1 14454 1.100000 28.08600
14455 SI 14455 SI SI1 14455 1.100000 28.08600
14456 SI 14456 SI SI1 14456 1.100000 28.08600
14457 SI 14457 SI SI1 14457 1.100000 28.08600
14458 SI 14458 SI SI1 14458 1.100000 28.08600
14459 SI 14459 SI SI1 14459 1.100000 28.08600
14460 SI 14460 SI SI1 14460 1.100000 28.08600
14461 SI 14461 SI SI1 14461 1.100000 28.08600
14462 SI 14462 SI SI1 14462 1.100000 28.08600
14463 SI 14463 SI SI1 14463 1.100000 28.08600
14464 SI 14464 SI SI1 14464 1.100000 28.08600
14465 SI 14465 SI SI1 14465 1.100000 28.08600
14466 SI 14466 SI SI1 14466 1.100000 28.08600
14467 SI 14467 SI SI1 14467 1.100000 28.08600
14468 SI 14468 SI SI1 14468 1.100000 28.08600
14469 SI 14469 SI SI1 14469 1.100000 28.08600
14470 SI 14470 SI SI1 14470 1.100000 28.08600
14471 SI 14471 SI SI1 14471 1.100000 28.08600
14472 SI 14472 SI SI1 14472 1.100000 28.08600
14473 SI 14473 SI SI1 14473 1.100000 28.08600
14474 SI 14474 SI SI1 14474 1.100000 28.08600
14475 SI 14475 SI SI1 14475 1.100000 28.08600
14476 SI 14476 SI SI1 14476 1.100000 28.08600
14477 SI 14477 SI SI1 14477 1.100000 28.08600
14478 SI 14478 SI SI1 14478 1.100000 28.08600
14479 SI 14479 SI SI1 14479 1.100000 28.08600
14480 SI 14480 SI SI1 14480 1.100000 28.08600
14481 SI 14481 SI SI1 14481 1.100000 28.08600
14482 SI 14482 SI SI1 14482 1.100000 28.08600
14483 SI 14483 SI SI1 14483 1.100000 28.08600
14484 SI 14484 SI SI1 14484 1.100000 28.08600
14485 SI 14485 SI SI1 14485 1.100000 28.08600
14486 SI 14486 SI SI1 14486 1.100000 28.08600
14487 SI 14487 SI SI1 14487 1.100000 28.08600
14488 SI 14488 SI SI1 14488 1.100000 28.08600
14489 SI 14489 SI SI1 14489 1.100000 28.08600
14490 SI 14490 SI SI1 14490 1.100000 28.08600
14491 SI 14491 SI SI1 14491 1.100000 28.08600
14492 SI 14492 SI SI1 14492 1.100000 28.08600
14493 SI 14493 SI SI1 14493 1.100000 28.08600
14494 SI 14494 SI SI1 14494 1.100000 28.08600
14495 SI 14495 SI SI1 14495 1.100000 28.08600
14496 SI 14496 SI SI1 14496 1.100000 28.08600
14497 SI 14497 SI SI1 14497 1.100000 28.08600
14498 SI 14498 SI SI1 14498 1.100000 28.08600
14499 SI 14499 SI SI1 14499 1.100000 28.08600
14500 SI 14500 SI SI1 14500 1.100000 28.08600
14501 SI 14501 SI SI1 14501 1.100000 28.08600
14502 SI 14502 SI SI1 14502 1.100000 28.08600
14503 SI 14503 SI SI1 14503 1.100000 28.08600
14504 SI 14504 SI SI1 14504 1.100000 28.08600
14505 SI 14505 SI SI1 14505 1.100000 28.08600
14506 SI 14506 SI SI1 14506 1.100000 28.08600
14507 SI 14507 SI SI1 14507 1.100000 28.08600
14508 SI 14508 SI SI1 14508 1.100000 28.08600
14509 SI 14509 SI SI1 14509 1.100000 28.08600
14510 SI 14510 SI SI1 14510 1.100000 28.08600
14511 SI 14511 SI SI1 14511 1.100000 28.08600
14512 SI 14512 SI SI1 14512 1.100000 28.08600
14513 SI 14513 SI SI1 14513 1.100000 28.08600
14514 SI 14514 SI SI1 14514 1.100000 28.08600
14515 SI 14515 SI SI1 14515 1.100000 28.08600
14516 SI 14516 SI SI1 14516 1.100000 28.08600
14517 SI 14517 SI SI1 14517 1.100000 28.08600
14518 SI 14518 SI SI1 14518 1.100000 28.08600
14519 SI 14519 SI SI1 14519 1.100000 28.08600
14520 SI 14520 SI SI1 14520 1.100000 28.08600
14521 SI 14521 SI SI1 14521 1.100000 28.08600
14522 SI 14522 SI SI1 14522 1.100000 28.08600
14523 SI 14523 SI SI1 14523 1.100000 28.08600
14524 SI 14524 SI SI1 14524 1.100000 28.08600
14525 SI 14525 SI SI1 14525 1.100000 28.08600
14526 SI 14526 SI SI1 14526 1.100000 28.08600
14527 SI 14527 SI SI1 14527 1.100000 28.08600
14528 SI 14528 SI SI1 14528 1.100000 28.08600
14529 SI 14529 SI SI1 14529 1.100000 28.08600
14530 SI 14530 SI SI1 14530 1.100000 28.08600
14531 SI 14531 SI SI1 14531 1.100000 28.08600
14532 SI 14532 SI SI1 14532 1.100000 28.08600
14533 SI 14533 SI SI1 14533 1.100000 28.08600
14534 SI 14534 SI SI1 14534 1.100000 28.08600
14535 SI 14535 SI SI1 14535 1.100000 28.08600
14536 SI 14536 SI SI1 14536 1.100000 28.08600
14537 SI 14537 SI SI1 14537 1.100000 28.08600
14538 SI 14538 SI SI1 14538 1.100000 28.08600
14539 SI 14539 SI SI1 14539 1.100000 28.08600
14540 SI 14540 SI SI1 14540 1.100000 28.08600
14541 SI 14541 SI SI1 14541 1.100000 28.08600
14542 SI 14542 SI SI1 14542 1.100000 28.08600
14543 SI 14543 SI SI1 14543 1.100000 28.08600
14544 SI 14544 SI SI1 14544 1.100000 28.08600
14545 SI 14545 SI SI1 14545 1.100000 28.08600
14546 SI 14546 SI SI1 14546 1.100000 28.08600
14547 SI 14547 SI SI1 14547 1.100000 28.08600
14548 SI 14548 SI SI1 14548 1.100000 28.08600
14549 SI 14549 SI SI1 14549 1.100000 28.08600
14550 SI 14550 SI SI1 14550 1.100000 28.08600
14551 SI 14551 SI SI1 14551 1.100000 28.08600
14552 SI 14552 SI SI1 14552 1.100000 28.08600
14553 SI 14553 SI SI1 14553 1.100000 28.08600
14554 SI 14554 SI SI1 14554 1.100000 28.08600
14555 SI 14555 SI SI1 14555 1.100000 28.08600
14556 SI 14556 SI SI1 14556 1.100000 28.08600
14557 SI 14557 SI SI1 14557 1.100000 28.08600
14558 SI 14558 SI SI1 14558 1.100000 28.08600
14559 SI 14559 SI SI1 14559 1.100000 28.08600
14560 SI 14560 SI SI1 14560 1.100000 28.08600
14561 SI 14561 SI SI1 14561 1.100000 28.08600
14562 SI 14562 SI SI1 14562 1.100000 28.08600
14563 SI 14563 SI SI1 14563 1.100000 28.08600
14564 SI 14564 SI SI1 14564 1.100000 28.08600
14565 SI 14565 SI SI1 14565 1.100000 28.08600
14566 SI 14566 SI SI1 14566 1.100000 28.08600
14567 SI 14567 SI SI1 14567 1.100000 28.08600
14568 SI 14568 SI SI1 14568 1.100000 28.08600
14569 SI 14569 SI SI1 14569 1.100000 28.08600
14570 SI 14570 SI SI1 14570 1.100000 28.08600
14571 SI 14571 SI SI1 14571 1.100000 28.08600
14572 SI 14572 SI SI1 14572 1.100000 28.08600
14573 SI 14573 SI SI1 14573 1.100000 28.08600
14574 SI 14574 SI SI1 14574 1.100000 28.08600
14575 SI 14575 SI SI1 14575 1.100000 28.08600
14576 SI 14576 SI SI1 14576 1.100000 28.08600
14577 SI 14577 SI SI1 14577 1.100000 28.08600
14578 SI 14578 SI SI1 14578 1.100000 28.08600
14579 SI 14579 SI SI1 14579 1.100000 28.08600
14580 SI 14580 SI SI1 14580 1.100000 28.08600
14581 SI 14581 SI SI1 14581 1.100000 28.08600
14582 SI 14582 SI SI1 14582 1.100000 28.08600
14583 SI 14583 SI SI1 14583 1.100000 28.08600
14584 SI 14584 SI SI1 14584 1.100000 28.08600
14585 SI 14585 SI SI1 14585 1.100000 28.08600
14586 SI 14586 SI SI1 14586 1.100000 28.08600
14587 SI 14587 SI SI1 14587 1.100000 28.08600
14588 SI 14588 SI SI1 14588 1.100000 28.08600
14589 SI 14589 SI SI1 14589 1.100000 28.08600
14590 SI 14590 SI SI1 14590 1.100000 28.08600
14591 SI 14591 SI SI1 14591 1.100000 28.08600
14592 SI 14592 SI SI1 14592 1.100000 28.08600
14593 SI 14593 SI SI1 14593 1.100000 28.08600
14594 SI 14594 SI SI1 14594 1.100000 28.08600
14595 SI 14595 SI SI1 14595 1.100000 28.08600
14596 SI 14596 SI SI1 14596 1.100000 28.08600
14597 SI 14597 SI SI1 14597 1.100000 28.08600
14598 SI 14598 SI SI1 14598 1.100000 28.08600
14599 SI 14599 SI SI1 14599 1.100000 28.08600
14600 SI 14600 SI SI1 14600 1.100000 28.08600
14601 SI 14601 SI SI1 14601 1.100000 28.08600
14602 SI 14602 SI SI1 14602 1.100000 28.08600
14603 SI 14603 SI SI1 14603 1.100000 28.08600
14604 SI 14604 SI SI1 14604 1.100000 28.08600
14605 SI 14605 SI SI1 14605 1.100000 28.08600
14606 SI 14606 SI SI1 14606 1.100000 28.08600
14607 SI 14607 SI SI1 14607 1.100000 28.08600
14608 SI 14608 SI SI1 14608 1.100000 28.08600
14609 SI 14609 SI SI1 14609 1.100000 28.08600
14610 SI 14610 SI SI1 14610 1.100000 28.08600
14611 SI 14611 SI SI1 14611 1.100000 28.08600
14612 SI 14612 SI SI1 14612 1.100000 28.08600
14613 SI 14613 SI SI1 14613 1.100000 28.08600
14614 SI 14614 SI SI1 14614 1.100000 28.08600
14615 SI 14615 SI SI1 14615 1.100000 28.08600
14616 SI 14616 SI SI1 14616 1.100000 28.08600
14617 SI 14617 SI SI1 14617 1.100000 28.08600
14618 SI 14618 SI SI1 14618 1.100000 28.08600
14619 SI 14619 SI SI1 14619 1.100000 28.08600
14620 SI 14620 SI SI1 14620 1.100000 28.08600
14621 SI 14621 SI SI1 14621 1.100000 28.08600
14622 SI 14622 SI SI1 14622 1.100000 28.08600
14623 SI 14623 SI SI1 14623 1.100000 28.08600
14624 SI 14624 SI SI1 14624 1.100000 28.08600
14625 SI 14625 SI SI1 14625 1.100000 28.08600
14626 SI 14626 SI SI1 14626 1.100000 28.08600
14627 SI 14627 SI SI1 14627 1.100000 28.08600
14628 SI 14628 SI SI1 14628 1.100000 28.08600
14629 SI 14629 SI SI1 14629 1.100000 28.08600
14630 SI 14630 SI SI1 14630 1.100000 28.08600
14631 SI 14631 SI SI1 14631 1.100000 28.08600
14632 SI 14632 SI SI1 14632 1.100000 28.08600
14633 SI 14633 SI SI1 14633 1.100000 28.08600
14634 SI 14634 SI SI1 14634 1.100000 28.08600
14635 SI 14635 SI SI1 14635 1.100000 28.08600
14636 SI 14636 SI SI1 14636 1.100000 28.08600
14637 SI 14637 SI SI1 14637 1.100000 28.08600
14638 SI 14638 SI SI1 14638 1.100000 28.08600
14639 SI 14639 SI SI1 14639 1.100000 28.08600
14640 SI 14640 SI SI1 14640 1.100000 28.08600
14641 SI 14641 SI SI1 14641 1.100000 28.08600
14642 SI 14642 SI SI1 14642 1.100000 28.08600
14643 SI 14643 SI SI1 14643 1.100000 28.08600
14644 SI 14644 SI SI1 14644 1.100000 28.08600
14645 SI 14645 SI SI1 14645 1.100000 28.08600
14646 SI 14646 SI SI1 14646 1.100000 28.08600
14647 SI 14647 SI SI1 14647 1.100000 28.08600
14648 SI 14648 SI SI1 14648 1.100000 28.08600
14649 SI 14649 SI SI1 14649 1.100000 28.08600
14650 SI 14650 SI SI1 14650 1.100000 28.08600
14651 SI 14651 SI SI1 14651 1.100000 28.08600
14652 SI 14652 SI SI1 14652 1.100000 28.08600
14653 SI 14653 SI SI1 14653 1.100000 28.08600
14654 SI 14654 SI SI1 14654 1.100000 28.08600
14655 SI 14655 SI SI1 14655 1.100000 28.08600
14656 SI 14656 SI SI1 14656 1.100000 28.08600
14657 SI 14657 SI SI1 14657 1.100000 28.08600
14658 SI 14658 SI SI1 14658 1.100000 28.08600
14659 SI 14659 SI SI1 14659 1.100000 28.08600
14660 SI 14660 SI SI1 14660 1.100000 28.08600
14661 SI 14661 SI SI1 14661 1.100000 28.08600
14662 SI 14662 SI SI1 14662 1.100000 28.08600
14663 SI 14663 SI SI1 14663 1.100000 28.08600
14664 SI 14664 SI SI1 14664 1.100000 28.08600
14665 SI 14665 SI SI1 14665 1.100000 28.08600
14666 SI 14666 SI SI1 14666 1.100000 28.08600
14667 SI 14667 SI SI1 14667 1.100000 28.08600
14668 SI 14668 SI SI1 14668 1.100000 28.08600
14669 SI 14669 SI SI1 14669 1.100000 28.08600
14670 SI 14670 SI SI1 14670 1.100000 28.08600
14671 SI 14671 SI SI1 14671 1.100000 28.08600
14672 SI 14672 SI SI1 14672 1.100000 28.08600
14673 SI 14673 SI SI1 14673 1.100000 28.08600
14674 SI 14674 SI SI1 14674 1.100000 28.08600
14675 SI 14675 SI SI1 14675 1.100000 28.08600
14676 SI 14676 SI SI1 14676 1.100000 28.08600
14677 SI 14677 SI SI1 14677 1.100000 28.08600
14678 SI 14678 SI SI1 14678 1.100000 28.08600
14679 SI 14679 SI SI1 14679 1.100000 28.08600
14680 SI 14680 SI SI1 14680 1.100000 28.08600
14681 SI 14681 SI SI1 14681 1.100000 28.08600
14682 SI 14682 SI SI1 14682 1.100000 28.08600
14683 SI 14683 SI SI1 14683 1.100000 28.08600
14684 SI 14684 SI SI1 14684 1.100000 28.08600
14685 SI 14685 SI SI1 14685 1.100000 28.08600
14686 SI 14686 SI SI1 14686 1.100000 28.08600
14687 SI 14687 SI SI1 14687 1.100000 28.08600
14688 SI 14688 SI SI1 14688 1.100000 28.08600
14689 SI 14689 SI SI1 14689 1.100000 28.08600
14690 SI 14690 SI SI1 14690 1.100000 28.08600
14691 SI 14691 SI SI1 14691 1.100000 28.08600
14692 SI 14692 SI SI1 14692 1.100000 28.08600
14693 SI 14693 SI SI1 14693 1.100000 28.08600
14694 SI 14694 SI SI1 14694 1.100000 28.08600
14695 SI 14695 SI SI1 14695 1.100000 28.08600
14696 SI 14696 SI SI1 14696 1.100000 28.08600
14697 SI 14697 SI SI1 14697 1.100000 28.08600
14698 SI 14698 SI SI1 14698 1.100000 28.08600
14699 SI 14699 SI SI1 14699 1.100000 28.08600
14700 SI 14700 SI SI1 14700 1.100000 28.08600
14701 SI 14701 SI SI1 14701 1.100000 28.08600
14702 SI 14702 SI SI1 14702 1.100000 28.08600
14703 SI 14703 SI SI1 14703 1.100000 28.08600
14704 SI 14704 SI SI1 14704 1.100000 28.08600
14705 SI 14705 SI SI1 14705 1.100000 28.08600
14706 SI 14706 SI SI1 14706 1.100000 28.08600
14707 SI 14707 SI SI1 14707 1.100000 28.08600
14708 SI 14708 SI SI1 14708 1.100000 28.08600
14709 SI 14709 SI SI1 14709 1.100000 28.08600
14710 SI 14710 SI SI1 14710 1.100000 28.08600
14711 SI 14711 SI SI1 14711 1.100000 28.08600
14712 SI 14712 SI SI1 14712 1.100000 28.08600
14713 SI 14713 SI SI1 14713 1.100000 28.08600
14714 SI 14714 SI SI1 14714 1.100000 28.08600
14715 SI 14715 SI SI1 14715 1.100000 28.08600
14716 SI 14716 SI SI1 14716 1.100000 28.08600
14717 SI 14717 SI SI1 14717 1.100000 28.08600
14718 SI 14718 SI SI1 14718 1.100000 28.08600
14719 SI 14719 SI SI1 14719 1.100000 28.08600
14720 SI 14720 SI SI1 14720 1.100000 28.08600
14721 SI 14721 SI SI1 14721 1.100000 28.08600
14722 SI 14722 SI SI1 14722 1.100000 28.08600
14723 SI 14723 SI SI1 14723 1.100000 28.08600
14724 SI 14724 SI SI1 14724 1.100000 28.08600
14725 SI 14725 SI SI1 14725 1.100000 28.08600
14726 SI 14726 SI SI1 14726 1.100000 28.08600
14727 SI 14727 SI SI1 14727 1.100000 28.08600
14728 SI 14728 SI SI1 14728 1.100000 28.08600
14729 SI 14729 SI SI1 14729 1.100000 28.08600
14730 SI 14730 SI SI1 14730 1.100000 28.08600
14731 SI 14731 SI SI1 14731 1.100000 28.08600
14732 SI 14732 SI SI1 14732 1.100000 28.08600
14733 SI 14733 SI SI1 14733 1.100000 28.08600
14734 SI 14734 SI SI1 14734 1.100000 28.08600
14735 SI 14735 SI SI1 14735 1.100000 28.08600
14736 SI 14736 SI SI1 14736 1.100000 28.08600
14737 SI 14737 SI SI1 14737 1.100000 28.08600
14738 SI 14738 SI SI1 14738 1.100000 28.08600
14739 SI 14739 SI SI1 14739 1.100000 28.08600
14740 SI 14740 SI SI1 14740 1.100000 28.08600
14741 SI 14741 SI SI1 14741 1.100000 28.08600
14742 SI 14742 SI SI1 14742 1.100000 28.08600
14743 SI 14743 SI SI1 14743 1.100000 28.08600
14744 SI 14744 SI SI1 14744 1.100000 28.08600
14745 SI 14745 SI SI1 14745 1.100000 28.08600
14746 SI 14746 SI SI1 14746 1.100000 28.08600
14747 SI 14747 SI SI1 14747 1.100000 28.08600
14748 SI 14748 SI SI1 14748 1.100000 28.08600
14749 SI 14749 SI SI1 14749 1.100000 28.08600
14750 SI 14750 SI SI1 14750 1.100000 28.08600
14751 SI 14751 SI SI1 14751 1.100000 28.08600
14752 SI 14752 SI SI1 14752 1.100000 28.08600
14753 SI 14753 SI SI1 14753 1.100000 28.08600
14754 SI 14754 SI SI1 14754 1.100000 28.08600
14755 SI 14755 SI SI1 14755 1.100000 28.08600
14756 SI 14756 SI SI1 14756 1.100000 28.08600
14757 SI 14757 SI SI1 14757 1.100000 28.08600
14758 SI 14758 SI SI1 14758 1.100000 28.08600
14759 SI 14759 SI SI1 14759 1.100000 28.08600
14760 SI 14760 SI SI1 14760 1.100000 28.08600
14761 SI 14761 SI SI1 14761 1.100000 28.08600
14762 SI 14762 SI SI1 14762 1.100000 28.08600
14763 SI 14763 SI SI1 14763 1.100000 28.08600
14764 SI 14764 SI SI1 14764 1.100000 28.08600
14765 SI 14765 SI SI1 14765 1.100000 28.08600
14766 SI 14766 SI SI1 14766 1.100000 28.08600
14767 SI 14767 SI SI1 14767 1.100000 28.08600
14768 SI 14768 SI SI1 14768 1.100000 28.08600
14769 SI 14769 SI SI1 14769 1.100000 28.08600
14770 SI 14770 SI SI1 14770 1.100000 28.08600
14771 SI 14771 SI SI1 14771 1.100000 28.08600
14772 SI 14772 SI SI1 14772 1.100000 28.08600
14773 SI 14773 SI SI1 14773 1.100000 28.08600
14774 SI 14774 SI SI1 14774 1.100000 28.08600
14775 SI 14775 SI SI1 14775 1.100000 28.08600
14776 SI 14776 SI SI1 14776 1.100000 28.08600
14777 SI 14777 SI SI1 14777 1.100000 28.08600
14778 SI 14778 SI SI1 14778 1.100000 28.08600
14779 SI 14779 SI SI1 14779 1.100000 28.08600
14780 SI 14780 SI SI1 14780 1.100000 28.08600
14781 SI 14781 SI SI1 14781 1.100000 28.08600
14782 SI 14782 SI SI1 14782 1.100000 28.08600
14783 SI 14783 SI SI1 14783 1.100000 28.08600
14784 SI 14784 SI SI1 14784 1.100000 28.08600
14785 SI 14785 SI SI1 14785 1.100000 28.08600
14786 SI 14786 SI SI1 14786 1.100000 28.08600
14787 SI 14787 SI SI1 14787 1.100000 28.08600
14788 SI 14788 SI SI1 14788 1.100000 28.08600
14789 SI 14789 SI SI1 14789 1.100000 28.08600
14790 SI 14790 SI SI1 14790 1.100000 28.08600
14791 SI 14791 SI SI1 14791 1.100000 28.08600
14792 SI 14792 SI SI1 14792 1.100000 28.08600
14793 SI 14793 SI SI1 14793 1.100000 28.08600
14794 SI 14794 SI SI1 14794 1.100000 28.08600
14795 SI 14795 SI SI1 14795 1.100000 28.08600
14796 SI 14796 SI SI1 14796 1.100000 28.08600
14797 SI 14797 SI SI1 14797 1.100000 28.08600
14798 SI 14798 SI SI1 14798 1.100000 28.08600
14799 SI 14799 SI SI1 14799 1.100000 28.08600
14800 SI 14800 SI SI1 14800 1.100000 28.08600
14801 SI 14801 SI SI1 14801 1.100000 28.08600
14802 SI 14802 SI SI1 14802 1.100000 28.08600
14803 SI 14803 SI SI1 14803 1.100000 28.08600
14804 SI 14804 SI SI1 14804 1.100000 28.08600
14805 SI 14805 SI SI1 14805 1.100000 28.08600
14806 SI 14806 SI SI1 14806 1.100000 28.08600
14807 SI 14807 SI SI1 14807 1.100000 28.08600
14808 SI 14808 SI SI1 14808 1.100000 28.08600
14809 SI 14809 SI SI1 14809 1.100000 28.08600
14810 SI 14810 SI SI1 14810 1.100000 28.08600
14811 SI 14811 SI SI1 14811 1.100000 28.08600
14812 SI 14812 SI SI1 14812 1.100000 28.08600
14813 SI 14813 SI SI1 14813 1.100000 28.08600
14814 SI 14814 SI SI1 14814 1.100000 28.08600
14815 SI 14815 SI SI1 14815 1.100000 28.08600
14816 SI 14816 SI SI1 14816 1.100000 28.08600
14817 SI 14817 SI SI1 14817 1.100000 28.08600
14818 SI 14818 SI SI1 14818 1.100000 28.08600
14819 SI 14819 SI SI1 14819 1.100000 28.08600
14820 SI 14820 SI SI1 14820 1.100000 28.08600
14821 SI 14821 SI SI1 14821 1.100000 28.08600
14822 SI 14822 SI SI1 14822 1.100000 28.08600
14823 SI 14823 SI SI1 14823 1.100000 28.08600
14824 SI 14824 SI SI1 14824 1.100000 28.08600
14825 SI 14825 SI SI1 14825 1.100000 28.08600
14826 SI 14826 SI SI1 14826 1.100000 28.08600
14827 SI 14827 SI SI1 14827 1.100000 28.08600
14828 SI 14828 SI SI1 14828 1.100000 28.08600
14829 SI 14829 SI SI1 14829 1.100000 28.08600
14830 SI 14830 SI SI1 14830 1.100000 28.08600
14831 SI 14831 SI SI1 14831 1.100000 28.08600
14832 SI 14832 SI SI1 14832 1.100000 28.08600
14833 SI 14833 SI SI1 14833 1.100000 28.08600
14834 SI 14834 SI SI1 14834 1.100000 28.08600
14835 SI 14835 SI SI1 14835 1.100000 28.08600
14836 SI 14836 SI SI1 14836 1.100000 28.08600
14837 SI 14837 SI SI1 14837 1.100000 28.08600
14838 SI 14838 SI SI1 14838 1.100000 28.08600
14839 SI 14839 SI SI1 14839 1.100000 28.08600
14840 SI 14840 SI SI1 14840 1.100000 28.08600
14841 SI 14841 SI SI1 14841 1.100000 28.08600
14842 SI 14842 SI SI1 14842 1.100000 28.08600
14843 SI 14843 SI SI1 14843 1.100000 28.08600
14844 SI 14844 SI SI1 14844 1.100000 28.08600
14845 SI 14845 SI SI1 14845 1.100000 28.08600
14846 SI 14846 SI SI1 14846 1.100000 28.08600
14847 SI 14847 SI SI1 14847 1.100000 28.08600
14848 SI 14848 SI SI1 14848 1.100000 28.08600
14849 SI 14849 SI SI1 14849 1.100000 28.08600
14850 SI 14850 SI SI1 14850 1.100000 28.08600
14851 SI 14851 SI SI1 14851 1.100000 28.08600
14852 SI 14852 SI SI1 14852 1.100000 28.08600
14853 SI 14853 SI SI1 14853 1.100000 28.08600
14854 SI 14854 SI SI1 14854 1.100000 28.08600
14855 SI 14855 SI SI1 14855 1.100000 28.08600
14856 SI 14856 SI SI1 14856 1.100000 28.08600
14857 SI 14857 SI SI1 14857 1.100000 28.08600
14858 SI 14858 SI SI1 14858 1.100000 28.08600
14859 SI 14859 SI SI1 14859 1.100000 28.08600
14860 SI 14860 SI SI1 14860 1.100000 28.08600
14861 SI 14861 SI SI1 14861 1.100000 28.08600
14862 SI 14862 SI SI1 14862 1.100000 28.08600
14863 SI 14863 SI SI1 14863 1.100000 28.08600
14864 SI 14864 SI SI1 14864 1.100000 28.08600
14865 SI 14865 SI SI1 14865 1.100000 28.08600
14866 SI 14866 SI SI1 14866 1.100000 28.08600
14867 SI 14867 SI SI1 14867 1.100000 28.08600
14868 SI 14868 SI SI1 14868 1.100000 28.08600
14869 SI 14869 SI SI1 14869 1.100000 28.08600
14870 SI 14870 SI SI1 14870 1.100000 28.08600
14871 SI 14871 SI SI1 14871 1.100000 28.08600
14872 SI 14872 SI SI1 14872 1.100000 28.08600
14873 SI 14873 SI SI1 14873 1.100000 28.08600
14874 SI 14874 SI SI1 14874 1.100000 28.08600
14875 SI 14875 SI SI1 14875 1.100000 28.08600
14876 SI 14876 SI SI1 14876 1.100000 28.08600
14877 SI 14877 SI SI1 14877 1.100000 28.08600
14878 SI 14878 SI SI1 14878 1.100000 28.08600
14879 SI 14879 SI SI1 14879 1.100000 28.08600
14880 SI 14880 SI SI1 14880 1.100000 28.08600
14881 SI 14881 SI SI1 14881 1.100000 28.08600
14882 SI 14882 SI SI1 14882 1.100000 28.08600
14883 SI 14883 SI SI1 14883 1.100000 28.08600
14884 SI 14884 SI SI1 14884 1.100000 28.08600
14885 SI 14885 SI SI1 14885 1.100000 28.08600
14886 SI 14886 SI SI1 14886 1.100000 28.08600
14887 SI 14887 SI SI1 14887 1.100000 28.08600
14888 SI 14888 SI SI1 14888 1.100000 28.08600
14889 SI 14889 SI SI1 14889 1.100000 28.08600
14890 SI 14890 SI SI1 14890 1.100000 28.08600
14891 SI 14891 SI SI1 14891 1.100000 28.08600
14892 SI 14892 SI SI1 14892 1.100000 28.08600
14893 SI 14893 SI SI1 14893 1.100000 28.08600
14894 SI 14894 SI SI1 14894 1.100000 28.08600
14895 SI 14895 SI SI1 14895 1.100000 28.08600
14896 SI 14896 SI SI1 14896 1.100000 28.08600
14897 SI 14897 SI SI1 14897 1.100000 28.08600
14898 SI 14898 SI SI1 14898 1.100000 28.08600
14899 SI 14899 SI SI1 14899 1.100000 28.08600
14900 SI 14900 SI SI1 14900 1.100000 28.08600
14901 SI 14901 SI SI1 14901 1.100000 28.08600
14902 SI 14902 SI SI1 14902 1.100000 28.08600
14903 SI 14903 SI SI1 14903 1.100000 28.08600
14904 SI 14904 SI SI1 14904 1.100000 28.08600
14905 SI 14905 SI SI1 14905 1.100000 28.08600
14906 SI 14906 SI SI1 14906 1.100000 28.08600
14907 SI 14907 SI SI1 14907 1.100000 28.08600
14908 SI 14908 SI SI1 14908 1.100000 28.08600
14909 SI 14909 SI SI1 14909 1.100000 28.08600
14910 SI 14910 SI SI1 14910 1.100000 28.08600
14911 SI 14911 SI SI1 14911 1.100000 28.08600
14912 SI 14912 SI SI1 14912 1.100000 28.08600
14913 SI 14913 SI SI1 14913 1.100000 28.08600
14914 SI 14914 SI SI1 14914 1.100000 28.08600
14915 SI 14915 SI SI1 14915 1.100000 28.08600
14916 SI 14916 SI SI1 14916 1.100000 28.08600
14917 SI 14917 SI SI1 14917 1.100000 28.08600
14918 SI 14918 SI SI1 14918 1.100000 28.08600
14919 SI 14919 SI SI1 14919 1.100000 28.08600
14920 SI 14920 SI SI1 14920 1.100000 28.08600
14921 SI 14921 SI SI1 14921 1.100000 28.08600
14922 SI 14922 SI SI1 14922 1.100000 28.08600
14923 SI 14923 SI SI1 14923 1.100000 28.08600
14924 SI 14924 SI SI1 14924 1.100000 28.08600
14925 SI 14925 SI SI1 14925 1.100000 28.08600
14926 SI 14926 SI SI1 14926 1.100000 28.08600
14927 SI 14927 SI SI1 14927 1.100000 28.08600
14928 SI 14928 SI SI1 14928 1.100000 28.08600
14929 SI 14929 SI SI1 14929 1.100000 28.08600
14930 SI 14930 SI SI1 14930 1.100000 28.08600
14931 SI 14931 SI SI1 14931 1.100000 28.08600
14932 SI 14932 SI SI1 14932 1.100000 28.08600
14933 SI 14933 SI SI1 14933 1.100000 28.08600
14934 SI 14934 SI SI1 14934 1.100000 28.08600
14935 SI 14935 SI SI1 14935 1.100000 28.08600
14936 SI 14936 SI SI1 14936 1.100000 28.08600
14937 SI 14937 SI SI1 14937 1.100000 28.08600
14938 SI 14938 SI SI1 14938 1.100000 28.08600
14939 SI 14939 SI SI1 14939 1.100000 28.08600
14940 SI 14940 SI SI1 14940 1.100000 28.08600
14941 SI 14941 SI SI1 14941 1.100000 28.08600
14942 SI 14942 SI SI1 14942 1.100000 28.08600
14943 SI 14943 SI SI1 14943 1.100000 28.08600
14944 SI 14944 SI SI1 14944 1.100000 28.08600
14945 SI 14945 SI SI1 14945 1.100000 28.08600
14946 SI 14946 SI SI1 14946 1.100000 28.08600
14947 SI 14947 SI SI1 14947 1.100000 28.08600
14948 SI 14948 SI SI1 14948 1.100000 28.08600
14949 SI 14949 SI SI1 14949 1.100000 28.08600
14950 SI 14950 SI SI1 14950 1.100000 28.08600
14951 SI 14951 SI SI1 14951 1.100000 28.08600
14952 SI 14952 SI SI1 14952 1.100000 28.08600
14953 SI 14953 SI SI1 14953 1.100000 28.08600
14954 SI 14954 SI SI1 14954 1.100000 28.08600
14955 SI 14955 SI SI1 14955 1.100000 28.08600
14956 SI 14956 SI SI1 14956 1.100000 28.08600
14957 SI 14957 SI SI1 14957 1.100000 28.08600
14958 SI 14958 SI SI1 14958 1.100000 28.08600
14959 SI 14959 SI SI1 14959 1.100000 28.08600
14960 SI 14960 SI SI1 14960 1.100000 28.08600
14961 SI 14961 SI SI1 14961 1.100000 28.08600
14962 SI 14962 SI SI1 14962 1.100000 28.08600
14963 SI 14963 SI SI1 14963 1.100000 28.08600
14964 SI 14964 SI SI1 14964 1.100000 28.08600
14965 SI 14965 SI SI1 14965 1.100000 28.08600
14966 SI 14966 SI SI1 14966 1.100000 28.08600
14967 SI 14967 SI SI1 14967 1.100000 28.08600
14968 SI 14968 SI SI1 14968 1.100000 28.08600
14969 SI 14969 SI SI1 14969 1.100000 28.08600
14970 SI 14970 SI SI1 14970 1.100000 28.08600
14971 SI 14971 SI SI1 14971 1.100000 28.08600
14972 SI 14972 SI SI1 14972 1.100000 28.08600
14973 SI 14973 SI SI1 14973 1.100000 28.08600
14974 SI 14974 SI SI1 14974 1.100000 28.08600
14975 SI 14975 SI SI1 14975 1.100000 28.08600
14976 SI 14976 SI SI1 14976 1.100000 28.08600
14977 SI 14977 SI SI1 14977 1.100000 28.08600
14978 SI 14978 SI SI1 14978 1.100000 28.08600
14979 SI 14979 SI SI1 14979 1.100000 28.08600
14980 SI 14980 SI SI1 14980 1.100000 28.08600
14981 SI 14981 SI SI1 14981 1.100000 28.08600
14982 SI 14982 SI SI1 14982 1.100000 28.08600
14983 SI 14983 SI SI1 14983 1.100000 28.08600
14984 SI 14984 SI SI1 14984 1.100000 28.08600
14985 SI 14985 SI SI1 14985 1.100000 28.08600
14986 SI 14986 SI SI1 14986 1.100000 28.08600
14987 SI 14987 SI SI1 14987 1.100000 28.08600
14988 SI 14988 SI SI1 14988 1.100000 28.08600
14989 SI 14989 SI SI1 14989 1.100000 28.08600
14990 SI 14990 SI SI1 14990 1.100000 28.08600
14991 SI 14991 SI SI1 14991 1.100000 28.08600
14992 SI 14992 SI SI1 14992 1.100000 28.08600
14993 SI 14993 SI SI1 14993 1.100000 28.08600
14994 SI 14994 SI SI1 14994 1.100000 28.08600
14995 SI 14995 SI SI1 14995 1.100000 28.08600
14996 SI 14996 SI SI1 14996 1.100000 28.08600
14997 SI 14997 SI SI1 14997 1.100000 28.08600
14998 SI 14998 SI SI1 14998 1.100000 28.08600
14999 SI 14999 SI SI1 14999 1.100000 28.08600
15000 SI 15000 SI SI1 15000 1.100000 28.08600
15001 SI 15001 SI SI1 15001 1.100000 28.08600
15002 SI 15002 SI SI1 15002 1.100000 28.08600
15003 SI 15003 SI SI1 15003 1.100000 28.08600
15004 SI 15004 SI SI1 15004 1.100000 28.08600
15005 SI 15005 SI SI1 15005 1.100000 28.08600
15006 SI 15006 SI SI1 15006 1.100000 28.08600
15007 SI 15007 SI SI1 15007 1.100000 28.08600
15008 SI 15008 SI SI1 15008 1.100000 28.08600
15009 SI 15009 SI SI1 15009 1.100000 28.08600
15010 SI 15010 SI SI1 15010 1.100000 28.08600
15011 SI 15011 SI SI1 15011 1.100000 28.08600
15012 SI 15012 SI SI1 15012 1.100000 28.08600
15013 SI 15013 SI SI1 15013 1.100000 28.08600
15014 SI 15014 SI SI1 15014 1.100000 28.08600
15015 SI 15015 SI SI1 15015 1.100000 28.08600
15016 SI 15016 SI SI1 15016 1.100000 28.08600
15017 SI 15017 SI SI1 15017 1.100000 28.08600
15018 SI 15018 SI SI1 15018 1.100000 28.08600
15019 SI 15019 SI SI1 15019 1.100000 28.08600
15020 SI 15020 SI SI1 15020 1.100000 28.08600
15021 SI 15021 SI SI1 15021 1.100000 28.08600
15022 SI 15022 SI SI1 15022 1.100000 28.08600
15023 SI 15023 SI SI1 15023 1.100000 28.08600
15024 SI 15024 SI SI1 15024 1.100000 28.08600
15025 SI 15025 SI SI1 15025 1.100000 28.08600
15026 SI 15026 SI SI1 15026 1.100000 28.08600
15027 SI 15027 SI SI1 15027 1.100000 28.08600
15028 SI 15028 SI SI1 15028 1.100000 28.08600
15029 SI 15029 SI SI1 15029 1.100000 28.08600
15030 SI 15030 SI SI1 15030 1.100000 28.08600
15031 SI 15031 SI SI1 15031 1.100000 28.08600
15032 SI 15032 SI SI1 15032 1.100000 28.08600
15033 SI 15033 SI SI1 15033 1.100000 28.08600
15034 SI 15034 SI SI1 15034 1.100000 28.08600
15035 SI 15035 SI SI1 15035 1.100000 28.08600
15036 SI 15036 SI SI1 15036 1.100000 28.08600
15037 SI 15037 SI SI1 15037 1.100000 28.08600
15038 SI 15038 SI SI1 15038 1.100000 28.08600
15039 SI 15039 SI SI1 15039 1.100000 28.08600
15040 SI 15040 SI SI1 15040 1.100000 28.08600
15041 SI 15041 SI SI1 15041 1.100000 28.08600
15042 SI 15042 SI SI1 15042 1.100000 28.08600
15043 SI 15043 SI SI1 15043 1.100000 28.08600
15044 SI 15044 SI SI1 15044 1.100000 28.08600
15045 SI 15045 SI SI1 15045 1.100000 28.08600
15046 SI 15046 SI SI1 15046 1.100000 28.08600
15047 SI 15047 SI SI1 15047 1.100000 28.08600
15048 SI 15048 SI SI1 15048 1.100000 28.08600
15049 SI 15049 SI SI1 15049 1.100000 28.08600
15050 SI 15050 SI SI1 15050 1.100000 28.08600
15051 SI 15051 SI SI1 15051 1.100000 28.08600
15052 SI 15052 SI SI1 15052 1.100000 28.08600
15053 SI 15053 SI SI1 15053 1.100000 28.08600
15054 SI 15054 SI SI1 15054 1.100000 28.08600
15055 SI 15055 SI SI1 15055 1.100000 28.08600
15056 SI 15056 SI SI1 15056 1.100000 28.08600
15057 SI 15057 SI SI1 15057 1.100000 28.08600
15058 SI 15058 SI SI1 15058 1.100000 28.08600
15059 SI 15059 SI SI1 15059 1.100000 28.08600
15060 SI 15060 SI SI1 15060 1.100000 28.08600
15061 SI 15061 SI SI1 15061 1.100000 28.08600
15062 SI 15062 SI SI1 15062 1.100000 28.08600
15063 SI 15063 SI SI1 15063 1.100000 28.08600
15064 SI 15064 SI SI1 15064 1.100000 28.08600
15065 SI 15065 SI SI1 15065 1.100000 28.08600
15066 SI 15066 SI SI1 15066 1.100000 28.08600
15067 SI 15067 SI SI1 15067 1.100000 28.08600
15068 SI 15068 SI SI1 15068 1.100000 28.08600
15069 SI 15069 SI SI1 15069 1.100000 28.08600
15070 SI 15070 SI SI1 15070 1.100000 28.08600
15071 SI 15071 SI SI1 15071 1.100000 28.08600
15072 SI 15072 SI SI1 15072 1.100000 28.08600
15073 SI 15073 SI SI1 15073 1.100000 28.08600
15074 SI 15074 SI SI1 15074 1.100000 28.08600
15075 SI 15075 SI SI1 15075 1.100000 28.08600
15076 SI 15076 SI SI1 15076 1.100000 28.08600
15077 SI 15077 SI SI1 15077 1.100000 28.08600
15078 SI 15078 SI SI1 15078 1.100000 28.08600
15079 SI 15079 SI SI1 15079 1.100000 28.08600
15080 SI 15080 SI SI1 15080 1.100000 28.08600
15081 SI 15081 SI SI1 15081 1.100000 28.08600
15082 SI 15082 SI SI1 15082 1.100000 28.08600
15083 SI 15083 SI SI1 15083 1.100000 28.08600
15084 SI 15084 SI SI1 15084 1.100000 28.08600
15085 SI 15085 SI SI1 15085 1.100000 28.08600
15086 SI 15086 SI SI1 15086 1.100000 28.08600
15087 SI 15087 SI SI1 15087 1.100000 28.08600
15088 SI 15088 SI SI1 15088 1.100000 28.08600
15089 SI 15089 SI SI1 15089 1.100000 28.08600
15090 SI 15090 SI SI1 15090 1.100000 28.08600
15091 SI 15091 SI SI1 15091 1.100000 28.08600
15092 SI 15092 SI SI1 15092 1.100000 28.08600
15093 SI 15093 SI SI1 15093 1.100000 28.08600
15094 SI 15094 SI SI1 15094 1.100000 28.08600
15095 SI 15095 SI SI1 15095 1.100000 28.08600
15096 SI 15096 SI SI1 15096 1.100000 28.08600
15097 SI 15097 SI SI1 15097 1.100000 28.08600
15098 SI 15098 SI SI1 15098 1.100000 28.08600
15099 SI 15099 SI SI1 15099 1.100000 28.08600
15100 SI 15100 SI SI1 15100 1.100000 28.08600
15101 SI 15101 SI SI1 15101 1.100000 28.08600
15102 SI 15102 SI SI1 15102 1.100000 28.08600
15103 SI 15103 SI SI1 15103 1.100000 28.08600
15104 SI 15104 SI SI1 15104 1.100000 28.08600
15105 SI 15105 SI SI1 15105 1.100000 28.08600
15106 SI 15106 SI SI1 15106 1.100000 28.08600
15107 SI 15107 SI SI1 15107 1.100000 28.08600
15108 SI 15108 SI SI1 15108 1.100000 28.08600
15109 SI 15109 SI SI1 15109 1.100000 28.08600
15110 SI 15110 SI SI1 15110 1.100000 28.08600
15111 SI 15111 SI SI1 15111 1.100000 28.08600
15112 SI 15112 SI SI1 15112 1.100000 28.08600
15113 SI 15113 SI SI1 15113 1.100000 28.08600
15114 SI 15114 SI SI1 15114 1.100000 28.08600
15115 SI 15115 SI SI1 15115 1.100000 28.08600
15116 SI 15116 SI SI1 15116 1.100000 28.08600
15117 SI 15117 SI SI1 15117 1.100000 28.08600
15118 SI 15118 SI SI1 15118 1.100000 28.08600
15119 SI 15119 SI SI1 15119 1.100000 28.08600
15120 SI 15120 SI SI1 15120 1.100000 28.08600
15121 SI 15121 SI SI1 15121 1.100000 28.08600
15122 SI 15122 SI SI1 15122 1.100000 28.08600
15123 SI 15123 SI SI1 15123 1.100000 28.08600
15124 SI 15124 SI SI1 15124 1.100000 28.08600
15125 SI 15125 SI SI1 15125 1.100000 28.08600
15126 SI 15126 SI SI1 15126 1.100000 28.08600
15127 SI 15127 SI SI1 15127 1.100000 28.08600
15128 SI 15128 SI SI1 15128 1.100000 28.08600
15129 SI 15129 SI SI1 15129 1.100000 28.08600
15130 SI 15130 SI SI1 15130 1.100000 28.08600
15131 SI 15131 SI SI1 15131 1.100000 28.08600
15132 SI 15132 SI SI1 15132 1.100000 28.08600
15133 SI 15133 SI SI1 15133 1.100000 28.08600
15134 SI 15134 SI SI1 15134 1.100000 28.08600
15135 SI 15135 SI SI1 15135 1.100000 28.08600
15136 SI 15136 SI SI1 15136 1.100000 28.08600
15137 SI 15137 SI SI1 15137 1.100000 28.08600
15138 SI 15138 SI SI1 15138 1.100000 28.08600
15139 SI 15139 SI SI1 15139 1.100000 28.08600
15140 SI 15140 SI SI1 15140 1.100000 28.08600
15141 SI 15141 SI SI1 15141 1.100000 28.08600
15142 SI 15142 SI SI1 15142 1.100000 28.08600
15143 SI 15143 SI SI1 15143 1.100000 28.08600
15144 SI 15144 SI SI1 15144 1.100000 28.08600
15145 SI 15145 SI SI1 15145 1.100000 28.08600
15146 SI 15146 SI SI1 15146 1.100000 28.08600
15147 SI 15147 SI SI1 15147 1.100000 28.08600
15148 SI 15148 SI SI1 15148 1.100000 28.08600
15149 SI 15149 SI SI1 15149 1.100000 28.08600
15150 SI 15150 SI SI1 15150 1.100000 28.08600
15151 SI 15151 SI SI1 15151 1.100000 28.08600
15152 SI 15152 SI SI1 15152 1.100000 28.08600
15153 SI 15153 SI SI1 15153 1.100000 28.08600
15154 SI 15154 SI SI1 15154 1.100000 28.08600
15155 SI 15155 SI SI1 15155 1.100000 28.08600
15156 SI 15156 SI SI1 15156 1.100000 28.08600
15157 SI 15157 SI SI1 15157 1.100000 28.08600
15158 SI 15158 SI SI1 15158 1.100000 28.08600
15159 SI 15159 SI SI1 15159 1.100000 28.08600
15160 SI 15160 SI SI1 15160 1.100000 28.08600
15161 SI 15161 SI SI1 15161 1.100000 28.08600
15162 SI 15162 SI SI1 15162 1.100000 28.08600
15163 SI 15163 SI SI1 15163 1.100000 28.08600
15164 SI 15164 SI SI1 15164 1.100000 28.08600
15165 SI 15165 SI SI1 15165 1.100000 28.08600
15166 SI 15166 SI SI1 15166 1.100000 28.08600
15167 SI 15167 SI SI1 15167 1.100000 28.08600
15168 SI 15168 SI SI1 15168 1.100000 28.08600
15169 SI 15169 SI SI1 15169 1.100000 28.08600
15170 SI 15170 SI SI1 15170 1.100000 28.08600
15171 SI 15171 SI SI1 15171 1.100000 28.08600
15172 SI 15172 SI SI1 15172 1.100000 28.08600
15173 SI 15173 SI SI1 15173 1.100000 28.08600
15174 SI 15174 SI SI1 15174 1.100000 28.08600
15175 SI 15175 SI SI1 15175 1.100000 28.08600
15176 SI 15176 SI SI1 15176 1.100000 28.08600
15177 SI 15177 SI SI1 15177 1.100000 28.08600
15178 SI 15178 SI SI1 15178 1.100000 28.08600
15179 SI 15179 SI SI1 15179 1.100000 28.08600
15180 SI 15180 SI SI1 15180 1.100000 28.08600
15181 SI 15181 SI SI1 15181 1.100000 28.08600
15182 SI 15182 SI SI1 15182 1.100000 28.08600
15183 SI 15183 SI SI1 15183 1.100000 28.08600
15184 SI 15184 SI SI1 15184 1.100000 28.08600
15185 SI 15185 SI SI1 15185 1.100000 28.08600
15186 SI 15186 SI SI1 15186 1.100000 28.08600
15187 SI 15187 SI SI1 15187 1.100000 28.08600
15188 SI 15188 SI SI1 15188 1.100000 28.08600
15189 SI 15189 SI SI1 15189 1.100000 28.08600
15190 SI 15190 SI SI1 15190 1.100000 28.08600
15191 SI 15191 SI SI1 15191 1.100000 28.08600
15192 SI 15192 SI SI1 15192 1.100000 28.08600
15193 SI 15193 SI SI1 15193 1.100000 28.08600
15194 SI 15194 SI SI1 15194 1.100000 28.08600
15195 SI 15195 SI SI1 15195 1.100000 28.08600
15196 SI 15196 SI SI1 15196 1.100000 28.08600
15197 SI 15197 SI SI1 15197 1.100000 28.08600
15198 SI 15198 SI SI1 15198 1.100000 28.08600
15199 SI 15199 SI SI1 15199 1.100000 28.08600
15200 SI 15200 SI SI1 15200 1.100000 28.08600
15201 SI 15201 SI SI1 15201 1.100000 28.08600
15202 SI 15202 SI SI1 15202 1.100000 28.08600
15203 SI 15203 SI SI1 15203 1.100000 28.08600
15204 SI 15204 SI SI1 15204 1.100000 28.08600
15205 SI 15205 SI SI1 15205 1.100000 28.08600
15206 SI 15206 SI SI1 15206 1.100000 28.08600
15207 SI 15207 SI SI1 15207 1.100000 28.08600
15208 SI 15208 SI SI1 15208 1.100000 28.08600
15209 SI 15209 SI SI1 15209 1.100000 28.08600
15210 SI 15210 SI SI1 15210 1.100000 28.08600
15211 SI 15211 SI SI1 15211 1.100000 28.08600
15212 SI 15212 SI SI1 15212 1.100000 28.08600
15213 SI 15213 SI SI1 15213 1.100000 28.08600
15214 SI 15214 SI SI1 15214 1.100000 28.08600
15215 SI 15215 SI SI1 15215 1.100000 28.08600
15216 SI 15216 SI SI1 15216 1.100000 28.08600
15217 SI 15217 SI SI1 15217 1.100000 28.08600
15218 SI 15218 SI SI1 15218 1.100000 28.08600
15219 SI 15219 SI SI1 15219 1.100000 28.08600
15220 SI 15220 SI SI1 15220 1.100000 28.08600
15221 SI 15221 SI SI1 15221 1.100000 28.08600
15222 SI 15222 SI SI1 15222 1.100000 28.08600
15223 SI 15223 SI SI1 15223 1.100000 28.08600
15224 SI 15224 SI SI1 15224 1.100000 28.08600
15225 SI 15225 SI SI1 15225 1.100000 28.08600
15226 SI 15226 SI SI1 15226 1.100000 28.08600
15227 SI 15227 SI SI1 15227 1.100000 28.08600
15228 SI 15228 SI SI1 15228 1.100000 28.08600
15229 SI 15229 SI SI1 15229 1.100000 28.08600
15230 SI 15230 SI SI1 15230 1.100000 28.08600
15231 SI 15231 SI SI1 15231 1.100000 28.08600
15232 SI 15232 SI SI1 15232 1.100000 28.08600
15233 SI 15233 SI SI1 15233 1.100000 28.08600
15234 SI 15234 SI SI1 15234 1.100000 28.08600
15235 SI 15235 SI SI1 15235 1.100000 28.08600
15236 SI 15236 SI SI1 15236 1.100000 28.08600
15237 SI 15237 SI SI1 15237 1.100000 28.08600
15238 SI 15238 SI SI1 15238 1.100000 28.08600
15239 SI 15239 SI SI1 15239 1.100000 28.08600
15240 SI 15240 SI SI1 15240 1.100000 28.08600
15241 SI 15241 SI SI1 15241 1.100000 28.08600
15242 SI 15242 SI SI1 15242 1.100000 28.08600
15243 SI 15243 SI SI1 15243 1.100000 28.08600
15244 SI 15244 SI SI1 15244 1.100000 28.08600
15245 SI 15245 SI SI1 15245 1.100000 28.08600
15246 SI 15246 SI SI1 15246 1.100000 28.08600
15247 SI 15247 SI SI1 15247 1.100000 28.08600
15248 SI 15248 SI SI1 15248 1.100000 28.08600
15249 SI 15249 SI SI1 15249 1.100000 28.08600
15250 SI 15250 SI SI1 15250 1.100000 28.08600
15251 SI 15251 SI SI1 15251 1.100000 28.08600
15252 SI 15252 SI SI1 15252 1.100000 28.08600
15253 SI 15253 SI SI1 15253 1.100000 28.08600
15254 SI 15254 SI SI1 15254 1.100000 28.08600
15255 SI 15255 SI SI1 15255 1.100000 28.08600
15256 SI 15256 SI SI1 15256 1.100000 28.08600
15257 SI 15257 SI SI1 15257 1.100000 28.08600
15258 SI 15258 SI SI1 15258 1.100000 28.08600
15259 SI 15259 SI SI1 15259 1.100000 28.08600
15260 SI 15260 SI SI1 15260 1.100000 28.08600
15261 SI 15261 SI SI1 15261 1.100000 28.08600
15262 SI 15262 SI SI1 15262 1.100000 28.08600
15263 SI 15263 SI SI1 15263 1.100000 28.08600
15264 SI 15264 SI SI1 15264 1.100000 28.08600
15265 SI 15265 SI SI1 15265 1.100000 28.08600
15266 SI 15266 SI SI1 15266 1.100000 28.08600
15267 SI 15267 SI SI1 15267 1.100000 28.08600
15268 SI 15268 SI SI1 15268 1.100000 28.08600
15269 SI 15269 SI SI1 15269 1.100000 28.08600
15270 SI 15270 SI SI1 15270 1.100000 28.08600
15271 SI 15271 SI SI1 15271 1.100000 28.08600
15272 SI 15272 SI SI1 15272 1.100000 28.08600
15273 SI 15273 SI SI1 15273 1.100000 28.08600
15274 SI 15274 SI SI1 15274 1.100000 28.08600
15275 SI 15275 SI SI1 15275 1.100000 28.08600
15276 SI 15276 SI SI1 15276 1.100000 28.08600
15277 SI 15277 SI SI1 15277 1.100000 28.08600
15278 SI 15278 SI SI1 15278 1.100000 28.08600
15279 SI 15279 SI SI1 15279 1.100000 28.08600
15280 SI 15280 SI SI1 15280 1.100000 28.08600
15281 SI 15281 SI SI1 15281 1.100000 28.08600
15282 SI 15282 SI SI1 15282 1.100000 28.08600
15283 SI 15283 SI SI1 15283 1.100000 28.08600
15284 SI 15284 SI SI1 15284 1.100000 28.08600
15285 SI 15285 SI SI1 15285 1.100000 28.08600
15286 SI 15286 SI SI1 15286 1.100000 28.08600
15287 SI 15287 SI SI1 15287 1.100000 28.08600
15288 SI 15288 SI SI1 15288 1.100000 28.08600
15289 SI 15289 SI SI1 15289 1.100000 28.08600
15290 SI 15290 SI SI1 15290 1.100000 28.08600
15291 SI 15291 SI SI1 15291 1.100000 28.08600
15292 SI 15292 SI SI1 15292 1.100000 28.08600
15293 SI 15293 SI SI1 15293 1.100000 28.08600
15294 SI 15294 SI SI1 15294 1.100000 28.08600
15295 SI 15295 SI SI1 15295 1.100000 28.08600
15296 SI 15296 SI SI1 15296 1.100000 28.08600
15297 SI 15297 SI SI1 15297 1.100000 28.08600
15298 SI 15298 SI SI1 15298 1.100000 28.08600
15299 SI 15299 SI SI1 15299 1.100000 28.08600
15300 SI 15300 SI SI1 15300 1.100000 28.08600
15301 SI 15301 SI SI1 15301 1.100000 28.08600
15302 SI 15302 SI SI1 15302 1.100000 28.08600
15303 SI 15303 SI SI1 15303 1.100000 28.08600
15304 SI 15304 SI SI1 15304 1.100000 28.08600
15305 SI 15305 SI SI1 15305 1.100000 28.08600
15306 SI 15306 SI SI1 15306 1.100000 28.08600
15307 SI 15307 SI SI1 15307 1.100000 28.08600
15308 SI 15308 SI SI1 15308 1.100000 28.08600
15309 SI 15309 SI SI1 15309 1.100000 28.08600
15310 SI 15310 SI SI1 15310 1.100000 28.08600
15311 SI 15311 SI SI1 15311 1.100000 28.08600
15312 SI 15312 SI SI1 15312 1.100000 28.08600
15313 SI 15313 SI SI1 15313 1.100000 28.08600
15314 SI 15314 SI SI1 15314 1.100000 28.08600
15315 SI 15315 SI SI1 15315 1.100000 28.08600
15316 SI 15316 SI SI1 15316 1.100000 28.08600
15317 SI 15317 SI SI1 15317 1.100000 28.08600
15318 SI 15318 SI SI1 15318 1.100000 28.08600
15319 SI 15319 SI SI1 15319 1.100000 28.08600
15320 SI 15320 SI SI1 15320 1.100000 28.08600
15321 SI 15321 SI SI1 15321 1.100000 28.08600
15322 SI 15322 SI SI1 15322 1.100000 28.08600
15323 SI 15323 SI SI1 15323 1.100000 28.08600
15324 SI 15324 SI SI1 15324 1.100000 28.08600
15325 SI 15325 SI SI1 15325 1.100000 28.08600
15326 SI 15326 SI SI1 15326 1.100000 28.08600
15327 SI 15327 SI SI1 15327 1.100000 28.08600
15328 SI 15328 SI SI1 15328 1.100000 28.08600
15329 SI 15329 SI SI1 15329 1.100000 28.08600
15330 SI 15330 SI SI1 15330 1.100000 28.08600
15331 SI 15331 SI SI1 15331 1.100000 28.08600
15332 SI 15332 SI SI1 15332 1.100000 28.08600
15333 SI 15333 SI SI1 15333 1.100000 28.08600
15334 SI 15334 SI SI1 15334 1.100000 28.08600
15335 SI 15335 SI SI1 15335 1.100000 28.08600
15336 SI 15336 SI SI1 15336 1.100000 28.08600
15337 SI 15337 SI SI1 15337 1.100000 28.08600
15338 SI 15338 SI SI1 15338 1.100000 28.08600
15339 SI 15339 SI SI1 15339 1.100000 28.08600
15340 SI 15340 SI SI1 15340 1.100000 28.08600
15341 SI 15341 SI SI1 15341 1.100000 28.08600
15342 SI 15342 SI SI1 15342 1.100000 28.08600
15343 SI 15343 SI SI1 15343 1.100000 28.08600
15344 SI 15344 SI SI1 15344 1.100000 28.08600
15345 SI 15345 SI SI1 15345 1.100000 28.08600
15346 SI 15346 SI SI1 15346 1.100000 28.08600
15347 SI 15347 SI SI1 15347 1.100000 28.08600
15348 SI 15348 SI SI1 15348 1.100000 28.08600
15349 SI 15349 SI SI1 15349 1.100000 28.08600
15350 SI 15350 SI SI1 15350 1.100000 28.08600
15351 SI 15351 SI SI1 15351 1.100000 28.08600
15352 SI 15352 SI SI1 15352 1.100000 28.08600
15353 SI 15353 SI SI1 15353 1.100000 28.08600
15354 SI 15354 SI SI1 15354 1.100000 28.08600
15355 SI 15355 SI SI1 15355 1.100000 28.08600
15356 SI 15356 SI SI1 15356 1.100000 28.08600
15357 SI 15357 SI SI1 15357 1.100000 28.08600
15358 SI 15358 SI SI1 15358 1.100000 28.08600
15359 SI 15359 SI SI1 15359 1.100000 28.08600
15360 SI 15360 SI SI1 15360 1.100000 28.08600
15361 SI 15361 SI SI1 15361 1.100000 28.08600
15362 SI 15362 SI SI1 15362 1.100000 28.08600
15363 SI 15363 SI SI1 15363 1.100000 28.08600
15364 SI 15364 SI SI1 15364 1.100000 28.08600
15365 SI 15365 SI SI1 15365 1.100000 28.08600
15366 SI 15366 SI SI1 15366 1.100000 28.08600
15367 SI 15367 SI SI1 15367 1.100000 28.08600
15368 SI 15368 SI SI1 15368 1.100000 28.08600
15369 SI 15369 SI SI1 15369 1.100000 28.08600
15370 SI 15370 SI SI1 15370 1.100000 28.08600
15371 SI 15371 SI SI1 15371 1.100000 28.08600
15372 SI 15372 SI SI1 15372 1.100000 28.08600
15373 SI 15373 SI SI1 15373 1.100000 28.08600
15374 SI 15374 SI SI1 15374 1.100000 28.08600
15375 SI 15375 SI SI1 15375 1.100000 28.08600
15376 SI 15376 SI SI1 15376 1.100000 28.08600
15377 SI 15377 SI SI1 15377 1.100000 28.08600
15378 SI 15378 SI SI1 15378 1.100000 28.08600
15379 SI 15379 SI SI1 15379 1.100000 28.08600
15380 SI 15380 SI SI1 15380 1.100000 28.08600
15381 SI 15381 SI SI1 15381 1.100000 28.08600
15382 SI 15382 SI SI1 15382 1.100000 28.08600
15383 SI 15383 SI SI1 15383 1.100000 28.08600
15384 SI 15384 SI SI1 15384 1.100000 28.08600
15385 SI 15385 SI SI1 15385 1.100000 28.08600
15386 SI 15386 SI SI1 15386 1.100000 28.08600
15387 SI 15387 SI SI1 15387 1.100000 28.08600
15388 SI 15388 SI SI1 15388 1.100000 28.08600
15389 SI 15389 SI SI1 15389 1.100000 28.08600
15390 SI 15390 SI SI1 15390 1.100000 28.08600
15391 SI 15391 SI SI1 15391 1.100000 28.08600
15392 SI 15392 SI SI1 15392 1.100000 28.08600
15393 SI 15393 SI SI1 15393 1.100000 28.08600
15394 SI 15394 SI SI1 15394 1.100000 28.08600
15395 SI 15395 SI SI1 15395 1.100000 28.08600
15396 SI 15396 SI SI1 15396 1.100000 28.08600
15397 SI 15397 SI SI1 15397 1.100000 28.08600
15398 SI 15398 SI SI1 15398 1.100000 28.08600
15399 SI 15399 SI SI1 15399 1.100000 28.08600
15400 SI 15400 SI SI1 15400 1.100000 28.08600
15401 SI 15401 SI SI1 15401 1.100000 28.08600
15402 SI 15402 SI SI1 15402 1.100000 28.08600
15403 SI 15403 SI SI1 15403 1.100000 28.08600
15404 SI 15404 SI SI1 15404 1.100000 28.08600
15405 SI 15405 SI SI1 15405 1.100000 28.08600
15406 SI 15406 SI SI1 15406 1.100000 28.08600
15407 SI 15407 SI SI1 15407 1.100000 28.08600
15408 SI 15408 SI SI1 15408 1.100000 28.08600
15409 SI 15409 SI SI1 15409 1.100000 28.08600
15410 SI 15410 SI SI1 15410 1.100000 28.08600
15411 SI 15411 SI SI1 15411 1.100000 28.08600
15412 SI 15412 SI SI1 15412 1.100000 28.08600
15413 SI 15413 SI SI1 15413 1.100000 28.08600
15414 SI 15414 SI SI1 15414 1.100000 28.08600
15415 SI 15415 SI SI1 15415 1.100000 28.08600
15416 SI 15416 SI SI1 15416 1.100000 28.08600
15417 SI 15417 SI SI1 15417 1.100000 28.08600
15418 SI 15418 SI SI1 15418 1.100000 28.08600
15419 SI 15419 SI SI1 15419 1.100000 28.08600
15420 SI 15420 SI SI1 15420 1.100000 28.08600
15421 SI 15421 SI SI1 15421 1.100000 28.08600
15422 SI 15422 SI SI1 15422 1.100000 28.08600
15423 SI 15423 SI SI1 15423 1.100000 28.08600
15424 SI 15424 SI SI1 15424 1.100000 28.08600
15425 SI 15425 SI SI1 15425 1.100000 28.08600
15426 SI 15426 SI SI1 15426 1.100000 28.08600
15427 SI 15427 SI SI1 15427 1.100000 28.08600
15428 SI 15428 SI SI1 15428 1.100000 28.08600
15429 SI 15429 SI SI1 15429 1.100000 28.08600
15430 SI 15430 SI SI1 15430 1.100000 28.08600
15431 SI 15431 SI SI1 15431 1.100000 28.08600
15432 SI 15432 SI SI1 15432 1.100000 28.08600
15433 SI 15433 SI SI1 15433 1.100000 28.08600
15434 SI 15434 SI SI1 15434 1.100000 28.08600
15435 SI 15435 SI SI1 15435 1.100000 28.08600
15436 SI 15436 SI SI1 15436 1.100000 28.08600
15437 SI 15437 SI SI1 15437 1.100000 28.08600
15438 SI 15438 SI SI1 15438 1.100000 28.08600
15439 SI 15439 SI SI1 15439 1.100000 28.08600
15440 SI 15440 SI SI1 15440 1.100000 28.08600
15441 SI 15441 SI SI1 15441 1.100000 28.08600
15442 SI 15442 SI SI1 15442 1.100000 28.08600
15443 SI 15443 SI SI1 15443 1.100000 28.08600
15444 SI 15444 SI SI1 15444 1.100000 28.08600
15445 SI 15445 SI SI1 15445 1.100000 28.08600
15446 SI 15446 SI SI1 15446 1.100000 28.08600
15447 SI 15447 SI SI1 15447 1.100000 28.08600
15448 SI 15448 SI SI1 15448 1.100000 28.08600
15449 SI 15449 SI SI1 15449 1.100000 28.08600
15450 SI 15450 SI SI1 15450 1.100000 28.08600
15451 SI 15451 SI SI1 15451 1.100000 28.08600
15452 SI 15452 SI SI1 15452 1.100000 28.08600
15453 SI 15453 SI SI1 15453 1.100000 28.08600
15454 SI 15454 SI SI1 15454 1.100000 28.08600
15455 SI 15455 SI SI1 15455 1.100000 28.08600
15456 SI 15456 SI SI1 15456 1.100000 28.08600
15457 SI 15457 SI SI1 15457 1.100000 28.08600
15458 SI 15458 SI SI1 15458 1.100000 28.08600
15459 SI 15459 SI SI1 15459 1.100000 28.08600
15460 SI 15460 SI SI1 15460 1.100000 28.08600
15461 SI 15461 SI SI1 15461 1.100000 28.08600
15462 SI 15462 SI SI1 15462 1.100000 28.08600
15463 SI 15463 SI SI1 15463 1.100000 28.08600
15464 SI 15464 SI SI1 15464 1.100000 28.08600
15465 SI 15465 SI SI1 15465 1.100000 28.08600
15466 SI 15466 SI SI1 15466 1.100000 28.08600
15467 SI 15467 SI SI1 15467 1.100000 28.08600
15468 SI 15468 SI SI1 15468 1.100000 28.08600
15469 SI 15469 SI SI1 15469 1.100000 28.08600
15470 SI 15470 SI SI1 15470 1.100000 28.08600
15471 SI 15471 SI SI1 15471 1.100000 28.08600
15472 SI 15472 SI SI1 15472 1.100000 28.08600
15473 SI 15473 SI SI1 15473 1.100000 28.08600
15474 SI 15474 SI SI1 15474 1.100000 28.08600
15475 SI 15475 SI SI1 15475 1.100000 28.08600
15476 SI 15476 SI SI1 15476 1.100000 28.08600
15477 SI 15477 SI SI1 15477 1.100000 28.08600
15478 SI 15478 SI SI1 15478 1.100000 28.08600
15479 SI 15479 SI SI1 15479 1.100000 28.08600
15480 SI 15480 SI SI1 15480 1.100000 28.08600
15481 SI 15481 SI SI1 15481 1.100000 28.08600
15482 SI 15482 SI SI1 15482 1.100000 28.08600
15483 SI 15483 SI SI1 15483 1.100000 28.08600
15484 SI 15484 SI SI1 15484 1.100000 28.08600
15485 SI 15485 SI SI1 15485 1.100000 28.08600
15486 SI 15486 SI SI1 15486 1.100000 28.08600
15487 SI 15487 SI SI1 15487 1.100000 28.08600
15488 SI 15488 SI SI1 15488 1.100000 28.08600
15489 SI 15489 SI SI1 15489 1.100000 28.08600
15490 SI 15490 SI SI1 15490 1.100000 28.08600
15491 SI 15491 SI SI1 15491 1.100000 28.08600
15492 SI 15492 SI SI1 15492 1.100000 28.08600
15493 SI 15493 SI SI1 15493 1.100000 28.08600
15494 SI 15494 SI SI1 15494 1.100000 28.08600
15495 SI 15495 SI SI1 15495 1.100000 28.08600
15496 SI 15496 SI SI1 15496 1.100000 28.08600
15497 SI 15497 SI SI1 15497 1.100000 28.08600
15498 SI 15498 SI SI1 15498 1.100000 28.08600
15499 SI 15499 SI SI1 15499 1.100000 28.08600
15500 SI 15500 SI SI1 15500 1.100000 28.08600
15501 SI 15501 SI SI1 15501 1.100000 28.08600
15502 SI 15502 SI SI1 15502 1.100000 28.08600
15503 SI 15503 SI SI1 15503 1.100000 28.08600
15504 SI 15504 SI SI1 15504 1.100000 28.08600
15505 SI 15505 SI SI1 15505 1.100000 28.08600
15506 SI 15506 SI SI1 15506 1.100000 28.08600
15507 SI 15507 SI SI1 15507 1.100000 28.08600
15508 SI 15508 SI SI1 15508 1.100000 28.08600
15509 SI 15509 SI SI1 15509 1.100000 28.08600
15510 SI 15510 SI SI1 15510 1.100000 28.08600
15511 SI 15511 SI SI1 15511 1.100000 28.08600
15512 SI 15512 SI SI1 15512 1.100000 28.08600
15513 SI 15513 SI SI1 15513 1.100000 28.08600
15514 SI 15514 SI SI1 15514 1.100000 28.08600
15515 SI 15515 SI SI1 15515 1.100000 28.08600
15516 SI 15516 SI SI1 15516 1.100000 28.08600
15517 SI 15517 SI SI1 15517 1.100000 28.08600
15518 SI 15518 SI SI1 15518 1.100000 28.08600
15519 SI 15519 SI SI1 15519 1.100000 28.08600
15520 SI 15520 SI SI1 15520 1.100000 28.08600
15521 SI 15521 SI SI1 15521 1.100000 28.08600
15522 SI 15522 SI SI1 15522 1.100000 28.08600
15523 SI 15523 SI SI1 15523 1.100000 28.08600
15524 SI 15524 SI SI1 15524 1.100000 28.08600
15525 SI 15525 SI SI1 15525 1.100000 28.08600
15526 SI 15526 SI SI1 15526 1.100000 28.08600
15527 SI 15527 SI SI1 15527 1.100000 28.08600
15528 SI 15528 SI SI1 15528 1.100000 28.08600
15529 SI 15529 SI SI1 15529 1.100000 28.08600
15530 SI 15530 SI SI1 15530 1.100000 28.08600
15531 SI 15531 SI SI1 15531 1.100000 28.08600
15532 SI 15532 SI SI1 15532 1.100000 28.08600
15533 SI 15533 SI SI1 15533 1.100000 28.08600
15534 SI 15534 SI SI1 15534 1.100000 28.08600
15535 SI 15535 SI SI1 15535 1.100000 28.08600
15536 SI 15536 SI SI1 15536 1.100000 28.08600
15537 SI 15537 SI SI1 15537 1.100000 28.08600
15538 SI 15538 SI SI1 15538 1.100000 28.08600
15539 SI 15539 SI SI1 15539 1.100000 28.08600
15540 SI 15540 SI SI1 15540 1.100000 28.08600
15541 SI 15541 SI SI1 15541 1.100000 28.08600
15542 SI 15542 SI SI1 15542 1.100000 28.08600
15543 SI 15543 SI SI1 15543 1.100000 28.08600
15544 SI 15544 SI SI1 15544 1.100000 28.08600
15545 SI 15545 SI SI1 15545 1.100000 28.08600
15546 SI 15546 SI SI1 15546 1.100000 28.08600
15547 SI 15547 SI SI1 15547 1.100000 28.08600
15548 SI 15548 SI SI1 15548 1.100000 28.08600
15549 SI 15549 SI SI1 15549 1.100000 28.08600
15550 SI 15550 SI SI1 15550 1.100000 28.08600
15551 SI 15551 SI SI1 15551 1.100000 28.08600
15552 SI 15552 SI SI1 15552 1.100000 28.08600
15553 SI 15553 SI SI1 15553 1.100000 28.08600
15554 SI 15554 SI SI1 15554 1.100000 28.08600
15555 SI 15555 SI SI1 15555 1.100000 28.08600
15556 SI 15556 SI SI1 15556 1.100000 28.08600
15557 SI 15557 SI SI1 15557 1.100000 28.08600
15558 SI 15558 SI SI1 15558 1.100000 28.08600
15559 SI 15559 SI SI1 15559 1.100000 28.08600
15560 SI 15560 SI SI1 15560 1.100000 28.08600
15561 SI 15561 SI SI1 15561 1.100000 28.08600
15562 SI 15562 SI SI1 15562 1.100000 28.08600
15563 SI 15563 SI SI1 15563 1.100000 28.08600
15564 SI 15564 SI SI1 15564 1.100000 28.08600
15565 SI 15565 SI SI1 15565 1.100000 28.08600
15566 SI 15566 SI SI1 15566 1.100000 28.08600
15567 SI 15567 SI SI1 15567 1.100000 28.08600
15568 SI 15568 SI SI1 15568 1.100000 28.08600
15569 SI 15569 SI SI1 15569 1.100000 28.08600
15570 SI 15570 SI SI1 15570 1.100000 28.08600
15571 SI 15571 SI SI1 15571 1.100000 28.08600
15572 SI 15572 SI SI1 15572 1.100000 28.08600
15573 SI 15573 SI SI1 15573 1.100000 28.08600
15574 SI 15574 SI SI1 15574 1.100000 28.08600
15575 SI 15575 SI SI1 15575 1.100000 28.08600
15576 SI 15576 SI SI1 15576 1.100000 28.08600
15577 SI 15577 SI SI1 15577 1.100000 28.08600
15578 SI 15578 SI SI1 15578 1.100000 28.08600
15579 SI 15579 SI SI1 15579 1.100000 28.08600
15580 SI 15580 SI SI1 15580 1.100000 28.08600
15581 SI 15581 SI SI1 15581 1.100000 28.08600
15582 SI 15582 SI SI1 15582 1.100000 28.08600
15583 SI 15583 SI SI1 15583 1.100000 28.08600
15584 SI 15584 SI SI1 15584 1.100000 28.08600
15585 SI 15585 SI SI1 15585 1.100000 28.08600
15586 SI 15586 SI SI1 15586 1.100000 28.08600
15587 SI 15587 SI SI1 15587 1.100000 28.08600
15588 SI 15588 SI SI1 15588 1.100000 28.08600
15589 SI 15589 SI SI1 15589 1.100000 28.08600
15590 SI 15590 SI SI1 15590 1.100000 28.08600
15591 SI 15591 SI SI1 15591 1.100000 28.08600
15592 SI 15592 SI SI1 15592 1.100000 28.08600
15593 SI 15593 SI SI1 15593 1.100000 28.08600
15594 SI 15594 SI SI1 15594 1.100000 28.08600
15595 SI 15595 SI SI1 15595 1.100000 28.08600
15596 SI 15596 SI SI1 15596 1.100000 28.08600
15597 SI 15597 SI SI1 15597 1.100000 28.08600
15598 SI 15598 SI SI1 15598 1.100000 28.08600
15599 SI 15599 SI SI1 15599 1.100000 28.08600
15600 SI 15600 SI SI1 15600 1.100000 28.08600
15601 SI 15601 SI SI1 15601 1.100000 28.08600
15602 SI 15602 SI SI1 15602 1.100000 28.08600
15603 SI 15603 SI SI1 15603 1.100000 28.08600
15604 SI 15604 SI SI1 15604 1.100000 28.08600
15605 SI 15605 SI SI1 15605 1.100000 28.08600
15606 SI 15606 SI SI1 15606 1.100000 28.08600
15607 SI 15607 SI SI1 15607 1.100000 28.08600
15608 SI 15608 SI SI1 15608 1.100000 28.08600
15609 SI 15609 SI SI1 15609 1.100000 28.08600
15610 SI 15610 SI SI1 15610 1.100000 28.08600
15611 SI 15611 SI SI1 15611 1.100000 28.08600
15612 SI 15612 SI SI1 15612 1.100000 28.08600
15613 SI 15613 SI SI1 15613 1.100000 28.08600
15614 SI 15614 SI SI1 15614 1.100000 28.08600
15615 SI 15615 SI SI1 15615 1.100000 28.08600
15616 SI 15616 SI SI1 15616 1.100000 28.08600
15617 SI 15617 SI SI1 15617 1.100000 28.08600
15618 SI 15618 SI SI1 15618 1.100000 28.08600
15619 SI 15619 SI SI1 15619 1.100000 28.08600
15620 SI 15620 SI SI1 15620 1.100000 28.08600
15621 SI 15621 SI SI1 15621 1.100000 28.08600
15622 SI 15622 SI SI1 15622 1.100000 28.08600
15623 SI 15623 SI SI1 15623 1.100000 28.08600
15624 SI 15624 SI SI1 15624 1.100000 28.08600
15625 SI 15625 SI SI1 15625 1.100000 28.08600
15626 SI 15626 SI SI1 15626 1.100000 28.08600
15627 SI 15627 SI SI1 15627 1.100000 28.08600
15628 SI 15628 SI SI1 15628 1.100000 28.08600
15629 SI 15629 SI SI1 15629 1.100000 28.08600
15630 SI 15630 SI SI1 15630 1.100000 28.08600
15631 SI 15631 SI SI1 15631 1.100000 28.08600
15632 SI 15632 SI SI1 15632 1.100000 28.08600
15633 SI 15633 SI SI1 15633 1.100000 28.08600
15634 SI 15634 SI SI1 15634 1.100000 28.08600
15635 SI 15635 SI SI1 15635 1.100000 28.08600
15636 SI 15636 SI SI1 15636 1.100000 28.08600
15637 SI 15637 SI SI1 15637 1.100000 28.08600
15638 SI 15638 SI SI1 15638 1.100000 28.08600
15639 SI 15639 SI SI1 15639 1.100000 28.08600
15640 SI 15640 SI SI1 15640 1.100000 28.08600
15641 SI 15641 SI SI1 15641 1.100000 28.08600
15642 SI 15642 SI SI1 15642 1.100000 28.08600
15643 SI 15643 SI SI1 15643 1.100000 28.08600
15644 SI 15644 SI SI1 15644 1.100000 28.08600
15645 SI 15645 SI SI1 15645 1.100000 28.08600
15646 SI 15646 SI SI1 15646 1.100000 28.08600
15647 SI 15647 SI SI1 15647 1.100000 28.08600
15648 SI 15648 SI SI1 15648 1.100000 28.08600
15649 SI 15649 SI SI1 15649 1.100000 28.08600
15650 SI 15650 SI SI1 15650 1.100000 28.08600
15651 SI 15651 SI SI1 15651 1.100000 28.08600
15652 SI 15652 SI SI1 15652 1.100000 28.08600
15653 SI 15653 SI SI1 15653 1.100000 28.08600
15654 SI 15654 SI SI1 15654 1.100000 28.08600
15655 SI 15655 SI SI1 15655 1.100000 28.08600
15656 SI 15656 SI SI1 15656 1.100000 28.08600
15657 SI 15657 SI SI1 15657 1.100000 28.08600
15658 SI 15658 SI SI1 15658 1.100000 28.08600
15659 SI 15659 SI SI1 15659 1.100000 28.08600
15660 SI 15660 SI SI1 15660 1.100000 28.08600
15661 SI 15661 SI SI1 15661 1.100000 28.08600
15662 SI 15662 SI SI1 15662 1.100000 28.08600
15663 SI 15663 SI SI1 15663 1.100000 28.08600
15664 SI 15664 SI SI1 15664 1.100000 28.08600
15665 SI 15665 SI SI1 15665 1.100000 28.08600
15666 SI 15666 SI SI1 15666 1.100000 28.08600
15667 SI 15667 SI SI1 15667 1.100000 28.08600
15668 SI 15668 SI SI1 15668 1.100000 28.08600
15669 SI 15669 SI SI1 15669 1.100000 28.08600
15670 SI 15670 SI SI1 15670 1.100000 28.08600
15671 SI 15671 SI SI1 15671 1.100000 28.08600
15672 SI 15672 SI SI1 15672 1.100000 28.08600
15673 SI 15673 SI SI1 15673 1.100000 28.08600
15674 SI 15674 SI SI1 15674 1.100000 28.08600
15675 SI 15675 SI SI1 15675 1.100000 28.08600
15676 SI 15676 SI SI1 15676 1.100000 28.08600
15677 SI 15677 SI SI1 15677 1.100000 28.08600
15678 SI 15678 SI SI1 15678 1.100000 28.08600
15679 SI 15679 SI SI1 15679 1.100000 28.08600
15680 SI 15680 SI SI1 15680 1.100000 28.08600
15681 SI 15681 SI SI1 15681 1.100000 28.08600
15682 SI 15682 SI SI1 15682 1.100000 28.08600
15683 SI 15683 SI SI1 15683 1.100000 28.08600
15684 SI 15684 SI SI1 15684 1.100000 28.08600
15685 SI 15685 SI SI1 15685 1.100000 28.08600
15686 SI 15686 SI SI1 15686 1.100000 28.08600
15687 SI 15687 SI SI1 15687 1.100000 28.08600
15688 SI 15688 SI SI1 15688 1.100000 28.08600
15689 SI 15689 SI SI1 15689 1.100000 28.08600
15690 SI 15690 SI SI1 15690 1.100000 28.08600
15691 SI 15691 SI SI1 15691 1.100000 28.08600
15692 SI 15692 SI SI1 15692 1.100000 28.08600
15693 SI 15693 SI SI1 15693 1.100000 28.08600
15694 SI 15694 SI SI1 15694 1.100000 28.08600
15695 SI 15695 SI SI1 15695 1.100000 28.08600
15696 SI 15696 SI SI1 15696 1.100000 28.08600
15697 SI 15697 SI SI1 15697 1.100000 28.08600
15698 SI 15698 SI SI1 15698 1.100000 28.08600
15699 SI 15699 SI SI1 15699 1.100000 28.08600
15700 SI 15700 SI SI1 15700 1.100000 28.08600
15701 SI 15701 SI SI1 15701 1.100000 28.08600
15702 SI 15702 SI SI1 15702 1.100000 28.08600
15703 SI 15703 SI SI1 15703 1.100000 28.08600
15704 SI 15704 SI SI1 15704 1.100000 28.08600
15705 SI 15705 SI SI1 15705 1.100000 28.08600
15706 SI 15706 SI SI1 15706 1.100000 28.08600
15707 SI 15707 SI SI1 15707 1.100000 28.08600
15708 SI 15708 SI SI1 15708 1.100000 28.08600
15709 SI 15709 SI SI1 15709 1.100000 28.08600
15710 SI 15710 SI SI1 15710 1.100000 28.08600
15711 SI 15711 SI SI1 15711 1.100000 28.08600
15712 SI 15712 SI SI1 15712 1.100000 28.08600
15713 SI 15713 SI SI1 15713 1.100000 28.08600
15714 SI 15714 SI SI1 15714 1.100000 28.08600
15715 SI 15715 SI SI1 15715 1.100000 28.08600
15716 SI 15716 SI SI1 15716 1.100000 28.08600
15717 SI 15717 SI SI1 15717 1.100000 28.08600
15718 SI 15718 SI SI1 15718 1.100000 28.08600
15719 SI 15719 SI SI1 15719 1.100000 28.08600
15720 SI 15720 SI SI1 15720 1.100000 28.08600
15721 SI 15721 SI SI1 15721 1.100000 28.08600
15722 SI 15722 SI SI1 15722 1.100000 28.08600
15723 SI 15723 SI SI1 15723 1.100000 28.08600
15724 SI 15724 SI SI1 15724 1.100000 28.08600
15725 SI 15725 SI SI1 15725 1.100000 28.08600
15726 SI 15726 SI SI1 15726 1.100000 28.08600
15727 SI 15727 SI SI1 15727 1.100000 28.08600
15728 SI 15728 SI SI1 15728 1.100000 28.08600
15729 SI 15729 SI SI1 15729 1.100000 28.08600
15730 SI 15730 SI SI1 15730 1.100000 28.08600
15731 SI 15731 SI SI1 15731 1.100000 28.08600
15732 SI 15732 SI SI1 15732 1.100000 28.08600
15733 SI 15733 SI SI1 15733 1.100000 28.08600
15734 SI 15734 SI SI1 15734 1.100000 28.08600
15735 SI 15735 SI SI1 15735 1.100000 28.08600
15736 SI 15736 SI SI1 15736 1.100000 28.08600
15737 SI 15737 SI SI1 15737 1.100000 28.08600
15738 SI 15738 SI SI1 15738 1.100000 28.08600
15739 SI 15739 SI SI1 15739 1.100000 28.08600
15740 SI 15740 SI SI1 15740 1.100000 28.08600
15741 SI 15741 SI SI1 15741 1.100000 28.08600
15742 SI 15742 SI SI1 15742 1.100000 28.08600
15743 SI 15743 SI SI1 15743 1.100000 28.08600
15744 SI 15744 SI SI1 15744 1.100000 28.08600
15745 SI 15745 SI SI1 15745 1.100000 28.08600
15746 SI 15746 SI SI1 15746 1.100000 28.08600
15747 SI 15747 SI SI1 15747 1.100000 28.08600
15748 SI 15748 SI SI1 15748 1.100000 28.08600
15749 SI 15749 SI SI1 15749 1.100000 28.08600
15750 SI 15750 SI SI1 15750 1.100000 28.08600
15751 SI 15751 SI SI1 15751 1.100000 28.08600
15752 SI 15752 SI SI1 15752 1.100000 28.08600
15753 SI 15753 SI SI1 15753 1.100000 28.08600
15754 SI 15754 SI SI1 15754 1.100000 28.08600
15755 SI 15755 SI SI1 15755 1.100000 28.08600
15756 SI 15756 SI SI1 15756 1.100000 28.08600
15757 SI 15757 SI SI1 15757 1.100000 28.08600
15758 SI 15758 SI SI1 15758 1.100000 28.08600
15759 SI 15759 SI SI1 15759 1.100000 28.08600
15760 SI 15760 SI SI1 15760 1.100000 28.08600
15761 SI 15761 SI SI1 15761 1.100000 28.08600
15762 SI 15762 SI SI1 15762 1.100000 28.08600
15763 SI 15763 SI SI1 15763 1.100000 28.08600
15764 SI 15764 SI SI1 15764 1.100000 28.08600
15765 SI 15765 SI SI1 15765 1.100000 28.08600
15766 SI 15766 SI SI1 15766 1.100000 28.08600
15767 SI 15767 SI SI1 15767 1.100000 28.08600
15768 SI 15768 SI SI1 15768 1.100000 28.08600
15769 SI 15769 SI SI1 15769 1.100000 28.08600
15770 SI 15770 SI SI1 15770 1.100000 28.08600
15771 SI 15771 SI SI1 15771 1.100000 28.08600
15772 SI 15772 SI SI1 15772 1.100000 28.08600
15773 SI 15773 SI SI1 15773 1.100000 28.08600
15774 SI 15774 SI SI1 15774 1.100000 28.08600
15775 SI 15775 SI SI1 15775 1.100000 28.08600
15776 SI 15776 SI SI1 15776 1.100000 28.08600
15777 SI 15777 SI SI1 15777 1.100000 28.08600
15778 SI 15778 SI SI1 15778 1.100000 28.08600
15779 SI 15779 SI SI1 15779 1.100000 28.08600
15780 SI 15780 SI SI1 15780 1.100000 28.08600
15781 SI 15781 SI SI1 15781 1.100000 28.08600
15782 SI 15782 SI SI1 15782 1.100000 28.08600
15783 SI 15783 SI SI1 15783 1.100000 28.08600
15784 SI 15784 SI SI1 15784 1.100000 28.08600
15785 SI 15785 SI SI1 15785 1.100000 28.08600
15786 SI 15786 SI SI1 15786 1.100000 28.08600
15787 SI 15787 SI SI1 15787 1.100000 28.08600
15788 SI 15788 SI SI1 15788 1.100000 28.08600
15789 SI 15789 SI SI1 15789 1.100000 28.08600
15790 SI 15790 SI SI1 15790 1.100000 28.08600
15791 SI 15791 SI SI1 15791 1.100000 28.08600
15792 SI 15792 SI SI1 15792 1.100000 28.08600
15793 SI 15793 SI SI1 15793 1.100000 28.08600
15794 SI 15794 SI SI1 15794 1.100000 28.08600
15795 SI 15795 SI SI1 15795 1.100000 28.08600
15796 SI 15796 SI SI1 15796 1.100000 28.08600
15797 SI 15797 SI SI1 15797 1.100000 28.08600
15798 SI 15798 SI SI1 15798 1.100000 28.08600
15799 SI 15799 SI SI1 15799 1.100000 28.08600
15800 SI 15800 SI SI1 15800 1.100000 28.08600
15801 SI 15801 SI SI1 15801 1.100000 28.08600
15802 SI 15802 SI SI1 15802 1.100000 28.08600
15803 SI 15803 SI SI1 15803 1.100000 28.08600
15804 SI 15804 SI SI1 15804 1.100000 28.08600
15805 SI 15805 SI SI1 15805 1.100000 28.08600
15806 SI 15806 SI SI1 15806 1.100000 28.08600
15807 SI 15807 SI SI1 15807 1.100000 28.08600
15808 SI 15808 SI SI1 15808 1.100000 28.08600
15809 SI 15809 SI SI1 15809 1.100000 28.08600
15810 SI 15810 SI SI1 15810 1.100000 28.08600
15811 SI 15811 SI SI1 15811 1.100000 28.08600
15812 SI 15812 SI SI1 15812 1.100000 28.08600
15813 SI 15813 SI SI1 15813 1.100000 28.08600
15814 SI 15814 SI SI1 15814 1.100000 28.08600
15815 SI 15815 SI SI1 15815 1.100000 28.08600
15816 SI 15816 SI SI1 15816 1.100000 28.08600
15817 SI 15817 SI SI1 15817 1.100000 28.08600
15818 SI 15818 SI SI1 15818 1.100000 28.08600
15819 SI 15819 SI SI1 15819 1.100000 28.08600
15820 SI 15820 SI SI1 15820 1.100000 28.08600
15821 SI 15821 SI SI1 15821 1.100000 28.08600
15822 SI 15822 SI SI1 15822 1.100000 28.08600
15823 SI 15823 SI SI1 15823 1.100000 28.08600
15824 SI 15824 SI SI1 15824 1.100000 28.08600
15825 SI 15825 SI SI1 15825 1.100000 28.08600
15826 SI 15826 SI SI1 15826 1.100000 28.08600
15827 SI 15827 SI SI1 15827 1.100000 28.08600
15828 SI 15828 SI SI1 15828 1.100000 28.08600
15829 SI 15829 SI SI1 15829 1.100000 28.08600
15830 SI 15830 SI SI1 15830 1.100000 28.08600
15831 SI 15831 SI SI1 15831 1.100000 28.08600
15832 SI 15832 SI SI1 15832 1.100000 28.08600
15833 SI 15833 SI SI1 15833 1.100000 28.08600
15834 SI 15834 SI SI1 15834 1.100000 28.08600
15835 SI 15835 SI SI1 15835 1.100000 28.08600
15836 SI 15836 SI SI1 15836 1.100000 28.08600
15837 SI 15837 SI SI1 15837 1.100000 28.08600
15838 SI 15838 SI SI1 15838 1.100000 28.08600
15839 SI 15839 SI SI1 15839 1.100000 28.08600
15840 SI 15840 SI SI1 15840 1.100000 28.08600
15841 SI 15841 SI SI1 15841 1.100000 28.08600
15842 SI 15842 SI SI1 15842 1.100000 28.08600
15843 SI 15843 SI SI1 15843 1.100000 28.08600
15844 SI 15844 SI SI1 15844 1.100000 28.08600
15845 SI 15845 SI SI1 15845 1.100000 28.08600
15846 SI 15846 SI SI1 15846 1.100000 28.08600
15847 SI 15847 SI SI1 15847 1.100000 28.08600
15848 SI 15848 SI SI1 15848 1.100000 28.08600
15849 SI 15849 SI SI1 15849 1.100000 28.08600
15850 SI 15850 SI SI1 15850 1.100000 28.08600
15851 SI 15851 SI SI1 15851 1.100000 28.08600
15852 SI 15852 SI SI1 15852 1.100000 28.08600
15853 SI 15853 SI SI1 15853 1.100000 28.08600
15854 SI 15854 SI SI1 15854 1.100000 28.08600
15855 SI 15855 SI SI1 15855 1.100000 28.08600
15856 SI 15856 SI SI1 15856 1.100000 28.08600
15857 SI 15857 SI SI1 15857 1.100000 28.08600
15858 SI 15858 SI SI1 15858 1.100000 28.08600
15859 SI 15859 SI SI1 15859 1.100000 28.08600
15860 SI 15860 SI SI1 15860 1.100000 28.08600
15861 SI 15861 SI SI1 15861 1.100000 28.08600
15862 SI 15862 SI SI1 15862 1.100000 28.08600
15863 SI 15863 SI SI1 15863 1.100000 28.08600
15864 SI 15864 SI SI1 15864 1.100000 28.08600
15865 SI 15865 SI SI1 15865 1.100000 28.08600
15866 SI 15866 SI SI1 15866 1.100000 28.08600
15867 SI 15867 SI SI1 15867 1.100000 28.08600
15868 SI 15868 SI SI1 15868 1.100000 28.08600
15869 SI 15869 SI SI1 15869 1.100000 28.08600
15870 SI 15870 SI SI1 15870 1.100000 28.08600
15871 SI 15871 SI SI1 15871 1.100000 28.08600
15872 SI 15872 SI SI1 15872 1.100000 28.08600
15873 SI 15873 SI SI1 15873 1.100000 28.08600
15874 SI 15874 SI SI1 15874 1.100000 28.08600
15875 SI 15875 SI SI1 15875 1.100000 28.08600
15876 SI 15876 SI SI1 15876 1.100000 28.08600
15877 SI 15877 SI SI1 15877 1.100000 28.08600
15878 SI 15878 SI SI1 15878 1.100000 28.08600
15879 SI 15879 SI SI1 15879 1.100000 28.08600
15880 SI 15880 SI SI1 15880 1.100000 28.08600
15881 SI 15881 SI SI1 15881 1.100000 28.08600
15882 SI 15882 SI SI1 15882 1.100000 28.08600
15883 SI 15883 SI SI1 15883 1.100000 28.08600
15884 SI 15884 SI SI1 15884 1.100000 28.08600
15885 SI 15885 SI SI1 15885 1.100000 28.08600
15886 SI 15886 SI SI1 15886 1.100000 28.08600
15887 SI 15887 SI SI1 15887 1.100000 28.08600
15888 SI 15888 SI SI1 15888 1.100000 28.08600
15889 SI 15889 SI SI1 15889 1.100000 28.08600
15890 SI 15890 SI SI1 15890 1.100000 28.08600
15891 SI 15891 SI SI1 15891 1.100000 28.08600
15892 SI 15892 SI SI1 15892 1.100000 28.08600
15893 SI 15893 SI SI1 15893 1.100000 28.08600
15894 SI 15894 SI SI1 15894 1.100000 28.08600
15895 SI 15895 SI SI1 15895 1.100000 28.08600
15896 SI 15896 SI SI1 15896 1.100000 28.08600
15897 SI 15897 SI SI1 15897 1.100000 28.08600
15898 SI 15898 SI SI1 15898 1.100000 28.08600
15899 SI 15899 SI SI1 15899 1.100000 28.08600
15900 SI 15900 SI SI1 15900 1.100000 28.08600
15901 SI 15901 SI SI1 15901 1.100000 28.08600
15902 SI 15902 SI SI1 15902 1.100000 28.08600
15903 SI 15903 SI SI1 15903 1.100000 28.08600
15904 SI 15904 SI SI1 15904 1.100000 28.08600
15905 SI 15905 SI SI1 15905 1.100000 28.08600
15906 SI 15906 SI SI1 15906 1.100000 28.08600
15907 SI 15907 SI SI1 15907 1.100000 28.08600
15908 SI 15908 SI SI1 15908 1.100000 28.08600
15909 SI 15909 SI SI1 15909 1.100000 28.08600
15910 SI 15910 SI SI1 15910 1.100000 28.08600
15911 SI 15911 SI SI1 15911 1.100000 28.08600
15912 SI 15912 SI SI1 15912 1.100000 28.08600
15913 SI 15913 SI SI1 15913 1.100000 28.08600
15914 SI 15914 SI SI1 15914 1.100000 28.08600
15915 SI 15915 SI SI1 15915 1.100000 28.08600
15916 SI 15916 SI SI1 15916 1.100000 28.08600
15917 SI 15917 SI SI1 15917 1.100000 28.08600
15918 SI 15918 SI SI1 15918 1.100000 28.08600
15919 SI 15919 SI SI1 15919 1.100000 28.08600
15920 SI 15920 SI SI1 15920 1.100000 28.08600
15921 SI 15921 SI SI1 15921 1.100000 28.08600
15922 SI 15922 SI SI1 15922 1.100000 28.08600
15923 SI 15923 SI SI1 15923 1.100000 28.08600
15924 SI 15924 SI SI1 15924 1.100000 28.08600
15925 SI 15925 SI SI1 15925 1.100000 28.08600
15926 SI 15926 SI SI1 15926 1.100000 28.08600
15927 SI 15927 SI SI1 15927 1.100000 28.08600
15928 SI 15928 SI SI1 15928 1.100000 28.08600
15929 SI 15929 SI SI1 15929 1.100000 28.08600
15930 SI 15930 SI SI1 15930 1.100000 28.08600
15931 SI 15931 SI SI1 15931 1.100000 28.08600
15932 SI 15932 SI SI1 15932 1.100000 28.08600
15933 SI 15933 SI SI1 15933 1.100000 28.08600
15934 SI 15934 SI SI1 15934 1.100000 28.08600
15935 SI 15935 SI SI1 15935 1.100000 28.08600
15936 SI 15936 SI SI1 15936 1.100000 28.08600
15937 SI 15937 SI SI1 15937 1.100000 28.08600
15938 SI 15938 SI SI1 15938 1.100000 28.08600
15939 SI 15939 SI SI1 15939 1.100000 28.08600
15940 SI 15940 SI SI1 15940 1.100000 28.08600
15941 SI 15941 SI SI1 15941 1.100000 28.08600
15942 SI 15942 SI SI1 15942 1.100000 28.08600
15943 SI 15943 SI SI1 15943 1.100000 28.08600
15944 SI 15944 SI SI1 15944 1.100000 28.08600
15945 SI 15945 SI SI1 15945 1.100000 28.08600
15946 SI 15946 SI SI1 15946 1.100000 28.08600
15947 SI 15947 SI SI1 15947 1.100000 28.08600
15948 SI 15948 SI SI1 15948 1.100000 28.08600
15949 SI 15949 SI SI1 15949 1.100000 28.08600
15950 SI 15950 SI SI1 15950 1.100000 28.08600
15951 SI 15951 SI SI1 15951 1.100000 28.08600
15952 SI 15952 SI SI1 15952 1.100000 28.08600
15953 SI 15953 SI SI1 15953 1.100000 28.08600
15954 SI 15954 SI SI1 15954 1.100000 28.08600
15955 SI 15955 SI SI1 15955 1.100000 28.08600
15956 SI 15956 SI SI1 15956 1.100000 28.08600
15957 SI 15957 SI SI1 15957 1.100000 28.08600
15958 SI 15958 SI SI1 15958 1.100000 28.08600
15959 SI 15959 SI SI1 15959 1.100000 28.08600
15960 SI 15960 SI SI1 15960 1.100000 28.08600
15961 SI 15961 SI SI1 15961 1.100000 28.08600
15962 SI 15962 SI SI1 15962 1.100000 28.08600
15963 SI 15963 SI SI1 15963 1.100000 28.08600
15964 SI 15964 SI SI1 15964 1.100000 28.08600
15965 SI 15965 SI SI1 15965 1.100000 28.08600
15966 SI 15966 SI SI1 15966 1.100000 28.08600
15967 SI 15967 SI SI1 15967 1.100000 28.08600
15968 SI 15968 SI SI1 15968 1.100000 28.08600
15969 SI 15969 SI SI1 15969 1.100000 28.08600
15970 SI 15970 SI SI1 15970 1.100000 28.08600
15971 SI 15971 SI SI1 15971 1.100000 28.08600
15972 SI 15972 SI SI1 15972 1.100000 28.08600
15973 SI 15973 SI SI1 15973 1.100000 28.08600
15974 SI 15974 SI SI1 15974 1.100000 28.08600
15975 SI 15975 SI SI1 15975 1.100000 28.08600
15976 SI 15976 SI SI1 15976 1.100000 28.08600
15977 SI 15977 SI SI1 15977 1.100000 28.08600
15978 SI 15978 SI SI1 15978 1.100000 28.08600
15979 SI 15979 SI SI1 15979 1.100000 28.08600
15980 SI 15980 SI SI1 15980 1.100000 28.08600
15981 SI 15981 SI SI1 15981 1.100000 28.08600
15982 SI 15982 SI SI1 15982 1.100000 28.08600
15983 SI 15983 SI SI1 15983 1.100000 28.08600
15984 SI 15984 SI SI1 15984 1.100000 28.08600
15985 SI 15985 SI SI1 15985 1.100000 28.08600
15986 SI 15986 SI SI1 15986 1.100000 28.08600
15987 SI 15987 SI SI1 15987 1.100000 28.08600
15988 SI 15988 SI SI1 15988 1.100000 28.08600
15989 SI 15989 SI SI1 15989 1.100000 28.08600
15990 SI 15990 SI SI1 15990 1.100000 28.08600
15991 SI 15991 SI SI1 15991 1.100000 28.08600
15992 SI 15992 SI SI1 15992 1.100000 28.08600
15993 SI 15993 SI SI1 15993 1.100000 28.08600
15994 SI 15994 SI SI1 15994 1.100000 28.08600
15995 SI 15995 SI SI1 15995 1.100000 28.08600
15996 SI 15996 SI SI1 15996 1.100000 28.08600
15997 SI 15997 SI SI1 15997 1.100000 28.08600
15998 SI 15998 SI SI1 15998 1.100000 28.08600
15999 SI 15999 SI SI1 15999 1.100000 28.08600
16000 SI 16000 SI SI1 16000 1.100000 28.08600
16001 SI 16001 SI SI1 16001 1.100000 28.08600
16002 SI 16002 SI SI1 16002 1.100000 28.08600
16003 SI 16003 SI SI1 16003 1.100000 28.08600
16004 SI 16004 SI SI1 16004 1.100000 28.08600
16005 SI 16005 SI SI1 16005 1.100000 28.08600
16006 SI 16006 SI SI1 16006 1.100000 28.08600
16007 SI 16007 SI SI1 16007 1.100000 28.08600
16008 SI 16008 SI SI1 16008 1.100000 28.08600
16009 SI 16009 SI SI1 16009 1.100000 28.08600
16010 SI 16010 SI SI1 16010 1.100000 28.08600
16011 SI 16011 SI SI1 16011 1.100000 28.08600
16012 SI 16012 SI SI1 16012 1.100000 28.08600
16013 SI 16013 SI SI1 16013 1.100000 28.08600
16014 SI 16014 SI SI1 16014 1.100000 28.08600
16015 SI 16015 SI SI1 16015 1.100000 28.08600
16016 SI 16016 SI SI1 16016 1.100000 28.08600
16017 SI 16017 SI SI1 16017 1.100000 28.08600
16018 SI 16018 SI SI1 16018 1.100000 28.08600
16019 SI 16019 SI SI1 16019 1.100000 28.08600
16020 SI 16020 SI SI1 16020 1.100000 28.08600
16021 SI 16021 SI SI1 16021 1.100000 28.08600
16022 SI 16022 SI SI1 16022 1.100000 28.08600
16023 SI 16023 SI SI1 16023 1.100000 28.08600
16024 SI 16024 SI SI1 16024 1.100000 28.08600
16025 SI 16025 SI SI1 16025 1.100000 28.08600
16026 SI 16026 SI SI1 16026 1.100000 28.08600
16027 SI 16027 SI SI1 16027 1.100000 28.08600
16028 SI 16028 SI SI1 16028 1.100000 28.08600
16029 SI 16029 SI SI1 16029 1.100000 28.08600
16030 SI 16030 SI SI1 16030 1.100000 28.08600
16031 SI 16031 SI SI1 16031 1.100000 28.08600
16032 SI 16032 SI SI1 16032 1.100000 28.08600
16033 SI 16033 SI SI1 16033 1.100000 28.08600
16034 SI 16034 SI SI1 16034 1.100000 28.08600
16035 SI 16035 SI SI1 16035 1.100000 28.08600
16036 SI 16036 SI SI1 16036 1.100000 28.08600
16037 SI 16037 SI SI1 16037 1.100000 28.08600
16038 SI 16038 SI SI1 16038 1.100000 28.08600
16039 SI 16039 SI SI1 16039 1.100000 28.08600
16040 SI 16040 SI SI1 16040 1.100000 28.08600
16041 SI 16041 SI SI1 16041 1.100000 28.08600
16042 SI 16042 SI SI1 16042 1.100000 28.08600
16043 SI 16043 SI SI1 16043 1.100000 28.08600
16044 SI 16044 SI SI1 16044 1.100000 28.08600
16045 SI 16045 SI SI1 16045 1.100000 28.08600
16046 SI 16046 SI SI1 16046 1.100000 28.08600
16047 SI 16047 SI SI1 16047 1.100000 28.08600
16048 SI 16048 SI SI1 16048 1.100000 28.08600
16049 SI 16049 SI SI1 16049 1.100000 28.08600
16050 SI 16050 SI SI1 16050 1.100000 28.08600
16051 SI 16051 SI SI1 16051 1.100000 28.08600
16052 SI 16052 SI SI1 16052 1.100000 28.08600
16053 SI 16053 SI SI1 16053 1.100000 28.08600
16054 SI 16054 SI SI1 16054 1.100000 28.08600
16055 SI 16055 SI SI1 16055 1.100000 28.08600
16056 SI 16056 SI SI1 16056 1.100000 28.08600
16057 SI 16057 SI SI1 16057 1.100000 28.08600
16058 SI 16058 SI SI1 16058 1.100000 28.08600
16059 SI 16059 SI SI1 16059 1.100000 28.08600
16060 SI 16060 SI SI1 16060 1.100000 28.08600
16061 SI 16061 SI SI1 16061 1.100000 28.08600
16062 SI 16062 SI SI1 16062 1.100000 28.08600
16063 SI 16063 SI SI1 16063 1.100000 28.08600
16064 SI 16064 SI SI1 16064 1.100000 28.08600
16065 SI 16065 SI SI1 16065 1.100000 28.08600
16066 SI 16066 SI SI1 16066 1.100000 28.08600
16067 SI 16067 SI SI1 16067 1.100000 28.08600
16068 SI 16068 SI SI1 16068 1.100000 28.08600
16069 SI 16069 SI SI1 16069 1.100000 28.08600
16070 SI 16070 SI SI1 16070 1.100000 28.08600
16071 SI 16071 SI SI1 16071 1.100000 28.08600
16072 SI 16072 SI SI1 16072 1.100000 28.08600
16073 SI 16073 SI SI1 16073 1.100000 28.08600
16074 SI 16074 SI SI1 16074 1.100000 28.08600
16075 SI 16075 SI SI1 16075 1.100000 28.08600
16076 SI 16076 SI SI1 16076 1.100000 28.08600
16077 SI 16077 SI SI1 16077 1.100000 28.08600
16078 SI 16078 SI SI1 16078 1.100000 28.08600
16079 SI 16079 SI SI1 16079 1.100000 28.08600
16080 SI 16080 SI SI1 16080 1.100000 28.08600
16081 SI 16081 SI SI1 16081 1.100000 28.08600
16082 SI 16082 SI SI1 16082 1.100000 28.08600
16083 SI 16083 SI SI1 16083 1.100000 28.08600
16084 SI 16084 SI SI1 16084 1.100000 28.08600
16085 SI 16085 SI SI1 16085 1.100000 28.08600
16086 SI 16086 SI SI1 16086 1.100000 28.08600
16087 SI 16087 SI SI1 16087 1.100000 28.08600
16088 SI 16088 SI SI1 16088 1.100000 28.08600
16089 SI 16089 SI SI1 16089 1.100000 28.08600
16090 SI 16090 SI SI1 16090 1.100000 28.08600
16091 SI 16091 SI SI1 16091 1.100000 28.08600
16092 SI 16092 SI SI1 16092 1.100000 28.08600
16093 SI 16093 SI SI1 16093 1.100000 28.08600
16094 SI 16094 SI SI1 16094 1.100000 28.08600
16095 SI 16095 SI SI1 16095 1.100000 28.08600
16096 SI 16096 SI SI1 16096 1.100000 28.08600
16097 SI 16097 SI SI1 16097 1.100000 28.08600
16098 SI 16098 SI SI1 16098 1.100000 28.08600
16099 SI 16099 SI SI1 16099 1.100000 28.08600
16100 SI 16100 SI SI1 16100 1.100000 28.08600
16101 SI 16101 SI SI1 16101 1.100000 28.08600
16102 SI 16102 SI SI1 16102 1.100000 28.08600
16103 SI 16103 SI SI1 16103 1.100000 28.08600
16104 SI 16104 SI SI1 16104 1.100000 28.08600
16105 SI 16105 SI SI1 16105 1.100000 28.08600
16106 SI 16106 SI SI1 16106 1.100000 28.08600
16107 SI 16107 SI SI1 16107 1.100000 28.08600
16108 SI 16108 SI SI1 16108 1.100000 28.08600
16109 SI 16109 SI SI1 16109 1.100000 28.08600
16110 SI 16110 SI SI1 16110 1.100000 28.08600
16111 SI 16111 SI SI1 16111 1.100000 28.08600
16112 SI 16112 SI SI1 16112 1.100000 28.08600
16113 SI 16113 SI SI1 16113 1.100000 28.08600
16114 SI 16114 SI SI1 16114 1.100000 28.08600
16115 SI 16115 SI SI1 16115 1.100000 28.08600
16116 SI 16116 SI SI1 16116 1.100000 28.08600
16117 SI 16117 SI SI1 16117 1.100000 28.08600
16118 SI 16118 SI SI1 16118 1.100000 28.08600
16119 SI 16119 SI SI1 16119 1.100000 28.08600
16120 SI 16120 SI SI1 16120 1.100000 28.08600
16121 SI 16121 SI SI1 16121 1.100000 28.08600
16122 SI 16122 SI SI1 16122 1.100000 28.08600
16123 SI 16123 SI SI1 16123 1.100000 28.08600
16124 SI 16124 SI SI1 16124 1.100000 28.08600
16125 SI 16125 SI SI1 16125 1.100000 28.08600
16126 SI 16126 SI SI1 16126 1.100000 28.08600
16127 SI 16127 SI SI1 16127 1.100000 28.08600
16128 SI 16128 SI SI1 16128 1.100000 28.08600
16129 SI 16129 SI SI1 16129 1.100000 28.08600
16130 SI 16130 SI SI1 16130 1.100000 28.08600
16131 SI 16131 SI SI1 16131 1.100000 28.08600
16132 SI 16132 SI SI1 16132 1.100000 28.08600
16133 SI 16133 SI SI1 16133 1.100000 28.08600
16134 SI 16134 SI SI1 16134 1.100000 28.08600
16135 SI 16135 SI SI1 16135 1.100000 28.08600
16136 SI 16136 SI SI1 16136 1.100000 28.08600
16137 SI 16137 SI SI1 16137 1.100000 28.08600
16138 SI 16138 SI SI1 16138 1.100000 28.08600
16139 SI 16139 SI SI1 16139 1.100000 28.08600
16140 SI 16140 SI SI1 16140 1.100000 28.08600
16141 SI 16141 SI SI1 16141 1.100000 28.08600
16142 SI 16142 SI SI1 16142 1.100000 28.08600
16143 SI 16143 SI SI1 16143 1.100000 28.08600
16144 SI 16144 SI SI1 16144 1.100000 28.08600
16145 SI 16145 SI SI1 16145 1.100000 28.08600
16146 SI 16146 SI SI1 16146 1.100000 28.08600
16147 SI 16147 SI SI1 16147 1.100000 28.08600
16148 SI 16148 SI SI1 16148 1.100000 28.08600
16149 SI 16149 SI SI1 16149 1.100000 28.08600
16150 SI 16150 SI SI1 16150 1.100000 28.08600
16151 SI 16151 SI SI1 16151 1.100000 28.08600
16152 SI 16152 SI SI1 16152 1.100000 28.08600
16153 SI 16153 SI SI1 16153 1.100000 28.08600
16154 SI 16154 SI SI1 16154 1.100000 28.08600
16155 SI 16155 SI SI1 16155 1.100000 28.08600
16156 SI 16156 SI SI1 16156 1.100000 28.08600
16157 SI 16157 SI SI1 16157 1.100000 28.08600
16158 SI 16158 SI SI1 16158 1.100000 28.08600
16159 SI 16159 SI SI1 16159 1.100000 28.08600
16160 SI 16160 SI SI1 16160 1.100000 28.08600
16161 SI 16161 SI SI1 16161 1.100000 28.08600
16162 SI 16162 SI SI1 16162 1.100000 28.08600
16163 SI 16163 SI SI1 16163 1.100000 28.08600
16164 SI 16164 SI SI1 16164 1.100000 28.08600
16165 SI 16165 SI SI1 16165 1.100000 28.08600
16166 SI 16166 SI SI1 16166 1.100000 28.08600
16167 SI 16167 SI SI1 16167 1.100000 28.08600
16168 SI 16168 SI SI1 16168 1.100000 28.08600
16169 SI 16169 SI SI1 16169 1.100000 28.08600
16170 SI 16170 SI SI1 16170 1.100000 28.08600
16171 SI 16171 SI SI1 16171 1.100000 28.08600
16172 SI 16172 SI SI1 16172 1.100000 28.08600
16173 SI 16173 SI SI1 16173 1.100000 28.08600
16174 SI 16174 SI SI1 16174 1.100000 28.08600
16175 SI 16175 SI SI1 16175 1.100000 28.08600
16176 SI 16176 SI SI1 16176 1.100000 28.08600
16177 SI 16177 SI SI1 16177 1.100000 28.08600
16178 SI 16178 SI SI1 16178 1.100000 28.08600
16179 SI 16179 SI SI1 16179 1.100000 28.08600
16180 SI 16180 SI SI1 16180 1.100000 28.08600
16181 SI 16181 SI SI1 16181 1.100000 28.08600
16182 SI 16182 SI SI1 16182 1.100000 28.08600
16183 SI 16183 SI SI1 16183 1.100000 28.08600
16184 SI 16184 SI SI1 16184 1.100000 28.08600
16185 SI 16185 SI SI1 16185 1.100000 28.08600
16186 SI 16186 SI SI1 16186 1.100000 28.08600
16187 SI 16187 SI SI1 16187 1.100000 28.08600
16188 SI 16188 SI SI1 16188 1.100000 28.08600
16189 SI 16189 SI SI1 16189 1.100000 28.08600
16190 SI 16190 SI SI1 16190 1.100000 28.08600
16191 SI 16191 SI SI1 16191 1.100000 28.08600
16192 SI 16192 SI SI1 16192 1.100000 28.08600
16193 SI 16193 SI SI1 16193 1.100000 28.08600
16194 SI 16194 SI SI1 16194 1.100000 28.08600
16195 SI 16195 SI SI1 16195 1.100000 28.08600
16196 SI 16196 SI SI1 16196 1.100000 28.08600
16197 SI 16197 SI SI1 16197 1.100000 28.08600
16198 SI 16198 SI SI1 16198 1.100000 28.08600
16199 SI 16199 SI SI1 16199 1.100000 28.08600
16200 SI 16200 SI SI1 16200 1.100000 28.08600
16201 SI 16201 SI SI1 16201 1.100000 28.08600
16202 SI 16202 SI SI1 16202 1.100000 28.08600
16203 SI 16203 SI SI1 16203 1.100000 28.08600
16204 SI 16204 SI SI1 16204 1.100000 28.08600
16205 SI 16205 SI SI1 16205 1.100000 28.08600
16206 SI 16206 SI SI1 16206 1.100000 28.08600
16207 SI 16207 SI SI1 16207 1.100000 28.08600
16208 SI 16208 SI SI1 16208 1.100000 28.08600
16209 SI 16209 SI SI1 16209 1.100000 28.08600
16210 SI 16210 SI SI1 16210 1.100000 28.08600
16211 SI 16211 SI SI1 16211 1.100000 28.08600
16212 SI 16212 SI SI1 16212 1.100000 28.08600
16213 SI 16213 SI SI1 16213 1.100000 28.08600
16214 SI 16214 SI SI1 16214 1.100000 28.08600
16215 SI 16215 SI SI1 16215 1.100000 28.08600
16216 SI 16216 SI SI1 16216 1.100000 28.08600
16217 SI 16217 SI SI1 16217 1.100000 28.08600
16218 SI 16218 SI SI1 16218 1.100000 28.08600
16219 SI 16219 SI SI1 16219 1.100000 28.08600
16220 SI 16220 SI SI1 16220 1.100000 28.08600
16221 SI 16221 SI SI1 16221 1.100000 28.08600
16222 SI 16222 SI SI1 16222 1.100000 28.08600
16223 SI 16223 SI SI1 16223 1.100000 28.08600
16224 SI 16224 SI SI1 16224 1.100000 28.08600
16225 SI 16225 SI SI1 16225 1.100000 28.08600
16226 SI 16226 SI SI1 16226 1.100000 28.08600
16227 SI 16227 SI SI1 16227 1.100000 28.08600
16228 SI 16228 SI SI1 16228 1.100000 28.08600
16229 SI 16229 SI SI1 16229 1.100000 28.08600
16230 SI 16230 SI SI1 16230 1.100000 28.08600
16231 SI 16231 SI SI1 16231 1.100000 28.08600
16232 SI 16232 SI SI1 16232 1.100000 28.08600
16233 SI 16233 SI SI1 16233 1.100000 28.08600
16234 SI 16234 SI SI1 16234 1.100000 28.08600
16235 SI 16235 SI SI1 16235 1.100000 28.08600
16236 SI 16236 SI SI1 16236 1.100000 28.08600
16237 SI 16237 SI SI1 16237 1.100000 28.08600
16238 SI 16238 SI SI1 16238 1.100000 28.08600
16239 SI 16239 SI SI1 16239 1.100000 28.08600
16240 SI 16240 SI SI1 16240 1.100000 28.08600
16241 SI 16241 SI SI1 16241 1.100000 28.08600
16242 SI 16242 SI SI1 16242 1.100000 28.08600
16243 SI 16243 SI SI1 16243 1.100000 28.08600
16244 SI 16244 SI SI1 16244 1.100000 28.08600
16245 SI 16245 SI SI1 16245 1.100000 28.08600
16246 SI 16246 SI SI1 16246 1.100000 28.08600
16247 SI 16247 SI SI1 16247 1.100000 28.08600
16248 SI 16248 SI SI1 16248 1.100000 28.08600
16249 SI 16249 SI SI1 16249 1.100000 28.08600
16250 SI 16250 SI SI1 16250 1.100000 28.08600
16251 SI 16251 SI SI1 16251 1.100000 28.08600
16252 SI 16252 SI SI1 16252 1.100000 28.08600
16253 SI 16253 SI SI1 16253 1.100000 28.08600
16254 SI 16254 SI SI1 16254 1.100000 28.08600
16255 SI 16255 SI SI1 16255 1.100000 28.08600
16256 SI 16256 SI SI1 16256 1.100000 28.08600
16257 SI 16257 SI SI1 16257 1.100000 28.08600
16258 SI 16258 SI SI1 16258 1.100000 28.08600
16259 SI 16259 SI SI1 16259 1.100000 28.08600
16260 SI 16260 SI SI1 16260 1.100000 28.08600
16261 SI 16261 SI SI1 16261 1.100000 28.08600
16262 SI 16262 SI SI1 16262 1.100000 28.08600
16263 SI 16263 SI SI1 16263 1.100000 28.08600
16264 SI 16264 SI SI1 16264 1.100000 28.08600
16265 SI 16265 SI SI1 16265 1.100000 28.08600
16266 SI 16266 SI SI1 16266 1.100000 28.08600
16267 SI 16267 SI SI1 16267 1.100000 28.08600
16268 SI 16268 SI SI1 16268 1.100000 28.08600
16269 SI 16269 SI SI1 16269 1.100000 28.08600
16270 SI 16270 SI SI1 16270 1.100000 28.08600
16271 SI 16271 SI SI1 16271 1.100000 28.08600
16272 SI 16272 SI SI1 16272 1.100000 28.08600
16273 SI 16273 SI SI1 16273 1.100000 28.08600
16274 SI 16274 SI SI1 16274 1.100000 28.08600
16275 SI 16275 SI SI1 16275 1.100000 28.08600
16276 SI 16276 SI SI1 16276 1.100000 28.08600
16277 SI 16277 SI SI1 16277 1.100000 28.08600
16278 SI 16278 SI SI1 16278 1.100000 28.08600
16279 SI 16279 SI SI1 16279 1.100000 28.08600
16280 SI 16280 SI SI1 16280 1.100000 28.08600
16281 SI 16281 SI SI1 16281 1.100000 28.08600
16282 SI 16282 SI SI1 16282 1.100000 28.08600
16283 SI 16283 SI SI1 16283 1.100000 28.08600
16284 SI 16284 SI SI1 16284 1.100000 28.08600
16285 SI 16285 SI SI1 16285 1.100000 28.08600
16286 SI 16286 SI SI1 16286 1.100000 28.08600
16287 SI 16287 SI SI1 16287 1.100000 28.08600
16288 SI 16288 SI SI1 16288 1.100000 28.08600
16289 SI 16289 SI SI1 16289 1.100000 28.08600
16290 SI 16290 SI SI1 16290 1.100000 28.08600
16291 SI 16291 SI SI1 16291 1.100000 28.08600
16292 SI 16292 SI SI1 16292 1.100000 28.08600
16293 SI 16293 SI SI1 16293 1.100000 28.08600
16294 SI 16294 SI SI1 16294 1.100000 28.08600
16295 SI 16295 SI SI1 16295 1.100000 28.08600
16296 SI 16296 SI SI1 16296 1.100000 28.08600
16297 SI 16297 SI SI1 16297 1.100000 28.08600
16298 SI 16298 SI SI1 16298 1.100000 28.08600
16299 SI 16299 SI SI1 16299 1.100000 28.08600
16300 SI 16300 SI SI1 16300 1.100000 28.08600
16301 SI 16301 SI SI1 16301 1.100000 28.08600
16302 SI 16302 SI SI1 16302 1.100000 28.08600
16303 SI 16303 SI SI1 16303 1.100000 28.08600
16304 SI 16304 SI SI1 16304 1.100000 28.08600
16305 SI 16305 SI SI1 16305 1.100000 28.08600
16306 SI 16306 SI SI1 16306 1.100000 28.08600
16307 SI 16307 SI SI1 16307 1.100000 28.08600
16308 SI 16308 SI SI1 16308 1.100000 28.08600
16309 SI 16309 SI SI1 16309 1.100000 28.08600
16310 SI 16310 SI SI1 16310 1.100000 28.08600
16311 SI 16311 SI SI1 16311 1.100000 28.08600
16312 SI 16312 SI SI1 16312 1.100000 28.08600
16313 SI 16313 SI SI1 16313 1.100000 28.08600
16314 SI 16314 SI SI1 16314 1.100000 28.08600
16315 SI 16315 SI SI1 16315 1.100000 28.08600
16316 SI 16316 SI SI1 16316 1.100000 28.08600
16317 SI 16317 SI SI1 16317 1.100000 28.08600
16318 SI 16318 SI SI1 16318 1.100000 28.08600
16319 SI 16319 SI SI1 16319 1.100000 28.08600
16320 SI 16320 SI SI1 16320 1.100000 28.08600
16321 SI 16321 SI SI1 16321 1.100000 28.08600
16322 SI 16322 SI SI1 16322 1.100000 28.08600
16323 SI 16323 SI SI1 16323 1.100000 28.08600
16324 SI 16324 SI SI1 16324 1.100000 28.08600
16325 SI 16325 SI SI1 16325 1.100000 28.08600
16326 SI 16326 SI SI1 16326 1.100000 28.08600
16327 SI 16327 SI SI1 16327 1.100000 28.08600
16328 SI 16328 SI SI1 16328 1.100000 28.08600
16329 SI 16329 SI SI1 16329 1.100000 28.08600
16330 SI 16330 SI SI1 16330 1.100000 28.08600
16331 SI 16331 SI SI1 16331 1.100000 28.08600
16332 SI 16332 SI SI1 16332 1.100000 28.08600
16333 SI 16333 SI SI1 16333 1.100000 28.08600
16334 SI 16334 SI SI1 16334 1.100000 28.08600
16335 SI 16335 SI SI1 16335 1.100000 28.08600
16336 SI 16336 SI SI1 16336 1.100000 28.08600
16337 SI 16337 SI SI1 16337 1.100000 28.08600
16338 SI 16338 SI SI1 16338 1.100000 28.08600
16339 SI 16339 SI SI1 16339 1.100000 28.08600
16340 SI 16340 SI SI1 16340 1.100000 28.08600
16341 SI 16341 SI SI1 16341 1.100000 28.08600
16342 SI 16342 SI SI1 16342 1.100000 28.08600
16343 SI 16343 SI SI1 16343 1.100000 28.08600
16344 SI 16344 SI SI1 16344 1.100000 28.08600
16345 SI 16345 SI SI1 16345 1.100000 28.08600
16346 SI 16346 SI SI1 16346 1.100000 28.08600
16347 SI 16347 SI SI1 16347 1.100000 28.08600
16348 SI 16348 SI SI1 16348 1.100000 28.08600
16349 SI 16349 SI SI1 16349 1.100000 28.08600
16350 SI 16350 SI SI1 16350 1.100000 28.08600
16351 SI 16351 SI SI1 16351 1.100000 28.08600
16352 SI 16352 SI SI1 16352 1.100000 28.08600
16353 SI 16353 SI SI1 16353 1.100000 28.08600
16354 SI 16354 SI SI1 16354 1.100000 28.08600
16355 SI 16355 SI SI1 16355 1.100000 28.08600
16356 SI 16356 SI SI1 16356 1.100000 28.08600
16357 SI 16357 SI SI1 16357 1.100000 28.08600
16358 SI 16358 SI SI1 16358 1.100000 28.08600
16359 SI 16359 SI SI1 16359 1.100000 28.08600
16360 SI 16360 SI SI1 16360 1.100000 28.08600
16361 SI 16361 SI SI1 16361 1.100000 28.08600
16362 SI 16362 SI SI1 16362 1.100000 28.08600
16363 SI 16363 SI SI1 16363 1.100000 28.08600
16364 SI 16364 SI SI1 16364 1.100000 28.08600
16365 SI 16365 SI SI1 16365 1.100000 28.08600
16366 SI 16366 SI SI1 16366 1.100000 28.08600
16367 SI 16367 SI SI1 16367 1.100000 28.08600
16368 SI 16368 SI SI1 16368 1.100000 28.08600
16369 SI 16369 SI SI1 16369 1.100000 28.08600
16370 SI 16370 SI SI1 16370 1.100000 28.08600
16371 SI 16371 SI SI1 16371 1.100000 28.08600
16372 SI 16372 SI SI1 16372 1.100000 28.08600
16373 SI 16373 SI SI1 16373 1.100000 28.08600
16374 SI 16374 SI SI1 16374 1.100000 28.08600
16375 SI 16375 SI SI1 16375 1.100000 28.08600
16376 SI 16376 SI SI1 16376 1.100000 28.08600
16377 SI 16377 SI SI1 16377 1.100000 28.08600
16378 SI 16378 SI SI1 16378 1.100000 28.08600
16379 SI 16379 SI SI1 16379 1.100000 28.08600
16380 SI 16380 SI SI1 16380 1.100000 28.08600
16381 SI 16381 SI SI1 16381 1.100000 28.08600
16382 SI 16382 SI SI1 16382 1.100000 28.08600
16383 SI 16383 SI SI1 16383 1.100000 28.08600
16384 SI 16384 SI SI1 16384 1.100000 28.08600
16385 SI 16385 SI SI1 16385 1.100000 28.08600
16386 SI 16386 SI SI1 16386 1.100000 28.08600
16387 SI 16387 SI SI1 16387 1.100000 28.08600
16388 SI 16388 SI SI1 16388 1.100000 28.08600
16389 SI 16389 SI SI1 16389 1.100000 28.08600
16390 SI 16390 SI SI1 16390 1.100000 28.08600
16391 SI 16391 SI SI1 16391 1.100000 28.08600
16392 SI 16392 SI SI1 16392 1.100000 28.08600
16393 SI 16393 SI SI1 16393 1.100000 28.08600
16394 SI 16394 SI SI1 16394 1.100000 28.08600
16395 SI 16395 SI SI1 16395 1.100000 28.08600
16396 SI 16396 SI SI1 16396 1.100000 28.08600
16397 SI 16397 SI SI1 16397 1.100000 28.08600
16398 SI 16398 SI SI1 16398 1.100000 28.08600
16399 SI 16399 SI SI1 16399 1.100000 28.08600
16400 SI 16400 SI SI1 16400 1.100000 28.08600
16401 SI 16401 SI SI1 16401 1.100000 28.08600
16402 SI 16402 SI SI1 16402 1.100000 28.08600
16403 SI 16403 SI SI1 16403 1.100000 28.08600
16404 SI 16404 SI SI1 16404 1.100000 28.08600
16405 SI 16405 SI SI1 16405 1.100000 28.08600
16406 SI 16406 SI SI1 16406 1.100000 28.08600
16407 SI 16407 SI SI1 16407 1.100000 28.08600
16408 SI 16408 SI SI1 16408 1.100000 28.08600
16409 SI 16409 SI SI1 16409 1.100000 28.08600
16410 SI 16410 SI SI1 16410 1.100000 28.08600
16411 SI 16411 SI SI1 16411 1.100000 28.08600
16412 SI 16412 SI SI1 16412 1.100000 28.08600
16413 SI 16413 SI SI1 16413 1.100000 28.08600
16414 SI 16414 SI SI1 16414 1.100000 28.08600
16415 SI 16415 SI SI1 16415 1.100000 28.08600
16416 SI 16416 SI SI1 16416 1.100000 28.08600
16417 SI 16417 SI SI1 16417 1.100000 28.08600
16418 SI 16418 SI SI1 16418 1.100000 28.08600
16419 SI 16419 SI SI1 16419 1.100000 28.08600
16420 SI 16420 SI SI1 16420 1.100000 28.08600
16421 SI 16421 SI SI1 16421 1.100000 28.08600
16422 SI 16422 SI SI1 16422 1.100000 28.08600
16423 SI 16423 SI SI1 16423 1.100000 28.08600
16424 SI 16424 SI SI1 16424 1.100000 28.08600
16425 SI 16425 SI SI1 16425 1.100000 28.08600
16426 SI 16426 SI SI1 16426 1.100000 28.08600
16427 SI 16427 SI SI1 16427 1.100000 28.08600
16428 SI 16428 SI SI1 16428 1.100000 28.08600
16429 SI 16429 SI SI1 16429 1.100000 28.08600
16430 SI 16430 SI SI1 16430 1.100000 28.08600
16431 SI 16431 SI SI1 16431 1.100000 28.08600
16432 SI 16432 SI SI1 16432 1.100000 28.08600
16433 SI 16433 SI SI1 16433 1.100000 28.08600
16434 SI 16434 SI SI1 16434 1.100000 28.08600
16435 SI 16435 SI SI1 16435 1.100000 28.08600
16436 SI 16436 SI SI1 16436 1.100000 28.08600
16437 SI 16437 SI SI1 16437 1.100000 28.08600
16438 SI 16438 SI SI1 16438 1.100000 28.08600
16439 SI 16439 SI SI1 16439 1.100000 28.08600
16440 SI 16440 SI SI1 16440 1.100000 28.08600
16441 SI 16441 SI SI1 16441 1.100000 28.08600
16442 SI 16442 SI SI1 16442 1.100000 28.08600
16443 SI 16443 SI SI1 16443 1.100000 28.08600
16444 SI 16444 SI SI1 16444 1.100000 28.08600
16445 SI 16445 SI SI1 16445 1.100000 28.08600
16446 SI 16446 SI SI1 16446 1.100000 28.08600
16447 SI 16447 SI SI1 16447 1.100000 28.08600
16448 SI 16448 SI SI1 16448 1.100000 28.08600
16449 SI 16449 SI SI1 16449 1.100000 28.08600
16450 SI 16450 SI SI1 16450 1.100000 28.08600
16451 SI 16451 SI SI1 16451 1.100000 28.08600
16452 SI 16452 SI SI1 16452 1.100000 28.08600
16453 SI 16453 SI SI1 16453 1.100000 28.08600
16454 SI 16454 SI SI1 16454 1.100000 28.08600
16455 SI 16455 SI SI1 16455 1.100000 28.08600
16456 SI 16456 SI SI1 16456 1.100000 28.08600
16457 SI 16457 SI SI1 16457 1.100000 28.08600
16458 SI 16458 SI SI1 16458 1.100000 28.08600
16459 SI 16459 SI SI1 16459 1.100000 28.08600
16460 SI 16460 SI SI1 16460 1.100000 28.08600
16461 SI 16461 SI SI1 16461 1.100000 28.08600
16462 SI 16462 SI SI1 16462 1.100000 28.08600
16463 SI 16463 SI SI1 16463 1.100000 28.08600
16464 SI 16464 SI SI1 16464 1.100000 28.08600
16465 SI 16465 SI SI1 16465 1.100000 28.08600
16466 SI 16466 SI SI1 16466 1.100000 28.08600
16467 SI 16467 SI SI1 16467 1.100000 28.08600
16468 SI 16468 SI SI1 16468 1.100000 28.08600
16469 SI 16469 SI SI1 16469 1.100000 28.08600
16470 SI 16470 SI SI1 16470 1.100000 28.08600
16471 SI 16471 SI SI1 16471 1.100000 28.08600
16472 SI 16472 SI SI1 16472 1.100000 28.08600
16473 SI 16473 SI SI1 16473 1.100000 28.08600
16474 SI 16474 SI SI1 16474 1.100000 28.08600
16475 SI 16475 SI SI1 16475 1.100000 28.08600
16476 SI 16476 SI SI1 16476 1.100000 28.08600
16477 SI 16477 SI SI1 16477 1.100000 28.08600
16478 SI 16478 SI SI1 16478 1.100000 28.08600
16479 SI 16479 SI SI1 16479 1.100000 28.08600
16480 SI 16480 SI SI1 16480 1.100000 28.08600
16481 SI 16481 SI SI1 16481 1.100000 28.08600
16482 SI 16482 SI SI1 16482 1.100000 28.08600
16483 SI 16483 SI SI1 16483 1.100000 28.08600
16484 SI 16484 SI SI1 16484 1.100000 28.08600
16485 SI 16485 SI SI1 16485 1.100000 28.08600
16486 SI 16486 SI SI1 16486 1.100000 28.08600
16487 SI 16487 SI SI1 16487 1.100000 28.08600
16488 SI 16488 SI SI1 16488 1.100000 28.08600
16489 SI 16489 SI SI1 16489 1.100000 28.08600
16490 SI 16490 SI SI1 16490 1.100000 28.08600
16491 SI 16491 SI SI1 16491 1.100000 28.08600
16492 SI 16492 SI SI1 16492 1.100000 28.08600
16493 SI 16493 SI SI1 16493 1.100000 28.08600
16494 SI 16494 SI SI1 16494 1.100000 28.08600
16495 SI 16495 SI SI1 16495 1.100000 28.08600
16496 SI 16496 SI SI1 16496 1.100000 28.08600
16497 SI 16497 SI SI1 16497 1.100000 28.08600
16498 SI 16498 SI SI1 16498 1.100000 28.08600
16499 SI 16499 SI SI1 16499 1.100000 28.08600
16500 SI 16500 SI SI1 16500 1.100000 28.08600
16501 SI 16501 SI SI1 16501 1.100000 28.08600
16502 SI 16502 SI SI1 16502 1.100000 28.08600
16503 SI 16503 SI SI1 16503 1.100000 28.08600
16504 SI 16504 SI SI1 16504 1.100000 28.08600
16505 SI 16505 SI SI1 16505 1.100000 28.08600
16506 SI 16506 SI SI1 16506 1.100000 28.08600
16507 SI 16507 SI SI1 16507 1.100000 28.08600
16508 SI 16508 SI SI1 16508 1.100000 28.08600
16509 SI 16509 SI SI1 16509 1.100000 28.08600
16510 SI 16510 SI SI1 16510 1.100000 28.08600
16511 SI 16511 SI SI1 16511 1.100000 28.08600
16512 SI 16512 SI SI1 16512 1.100000 28.08600
16513 SI 16513 SI SI1 16513 1.100000 28.08600
16514 SI 16514 SI SI1 16514 1.100000 28.08600
16515 SI 16515 SI SI1 16515 1.100000 28.08600
16516 SI 16516 SI SI1 16516 1.100000 28.08600
16517 SI 16517 SI SI1 16517 1.100000 28.08600
16518 SI 16518 SI SI1 16518 1.100000 28.08600
16519 SI 16519 SI SI1 16519 1.100000 28.08600
16520 SI 16520 SI SI1 16520 1.100000 28.08600
16521 SI 16521 SI SI1 16521 1.100000 28.08600
16522 SI 16522 SI SI1 16522 1.100000 28.08600
16523 SI 16523 SI SI1 16523 1.100000 28.08600
16524 SI 16524 SI SI1 16524 1.100000 28.08600
16525 SI 16525 SI SI1 16525 1.100000 28.08600
16526 SI 16526 SI SI1 16526 1.100000 28.08600
16527 SI 16527 SI SI1 16527 1.100000 28.08600
16528 SI 16528 SI SI1 16528 1.100000 28.08600
16529 SI 16529 SI SI1 16529 1.100000 28.08600
16530 SI 16530 SI SI1 16530 1.100000 28.08600
16531 SI 16531 SI SI1 16531 1.100000 28.08600
16532 SI 16532 SI SI1 16532 1.100000 28.08600
16533 SI 16533 SI SI1 16533 1.100000 28.08600
16534 SI 16534 SI SI1 16534 1.100000 28.08600
16535 SI 16535 SI SI1 16535 1.100000 28.08600
16536 SI 16536 SI SI1 16536 1.100000 28.08600
16537 SI 16537 SI SI1 16537 1.100000 28.08600
16538 SI 16538 SI SI1 16538 1.100000 28.08600
16539 SI 16539 SI SI1 16539 1.100000 28.08600
16540 SI 16540 SI SI1 16540 1.100000 28.08600
16541 SI 16541 SI SI1 16541 1.100000 28.08600
16542 SI 16542 SI SI1 16542 1.100000 28.08600
16543 SI 16543 SI SI1 16543 1.100000 28.08600
16544 SI 16544 SI SI1 16544 1.100000 28.08600
16545 SI 16545 SI SI1 16545 1.100000 28.08600
16546 SI 16546 SI SI1 16546 1.100000 28.08600
16547 SI 16547 SI SI1 16547 1.100000 28.08600
16548 SI 16548 SI SI1 16548 1.100000 28.08600
16549 SI 16549 SI SI1 16549 1.100000 28.08600
16550 SI 16550 SI SI1 16550 1.100000 28.08600
16551 SI 16551 SI SI1 16551 1.100000 28.08600
16552 SI 16552 SI SI1 16552 1.100000 28.08600
16553 SI 16553 SI SI1 16553 1.100000 28.08600
16554 SI 16554 SI SI1 16554 1.100000 28.08600
16555 SI 16555 SI SI1 16555 1.100000 28.08600
16556 SI 16556 SI SI1 16556 1.100000 28.08600
16557 SI 16557 SI SI1 16557 1.100000 28.08600
16558 SI 16558 SI SI1 16558 1.100000 28.08600
16559 SI 16559 SI SI1 16559 1.100000 28.08600
16560 SI 16560 SI SI1 16560 1.100000 28.08600
16561 SI 16561 SI SI1 16561 1.100000 28.08600
16562 SI 16562 SI SI1 16562 1.100000 28.08600
16563 SI 16563 SI SI1 16563 1.100000 28.08600
16564 SI 16564 SI SI1 16564 1.100000 28.08600
16565 SI 16565 SI SI1 16565 1.100000 28.08600
16566 SI 16566 SI SI1 16566 1.100000 28.08600
16567 SI 16567 SI SI1 16567 1.100000 28.08600
16568 SI 16568 SI SI1 16568 1.100000 28.08600
16569 SI 16569 SI SI1 16569 1.100000 28.08600
16570 SI 16570 SI SI1 16570 1.100000 28.08600
16571 SI 16571 SI SI1 16571 1.100000 28.08600
16572 SI 16572 SI SI1 16572 1.100000 28.08600
16573 SI 16573 SI SI1 16573 1.100000 28.08600
16574 SI 16574 SI SI1 16574 1.100000 28.08600
16575 SI 16575 SI SI1 16575 1.100000 28.08600
16576 SI 16576 SI SI1 16576 1.100000 28.08600
16577 SI 16577 SI SI1 16577 1.100000 28.08600
16578 SI 16578 SI SI1 16578 1.100000 28.08600
16579 SI 16579 SI SI1 16579 1.100000 28.08600
16580 SI 16580 SI SI1 16580 1.100000 28.08600
16581 SI 16581 SI SI1 16581 1.100000 28.08600
16582 SI 16582 SI SI1 16582 1.100000 28.08600
16583 SI 16583 SI SI1 16583 1.100000 28.08600
16584 SI 16584 SI SI1 16584 1.100000 28.08600
16585 SI 16585 SI SI1 16585 1.100000 28.08600
16586 SI 16586 SI SI1 16586 1.100000 28.08600
16587 SI 16587 SI SI1 16587 1.100000 28.08600
16588 SI 16588 SI SI1 16588 1.100000 28.08600
16589 SI 16589 SI SI1 16589 1.100000 28.08600
16590 SI 16590 SI SI1 16590 1.100000 28.08600
16591 SI 16591 SI SI1 16591 1.100000 28.08600
16592 SI 16592 SI SI1 16592 1.100000 28.08600
16593 SI 16593 SI SI1 16593 1.100000 28.08600
16594 SI 16594 SI SI1 16594 1.100000 28.08600
16595 SI 16595 SI SI1 16595 1.100000 28.08600
16596 SI 16596 SI SI1 16596 1.100000 28.08600
16597 SI 16597 SI SI1 16597 1.100000 28.08600
16598 SI 16598 SI SI1 16598 1.100000 28.08600
16599 SI 16599 SI SI1 16599 1.100000 28.08600
16600 SI 16600 SI SI1 16600 1.100000 28.08600
16601 SI 16601 SI SI1 16601 1.100000 28.08600
16602 SI 16602 SI SI1 16602 1.100000 28.08600
16603 SI 16603 SI SI1 16603 1.100000 28.08600
16604 SI 16604 SI SI1 16604 1.100000 28.08600
16605 SI 16605 SI SI1 16605 1.100000 28.08600
16606 SI 16606 SI SI1 16606 1.100000 28.08600
16607 SI 16607 SI SI1 16607 1.100000 28.08600
16608 SI 16608 SI SI1 16608 1.100000 28.08600
16609 SI 16609 SI SI1 16609 1.100000 28.08600
16610 SI 16610 SI SI1 16610 1.100000 28.08600
16611 SI 16611 SI SI1 16611 1.100000 28.08600
16612 SI 16612 SI SI1 16612 1.100000 28.08600
16613 SI 16613 SI SI1 16613 1.100000 28.08600
16614 SI 16614 SI SI1 16614 1.100000 28.08600
16615 SI 16615 SI SI1 16615 1.100000 28.08600
16616 SI 16616 SI SI1 16616 1.100000 28.08600
16617 SI 16617 SI SI1 16617 1.100000 28.08600
16618 SI 16618 SI SI1 16618 1.100000 28.08600
16619 SI 16619 SI SI1 16619 1.100000 28.08600
16620 SI 16620 SI SI1 16620 1.100000 28.08600
16621 SI 16621 SI SI1 16621 1.100000 28.08600
16622 SI 16622 SI SI1 16622 1.100000 28.08600
16623 SI 16623 SI SI1 16623 1.100000 28.08600
16624 SI 16624 SI SI1 16624 1.100000 28.08600
16625 SI 16625 SI SI1 16625 1.100000 28.08600
16626 SI 16626 SI SI1 16626 1.100000 28.08600
16627 ha 16627 TPSG HA2 16627 0.1332 1.008000
16628 ca 16627 TPSG CA2 16628 -0.0753 12.010000
16629 ca 16627 TPSG CA1 16629 -0.361 12.010000
16630 si 16627 TPSG Si 16630 1.1 28.085000
16631 ca 16627 TPSG CA6 16631 -0.0753 12.010000
16632 ha 16627 TPSG HH6 16632 0.1332 1.008000
16633 ca 16627 TPSG CA5 16633 -0.1548 12.010000
16634 ha 16627 TPSG HA5 16634 0.1282 1.008000
16635 ca 16627 TPSG CA4 16635 -0.1028 12.010000
16636 ha 16627 TPSG HA4 16636 0.1262 1.008000
16637 ca 16627 TPSG CA3 16637 -0.1548 12.010000
16638 ha 16627 TPSG HA3 16638 0.1282 1.008000
16639 OA 16627 TPSG O1 16639 -0.675000 15.99940
16640 HG 16627 TPSG H6 16640 0.400000 2.01600
16641 ha 16628 TPSG HA2 16641 0.1332 1.008000
16642 ca 16628 TPSG CA2 16642 -0.0753 12.010000
16643 ca 16628 TPSG CA1 16643 -0.361 12.010000
16644 si 16628 TPSG Si 16644 1.1 28.085000
16645 ca 16628 TPSG CA6 16645 -0.0753 12.010000
16646 ha 16628 TPSG HH6 16646 0.1332 1.008000
16647 ca 16628 TPSG CA5 16647 -0.1548 12.010000
16648 ha 16628 TPSG HA5 16648 0.1282 1.008000
16649 ca 16628 TPSG CA4 16649 -0.1028 12.010000
16650 ha 16628 TPSG HA4 16650 0.1262 1.008000
16651 ca 16628 TPSG CA3 16651 -0.1548 12.010000
16652 ha 16628 TPSG HA3 16652 0.1282 1.008000
16653 OA 16628 TPSG O1 16653 -0.675000 15.99940
16654 HG 16628 TPSG H6 16654 0.400000 2.01600
16655 ha 16629 TPSG HA2 16655 0.1332 1.008000
16656 ca 16629 TPSG CA2 16656 -0.0753 12.010000
16657 ca 16629 TPSG CA1 16657 -0.361 12.010000
16658 si 16629 TPSG Si 16658 1.1 28.085000
16659 ca 16629 TPSG CA6 16659 -0.0753 12.010000
16660 ha 16629 TPSG HH6 16660 0.1332 1.008000
16661 ca 16629 TPSG CA5 16661 -0.1548 12.010000
16662 ha 16629 TPSG HA5 16662 0.1282 1.008000
16663 ca 16629 TPSG CA4 16663 -0.1028 12.010000
16664 ha 16629 TPSG HA4 16664 0.1262 1.008000
16665 ca 16629 TPSG CA3 16665 -0.1548 12.010000
16666 ha 16629 TPSG HA3 16666 0.1282 1.008000
16667 OA 16629 TPSG O1 16667 -0.675000 15.99940
16668 HG 16629 TPSG H6 16668 0.400000 2.01600
16669 ha 16630 TPSG HA2 16669 0.1332 1.008000
16670 ca 16630 TPSG CA2 16670 -0.0753 12.010000
16671 ca 16630 TPSG CA1 16671 -0.361 12.010000
16672 si 16630 TPSG Si 16672 1.1 28.085000
16673 ca 16630 TPSG CA6 16673 -0.0753 12.010000
16674 ha 16630 TPSG HH6 16674 0.1332 1.008000
16675 ca 16630 TPSG CA5 16675 -0.1548 12.010000
16676 ha 16630 TPSG HA5 16676 0.1282 1.008000
16677 ca 16630 TPSG CA4 16677 -0.1028 12.010000
16678 ha 16630 TPSG HA4 16678 0.1262 1.008000
16679 ca 16630 TPSG CA3 16679 -0.1548 12.010000
16680 ha 16630 TPSG HA3 16680 0.1282 1.008000
16681 OA 16630 TPSG O1 16681 -0.675000 15.99940
16682 HG 16630 TPSG H6 16682 0.400000 2.01600
16683 ha 16631 TPSG HA2 16683 0.1332 1.008000
16684 ca 16631 TPSG CA2 16684 -0.0753 12.010000
16685 ca 16631 TPSG CA1 16685 -0.361 12.010000
16686 si 16631 TPSG Si 16686 1.1 28.085000
16687 ca 16631 TPSG CA6 16687 -0.0753 12.010000
16688 ha 16631 TPSG HH6 16688 0.1332 1.008000
16689 ca 16631 TPSG CA5 16689 -0.1548 12.010000
16690 ha 16631 TPSG HA5 16690 0.1282 1.008000
16691 ca 16631 TPSG CA4 16691 -0.1028 12.010000
16692 ha 16631 TPSG HA4 16692 0.1262 1.008000
16693 ca 16631 TPSG CA3 16693 -0.1548 12.010000
16694 ha 16631 TPSG HA3 16694 0.1282 1.008000
16695 OA 16631 TPSG O1 16695 -0.675000 15.99940
16696 HG 16631 TPSG H6 16696 0.400000 2.01600
16697 ha 16632 TPSG HA2 16697 0.1332 1.008000
16698 ca 16632 TPSG CA2 16698 -0.0753 12.010000
16699 ca 16632 TPSG CA1 16699 -0.361 12.010000
16700 si 16632 TPSG Si 16700 1.1 28.085000
16701 ca 16632 TPSG CA6 16701 -0.0753 12.010000
16702 ha 16632 TPSG HH6 16702 0.1332 1.008000
16703 ca 16632 TPSG CA5 16703 -0.1548 12.010000
16704 ha 16632 TPSG HA5 16704 0.1282 1.008000
16705 ca 16632 TPSG CA4 16705 -0.1028 12.010000
16706 ha 16632 TPSG HA4 16706 0.1262 1.008000
16707 ca 16632 TPSG CA3 16707 -0.1548 12.010000
16708 ha 16632 TPSG HA3 16708 0.1282 1.008000
16709 OA 16632 TPSG O1 16709 -0.675000 15.99940
16710 HG 16632 TPSG H6 16710 0.400000 2.01600
16711 ha 16633 TPSG HA2 16711 0.1332 1.008000
16712 ca 16633 TPSG CA2 16712 -0.0753 12.010000
16713 ca 16633 TPSG CA1 16713 -0.361 12.010000
16714 si 16633 TPSG Si 16714 1.1 28.085000
16715 ca 16633 TPSG CA6 16715 -0.0753 12.010000
16716 ha 16633 TPSG HH6 16716 0.1332 1.008000
16717 ca 16633 TPSG CA5 16717 -0.1548 12.010000
16718 ha 16633 TPSG HA5 16718 0.1282 1.008000
16719 ca 16633 TPSG CA4 16719 -0.1028 12.010000
16720 ha 16633 TPSG HA4 16720 0.1262 1.008000
16721 ca 16633 TPSG CA3 16721 -0.1548 12.010000
16722 ha 16633 TPSG HA3 16722 0.1282 1.008000
16723 OA 16633 TPSG O1 16723 -0.675000 15.99940
16724 HG 16633 TPSG H6 16724 0.400000 2.01600
16725 ha 16634 TPSG HA2 16725 0.1332 1.008000
16726 ca 16634 TPSG CA2 16726 -0.0753 12.010000
16727 ca 16634 TPSG CA1 16727 -0.361 12.010000
16728 si 16634 TPSG Si 16728 1.1 28.085000
16729 ca 16634 TPSG CA6 16729 -0.0753 12.010000
16730 ha 16634 TPSG HH6 16730 0.1332 1.008000
16731 ca 16634 TPSG CA5 16731 -0.1548 12.010000
16732 ha 16634 TPSG HA5 16732 0.1282 1.008000
16733 ca 16634 TPSG CA4 16733 -0.1028 12.010000
16734 ha 16634 TPSG HA4 16734 0.1262 1.008000
16735 ca 16634 TPSG CA3 16735 -0.1548 12.010000
16736 ha 16634 TPSG HA3 16736 0.1282 1.008000
16737 OA 16634 TPSG O1 16737 -0.675000 15.99940
16738 HG 16634 TPSG H6 16738 0.400000 2.01600
16739 ha 16635 TPSG HA2 16739 0.1332 1.008000
16740 ca 16635 TPSG CA2 16740 -0.0753 12.010000
16741 ca 16635 TPSG CA1 16741 -0.361 12.010000
16742 si 16635 TPSG Si 16742 1.1 28.085000
16743 ca 16635 TPSG CA6 16743 -0.0753 12.010000
16744 ha 16635 TPSG HH6 16744 0.1332 1.008000
16745 ca 16635 TPSG CA5 16745 -0.1548 12.010000
16746 ha 16635 TPSG HA5 16746 0.1282 1.008000
16747 ca 16635 TPSG CA4 16747 -0.1028 12.010000
16748 ha 16635 TPSG HA4 16748 0.1262 1.008000
16749 ca 16635 TPSG CA3 16749 -0.1548 12.010000
16750 ha 16635 TPSG HA3 16750 0.1282 1.008000
16751 OA 16635 TPSG O1 16751 -0.675000 15.99940
16752 HG 16635 TPSG H6 16752 0.400000 2.01600
16753 ha 16636 TPSG HA2 16753 0.1332 1.008000
16754 ca 16636 TPSG CA2 16754 -0.0753 12.010000
16755 ca 16636 TPSG CA1 16755 -0.361 12.010000
16756 si 16636 TPSG Si 16756 1.1 28.085000
16757 ca 16636 TPSG CA6 16757 -0.0753 12.010000
16758 ha 16636 TPSG HH6 16758 0.1332 1.008000
16759 ca 16636 TPSG CA5 16759 -0.1548 12.010000
16760 ha 16636 TPSG HA5 16760 0.1282 1.008000
16761 ca 16636 TPSG CA4 16761 -0.1028 12.010000
16762 ha 16636 TPSG HA4 16762 0.1262 1.008000
16763 ca 16636 TPSG CA3 16763 -0.1548 12.010000
16764 ha 16636 TPSG HA3 16764 0.1282 1.008000
16765 OA 16636 TPSG O1 16765 -0.675000 15.99940
16766 HG 16636 TPSG H6 16766 0.400000 2.01600
16767 ha 16637 TPSG HA2 16767 0.1332 1.008000
16768 ca 16637 TPSG CA2 16768 -0.0753 12.010000
16769 ca 16637 TPSG CA1 16769 -0.361 12.010000
16770 si 16637 TPSG Si 16770 1.1 28.085000
16771 ca 16637 TPSG CA6 16771 -0.0753 12.010000
16772 ha 16637 TPSG HH6 16772 0.1332 1.008000
16773 ca 16637 TPSG CA5 16773 -0.1548 12.010000
16774 ha 16637 TPSG HA5 16774 0.1282 1.008000
16775 ca 16637 TPSG CA4 16775 -0.1028 12.010000
16776 ha 16637 TPSG HA4 16776 0.1262 1.008000
16777 ca 16637 TPSG CA3 16777 -0.1548 12.010000
16778 ha 16637 TPSG HA3 16778 0.1282 1.008000
16779 OA 16637 TPSG O1 16779 -0.675000 15.99940
16780 HG 16637 TPSG H6 16780 0.400000 2.01600
16781 ha 16638 TPSG HA2 16781 0.1332 1.008000
16782 ca 16638 TPSG CA2 16782 -0.0753 12.010000
16783 ca 16638 TPSG CA1 16783 -0.361 12.010000
16784 si 16638 TPSG Si 16784 1.1 28.085000
16785 ca 16638 TPSG CA6 16785 -0.0753 12.010000
16786 ha 16638 TPSG HH6 16786 0.1332 1.008000
16787 ca 16638 TPSG CA5 16787 -0.1548 12.010000
16788 ha 16638 TPSG HA5 16788 0.1282 1.008000
16789 ca 16638 TPSG CA4 16789 -0.1028 12.010000
16790 ha 16638 TPSG HA4 16790 0.1262 1.008000
16791 ca 16638 TPSG CA3 16791 -0.1548 12.010000
16792 ha 16638 TPSG HA3 16792 0.1282 1.008000
16793 OA 16638 TPSG O1 16793 -0.675000 15.99940
16794 HG 16638 TPSG H6 16794 0.400000 2.01600
16795 ha 16639 TPSG HA2 16795 0.1332 1.008000
16796 ca 16639 TPSG CA2 16796 -0.0753 12.010000
16797 ca 16639 TPSG CA1 16797 -0.361 12.010000
16798 si 16639 TPSG Si 16798 1.1 28.085000
16799 ca 16639 TPSG CA6 16799 -0.0753 12.010000
16800 ha 16639 TPSG HH6 16800 0.1332 1.008000
16801 ca 16639 TPSG CA5 16801 -0.1548 12.010000
16802 ha 16639 TPSG HA5 16802 0.1282 1.008000
16803 ca 16639 TPSG CA4 16803 -0.1028 12.010000
16804 ha 16639 TPSG HA4 16804 0.1262 1.008000
16805 ca 16639 TPSG CA3 16805 -0.1548 12.010000
16806 ha 16639 TPSG HA3 16806 0.1282 1.008000
16807 OA 16639 TPSG O1 16807 -0.675000 15.99940
16808 HG 16639 TPSG H6 16808 0.400000 2.01600
16809 ha 16640 TPSG HA2 16809 0.1332 1.008000
16810 ca 16640 TPSG CA2 16810 -0.0753 12.010000
16811 ca 16640 TPSG CA1 16811 -0.361 12.010000
16812 si 16640 TPSG Si 16812 1.1 28.085000
16813 ca 16640 TPSG CA6 16813 -0.0753 12.010000
16814 ha 16640 TPSG HH6 16814 0.1332 1.008000
16815 ca 16640 TPSG CA5 16815 -0.1548 12.010000
16816 ha 16640 TPSG HA5 16816 0.1282 1.008000
16817 ca 16640 TPSG CA4 16817 -0.1028 12.010000
16818 ha 16640 TPSG HA4 16818 0.1262 1.008000
16819 ca 16640 TPSG CA3 16819 -0.1548 12.010000
16820 ha 16640 TPSG HA3 16820 0.1282 1.008000
16821 OA 16640 TPSG O1 16821 -0.675000 15.99940
16822 HG 16640 TPSG H6 16822 0.400000 2.01600
16823 ha 16641 TPSG HA2 16823 0.1332 1.008000
16824 ca 16641 TPSG CA2 16824 -0.0753 12.010000
16825 ca 16641 TPSG CA1 16825 -0.361 12.010000
16826 si 16641 TPSG Si 16826 1.1 28.085000
16827 ca 16641 TPSG CA6 16827 -0.0753 12.010000
16828 ha 16641 TPSG HH6 16828 0.1332 1.008000
16829 ca 16641 TPSG CA5 16829 -0.1548 12.010000
16830 ha 16641 TPSG HA5 16830 0.1282 1.008000
16831 ca 16641 TPSG CA4 16831 -0.1028 12.010000
16832 ha 16641 TPSG HA4 16832 0.1262 1.008000
16833 ca 16641 TPSG CA3 16833 -0.1548 12.010000
16834 ha 16641 TPSG HA3 16834 0.1282 1.008000
16835 OA 16641 TPSG O1 16835 -0.675000 15.99940
16836 HG 16641 TPSG H6 16836 0.400000 2.01600
16837 ha 16642 TPSG HA2 16837 0.1332 1.008000
16838 ca 16642 TPSG CA2 16838 -0.0753 12.010000
16839 ca 16642 TPSG CA1 16839 -0.361 12.010000
16840 si 16642 TPSG Si 16840 1.1 28.085000
16841 ca 16642 TPSG CA6 16841 -0.0753 12.010000
16842 ha 16642 TPSG HH6 16842 0.1332 1.008000
16843 ca 16642 TPSG CA5 16843 -0.1548 12.010000
16844 ha 16642 TPSG HA5 16844 0.1282 1.008000
16845 ca 16642 TPSG CA4 16845 -0.1028 12.010000
16846 ha 16642 TPSG HA4 16846 0.1262 1.008000
16847 ca 16642 TPSG CA3 16847 -0.1548 12.010000
16848 ha 16642 TPSG HA3 16848 0.1282 1.008000
16849 OA 16642 TPSG O1 16849 -0.675000 15.99940
16850 HG 16642 TPSG H6 16850 0.400000 2.01600
16851 ha 16643 TPSG HA2 16851 0.1332 1.008000
16852 ca 16643 TPSG CA2 16852 -0.0753 12.010000
16853 ca 16643 TPSG CA1 16853 -0.361 12.010000
16854 si 16643 TPSG Si 16854 1.1 28.085000
16855 ca 16643 TPSG CA6 16855 -0.0753 12.010000
16856 ha 16643 TPSG HH6 16856 0.1332 1.008000
16857 ca 16643 TPSG CA5 16857 -0.1548 12.010000
16858 ha 16643 TPSG HA5 16858 0.1282 1.008000
16859 ca 16643 TPSG CA4 16859 -0.1028 12.010000
16860 ha 16643 TPSG HA4 16860 0.1262 1.008000
16861 ca 16643 TPSG CA3 16861 -0.1548 12.010000
16862 ha 16643 TPSG HA3 16862 0.1282 1.008000
16863 OA 16643 TPSG O1 16863 -0.675000 15.99940
16864 HG 16643 TPSG H6 16864 0.400000 2.01600
16865 ha 16644 TPSG HA2 16865 0.1332 1.008000
16866 ca 16644 TPSG CA2 16866 -0.0753 12.010000
16867 ca 16644 TPSG CA1 16867 -0.361 12.010000
16868 si 16644 TPSG Si 16868 1.1 28.085000
16869 ca 16644 TPSG CA6 16869 -0.0753 12.010000
16870 ha 16644 TPSG HH6 16870 0.1332 1.008000
16871 ca 16644 TPSG CA5 16871 -0.1548 12.010000
16872 ha 16644 TPSG HA5 16872 0.1282 1.008000
16873 ca 16644 TPSG CA4 16873 -0.1028 12.010000
16874 ha 16644 TPSG HA4 16874 0.1262 1.008000
16875 ca 16644 TPSG CA3 16875 -0.1548 12.010000
16876 ha 16644 TPSG HA3 16876 0.1282 1.008000
16877 OA 16644 TPSG O1 16877 -0.675000 15.99940
16878 HG 16644 TPSG H6 16878 0.400000 2.01600
16879 ha 16645 TPSG HA2 16879 0.1332 1.008000
16880 ca 16645 TPSG CA2 16880 -0.0753 12.010000
16881 ca 16645 TPSG CA1 16881 -0.361 12.010000
16882 si 16645 TPSG Si 16882 1.1 28.085000
16883 ca 16645 TPSG CA6 16883 -0.0753 12.010000
16884 ha 16645 TPSG HH6 16884 0.1332 1.008000
16885 ca 16645 TPSG CA5 16885 -0.1548 12.010000
16886 ha 16645 TPSG HA5 16886 0.1282 1.008000
16887 ca 16645 TPSG CA4 16887 -0.1028 12.010000
16888 ha 16645 TPSG HA4 16888 0.1262 1.008000
16889 ca 16645 TPSG CA3 16889 -0.1548 12.010000
16890 ha 16645 TPSG HA3 16890 0.1282 1.008000
16891 OA 16645 TPSG O1 16891 -0.675000 15.99940
16892 HG 16645 TPSG H6 16892 0.400000 2.01600
16893 ha 16646 TPSG HA2 16893 0.1332 1.008000
16894 ca 16646 TPSG CA2 16894 -0.0753 12.010000
16895 ca 16646 TPSG CA1 16895 -0.361 12.010000
16896 si 16646 TPSG Si 16896 1.1 28.085000
16897 ca 16646 TPSG CA6 16897 -0.0753 12.010000
16898 ha 16646 TPSG HH6 16898 0.1332 1.008000
16899 ca 16646 TPSG CA5 16899 -0.1548 12.010000
16900 ha 16646 TPSG HA5 16900 0.1282 1.008000
16901 ca 16646 TPSG CA4 16901 -0.1028 12.010000
16902 ha 16646 TPSG HA4 16902 0.1262 1.008000
16903 ca 16646 TPSG CA3 16903 -0.1548 12.010000
16904 ha 16646 TPSG HA3 16904 0.1282 1.008000
16905 OA 16646 TPSG O1 16905 -0.675000 15.99940
16906 HG 16646 TPSG H6 16906 0.400000 2.01600
16907 ha 16647 TPSG HA2 16907 0.1332 1.008000
16908 ca 16647 TPSG CA2 16908 -0.0753 12.010000
16909 ca 16647 TPSG CA1 16909 -0.361 12.010000
16910 si 16647 TPSG Si 16910 1.1 28.085000
16911 ca 16647 TPSG CA6 16911 -0.0753 12.010000
16912 ha 16647 TPSG HH6 16912 0.1332 1.008000
16913 ca 16647 TPSG CA5 16913 -0.1548 12.010000
16914 ha 16647 TPSG HA5 16914 0.1282 1.008000
16915 ca 16647 TPSG CA4 16915 -0.1028 12.010000
16916 ha 16647 TPSG HA4 16916 0.1262 1.008000
16917 ca 16647 TPSG CA3 16917 -0.1548 12.010000
16918 ha 16647 TPSG HA3 16918 0.1282 1.008000
16919 OA 16647 TPSG O1 16919 -0.675000 15.99940
16920 HG 16647 TPSG H6 16920 0.400000 2.01600
16921 ha 16648 TPSG HA2 16921 0.1332 1.008000
16922 ca 16648 TPSG CA2 16922 -0.0753 12.010000
16923 ca 16648 TPSG CA1 16923 -0.361 12.010000
16924 si 16648 TPSG Si 16924 1.1 28.085000
16925 ca 16648 TPSG CA6 16925 -0.0753 12.010000
16926 ha 16648 TPSG HH6 16926 0.1332 1.008000
16927 ca 16648 TPSG CA5 16927 -0.1548 12.010000
16928 ha 16648 TPSG HA5 16928 0.1282 1.008000
16929 ca 16648 TPSG CA4 16929 -0.1028 12.010000
16930 ha 16648 TPSG HA4 16930 0.1262 1.008000
16931 ca 16648 TPSG CA3 16931 -0.1548 12.010000
16932 ha 16648 TPSG HA3 16932 0.1282 1.008000
16933 OA 16648 TPSG O1 16933 -0.675000 15.99940
16934 HG 16648 TPSG H6 16934 0.400000 2.01600
16935 ha 16649 TPSG HA2 16935 0.1332 1.008000
16936 ca 16649 TPSG CA2 16936 -0.0753 12.010000
16937 ca 16649 TPSG CA1 16937 -0.361 12.010000
16938 si 16649 TPSG Si 16938 1.1 28.085000
16939 ca 16649 TPSG CA6 16939 -0.0753 12.010000
16940 ha 16649 TPSG HH6 16940 0.1332 1.008000
16941 ca 16649 TPSG CA5 16941 -0.1548 12.010000
16942 ha 16649 TPSG HA5 16942 0.1282 1.008000
16943 ca 16649 TPSG CA4 16943 -0.1028 12.010000
16944 ha 16649 TPSG HA4 16944 0.1262 1.008000
16945 ca 16649 TPSG CA3 16945 -0.1548 12.010000
16946 ha 16649 TPSG HA3 16946 0.1282 1.008000
16947 OA 16649 TPSG O1 16947 -0.675000 15.99940
16948 HG 16649 TPSG H6 16948 0.400000 2.01600
16949 ha 16650 TPSG HA2 16949 0.1332 1.008000
16950 ca 16650 TPSG CA2 16950 -0.0753 12.010000
16951 ca 16650 TPSG CA1 16951 -0.361 12.010000
16952 si 16650 TPSG Si 16952 1.1 28.085000
16953 ca 16650 TPSG CA6 16953 -0.0753 12.010000
16954 ha 16650 TPSG HH6 16954 0.1332 1.008000
16955 ca 16650 TPSG CA5 16955 -0.1548 12.010000
16956 ha 16650 TPSG HA5 16956 0.1282 1.008000
16957 ca 16650 TPSG CA4 16957 -0.1028 12.010000
16958 ha 16650 TPSG HA4 16958 0.1262 1.008000
16959 ca 16650 TPSG CA3 16959 -0.1548 12.010000
16960 ha 16650 TPSG HA3 16960 0.1282 1.008000
16961 OA 16650 TPSG O1 16961 -0.675000 15.99940
16962 HG 16650 TPSG H6 16962 0.400000 2.01600
16963 ha 16651 TPSG HA2 16963 0.1332 1.008000
16964 ca 16651 TPSG CA2 16964 -0.0753 12.010000
16965 ca 16651 TPSG CA1 16965 -0.361 12.010000
16966 si 16651 TPSG Si 16966 1.1 28.085000
16967 ca 16651 TPSG CA6 16967 -0.0753 12.010000
16968 ha 16651 TPSG HH6 16968 0.1332 1.008000
16969 ca 16651 TPSG CA5 16969 -0.1548 12.010000
16970 ha 16651 TPSG HA5 16970 0.1282 1.008000
16971 ca 16651 TPSG CA4 16971 -0.1028 12.010000
16972 ha 16651 TPSG HA4 16972 0.1262 1.008000
16973 ca 16651 TPSG CA3 16973 -0.1548 12.010000
16974 ha 16651 TPSG HA3 16974 0.1282 1.008000
16975 OA 16651 TPSG O1 16975 -0.675000 15.99940
16976 HG 16651 TPSG H6 16976 0.400000 2.01600
16977 ha 16652 TPSG HA2 16977 0.1332 1.008000
16978 ca 16652 TPSG CA2 16978 -0.0753 12.010000
16979 ca 16652 TPSG CA1 16979 -0.361 12.010000
16980 si 16652 TPSG Si 16980 1.1 28.085000
16981 ca 16652 TPSG CA6 16981 -0.0753 12.010000
16982 ha 16652 TPSG HH6 16982 0.1332 1.008000
16983 ca 16652 TPSG CA5 16983 -0.1548 12.010000
16984 ha 16652 TPSG HA5 16984 0.1282 1.008000
16985 ca 16652 TPSG CA4 16985 -0.1028 12.010000
16986 ha 16652 TPSG HA4 16986 0.1262 1.008000
16987 ca 16652 TPSG CA3 16987 -0.1548 12.010000
16988 ha 16652 TPSG HA3 16988 0.1282 1.008000
16989 OA 16652 TPSG O1 16989 -0.675000 15.99940
16990 HG 16652 TPSG H6 16990 0.400000 2.01600
16991 ha 16653 TPSG HA2 16991 0.1332 1.008000
16992 ca 16653 TPSG CA2 16992 -0.0753 12.010000
16993 ca 16653 TPSG CA1 16993 -0.361 12.010000
16994 si 16653 TPSG Si 16994 1.1 28.085000
16995 ca 16653 TPSG CA6 16995 -0.0753 12.010000
16996 ha 16653 TPSG HH6 16996 0.1332 1.008000
16997 ca 16653 TPSG CA5 16997 -0.1548 12.010000
16998 ha 16653 TPSG HA5 16998 0.1282 1.008000
16999 ca 16653 TPSG CA4 16999 -0.1028 12.010000
17000 ha 16653 TPSG HA4 17000 0.1262 1.008000
17001 ca 16653 TPSG CA3 17001 -0.1548 12.010000
17002 ha 16653 TPSG HA3 17002 0.1282 1.008000
17003 OA 16653 TPSG O1 17003 -0.675000 15.99940
17004 HG 16653 TPSG H6 17004 0.400000 2.01600
17005 ha 16654 TPSG HA2 17005 0.1332 1.008000
17006 ca 16654 TPSG CA2 17006 -0.0753 12.010000
17007 ca 16654 TPSG CA1 17007 -0.361 12.010000
17008 si 16654 TPSG Si 17008 1.1 28.085000
17009 ca 16654 TPSG CA6 17009 -0.0753 12.010000
17010 ha 16654 TPSG HH6 17010 0.1332 1.008000
17011 ca 16654 TPSG CA5 17011 -0.1548 12.010000
17012 ha 16654 TPSG HA5 17012 0.1282 1.008000
17013 ca 16654 TPSG CA4 17013 -0.1028 12.010000
17014 ha 16654 TPSG HA4 17014 0.1262 1.008000
17015 ca 16654 TPSG CA3 17015 -0.1548 12.010000
17016 ha 16654 TPSG HA3 17016 0.1282 1.008000
17017 OA 16654 TPSG O1 17017 -0.675000 15.99940
17018 HG 16654 TPSG H6 17018 0.400000 2.01600
17019 ha 16655 TPSG HA2 17019 0.1332 1.008000
17020 ca 16655 TPSG CA2 17020 -0.0753 12.010000
17021 ca 16655 TPSG CA1 17021 -0.361 12.010000
17022 si 16655 TPSG Si 17022 1.1 28.085000
17023 ca 16655 TPSG CA6 17023 -0.0753 12.010000
17024 ha 16655 TPSG HH6 17024 0.1332 1.008000
17025 ca 16655 TPSG CA5 17025 -0.1548 12.010000
17026 ha 16655 TPSG HA5 17026 0.1282 1.008000
17027 ca 16655 TPSG CA4 17027 -0.1028 12.010000
17028 ha 16655 TPSG HA4 17028 0.1262 1.008000
17029 ca 16655 TPSG CA3 17029 -0.1548 12.010000
17030 ha 16655 TPSG HA3 17030 0.1282 1.008000
17031 OA 16655 TPSG O1 17031 -0.675000 15.99940
17032 HG 16655 TPSG H6 17032 0.400000 2.01600
17033 ha 16656 TPSG HA2 17033 0.1332 1.008000
17034 ca 16656 TPSG CA2 17034 -0.0753 12.010000
17035 ca 16656 TPSG CA1 17035 -0.361 12.010000
17036 si 16656 TPSG Si 17036 1.1 28.085000
17037 ca 16656 TPSG CA6 17037 -0.0753 12.010000
17038 ha 16656 TPSG HH6 17038 0.1332 1.008000
17039 ca 16656 TPSG CA5 17039 -0.1548 12.010000
17040 ha 16656 TPSG HA5 17040 0.1282 1.008000
17041 ca 16656 TPSG CA4 17041 -0.1028 12.010000
17042 ha 16656 TPSG HA4 17042 0.1262 1.008000
17043 ca 16656 TPSG CA3 17043 -0.1548 12.010000
17044 ha 16656 TPSG HA3 17044 0.1282 1.008000
17045 OA 16656 TPSG O1 17045 -0.675000 15.99940
17046 HG 16656 TPSG H6 17046 0.400000 2.01600
17047 ha 16657 TPSG HA2 17047 0.1332 1.008000
17048 ca 16657 TPSG CA2 17048 -0.0753 12.010000
17049 ca 16657 TPSG CA1 17049 -0.361 12.010000
17050 si 16657 TPSG Si 17050 1.1 28.085000
17051 ca 16657 TPSG CA6 17051 -0.0753 12.010000
17052 ha 16657 TPSG HH6 17052 0.1332 1.008000
17053 ca 16657 TPSG CA5 17053 -0.1548 12.010000
17054 ha 16657 TPSG HA5 17054 0.1282 1.008000
17055 ca 16657 TPSG CA4 17055 -0.1028 12.010000
17056 ha 16657 TPSG HA4 17056 0.1262 1.008000
17057 ca 16657 TPSG CA3 17057 -0.1548 12.010000
17058 ha 16657 TPSG HA3 17058 0.1282 1.008000
17059 OA 16657 TPSG O1 17059 -0.675000 15.99940
17060 HG 16657 TPSG H6 17060 0.400000 2.01600
17061 ha 16658 TPSG HA2 17061 0.1332 1.008000
17062 ca 16658 TPSG CA2 17062 -0.0753 12.010000
17063 ca 16658 TPSG CA1 17063 -0.361 12.010000
17064 si 16658 TPSG Si 17064 1.1 28.085000
17065 ca 16658 TPSG CA6 17065 -0.0753 12.010000
17066 ha 16658 TPSG HH6 17066 0.1332 1.008000
17067 ca 16658 TPSG CA5 17067 -0.1548 12.010000
17068 ha 16658 TPSG HA5 17068 0.1282 1.008000
17069 ca 16658 TPSG CA4 17069 -0.1028 12.010000
17070 ha 16658 TPSG HA4 17070 0.1262 1.008000
17071 ca 16658 TPSG CA3 17071 -0.1548 12.010000
17072 ha 16658 TPSG HA3 17072 0.1282 1.008000
17073 OA 16658 TPSG O1 17073 -0.675000 15.99940
17074 HG 16658 TPSG H6 17074 0.400000 2.01600
17075 ha 16659 TPSG HA2 17075 0.1332 1.008000
17076 ca 16659 TPSG CA2 17076 -0.0753 12.010000
17077 ca 16659 TPSG CA1 17077 -0.361 12.010000
17078 si 16659 TPSG Si 17078 1.1 28.085000
17079 ca 16659 TPSG CA6 17079 -0.0753 12.010000
17080 ha 16659 TPSG HH6 17080 0.1332 1.008000
17081 ca 16659 TPSG CA5 17081 -0.1548 12.010000
17082 ha 16659 TPSG HA5 17082 0.1282 1.008000
17083 ca 16659 TPSG CA4 17083 -0.1028 12.010000
17084 ha 16659 TPSG HA4 17084 0.1262 1.008000
17085 ca 16659 TPSG CA3 17085 -0.1548 12.010000
17086 ha 16659 TPSG HA3 17086 0.1282 1.008000
17087 OA 16659 TPSG O1 17087 -0.675000 15.99940
17088 HG 16659 TPSG H6 17088 0.400000 2.01600
17089 ha 16660 TPSG HA2 17089 0.1332 1.008000
17090 ca 16660 TPSG CA2 17090 -0.0753 12.010000
17091 ca 16660 TPSG CA1 17091 -0.361 12.010000
17092 si 16660 TPSG Si 17092 1.1 28.085000
17093 ca 16660 TPSG CA6 17093 -0.0753 12.010000
17094 ha 16660 TPSG HH6 17094 0.1332 1.008000
17095 ca 16660 TPSG CA5 17095 -0.1548 12.010000
17096 ha 16660 TPSG HA5 17096 0.1282 1.008000
17097 ca 16660 TPSG CA4 17097 -0.1028 12.010000
17098 ha 16660 TPSG HA4 17098 0.1262 1.008000
17099 ca 16660 TPSG CA3 17099 -0.1548 12.010000
17100 ha 16660 TPSG HA3 17100 0.1282 1.008000
17101 OA 16660 TPSG O1 17101 -0.675000 15.99940
17102 HG 16660 TPSG H6 17102 0.400000 2.01600
17103 ha 16661 TPSG HA2 17103 0.1332 1.008000
17104 ca 16661 TPSG CA2 17104 -0.0753 12.010000
17105 ca 16661 TPSG CA1 17105 -0.361 12.010000
17106 si 16661 TPSG Si 17106 1.1 28.085000
17107 ca 16661 TPSG CA6 17107 -0.0753 12.010000
17108 ha 16661 TPSG HH6 17108 0.1332 1.008000
17109 ca 16661 TPSG CA5 17109 -0.1548 12.010000
17110 ha 16661 TPSG HA5 17110 0.1282 1.008000
17111 ca 16661 TPSG CA4 17111 -0.1028 12.010000
17112 ha 16661 TPSG HA4 17112 0.1262 1.008000
17113 ca 16661 TPSG CA3 17113 -0.1548 12.010000
17114 ha 16661 TPSG HA3 17114 0.1282 1.008000
17115 OA 16661 TPSG O1 17115 -0.675000 15.99940
17116 HG 16661 TPSG H6 17116 0.400000 2.01600
17117 ha 16662 TPSG HA2 17117 0.1332 1.008000
17118 ca 16662 TPSG CA2 17118 -0.0753 12.010000
17119 ca 16662 TPSG CA1 17119 -0.361 12.010000
17120 si 16662 TPSG Si 17120 1.1 28.085000
17121 ca 16662 TPSG CA6 17121 -0.0753 12.010000
17122 ha 16662 TPSG HH6 17122 0.1332 1.008000
17123 ca 16662 TPSG CA5 17123 -0.1548 12.010000
17124 ha 16662 TPSG HA5 17124 0.1282 1.008000
17125 ca 16662 TPSG CA4 17125 -0.1028 12.010000
17126 ha 16662 TPSG HA4 17126 0.1262 1.008000
17127 ca 16662 TPSG CA3 17127 -0.1548 12.010000
17128 ha 16662 TPSG HA3 17128 0.1282 1.008000
17129 OA 16662 TPSG O1 17129 -0.675000 15.99940
17130 HG 16662 TPSG H6 17130 0.400000 2.01600
17131 ha 16663 TPSG HA2 17131 0.1332 1.008000
17132 ca 16663 TPSG CA2 17132 -0.0753 12.010000
17133 ca 16663 TPSG CA1 17133 -0.361 12.010000
17134 si 16663 TPSG Si 17134 1.1 28.085000
17135 ca 16663 TPSG CA6 17135 -0.0753 12.010000
17136 ha 16663 TPSG HH6 17136 0.1332 1.008000
17137 ca 16663 TPSG CA5 17137 -0.1548 12.010000
17138 ha 16663 TPSG HA5 17138 0.1282 1.008000
17139 ca 16663 TPSG CA4 17139 -0.1028 12.010000
17140 ha 16663 TPSG HA4 17140 0.1262 1.008000
17141 ca 16663 TPSG CA3 17141 -0.1548 12.010000
17142 ha 16663 TPSG HA3 17142 0.1282 1.008000
17143 OA 16663 TPSG O1 17143 -0.675000 15.99940
17144 HG 16663 TPSG H6 17144 0.400000 2.01600
17145 ha 16664 TPSG HA2 17145 0.1332 1.008000
17146 ca 16664 TPSG CA2 17146 -0.0753 12.010000
17147 ca 16664 TPSG CA1 17147 -0.361 12.010000
17148 si 16664 TPSG Si 17148 1.1 28.085000
17149 ca 16664 TPSG CA6 17149 -0.0753 12.010000
17150 ha 16664 TPSG HH6 17150 0.1332 1.008000
17151 ca 16664 TPSG CA5 17151 -0.1548 12.010000
17152 ha 16664 TPSG HA5 17152 0.1282 1.008000
17153 ca 16664 TPSG CA4 17153 -0.1028 12.010000
17154 ha 16664 TPSG HA4 17154 0.1262 1.008000
17155 ca 16664 TPSG CA3 17155 -0.1548 12.010000
17156 ha 16664 TPSG HA3 17156 0.1282 1.008000
17157 OA 16664 TPSG O1 17157 -0.675000 15.99940
17158 HG 16664 TPSG H6 17158 0.400000 2.01600
17159 ha 16665 TPSG HA2 17159 0.1332 1.008000
17160 ca 16665 TPSG CA2 17160 -0.0753 12.010000
17161 ca 16665 TPSG CA1 17161 -0.361 12.010000
17162 si 16665 TPSG Si 17162 1.1 28.085000
17163 ca 16665 TPSG CA6 17163 -0.0753 12.010000
17164 ha 16665 TPSG HH6 17164 0.1332 1.008000
17165 ca 16665 TPSG CA5 17165 -0.1548 12.010000
17166 ha 16665 TPSG HA5 17166 0.1282 1.008000
17167 ca 16665 TPSG CA4 17167 -0.1028 12.010000
17168 ha 16665 TPSG HA4 17168 0.1262 1.008000
17169 ca 16665 TPSG CA3 17169 -0.1548 12.010000
17170 ha 16665 TPSG HA3 17170 0.1282 1.008000
17171 OA 16665 TPSG O1 17171 -0.675000 15.99940
17172 HG 16665 TPSG H6 17172 0.400000 2.01600
17173 ha 16666 TPSG HA2 17173 0.1332 1.008000
17174 ca 16666 TPSG CA2 17174 -0.0753 12.010000
17175 ca 16666 TPSG CA1 17175 -0.361 12.010000
17176 si 16666 TPSG Si 17176 1.1 28.085000
17177 ca 16666 TPSG CA6 17177 -0.0753 12.010000
17178 ha 16666 TPSG HH6 17178 0.1332 1.008000
17179 ca 16666 TPSG CA5 17179 -0.1548 12.010000
17180 ha 16666 TPSG HA5 17180 0.1282 1.008000
17181 ca 16666 TPSG CA4 17181 -0.1028 12.010000
17182 ha 16666 TPSG HA4 17182 0.1262 1.008000
17183 ca 16666 TPSG CA3 17183 -0.1548 12.010000
17184 ha 16666 TPSG HA3 17184 0.1282 1.008000
17185 OA 16666 TPSG O1 17185 -0.675000 15.99940
17186 HG 16666 TPSG H6 17186 0.400000 2.01600
17187 ha 16667 TPSG HA2 17187 0.1332 1.008000
17188 ca 16667 TPSG CA2 17188 -0.0753 12.010000
17189 ca 16667 TPSG CA1 17189 -0.361 12.010000
17190 si 16667 TPSG Si 17190 1.1 28.085000
17191 ca 16667 TPSG CA6 17191 -0.0753 12.010000
17192 ha 16667 TPSG HH6 17192 0.1332 1.008000
17193 ca 16667 TPSG CA5 17193 -0.1548 12.010000
17194 ha 16667 TPSG HA5 17194 0.1282 1.008000
17195 ca 16667 TPSG CA4 17195 -0.1028 12.010000
17196 ha 16667 TPSG HA4 17196 0.1262 1.008000
17197 ca 16667 TPSG CA3 17197 -0.1548 12.010000
17198 ha 16667 TPSG HA3 17198 0.1282 1.008000
17199 OA 16667 TPSG O1 17199 -0.675000 15.99940
17200 HG 16667 TPSG H6 17200 0.400000 2.01600
17201 ha 16668 TPSG HA2 17201 0.1332 1.008000
17202 ca 16668 TPSG CA2 17202 -0.0753 12.010000
17203 ca 16668 TPSG CA1 17203 -0.361 12.010000
17204 si 16668 TPSG Si 17204 1.1 28.085000
17205 ca 16668 TPSG CA6 17205 -0.0753 12.010000
17206 ha 16668 TPSG HH6 17206 0.1332 1.008000
17207 ca 16668 TPSG CA5 17207 -0.1548 12.010000
17208 ha 16668 TPSG HA5 17208 0.1282 1.008000
17209 ca 16668 TPSG CA4 17209 -0.1028 12.010000
17210 ha 16668 TPSG HA4 17210 0.1262 1.008000
17211 ca 16668 TPSG CA3 17211 -0.1548 12.010000
17212 ha 16668 TPSG HA3 17212 0.1282 1.008000
17213 OA 16668 TPSG O1 17213 -0.675000 15.99940
17214 HG 16668 TPSG H6 17214 0.400000 2.01600
17215 ha 16669 TPSG HA2 17215 0.1332 1.008000
17216 ca 16669 TPSG CA2 17216 -0.0753 12.010000
17217 ca 16669 TPSG CA1 17217 -0.361 12.010000
17218 si 16669 TPSG Si 17218 1.1 28.085000
17219 ca 16669 TPSG CA6 17219 -0.0753 12.010000
17220 ha 16669 TPSG HH6 17220 0.1332 1.008000
17221 ca 16669 TPSG CA5 17221 -0.1548 12.010000
17222 ha 16669 TPSG HA5 17222 0.1282 1.008000
17223 ca 16669 TPSG CA4 17223 -0.1028 12.010000
17224 ha 16669 TPSG HA4 17224 0.1262 1.008000
17225 ca 16669 TPSG CA3 17225 -0.1548 12.010000
17226 ha 16669 TPSG HA3 17226 0.1282 1.008000
17227 OA 16669 TPSG O1 17227 -0.675000 15.99940
17228 HG 16669 TPSG H6 17228 0.400000 2.01600
17229 ha 16670 TPSG HA2 17229 0.1332 1.008000
17230 ca 16670 TPSG CA2 17230 -0.0753 12.010000
17231 ca 16670 TPSG CA1 17231 -0.361 12.010000
17232 si 16670 TPSG Si 17232 1.1 28.085000
17233 ca 16670 TPSG CA6 17233 -0.0753 12.010000
17234 ha 16670 TPSG HH6 17234 0.1332 1.008000
17235 ca 16670 TPSG CA5 17235 -0.1548 12.010000
17236 ha 16670 TPSG HA5 17236 0.1282 1.008000
17237 ca 16670 TPSG CA4 17237 -0.1028 12.010000
17238 ha 16670 TPSG HA4 17238 0.1262 1.008000
17239 ca 16670 TPSG CA3 17239 -0.1548 12.010000
17240 ha 16670 TPSG HA3 17240 0.1282 1.008000
17241 OA 16670 TPSG O1 17241 -0.675000 15.99940
17242 HG 16670 TPSG H6 17242 0.400000 2.01600
17243 ha 16671 TPSG HA2 17243 0.1332 1.008000
17244 ca 16671 TPSG CA2 17244 -0.0753 12.010000
17245 ca 16671 TPSG CA1 17245 -0.361 12.010000
17246 si 16671 TPSG Si 17246 1.1 28.085000
17247 ca 16671 TPSG CA6 17247 -0.0753 12.010000
17248 ha 16671 TPSG HH6 17248 0.1332 1.008000
17249 ca 16671 TPSG CA5 17249 -0.1548 12.010000
17250 ha 16671 TPSG HA5 17250 0.1282 1.008000
17251 ca 16671 TPSG CA4 17251 -0.1028 12.010000
17252 ha 16671 TPSG HA4 17252 0.1262 1.008000
17253 ca 16671 TPSG CA3 17253 -0.1548 12.010000
17254 ha 16671 TPSG HA3 17254 0.1282 1.008000
17255 OA 16671 TPSG O1 17255 -0.675000 15.99940
17256 HG 16671 TPSG H6 17256 0.400000 2.01600
17257 ha 16672 TPSG HA2 17257 0.1332 1.008000
17258 ca 16672 TPSG CA2 17258 -0.0753 12.010000
17259 ca 16672 TPSG CA1 17259 -0.361 12.010000
17260 si 16672 TPSG Si 17260 1.1 28.085000
17261 ca 16672 TPSG CA6 17261 -0.0753 12.010000
17262 ha 16672 TPSG HH6 17262 0.1332 1.008000
17263 ca 16672 TPSG CA5 17263 -0.1548 12.010000
17264 ha 16672 TPSG HA5 17264 0.1282 1.008000
17265 ca 16672 TPSG CA4 17265 -0.1028 12.010000
17266 ha 16672 TPSG HA4 17266 0.1262 1.008000
17267 ca 16672 TPSG CA3 17267 -0.1548 12.010000
17268 ha 16672 TPSG HA3 17268 0.1282 1.008000
17269 OA 16672 TPSG O1 17269 -0.675000 15.99940
17270 HG 16672 TPSG H6 17270 0.400000 2.01600
17271 ha 16673 TPSG HA2 17271 0.1332 1.008000
17272 ca 16673 TPSG CA2 17272 -0.0753 12.010000
17273 ca 16673 TPSG CA1 17273 -0.361 12.010000
17274 si 16673 TPSG Si 17274 1.1 28.085000
17275 ca 16673 TPSG CA6 17275 -0.0753 12.010000
17276 ha 16673 TPSG HH6 17276 0.1332 1.008000
17277 ca 16673 TPSG CA5 17277 -0.1548 12.010000
17278 ha 16673 TPSG HA5 17278 0.1282 1.008000
17279 ca 16673 TPSG CA4 17279 -0.1028 12.010000
17280 ha 16673 TPSG HA4 17280 0.1262 1.008000
17281 ca 16673 TPSG CA3 17281 -0.1548 12.010000
17282 ha 16673 TPSG HA3 17282 0.1282 1.008000
17283 OA 16673 TPSG O1 17283 -0.675000 15.99940
17284 HG 16673 TPSG H6 17284 0.400000 2.01600
17285 ha 16674 TPSG HA2 17285 0.1332 1.008000
17286 ca 16674 TPSG CA2 17286 -0.0753 12.010000
17287 ca 16674 TPSG CA1 17287 -0.361 12.010000
17288 si 16674 TPSG Si 17288 1.1 28.085000
17289 ca 16674 TPSG CA6 17289 -0.0753 12.010000
17290 ha 16674 TPSG HH6 17290 0.1332 1.008000
17291 ca 16674 TPSG CA5 17291 -0.1548 12.010000
17292 ha 16674 TPSG HA5 17292 0.1282 1.008000
17293 ca 16674 TPSG CA4 17293 -0.1028 12.010000
17294 ha 16674 TPSG HA4 17294 0.1262 1.008000
17295 ca 16674 TPSG CA3 17295 -0.1548 12.010000
17296 ha 16674 TPSG HA3 17296 0.1282 1.008000
17297 OA 16674 TPSG O1 17297 -0.675000 15.99940
17298 HG 16674 TPSG H6 17298 0.400000 2.01600
17299 ha 16675 TPSG HA2 17299 0.1332 1.008000
17300 ca 16675 TPSG CA2 17300 -0.0753 12.010000
17301 ca 16675 TPSG CA1 17301 -0.361 12.010000
17302 si 16675 TPSG Si 17302 1.1 28.085000
17303 ca 16675 TPSG CA6 17303 -0.0753 12.010000
17304 ha 16675 TPSG HH6 17304 0.1332 1.008000
17305 ca 16675 TPSG CA5 17305 -0.1548 12.010000
17306 ha 16675 TPSG HA5 17306 0.1282 1.008000
17307 ca 16675 TPSG CA4 17307 -0.1028 12.010000
17308 ha 16675 TPSG HA4 17308 0.1262 1.008000
17309 ca 16675 TPSG CA3 17309 -0.1548 12.010000
17310 ha 16675 TPSG HA3 17310 0.1282 1.008000
17311 OA 16675 TPSG O1 17311 -0.675000 15.99940
17312 HG 16675 TPSG H6 17312 0.400000 2.01600
17313 ha 16676 TPSG HA2 17313 0.1332 1.008000
17314 ca 16676 TPSG CA2 17314 -0.0753 12.010000
17315 ca 16676 TPSG CA1 17315 -0.361 12.010000
17316 si 16676 TPSG Si 17316 1.1 28.085000
17317 ca 16676 TPSG CA6 17317 -0.0753 12.010000
17318 ha 16676 TPSG HH6 17318 0.1332 1.008000
17319 ca 16676 TPSG CA5 17319 -0.1548 12.010000
17320 ha 16676 TPSG HA5 17320 0.1282 1.008000
17321 ca 16676 TPSG CA4 17321 -0.1028 12.010000
17322 ha 16676 TPSG HA4 17322 0.1262 1.008000
17323 ca 16676 TPSG CA3 17323 -0.1548 12.010000
17324 ha 16676 TPSG HA3 17324 0.1282 1.008000
17325 OA 16676 TPSG O1 17325 -0.675000 15.99940
17326 HG 16676 TPSG H6 17326 0.400000 2.01600
17327 ha 16677 TPSG HA2 17327 0.1332 1.008000
17328 ca 16677 TPSG CA2 17328 -0.0753 12.010000
17329 ca 16677 TPSG CA1 17329 -0.361 12.010000
17330 si 16677 TPSG Si 17330 1.1 28.085000
17331 ca 16677 TPSG CA6 17331 -0.0753 12.010000
17332 ha 16677 TPSG HH6 17332 0.1332 1.008000
17333 ca 16677 TPSG CA5 17333 -0.1548 12.010000
17334 ha 16677 TPSG HA5 17334 0.1282 1.008000
17335 ca 16677 TPSG CA4 17335 -0.1028 12.010000
17336 ha 16677 TPSG HA4 17336 0.1262 1.008000
17337 ca 16677 TPSG CA3 17337 -0.1548 12.010000
17338 ha 16677 TPSG HA3 17338 0.1282 1.008000
17339 OA 16677 TPSG O1 17339 -0.675000 15.99940
17340 HG 16677 TPSG H6 17340 0.400000 2.01600
17341 ha 16678 TPSG HA2 17341 0.1332 1.008000
17342 ca 16678 TPSG CA2 17342 -0.0753 12.010000
17343 ca 16678 TPSG CA1 17343 -0.361 12.010000
17344 si 16678 TPSG Si 17344 1.1 28.085000
17345 ca 16678 TPSG CA6 17345 -0.0753 12.010000
17346 ha 16678 TPSG HH6 17346 0.1332 1.008000
17347 ca 16678 TPSG CA5 17347 -0.1548 12.010000
17348 ha 16678 TPSG HA5 17348 0.1282 1.008000
17349 ca 16678 TPSG CA4 17349 -0.1028 12.010000
17350 ha 16678 TPSG HA4 17350 0.1262 1.008000
17351 ca 16678 TPSG CA3 17351 -0.1548 12.010000
17352 ha 16678 TPSG HA3 17352 0.1282 1.008000
17353 OA 16678 TPSG O1 17353 -0.675000 15.99940
17354 HG 16678 TPSG H6 17354 0.400000 2.01600
17355 ha 16679 TPSG HA2 17355 0.1332 1.008000
17356 ca 16679 TPSG CA2 17356 -0.0753 12.010000
17357 ca 16679 TPSG CA1 17357 -0.361 12.010000
17358 si 16679 TPSG Si 17358 1.1 28.085000
17359 ca 16679 TPSG CA6 17359 -0.0753 12.010000
17360 ha 16679 TPSG HH6 17360 0.1332 1.008000
17361 ca 16679 TPSG CA5 17361 -0.1548 12.010000
17362 ha 16679 TPSG HA5 17362 0.1282 1.008000
17363 ca 16679 TPSG CA4 17363 -0.1028 12.010000
17364 ha 16679 TPSG HA4 17364 0.1262 1.008000
17365 ca 16679 TPSG CA3 17365 -0.1548 12.010000
17366 ha 16679 TPSG HA3 17366 0.1282 1.008000
17367 OA 16679 TPSG O1 17367 -0.675000 15.99940
17368 HG 16679 TPSG H6 17368 0.400000 2.01600
17369 ha 16680 TPSG HA2 17369 0.1332 1.008000
17370 ca 16680 TPSG CA2 17370 -0.0753 12.010000
17371 ca 16680 TPSG CA1 17371 -0.361 12.010000
17372 si 16680 TPSG Si 17372 1.1 28.085000
17373 ca 16680 TPSG CA6 17373 -0.0753 12.010000
17374 ha 16680 TPSG HH6 17374 0.1332 1.008000
17375 ca 16680 TPSG CA5 17375 -0.1548 12.010000
17376 ha 16680 TPSG HA5 17376 0.1282 1.008000
17377 ca 16680 TPSG CA4 17377 -0.1028 12.010000
17378 ha 16680 TPSG HA4 17378 0.1262 1.008000
17379 ca 16680 TPSG CA3 17379 -0.1548 12.010000
17380 ha 16680 TPSG HA3 17380 0.1282 1.008000
17381 OA 16680 TPSG O1 17381 -0.675000 15.99940
17382 HG 16680 TPSG H6 17382 0.400000 2.01600
17383 ha 16681 TPSG HA2 17383 0.1332 1.008000
17384 ca 16681 TPSG CA2 17384 -0.0753 12.010000
17385 ca 16681 TPSG CA1 17385 -0.361 12.010000
17386 si 16681 TPSG Si 17386 1.1 28.085000
17387 ca 16681 TPSG CA6 17387 -0.0753 12.010000
17388 ha 16681 TPSG HH6 17388 0.1332 1.008000
17389 ca 16681 TPSG CA5 17389 -0.1548 12.010000
17390 ha 16681 TPSG HA5 17390 0.1282 1.008000
17391 ca 16681 TPSG CA4 17391 -0.1028 12.010000
17392 ha 16681 TPSG HA4 17392 0.1262 1.008000
17393 ca 16681 TPSG CA3 17393 -0.1548 12.010000
17394 ha 16681 TPSG HA3 17394 0.1282 1.008000
17395 OA 16681 TPSG O1 17395 -0.675000 15.99940
17396 HG 16681 TPSG H6 17396 0.400000 2.01600
17397 ha 16682 TPSG HA2 17397 0.1332 1.008000
17398 ca 16682 TPSG CA2 17398 -0.0753 12.010000
17399 ca 16682 TPSG CA1 17399 -0.361 12.010000
17400 si 16682 TPSG Si 17400 1.1 28.085000
17401 ca 16682 TPSG CA6 17401 -0.0753 12.010000
17402 ha 16682 TPSG HH6 17402 0.1332 1.008000
17403 ca 16682 TPSG CA5 17403 -0.1548 12.010000
17404 ha 16682 TPSG HA5 17404 0.1282 1.008000
17405 ca 16682 TPSG CA4 17405 -0.1028 12.010000
17406 ha 16682 TPSG HA4 17406 0.1262 1.008000
17407 ca 16682 TPSG CA3 17407 -0.1548 12.010000
17408 ha 16682 TPSG HA3 17408 0.1282 1.008000
17409 OA 16682 TPSG O1 17409 -0.675000 15.99940
17410 HG 16682 TPSG H6 17410 0.400000 2.01600
17411 ha 16683 TPSG HA2 17411 0.1332 1.008000
17412 ca 16683 TPSG CA2 17412 -0.0753 12.010000
17413 ca 16683 TPSG CA1 17413 -0.361 12.010000
17414 si 16683 TPSG Si 17414 1.1 28.085000
17415 ca 16683 TPSG CA6 17415 -0.0753 12.010000
17416 ha 16683 TPSG HH6 17416 0.1332 1.008000
17417 ca 16683 TPSG CA5 17417 -0.1548 12.010000
17418 ha 16683 TPSG HA5 17418 0.1282 1.008000
17419 ca 16683 TPSG CA4 17419 -0.1028 12.010000
17420 ha 16683 TPSG HA4 17420 0.1262 1.008000
17421 ca 16683 TPSG CA3 17421 -0.1548 12.010000
17422 ha 16683 TPSG HA3 17422 0.1282 1.008000
17423 OA 16683 TPSG O1 17423 -0.675000 15.99940
17424 HG 16683 TPSG H6 17424 0.400000 2.01600
17425 ha 16684 TPSG HA2 17425 0.1332 1.008000
17426 ca 16684 TPSG CA2 17426 -0.0753 12.010000
17427 ca 16684 TPSG CA1 17427 -0.361 12.010000
17428 si 16684 TPSG Si 17428 1.1 28.085000
17429 ca 16684 TPSG CA6 17429 -0.0753 12.010000
17430 ha 16684 TPSG HH6 17430 0.1332 1.008000
17431 ca 16684 TPSG CA5 17431 -0.1548 12.010000
17432 ha 16684 TPSG HA5 17432 0.1282 1.008000
17433 ca 16684 TPSG CA4 17433 -0.1028 12.010000
17434 ha 16684 TPSG HA4 17434 0.1262 1.008000
17435 ca 16684 TPSG CA3 17435 -0.1548 12.010000
17436 ha 16684 TPSG HA3 17436 0.1282 1.008000
17437 OA 16684 TPSG O1 17437 -0.675000 15.99940
17438 HG 16684 TPSG H6 17438 0.400000 2.01600
17439 ha 16685 TPSG HA2 17439 0.1332 1.008000
17440 ca 16685 TPSG CA2 17440 -0.0753 12.010000
17441 ca 16685 TPSG CA1 17441 -0.361 12.010000
17442 si 16685 TPSG Si 17442 1.1 28.085000
17443 ca 16685 TPSG CA6 17443 -0.0753 12.010000
17444 ha 16685 TPSG HH6 17444 0.1332 1.008000
17445 ca 16685 TPSG CA5 17445 -0.1548 12.010000
17446 ha 16685 TPSG HA5 17446 0.1282 1.008000
17447 ca 16685 TPSG CA4 17447 -0.1028 12.010000
17448 ha 16685 TPSG HA4 17448 0.1262 1.008000
17449 ca 16685 TPSG CA3 17449 -0.1548 12.010000
17450 ha 16685 TPSG HA3 17450 0.1282 1.008000
17451 OA 16685 TPSG O1 17451 -0.675000 15.99940
17452 HG 16685 TPSG H6 17452 0.400000 2.01600
17453 ha 16686 TPSG HA2 17453 0.1332 1.008000
17454 ca 16686 TPSG CA2 17454 -0.0753 12.010000
17455 ca 16686 TPSG CA1 17455 -0.361 12.010000
17456 si 16686 TPSG Si 17456 1.1 28.085000
17457 ca 16686 TPSG CA6 17457 -0.0753 12.010000
17458 ha 16686 TPSG HH6 17458 0.1332 1.008000
17459 ca 16686 TPSG CA5 17459 -0.1548 12.010000
17460 ha 16686 TPSG HA5 17460 0.1282 1.008000
17461 ca 16686 TPSG CA4 17461 -0.1028 12.010000
17462 ha 16686 TPSG HA4 17462 0.1262 1.008000
17463 ca 16686 TPSG CA3 17463 -0.1548 12.010000
17464 ha 16686 TPSG HA3 17464 0.1282 1.008000
17465 OA 16686 TPSG O1 17465 -0.675000 15.99940
17466 HG 16686 TPSG H6 17466 0.400000 2.01600
17467 ha 16687 TPSG HA2 17467 0.1332 1.008000
17468 ca 16687 TPSG CA2 17468 -0.0753 12.010000
17469 ca 16687 TPSG CA1 17469 -0.361 12.010000
17470 si 16687 TPSG Si 17470 1.1 28.085000
17471 ca 16687 TPSG CA6 17471 -0.0753 12.010000
17472 ha 16687 TPSG HH6 17472 0.1332 1.008000
17473 ca 16687 TPSG CA5 17473 -0.1548 12.010000
17474 ha 16687 TPSG HA5 17474 0.1282 1.008000
17475 ca 16687 TPSG CA4 17475 -0.1028 12.010000
17476 ha 16687 TPSG HA4 17476 0.1262 1.008000
17477 ca 16687 TPSG CA3 17477 -0.1548 12.010000
17478 ha 16687 TPSG HA3 17478 0.1282 1.008000
17479 OA 16687 TPSG O1 17479 -0.675000 15.99940
17480 HG 16687 TPSG H6 17480 0.400000 2.01600
17481 ha 16688 TPSG HA2 17481 0.1332 1.008000
17482 ca 16688 TPSG CA2 17482 -0.0753 12.010000
17483 ca 16688 TPSG CA1 17483 -0.361 12.010000
17484 si 16688 TPSG Si 17484 1.1 28.085000
17485 ca 16688 TPSG CA6 17485 -0.0753 12.010000
17486 ha 16688 TPSG HH6 17486 0.1332 1.008000
17487 ca 16688 TPSG CA5 17487 -0.1548 12.010000
17488 ha 16688 TPSG HA5 17488 0.1282 1.008000
17489 ca 16688 TPSG CA4 17489 -0.1028 12.010000
17490 ha 16688 TPSG HA4 17490 0.1262 1.008000
17491 ca 16688 TPSG CA3 17491 -0.1548 12.010000
17492 ha 16688 TPSG HA3 17492 0.1282 1.008000
17493 OA 16688 TPSG O1 17493 -0.675000 15.99940
17494 HG 16688 TPSG H6 17494 0.400000 2.01600
17495 ha 16689 TPSG HA2 17495 0.1332 1.008000
17496 ca 16689 TPSG CA2 17496 -0.0753 12.010000
17497 ca 16689 TPSG CA1 17497 -0.361 12.010000
17498 si 16689 TPSG Si 17498 1.1 28.085000
17499 ca 16689 TPSG CA6 17499 -0.0753 12.010000
17500 ha 16689 TPSG HH6 17500 0.1332 1.008000
17501 ca 16689 TPSG CA5 17501 -0.1548 12.010000
17502 ha 16689 TPSG HA5 17502 0.1282 1.008000
17503 ca 16689 TPSG CA4 17503 -0.1028 12.010000
17504 ha 16689 TPSG HA4 17504 0.1262 1.008000
17505 ca 16689 TPSG CA3 17505 -0.1548 12.010000
17506 ha 16689 TPSG HA3 17506 0.1282 1.008000
17507 OA 16689 TPSG O1 17507 -0.675000 15.99940
17508 HG 16689 TPSG H6 17508 0.400000 2.01600
17509 ha 16690 TPSG HA2 17509 0.1332 1.008000
17510 ca 16690 TPSG CA2 17510 -0.0753 12.010000
17511 ca 16690 TPSG CA1 17511 -0.361 12.010000
17512 si 16690 TPSG Si 17512 1.1 28.085000
17513 ca 16690 TPSG CA6 17513 -0.0753 12.010000
17514 ha 16690 TPSG HH6 17514 0.1332 1.008000
17515 ca 16690 TPSG CA5 17515 -0.1548 12.010000
17516 ha 16690 TPSG HA5 17516 0.1282 1.008000
17517 ca 16690 TPSG CA4 17517 -0.1028 12.010000
17518 ha 16690 TPSG HA4 17518 0.1262 1.008000
17519 ca 16690 TPSG CA3 17519 -0.1548 12.010000
17520 ha 16690 TPSG HA3 17520 0.1282 1.008000
17521 OA 16690 TPSG O1 17521 -0.675000 15.99940
17522 HG 16690 TPSG H6 17522 0.400000 2.01600
17523 ha 16691 TPSG HA2 17523 0.1332 1.008000
17524 ca 16691 TPSG CA2 17524 -0.0753 12.010000
17525 ca 16691 TPSG CA1 17525 -0.361 12.010000
17526 si 16691 TPSG Si 17526 1.1 28.085000
17527 ca 16691 TPSG CA6 17527 -0.0753 12.010000
17528 ha 16691 TPSG HH6 17528 0.1332 1.008000
17529 ca 16691 TPSG CA5 17529 -0.1548 12.010000
17530 ha 16691 TPSG HA5 17530 0.1282 1.008000
17531 ca 16691 TPSG CA4 17531 -0.1028 12.010000
17532 ha 16691 TPSG HA4 17532 0.1262 1.008000
17533 ca 16691 TPSG CA3 17533 -0.1548 12.010000
17534 ha 16691 TPSG HA3 17534 0.1282 1.008000
17535 OA 16691 TPSG O1 17535 -0.675000 15.99940
17536 HG 16691 TPSG H6 17536 0.400000 2.01600
17537 ha 16692 TPSG HA2 17537 0.1332 1.008000
17538 ca 16692 TPSG CA2 17538 -0.0753 12.010000
17539 ca 16692 TPSG CA1 17539 -0.361 12.010000
17540 si 16692 TPSG Si 17540 1.1 28.085000
17541 ca 16692 TPSG CA6 17541 -0.0753 12.010000
17542 ha 16692 TPSG HH6 17542 0.1332 1.008000
17543 ca 16692 TPSG CA5 17543 -0.1548 12.010000
17544 ha 16692 TPSG HA5 17544 0.1282 1.008000
17545 ca 16692 TPSG CA4 17545 -0.1028 12.010000
17546 ha 16692 TPSG HA4 17546 0.1262 1.008000
17547 ca 16692 TPSG CA3 17547 -0.1548 12.010000
17548 ha 16692 TPSG HA3 17548 0.1282 1.008000
17549 OA 16692 TPSG O1 17549 -0.675000 15.99940
17550 HG 16692 TPSG H6 17550 0.400000 2.01600
17551 ha 16693 TPSG HA2 17551 0.1332 1.008000
17552 ca 16693 TPSG CA2 17552 -0.0753 12.010000
17553 ca 16693 TPSG CA1 17553 -0.361 12.010000
17554 si 16693 TPSG Si 17554 1.1 28.085000
17555 ca 16693 TPSG CA6 17555 -0.0753 12.010000
17556 ha 16693 TPSG HH6 17556 0.1332 1.008000
17557 ca 16693 TPSG CA5 17557 -0.1548 12.010000
17558 ha 16693 TPSG HA5 17558 0.1282 1.008000
17559 ca 16693 TPSG CA4 17559 -0.1028 12.010000
17560 ha 16693 TPSG HA4 17560 0.1262 1.008000
17561 ca 16693 TPSG CA3 17561 -0.1548 12.010000
17562 ha 16693 TPSG HA3 17562 0.1282 1.008000
17563 OA 16693 TPSG O1 17563 -0.675000 15.99940
17564 HG 16693 TPSG H6 17564 0.400000 2.01600
17565 ha 16694 TPSG HA2 17565 0.1332 1.008000
17566 ca 16694 TPSG CA2 17566 -0.0753 12.010000
17567 ca 16694 TPSG CA1 17567 -0.361 12.010000
17568 si 16694 TPSG Si 17568 1.1 28.085000
17569 ca 16694 TPSG CA6 17569 -0.0753 12.010000
17570 ha 16694 TPSG HH6 17570 0.1332 1.008000
17571 ca 16694 TPSG CA5 17571 -0.1548 12.010000
17572 ha 16694 TPSG HA5 17572 0.1282 1.008000
17573 ca 16694 TPSG CA4 17573 -0.1028 12.010000
17574 ha 16694 TPSG HA4 17574 0.1262 1.008000
17575 ca 16694 TPSG CA3 17575 -0.1548 12.010000
17576 ha 16694 TPSG HA3 17576 0.1282 1.008000
17577 OA 16694 TPSG O1 17577 -0.675000 15.99940
17578 HG 16694 TPSG H6 17578 0.400000 2.01600
17579 ha 16695 TPSG HA2 17579 0.1332 1.008000
17580 ca 16695 TPSG CA2 17580 -0.0753 12.010000
17581 ca 16695 TPSG CA1 17581 -0.361 12.010000
17582 si 16695 TPSG Si 17582 1.1 28.085000
17583 ca 16695 TPSG CA6 17583 -0.0753 12.010000
17584 ha 16695 TPSG HH6 17584 0.1332 1.008000
17585 ca 16695 TPSG CA5 17585 -0.1548 12.010000
17586 ha 16695 TPSG HA5 17586 0.1282 1.008000
17587 ca 16695 TPSG CA4 17587 -0.1028 12.010000
17588 ha 16695 TPSG HA4 17588 0.1262 1.008000
17589 ca 16695 TPSG CA3 17589 -0.1548 12.010000
17590 ha 16695 TPSG HA3 17590 0.1282 1.008000
17591 OA 16695 TPSG O1 17591 -0.675000 15.99940
17592 HG 16695 TPSG H6 17592 0.400000 2.01600
17593 ha 16696 TPSG HA2 17593 0.1332 1.008000
17594 ca 16696 TPSG CA2 17594 -0.0753 12.010000
17595 ca 16696 TPSG CA1 17595 -0.361 12.010000
17596 si 16696 TPSG Si 17596 1.1 28.085000
17597 ca 16696 TPSG CA6 17597 -0.0753 12.010000
17598 ha 16696 TPSG HH6 17598 0.1332 1.008000
17599 ca 16696 TPSG CA5 17599 -0.1548 12.010000
17600 ha 16696 TPSG HA5 17600 0.1282 1.008000
17601 ca 16696 TPSG CA4 17601 -0.1028 12.010000
17602 ha 16696 TPSG HA4 17602 0.1262 1.008000
17603 ca 16696 TPSG CA3 17603 -0.1548 12.010000
17604 ha 16696 TPSG HA3 17604 0.1282 1.008000
17605 OA 16696 TPSG O1 17605 -0.675000 15.99940
17606 HG 16696 TPSG H6 17606 0.400000 2.01600
17607 ha 16697 TPSG HA2 17607 0.1332 1.008000
17608 ca 16697 TPSG CA2 17608 -0.0753 12.010000
17609 ca 16697 TPSG CA1 17609 -0.361 12.010000
17610 si 16697 TPSG Si 17610 1.1 28.085000
17611 ca 16697 TPSG CA6 17611 -0.0753 12.010000
17612 ha 16697 TPSG HH6 17612 0.1332 1.008000
17613 ca 16697 TPSG CA5 17613 -0.1548 12.010000
17614 ha 16697 TPSG HA5 17614 0.1282 1.008000
17615 ca 16697 TPSG CA4 17615 -0.1028 12.010000
17616 ha 16697 TPSG HA4 17616 0.1262 1.008000
17617 ca 16697 TPSG CA3 17617 -0.1548 12.010000
17618 ha 16697 TPSG HA3 17618 0.1282 1.008000
17619 OA 16697 TPSG O1 17619 -0.675000 15.99940
17620 HG 16697 TPSG H6 17620 0.400000 2.01600
17621 ha 16698 TPSG HA2 17621 0.1332 1.008000
17622 ca 16698 TPSG CA2 17622 -0.0753 12.010000
17623 ca 16698 TPSG CA1 17623 -0.361 12.010000
17624 si 16698 TPSG Si 17624 1.1 28.085000
17625 ca 16698 TPSG CA6 17625 -0.0753 12.010000
17626 ha 16698 TPSG HH6 17626 0.1332 1.008000
17627 ca 16698 TPSG CA5 17627 -0.1548 12.010000
17628 ha 16698 TPSG HA5 17628 0.1282 1.008000
17629 ca 16698 TPSG CA4 17629 -0.1028 12.010000
17630 ha 16698 TPSG HA4 17630 0.1262 1.008000
17631 ca 16698 TPSG CA3 17631 -0.1548 12.010000
17632 ha 16698 TPSG HA3 17632 0.1282 1.008000
17633 OA 16698 TPSG O1 17633 -0.675000 15.99940
17634 HG 16698 TPSG H6 17634 0.400000 2.01600
17635 ha 16699 TPSG HA2 17635 0.1332 1.008000
17636 ca 16699 TPSG CA2 17636 -0.0753 12.010000
17637 ca 16699 TPSG CA1 17637 -0.361 12.010000
17638 si 16699 TPSG Si 17638 1.1 28.085000
17639 ca 16699 TPSG CA6 17639 -0.0753 12.010000
17640 ha 16699 TPSG HH6 17640 0.1332 1.008000
17641 ca 16699 TPSG CA5 17641 -0.1548 12.010000
17642 ha 16699 TPSG HA5 17642 0.1282 1.008000
17643 ca 16699 TPSG CA4 17643 -0.1028 12.010000
17644 ha 16699 TPSG HA4 17644 0.1262 1.008000
17645 ca 16699 TPSG CA3 17645 -0.1548 12.010000
17646 ha 16699 TPSG HA3 17646 0.1282 1.008000
17647 OA 16699 TPSG O1 17647 -0.675000 15.99940
17648 HG 16699 TPSG H6 17648 0.400000 2.01600
17649 ha 16700 TPSG HA2 17649 0.1332 1.008000
17650 ca 16700 TPSG CA2 17650 -0.0753 12.010000
17651 ca 16700 TPSG CA1 17651 -0.361 12.010000
17652 si 16700 TPSG Si 17652 1.1 28.085000
17653 ca 16700 TPSG CA6 17653 -0.0753 12.010000
17654 ha 16700 TPSG HH6 17654 0.1332 1.008000
17655 ca 16700 TPSG CA5 17655 -0.1548 12.010000
17656 ha 16700 TPSG HA5 17656 0.1282 1.008000
17657 ca 16700 TPSG CA4 17657 -0.1028 12.010000
17658 ha 16700 TPSG HA4 17658 0.1262 1.008000
17659 ca 16700 TPSG CA3 17659 -0.1548 12.010000
17660 ha 16700 TPSG HA3 17660 0.1282 1.008000
17661 OA 16700 TPSG O1 17661 -0.675000 15.99940
17662 HG 16700 TPSG H6 17662 0.400000 2.01600
17663 ha 16701 TPSG HA2 17663 0.1332 1.008000
17664 ca 16701 TPSG CA2 17664 -0.0753 12.010000
17665 ca 16701 TPSG CA1 17665 -0.361 12.010000
17666 si 16701 TPSG Si 17666 1.1 28.085000
17667 ca 16701 TPSG CA6 17667 -0.0753 12.010000
17668 ha 16701 TPSG HH6 17668 0.1332 1.008000
17669 ca 16701 TPSG CA5 17669 -0.1548 12.010000
17670 ha 16701 TPSG HA5 17670 0.1282 1.008000
17671 ca 16701 TPSG CA4 17671 -0.1028 12.010000
17672 ha 16701 TPSG HA4 17672 0.1262 1.008000
17673 ca 16701 TPSG CA3 17673 -0.1548 12.010000
17674 ha 16701 TPSG HA3 17674 0.1282 1.008000
17675 OA 16701 TPSG O1 17675 -0.675000 15.99940
17676 HG 16701 TPSG H6 17676 0.400000 2.01600
17677 ha 16702 TPSG HA2 17677 0.1332 1.008000
17678 ca 16702 TPSG CA2 17678 -0.0753 12.010000
17679 ca 16702 TPSG CA1 17679 -0.361 12.010000
17680 si 16702 TPSG Si 17680 1.1 28.085000
17681 ca 16702 TPSG CA6 17681 -0.0753 12.010000
17682 ha 16702 TPSG HH6 17682 0.1332 1.008000
17683 ca 16702 TPSG CA5 17683 -0.1548 12.010000
17684 ha 16702 TPSG HA5 17684 0.1282 1.008000
17685 ca 16702 TPSG CA4 17685 -0.1028 12.010000
17686 ha 16702 TPSG HA4 17686 0.1262 1.008000
17687 ca 16702 TPSG CA3 17687 -0.1548 12.010000
17688 ha 16702 TPSG HA3 17688 0.1282 1.008000
17689 OA 16702 TPSG O1 17689 -0.675000 15.99940
17690 HG 16702 TPSG H6 17690 0.400000 2.01600
17691 ha 16703 TPSG HA2 17691 0.1332 1.008000
17692 ca 16703 TPSG CA2 17692 -0.0753 12.010000
17693 ca 16703 TPSG CA1 17693 -0.361 12.010000
17694 si 16703 TPSG Si 17694 1.1 28.085000
17695 ca 16703 TPSG CA6 17695 -0.0753 12.010000
17696 ha 16703 TPSG HH6 17696 0.1332 1.008000
17697 ca 16703 TPSG CA5 17697 -0.1548 12.010000
17698 ha 16703 TPSG HA5 17698 0.1282 1.008000
17699 ca 16703 TPSG CA4 17699 -0.1028 12.010000
17700 ha 16703 TPSG HA4 17700 0.1262 1.008000
17701 ca 16703 TPSG CA3 17701 -0.1548 12.010000
17702 ha 16703 TPSG HA3 17702 0.1282 1.008000
17703 OA 16703 TPSG O1 17703 -0.675000 15.99940
17704 HG 16703 TPSG H6 17704 0.400000 2.01600
17705 ha 16704 TPSG HA2 17705 0.1332 1.008000
17706 ca 16704 TPSG CA2 17706 -0.0753 12.010000
17707 ca 16704 TPSG CA1 17707 -0.361 12.010000
17708 si 16704 TPSG Si 17708 1.1 28.085000
17709 ca 16704 TPSG CA6 17709 -0.0753 12.010000
17710 ha 16704 TPSG HH6 17710 0.1332 1.008000
17711 ca 16704 TPSG CA5 17711 -0.1548 12.010000
17712 ha 16704 TPSG HA5 17712 0.1282 1.008000
17713 ca 16704 TPSG CA4 17713 -0.1028 12.010000
17714 ha 16704 TPSG HA4 17714 0.1262 1.008000
17715 ca 16704 TPSG CA3 17715 -0.1548 12.010000
17716 ha 16704 TPSG HA3 17716 0.1282 1.008000
17717 OA 16704 TPSG O1 17717 -0.675000 15.99940
17718 HG 16704 TPSG H6 17718 0.400000 2.01600
17719 ha 16705 TPSG HA2 17719 0.1332 1.008000
17720 ca 16705 TPSG CA2 17720 -0.0753 12.010000
17721 ca 16705 TPSG CA1 17721 -0.361 12.010000
17722 si 16705 TPSG Si 17722 1.1 28.085000
17723 ca 16705 TPSG CA6 17723 -0.0753 12.010000
17724 ha 16705 TPSG HH6 17724 0.1332 1.008000
17725 ca 16705 TPSG CA5 17725 -0.1548 12.010000
17726 ha 16705 TPSG HA5 17726 0.1282 1.008000
17727 ca 16705 TPSG CA4 17727 -0.1028 12.010000
17728 ha 16705 TPSG HA4 17728 0.1262 1.008000
17729 ca 16705 TPSG CA3 17729 -0.1548 12.010000
17730 ha 16705 TPSG HA3 17730 0.1282 1.008000
17731 OA 16705 TPSG O1 17731 -0.675000 15.99940
17732 HG 16705 TPSG H6 17732 0.400000 2.01600
17733 ha 16706 TPSG HA2 17733 0.1332 1.008000
17734 ca 16706 TPSG CA2 17734 -0.0753 12.010000
17735 ca 16706 TPSG CA1 17735 -0.361 12.010000
17736 si 16706 TPSG Si 17736 1.1 28.085000
17737 ca 16706 TPSG CA6 17737 -0.0753 12.010000
17738 ha 16706 TPSG HH6 17738 0.1332 1.008000
17739 ca 16706 TPSG CA5 17739 -0.1548 12.010000
17740 ha 16706 TPSG HA5 17740 0.1282 1.008000
17741 ca 16706 TPSG CA4 17741 -0.1028 12.010000
17742 ha 16706 TPSG HA4 17742 0.1262 1.008000
17743 ca 16706 TPSG CA3 17743 -0.1548 12.010000
17744 ha 16706 TPSG HA3 17744 0.1282 1.008000
17745 OA 16706 TPSG O1 17745 -0.675000 15.99940
17746 HG 16706 TPSG H6 17746 0.400000 2.01600
17747 ha 16707 TPSG HA2 17747 0.1332 1.008000
17748 ca 16707 TPSG CA2 17748 -0.0753 12.010000
17749 ca 16707 TPSG CA1 17749 -0.361 12.010000
17750 si 16707 TPSG Si 17750 1.1 28.085000
17751 ca 16707 TPSG CA6 17751 -0.0753 12.010000
17752 ha 16707 TPSG HH6 17752 0.1332 1.008000
17753 ca 16707 TPSG CA5 17753 -0.1548 12.010000
17754 ha 16707 TPSG HA5 17754 0.1282 1.008000
17755 ca 16707 TPSG CA4 17755 -0.1028 12.010000
17756 ha 16707 TPSG HA4 17756 0.1262 1.008000
17757 ca 16707 TPSG CA3 17757 -0.1548 12.010000
17758 ha 16707 TPSG HA3 17758 0.1282 1.008000
17759 OA 16707 TPSG O1 17759 -0.675000 15.99940
17760 HG 16707 TPSG H6 17760 0.400000 2.01600
17761 ha 16708 TPSG HA2 17761 0.1332 1.008000
17762 ca 16708 TPSG CA2 17762 -0.0753 12.010000
17763 ca 16708 TPSG CA1 17763 -0.361 12.010000
17764 si 16708 TPSG Si 17764 1.1 28.085000
17765 ca 16708 TPSG CA6 17765 -0.0753 12.010000
17766 ha 16708 TPSG HH6 17766 0.1332 1.008000
17767 ca 16708 TPSG CA5 17767 -0.1548 12.010000
17768 ha 16708 TPSG HA5 17768 0.1282 1.008000
17769 ca 16708 TPSG CA4 17769 -0.1028 12.010000
17770 ha 16708 TPSG HA4 17770 0.1262 1.008000
17771 ca 16708 TPSG CA3 17771 -0.1548 12.010000
17772 ha 16708 TPSG HA3 17772 0.1282 1.008000
17773 OA 16708 TPSG O1 17773 -0.675000 15.99940
17774 HG 16708 TPSG H6 17774 0.400000 2.01600
17775 ha 16709 TPSG HA2 17775 0.1332 1.008000
17776 ca 16709 TPSG CA2 17776 -0.0753 12.010000
17777 ca 16709 TPSG CA1 17777 -0.361 12.010000
17778 si 16709 TPSG Si 17778 1.1 28.085000
17779 ca 16709 TPSG CA6 17779 -0.0753 12.010000
17780 ha 16709 TPSG HH6 17780 0.1332 1.008000
17781 ca 16709 TPSG CA5 17781 -0.1548 12.010000
17782 ha 16709 TPSG HA5 17782 0.1282 1.008000
17783 ca 16709 TPSG CA4 17783 -0.1028 12.010000
17784 ha 16709 TPSG HA4 17784 0.1262 1.008000
17785 ca 16709 TPSG CA3 17785 -0.1548 12.010000
17786 ha 16709 TPSG HA3 17786 0.1282 1.008000
17787 OA 16709 TPSG O1 17787 -0.675000 15.99940
17788 HG 16709 TPSG H6 17788 0.400000 2.01600
17789 ha 16710 TPSG HA2 17789 0.1332 1.008000
17790 ca 16710 TPSG CA2 17790 -0.0753 12.010000
17791 ca 16710 TPSG CA1 17791 -0.361 12.010000
17792 si 16710 TPSG Si 17792 1.1 28.085000
17793 ca 16710 TPSG CA6 17793 -0.0753 12.010000
17794 ha 16710 TPSG HH6 17794 0.1332 1.008000
17795 ca 16710 TPSG CA5 17795 -0.1548 12.010000
17796 ha 16710 TPSG HA5 17796 0.1282 1.008000
17797 ca 16710 TPSG CA4 17797 -0.1028 12.010000
17798 ha 16710 TPSG HA4 17798 0.1262 1.008000
17799 ca 16710 TPSG CA3 17799 -0.1548 12.010000
17800 ha 16710 TPSG HA3 17800 0.1282 1.008000
17801 OA 16710 TPSG O1 17801 -0.675000 15.99940
17802 HG 16710 TPSG H6 17802 0.400000 2.01600
17803 ha 16711 TPSG HA2 17803 0.1332 1.008000
17804 ca 16711 TPSG CA2 17804 -0.0753 12.010000
17805 ca 16711 TPSG CA1 17805 -0.361 12.010000
17806 si 16711 TPSG Si 17806 1.1 28.085000
17807 ca 16711 TPSG CA6 17807 -0.0753 12.010000
17808 ha 16711 TPSG HH6 17808 0.1332 1.008000
17809 ca 16711 TPSG CA5 17809 -0.1548 12.010000
17810 ha 16711 TPSG HA5 17810 0.1282 1.008000
17811 ca 16711 TPSG CA4 17811 -0.1028 12.010000
17812 ha 16711 TPSG HA4 17812 0.1262 1.008000
17813 ca 16711 TPSG CA3 17813 -0.1548 12.010000
17814 ha 16711 TPSG HA3 17814 0.1282 1.008000
17815 OA 16711 TPSG O1 17815 -0.675000 15.99940
17816 HG 16711 TPSG H6 17816 0.400000 2.01600
17817 ha 16712 TPSG HA2 17817 0.1332 1.008000
17818 ca 16712 TPSG CA2 17818 -0.0753 12.010000
17819 ca 16712 TPSG CA1 17819 -0.361 12.010000
17820 si 16712 TPSG Si 17820 1.1 28.085000
17821 ca 16712 TPSG CA6 17821 -0.0753 12.010000
17822 ha 16712 TPSG HH6 17822 0.1332 1.008000
17823 ca 16712 TPSG CA5 17823 -0.1548 12.010000
17824 ha 16712 TPSG HA5 17824 0.1282 1.008000
17825 ca 16712 TPSG CA4 17825 -0.1028 12.010000
17826 ha 16712 TPSG HA4 17826 0.1262 1.008000
17827 ca 16712 TPSG CA3 17827 -0.1548 12.010000
17828 ha 16712 TPSG HA3 17828 0.1282 1.008000
17829 OA 16712 TPSG O1 17829 -0.675000 15.99940
17830 HG 16712 TPSG H6 17830 0.400000 2.01600
17831 ha 16713 TPSG HA2 17831 0.1332 1.008000
17832 ca 16713 TPSG CA2 17832 -0.0753 12.010000
17833 ca 16713 TPSG CA1 17833 -0.361 12.010000
17834 si 16713 TPSG Si 17834 1.1 28.085000
17835 ca 16713 TPSG CA6 17835 -0.0753 12.010000
17836 ha 16713 TPSG HH6 17836 0.1332 1.008000
17837 ca 16713 TPSG CA5 17837 -0.1548 12.010000
17838 ha 16713 TPSG HA5 17838 0.1282 1.008000
17839 ca 16713 TPSG CA4 17839 -0.1028 12.010000
17840 ha 16713 TPSG HA4 17840 0.1262 1.008000
17841 ca 16713 TPSG CA3 17841 -0.1548 12.010000
17842 ha 16713 TPSG HA3 17842 0.1282 1.008000
17843 OA 16713 TPSG O1 17843 -0.675000 15.99940
17844 HG 16713 TPSG H6 17844 0.400000 2.01600
17845 ha 16714 TPSG HA2 17845 0.1332 1.008000
17846 ca 16714 TPSG CA2 17846 -0.0753 12.010000
17847 ca 16714 TPSG CA1 17847 -0.361 12.010000
17848 si 16714 TPSG Si 17848 1.1 28.085000
17849 ca 16714 TPSG CA6 17849 -0.0753 12.010000
17850 ha 16714 TPSG HH6 17850 0.1332 1.008000
17851 ca 16714 TPSG CA5 17851 -0.1548 12.010000
17852 ha 16714 TPSG HA5 17852 0.1282 1.008000
17853 ca 16714 TPSG CA4 17853 -0.1028 12.010000
17854 ha 16714 TPSG HA4 17854 0.1262 1.008000
17855 ca 16714 TPSG CA3 17855 -0.1548 12.010000
17856 ha 16714 TPSG HA3 17856 0.1282 1.008000
17857 OA 16714 TPSG O1 17857 -0.675000 15.99940
17858 HG 16714 TPSG H6 17858 0.400000 2.01600
17859 ha 16715 TPSG HA2 17859 0.1332 1.008000
17860 ca 16715 TPSG CA2 17860 -0.0753 12.010000
17861 ca 16715 TPSG CA1 17861 -0.361 12.010000
17862 si 16715 TPSG Si 17862 1.1 28.085000
17863 ca 16715 TPSG CA6 17863 -0.0753 12.010000
17864 ha 16715 TPSG HH6 17864 0.1332 1.008000
17865 ca 16715 TPSG CA5 17865 -0.1548 12.010000
17866 ha 16715 TPSG HA5 17866 0.1282 1.008000
17867 ca 16715 TPSG CA4 17867 -0.1028 12.010000
17868 ha 16715 TPSG HA4 17868 0.1262 1.008000
17869 ca 16715 TPSG CA3 17869 -0.1548 12.010000
17870 ha 16715 TPSG HA3 17870 0.1282 1.008000
17871 OA 16715 TPSG O1 17871 -0.675000 15.99940
17872 HG 16715 TPSG H6 17872 0.400000 2.01600
17873 ha 16716 TPSG HA2 17873 0.1332 1.008000
17874 ca 16716 TPSG CA2 17874 -0.0753 12.010000
17875 ca 16716 TPSG CA1 17875 -0.361 12.010000
17876 si 16716 TPSG Si 17876 1.1 28.085000
17877 ca 16716 TPSG CA6 17877 -0.0753 12.010000
17878 ha 16716 TPSG HH6 17878 0.1332 1.008000
17879 ca 16716 TPSG CA5 17879 -0.1548 12.010000
17880 ha 16716 TPSG HA5 17880 0.1282 1.008000
17881 ca 16716 TPSG CA4 17881 -0.1028 12.010000
17882 ha 16716 TPSG HA4 17882 0.1262 1.008000
17883 ca 16716 TPSG CA3 17883 -0.1548 12.010000
17884 ha 16716 TPSG HA3 17884 0.1282 1.008000
17885 OA 16716 TPSG O1 17885 -0.675000 15.99940
17886 HG 16716 TPSG H6 17886 0.400000 2.01600
17887 ha 16717 TPSG HA2 17887 0.1332 1.008000
17888 ca 16717 TPSG CA2 17888 -0.0753 12.010000
17889 ca 16717 TPSG CA1 17889 -0.361 12.010000
17890 si 16717 TPSG Si 17890 1.1 28.085000
17891 ca 16717 TPSG CA6 17891 -0.0753 12.010000
17892 ha 16717 TPSG HH6 17892 0.1332 1.008000
17893 ca 16717 TPSG CA5 17893 -0.1548 12.010000
17894 ha 16717 TPSG HA5 17894 0.1282 1.008000
17895 ca 16717 TPSG CA4 17895 -0.1028 12.010000
17896 ha 16717 TPSG HA4 17896 0.1262 1.008000
17897 ca 16717 TPSG CA3 17897 -0.1548 12.010000
17898 ha 16717 TPSG HA3 17898 0.1282 1.008000
17899 OA 16717 TPSG O1 17899 -0.675000 15.99940
17900 HG 16717 TPSG H6 17900 0.400000 2.01600
17901 ha 16718 TPSG HA2 17901 0.1332 1.008000
17902 ca 16718 TPSG CA2 17902 -0.0753 12.010000
17903 ca 16718 TPSG CA1 17903 -0.361 12.010000
17904 si 16718 TPSG Si 17904 1.1 28.085000
17905 ca 16718 TPSG CA6 17905 -0.0753 12.010000
17906 ha 16718 TPSG HH6 17906 0.1332 1.008000
17907 ca 16718 TPSG CA5 17907 -0.1548 12.010000
17908 ha 16718 TPSG HA5 17908 0.1282 1.008000
17909 ca 16718 TPSG CA4 17909 -0.1028 12.010000
17910 ha 16718 TPSG HA4 17910 0.1262 1.008000
17911 ca 16718 TPSG CA3 17911 -0.1548 12.010000
17912 ha 16718 TPSG HA3 17912 0.1282 1.008000
17913 OA 16718 TPSG O1 17913 -0.675000 15.99940
17914 HG 16718 TPSG H6 17914 0.400000 2.01600
17915 ha 16719 TPSG HA2 17915 0.1332 1.008000
17916 ca 16719 TPSG CA2 17916 -0.0753 12.010000
17917 ca 16719 TPSG CA1 17917 -0.361 12.010000
17918 si 16719 TPSG Si 17918 1.1 28.085000
17919 ca 16719 TPSG CA6 17919 -0.0753 12.010000
17920 ha 16719 TPSG HH6 17920 0.1332 1.008000
17921 ca 16719 TPSG CA5 17921 -0.1548 12.010000
17922 ha 16719 TPSG HA5 17922 0.1282 1.008000
17923 ca 16719 TPSG CA4 17923 -0.1028 12.010000
17924 ha 16719 TPSG HA4 17924 0.1262 1.008000
17925 ca 16719 TPSG CA3 17925 -0.1548 12.010000
17926 ha 16719 TPSG HA3 17926 0.1282 1.008000
17927 OA 16719 TPSG O1 17927 -0.675000 15.99940
17928 HG 16719 TPSG H6 17928 0.400000 2.01600
17929 ha 16720 TPSG HA2 17929 0.1332 1.008000
17930 ca 16720 TPSG CA2 17930 -0.0753 12.010000
17931 ca 16720 TPSG CA1 17931 -0.361 12.010000
17932 si 16720 TPSG Si 17932 1.1 28.085000
17933 ca 16720 TPSG CA6 17933 -0.0753 12.010000
17934 ha 16720 TPSG HH6 17934 0.1332 1.008000
17935 ca 16720 TPSG CA5 17935 -0.1548 12.010000
17936 ha 16720 TPSG HA5 17936 0.1282 1.008000
17937 ca 16720 TPSG CA4 17937 -0.1028 12.010000
17938 ha 16720 TPSG HA4 17938 0.1262 1.008000
17939 ca 16720 TPSG CA3 17939 -0.1548 12.010000
17940 ha 16720 TPSG HA3 17940 0.1282 1.008000
17941 OA 16720 TPSG O1 17941 -0.675000 15.99940
17942 HG 16720 TPSG H6 17942 0.400000 2.01600
17943 ha 16721 TPSG HA2 17943 0.1332 1.008000
17944 ca 16721 TPSG CA2 17944 -0.0753 12.010000
17945 ca 16721 TPSG CA1 17945 -0.361 12.010000
17946 si 16721 TPSG Si 17946 1.1 28.085000
17947 ca 16721 TPSG CA6 17947 -0.0753 12.010000
17948 ha 16721 TPSG HH6 17948 0.1332 1.008000
17949 ca 16721 TPSG CA5 17949 -0.1548 12.010000
17950 ha 16721 TPSG HA5 17950 0.1282 1.008000
17951 ca 16721 TPSG CA4 17951 -0.1028 12.010000
17952 ha 16721 TPSG HA4 17952 0.1262 1.008000
17953 ca 16721 TPSG CA3 17953 -0.1548 12.010000
17954 ha 16721 TPSG HA3 17954 0.1282 1.008000
17955 OA 16721 TPSG O1 17955 -0.675000 15.99940
17956 HG 16721 TPSG H6 17956 0.400000 2.01600
17957 ha 16722 TPSG HA2 17957 0.1332 1.008000
17958 ca 16722 TPSG CA2 17958 -0.0753 12.010000
17959 ca 16722 TPSG CA1 17959 -0.361 12.010000
17960 si 16722 TPSG Si 17960 1.1 28.085000
17961 ca 16722 TPSG CA6 17961 -0.0753 12.010000
17962 ha 16722 TPSG HH6 17962 0.1332 1.008000
17963 ca 16722 TPSG CA5 17963 -0.1548 12.010000
17964 ha 16722 TPSG HA5 17964 0.1282 1.008000
17965 ca 16722 TPSG CA4 17965 -0.1028 12.010000
17966 ha 16722 TPSG HA4 17966 0.1262 1.008000
17967 ca 16722 TPSG CA3 17967 -0.1548 12.010000
17968 ha 16722 TPSG HA3 17968 0.1282 1.008000
17969 OA 16722 TPSG O1 17969 -0.675000 15.99940
17970 HG 16722 TPSG H6 17970 0.400000 2.01600
17971 ha 16723 TPSG HA2 17971 0.1332 1.008000
17972 ca 16723 TPSG CA2 17972 -0.0753 12.010000
17973 ca 16723 TPSG CA1 17973 -0.361 12.010000
17974 si 16723 TPSG Si 17974 1.1 28.085000
17975 ca 16723 TPSG CA6 17975 -0.0753 12.010000
17976 ha 16723 TPSG HH6 17976 0.1332 1.008000
17977 ca 16723 TPSG CA5 17977 -0.1548 12.010000
17978 ha 16723 TPSG HA5 17978 0.1282 1.008000
17979 ca 16723 TPSG CA4 17979 -0.1028 12.010000
17980 ha 16723 TPSG HA4 17980 0.1262 1.008000
17981 ca 16723 TPSG CA3 17981 -0.1548 12.010000
17982 ha 16723 TPSG HA3 17982 0.1282 1.008000
17983 OA 16723 TPSG O1 17983 -0.675000 15.99940
17984 HG 16723 TPSG H6 17984 0.400000 2.01600
17985 ha 16724 TPSG HA2 17985 0.1332 1.008000
17986 ca 16724 TPSG CA2 17986 -0.0753 12.010000
17987 ca 16724 TPSG CA1 17987 -0.361 12.010000
17988 si 16724 TPSG Si 17988 1.1 28.085000
17989 ca 16724 TPSG CA6 17989 -0.0753 12.010000
17990 ha 16724 TPSG HH6 17990 0.1332 1.008000
17991 ca 16724 TPSG CA5 17991 -0.1548 12.010000
17992 ha 16724 TPSG HA5 17992 0.1282 1.008000
17993 ca 16724 TPSG CA4 17993 -0.1028 12.010000
17994 ha 16724 TPSG HA4 17994 0.1262 1.008000
17995 ca 16724 TPSG CA3 17995 -0.1548 12.010000
17996 ha 16724 TPSG HA3 17996 0.1282 1.008000
17997 OA 16724 TPSG O1 17997 -0.675000 15.99940
17998 HG 16724 TPSG H6 17998 0.400000 2.01600
17999 ha 16725 TPSG HA2 17999 0.1332 1.008000
18000 ca 16725 TPSG CA2 18000 -0.0753 12.010000
18001 ca 16725 TPSG CA1 18001 -0.361 12.010000
18002 si 16725 TPSG Si 18002 1.1 28.085000
18003 ca 16725 TPSG CA6 18003 -0.0753 12.010000
18004 ha 16725 TPSG HH6 18004 0.1332 1.008000
18005 ca 16725 TPSG CA5 18005 -0.1548 12.010000
18006 ha 16725 TPSG HA5 18006 0.1282 1.008000
18007 ca 16725 TPSG CA4 18007 -0.1028 12.010000
18008 ha 16725 TPSG HA4 18008 0.1262 1.008000
18009 ca 16725 TPSG CA3 18009 -0.1548 12.010000
18010 ha 16725 TPSG HA3 18010 0.1282 1.008000
18011 OA 16725 TPSG O1 18011 -0.675000 15.99940
18012 HG 16725 TPSG H6 18012 0.400000 2.01600
18013 ha 16726 TPSG HA2 18013 0.1332 1.008000
18014 ca 16726 TPSG CA2 18014 -0.0753 12.010000
18015 ca 16726 TPSG CA1 18015 -0.361 12.010000
18016 si 16726 TPSG Si 18016 1.1 28.085000
18017 ca 16726 TPSG CA6 18017 -0.0753 12.010000
18018 ha 16726 TPSG HH6 18018 0.1332 1.008000
18019 ca 16726 TPSG CA5 18019 -0.1548 12.010000
18020 ha 16726 TPSG HA5 18020 0.1282 1.008000
18021 ca 16726 TPSG CA4 18021 -0.1028 12.010000
18022 ha 16726 TPSG HA4 18022 0.1262 1.008000
18023 ca 16726 TPSG CA3 18023 -0.1548 12.010000
18024 ha 16726 TPSG HA3 18024 0.1282 1.008000
18025 OA 16726 TPSG O1 18025 -0.675000 15.99940
18026 HG 16726 TPSG H6 18026 0.400000 2.01600
18027 ha 16727 TPSG HA2 18027 0.1332 1.008000
18028 ca 16727 TPSG CA2 18028 -0.0753 12.010000
18029 ca 16727 TPSG CA1 18029 -0.361 12.010000
18030 si 16727 TPSG Si 18030 1.1 28.085000
18031 ca 16727 TPSG CA6 18031 -0.0753 12.010000
18032 ha 16727 TPSG HH6 18032 0.1332 1.008000
18033 ca 16727 TPSG CA5 18033 -0.1548 12.010000
18034 ha 16727 TPSG HA5 18034 0.1282 1.008000
18035 ca 16727 TPSG CA4 18035 -0.1028 12.010000
18036 ha 16727 TPSG HA4 18036 0.1262 1.008000
18037 ca 16727 TPSG CA3 18037 -0.1548 12.010000
18038 ha 16727 TPSG HA3 18038 0.1282 1.008000
18039 OA 16727 TPSG O1 18039 -0.675000 15.99940
18040 HG 16727 TPSG H6 18040 0.400000 2.01600
18041 ha 16728 TPSG HA2 18041 0.1332 1.008000
18042 ca 16728 TPSG CA2 18042 -0.0753 12.010000
18043 ca 16728 TPSG CA1 18043 -0.361 12.010000
18044 si 16728 TPSG Si 18044 1.1 28.085000
18045 ca 16728 TPSG CA6 18045 -0.0753 12.010000
18046 ha 16728 TPSG HH6 18046 0.1332 1.008000
18047 ca 16728 TPSG CA5 18047 -0.1548 12.010000
18048 ha 16728 TPSG HA5 18048 0.1282 1.008000
18049 ca 16728 TPSG CA4 18049 -0.1028 12.010000
18050 ha 16728 TPSG HA4 18050 0.1262 1.008000
18051 ca 16728 TPSG CA3 18051 -0.1548 12.010000
18052 ha 16728 TPSG HA3 18052 0.1282 1.008000
18053 OA 16728 TPSG O1 18053 -0.675000 15.99940
18054 HG 16728 TPSG H6 18054 0.400000 2.01600
18055 ha 16729 TPSG HA2 18055 0.1332 1.008000
18056 ca 16729 TPSG CA2 18056 -0.0753 12.010000
18057 ca 16729 TPSG CA1 18057 -0.361 12.010000
18058 si 16729 TPSG Si 18058 1.1 28.085000
18059 ca 16729 TPSG CA6 18059 -0.0753 12.010000
18060 ha 16729 TPSG HH6 18060 0.1332 1.008000
18061 ca 16729 TPSG CA5 18061 -0.1548 12.010000
18062 ha 16729 TPSG HA5 18062 0.1282 1.008000
18063 ca 16729 TPSG CA4 18063 -0.1028 12.010000
18064 ha 16729 TPSG HA4 18064 0.1262 1.008000
18065 ca 16729 TPSG CA3 18065 -0.1548 12.010000
18066 ha 16729 TPSG HA3 18066 0.1282 1.008000
18067 OA 16729 TPSG O1 18067 -0.675000 15.99940
18068 HG 16729 TPSG H6 18068 0.400000 2.01600
18069 ha 16730 TPSG HA2 18069 0.1332 1.008000
18070 ca 16730 TPSG CA2 18070 -0.0753 12.010000
18071 ca 16730 TPSG CA1 18071 -0.361 12.010000
18072 si 16730 TPSG Si 18072 1.1 28.085000
18073 ca 16730 TPSG CA6 18073 -0.0753 12.010000
18074 ha 16730 TPSG HH6 18074 0.1332 1.008000
18075 ca 16730 TPSG CA5 18075 -0.1548 12.010000
18076 ha 16730 TPSG HA5 18076 0.1282 1.008000
18077 ca 16730 TPSG CA4 18077 -0.1028 12.010000
18078 ha 16730 TPSG HA4 18078 0.1262 1.008000
18079 ca 16730 TPSG CA3 18079 -0.1548 12.010000
18080 ha 16730 TPSG HA3 18080 0.1282 1.008000
18081 OA 16730 TPSG O1 18081 -0.675000 15.99940
18082 HG 16730 TPSG H6 18082 0.400000 2.01600
18083 ha 16731 TPSG HA2 18083 0.1332 1.008000
18084 ca 16731 TPSG CA2 18084 -0.0753 12.010000
18085 ca 16731 TPSG CA1 18085 -0.361 12.010000
18086 si 16731 TPSG Si 18086 1.1 28.085000
18087 ca 16731 TPSG CA6 18087 -0.0753 12.010000
18088 ha 16731 TPSG HH6 18088 0.1332 1.008000
18089 ca 16731 TPSG CA5 18089 -0.1548 12.010000
18090 ha 16731 TPSG HA5 18090 0.1282 1.008000
18091 ca 16731 TPSG CA4 18091 -0.1028 12.010000
18092 ha 16731 TPSG HA4 18092 0.1262 1.008000
18093 ca 16731 TPSG CA3 18093 -0.1548 12.010000
18094 ha 16731 TPSG HA3 18094 0.1282 1.008000
18095 OA 16731 TPSG O1 18095 -0.675000 15.99940
18096 HG 16731 TPSG H6 18096 0.400000 2.01600
18097 ha 16732 TPSG HA2 18097 0.1332 1.008000
18098 ca 16732 TPSG CA2 18098 -0.0753 12.010000
18099 ca 16732 TPSG CA1 18099 -0.361 12.010000
18100 si 16732 TPSG Si 18100 1.1 28.085000
18101 ca 16732 TPSG CA6 18101 -0.0753 12.010000
18102 ha 16732 TPSG HH6 18102 0.1332 1.008000
18103 ca 16732 TPSG CA5 18103 -0.1548 12.010000
18104 ha 16732 TPSG HA5 18104 0.1282 1.008000
18105 ca 16732 TPSG CA4 18105 -0.1028 12.010000
18106 ha 16732 TPSG HA4 18106 0.1262 1.008000
18107 ca 16732 TPSG CA3 18107 -0.1548 12.010000
18108 ha 16732 TPSG HA3 18108 0.1282 1.008000
18109 OA 16732 TPSG O1 18109 -0.675000 15.99940
18110 HG 16732 TPSG H6 18110 0.400000 2.01600
18111 ha 16733 TPSG HA2 18111 0.1332 1.008000
18112 ca 16733 TPSG CA2 18112 -0.0753 12.010000
18113 ca 16733 TPSG CA1 18113 -0.361 12.010000
18114 si 16733 TPSG Si 18114 1.1 28.085000
18115 ca 16733 TPSG CA6 18115 -0.0753 12.010000
18116 ha 16733 TPSG HH6 18116 0.1332 1.008000
18117 ca 16733 TPSG CA5 18117 -0.1548 12.010000
18118 ha 16733 TPSG HA5 18118 0.1282 1.008000
18119 ca 16733 TPSG CA4 18119 -0.1028 12.010000
18120 ha 16733 TPSG HA4 18120 0.1262 1.008000
18121 ca 16733 TPSG CA3 18121 -0.1548 12.010000
18122 ha 16733 TPSG HA3 18122 0.1282 1.008000
18123 OA 16733 TPSG O1 18123 -0.675000 15.99940
18124 HG 16733 TPSG H6 18124 0.400000 2.01600
18125 ha 16734 TPSG HA2 18125 0.1332 1.008000
18126 ca 16734 TPSG CA2 18126 -0.0753 12.010000
18127 ca 16734 TPSG CA1 18127 -0.361 12.010000
18128 si 16734 TPSG Si 18128 1.1 28.085000
18129 ca 16734 TPSG CA6 18129 -0.0753 12.010000
18130 ha 16734 TPSG HH6 18130 0.1332 1.008000
18131 ca 16734 TPSG CA5 18131 -0.1548 12.010000
18132 ha 16734 TPSG HA5 18132 0.1282 1.008000
18133 ca 16734 TPSG CA4 18133 -0.1028 12.010000
18134 ha 16734 TPSG HA4 18134 0.1262 1.008000
18135 ca 16734 TPSG CA3 18135 -0.1548 12.010000
18136 ha 16734 TPSG HA3 18136 0.1282 1.008000
18137 OA 16734 TPSG O1 18137 -0.675000 15.99940
18138 HG 16734 TPSG H6 18138 0.400000 2.01600
18139 ha 16735 TPSG HA2 18139 0.1332 1.008000
18140 ca 16735 TPSG CA2 18140 -0.0753 12.010000
18141 ca 16735 TPSG CA1 18141 -0.361 12.010000
18142 si 16735 TPSG Si 18142 1.1 28.085000
18143 ca 16735 TPSG CA6 18143 -0.0753 12.010000
18144 ha 16735 TPSG HH6 18144 0.1332 1.008000
18145 ca 16735 TPSG CA5 18145 -0.1548 12.010000
18146 ha 16735 TPSG HA5 18146 0.1282 1.008000
18147 ca 16735 TPSG CA4 18147 -0.1028 12.010000
18148 ha 16735 TPSG HA4 18148 0.1262 1.008000
18149 ca 16735 TPSG CA3 18149 -0.1548 12.010000
18150 ha 16735 TPSG HA3 18150 0.1282 1.008000
18151 OA 16735 TPSG O1 18151 -0.675000 15.99940
18152 HG 16735 TPSG H6 18152 0.400000 2.01600
18153 ha 16736 TPSG HA2 18153 0.1332 1.008000
18154 ca 16736 TPSG CA2 18154 -0.0753 12.010000
18155 ca 16736 TPSG CA1 18155 -0.361 12.010000
18156 si 16736 TPSG Si 18156 1.1 28.085000
18157 ca 16736 TPSG CA6 18157 -0.0753 12.010000
18158 ha 16736 TPSG HH6 18158 0.1332 1.008000
18159 ca 16736 TPSG CA5 18159 -0.1548 12.010000
18160 ha 16736 TPSG HA5 18160 0.1282 1.008000
18161 ca 16736 TPSG CA4 18161 -0.1028 12.010000
18162 ha 16736 TPSG HA4 18162 0.1262 1.008000
18163 ca 16736 TPSG CA3 18163 -0.1548 12.010000
18164 ha 16736 TPSG HA3 18164 0.1282 1.008000
18165 OA 16736 TPSG O1 18165 -0.675000 15.99940
18166 HG 16736 TPSG H6 18166 0.400000 2.01600
18167 ha 16737 TPSG HA2 18167 0.1332 1.008000
18168 ca 16737 TPSG CA2 18168 -0.0753 12.010000
18169 ca 16737 TPSG CA1 18169 -0.361 12.010000
18170 si 16737 TPSG Si 18170 1.1 28.085000
18171 ca 16737 TPSG CA6 18171 -0.0753 12.010000
18172 ha 16737 TPSG HH6 18172 0.1332 1.008000
18173 ca 16737 TPSG CA5 18173 -0.1548 12.010000
18174 ha 16737 TPSG HA5 18174 0.1282 1.008000
18175 ca 16737 TPSG CA4 18175 -0.1028 12.010000
18176 ha 16737 TPSG HA4 18176 0.1262 1.008000
18177 ca 16737 TPSG CA3 18177 -0.1548 12.010000
18178 ha 16737 TPSG HA3 18178 0.1282 1.008000
18179 OA 16737 TPSG O1 18179 -0.675000 15.99940
18180 HG 16737 TPSG H6 18180 0.400000 2.01600
18181 ha 16738 TPSG HA2 18181 0.1332 1.008000
18182 ca 16738 TPSG CA2 18182 -0.0753 12.010000
18183 ca 16738 TPSG CA1 18183 -0.361 12.010000
18184 si 16738 TPSG Si 18184 1.1 28.085000
18185 ca 16738 TPSG CA6 18185 -0.0753 12.010000
18186 ha 16738 TPSG HH6 18186 0.1332 1.008000
18187 ca 16738 TPSG CA5 18187 -0.1548 12.010000
18188 ha 16738 TPSG HA5 18188 0.1282 1.008000
18189 ca 16738 TPSG CA4 18189 -0.1028 12.010000
18190 ha 16738 TPSG HA4 18190 0.1262 1.008000
18191 ca 16738 TPSG CA3 18191 -0.1548 12.010000
18192 ha 16738 TPSG HA3 18192 0.1282 1.008000
18193 OA 16738 TPSG O1 18193 -0.675000 15.99940
18194 HG 16738 TPSG H6 18194 0.400000 2.01600
18195 ha 16739 TPSG HA2 18195 0.1332 1.008000
18196 ca 16739 TPSG CA2 18196 -0.0753 12.010000
18197 ca 16739 TPSG CA1 18197 -0.361 12.010000
18198 si 16739 TPSG Si 18198 1.1 28.085000
18199 ca 16739 TPSG CA6 18199 -0.0753 12.010000
18200 ha 16739 TPSG HH6 18200 0.1332 1.008000
18201 ca 16739 TPSG CA5 18201 -0.1548 12.010000
18202 ha 16739 TPSG HA5 18202 0.1282 1.008000
18203 ca 16739 TPSG CA4 18203 -0.1028 12.010000
18204 ha 16739 TPSG HA4 18204 0.1262 1.008000
18205 ca 16739 TPSG CA3 18205 -0.1548 12.010000
18206 ha 16739 TPSG HA3 18206 0.1282 1.008000
18207 OA 16739 TPSG O1 18207 -0.675000 15.99940
18208 HG 16739 TPSG H6 18208 0.400000 2.01600
18209 ha 16740 TPSG HA2 18209 0.1332 1.008000
18210 ca 16740 TPSG CA2 18210 -0.0753 12.010000
18211 ca 16740 TPSG CA1 18211 -0.361 12.010000
18212 si 16740 TPSG Si 18212 1.1 28.085000
18213 ca 16740 TPSG CA6 18213 -0.0753 12.010000
18214 ha 16740 TPSG HH6 18214 0.1332 1.008000
18215 ca 16740 TPSG CA5 18215 -0.1548 12.010000
18216 ha 16740 TPSG HA5 18216 0.1282 1.008000
18217 ca 16740 TPSG CA4 18217 -0.1028 12.010000
18218 ha 16740 TPSG HA4 18218 0.1262 1.008000
18219 ca 16740 TPSG CA3 18219 -0.1548 12.010000
18220 ha 16740 TPSG HA3 18220 0.1282 1.008000
18221 OA 16740 TPSG O1 18221 -0.675000 15.99940
18222 HG 16740 TPSG H6 18222 0.400000 2.01600
18223 ha 16741 TPSG HA2 18223 0.1332 1.008000
18224 ca 16741 TPSG CA2 18224 -0.0753 12.010000
18225 ca 16741 TPSG CA1 18225 -0.361 12.010000
18226 si 16741 TPSG Si 18226 1.1 28.085000
18227 ca 16741 TPSG CA6 18227 -0.0753 12.010000
18228 ha 16741 TPSG HH6 18228 0.1332 1.008000
18229 ca 16741 TPSG CA5 18229 -0.1548 12.010000
18230 ha 16741 TPSG HA5 18230 0.1282 1.008000
18231 ca 16741 TPSG CA4 18231 -0.1028 12.010000
18232 ha 16741 TPSG HA4 18232 0.1262 1.008000
18233 ca 16741 TPSG CA3 18233 -0.1548 12.010000
18234 ha 16741 TPSG HA3 18234 0.1282 1.008000
18235 OA 16741 TPSG O1 18235 -0.675000 15.99940
18236 HG 16741 TPSG H6 18236 0.400000 2.01600
18237 ha 16742 TPSG HA2 18237 0.1332 1.008000
18238 ca 16742 TPSG CA2 18238 -0.0753 12.010000
18239 ca 16742 TPSG CA1 18239 -0.361 12.010000
18240 si 16742 TPSG Si 18240 1.1 28.085000
18241 ca 16742 TPSG CA6 18241 -0.0753 12.010000
18242 ha 16742 TPSG HH6 18242 0.1332 1.008000
18243 ca 16742 TPSG CA5 18243 -0.1548 12.010000
18244 ha 16742 TPSG HA5 18244 0.1282 1.008000
18245 ca 16742 TPSG CA4 18245 -0.1028 12.010000
18246 ha 16742 TPSG HA4 18246 0.1262 1.008000
18247 ca 16742 TPSG CA3 18247 -0.1548 12.010000
18248 ha 16742 TPSG HA3 18248 0.1282 1.008000
18249 OA 16742 TPSG O1 18249 -0.675000 15.99940
18250 HG 16742 TPSG H6 18250 0.400000 2.01600
18251 ha 16743 TPSG HA2 18251 0.1332 1.008000
18252 ca 16743 TPSG CA2 18252 -0.0753 12.010000
18253 ca 16743 TPSG CA1 18253 -0.361 12.010000
18254 si 16743 TPSG Si 18254 1.1 28.085000
18255 ca 16743 TPSG CA6 18255 -0.0753 12.010000
18256 ha 16743 TPSG HH6 18256 0.1332 1.008000
18257 ca 16743 TPSG CA5 18257 -0.1548 12.010000
18258 ha 16743 TPSG HA5 18258 0.1282 1.008000
18259 ca 16743 TPSG CA4 18259 -0.1028 12.010000
18260 ha 16743 TPSG HA4 18260 0.1262 1.008000
18261 ca 16743 TPSG CA3 18261 -0.1548 12.010000
18262 ha 16743 TPSG HA3 18262 0.1282 1.008000
18263 OA 16743 TPSG O1 18263 -0.675000 15.99940
18264 HG 16743 TPSG H6 18264 0.400000 2.01600
18265 ha 16744 TPSG HA2 18265 0.1332 1.008000
18266 ca 16744 TPSG CA2 18266 -0.0753 12.010000
18267 ca 16744 TPSG CA1 18267 -0.361 12.010000
18268 si 16744 TPSG Si 18268 1.1 28.085000
18269 ca 16744 TPSG CA6 18269 -0.0753 12.010000
18270 ha 16744 TPSG HH6 18270 0.1332 1.008000
18271 ca 16744 TPSG CA5 18271 -0.1548 12.010000
18272 ha 16744 TPSG HA5 18272 0.1282 1.008000
18273 ca 16744 TPSG CA4 18273 -0.1028 12.010000
18274 ha 16744 TPSG HA4 18274 0.1262 1.008000
18275 ca 16744 TPSG CA3 18275 -0.1548 12.010000
18276 ha 16744 TPSG HA3 18276 0.1282 1.008000
18277 OA 16744 TPSG O1 18277 -0.675000 15.99940
18278 HG 16744 TPSG H6 18278 0.400000 2.01600
18279 ha 16745 TPSG HA2 18279 0.1332 1.008000
18280 ca 16745 TPSG CA2 18280 -0.0753 12.010000
18281 ca 16745 TPSG CA1 18281 -0.361 12.010000
18282 si 16745 TPSG Si 18282 1.1 28.085000
18283 ca 16745 TPSG CA6 18283 -0.0753 12.010000
18284 ha 16745 TPSG HH6 18284 0.1332 1.008000
18285 ca 16745 TPSG CA5 18285 -0.1548 12.010000
18286 ha 16745 TPSG HA5 18286 0.1282 1.008000
18287 ca 16745 TPSG CA4 18287 -0.1028 12.010000
18288 ha 16745 TPSG HA4 18288 0.1262 1.008000
18289 ca 16745 TPSG CA3 18289 -0.1548 12.010000
18290 ha 16745 TPSG HA3 18290 0.1282 1.008000
18291 OA 16745 TPSG O1 18291 -0.675000 15.99940
18292 HG 16745 TPSG H6 18292 0.400000 2.01600
18293 ha 16746 TPSG HA2 18293 0.1332 1.008000
18294 ca 16746 TPSG CA2 18294 -0.0753 12.010000
18295 ca 16746 TPSG CA1 18295 -0.361 12.010000
18296 si 16746 TPSG Si 18296 1.1 28.085000
18297 ca 16746 TPSG CA6 18297 -0.0753 12.010000
18298 ha 16746 TPSG HH6 18298 0.1332 1.008000
18299 ca 16746 TPSG CA5 18299 -0.1548 12.010000
18300 ha 16746 TPSG HA5 18300 0.1282 1.008000
18301 ca 16746 TPSG CA4 18301 -0.1028 12.010000
18302 ha 16746 TPSG HA4 18302 0.1262 1.008000
18303 ca 16746 TPSG CA3 18303 -0.1548 12.010000
18304 ha 16746 TPSG HA3 18304 0.1282 1.008000
18305 OA 16746 TPSG O1 18305 -0.675000 15.99940
18306 HG 16746 TPSG H6 18306 0.400000 2.01600
18307 ha 16747 TPSG HA2 18307 0.1332 1.008000
18308 ca 16747 TPSG CA2 18308 -0.0753 12.010000
18309 ca 16747 TPSG CA1 18309 -0.361 12.010000
18310 si 16747 TPSG Si 18310 1.1 28.085000
18311 ca 16747 TPSG CA6 18311 -0.0753 12.010000
18312 ha 16747 TPSG HH6 18312 0.1332 1.008000
18313 ca 16747 TPSG CA5 18313 -0.1548 12.010000
18314 ha 16747 TPSG HA5 18314 0.1282 1.008000
18315 ca 16747 TPSG CA4 18315 -0.1028 12.010000
18316 ha 16747 TPSG HA4 18316 0.1262 1.008000
18317 ca 16747 TPSG CA3 18317 -0.1548 12.010000
18318 ha 16747 TPSG HA3 18318 0.1282 1.008000
18319 OA 16747 TPSG O1 18319 -0.675000 15.99940
18320 HG 16747 TPSG H6 18320 0.400000 2.01600
18321 ha 16748 TPSG HA2 18321 0.1332 1.008000
18322 ca 16748 TPSG CA2 18322 -0.0753 12.010000
18323 ca 16748 TPSG CA1 18323 -0.361 12.010000
18324 si 16748 TPSG Si 18324 1.1 28.085000
18325 ca 16748 TPSG CA6 18325 -0.0753 12.010000
18326 ha 16748 TPSG HH6 18326 0.1332 1.008000
18327 ca 16748 TPSG CA5 18327 -0.1548 12.010000
18328 ha 16748 TPSG HA5 18328 0.1282 1.008000
18329 ca 16748 TPSG CA4 18329 -0.1028 12.010000
18330 ha 16748 TPSG HA4 18330 0.1262 1.008000
18331 ca 16748 TPSG CA3 18331 -0.1548 12.010000
18332 ha 16748 TPSG HA3 18332 0.1282 1.008000
18333 OA 16748 TPSG O1 18333 -0.675000 15.99940
18334 HG 16748 TPSG H6 18334 0.400000 2.01600
18335 ha 16749 TPSG HA2 18335 0.1332 1.008000
18336 ca 16749 TPSG CA2 18336 -0.0753 12.010000
18337 ca 16749 TPSG CA1 18337 -0.361 12.010000
18338 si 16749 TPSG Si 18338 1.1 28.085000
18339 ca 16749 TPSG CA6 18339 -0.0753 12.010000
18340 ha 16749 TPSG HH6 18340 0.1332 1.008000
18341 ca 16749 TPSG CA5 18341 -0.1548 12.010000
18342 ha 16749 TPSG HA5 18342 0.1282 1.008000
18343 ca 16749 TPSG CA4 18343 -0.1028 12.010000
18344 ha 16749 TPSG HA4 18344 0.1262 1.008000
18345 ca 16749 TPSG CA3 18345 -0.1548 12.010000
18346 ha 16749 TPSG HA3 18346 0.1282 1.008000
18347 OA 16749 TPSG O1 18347 -0.675000 15.99940
18348 HG 16749 TPSG H6 18348 0.400000 2.01600
18349 ha 16750 TPSG HA2 18349 0.1332 1.008000
18350 ca 16750 TPSG CA2 18350 -0.0753 12.010000
18351 ca 16750 TPSG CA1 18351 -0.361 12.010000
18352 si 16750 TPSG Si 18352 1.1 28.085000
18353 ca 16750 TPSG CA6 18353 -0.0753 12.010000
18354 ha 16750 TPSG HH6 18354 0.1332 1.008000
18355 ca 16750 TPSG CA5 18355 -0.1548 12.010000
18356 ha 16750 TPSG HA5 18356 0.1282 1.008000
18357 ca 16750 TPSG CA4 18357 -0.1028 12.010000
18358 ha 16750 TPSG HA4 18358 0.1262 1.008000
18359 ca 16750 TPSG CA3 18359 -0.1548 12.010000
18360 ha 16750 TPSG HA3 18360 0.1282 1.008000
18361 OA 16750 TPSG O1 18361 -0.675000 15.99940
18362 HG 16750 TPSG H6 18362 0.400000 2.01600
18363 ha 16751 TPSG HA2 18363 0.1332 1.008000
18364 ca 16751 TPSG CA2 18364 -0.0753 12.010000
18365 ca 16751 TPSG CA1 18365 -0.361 12.010000
18366 si 16751 TPSG Si 18366 1.1 28.085000
18367 ca 16751 TPSG CA6 18367 -0.0753 12.010000
18368 ha 16751 TPSG HH6 18368 0.1332 1.008000
18369 ca 16751 TPSG CA5 18369 -0.1548 12.010000
18370 ha 16751 TPSG HA5 18370 0.1282 1.008000
18371 ca 16751 TPSG CA4 18371 -0.1028 12.010000
18372 ha 16751 TPSG HA4 18372 0.1262 1.008000
18373 ca 16751 TPSG CA3 18373 -0.1548 12.010000
18374 ha 16751 TPSG HA3 18374 0.1282 1.008000
18375 OA 16751 TPSG O1 18375 -0.675000 15.99940
18376 HG 16751 TPSG H6 18376 0.400000 2.01600
18377 ha 16752 TPSG HA2 18377 0.1332 1.008000
18378 ca 16752 TPSG CA2 18378 -0.0753 12.010000
18379 ca 16752 TPSG CA1 18379 -0.361 12.010000
18380 si 16752 TPSG Si 18380 1.1 28.085000
18381 ca 16752 TPSG CA6 18381 -0.0753 12.010000
18382 ha 16752 TPSG HH6 18382 0.1332 1.008000
18383 ca 16752 TPSG CA5 18383 -0.1548 12.010000
18384 ha 16752 TPSG HA5 18384 0.1282 1.008000
18385 ca 16752 TPSG CA4 18385 -0.1028 12.010000
18386 ha 16752 TPSG HA4 18386 0.1262 1.008000
18387 ca 16752 TPSG CA3 18387 -0.1548 12.010000
18388 ha 16752 TPSG HA3 18388 0.1282 1.008000
18389 OA 16752 TPSG O1 18389 -0.675000 15.99940
18390 HG 16752 TPSG H6 18390 0.400000 2.01600
18391 ha 16753 TPS HA2 18391 0.1332 1.008000
18392 ca 16753 TPS CA2 18392 -0.0753 12.010000
18393 ca 16753 TPS CA1 18393 -0.361 12.010000
18394 si 16753 TPS Si 18394 1.1 28.085000
18395 ca 16753 TPS CA6 18395 -0.0753 12.010000
18396 ha 16753 TPS HH6 18396 0.1332 1.008000
18397 ca 16753 TPS CA5 18397 -0.1548 12.010000
18398 ha 16753 TPS HA5 18398 0.1282 1.008000
18399 ca 16753 TPS CA4 18399 -0.1028 12.010000
18400 ha 16753 TPS HA4 18400 0.1262 1.008000
18401 ca 16753 TPS CA3 18401 -0.1548 12.010000
18402 ha 16753 TPS HA3 18402 0.1282 1.008000
18403 ha 16754 TPS HA2 18403 0.1332 1.008000
18404 ca 16754 TPS CA2 18404 -0.0753 12.010000
18405 ca 16754 TPS CA1 18405 -0.361 12.010000
18406 si 16754 TPS Si 18406 1.1 28.085000
18407 ca 16754 TPS CA6 18407 -0.0753 12.010000
18408 ha 16754 TPS HH6 18408 0.1332 1.008000
18409 ca 16754 TPS CA5 18409 -0.1548 12.010000
18410 ha 16754 TPS HA5 18410 0.1282 1.008000
18411 ca 16754 TPS CA4 18411 -0.1028 12.010000
18412 ha 16754 TPS HA4 18412 0.1262 1.008000
18413 ca 16754 TPS CA3 18413 -0.1548 12.010000
18414 ha 16754 TPS HA3 18414 0.1282 1.008000
18415 ha 16755 TPS HA2 18415 0.1332 1.008000
18416 ca 16755 TPS CA2 18416 -0.0753 12.010000
18417 ca 16755 TPS CA1 18417 -0.361 12.010000
18418 si 16755 TPS Si 18418 1.1 28.085000
18419 ca 16755 TPS CA6 18419 -0.0753 12.010000
18420 ha 16755 TPS HH6 18420 0.1332 1.008000
18421 ca 16755 TPS CA5 18421 -0.1548 12.010000
18422 ha 16755 TPS HA5 18422 0.1282 1.008000
18423 ca 16755 TPS CA4 18423 -0.1028 12.010000
18424 ha 16755 TPS HA4 18424 0.1262 1.008000
18425 ca 16755 TPS CA3 18425 -0.1548 12.010000
18426 ha 16755 TPS HA3 18426 0.1282 1.008000
18427 ha 16756 TPS HA2 18427 0.1332 1.008000
18428 ca 16756 TPS CA2 18428 -0.0753 12.010000
18429 ca 16756 TPS CA1 18429 -0.361 12.010000
18430 si 16756 TPS Si 18430 1.1 28.085000
18431 ca 16756 TPS CA6 18431 -0.0753 12.010000
18432 ha 16756 TPS HH6 18432 0.1332 1.008000
18433 ca 16756 TPS CA5 18433 -0.1548 12.010000
18434 ha 16756 TPS HA5 18434 0.1282 1.008000
18435 ca 16756 TPS CA4 18435 -0.1028 12.010000
18436 ha 16756 TPS HA4 18436 0.1262 1.008000
18437 ca 16756 TPS CA3 18437 -0.1548 12.010000
18438 ha 16756 TPS HA3 18438 0.1282 1.008000
18439 ha 16757 TPS HA2 18439 0.1332 1.008000
18440 ca 16757 TPS CA2 18440 -0.0753 12.010000
18441 ca 16757 TPS CA1 18441 -0.361 12.010000
18442 si 16757 TPS Si 18442 1.1 28.085000
18443 ca 16757 TPS CA6 18443 -0.0753 12.010000
18444 ha 16757 TPS HH6 18444 0.1332 1.008000
18445 ca 16757 TPS CA5 18445 -0.1548 12.010000
18446 ha 16757 TPS HA5 18446 0.1282 1.008000
18447 ca 16757 TPS CA4 18447 -0.1028 12.010000
18448 ha 16757 TPS HA4 18448 0.1262 1.008000
18449 ca 16757 TPS CA3 18449 -0.1548 12.010000
18450 ha 16757 TPS HA3 18450 0.1282 1.008000
18451 ha 16758 TPS HA2 18451 0.1332 1.008000
18452 ca 16758 TPS CA2 18452 -0.0753 12.010000
18453 ca 16758 TPS CA1 18453 -0.361 12.010000
18454 si 16758 TPS Si 18454 1.1 28.085000
18455 ca 16758 TPS CA6 18455 -0.0753 12.010000
18456 ha 16758 TPS HH6 18456 0.1332 1.008000
18457 ca 16758 TPS CA5 18457 -0.1548 12.010000
18458 ha 16758 TPS HA5 18458 0.1282 1.008000
18459 ca 16758 TPS CA4 18459 -0.1028 12.010000
18460 ha 16758 TPS HA4 18460 0.1262 1.008000
18461 ca 16758 TPS CA3 18461 -0.1548 12.010000
18462 ha 16758 TPS HA3 18462 0.1282 1.008000
18463 ha 16759 TPS HA2 18463 0.1332 1.008000
18464 ca 16759 TPS CA2 18464 -0.0753 12.010000
18465 ca 16759 TPS CA1 18465 -0.361 12.010000
18466 si 16759 TPS Si 18466 1.1 28.085000
18467 ca 16759 TPS CA6 18467 -0.0753 12.010000
18468 ha 16759 TPS HH6 18468 0.1332 1.008000
18469 ca 16759 TPS CA5 18469 -0.1548 12.010000
18470 ha 16759 TPS HA5 18470 0.1282 1.008000
18471 ca 16759 TPS CA4 18471 -0.1028 12.010000
18472 ha 16759 TPS HA4 18472 0.1262 1.008000
18473 ca 16759 TPS CA3 18473 -0.1548 12.010000
18474 ha 16759 TPS HA3 18474 0.1282 1.008000
18475 ha 16760 TPS HA2 18475 0.1332 1.008000
18476 ca 16760 TPS CA2 18476 -0.0753 12.010000
18477 ca 16760 TPS CA1 18477 -0.361 12.010000
18478 si 16760 TPS Si 18478 1.1 28.085000
18479 ca 16760 TPS CA6 18479 -0.0753 12.010000
18480 ha 16760 TPS HH6 18480 0.1332 1.008000
18481 ca 16760 TPS CA5 18481 -0.1548 12.010000
18482 ha 16760 TPS HA5 18482 0.1282 1.008000
18483 ca 16760 TPS CA4 18483 -0.1028 12.010000
18484 ha 16760 TPS HA4 18484 0.1262 1.008000
18485 ca 16760 TPS CA3 18485 -0.1548 12.010000
18486 ha 16760 TPS HA3 18486 0.1282 1.008000
18487 ha 16761 TPS HA2 18487 0.1332 1.008000
18488 ca 16761 TPS CA2 18488 -0.0753 12.010000
18489 ca 16761 TPS CA1 18489 -0.361 12.010000
18490 si 16761 TPS Si 18490 1.1 28.085000
18491 ca 16761 TPS CA6 18491 -0.0753 12.010000
18492 ha 16761 TPS HH6 18492 0.1332 1.008000
18493 ca 16761 TPS CA5 18493 -0.1548 12.010000
18494 ha 16761 TPS HA5 18494 0.1282 1.008000
18495 ca 16761 TPS CA4 18495 -0.1028 12.010000
18496 ha 16761 TPS HA4 18496 0.1262 1.008000
18497 ca 16761 TPS CA3 18497 -0.1548 12.010000
18498 ha 16761 TPS HA3 18498 0.1282 1.008000
18499 ha 16762 TPS HA2 18499 0.1332 1.008000
18500 ca 16762 TPS CA2 18500 -0.0753 12.010000
18501 ca 16762 TPS CA1 18501 -0.361 12.010000
18502 si 16762 TPS Si 18502 1.1 28.085000
18503 ca 16762 TPS CA6 18503 -0.0753 12.010000
18504 ha 16762 TPS HH6 18504 0.1332 1.008000
18505 ca 16762 TPS CA5 18505 -0.1548 12.010000
18506 ha 16762 TPS HA5 18506 0.1282 1.008000
18507 ca 16762 TPS CA4 18507 -0.1028 12.010000
18508 ha 16762 TPS HA4 18508 0.1262 1.008000
18509 ca 16762 TPS CA3 18509 -0.1548 12.010000
18510 ha 16762 TPS HA3 18510 0.1282 1.008000
18511 ha 16763 TPS HA2 18511 0.1332 1.008000
18512 ca 16763 TPS CA2 18512 -0.0753 12.010000
18513 ca 16763 TPS CA1 18513 -0.361 12.010000
18514 si 16763 TPS Si 18514 1.1 28.085000
18515 ca 16763 TPS CA6 18515 -0.0753 12.010000
18516 ha 16763 TPS HH6 18516 0.1332 1.008000
18517 ca 16763 TPS CA5 18517 -0.1548 12.010000
18518 ha 16763 TPS HA5 18518 0.1282 1.008000
18519 ca 16763 TPS CA4 18519 -0.1028 12.010000
18520 ha 16763 TPS HA4 18520 0.1262 1.008000
18521 ca 16763 TPS CA3 18521 -0.1548 12.010000
18522 ha 16763 TPS HA3 18522 0.1282 1.008000
18523 ha 16764 TPS HA2 18523 0.1332 1.008000
18524 ca 16764 TPS CA2 18524 -0.0753 12.010000
18525 ca 16764 TPS CA1 18525 -0.361 12.010000
18526 si 16764 TPS Si 18526 1.1 28.085000
18527 ca 16764 TPS CA6 18527 -0.0753 12.010000
18528 ha 16764 TPS HH6 18528 0.1332 1.008000
18529 ca 16764 TPS CA5 18529 -0.1548 12.010000
18530 ha 16764 TPS HA5 18530 0.1282 1.008000
18531 ca 16764 TPS CA4 18531 -0.1028 12.010000
18532 ha 16764 TPS HA4 18532 0.1262 1.008000
18533 ca 16764 TPS CA3 18533 -0.1548 12.010000
18534 ha 16764 TPS HA3 18534 0.1282 1.008000
18535 ha 16765 TPS HA2 18535 0.1332 1.008000
18536 ca 16765 TPS CA2 18536 -0.0753 12.010000
18537 ca 16765 TPS CA1 18537 -0.361 12.010000
18538 si 16765 TPS Si 18538 1.1 28.085000
18539 ca 16765 TPS CA6 18539 -0.0753 12.010000
18540 ha 16765 TPS HH6 18540 0.1332 1.008000
18541 ca 16765 TPS CA5 18541 -0.1548 12.010000
18542 ha 16765 TPS HA5 18542 0.1282 1.008000
18543 ca 16765 TPS CA4 18543 -0.1028 12.010000
18544 ha 16765 TPS HA4 18544 0.1262 1.008000
18545 ca 16765 TPS CA3 18545 -0.1548 12.010000
18546 ha 16765 TPS HA3 18546 0.1282 1.008000
18547 ha 16766 TPS HA2 18547 0.1332 1.008000
18548 ca 16766 TPS CA2 18548 -0.0753 12.010000
18549 ca 16766 TPS CA1 18549 -0.361 12.010000
18550 si 16766 TPS Si 18550 1.1 28.085000
18551 ca 16766 TPS CA6 18551 -0.0753 12.010000
18552 ha 16766 TPS HH6 18552 0.1332 1.008000
18553 ca 16766 TPS CA5 18553 -0.1548 12.010000
18554 ha 16766 TPS HA5 18554 0.1282 1.008000
18555 ca 16766 TPS CA4 18555 -0.1028 12.010000
18556 ha 16766 TPS HA4 18556 0.1262 1.008000
18557 ca 16766 TPS CA3 18557 -0.1548 12.010000
18558 ha 16766 TPS HA3 18558 0.1282 1.008000
18559 ha 16767 TPS HA2 18559 0.1332 1.008000
18560 ca 16767 TPS CA2 18560 -0.0753 12.010000
18561 ca 16767 TPS CA1 18561 -0.361 12.010000
18562 si 16767 TPS Si 18562 1.1 28.085000
18563 ca 16767 TPS CA6 18563 -0.0753 12.010000
18564 ha 16767 TPS HH6 18564 0.1332 1.008000
18565 ca 16767 TPS CA5 18565 -0.1548 12.010000
18566 ha 16767 TPS HA5 18566 0.1282 1.008000
18567 ca 16767 TPS CA4 18567 -0.1028 12.010000
18568 ha 16767 TPS HA4 18568 0.1262 1.008000
18569 ca 16767 TPS CA3 18569 -0.1548 12.010000
18570 ha 16767 TPS HA3 18570 0.1282 1.008000
18571 ha 16768 TPS HA2 18571 0.1332 1.008000
18572 ca 16768 TPS CA2 18572 -0.0753 12.010000
18573 ca 16768 TPS CA1 18573 -0.361 12.010000
18574 si 16768 TPS Si 18574 1.1 28.085000
18575 ca 16768 TPS CA6 18575 -0.0753 12.010000
18576 ha 16768 TPS HH6 18576 0.1332 1.008000
18577 ca 16768 TPS CA5 18577 -0.1548 12.010000
18578 ha 16768 TPS HA5 18578 0.1282 1.008000
18579 ca 16768 TPS CA4 18579 -0.1028 12.010000
18580 ha 16768 TPS HA4 18580 0.1262 1.008000
18581 ca 16768 TPS CA3 18581 -0.1548 12.010000
18582 ha 16768 TPS HA3 18582 0.1282 1.008000
18583 ha 16769 TPS HA2 18583 0.1332 1.008000
18584 ca 16769 TPS CA2 18584 -0.0753 12.010000
18585 ca 16769 TPS CA1 18585 -0.361 12.010000
18586 si 16769 TPS Si 18586 1.1 28.085000
18587 ca 16769 TPS CA6 18587 -0.0753 12.010000
18588 ha 16769 TPS HH6 18588 0.1332 1.008000
18589 ca 16769 TPS CA5 18589 -0.1548 12.010000
18590 ha 16769 TPS HA5 18590 0.1282 1.008000
18591 ca 16769 TPS CA4 18591 -0.1028 12.010000
18592 ha 16769 TPS HA4 18592 0.1262 1.008000
18593 ca 16769 TPS CA3 18593 -0.1548 12.010000
18594 ha 16769 TPS HA3 18594 0.1282 1.008000
18595 ha 16770 TPS HA2 18595 0.1332 1.008000
18596 ca 16770 TPS CA2 18596 -0.0753 12.010000
18597 ca 16770 TPS CA1 18597 -0.361 12.010000
18598 si 16770 TPS Si 18598 1.1 28.085000
18599 ca 16770 TPS CA6 18599 -0.0753 12.010000
18600 ha 16770 TPS HH6 18600 0.1332 1.008000
18601 ca 16770 TPS CA5 18601 -0.1548 12.010000
18602 ha 16770 TPS HA5 18602 0.1282 1.008000
18603 ca 16770 TPS CA4 18603 -0.1028 12.010000
18604 ha 16770 TPS HA4 18604 0.1262 1.008000
18605 ca 16770 TPS CA3 18605 -0.1548 12.010000
18606 ha 16770 TPS HA3 18606 0.1282 1.008000
18607 ha 16771 TPS HA2 18607 0.1332 1.008000
18608 ca 16771 TPS CA2 18608 -0.0753 12.010000
18609 ca 16771 TPS CA1 18609 -0.361 12.010000
18610 si 16771 TPS Si 18610 1.1 28.085000
18611 ca 16771 TPS CA6 18611 -0.0753 12.010000
18612 ha 16771 TPS HH6 18612 0.1332 1.008000
18613 ca 16771 TPS CA5 18613 -0.1548 12.010000
18614 ha 16771 TPS HA5 18614 0.1282 1.008000
18615 ca 16771 TPS CA4 18615 -0.1028 12.010000
18616 ha 16771 TPS HA4 18616 0.1262 1.008000
18617 ca 16771 TPS CA3 18617 -0.1548 12.010000
18618 ha 16771 TPS HA3 18618 0.1282 1.008000
18619 ha 16772 TPS HA2 18619 0.1332 1.008000
18620 ca 16772 TPS CA2 18620 -0.0753 12.010000
18621 ca 16772 TPS CA1 18621 -0.361 12.010000
18622 si 16772 TPS Si 18622 1.1 28.085000
18623 ca 16772 TPS CA6 18623 -0.0753 12.010000
18624 ha 16772 TPS HH6 18624 0.1332 1.008000
18625 ca 16772 TPS CA5 18625 -0.1548 12.010000
18626 ha 16772 TPS HA5 18626 0.1282 1.008000
18627 ca 16772 TPS CA4 18627 -0.1028 12.010000
18628 ha 16772 TPS HA4 18628 0.1262 1.008000
18629 ca 16772 TPS CA3 18629 -0.1548 12.010000
18630 ha 16772 TPS HA3 18630 0.1282 1.008000
18631 ha 16773 TPS HA2 18631 0.1332 1.008000
18632 ca 16773 TPS CA2 18632 -0.0753 12.010000
18633 ca 16773 TPS CA1 18633 -0.361 12.010000
18634 si 16773 TPS Si 18634 1.1 28.085000
18635 ca 16773 TPS CA6 18635 -0.0753 12.010000
18636 ha 16773 TPS HH6 18636 0.1332 1.008000
18637 ca 16773 TPS CA5 18637 -0.1548 12.010000
18638 ha 16773 TPS HA5 18638 0.1282 1.008000
18639 ca 16773 TPS CA4 18639 -0.1028 12.010000
18640 ha 16773 TPS HA4 18640 0.1262 1.008000
18641 ca 16773 TPS CA3 18641 -0.1548 12.010000
18642 ha 16773 TPS HA3 18642 0.1282 1.008000
18643 ha 16774 TPS HA2 18643 0.1332 1.008000
18644 ca 16774 TPS CA2 18644 -0.0753 12.010000
18645 ca 16774 TPS CA1 18645 -0.361 12.010000
18646 si 16774 TPS Si 18646 1.1 28.085000
18647 ca 16774 TPS CA6 18647 -0.0753 12.010000
18648 ha 16774 TPS HH6 18648 0.1332 1.008000
18649 ca 16774 TPS CA5 18649 -0.1548 12.010000
18650 ha 16774 TPS HA5 18650 0.1282 1.008000
18651 ca 16774 TPS CA4 18651 -0.1028 12.010000
18652 ha 16774 TPS HA4 18652 0.1262 1.008000
18653 ca 16774 TPS CA3 18653 -0.1548 12.010000
18654 ha 16774 TPS HA3 18654 0.1282 1.008000
18655 ha 16775 TPS HA2 18655 0.1332 1.008000
18656 ca 16775 TPS CA2 18656 -0.0753 12.010000
18657 ca 16775 TPS CA1 18657 -0.361 12.010000
18658 si 16775 TPS Si 18658 1.1 28.085000
18659 ca 16775 TPS CA6 18659 -0.0753 12.010000
18660 ha 16775 TPS HH6 18660 0.1332 1.008000
18661 ca 16775 TPS CA5 18661 -0.1548 12.010000
18662 ha 16775 TPS HA5 18662 0.1282 1.008000
18663 ca 16775 TPS CA4 18663 -0.1028 12.010000
18664 ha 16775 TPS HA4 18664 0.1262 1.008000
18665 ca 16775 TPS CA3 18665 -0.1548 12.010000
18666 ha 16775 TPS HA3 18666 0.1282 1.008000
18667 ha 16776 TPS HA2 18667 0.1332 1.008000
18668 ca 16776 TPS CA2 18668 -0.0753 12.010000
18669 ca 16776 TPS CA1 18669 -0.361 12.010000
18670 si 16776 TPS Si 18670 1.1 28.085000
18671 ca 16776 TPS CA6 18671 -0.0753 12.010000
18672 ha 16776 TPS HH6 18672 0.1332 1.008000
18673 ca 16776 TPS CA5 18673 -0.1548 12.010000
18674 ha 16776 TPS HA5 18674 0.1282 1.008000
18675 ca 16776 TPS CA4 18675 -0.1028 12.010000
18676 ha 16776 TPS HA4 18676 0.1262 1.008000
18677 ca 16776 TPS CA3 18677 -0.1548 12.010000
18678 ha 16776 TPS HA3 18678 0.1282 1.008000
18679 ha 16777 TPS HA2 18679 0.1332 1.008000
18680 ca 16777 TPS CA2 18680 -0.0753 12.010000
18681 ca 16777 TPS CA1 18681 -0.361 12.010000
18682 si 16777 TPS Si 18682 1.1 28.085000
18683 ca 16777 TPS CA6 18683 -0.0753 12.010000
18684 ha 16777 TPS HH6 18684 0.1332 1.008000
18685 ca 16777 TPS CA5 18685 -0.1548 12.010000
18686 ha 16777 TPS HA5 18686 0.1282 1.008000
18687 ca 16777 TPS CA4 18687 -0.1028 12.010000
18688 ha 16777 TPS HA4 18688 0.1262 1.008000
18689 ca 16777 TPS CA3 18689 -0.1548 12.010000
18690 ha 16777 TPS HA3 18690 0.1282 1.008000
18691 ha 16778 TPS HA2 18691 0.1332 1.008000
18692 ca 16778 TPS CA2 18692 -0.0753 12.010000
18693 ca 16778 TPS CA1 18693 -0.361 12.010000
18694 si 16778 TPS Si 18694 1.1 28.085000
18695 ca 16778 TPS CA6 18695 -0.0753 12.010000
18696 ha 16778 TPS HH6 18696 0.1332 1.008000
18697 ca 16778 TPS CA5 18697 -0.1548 12.010000
18698 ha 16778 TPS HA5 18698 0.1282 1.008000
18699 ca 16778 TPS CA4 18699 -0.1028 12.010000
18700 ha 16778 TPS HA4 18700 0.1262 1.008000
18701 ca 16778 TPS CA3 18701 -0.1548 12.010000
18702 ha 16778 TPS HA3 18702 0.1282 1.008000
18703 ha 16779 TPS HA2 18703 0.1332 1.008000
18704 ca 16779 TPS CA2 18704 -0.0753 12.010000
18705 ca 16779 TPS CA1 18705 -0.361 12.010000
18706 si 16779 TPS Si 18706 1.1 28.085000
18707 ca 16779 TPS CA6 18707 -0.0753 12.010000
18708 ha 16779 TPS HH6 18708 0.1332 1.008000
18709 ca 16779 TPS CA5 18709 -0.1548 12.010000
18710 ha 16779 TPS HA5 18710 0.1282 1.008000
18711 ca 16779 TPS CA4 18711 -0.1028 12.010000
18712 ha 16779 TPS HA4 18712 0.1262 1.008000
18713 ca 16779 TPS CA3 18713 -0.1548 12.010000
18714 ha 16779 TPS HA3 18714 0.1282 1.008000
18715 ha 16780 TPS HA2 18715 0.1332 1.008000
18716 ca 16780 TPS CA2 18716 -0.0753 12.010000
18717 ca 16780 TPS CA1 18717 -0.361 12.010000
18718 si 16780 TPS Si 18718 1.1 28.085000
18719 ca 16780 TPS CA6 18719 -0.0753 12.010000
18720 ha 16780 TPS HH6 18720 0.1332 1.008000
18721 ca 16780 TPS CA5 18721 -0.1548 12.010000
18722 ha 16780 TPS HA5 18722 0.1282 1.008000
18723 ca 16780 TPS CA4 18723 -0.1028 12.010000
18724 ha 16780 TPS HA4 18724 0.1262 1.008000
18725 ca 16780 TPS CA3 18725 -0.1548 12.010000
18726 ha 16780 TPS HA3 18726 0.1282 1.008000
18727 ha 16781 TPS HA2 18727 0.1332 1.008000
18728 ca 16781 TPS CA2 18728 -0.0753 12.010000
18729 ca 16781 TPS CA1 18729 -0.361 12.010000
18730 si 16781 TPS Si 18730 1.1 28.085000
18731 ca 16781 TPS CA6 18731 -0.0753 12.010000
18732 ha 16781 TPS HH6 18732 0.1332 1.008000
18733 ca 16781 TPS CA5 18733 -0.1548 12.010000
18734 ha 16781 TPS HA5 18734 0.1282 1.008000
18735 ca 16781 TPS CA4 18735 -0.1028 12.010000
18736 ha 16781 TPS HA4 18736 0.1262 1.008000
18737 ca 16781 TPS CA3 18737 -0.1548 12.010000
18738 ha 16781 TPS HA3 18738 0.1282 1.008000
18739 ha 16782 TPS HA2 18739 0.1332 1.008000
18740 ca 16782 TPS CA2 18740 -0.0753 12.010000
18741 ca 16782 TPS CA1 18741 -0.361 12.010000
18742 si 16782 TPS Si 18742 1.1 28.085000
18743 ca 16782 TPS CA6 18743 -0.0753 12.010000
18744 ha 16782 TPS HH6 18744 0.1332 1.008000
18745 ca 16782 TPS CA5 18745 -0.1548 12.010000
18746 ha 16782 TPS HA5 18746 0.1282 1.008000
18747 ca 16782 TPS CA4 18747 -0.1028 12.010000
18748 ha 16782 TPS HA4 18748 0.1262 1.008000
18749 ca 16782 TPS CA3 18749 -0.1548 12.010000
18750 ha 16782 TPS HA3 18750 0.1282 1.008000
18751 ha 16783 TPS HA2 18751 0.1332 1.008000
18752 ca 16783 TPS CA2 18752 -0.0753 12.010000
18753 ca 16783 TPS CA1 18753 -0.361 12.010000
18754 si 16783 TPS Si 18754 1.1 28.085000
18755 ca 16783 TPS CA6 18755 -0.0753 12.010000
18756 ha 16783 TPS HH6 18756 0.1332 1.008000
18757 ca 16783 TPS CA5 18757 -0.1548 12.010000
18758 ha 16783 TPS HA5 18758 0.1282 1.008000
18759 ca 16783 TPS CA4 18759 -0.1028 12.010000
18760 ha 16783 TPS HA4 18760 0.1262 1.008000
18761 ca 16783 TPS CA3 18761 -0.1548 12.010000
18762 ha 16783 TPS HA3 18762 0.1282 1.008000
18763 ha 16784 TPS HA2 18763 0.1332 1.008000
18764 ca 16784 TPS CA2 18764 -0.0753 12.010000
18765 ca 16784 TPS CA1 18765 -0.361 12.010000
18766 si 16784 TPS Si 18766 1.1 28.085000
18767 ca 16784 TPS CA6 18767 -0.0753 12.010000
18768 ha 16784 TPS HH6 18768 0.1332 1.008000
18769 ca 16784 TPS CA5 18769 -0.1548 12.010000
18770 ha 16784 TPS HA5 18770 0.1282 1.008000
18771 ca 16784 TPS CA4 18771 -0.1028 12.010000
18772 ha 16784 TPS HA4 18772 0.1262 1.008000
18773 ca 16784 TPS CA3 18773 -0.1548 12.010000
18774 ha 16784 TPS HA3 18774 0.1282 1.008000
18775 ha 16785 TPS HA2 18775 0.1332 1.008000
18776 ca 16785 TPS CA2 18776 -0.0753 12.010000
18777 ca 16785 TPS CA1 18777 -0.361 12.010000
18778 si 16785 TPS Si 18778 1.1 28.085000
18779 ca 16785 TPS CA6 18779 -0.0753 12.010000
18780 ha 16785 TPS HH6 18780 0.1332 1.008000
18781 ca 16785 TPS CA5 18781 -0.1548 12.010000
18782 ha 16785 TPS HA5 18782 0.1282 1.008000
18783 ca 16785 TPS CA4 18783 -0.1028 12.010000
18784 ha 16785 TPS HA4 18784 0.1262 1.008000
18785 ca 16785 TPS CA3 18785 -0.1548 12.010000
18786 ha 16785 TPS HA3 18786 0.1282 1.008000
18787 ha 16786 TPS HA2 18787 0.1332 1.008000
18788 ca 16786 TPS CA2 18788 -0.0753 12.010000
18789 ca 16786 TPS CA1 18789 -0.361 12.010000
18790 si 16786 TPS Si 18790 1.1 28.085000
18791 ca 16786 TPS CA6 18791 -0.0753 12.010000
18792 ha 16786 TPS HH6 18792 0.1332 1.008000
18793 ca 16786 TPS CA5 18793 -0.1548 12.010000
18794 ha 16786 TPS HA5 18794 0.1282 1.008000
18795 ca 16786 TPS CA4 18795 -0.1028 12.010000
18796 ha 16786 TPS HA4 18796 0.1262 1.008000
18797 ca 16786 TPS CA3 18797 -0.1548 12.010000
18798 ha 16786 TPS HA3 18798 0.1282 1.008000
18799 ha 16787 TPS HA2 18799 0.1332 1.008000
18800 ca 16787 TPS CA2 18800 -0.0753 12.010000
18801 ca 16787 TPS CA1 18801 -0.361 12.010000
18802 si 16787 TPS Si 18802 1.1 28.085000
18803 ca 16787 TPS CA6 18803 -0.0753 12.010000
18804 ha 16787 TPS HH6 18804 0.1332 1.008000
18805 ca 16787 TPS CA5 18805 -0.1548 12.010000
18806 ha 16787 TPS HA5 18806 0.1282 1.008000
18807 ca 16787 TPS CA4 18807 -0.1028 12.010000
18808 ha 16787 TPS HA4 18808 0.1262 1.008000
18809 ca 16787 TPS CA3 18809 -0.1548 12.010000
18810 ha 16787 TPS HA3 18810 0.1282 1.008000
18811 ha 16788 TPS HA2 18811 0.1332 1.008000
18812 ca 16788 TPS CA2 18812 -0.0753 12.010000
18813 ca 16788 TPS CA1 18813 -0.361 12.010000
18814 si 16788 TPS Si 18814 1.1 28.085000
18815 ca 16788 TPS CA6 18815 -0.0753 12.010000
18816 ha 16788 TPS HH6 18816 0.1332 1.008000
18817 ca 16788 TPS CA5 18817 -0.1548 12.010000
18818 ha 16788 TPS HA5 18818 0.1282 1.008000
18819 ca 16788 TPS CA4 18819 -0.1028 12.010000
18820 ha 16788 TPS HA4 18820 0.1262 1.008000
18821 ca 16788 TPS CA3 18821 -0.1548 12.010000
18822 ha 16788 TPS HA3 18822 0.1282 1.008000
18823 ha 16789 TPS HA2 18823 0.1332 1.008000
18824 ca 16789 TPS CA2 18824 -0.0753 12.010000
18825 ca 16789 TPS CA1 18825 -0.361 12.010000
18826 si 16789 TPS Si 18826 1.1 28.085000
18827 ca 16789 TPS CA6 18827 -0.0753 12.010000
18828 ha 16789 TPS HH6 18828 0.1332 1.008000
18829 ca 16789 TPS CA5 18829 -0.1548 12.010000
18830 ha 16789 TPS HA5 18830 0.1282 1.008000
18831 ca 16789 TPS CA4 18831 -0.1028 12.010000
18832 ha 16789 TPS HA4 18832 0.1262 1.008000
18833 ca 16789 TPS CA3 18833 -0.1548 12.010000
18834 ha 16789 TPS HA3 18834 0.1282 1.008000
18835 ha 16790 TPS HA2 18835 0.1332 1.008000
18836 ca 16790 TPS CA2 18836 -0.0753 12.010000
18837 ca 16790 TPS CA1 18837 -0.361 12.010000
18838 si 16790 TPS Si 18838 1.1 28.085000
18839 ca 16790 TPS CA6 18839 -0.0753 12.010000
18840 ha 16790 TPS HH6 18840 0.1332 1.008000
18841 ca 16790 TPS CA5 18841 -0.1548 12.010000
18842 ha 16790 TPS HA5 18842 0.1282 1.008000
18843 ca 16790 TPS CA4 18843 -0.1028 12.010000
18844 ha 16790 TPS HA4 18844 0.1262 1.008000
18845 ca 16790 TPS CA3 18845 -0.1548 12.010000
18846 ha 16790 TPS HA3 18846 0.1282 1.008000
18847 ha 16791 TPS HA2 18847 0.1332 1.008000
18848 ca 16791 TPS CA2 18848 -0.0753 12.010000
18849 ca 16791 TPS CA1 18849 -0.361 12.010000
18850 si 16791 TPS Si 18850 1.1 28.085000
18851 ca 16791 TPS CA6 18851 -0.0753 12.010000
18852 ha 16791 TPS HH6 18852 0.1332 1.008000
18853 ca 16791 TPS CA5 18853 -0.1548 12.010000
18854 ha 16791 TPS HA5 18854 0.1282 1.008000
18855 ca 16791 TPS CA4 18855 -0.1028 12.010000
18856 ha 16791 TPS HA4 18856 0.1262 1.008000
18857 ca 16791 TPS CA3 18857 -0.1548 12.010000
18858 ha 16791 TPS HA3 18858 0.1282 1.008000
18859 ha 16792 TPS HA2 18859 0.1332 1.008000
18860 ca 16792 TPS CA2 18860 -0.0753 12.010000
18861 ca 16792 TPS CA1 18861 -0.361 12.010000
18862 si 16792 TPS Si 18862 1.1 28.085000
18863 ca 16792 TPS CA6 18863 -0.0753 12.010000
18864 ha 16792 TPS HH6 18864 0.1332 1.008000
18865 ca 16792 TPS CA5 18865 -0.1548 12.010000
18866 ha 16792 TPS HA5 18866 0.1282 1.008000
18867 ca 16792 TPS CA4 18867 -0.1028 12.010000
18868 ha 16792 TPS HA4 18868 0.1262 1.008000
18869 ca 16792 TPS CA3 18869 -0.1548 12.010000
18870 ha 16792 TPS HA3 18870 0.1282 1.008000
18871 ha 16793 TPS HA2 18871 0.1332 1.008000
18872 ca 16793 TPS CA2 18872 -0.0753 12.010000
18873 ca 16793 TPS CA1 18873 -0.361 12.010000
18874 si 16793 TPS Si 18874 1.1 28.085000
18875 ca 16793 TPS CA6 18875 -0.0753 12.010000
18876 ha 16793 TPS HH6 18876 0.1332 1.008000
18877 ca 16793 TPS CA5 18877 -0.1548 12.010000
18878 ha 16793 TPS HA5 18878 0.1282 1.008000
18879 ca 16793 TPS CA4 18879 -0.1028 12.010000
18880 ha 16793 TPS HA4 18880 0.1262 1.008000
18881 ca 16793 TPS CA3 18881 -0.1548 12.010000
18882 ha 16793 TPS HA3 18882 0.1282 1.008000
18883 ha 16794 TPS HA2 18883 0.1332 1.008000
18884 ca 16794 TPS CA2 18884 -0.0753 12.010000
18885 ca 16794 TPS CA1 18885 -0.361 12.010000
18886 si 16794 TPS Si 18886 1.1 28.085000
18887 ca 16794 TPS CA6 18887 -0.0753 12.010000
18888 ha 16794 TPS HH6 18888 0.1332 1.008000
18889 ca 16794 TPS CA5 18889 -0.1548 12.010000
18890 ha 16794 TPS HA5 18890 0.1282 1.008000
18891 ca 16794 TPS CA4 18891 -0.1028 12.010000
18892 ha 16794 TPS HA4 18892 0.1262 1.008000
18893 ca 16794 TPS CA3 18893 -0.1548 12.010000
18894 ha 16794 TPS HA3 18894 0.1282 1.008000
18895 ha 16795 TPS HA2 18895 0.1332 1.008000
18896 ca 16795 TPS CA2 18896 -0.0753 12.010000
18897 ca 16795 TPS CA1 18897 -0.361 12.010000
18898 si 16795 TPS Si 18898 1.1 28.085000
18899 ca 16795 TPS CA6 18899 -0.0753 12.010000
18900 ha 16795 TPS HH6 18900 0.1332 1.008000
18901 ca 16795 TPS CA5 18901 -0.1548 12.010000
18902 ha 16795 TPS HA5 18902 0.1282 1.008000
18903 ca 16795 TPS CA4 18903 -0.1028 12.010000
18904 ha 16795 TPS HA4 18904 0.1262 1.008000
18905 ca 16795 TPS CA3 18905 -0.1548 12.010000
18906 ha 16795 TPS HA3 18906 0.1282 1.008000
18907 ha 16796 TPS HA2 18907 0.1332 1.008000
18908 ca 16796 TPS CA2 18908 -0.0753 12.010000
18909 ca 16796 TPS CA1 18909 -0.361 12.010000
18910 si 16796 TPS Si 18910 1.1 28.085000
18911 ca 16796 TPS CA6 18911 -0.0753 12.010000
18912 ha 16796 TPS HH6 18912 0.1332 1.008000
18913 ca 16796 TPS CA5 18913 -0.1548 12.010000
18914 ha 16796 TPS HA5 18914 0.1282 1.008000
18915 ca 16796 TPS CA4 18915 -0.1028 12.010000
18916 ha 16796 TPS HA4 18916 0.1262 1.008000
18917 ca 16796 TPS CA3 18917 -0.1548 12.010000
18918 ha 16796 TPS HA3 18918 0.1282 1.008000
18919 ha 16797 TPS HA2 18919 0.1332 1.008000
18920 ca 16797 TPS CA2 18920 -0.0753 12.010000
18921 ca 16797 TPS CA1 18921 -0.361 12.010000
18922 si 16797 TPS Si 18922 1.1 28.085000
18923 ca 16797 TPS CA6 18923 -0.0753 12.010000
18924 ha 16797 TPS HH6 18924 0.1332 1.008000
18925 ca 16797 TPS CA5 18925 -0.1548 12.010000
18926 ha 16797 TPS HA5 18926 0.1282 1.008000
18927 ca 16797 TPS CA4 18927 -0.1028 12.010000
18928 ha 16797 TPS HA4 18928 0.1262 1.008000
18929 ca 16797 TPS CA3 18929 -0.1548 12.010000
18930 ha 16797 TPS HA3 18930 0.1282 1.008000
18931 ha 16798 TPS HA2 18931 0.1332 1.008000
18932 ca 16798 TPS CA2 18932 -0.0753 12.010000
18933 ca 16798 TPS CA1 18933 -0.361 12.010000
18934 si 16798 TPS Si 18934 1.1 28.085000
18935 ca 16798 TPS CA6 18935 -0.0753 12.010000
18936 ha 16798 TPS HH6 18936 0.1332 1.008000
18937 ca 16798 TPS CA5 18937 -0.1548 12.010000
18938 ha 16798 TPS HA5 18938 0.1282 1.008000
18939 ca 16798 TPS CA4 18939 -0.1028 12.010000
18940 ha 16798 TPS HA4 18940 0.1262 1.008000
18941 ca 16798 TPS CA3 18941 -0.1548 12.010000
18942 ha 16798 TPS HA3 18942 0.1282 1.008000
18943 ha 16799 TPS HA2 18943 0.1332 1.008000
18944 ca 16799 TPS CA2 18944 -0.0753 12.010000
18945 ca 16799 TPS CA1 18945 -0.361 12.010000
18946 si 16799 TPS Si 18946 1.1 28.085000
18947 ca 16799 TPS CA6 18947 -0.0753 12.010000
18948 ha 16799 TPS HH6 18948 0.1332 1.008000
18949 ca 16799 TPS CA5 18949 -0.1548 12.010000
18950 ha 16799 TPS HA5 18950 0.1282 1.008000
18951 ca 16799 TPS CA4 18951 -0.1028 12.010000
18952 ha 16799 TPS HA4 18952 0.1262 1.008000
18953 ca 16799 TPS CA3 18953 -0.1548 12.010000
18954 ha 16799 TPS HA3 18954 0.1282 1.008000
18955 ha 16800 TPS HA2 18955 0.1332 1.008000
18956 ca 16800 TPS CA2 18956 -0.0753 12.010000
18957 ca 16800 TPS CA1 18957 -0.361 12.010000
18958 si 16800 TPS Si 18958 1.1 28.085000
18959 ca 16800 TPS CA6 18959 -0.0753 12.010000
18960 ha 16800 TPS HH6 18960 0.1332 1.008000
18961 ca 16800 TPS CA5 18961 -0.1548 12.010000
18962 ha 16800 TPS HA5 18962 0.1282 1.008000
18963 ca 16800 TPS CA4 18963 -0.1028 12.010000
18964 ha 16800 TPS HA4 18964 0.1262 1.008000
18965 ca 16800 TPS CA3 18965 -0.1548 12.010000
18966 ha 16800 TPS HA3 18966 0.1282 1.008000
18967 ha 16801 TPS HA2 18967 0.1332 1.008000
18968 ca 16801 TPS CA2 18968 -0.0753 12.010000
18969 ca 16801 TPS CA1 18969 -0.361 12.010000
18970 si 16801 TPS Si 18970 1.1 28.085000
18971 ca 16801 TPS CA6 18971 -0.0753 12.010000
18972 ha 16801 TPS HH6 18972 0.1332 1.008000
18973 ca 16801 TPS CA5 18973 -0.1548 12.010000
18974 ha 16801 TPS HA5 18974 0.1282 1.008000
18975 ca 16801 TPS CA4 18975 -0.1028 12.010000
18976 ha 16801 TPS HA4 18976 0.1262 1.008000
18977 ca 16801 TPS CA3 18977 -0.1548 12.010000
18978 ha 16801 TPS HA3 18978 0.1282 1.008000
18979 ha 16802 TPS HA2 18979 0.1332 1.008000
18980 ca 16802 TPS CA2 18980 -0.0753 12.010000
18981 ca 16802 TPS CA1 18981 -0.361 12.010000
18982 si 16802 TPS Si 18982 1.1 28.085000
18983 ca 16802 TPS CA6 18983 -0.0753 12.010000
18984 ha 16802 TPS HH6 18984 0.1332 1.008000
18985 ca 16802 TPS CA5 18985 -0.1548 12.010000
18986 ha 16802 TPS HA5 18986 0.1282 1.008000
18987 ca 16802 TPS CA4 18987 -0.1028 12.010000
18988 ha 16802 TPS HA4 18988 0.1262 1.008000
18989 ca 16802 TPS CA3 18989 -0.1548 12.010000
18990 ha 16802 TPS HA3 18990 0.1282 1.008000
18991 ha 16803 TPS HA2 18991 0.1332 1.008000
18992 ca 16803 TPS CA2 18992 -0.0753 12.010000
18993 ca 16803 TPS CA1 18993 -0.361 12.010000
18994 si 16803 TPS Si 18994 1.1 28.085000
18995 ca 16803 TPS CA6 18995 -0.0753 12.010000
18996 ha 16803 TPS HH6 18996 0.1332 1.008000
18997 ca 16803 TPS CA5 18997 -0.1548 12.010000
18998 ha 16803 TPS HA5 18998 0.1282 1.008000
18999 ca 16803 TPS CA4 18999 -0.1028 12.010000
19000 ha 16803 TPS HA4 19000 0.1262 1.008000
19001 ca 16803 TPS CA3 19001 -0.1548 12.010000
19002 ha 16803 TPS HA3 19002 0.1282 1.008000
19003 ha 16804 TPS HA2 19003 0.1332 1.008000
19004 ca 16804 TPS CA2 19004 -0.0753 12.010000
19005 ca 16804 TPS CA1 19005 -0.361 12.010000
19006 si 16804 TPS Si 19006 1.1 28.085000
19007 ca 16804 TPS CA6 19007 -0.0753 12.010000
19008 ha 16804 TPS HH6 19008 0.1332 1.008000
19009 ca 16804 TPS CA5 19009 -0.1548 12.010000
19010 ha 16804 TPS HA5 19010 0.1282 1.008000
19011 ca 16804 TPS CA4 19011 -0.1028 12.010000
19012 ha 16804 TPS HA4 19012 0.1262 1.008000
19013 ca 16804 TPS CA3 19013 -0.1548 12.010000
19014 ha 16804 TPS HA3 19014 0.1282 1.008000
19015 ha 16805 TPS HA2 19015 0.1332 1.008000
19016 ca 16805 TPS CA2 19016 -0.0753 12.010000
19017 ca 16805 TPS CA1 19017 -0.361 12.010000
19018 si 16805 TPS Si 19018 1.1 28.085000
19019 ca 16805 TPS CA6 19019 -0.0753 12.010000
19020 ha 16805 TPS HH6 19020 0.1332 1.008000
19021 ca 16805 TPS CA5 19021 -0.1548 12.010000
19022 ha 16805 TPS HA5 19022 0.1282 1.008000
19023 ca 16805 TPS CA4 19023 -0.1028 12.010000
19024 ha 16805 TPS HA4 19024 0.1262 1.008000
19025 ca 16805 TPS CA3 19025 -0.1548 12.010000
19026 ha 16805 TPS HA3 19026 0.1282 1.008000
19027 ha 16806 TPS HA2 19027 0.1332 1.008000
19028 ca 16806 TPS CA2 19028 -0.0753 12.010000
19029 ca 16806 TPS CA1 19029 -0.361 12.010000
19030 si 16806 TPS Si 19030 1.1 28.085000
19031 ca 16806 TPS CA6 19031 -0.0753 12.010000
19032 ha 16806 TPS HH6 19032 0.1332 1.008000
19033 ca 16806 TPS CA5 19033 -0.1548 12.010000
19034 ha 16806 TPS HA5 19034 0.1282 1.008000
19035 ca 16806 TPS CA4 19035 -0.1028 12.010000
19036 ha 16806 TPS HA4 19036 0.1262 1.008000
19037 ca 16806 TPS CA3 19037 -0.1548 12.010000
19038 ha 16806 TPS HA3 19038 0.1282 1.008000
19039 ha 16807 TPS HA2 19039 0.1332 1.008000
19040 ca 16807 TPS CA2 19040 -0.0753 12.010000
19041 ca 16807 TPS CA1 19041 -0.361 12.010000
19042 si 16807 TPS Si 19042 1.1 28.085000
19043 ca 16807 TPS CA6 19043 -0.0753 12.010000
19044 ha 16807 TPS HH6 19044 0.1332 1.008000
19045 ca 16807 TPS CA5 19045 -0.1548 12.010000
19046 ha 16807 TPS HA5 19046 0.1282 1.008000
19047 ca 16807 TPS CA4 19047 -0.1028 12.010000
19048 ha 16807 TPS HA4 19048 0.1262 1.008000
19049 ca 16807 TPS CA3 19049 -0.1548 12.010000
19050 ha 16807 TPS HA3 19050 0.1282 1.008000
19051 ha 16808 TPS HA2 19051 0.1332 1.008000
19052 ca 16808 TPS CA2 19052 -0.0753 12.010000
19053 ca 16808 TPS CA1 19053 -0.361 12.010000
19054 si 16808 TPS Si 19054 1.1 28.085000
19055 ca 16808 TPS CA6 19055 -0.0753 12.010000
19056 ha 16808 TPS HH6 19056 0.1332 1.008000
19057 ca 16808 TPS CA5 19057 -0.1548 12.010000
19058 ha 16808 TPS HA5 19058 0.1282 1.008000
19059 ca 16808 TPS CA4 19059 -0.1028 12.010000
19060 ha 16808 TPS HA4 19060 0.1262 1.008000
19061 ca 16808 TPS CA3 19061 -0.1548 12.010000
19062 ha 16808 TPS HA3 19062 0.1282 1.008000
19063 ha 16809 TPS HA2 19063 0.1332 1.008000
19064 ca 16809 TPS CA2 19064 -0.0753 12.010000
19065 ca 16809 TPS CA1 19065 -0.361 12.010000
19066 si 16809 TPS Si 19066 1.1 28.085000
19067 ca 16809 TPS CA6 19067 -0.0753 12.010000
19068 ha 16809 TPS HH6 19068 0.1332 1.008000
19069 ca 16809 TPS CA5 19069 -0.1548 12.010000
19070 ha 16809 TPS HA5 19070 0.1282 1.008000
19071 ca 16809 TPS CA4 19071 -0.1028 12.010000
19072 ha 16809 TPS HA4 19072 0.1262 1.008000
19073 ca 16809 TPS CA3 19073 -0.1548 12.010000
19074 ha 16809 TPS HA3 19074 0.1282 1.008000
19075 ha 16810 TPS HA2 19075 0.1332 1.008000
19076 ca 16810 TPS CA2 19076 -0.0753 12.010000
19077 ca 16810 TPS CA1 19077 -0.361 12.010000
19078 si 16810 TPS Si 19078 1.1 28.085000
19079 ca 16810 TPS CA6 19079 -0.0753 12.010000
19080 ha 16810 TPS HH6 19080 0.1332 1.008000
19081 ca 16810 TPS CA5 19081 -0.1548 12.010000
19082 ha 16810 TPS HA5 19082 0.1282 1.008000
19083 ca 16810 TPS CA4 19083 -0.1028 12.010000
19084 ha 16810 TPS HA4 19084 0.1262 1.008000
19085 ca 16810 TPS CA3 19085 -0.1548 12.010000
19086 ha 16810 TPS HA3 19086 0.1282 1.008000
19087 ha 16811 TPS HA2 19087 0.1332 1.008000
19088 ca 16811 TPS CA2 19088 -0.0753 12.010000
19089 ca 16811 TPS CA1 19089 -0.361 12.010000
19090 si 16811 TPS Si 19090 1.1 28.085000
19091 ca 16811 TPS CA6 19091 -0.0753 12.010000
19092 ha 16811 TPS HH6 19092 0.1332 1.008000
19093 ca 16811 TPS CA5 19093 -0.1548 12.010000
19094 ha 16811 TPS HA5 19094 0.1282 1.008000
19095 ca 16811 TPS CA4 19095 -0.1028 12.010000
19096 ha 16811 TPS HA4 19096 0.1262 1.008000
19097 ca 16811 TPS CA3 19097 -0.1548 12.010000
19098 ha 16811 TPS HA3 19098 0.1282 1.008000
19099 ha 16812 TPS HA2 19099 0.1332 1.008000
19100 ca 16812 TPS CA2 19100 -0.0753 12.010000
19101 ca 16812 TPS CA1 19101 -0.361 12.010000
19102 si 16812 TPS Si 19102 1.1 28.085000
19103 ca 16812 TPS CA6 19103 -0.0753 12.010000
19104 ha 16812 TPS HH6 19104 0.1332 1.008000
19105 ca 16812 TPS CA5 19105 -0.1548 12.010000
19106 ha 16812 TPS HA5 19106 0.1282 1.008000
19107 ca 16812 TPS CA4 19107 -0.1028 12.010000
19108 ha 16812 TPS HA4 19108 0.1262 1.008000
19109 ca 16812 TPS CA3 19109 -0.1548 12.010000
19110 ha 16812 TPS HA3 19110 0.1282 1.008000
19111 ha 16813 TPS HA2 19111 0.1332 1.008000
19112 ca 16813 TPS CA2 19112 -0.0753 12.010000
19113 ca 16813 TPS CA1 19113 -0.361 12.010000
19114 si 16813 TPS Si 19114 1.1 28.085000
19115 ca 16813 TPS CA6 19115 -0.0753 12.010000
19116 ha 16813 TPS HH6 19116 0.1332 1.008000
19117 ca 16813 TPS CA5 19117 -0.1548 12.010000
19118 ha 16813 TPS HA5 19118 0.1282 1.008000
19119 ca 16813 TPS CA4 19119 -0.1028 12.010000
19120 ha 16813 TPS HA4 19120 0.1262 1.008000
19121 ca 16813 TPS CA3 19121 -0.1548 12.010000
19122 ha 16813 TPS HA3 19122 0.1282 1.008000
19123 ha 16814 TPS HA2 19123 0.1332 1.008000
19124 ca 16814 TPS CA2 19124 -0.0753 12.010000
19125 ca 16814 TPS CA1 19125 -0.361 12.010000
19126 si 16814 TPS Si 19126 1.1 28.085000
19127 ca 16814 TPS CA6 19127 -0.0753 12.010000
19128 ha 16814 TPS HH6 19128 0.1332 1.008000
19129 ca 16814 TPS CA5 19129 -0.1548 12.010000
19130 ha 16814 TPS HA5 19130 0.1282 1.008000
19131 ca 16814 TPS CA4 19131 -0.1028 12.010000
19132 ha 16814 TPS HA4 19132 0.1262 1.008000
19133 ca 16814 TPS CA3 19133 -0.1548 12.010000
19134 ha 16814 TPS HA3 19134 0.1282 1.008000
19135 ha 16815 TPS HA2 19135 0.1332 1.008000
19136 ca 16815 TPS CA2 19136 -0.0753 12.010000
19137 ca 16815 TPS CA1 19137 -0.361 12.010000
19138 si 16815 TPS Si 19138 1.1 28.085000
19139 ca 16815 TPS CA6 19139 -0.0753 12.010000
19140 ha 16815 TPS HH6 19140 0.1332 1.008000
19141 ca 16815 TPS CA5 19141 -0.1548 12.010000
19142 ha 16815 TPS HA5 19142 0.1282 1.008000
19143 ca 16815 TPS CA4 19143 -0.1028 12.010000
19144 ha 16815 TPS HA4 19144 0.1262 1.008000
19145 ca 16815 TPS CA3 19145 -0.1548 12.010000
19146 ha 16815 TPS HA3 19146 0.1282 1.008000
19147 ha 16816 TPS HA2 19147 0.1332 1.008000
19148 ca 16816 TPS CA2 19148 -0.0753 12.010000
19149 ca 16816 TPS CA1 19149 -0.361 12.010000
19150 si 16816 TPS Si 19150 1.1 28.085000
19151 ca 16816 TPS CA6 19151 -0.0753 12.010000
19152 ha 16816 TPS HH6 19152 0.1332 1.008000
19153 ca 16816 TPS CA5 19153 -0.1548 12.010000
19154 ha 16816 TPS HA5 19154 0.1282 1.008000
19155 ca 16816 TPS CA4 19155 -0.1028 12.010000
19156 ha 16816 TPS HA4 19156 0.1262 1.008000
19157 ca 16816 TPS CA3 19157 -0.1548 12.010000
19158 ha 16816 TPS HA3 19158 0.1282 1.008000
19159 ha 16817 TPS HA2 19159 0.1332 1.008000
19160 ca 16817 TPS CA2 19160 -0.0753 12.010000
19161 ca 16817 TPS CA1 19161 -0.361 12.010000
19162 si 16817 TPS Si 19162 1.1 28.085000
19163 ca 16817 TPS CA6 19163 -0.0753 12.010000
19164 ha 16817 TPS HH6 19164 0.1332 1.008000
19165 ca 16817 TPS CA5 19165 -0.1548 12.010000
19166 ha 16817 TPS HA5 19166 0.1282 1.008000
19167 ca 16817 TPS CA4 19167 -0.1028 12.010000
19168 ha 16817 TPS HA4 19168 0.1262 1.008000
19169 ca 16817 TPS CA3 19169 -0.1548 12.010000
19170 ha 16817 TPS HA3 19170 0.1282 1.008000
19171 ha 16818 TPS HA2 19171 0.1332 1.008000
19172 ca 16818 TPS CA2 19172 -0.0753 12.010000
19173 ca 16818 TPS CA1 19173 -0.361 12.010000
19174 si 16818 TPS Si 19174 1.1 28.085000
19175 ca 16818 TPS CA6 19175 -0.0753 12.010000
19176 ha 16818 TPS HH6 19176 0.1332 1.008000
19177 ca 16818 TPS CA5 19177 -0.1548 12.010000
19178 ha 16818 TPS HA5 19178 0.1282 1.008000
19179 ca 16818 TPS CA4 19179 -0.1028 12.010000
19180 ha 16818 TPS HA4 19180 0.1262 1.008000
19181 ca 16818 TPS CA3 19181 -0.1548 12.010000
19182 ha 16818 TPS HA3 19182 0.1282 1.008000
19183 ha 16819 TPS HA2 19183 0.1332 1.008000
19184 ca 16819 TPS CA2 19184 -0.0753 12.010000
19185 ca 16819 TPS CA1 19185 -0.361 12.010000
19186 si 16819 TPS Si 19186 1.1 28.085000
19187 ca 16819 TPS CA6 19187 -0.0753 12.010000
19188 ha 16819 TPS HH6 19188 0.1332 1.008000
19189 ca 16819 TPS CA5 19189 -0.1548 12.010000
19190 ha 16819 TPS HA5 19190 0.1282 1.008000
19191 ca 16819 TPS CA4 19191 -0.1028 12.010000
19192 ha 16819 TPS HA4 19192 0.1262 1.008000
19193 ca 16819 TPS CA3 19193 -0.1548 12.010000
19194 ha 16819 TPS HA3 19194 0.1282 1.008000
19195 ha 16820 TPS HA2 19195 0.1332 1.008000
19196 ca 16820 TPS CA2 19196 -0.0753 12.010000
19197 ca 16820 TPS CA1 19197 -0.361 12.010000
19198 si 16820 TPS Si 19198 1.1 28.085000
19199 ca 16820 TPS CA6 19199 -0.0753 12.010000
19200 ha 16820 TPS HH6 19200 0.1332 1.008000
19201 ca 16820 TPS CA5 19201 -0.1548 12.010000
19202 ha 16820 TPS HA5 19202 0.1282 1.008000
19203 ca 16820 TPS CA4 19203 -0.1028 12.010000
19204 ha 16820 TPS HA4 19204 0.1262 1.008000
19205 ca 16820 TPS CA3 19205 -0.1548 12.010000
19206 ha 16820 TPS HA3 19206 0.1282 1.008000
19207 ha 16821 TPS HA2 19207 0.1332 1.008000
19208 ca 16821 TPS CA2 19208 -0.0753 12.010000
19209 ca 16821 TPS CA1 19209 -0.361 12.010000
19210 si 16821 TPS Si 19210 1.1 28.085000
19211 ca 16821 TPS CA6 19211 -0.0753 12.010000
19212 ha 16821 TPS HH6 19212 0.1332 1.008000
19213 ca 16821 TPS CA5 19213 -0.1548 12.010000
19214 ha 16821 TPS HA5 19214 0.1282 1.008000
19215 ca 16821 TPS CA4 19215 -0.1028 12.010000
19216 ha 16821 TPS HA4 19216 0.1262 1.008000
19217 ca 16821 TPS CA3 19217 -0.1548 12.010000
19218 ha 16821 TPS HA3 19218 0.1282 1.008000
19219 ha 16822 TPS HA2 19219 0.1332 1.008000
19220 ca 16822 TPS CA2 19220 -0.0753 12.010000
19221 ca 16822 TPS CA1 19221 -0.361 12.010000
19222 si 16822 TPS Si 19222 1.1 28.085000
19223 ca 16822 TPS CA6 19223 -0.0753 12.010000
19224 ha 16822 TPS HH6 19224 0.1332 1.008000
19225 ca 16822 TPS CA5 19225 -0.1548 12.010000
19226 ha 16822 TPS HA5 19226 0.1282 1.008000
19227 ca 16822 TPS CA4 19227 -0.1028 12.010000
19228 ha 16822 TPS HA4 19228 0.1262 1.008000
19229 ca 16822 TPS CA3 19229 -0.1548 12.010000
19230 ha 16822 TPS HA3 19230 0.1282 1.008000
19231 ha 16823 TPS HA2 19231 0.1332 1.008000
19232 ca 16823 TPS CA2 19232 -0.0753 12.010000
19233 ca 16823 TPS CA1 19233 -0.361 12.010000
19234 si 16823 TPS Si 19234 1.1 28.085000
19235 ca 16823 TPS CA6 19235 -0.0753 12.010000
19236 ha 16823 TPS HH6 19236 0.1332 1.008000
19237 ca 16823 TPS CA5 19237 -0.1548 12.010000
19238 ha 16823 TPS HA5 19238 0.1282 1.008000
19239 ca 16823 TPS CA4 19239 -0.1028 12.010000
19240 ha 16823 TPS HA4 19240 0.1262 1.008000
19241 ca 16823 TPS CA3 19241 -0.1548 12.010000
19242 ha 16823 TPS HA3 19242 0.1282 1.008000
19243 ha 16824 TPS HA2 19243 0.1332 1.008000
19244 ca 16824 TPS CA2 19244 -0.0753 12.010000
19245 ca 16824 TPS CA1 19245 -0.361 12.010000
19246 si 16824 TPS Si 19246 1.1 28.085000
19247 ca 16824 TPS CA6 19247 -0.0753 12.010000
19248 ha 16824 TPS HH6 19248 0.1332 1.008000
19249 ca 16824 TPS CA5 19249 -0.1548 12.010000
19250 ha 16824 TPS HA5 19250 0.1282 1.008000
19251 ca 16824 TPS CA4 19251 -0.1028 12.010000
19252 ha 16824 TPS HA4 19252 0.1262 1.008000
19253 ca 16824 TPS CA3 19253 -0.1548 12.010000
19254 ha 16824 TPS HA3 19254 0.1282 1.008000
19255 ha 16825 TPS HA2 19255 0.1332 1.008000
19256 ca 16825 TPS CA2 19256 -0.0753 12.010000
19257 ca 16825 TPS CA1 19257 -0.361 12.010000
19258 si 16825 TPS Si 19258 1.1 28.085000
19259 ca 16825 TPS CA6 19259 -0.0753 12.010000
19260 ha 16825 TPS HH6 19260 0.1332 1.008000
19261 ca 16825 TPS CA5 19261 -0.1548 12.010000
19262 ha 16825 TPS HA5 19262 0.1282 1.008000
19263 ca 16825 TPS CA4 19263 -0.1028 12.010000
19264 ha 16825 TPS HA4 19264 0.1262 1.008000
19265 ca 16825 TPS CA3 19265 -0.1548 12.010000
19266 ha 16825 TPS HA3 19266 0.1282 1.008000
19267 ha 16826 TPS HA2 19267 0.1332 1.008000
19268 ca 16826 TPS CA2 19268 -0.0753 12.010000
19269 ca 16826 TPS CA1 19269 -0.361 12.010000
19270 si 16826 TPS Si 19270 1.1 28.085000
19271 ca 16826 TPS CA6 19271 -0.0753 12.010000
19272 ha 16826 TPS HH6 19272 0.1332 1.008000
19273 ca 16826 TPS CA5 19273 -0.1548 12.010000
19274 ha 16826 TPS HA5 19274 0.1282 1.008000
19275 ca 16826 TPS CA4 19275 -0.1028 12.010000
19276 ha 16826 TPS HA4 19276 0.1262 1.008000
19277 ca 16826 TPS CA3 19277 -0.1548 12.010000
19278 ha 16826 TPS HA3 19278 0.1282 1.008000
19279 ha 16827 TPS HA2 19279 0.1332 1.008000
19280 ca 16827 TPS CA2 19280 -0.0753 12.010000
19281 ca 16827 TPS CA1 19281 -0.361 12.010000
19282 si 16827 TPS Si 19282 1.1 28.085000
19283 ca 16827 TPS CA6 19283 -0.0753 12.010000
19284 ha 16827 TPS HH6 19284 0.1332 1.008000
19285 ca 16827 TPS CA5 19285 -0.1548 12.010000
19286 ha 16827 TPS HA5 19286 0.1282 1.008000
19287 ca 16827 TPS CA4 19287 -0.1028 12.010000
19288 ha 16827 TPS HA4 19288 0.1262 1.008000
19289 ca 16827 TPS CA3 19289 -0.1548 12.010000
19290 ha 16827 TPS HA3 19290 0.1282 1.008000
19291 ha 16828 TPS HA2 19291 0.1332 1.008000
19292 ca 16828 TPS CA2 19292 -0.0753 12.010000
19293 ca 16828 TPS CA1 19293 -0.361 12.010000
19294 si 16828 TPS Si 19294 1.1 28.085000
19295 ca 16828 TPS CA6 19295 -0.0753 12.010000
19296 ha 16828 TPS HH6 19296 0.1332 1.008000
19297 ca 16828 TPS CA5 19297 -0.1548 12.010000
19298 ha 16828 TPS HA5 19298 0.1282 1.008000
19299 ca 16828 TPS CA4 19299 -0.1028 12.010000
19300 ha 16828 TPS HA4 19300 0.1262 1.008000
19301 ca 16828 TPS CA3 19301 -0.1548 12.010000
19302 ha 16828 TPS HA3 19302 0.1282 1.008000
19303 ha 16829 TPS HA2 19303 0.1332 1.008000
19304 ca 16829 TPS CA2 19304 -0.0753 12.010000
19305 ca 16829 TPS CA1 19305 -0.361 12.010000
19306 si 16829 TPS Si 19306 1.1 28.085000
19307 ca 16829 TPS CA6 19307 -0.0753 12.010000
19308 ha 16829 TPS HH6 19308 0.1332 1.008000
19309 ca 16829 TPS CA5 19309 -0.1548 12.010000
19310 ha 16829 TPS HA5 19310 0.1282 1.008000
19311 ca 16829 TPS CA4 19311 -0.1028 12.010000
19312 ha 16829 TPS HA4 19312 0.1262 1.008000
19313 ca 16829 TPS CA3 19313 -0.1548 12.010000
19314 ha 16829 TPS HA3 19314 0.1282 1.008000
19315 ha 16830 TPS HA2 19315 0.1332 1.008000
19316 ca 16830 TPS CA2 19316 -0.0753 12.010000
19317 ca 16830 TPS CA1 19317 -0.361 12.010000
19318 si 16830 TPS Si 19318 1.1 28.085000
19319 ca 16830 TPS CA6 19319 -0.0753 12.010000
19320 ha 16830 TPS HH6 19320 0.1332 1.008000
19321 ca 16830 TPS CA5 19321 -0.1548 12.010000
19322 ha 16830 TPS HA5 19322 0.1282 1.008000
19323 ca 16830 TPS CA4 19323 -0.1028 12.010000
19324 ha 16830 TPS HA4 19324 0.1262 1.008000
19325 ca 16830 TPS CA3 19325 -0.1548 12.010000
19326 ha 16830 TPS HA3 19326 0.1282 1.008000
19327 ha 16831 TPS HA2 19327 0.1332 1.008000
19328 ca 16831 TPS CA2 19328 -0.0753 12.010000
19329 ca 16831 TPS CA1 19329 -0.361 12.010000
19330 si 16831 TPS Si 19330 1.1 28.085000
19331 ca 16831 TPS CA6 19331 -0.0753 12.010000
19332 ha 16831 TPS HH6 19332 0.1332 1.008000
19333 ca 16831 TPS CA5 19333 -0.1548 12.010000
19334 ha 16831 TPS HA5 19334 0.1282 1.008000
19335 ca 16831 TPS CA4 19335 -0.1028 12.010000
19336 ha 16831 TPS HA4 19336 0.1262 1.008000
19337 ca 16831 TPS CA3 19337 -0.1548 12.010000
19338 ha 16831 TPS HA3 19338 0.1282 1.008000
19339 ha 16832 TPS HA2 19339 0.1332 1.008000
19340 ca 16832 TPS CA2 19340 -0.0753 12.010000
19341 ca 16832 TPS CA1 19341 -0.361 12.010000
19342 si 16832 TPS Si 19342 1.1 28.085000
19343 ca 16832 TPS CA6 19343 -0.0753 12.010000
19344 ha 16832 TPS HH6 19344 0.1332 1.008000
19345 ca 16832 TPS CA5 19345 -0.1548 12.010000
19346 ha 16832 TPS HA5 19346 0.1282 1.008000
19347 ca 16832 TPS CA4 19347 -0.1028 12.010000
19348 ha 16832 TPS HA4 19348 0.1262 1.008000
19349 ca 16832 TPS CA3 19349 -0.1548 12.010000
19350 ha 16832 TPS HA3 19350 0.1282 1.008000
19351 ha 16833 TPS HA2 19351 0.1332 1.008000
19352 ca 16833 TPS CA2 19352 -0.0753 12.010000
19353 ca 16833 TPS CA1 19353 -0.361 12.010000
19354 si 16833 TPS Si 19354 1.1 28.085000
19355 ca 16833 TPS CA6 19355 -0.0753 12.010000
19356 ha 16833 TPS HH6 19356 0.1332 1.008000
19357 ca 16833 TPS CA5 19357 -0.1548 12.010000
19358 ha 16833 TPS HA5 19358 0.1282 1.008000
19359 ca 16833 TPS CA4 19359 -0.1028 12.010000
19360 ha 16833 TPS HA4 19360 0.1262 1.008000
19361 ca 16833 TPS CA3 19361 -0.1548 12.010000
19362 ha 16833 TPS HA3 19362 0.1282 1.008000
19363 ha 16834 TPS HA2 19363 0.1332 1.008000
19364 ca 16834 TPS CA2 19364 -0.0753 12.010000
19365 ca 16834 TPS CA1 19365 -0.361 12.010000
19366 si 16834 TPS Si 19366 1.1 28.085000
19367 ca 16834 TPS CA6 19367 -0.0753 12.010000
19368 ha 16834 TPS HH6 19368 0.1332 1.008000
19369 ca 16834 TPS CA5 19369 -0.1548 12.010000
19370 ha 16834 TPS HA5 19370 0.1282 1.008000
19371 ca 16834 TPS CA4 19371 -0.1028 12.010000
19372 ha 16834 TPS HA4 19372 0.1262 1.008000
19373 ca 16834 TPS CA3 19373 -0.1548 12.010000
19374 ha 16834 TPS HA3 19374 0.1282 1.008000
19375 ha 16835 TPS HA2 19375 0.1332 1.008000
19376 ca 16835 TPS CA2 19376 -0.0753 12.010000
19377 ca 16835 TPS CA1 19377 -0.361 12.010000
19378 si 16835 TPS Si 19378 1.1 28.085000
19379 ca 16835 TPS CA6 19379 -0.0753 12.010000
19380 ha 16835 TPS HH6 19380 0.1332 1.008000
19381 ca 16835 TPS CA5 19381 -0.1548 12.010000
19382 ha 16835 TPS HA5 19382 0.1282 1.008000
19383 ca 16835 TPS CA4 19383 -0.1028 12.010000
19384 ha 16835 TPS HA4 19384 0.1262 1.008000
19385 ca 16835 TPS CA3 19385 -0.1548 12.010000
19386 ha 16835 TPS HA3 19386 0.1282 1.008000
19387 ha 16836 TPS HA2 19387 0.1332 1.008000
19388 ca 16836 TPS CA2 19388 -0.0753 12.010000
19389 ca 16836 TPS CA1 19389 -0.361 12.010000
19390 si 16836 TPS Si 19390 1.1 28.085000
19391 ca 16836 TPS CA6 19391 -0.0753 12.010000
19392 ha 16836 TPS HH6 19392 0.1332 1.008000
19393 ca 16836 TPS CA5 19393 -0.1548 12.010000
19394 ha 16836 TPS HA5 19394 0.1282 1.008000
19395 ca 16836 TPS CA4 19395 -0.1028 12.010000
19396 ha 16836 TPS HA4 19396 0.1262 1.008000
19397 ca 16836 TPS CA3 19397 -0.1548 12.010000
19398 ha 16836 TPS HA3 19398 0.1282 1.008000
19399 ha 16837 TPS HA2 19399 0.1332 1.008000
19400 ca 16837 TPS CA2 19400 -0.0753 12.010000
19401 ca 16837 TPS CA1 19401 -0.361 12.010000
19402 si 16837 TPS Si 19402 1.1 28.085000
19403 ca 16837 TPS CA6 19403 -0.0753 12.010000
19404 ha 16837 TPS HH6 19404 0.1332 1.008000
19405 ca 16837 TPS CA5 19405 -0.1548 12.010000
19406 ha 16837 TPS HA5 19406 0.1282 1.008000
19407 ca 16837 TPS CA4 19407 -0.1028 12.010000
19408 ha 16837 TPS HA4 19408 0.1262 1.008000
19409 ca 16837 TPS CA3 19409 -0.1548 12.010000
19410 ha 16837 TPS HA3 19410 0.1282 1.008000
19411 ha 16838 TPS HA2 19411 0.1332 1.008000
19412 ca 16838 TPS CA2 19412 -0.0753 12.010000
19413 ca 16838 TPS CA1 19413 -0.361 12.010000
19414 si 16838 TPS Si 19414 1.1 28.085000
19415 ca 16838 TPS CA6 19415 -0.0753 12.010000
19416 ha 16838 TPS HH6 19416 0.1332 1.008000
19417 ca 16838 TPS CA5 19417 -0.1548 12.010000
19418 ha 16838 TPS HA5 19418 0.1282 1.008000
19419 ca 16838 TPS CA4 19419 -0.1028 12.010000
19420 ha 16838 TPS HA4 19420 0.1262 1.008000
19421 ca 16838 TPS CA3 19421 -0.1548 12.010000
19422 ha 16838 TPS HA3 19422 0.1282 1.008000
19423 ha 16839 TPS HA2 19423 0.1332 1.008000
19424 ca 16839 TPS CA2 19424 -0.0753 12.010000
19425 ca 16839 TPS CA1 19425 -0.361 12.010000
19426 si 16839 TPS Si 19426 1.1 28.085000
19427 ca 16839 TPS CA6 19427 -0.0753 12.010000
19428 ha 16839 TPS HH6 19428 0.1332 1.008000
19429 ca 16839 TPS CA5 19429 -0.1548 12.010000
19430 ha 16839 TPS HA5 19430 0.1282 1.008000
19431 ca 16839 TPS CA4 19431 -0.1028 12.010000
19432 ha 16839 TPS HA4 19432 0.1262 1.008000
19433 ca 16839 TPS CA3 19433 -0.1548 12.010000
19434 ha 16839 TPS HA3 19434 0.1282 1.008000
19435 ha 16840 TPS HA2 19435 0.1332 1.008000
19436 ca 16840 TPS CA2 19436 -0.0753 12.010000
19437 ca 16840 TPS CA1 19437 -0.361 12.010000
19438 si 16840 TPS Si 19438 1.1 28.085000
19439 ca 16840 TPS CA6 19439 -0.0753 12.010000
19440 ha 16840 TPS HH6 19440 0.1332 1.008000
19441 ca 16840 TPS CA5 19441 -0.1548 12.010000
19442 ha 16840 TPS HA5 19442 0.1282 1.008000
19443 ca 16840 TPS CA4 19443 -0.1028 12.010000
19444 ha 16840 TPS HA4 19444 0.1262 1.008000
19445 ca 16840 TPS CA3 19445 -0.1548 12.010000
19446 ha 16840 TPS HA3 19446 0.1282 1.008000
19447 ha 16841 TPS HA2 19447 0.1332 1.008000
19448 ca 16841 TPS CA2 19448 -0.0753 12.010000
19449 ca 16841 TPS CA1 19449 -0.361 12.010000
19450 si 16841 TPS Si 19450 1.1 28.085000
19451 ca 16841 TPS CA6 19451 -0.0753 12.010000
19452 ha 16841 TPS HH6 19452 0.1332 1.008000
19453 ca 16841 TPS CA5 19453 -0.1548 12.010000
19454 ha 16841 TPS HA5 19454 0.1282 1.008000
19455 ca 16841 TPS CA4 19455 -0.1028 12.010000
19456 ha 16841 TPS HA4 19456 0.1262 1.008000
19457 ca 16841 TPS CA3 19457 -0.1548 12.010000
19458 ha 16841 TPS HA3 19458 0.1282 1.008000
19459 ha 16842 TPS HA2 19459 0.1332 1.008000
19460 ca 16842 TPS CA2 19460 -0.0753 12.010000
19461 ca 16842 TPS CA1 19461 -0.361 12.010000
19462 si 16842 TPS Si 19462 1.1 28.085000
19463 ca 16842 TPS CA6 19463 -0.0753 12.010000
19464 ha 16842 TPS HH6 19464 0.1332 1.008000
19465 ca 16842 TPS CA5 19465 -0.1548 12.010000
19466 ha 16842 TPS HA5 19466 0.1282 1.008000
19467 ca 16842 TPS CA4 19467 -0.1028 12.010000
19468 ha 16842 TPS HA4 19468 0.1262 1.008000
19469 ca 16842 TPS CA3 19469 -0.1548 12.010000
19470 ha 16842 TPS HA3 19470 0.1282 1.008000
19471 ha 16843 TPS HA2 19471 0.1332 1.008000
19472 ca 16843 TPS CA2 19472 -0.0753 12.010000
19473 ca 16843 TPS CA1 19473 -0.361 12.010000
19474 si 16843 TPS Si 19474 1.1 28.085000
19475 ca 16843 TPS CA6 19475 -0.0753 12.010000
19476 ha 16843 TPS HH6 19476 0.1332 1.008000
19477 ca 16843 TPS CA5 19477 -0.1548 12.010000
19478 ha 16843 TPS HA5 19478 0.1282 1.008000
19479 ca 16843 TPS CA4 19479 -0.1028 12.010000
19480 ha 16843 TPS HA4 19480 0.1262 1.008000
19481 ca 16843 TPS CA3 19481 -0.1548 12.010000
19482 ha 16843 TPS HA3 19482 0.1282 1.008000
19483 ha 16844 TPS HA2 19483 0.1332 1.008000
19484 ca 16844 TPS CA2 19484 -0.0753 12.010000
19485 ca 16844 TPS CA1 19485 -0.361 12.010000
19486 si 16844 TPS Si 19486 1.1 28.085000
19487 ca 16844 TPS CA6 19487 -0.0753 12.010000
19488 ha 16844 TPS HH6 19488 0.1332 1.008000
19489 ca 16844 TPS CA5 19489 -0.1548 12.010000
19490 ha 16844 TPS HA5 19490 0.1282 1.008000
19491 ca 16844 TPS CA4 19491 -0.1028 12.010000
19492 ha 16844 TPS HA4 19492 0.1262 1.008000
19493 ca 16844 TPS CA3 19493 -0.1548 12.010000
19494 ha 16844 TPS HA3 19494 0.1282 1.008000
19495 ha 16845 TPS HA2 19495 0.1332 1.008000
19496 ca 16845 TPS CA2 19496 -0.0753 12.010000
19497 ca 16845 TPS CA1 19497 -0.361 12.010000
19498 si 16845 TPS Si 19498 1.1 28.085000
19499 ca 16845 TPS CA6 19499 -0.0753 12.010000
19500 ha 16845 TPS HH6 19500 0.1332 1.008000
19501 ca 16845 TPS CA5 19501 -0.1548 12.010000
19502 ha 16845 TPS HA5 19502 0.1282 1.008000
19503 ca 16845 TPS CA4 19503 -0.1028 12.010000
19504 ha 16845 TPS HA4 19504 0.1262 1.008000
19505 ca 16845 TPS CA3 19505 -0.1548 12.010000
19506 ha 16845 TPS HA3 19506 0.1282 1.008000
19507 ha 16846 TPS HA2 19507 0.1332 1.008000
19508 ca 16846 TPS CA2 19508 -0.0753 12.010000
19509 ca 16846 TPS CA1 19509 -0.361 12.010000
19510 si 16846 TPS Si 19510 1.1 28.085000
19511 ca 16846 TPS CA6 19511 -0.0753 12.010000
19512 ha 16846 TPS HH6 19512 0.1332 1.008000
19513 ca 16846 TPS CA5 19513 -0.1548 12.010000
19514 ha 16846 TPS HA5 19514 0.1282 1.008000
19515 ca 16846 TPS CA4 19515 -0.1028 12.010000
19516 ha 16846 TPS HA4 19516 0.1262 1.008000
19517 ca 16846 TPS CA3 19517 -0.1548 12.010000
19518 ha 16846 TPS HA3 19518 0.1282 1.008000
19519 ha 16847 TPS HA2 19519 0.1332 1.008000
19520 ca 16847 TPS CA2 19520 -0.0753 12.010000
19521 ca 16847 TPS CA1 19521 -0.361 12.010000
19522 si 16847 TPS Si 19522 1.1 28.085000
19523 ca 16847 TPS CA6 19523 -0.0753 12.010000
19524 ha 16847 TPS HH6 19524 0.1332 1.008000
19525 ca 16847 TPS CA5 19525 -0.1548 12.010000
19526 ha 16847 TPS HA5 19526 0.1282 1.008000
19527 ca 16847 TPS CA4 19527 -0.1028 12.010000
19528 ha 16847 TPS HA4 19528 0.1262 1.008000
19529 ca 16847 TPS CA3 19529 -0.1548 12.010000
19530 ha 16847 TPS HA3 19530 0.1282 1.008000
19531 ha 16848 TPS HA2 19531 0.1332 1.008000
19532 ca 16848 TPS CA2 19532 -0.0753 12.010000
19533 ca 16848 TPS CA1 19533 -0.361 12.010000
19534 si 16848 TPS Si 19534 1.1 28.085000
19535 ca 16848 TPS CA6 19535 -0.0753 12.010000
19536 ha 16848 TPS HH6 19536 0.1332 1.008000
19537 ca 16848 TPS CA5 19537 -0.1548 12.010000
19538 ha 16848 TPS HA5 19538 0.1282 1.008000
19539 ca 16848 TPS CA4 19539 -0.1028 12.010000
19540 ha 16848 TPS HA4 19540 0.1262 1.008000
19541 ca 16848 TPS CA3 19541 -0.1548 12.010000
19542 ha 16848 TPS HA3 19542 0.1282 1.008000
19543 ha 16849 TPS HA2 19543 0.1332 1.008000
19544 ca 16849 TPS CA2 19544 -0.0753 12.010000
19545 ca 16849 TPS CA1 19545 -0.361 12.010000
19546 si 16849 TPS Si 19546 1.1 28.085000
19547 ca 16849 TPS CA6 19547 -0.0753 12.010000
19548 ha 16849 TPS HH6 19548 0.1332 1.008000
19549 ca 16849 TPS CA5 19549 -0.1548 12.010000
19550 ha 16849 TPS HA5 19550 0.1282 1.008000
19551 ca 16849 TPS CA4 19551 -0.1028 12.010000
19552 ha 16849 TPS HA4 19552 0.1262 1.008000
19553 ca 16849 TPS CA3 19553 -0.1548 12.010000
19554 ha 16849 TPS HA3 19554 0.1282 1.008000
19555 ha 16850 TPS HA2 19555 0.1332 1.008000
19556 ca 16850 TPS CA2 19556 -0.0753 12.010000
19557 ca 16850 TPS CA1 19557 -0.361 12.010000
19558 si 16850 TPS Si 19558 1.1 28.085000
19559 ca 16850 TPS CA6 19559 -0.0753 12.010000
19560 ha 16850 TPS HH6 19560 0.1332 1.008000
19561 ca 16850 TPS CA5 19561 -0.1548 12.010000
19562 ha 16850 TPS HA5 19562 0.1282 1.008000
19563 ca 16850 TPS CA4 19563 -0.1028 12.010000
19564 ha 16850 TPS HA4 19564 0.1262 1.008000
19565 ca 16850 TPS CA3 19565 -0.1548 12.010000
19566 ha 16850 TPS HA3 19566 0.1282 1.008000
19567 ha 16851 TPS HA2 19567 0.1332 1.008000
19568 ca 16851 TPS CA2 19568 -0.0753 12.010000
19569 ca 16851 TPS CA1 19569 -0.361 12.010000
19570 si 16851 TPS Si 19570 1.1 28.085000
19571 ca 16851 TPS CA6 19571 -0.0753 12.010000
19572 ha 16851 TPS HH6 19572 0.1332 1.008000
19573 ca 16851 TPS CA5 19573 -0.1548 12.010000
19574 ha 16851 TPS HA5 19574 0.1282 1.008000
19575 ca 16851 TPS CA4 19575 -0.1028 12.010000
19576 ha 16851 TPS HA4 19576 0.1262 1.008000
19577 ca 16851 TPS CA3 19577 -0.1548 12.010000
19578 ha 16851 TPS HA3 19578 0.1282 1.008000
19579 ha 16852 TPS HA2 19579 0.1332 1.008000
19580 ca 16852 TPS CA2 19580 -0.0753 12.010000
19581 ca 16852 TPS CA1 19581 -0.361 12.010000
19582 si 16852 TPS Si 19582 1.1 28.085000
19583 ca 16852 TPS CA6 19583 -0.0753 12.010000
19584 ha 16852 TPS HH6 19584 0.1332 1.008000
19585 ca 16852 TPS CA5 19585 -0.1548 12.010000
19586 ha 16852 TPS HA5 19586 0.1282 1.008000
19587 ca 16852 TPS CA4 19587 -0.1028 12.010000
19588 ha 16852 TPS HA4 19588 0.1262 1.008000
19589 ca 16852 TPS CA3 19589 -0.1548 12.010000
19590 ha 16852 TPS HA3 19590 0.1282 1.008000
19591 ha 16853 TPS HA2 19591 0.1332 1.008000
19592 ca 16853 TPS CA2 19592 -0.0753 12.010000
19593 ca 16853 TPS CA1 19593 -0.361 12.010000
19594 si 16853 TPS Si 19594 1.1 28.085000
19595 ca 16853 TPS CA6 19595 -0.0753 12.010000
19596 ha 16853 TPS HH6 19596 0.1332 1.008000
19597 ca 16853 TPS CA5 19597 -0.1548 12.010000
19598 ha 16853 TPS HA5 19598 0.1282 1.008000
19599 ca 16853 TPS CA4 19599 -0.1028 12.010000
19600 ha 16853 TPS HA4 19600 0.1262 1.008000
19601 ca 16853 TPS CA3 19601 -0.1548 12.010000
19602 ha 16853 TPS HA3 19602 0.1282 1.008000
19603 ha 16854 TPS HA2 19603 0.1332 1.008000
19604 ca 16854 TPS CA2 19604 -0.0753 12.010000
19605 ca 16854 TPS CA1 19605 -0.361 12.010000
19606 si 16854 TPS Si 19606 1.1 28.085000
19607 ca 16854 TPS CA6 19607 -0.0753 12.010000
19608 ha 16854 TPS HH6 19608 0.1332 1.008000
19609 ca 16854 TPS CA5 19609 -0.1548 12.010000
19610 ha 16854 TPS HA5 19610 0.1282 1.008000
19611 ca 16854 TPS CA4 19611 -0.1028 12.010000
19612 ha 16854 TPS HA4 19612 0.1262 1.008000
19613 ca 16854 TPS CA3 19613 -0.1548 12.010000
19614 ha 16854 TPS HA3 19614 0.1282 1.008000
19615 ha 16855 TPS HA2 19615 0.1332 1.008000
19616 ca 16855 TPS CA2 19616 -0.0753 12.010000
19617 ca 16855 TPS CA1 19617 -0.361 12.010000
19618 si 16855 TPS Si 19618 1.1 28.085000
19619 ca 16855 TPS CA6 19619 -0.0753 12.010000
19620 ha 16855 TPS HH6 19620 0.1332 1.008000
19621 ca 16855 TPS CA5 19621 -0.1548 12.010000
19622 ha 16855 TPS HA5 19622 0.1282 1.008000
19623 ca 16855 TPS CA4 19623 -0.1028 12.010000
19624 ha 16855 TPS HA4 19624 0.1262 1.008000
19625 ca 16855 TPS CA3 19625 -0.1548 12.010000
19626 ha 16855 TPS HA3 19626 0.1282 1.008000
19627 ha 16856 TPS HA2 19627 0.1332 1.008000
19628 ca 16856 TPS CA2 19628 -0.0753 12.010000
19629 ca 16856 TPS CA1 19629 -0.361 12.010000
19630 si 16856 TPS Si 19630 1.1 28.085000
19631 ca 16856 TPS CA6 19631 -0.0753 12.010000
19632 ha 16856 TPS HH6 19632 0.1332 1.008000
19633 ca 16856 TPS CA5 19633 -0.1548 12.010000
19634 ha 16856 TPS HA5 19634 0.1282 1.008000
19635 ca 16856 TPS CA4 19635 -0.1028 12.010000
19636 ha 16856 TPS HA4 19636 0.1262 1.008000
19637 ca 16856 TPS CA3 19637 -0.1548 12.010000
19638 ha 16856 TPS HA3 19638 0.1282 1.008000
19639 ha 16857 TPS HA2 19639 0.1332 1.008000
19640 ca 16857 TPS CA2 19640 -0.0753 12.010000
19641 ca 16857 TPS CA1 19641 -0.361 12.010000
19642 si 16857 TPS Si 19642 1.1 28.085000
19643 ca 16857 TPS CA6 19643 -0.0753 12.010000
19644 ha 16857 TPS HH6 19644 0.1332 1.008000
19645 ca 16857 TPS CA5 19645 -0.1548 12.010000
19646 ha 16857 TPS HA5 19646 0.1282 1.008000
19647 ca 16857 TPS CA4 19647 -0.1028 12.010000
19648 ha 16857 TPS HA4 19648 0.1262 1.008000
19649 ca 16857 TPS CA3 19649 -0.1548 12.010000
19650 ha 16857 TPS HA3 19650 0.1282 1.008000
19651 ha 16858 TPS HA2 19651 0.1332 1.008000
19652 ca 16858 TPS CA2 19652 -0.0753 12.010000
19653 ca 16858 TPS CA1 19653 -0.361 12.010000
19654 si 16858 TPS Si 19654 1.1 28.085000
19655 ca 16858 TPS CA6 19655 -0.0753 12.010000
19656 ha 16858 TPS HH6 19656 0.1332 1.008000
19657 ca 16858 TPS CA5 19657 -0.1548 12.010000
19658 ha 16858 TPS HA5 19658 0.1282 1.008000
19659 ca 16858 TPS CA4 19659 -0.1028 12.010000
19660 ha 16858 TPS HA4 19660 0.1262 1.008000
19661 ca 16858 TPS CA3 19661 -0.1548 12.010000
19662 ha 16858 TPS HA3 19662 0.1282 1.008000
19663 ha 16859 TPS HA2 19663 0.1332 1.008000
19664 ca 16859 TPS CA2 19664 -0.0753 12.010000
19665 ca 16859 TPS CA1 19665 -0.361 12.010000
19666 si 16859 TPS Si 19666 1.1 28.085000
19667 ca 16859 TPS CA6 19667 -0.0753 12.010000
19668 ha 16859 TPS HH6 19668 0.1332 1.008000
19669 ca 16859 TPS CA5 19669 -0.1548 12.010000
19670 ha 16859 TPS HA5 19670 0.1282 1.008000
19671 ca 16859 TPS CA4 19671 -0.1028 12.010000
19672 ha 16859 TPS HA4 19672 0.1262 1.008000
19673 ca 16859 TPS CA3 19673 -0.1548 12.010000
19674 ha 16859 TPS HA3 19674 0.1282 1.008000
19675 ha 16860 TPS HA2 19675 0.1332 1.008000
19676 ca 16860 TPS CA2 19676 -0.0753 12.010000
19677 ca 16860 TPS CA1 19677 -0.361 12.010000
19678 si 16860 TPS Si 19678 1.1 28.085000
19679 ca 16860 TPS CA6 19679 -0.0753 12.010000
19680 ha 16860 TPS HH6 19680 0.1332 1.008000
19681 ca 16860 TPS CA5 19681 -0.1548 12.010000
19682 ha 16860 TPS HA5 19682 0.1282 1.008000
19683 ca 16860 TPS CA4 19683 -0.1028 12.010000
19684 ha 16860 TPS HA4 19684 0.1262 1.008000
19685 ca 16860 TPS CA3 19685 -0.1548 12.010000
19686 ha 16860 TPS HA3 19686 0.1282 1.008000
19687 ha 16861 TPS HA2 19687 0.1332 1.008000
19688 ca 16861 TPS CA2 19688 -0.0753 12.010000
19689 ca 16861 TPS CA1 19689 -0.361 12.010000
19690 si 16861 TPS Si 19690 1.1 28.085000
19691 ca 16861 TPS CA6 19691 -0.0753 12.010000
19692 ha 16861 TPS HH6 19692 0.1332 1.008000
19693 ca 16861 TPS CA5 19693 -0.1548 12.010000
19694 ha 16861 TPS HA5 19694 0.1282 1.008000
19695 ca 16861 TPS CA4 19695 -0.1028 12.010000
19696 ha 16861 TPS HA4 19696 0.1262 1.008000
19697 ca 16861 TPS CA3 19697 -0.1548 12.010000
19698 ha 16861 TPS HA3 19698 0.1282 1.008000
19699 ha 16862 TPS HA2 19699 0.1332 1.008000
19700 ca 16862 TPS CA2 19700 -0.0753 12.010000
19701 ca 16862 TPS CA1 19701 -0.361 12.010000
19702 si 16862 TPS Si 19702 1.1 28.085000
19703 ca 16862 TPS CA6 19703 -0.0753 12.010000
19704 ha 16862 TPS HH6 19704 0.1332 1.008000
19705 ca 16862 TPS CA5 19705 -0.1548 12.010000
19706 ha 16862 TPS HA5 19706 0.1282 1.008000
19707 ca 16862 TPS CA4 19707 -0.1028 12.010000
19708 ha 16862 TPS HA4 19708 0.1262 1.008000
19709 ca 16862 TPS CA3 19709 -0.1548 12.010000
19710 ha 16862 TPS HA3 19710 0.1282 1.008000
19711 ha 16863 TPS HA2 19711 0.1332 1.008000
19712 ca 16863 TPS CA2 19712 -0.0753 12.010000
19713 ca 16863 TPS CA1 19713 -0.361 12.010000
19714 si 16863 TPS Si 19714 1.1 28.085000
19715 ca 16863 TPS CA6 19715 -0.0753 12.010000
19716 ha 16863 TPS HH6 19716 0.1332 1.008000
19717 ca 16863 TPS CA5 19717 -0.1548 12.010000
19718 ha 16863 TPS HA5 19718 0.1282 1.008000
19719 ca 16863 TPS CA4 19719 -0.1028 12.010000
19720 ha 16863 TPS HA4 19720 0.1262 1.008000
19721 ca 16863 TPS CA3 19721 -0.1548 12.010000
19722 ha 16863 TPS HA3 19722 0.1282 1.008000
19723 ha 16864 TPS HA2 19723 0.1332 1.008000
19724 ca 16864 TPS CA2 19724 -0.0753 12.010000
19725 ca 16864 TPS CA1 19725 -0.361 12.010000
19726 si 16864 TPS Si 19726 1.1 28.085000
19727 ca 16864 TPS CA6 19727 -0.0753 12.010000
19728 ha 16864 TPS HH6 19728 0.1332 1.008000
19729 ca 16864 TPS CA5 19729 -0.1548 12.010000
19730 ha 16864 TPS HA5 19730 0.1282 1.008000
19731 ca 16864 TPS CA4 19731 -0.1028 12.010000
19732 ha 16864 TPS HA4 19732 0.1262 1.008000
19733 ca 16864 TPS CA3 19733 -0.1548 12.010000
19734 ha 16864 TPS HA3 19734 0.1282 1.008000
19735 ha 16865 TPS HA2 19735 0.1332 1.008000
19736 ca 16865 TPS CA2 19736 -0.0753 12.010000
19737 ca 16865 TPS CA1 19737 -0.361 12.010000
19738 si 16865 TPS Si 19738 1.1 28.085000
19739 ca 16865 TPS CA6 19739 -0.0753 12.010000
19740 ha 16865 TPS HH6 19740 0.1332 1.008000
19741 ca 16865 TPS CA5 19741 -0.1548 12.010000
19742 ha 16865 TPS HA5 19742 0.1282 1.008000
19743 ca 16865 TPS CA4 19743 -0.1028 12.010000
19744 ha 16865 TPS HA4 19744 0.1262 1.008000
19745 ca 16865 TPS CA3 19745 -0.1548 12.010000
19746 ha 16865 TPS HA3 19746 0.1282 1.008000
19747 ha 16866 TPS HA2 19747 0.1332 1.008000
19748 ca 16866 TPS CA2 19748 -0.0753 12.010000
19749 ca 16866 TPS CA1 19749 -0.361 12.010000
19750 si 16866 TPS Si 19750 1.1 28.085000
19751 ca 16866 TPS CA6 19751 -0.0753 12.010000
19752 ha 16866 TPS HH6 19752 0.1332 1.008000
19753 ca 16866 TPS CA5 19753 -0.1548 12.010000
19754 ha 16866 TPS HA5 19754 0.1282 1.008000
19755 ca 16866 TPS CA4 19755 -0.1028 12.010000
19756 ha 16866 TPS HA4 19756 0.1262 1.008000
19757 ca 16866 TPS CA3 19757 -0.1548 12.010000
19758 ha 16866 TPS HA3 19758 0.1282 1.008000
19759 ha 16867 TPS HA2 19759 0.1332 1.008000
19760 ca 16867 TPS CA2 19760 -0.0753 12.010000
19761 ca 16867 TPS CA1 19761 -0.361 12.010000
19762 si 16867 TPS Si 19762 1.1 28.085000
19763 ca 16867 TPS CA6 19763 -0.0753 12.010000
19764 ha 16867 TPS HH6 19764 0.1332 1.008000
19765 ca 16867 TPS CA5 19765 -0.1548 12.010000
19766 ha 16867 TPS HA5 19766 0.1282 1.008000
19767 ca 16867 TPS CA4 19767 -0.1028 12.010000
19768 ha 16867 TPS HA4 19768 0.1262 1.008000
19769 ca 16867 TPS CA3 19769 -0.1548 12.010000
19770 ha 16867 TPS HA3 19770 0.1282 1.008000
19771 ha 16868 TPS HA2 19771 0.1332 1.008000
19772 ca 16868 TPS CA2 19772 -0.0753 12.010000
19773 ca 16868 TPS CA1 19773 -0.361 12.010000
19774 si 16868 TPS Si 19774 1.1 28.085000
19775 ca 16868 TPS CA6 19775 -0.0753 12.010000
19776 ha 16868 TPS HH6 19776 0.1332 1.008000
19777 ca 16868 TPS CA5 19777 -0.1548 12.010000
19778 ha 16868 TPS HA5 19778 0.1282 1.008000
19779 ca 16868 TPS CA4 19779 -0.1028 12.010000
19780 ha 16868 TPS HA4 19780 0.1262 1.008000
19781 ca 16868 TPS CA3 19781 -0.1548 12.010000
19782 ha 16868 TPS HA3 19782 0.1282 1.008000
19783 ha 16869 TPS HA2 19783 0.1332 1.008000
19784 ca 16869 TPS CA2 19784 -0.0753 12.010000
19785 ca 16869 TPS CA1 19785 -0.361 12.010000
19786 si 16869 TPS Si 19786 1.1 28.085000
19787 ca 16869 TPS CA6 19787 -0.0753 12.010000
19788 ha 16869 TPS HH6 19788 0.1332 1.008000
19789 ca 16869 TPS CA5 19789 -0.1548 12.010000
19790 ha 16869 TPS HA5 19790 0.1282 1.008000
19791 ca 16869 TPS CA4 19791 -0.1028 12.010000
19792 ha 16869 TPS HA4 19792 0.1262 1.008000
19793 ca 16869 TPS CA3 19793 -0.1548 12.010000
19794 ha 16869 TPS HA3 19794 0.1282 1.008000
19795 ha 16870 TPS HA2 19795 0.1332 1.008000
19796 ca 16870 TPS CA2 19796 -0.0753 12.010000
19797 ca 16870 TPS CA1 19797 -0.361 12.010000
19798 si 16870 TPS Si 19798 1.1 28.085000
19799 ca 16870 TPS CA6 19799 -0.0753 12.010000
19800 ha 16870 TPS HH6 19800 0.1332 1.008000
19801 ca 16870 TPS CA5 19801 -0.1548 12.010000
19802 ha 16870 TPS HA5 19802 0.1282 1.008000
19803 ca 16870 TPS CA4 19803 -0.1028 12.010000
19804 ha 16870 TPS HA4 19804 0.1262 1.008000
19805 ca 16870 TPS CA3 19805 -0.1548 12.010000
19806 ha 16870 TPS HA3 19806 0.1282 1.008000
19807 ha 16871 TPS HA2 19807 0.1332 1.008000
19808 ca 16871 TPS CA2 19808 -0.0753 12.010000
19809 ca 16871 TPS CA1 19809 -0.361 12.010000
19810 si 16871 TPS Si 19810 1.1 28.085000
19811 ca 16871 TPS CA6 19811 -0.0753 12.010000
19812 ha 16871 TPS HH6 19812 0.1332 1.008000
19813 ca 16871 TPS CA5 19813 -0.1548 12.010000
19814 ha 16871 TPS HA5 19814 0.1282 1.008000
19815 ca 16871 TPS CA4 19815 -0.1028 12.010000
19816 ha 16871 TPS HA4 19816 0.1262 1.008000
19817 ca 16871 TPS CA3 19817 -0.1548 12.010000
19818 ha 16871 TPS HA3 19818 0.1282 1.008000
19819 ha 16872 TPS HA2 19819 0.1332 1.008000
19820 ca 16872 TPS CA2 19820 -0.0753 12.010000
19821 ca 16872 TPS CA1 19821 -0.361 12.010000
19822 si 16872 TPS Si 19822 1.1 28.085000
19823 ca 16872 TPS CA6 19823 -0.0753 12.010000
19824 ha 16872 TPS HH6 19824 0.1332 1.008000
19825 ca 16872 TPS CA5 19825 -0.1548 12.010000
19826 ha 16872 TPS HA5 19826 0.1282 1.008000
19827 ca 16872 TPS CA4 19827 -0.1028 12.010000
19828 ha 16872 TPS HA4 19828 0.1262 1.008000
19829 ca 16872 TPS CA3 19829 -0.1548 12.010000
19830 ha 16872 TPS HA3 19830 0.1282 1.008000
19831 ha 16873 TPS HA2 19831 0.1332 1.008000
19832 ca 16873 TPS CA2 19832 -0.0753 12.010000
19833 ca 16873 TPS CA1 19833 -0.361 12.010000
19834 si 16873 TPS Si 19834 1.1 28.085000
19835 ca 16873 TPS CA6 19835 -0.0753 12.010000
19836 ha 16873 TPS HH6 19836 0.1332 1.008000
19837 ca 16873 TPS CA5 19837 -0.1548 12.010000
19838 ha 16873 TPS HA5 19838 0.1282 1.008000
19839 ca 16873 TPS CA4 19839 -0.1028 12.010000
19840 ha 16873 TPS HA4 19840 0.1262 1.008000
19841 ca 16873 TPS CA3 19841 -0.1548 12.010000
19842 ha 16873 TPS HA3 19842 0.1282 1.008000
19843 ha 16874 TPS HA2 19843 0.1332 1.008000
19844 ca 16874 TPS CA2 19844 -0.0753 12.010000
19845 ca 16874 TPS CA1 19845 -0.361 12.010000
19846 si 16874 TPS Si 19846 1.1 28.085000
19847 ca 16874 TPS CA6 19847 -0.0753 12.010000
19848 ha 16874 TPS HH6 19848 0.1332 1.008000
19849 ca 16874 TPS CA5 19849 -0.1548 12.010000
19850 ha 16874 TPS HA5 19850 0.1282 1.008000
19851 ca 16874 TPS CA4 19851 -0.1028 12.010000
19852 ha 16874 TPS HA4 19852 0.1262 1.008000
19853 ca 16874 TPS CA3 19853 -0.1548 12.010000
19854 ha 16874 TPS HA3 19854 0.1282 1.008000
19855 ha 16875 TPS HA2 19855 0.1332 1.008000
19856 ca 16875 TPS CA2 19856 -0.0753 12.010000
19857 ca 16875 TPS CA1 19857 -0.361 12.010000
19858 si 16875 TPS Si 19858 1.1 28.085000
19859 ca 16875 TPS CA6 19859 -0.0753 12.010000
19860 ha 16875 TPS HH6 19860 0.1332 1.008000
19861 ca 16875 TPS CA5 19861 -0.1548 12.010000
19862 ha 16875 TPS HA5 19862 0.1282 1.008000
19863 ca 16875 TPS CA4 19863 -0.1028 12.010000
19864 ha 16875 TPS HA4 19864 0.1262 1.008000
19865 ca 16875 TPS CA3 19865 -0.1548 12.010000
19866 ha 16875 TPS HA3 19866 0.1282 1.008000
19867 ha 16876 TPS HA2 19867 0.1332 1.008000
19868 ca 16876 TPS CA2 19868 -0.0753 12.010000
19869 ca 16876 TPS CA1 19869 -0.361 12.010000
19870 si 16876 TPS Si 19870 1.1 28.085000
19871 ca 16876 TPS CA6 19871 -0.0753 12.010000
19872 ha 16876 TPS HH6 19872 0.1332 1.008000
19873 ca 16876 TPS CA5 19873 -0.1548 12.010000
19874 ha 16876 TPS HA5 19874 0.1282 1.008000
19875 ca 16876 TPS CA4 19875 -0.1028 12.010000
19876 ha 16876 TPS HA4 19876 0.1262 1.008000
19877 ca 16876 TPS CA3 19877 -0.1548 12.010000
19878 ha 16876 TPS HA3 19878 0.1282 1.008000
19879 ha 16877 TPS HA2 19879 0.1332 1.008000
19880 ca 16877 TPS CA2 19880 -0.0753 12.010000
19881 ca 16877 TPS CA1 19881 -0.361 12.010000
19882 si 16877 TPS Si 19882 1.1 28.085000
19883 ca 16877 TPS CA6 19883 -0.0753 12.010000
19884 ha 16877 TPS HH6 19884 0.1332 1.008000
19885 ca 16877 TPS CA5 19885 -0.1548 12.010000
19886 ha 16877 TPS HA5 19886 0.1282 1.008000
19887 ca 16877 TPS CA4 19887 -0.1028 12.010000
19888 ha 16877 TPS HA4 19888 0.1262 1.008000
19889 ca 16877 TPS CA3 19889 -0.1548 12.010000
19890 ha 16877 TPS HA3 19890 0.1282 1.008000
19891 ha 16878 TPS HA2 19891 0.1332 1.008000
19892 ca 16878 TPS CA2 19892 -0.0753 12.010000
19893 ca 16878 TPS CA1 19893 -0.361 12.010000
19894 si 16878 TPS Si 19894 1.1 28.085000
19895 ca 16878 TPS CA6 19895 -0.0753 12.010000
19896 ha 16878 TPS HH6 19896 0.1332 1.008000
19897 ca 16878 TPS CA5 19897 -0.1548 12.010000
19898 ha 16878 TPS HA5 19898 0.1282 1.008000
19899 ca 16878 TPS CA4 19899 -0.1028 12.010000
19900 ha 16878 TPS HA4 19900 0.1262 1.008000
19901 ca 16878 TPS CA3 19901 -0.1548 12.010000
19902 ha 16878 TPS HA3 19902 0.1282 1.008000
19903 ha 16879 TPS HA2 19903 0.1332 1.008000
19904 ca 16879 TPS CA2 19904 -0.0753 12.010000
19905 ca 16879 TPS CA1 19905 -0.361 12.010000
19906 si 16879 TPS Si 19906 1.1 28.085000
19907 ca 16879 TPS CA6 19907 -0.0753 12.010000
19908 ha 16879 TPS HH6 19908 0.1332 1.008000
19909 ca 16879 TPS CA5 19909 -0.1548 12.010000
19910 ha 16879 TPS HA5 19910 0.1282 1.008000
19911 ca 16879 TPS CA4 19911 -0.1028 12.010000
19912 ha 16879 TPS HA4 19912 0.1262 1.008000
19913 ca 16879 TPS CA3 19913 -0.1548 12.010000
19914 ha 16879 TPS HA3 19914 0.1282 1.008000
19915 ha 16880 TPS HA2 19915 0.1332 1.008000
19916 ca 16880 TPS CA2 19916 -0.0753 12.010000
19917 ca 16880 TPS CA1 19917 -0.361 12.010000
19918 si 16880 TPS Si 19918 1.1 28.085000
19919 ca 16880 TPS CA6 19919 -0.0753 12.010000
19920 ha 16880 TPS HH6 19920 0.1332 1.008000
19921 ca 16880 TPS CA5 19921 -0.1548 12.010000
19922 ha 16880 TPS HA5 19922 0.1282 1.008000
19923 ca 16880 TPS CA4 19923 -0.1028 12.010000
19924 ha 16880 TPS HA4 19924 0.1262 1.008000
19925 ca 16880 TPS CA3 19925 -0.1548 12.010000
19926 ha 16880 TPS HA3 19926 0.1282 1.008000
19927 ha 16881 TPS HA2 19927 0.1332 1.008000
19928 ca 16881 TPS CA2 19928 -0.0753 12.010000
19929 ca 16881 TPS CA1 19929 -0.361 12.010000
19930 si 16881 TPS Si 19930 1.1 28.085000
19931 ca 16881 TPS CA6 19931 -0.0753 12.010000
19932 ha 16881 TPS HH6 19932 0.1332 1.008000
19933 ca 16881 TPS CA5 19933 -0.1548 12.010000
19934 ha 16881 TPS HA5 19934 0.1282 1.008000
19935 ca 16881 TPS CA4 19935 -0.1028 12.010000
19936 ha 16881 TPS HA4 19936 0.1262 1.008000
19937 ca 16881 TPS CA3 19937 -0.1548 12.010000
19938 ha 16881 TPS HA3 19938 0.1282 1.008000
19939 ha 16882 TPS HA2 19939 0.1332 1.008000
19940 ca 16882 TPS CA2 19940 -0.0753 12.010000
19941 ca 16882 TPS CA1 19941 -0.361 12.010000
19942 si 16882 TPS Si 19942 1.1 28.085000
19943 ca 16882 TPS CA6 19943 -0.0753 12.010000
19944 ha 16882 TPS HH6 19944 0.1332 1.008000
19945 ca 16882 TPS CA5 19945 -0.1548 12.010000
19946 ha 16882 TPS HA5 19946 0.1282 1.008000
19947 ca 16882 TPS CA4 19947 -0.1028 12.010000
19948 ha 16882 TPS HA4 19948 0.1262 1.008000
19949 ca 16882 TPS CA3 19949 -0.1548 12.010000
19950 ha 16882 TPS HA3 19950 0.1282 1.008000
19951 ha 16883 TPS HA2 19951 0.1332 1.008000
19952 ca 16883 TPS CA2 19952 -0.0753 12.010000
19953 ca 16883 TPS CA1 19953 -0.361 12.010000
19954 si 16883 TPS Si 19954 1.1 28.085000
19955 ca 16883 TPS CA6 19955 -0.0753 12.010000
19956 ha 16883 TPS HH6 19956 0.1332 1.008000
19957 ca 16883 TPS CA5 19957 -0.1548 12.010000
19958 ha 16883 TPS HA5 19958 0.1282 1.008000
19959 ca 16883 TPS CA4 19959 -0.1028 12.010000
19960 ha 16883 TPS HA4 19960 0.1262 1.008000
19961 ca 16883 TPS CA3 19961 -0.1548 12.010000
19962 ha 16883 TPS HA3 19962 0.1282 1.008000
19963 ha 16884 TPS HA2 19963 0.1332 1.008000
19964 ca 16884 TPS CA2 19964 -0.0753 12.010000
19965 ca 16884 TPS CA1 19965 -0.361 12.010000
19966 si 16884 TPS Si 19966 1.1 28.085000
19967 ca 16884 TPS CA6 19967 -0.0753 12.010000
19968 ha 16884 TPS HH6 19968 0.1332 1.008000
19969 ca 16884 TPS CA5 19969 -0.1548 12.010000
19970 ha 16884 TPS HA5 19970 0.1282 1.008000
19971 ca 16884 TPS CA4 19971 -0.1028 12.010000
19972 ha 16884 TPS HA4 19972 0.1262 1.008000
19973 ca 16884 TPS CA3 19973 -0.1548 12.010000
19974 ha 16884 TPS HA3 19974 0.1282 1.008000
19975 ha 16885 TPS HA2 19975 0.1332 1.008000
19976 ca 16885 TPS CA2 19976 -0.0753 12.010000
19977 ca 16885 TPS CA1 19977 -0.361 12.010000
19978 si 16885 TPS Si 19978 1.1 28.085000
19979 ca 16885 TPS CA6 19979 -0.0753 12.010000
19980 ha 16885 TPS HH6 19980 0.1332 1.008000
19981 ca 16885 TPS CA5 19981 -0.1548 12.010000
19982 ha 16885 TPS HA5 19982 0.1282 1.008000
19983 ca 16885 TPS CA4 19983 -0.1028 12.010000
19984 ha 16885 TPS HA4 19984 0.1262 1.008000
19985 ca 16885 TPS CA3 19985 -0.1548 12.010000
19986 ha 16885 TPS HA3 19986 0.1282 1.008000
19987 ha 16886 TPS HA2 19987 0.1332 1.008000
19988 ca 16886 TPS CA2 19988 -0.0753 12.010000
19989 ca 16886 TPS CA1 19989 -0.361 12.010000
19990 si 16886 TPS Si 19990 1.1 28.085000
19991 ca 16886 TPS CA6 19991 -0.0753 12.010000
19992 ha 16886 TPS HH6 19992 0.1332 1.008000
19993 ca 16886 TPS CA5 19993 -0.1548 12.010000
19994 ha 16886 TPS HA5 19994 0.1282 1.008000
19995 ca 16886 TPS CA4 19995 -0.1028 12.010000
19996 ha 16886 TPS HA4 19996 0.1262 1.008000
19997 ca 16886 TPS CA3 19997 -0.1548 12.010000
19998 ha 16886 TPS HA3 19998 0.1282 1.008000
19999 ha 16887 TPS HA2 19999 0.1332 1.008000
20000 ca 16887 TPS CA2 20000 -0.0753 12.010000
20001 ca 16887 TPS CA1 20001 -0.361 12.010000
20002 si 16887 TPS Si 20002 1.1 28.085000
20003 ca 16887 TPS CA6 20003 -0.0753 12.010000
20004 ha 16887 TPS HH6 20004 0.1332 1.008000
20005 ca 16887 TPS CA5 20005 -0.1548 12.010000
20006 ha 16887 TPS HA5 20006 0.1282 1.008000
20007 ca 16887 TPS CA4 20007 -0.1028 12.010000
20008 ha 16887 TPS HA4 20008 0.1262 1.008000
20009 ca 16887 TPS CA3 20009 -0.1548 12.010000
20010 ha 16887 TPS HA3 20010 0.1282 1.008000
20011 ha 16888 TPS HA2 20011 0.1332 1.008000
20012 ca 16888 TPS CA2 20012 -0.0753 12.010000
20013 ca 16888 TPS CA1 20013 -0.361 12.010000
20014 si 16888 TPS Si 20014 1.1 28.085000
20015 ca 16888 TPS CA6 20015 -0.0753 12.010000
20016 ha 16888 TPS HH6 20016 0.1332 1.008000
20017 ca 16888 TPS CA5 20017 -0.1548 12.010000
20018 ha 16888 TPS HA5 20018 0.1282 1.008000
20019 ca 16888 TPS CA4 20019 -0.1028 12.010000
20020 ha 16888 TPS HA4 20020 0.1262 1.008000
20021 ca 16888 TPS CA3 20021 -0.1548 12.010000
20022 ha 16888 TPS HA3 20022 0.1282 1.008000
20023 ha 16889 TPS HA2 20023 0.1332 1.008000
20024 ca 16889 TPS CA2 20024 -0.0753 12.010000
20025 ca 16889 TPS CA1 20025 -0.361 12.010000
20026 si 16889 TPS Si 20026 1.1 28.085000
20027 ca 16889 TPS CA6 20027 -0.0753 12.010000
20028 ha 16889 TPS HH6 20028 0.1332 1.008000
20029 ca 16889 TPS CA5 20029 -0.1548 12.010000
20030 ha 16889 TPS HA5 20030 0.1282 1.008000
20031 ca 16889 TPS CA4 20031 -0.1028 12.010000
20032 ha 16889 TPS HA4 20032 0.1262 1.008000
20033 ca 16889 TPS CA3 20033 -0.1548 12.010000
20034 ha 16889 TPS HA3 20034 0.1282 1.008000
20035 ha 16890 TPS HA2 20035 0.1332 1.008000
20036 ca 16890 TPS CA2 20036 -0.0753 12.010000
20037 ca 16890 TPS CA1 20037 -0.361 12.010000
20038 si 16890 TPS Si 20038 1.1 28.085000
20039 ca 16890 TPS CA6 20039 -0.0753 12.010000
20040 ha 16890 TPS HH6 20040 0.1332 1.008000
20041 ca 16890 TPS CA5 20041 -0.1548 12.010000
20042 ha 16890 TPS HA5 20042 0.1282 1.008000
20043 ca 16890 TPS CA4 20043 -0.1028 12.010000
20044 ha 16890 TPS HA4 20044 0.1262 1.008000
20045 ca 16890 TPS CA3 20045 -0.1548 12.010000
20046 ha 16890 TPS HA3 20046 0.1282 1.008000
20047 ha 16891 TPS HA2 20047 0.1332 1.008000
20048 ca 16891 TPS CA2 20048 -0.0753 12.010000
20049 ca 16891 TPS CA1 20049 -0.361 12.010000
20050 si 16891 TPS Si 20050 1.1 28.085000
20051 ca 16891 TPS CA6 20051 -0.0753 12.010000
20052 ha 16891 TPS HH6 20052 0.1332 1.008000
20053 ca 16891 TPS CA5 20053 -0.1548 12.010000
20054 ha 16891 TPS HA5 20054 0.1282 1.008000
20055 ca 16891 TPS CA4 20055 -0.1028 12.010000
20056 ha 16891 TPS HA4 20056 0.1262 1.008000
20057 ca 16891 TPS CA3 20057 -0.1548 12.010000
20058 ha 16891 TPS HA3 20058 0.1282 1.008000
20059 ha 16892 TPS HA2 20059 0.1332 1.008000
20060 ca 16892 TPS CA2 20060 -0.0753 12.010000
20061 ca 16892 TPS CA1 20061 -0.361 12.010000
20062 si 16892 TPS Si 20062 1.1 28.085000
20063 ca 16892 TPS CA6 20063 -0.0753 12.010000
20064 ha 16892 TPS HH6 20064 0.1332 1.008000
20065 ca 16892 TPS CA5 20065 -0.1548 12.010000
20066 ha 16892 TPS HA5 20066 0.1282 1.008000
20067 ca 16892 TPS CA4 20067 -0.1028 12.010000
20068 ha 16892 TPS HA4 20068 0.1262 1.008000
20069 ca 16892 TPS CA3 20069 -0.1548 12.010000
20070 ha 16892 TPS HA3 20070 0.1282 1.008000
20071 ha 16893 TPS HA2 20071 0.1332 1.008000
20072 ca 16893 TPS CA2 20072 -0.0753 12.010000
20073 ca 16893 TPS CA1 20073 -0.361 12.010000
20074 si 16893 TPS Si 20074 1.1 28.085000
20075 ca 16893 TPS CA6 20075 -0.0753 12.010000
20076 ha 16893 TPS HH6 20076 0.1332 1.008000
20077 ca 16893 TPS CA5 20077 -0.1548 12.010000
20078 ha 16893 TPS HA5 20078 0.1282 1.008000
20079 ca 16893 TPS CA4 20079 -0.1028 12.010000
20080 ha 16893 TPS HA4 20080 0.1262 1.008000
20081 ca 16893 TPS CA3 20081 -0.1548 12.010000
20082 ha 16893 TPS HA3 20082 0.1282 1.008000
20083 ha 16894 TPS HA2 20083 0.1332 1.008000
20084 ca 16894 TPS CA2 20084 -0.0753 12.010000
20085 ca 16894 TPS CA1 20085 -0.361 12.010000
20086 si 16894 TPS Si 20086 1.1 28.085000
20087 ca 16894 TPS CA6 20087 -0.0753 12.010000
20088 ha 16894 TPS HH6 20088 0.1332 1.008000
20089 ca 16894 TPS CA5 20089 -0.1548 12.010000
20090 ha 16894 TPS HA5 20090 0.1282 1.008000
20091 ca 16894 TPS CA4 20091 -0.1028 12.010000
20092 ha 16894 TPS HA4 20092 0.1262 1.008000
20093 ca 16894 TPS CA3 20093 -0.1548 12.010000
20094 ha 16894 TPS HA3 20094 0.1282 1.008000
20095 ha 16895 TPS HA2 20095 0.1332 1.008000
20096 ca 16895 TPS CA2 20096 -0.0753 12.010000
20097 ca 16895 TPS CA1 20097 -0.361 12.010000
20098 si 16895 TPS Si 20098 1.1 28.085000
20099 ca 16895 TPS CA6 20099 -0.0753 12.010000
20100 ha 16895 TPS HH6 20100 0.1332 1.008000
20101 ca 16895 TPS CA5 20101 -0.1548 12.010000
20102 ha 16895 TPS HA5 20102 0.1282 1.008000
20103 ca 16895 TPS CA4 20103 -0.1028 12.010000
20104 ha 16895 TPS HA4 20104 0.1262 1.008000
20105 ca 16895 TPS CA3 20105 -0.1548 12.010000
20106 ha 16895 TPS HA3 20106 0.1282 1.008000
20107 ha 16896 TPS HA2 20107 0.1332 1.008000
20108 ca 16896 TPS CA2 20108 -0.0753 12.010000
20109 ca 16896 TPS CA1 20109 -0.361 12.010000
20110 si 16896 TPS Si 20110 1.1 28.085000
20111 ca 16896 TPS CA6 20111 -0.0753 12.010000
20112 ha 16896 TPS HH6 20112 0.1332 1.008000
20113 ca 16896 TPS CA5 20113 -0.1548 12.010000
20114 ha 16896 TPS HA5 20114 0.1282 1.008000
20115 ca 16896 TPS CA4 20115 -0.1028 12.010000
20116 ha 16896 TPS HA4 20116 0.1262 1.008000
20117 ca 16896 TPS CA3 20117 -0.1548 12.010000
20118 ha 16896 TPS HA3 20118 0.1282 1.008000
20119 ha 16897 TPS HA2 20119 0.1332 1.008000
20120 ca 16897 TPS CA2 20120 -0.0753 12.010000
20121 ca 16897 TPS CA1 20121 -0.361 12.010000
20122 si 16897 TPS Si 20122 1.1 28.085000
20123 ca 16897 TPS CA6 20123 -0.0753 12.010000
20124 ha 16897 TPS HH6 20124 0.1332 1.008000
20125 ca 16897 TPS CA5 20125 -0.1548 12.010000
20126 ha 16897 TPS HA5 20126 0.1282 1.008000
20127 ca 16897 TPS CA4 20127 -0.1028 12.010000
20128 ha 16897 TPS HA4 20128 0.1262 1.008000
20129 ca 16897 TPS CA3 20129 -0.1548 12.010000
20130 ha 16897 TPS HA3 20130 0.1282 1.008000
20131 ha 16898 TPS HA2 20131 0.1332 1.008000
20132 ca 16898 TPS CA2 20132 -0.0753 12.010000
20133 ca 16898 TPS CA1 20133 -0.361 12.010000
20134 si 16898 TPS Si 20134 1.1 28.085000
20135 ca 16898 TPS CA6 20135 -0.0753 12.010000
20136 ha 16898 TPS HH6 20136 0.1332 1.008000
20137 ca 16898 TPS CA5 20137 -0.1548 12.010000
20138 ha 16898 TPS HA5 20138 0.1282 1.008000
20139 ca 16898 TPS CA4 20139 -0.1028 12.010000
20140 ha 16898 TPS HA4 20140 0.1262 1.008000
20141 ca 16898 TPS CA3 20141 -0.1548 12.010000
20142 ha 16898 TPS HA3 20142 0.1282 1.008000
20143 ha 16899 TPS HA2 20143 0.1332 1.008000
20144 ca 16899 TPS CA2 20144 -0.0753 12.010000
20145 ca 16899 TPS CA1 20145 -0.361 12.010000
20146 si 16899 TPS Si 20146 1.1 28.085000
20147 ca 16899 TPS CA6 20147 -0.0753 12.010000
20148 ha 16899 TPS HH6 20148 0.1332 1.008000
20149 ca 16899 TPS CA5 20149 -0.1548 12.010000
20150 ha 16899 TPS HA5 20150 0.1282 1.008000
20151 ca 16899 TPS CA4 20151 -0.1028 12.010000
20152 ha 16899 TPS HA4 20152 0.1262 1.008000
20153 ca 16899 TPS CA3 20153 -0.1548 12.010000
20154 ha 16899 TPS HA3 20154 0.1282 1.008000
20155 ha 16900 TPS HA2 20155 0.1332 1.008000
20156 ca 16900 TPS CA2 20156 -0.0753 12.010000
20157 ca 16900 TPS CA1 20157 -0.361 12.010000
20158 si 16900 TPS Si 20158 1.1 28.085000
20159 ca 16900 TPS CA6 20159 -0.0753 12.010000
20160 ha 16900 TPS HH6 20160 0.1332 1.008000
20161 ca 16900 TPS CA5 20161 -0.1548 12.010000
20162 ha 16900 TPS HA5 20162 0.1282 1.008000
20163 ca 16900 TPS CA4 20163 -0.1028 12.010000
20164 ha 16900 TPS HA4 20164 0.1262 1.008000
20165 ca 16900 TPS CA3 20165 -0.1548 12.010000
20166 ha 16900 TPS HA3 20166 0.1282 1.008000
20167 ha 16901 TPS HA2 20167 0.1332 1.008000
20168 ca 16901 TPS CA2 20168 -0.0753 12.010000
20169 ca 16901 TPS CA1 20169 -0.361 12.010000
20170 si 16901 TPS Si 20170 1.1 28.085000
20171 ca 16901 TPS CA6 20171 -0.0753 12.010000
20172 ha 16901 TPS HH6 20172 0.1332 1.008000
20173 ca 16901 TPS CA5 20173 -0.1548 12.010000
20174 ha 16901 TPS HA5 20174 0.1282 1.008000
20175 ca 16901 TPS CA4 20175 -0.1028 12.010000
20176 ha 16901 TPS HA4 20176 0.1262 1.008000
20177 ca 16901 TPS CA3 20177 -0.1548 12.010000
20178 ha 16901 TPS HA3 20178 0.1282 1.008000
20179 ha 16902 TPS HA2 20179 0.1332 1.008000
20180 ca 16902 TPS CA2 20180 -0.0753 12.010000
20181 ca 16902 TPS CA1 20181 -0.361 12.010000
20182 si 16902 TPS Si 20182 1.1 28.085000
20183 ca 16902 TPS CA6 20183 -0.0753 12.010000
20184 ha 16902 TPS HH6 20184 0.1332 1.008000
20185 ca 16902 TPS CA5 20185 -0.1548 12.010000
20186 ha 16902 TPS HA5 20186 0.1282 1.008000
20187 ca 16902 TPS CA4 20187 -0.1028 12.010000
20188 ha 16902 TPS HA4 20188 0.1262 1.008000
20189 ca 16902 TPS CA3 20189 -0.1548 12.010000
20190 ha 16902 TPS HA3 20190 0.1282 1.008000
20191 ha 16903 TPS HA2 20191 0.1332 1.008000
20192 ca 16903 TPS CA2 20192 -0.0753 12.010000
20193 ca 16903 TPS CA1 20193 -0.361 12.010000
20194 si 16903 TPS Si 20194 1.1 28.085000
20195 ca 16903 TPS CA6 20195 -0.0753 12.010000
20196 ha 16903 TPS HH6 20196 0.1332 1.008000
20197 ca 16903 TPS CA5 20197 -0.1548 12.010000
20198 ha 16903 TPS HA5 20198 0.1282 1.008000
20199 ca 16903 TPS CA4 20199 -0.1028 12.010000
20200 ha 16903 TPS HA4 20200 0.1262 1.008000
20201 ca 16903 TPS CA3 20201 -0.1548 12.010000
20202 ha 16903 TPS HA3 20202 0.1282 1.008000
20203 ha 16904 TPS HA2 20203 0.1332 1.008000
20204 ca 16904 TPS CA2 20204 -0.0753 12.010000
20205 ca 16904 TPS CA1 20205 -0.361 12.010000
20206 si 16904 TPS Si 20206 1.1 28.085000
20207 ca 16904 TPS CA6 20207 -0.0753 12.010000
20208 ha 16904 TPS HH6 20208 0.1332 1.008000
20209 ca 16904 TPS CA5 20209 -0.1548 12.010000
20210 ha 16904 TPS HA5 20210 0.1282 1.008000
20211 ca 16904 TPS CA4 20211 -0.1028 12.010000
20212 ha 16904 TPS HA4 20212 0.1262 1.008000
20213 ca 16904 TPS CA3 20213 -0.1548 12.010000
20214 ha 16904 TPS HA3 20214 0.1282 1.008000
20215 ha 16905 TPS HA2 20215 0.1332 1.008000
20216 ca 16905 TPS CA2 20216 -0.0753 12.010000
20217 ca 16905 TPS CA1 20217 -0.361 12.010000
20218 si 16905 TPS Si 20218 1.1 28.085000
20219 ca 16905 TPS CA6 20219 -0.0753 12.010000
20220 ha 16905 TPS HH6 20220 0.1332 1.008000
20221 ca 16905 TPS CA5 20221 -0.1548 12.010000
20222 ha 16905 TPS HA5 20222 0.1282 1.008000
20223 ca 16905 TPS CA4 20223 -0.1028 12.010000
20224 ha 16905 TPS HA4 20224 0.1262 1.008000
20225 ca 16905 TPS CA3 20225 -0.1548 12.010000
20226 ha 16905 TPS HA3 20226 0.1282 1.008000
20227 ha 16906 TPS HA2 20227 0.1332 1.008000
20228 ca 16906 TPS CA2 20228 -0.0753 12.010000
20229 ca 16906 TPS CA1 20229 -0.361 12.010000
20230 si 16906 TPS Si 20230 1.1 28.085000
20231 ca 16906 TPS CA6 20231 -0.0753 12.010000
20232 ha 16906 TPS HH6 20232 0.1332 1.008000
20233 ca 16906 TPS CA5 20233 -0.1548 12.010000
20234 ha 16906 TPS HA5 20234 0.1282 1.008000
20235 ca 16906 TPS CA4 20235 -0.1028 12.010000
20236 ha 16906 TPS HA4 20236 0.1262 1.008000
20237 ca 16906 TPS CA3 20237 -0.1548 12.010000
20238 ha 16906 TPS HA3 20238 0.1282 1.008000
20239 ha 16907 TPS HA2 20239 0.1332 1.008000
20240 ca 16907 TPS CA2 20240 -0.0753 12.010000
20241 ca 16907 TPS CA1 20241 -0.361 12.010000
20242 si 16907 TPS Si 20242 1.1 28.085000
20243 ca 16907 TPS CA6 20243 -0.0753 12.010000
20244 ha 16907 TPS HH6 20244 0.1332 1.008000
20245 ca 16907 TPS CA5 20245 -0.1548 12.010000
20246 ha 16907 TPS HA5 20246 0.1282 1.008000
20247 ca 16907 TPS CA4 20247 -0.1028 12.010000
20248 ha 16907 TPS HA4 20248 0.1262 1.008000
20249 ca 16907 TPS CA3 20249 -0.1548 12.010000
20250 ha 16907 TPS HA3 20250 0.1282 1.008000
20251 ha 16908 TPS HA2 20251 0.1332 1.008000
20252 ca 16908 TPS CA2 20252 -0.0753 12.010000
20253 ca 16908 TPS CA1 20253 -0.361 12.010000
20254 si 16908 TPS Si 20254 1.1 28.085000
20255 ca 16908 TPS CA6 20255 -0.0753 12.010000
20256 ha 16908 TPS HH6 20256 0.1332 1.008000
20257 ca 16908 TPS CA5 20257 -0.1548 12.010000
20258 ha 16908 TPS HA5 20258 0.1282 1.008000
20259 ca 16908 TPS CA4 20259 -0.1028 12.010000
20260 ha 16908 TPS HA4 20260 0.1262 1.008000
20261 ca 16908 TPS CA3 20261 -0.1548 12.010000
20262 ha 16908 TPS HA3 20262 0.1282 1.008000
20263 ha 16909 TPS HA2 20263 0.1332 1.008000
20264 ca 16909 TPS CA2 20264 -0.0753 12.010000
20265 ca 16909 TPS CA1 20265 -0.361 12.010000
20266 si 16909 TPS Si 20266 1.1 28.085000
20267 ca 16909 TPS CA6 20267 -0.0753 12.010000
20268 ha 16909 TPS HH6 20268 0.1332 1.008000
20269 ca 16909 TPS CA5 20269 -0.1548 12.010000
20270 ha 16909 TPS HA5 20270 0.1282 1.008000
20271 ca 16909 TPS CA4 20271 -0.1028 12.010000
20272 ha 16909 TPS HA4 20272 0.1262 1.008000
20273 ca 16909 TPS CA3 20273 -0.1548 12.010000
20274 ha 16909 TPS HA3 20274 0.1282 1.008000
20275 ha 16910 TPS HA2 20275 0.1332 1.008000
20276 ca 16910 TPS CA2 20276 -0.0753 12.010000
20277 ca 16910 TPS CA1 20277 -0.361 12.010000
20278 si 16910 TPS Si 20278 1.1 28.085000
20279 ca 16910 TPS CA6 20279 -0.0753 12.010000
20280 ha 16910 TPS HH6 20280 0.1332 1.008000
20281 ca 16910 TPS CA5 20281 -0.1548 12.010000
20282 ha 16910 TPS HA5 20282 0.1282 1.008000
20283 ca 16910 TPS CA4 20283 -0.1028 12.010000
20284 ha 16910 TPS HA4 20284 0.1262 1.008000
20285 ca 16910 TPS CA3 20285 -0.1548 12.010000
20286 ha 16910 TPS HA3 20286 0.1282 1.008000
20287 ha 16911 TPS HA2 20287 0.1332 1.008000
20288 ca 16911 TPS CA2 20288 -0.0753 12.010000
20289 ca 16911 TPS CA1 20289 -0.361 12.010000
20290 si 16911 TPS Si 20290 1.1 28.085000
20291 ca 16911 TPS CA6 20291 -0.0753 12.010000
20292 ha 16911 TPS HH6 20292 0.1332 1.008000
20293 ca 16911 TPS CA5 20293 -0.1548 12.010000
20294 ha 16911 TPS HA5 20294 0.1282 1.008000
20295 ca 16911 TPS CA4 20295 -0.1028 12.010000
20296 ha 16911 TPS HA4 20296 0.1262 1.008000
20297 ca 16911 TPS CA3 20297 -0.1548 12.010000
20298 ha 16911 TPS HA3 20298 0.1282 1.008000
20299 ha 16912 TPS HA2 20299 0.1332 1.008000
20300 ca 16912 TPS CA2 20300 -0.0753 12.010000
20301 ca 16912 TPS CA1 20301 -0.361 12.010000
20302 si 16912 TPS Si 20302 1.1 28.085000
20303 ca 16912 TPS CA6 20303 -0.0753 12.010000
20304 ha 16912 TPS HH6 20304 0.1332 1.008000
20305 ca 16912 TPS CA5 20305 -0.1548 12.010000
20306 ha 16912 TPS HA5 20306 0.1282 1.008000
20307 ca 16912 TPS CA4 20307 -0.1028 12.010000
20308 ha 16912 TPS HA4 20308 0.1262 1.008000
20309 ca 16912 TPS CA3 20309 -0.1548 12.010000
20310 ha 16912 TPS HA3 20310 0.1282 1.008000
20311 ha 16913 TPS HA2 20311 0.1332 1.008000
20312 ca 16913 TPS CA2 20312 -0.0753 12.010000
20313 ca 16913 TPS CA1 20313 -0.361 12.010000
20314 si 16913 TPS Si 20314 1.1 28.085000
20315 ca 16913 TPS CA6 20315 -0.0753 12.010000
20316 ha 16913 TPS HH6 20316 0.1332 1.008000
20317 ca 16913 TPS CA5 20317 -0.1548 12.010000
20318 ha 16913 TPS HA5 20318 0.1282 1.008000
20319 ca 16913 TPS CA4 20319 -0.1028 12.010000
20320 ha 16913 TPS HA4 20320 0.1262 1.008000
20321 ca 16913 TPS CA3 20321 -0.1548 12.010000
20322 ha 16913 TPS HA3 20322 0.1282 1.008000
20323 ha 16914 TPS HA2 20323 0.1332 1.008000
20324 ca 16914 TPS CA2 20324 -0.0753 12.010000
20325 ca 16914 TPS CA1 20325 -0.361 12.010000
20326 si 16914 TPS Si 20326 1.1 28.085000
20327 ca 16914 TPS CA6 20327 -0.0753 12.010000
20328 ha 16914 TPS HH6 20328 0.1332 1.008000
20329 ca 16914 TPS CA5 20329 -0.1548 12.010000
20330 ha 16914 TPS HA5 20330 0.1282 1.008000
20331 ca 16914 TPS CA4 20331 -0.1028 12.010000
20332 ha 16914 TPS HA4 20332 0.1262 1.008000
20333 ca 16914 TPS CA3 20333 -0.1548 12.010000
20334 ha 16914 TPS HA3 20334 0.1282 1.008000
20335 ha 16915 TPS HA2 20335 0.1332 1.008000
20336 ca 16915 TPS CA2 20336 -0.0753 12.010000
20337 ca 16915 TPS CA1 20337 -0.361 12.010000
20338 si 16915 TPS Si 20338 1.1 28.085000
20339 ca 16915 TPS CA6 20339 -0.0753 12.010000
20340 ha 16915 TPS HH6 20340 0.1332 1.008000
20341 ca 16915 TPS CA5 20341 -0.1548 12.010000
20342 ha 16915 TPS HA5 20342 0.1282 1.008000
20343 ca 16915 TPS CA4 20343 -0.1028 12.010000
20344 ha 16915 TPS HA4 20344 0.1262 1.008000
20345 ca 16915 TPS CA3 20345 -0.1548 12.010000
20346 ha 16915 TPS HA3 20346 0.1282 1.008000
20347 ha 16916 TPS HA2 20347 0.1332 1.008000
20348 ca 16916 TPS CA2 20348 -0.0753 12.010000
20349 ca 16916 TPS CA1 20349 -0.361 12.010000
20350 si 16916 TPS Si 20350 1.1 28.085000
20351 ca 16916 TPS CA6 20351 -0.0753 12.010000
20352 ha 16916 TPS HH6 20352 0.1332 1.008000
20353 ca 16916 TPS CA5 20353 -0.1548 12.010000
20354 ha 16916 TPS HA5 20354 0.1282 1.008000
20355 ca 16916 TPS CA4 20355 -0.1028 12.010000
20356 ha 16916 TPS HA4 20356 0.1262 1.008000
20357 ca 16916 TPS CA3 20357 -0.1548 12.010000
20358 ha 16916 TPS HA3 20358 0.1282 1.008000
20359 ha 16917 TPS HA2 20359 0.1332 1.008000
20360 ca 16917 TPS CA2 20360 -0.0753 12.010000
20361 ca 16917 TPS CA1 20361 -0.361 12.010000
20362 si 16917 TPS Si 20362 1.1 28.085000
20363 ca 16917 TPS CA6 20363 -0.0753 12.010000
20364 ha 16917 TPS HH6 20364 0.1332 1.008000
20365 ca 16917 TPS CA5 20365 -0.1548 12.010000
20366 ha 16917 TPS HA5 20366 0.1282 1.008000
20367 ca 16917 TPS CA4 20367 -0.1028 12.010000
20368 ha 16917 TPS HA4 20368 0.1262 1.008000
20369 ca 16917 TPS CA3 20369 -0.1548 12.010000
20370 ha 16917 TPS HA3 20370 0.1282 1.008000
20371 ha 16918 TPS HA2 20371 0.1332 1.008000
20372 ca 16918 TPS CA2 20372 -0.0753 12.010000
20373 ca 16918 TPS CA1 20373 -0.361 12.010000
20374 si 16918 TPS Si 20374 1.1 28.085000
20375 ca 16918 TPS CA6 20375 -0.0753 12.010000
20376 ha 16918 TPS HH6 20376 0.1332 1.008000
20377 ca 16918 TPS CA5 20377 -0.1548 12.010000
20378 ha 16918 TPS HA5 20378 0.1282 1.008000
20379 ca 16918 TPS CA4 20379 -0.1028 12.010000
20380 ha 16918 TPS HA4 20380 0.1262 1.008000
20381 ca 16918 TPS CA3 20381 -0.1548 12.010000
20382 ha 16918 TPS HA3 20382 0.1282 1.008000
20383 ha 16919 TPS HA2 20383 0.1332 1.008000
20384 ca 16919 TPS CA2 20384 -0.0753 12.010000
20385 ca 16919 TPS CA1 20385 -0.361 12.010000
20386 si 16919 TPS Si 20386 1.1 28.085000
20387 ca 16919 TPS CA6 20387 -0.0753 12.010000
20388 ha 16919 TPS HH6 20388 0.1332 1.008000
20389 ca 16919 TPS CA5 20389 -0.1548 12.010000
20390 ha 16919 TPS HA5 20390 0.1282 1.008000
20391 ca 16919 TPS CA4 20391 -0.1028 12.010000
20392 ha 16919 TPS HA4 20392 0.1262 1.008000
20393 ca 16919 TPS CA3 20393 -0.1548 12.010000
20394 ha 16919 TPS HA3 20394 0.1282 1.008000
20395 ha 16920 TPS HA2 20395 0.1332 1.008000
20396 ca 16920 TPS CA2 20396 -0.0753 12.010000
20397 ca 16920 TPS CA1 20397 -0.361 12.010000
20398 si 16920 TPS Si 20398 1.1 28.085000
20399 ca 16920 TPS CA6 20399 -0.0753 12.010000
20400 ha 16920 TPS HH6 20400 0.1332 1.008000
20401 ca 16920 TPS CA5 20401 -0.1548 12.010000
20402 ha 16920 TPS HA5 20402 0.1282 1.008000
20403 ca 16920 TPS CA4 20403 -0.1028 12.010000
20404 ha 16920 TPS HA4 20404 0.1262 1.008000
20405 ca 16920 TPS CA3 20405 -0.1548 12.010000
20406 ha 16920 TPS HA3 20406 0.1282 1.008000
20407 ha 16921 TPS HA2 20407 0.1332 1.008000
20408 ca 16921 TPS CA2 20408 -0.0753 12.010000
20409 ca 16921 TPS CA1 20409 -0.361 12.010000
20410 si 16921 TPS Si 20410 1.1 28.085000
20411 ca 16921 TPS CA6 20411 -0.0753 12.010000
20412 ha 16921 TPS HH6 20412 0.1332 1.008000
20413 ca 16921 TPS CA5 20413 -0.1548 12.010000
20414 ha 16921 TPS HA5 20414 0.1282 1.008000
20415 ca 16921 TPS CA4 20415 -0.1028 12.010000
20416 ha 16921 TPS HA4 20416 0.1262 1.008000
20417 ca 16921 TPS CA3 20417 -0.1548 12.010000
20418 ha 16921 TPS HA3 20418 0.1282 1.008000
20419 ha 16922 TPS HA2 20419 0.1332 1.008000
20420 ca 16922 TPS CA2 20420 -0.0753 12.010000
20421 ca 16922 TPS CA1 20421 -0.361 12.010000
20422 si 16922 TPS Si 20422 1.1 28.085000
20423 ca 16922 TPS CA6 20423 -0.0753 12.010000
20424 ha 16922 TPS HH6 20424 0.1332 1.008000
20425 ca 16922 TPS CA5 20425 -0.1548 12.010000
20426 ha 16922 TPS HA5 20426 0.1282 1.008000
20427 ca 16922 TPS CA4 20427 -0.1028 12.010000
20428 ha 16922 TPS HA4 20428 0.1262 1.008000
20429 ca 16922 TPS CA3 20429 -0.1548 12.010000
20430 ha 16922 TPS HA3 20430 0.1282 1.008000
20431 ha 16923 TPS HA2 20431 0.1332 1.008000
20432 ca 16923 TPS CA2 20432 -0.0753 12.010000
20433 ca 16923 TPS CA1 20433 -0.361 12.010000
20434 si 16923 TPS Si 20434 1.1 28.085000
20435 ca 16923 TPS CA6 20435 -0.0753 12.010000
20436 ha 16923 TPS HH6 20436 0.1332 1.008000
20437 ca 16923 TPS CA5 20437 -0.1548 12.010000
20438 ha 16923 TPS HA5 20438 0.1282 1.008000
20439 ca 16923 TPS CA4 20439 -0.1028 12.010000
20440 ha 16923 TPS HA4 20440 0.1262 1.008000
20441 ca 16923 TPS CA3 20441 -0.1548 12.010000
20442 ha 16923 TPS HA3 20442 0.1282 1.008000
20443 ha 16924 TPS HA2 20443 0.1332 1.008000
20444 ca 16924 TPS CA2 20444 -0.0753 12.010000
20445 ca 16924 TPS CA1 20445 -0.361 12.010000
20446 si 16924 TPS Si 20446 1.1 28.085000
20447 ca 16924 TPS CA6 20447 -0.0753 12.010000
20448 ha 16924 TPS HH6 20448 0.1332 1.008000
20449 ca 16924 TPS CA5 20449 -0.1548 12.010000
20450 ha 16924 TPS HA5 20450 0.1282 1.008000
20451 ca 16924 TPS CA4 20451 -0.1028 12.010000
20452 ha 16924 TPS HA4 20452 0.1262 1.008000
20453 ca 16924 TPS CA3 20453 -0.1548 12.010000
20454 ha 16924 TPS HA3 20454 0.1282 1.008000
20455 ha 16925 TPS HA2 20455 0.1332 1.008000
20456 ca 16925 TPS CA2 20456 -0.0753 12.010000
20457 ca 16925 TPS CA1 20457 -0.361 12.010000
20458 si 16925 TPS Si 20458 1.1 28.085000
20459 ca 16925 TPS CA6 20459 -0.0753 12.010000
20460 ha 16925 TPS HH6 20460 0.1332 1.008000
20461 ca 16925 TPS CA5 20461 -0.1548 12.010000
20462 ha 16925 TPS HA5 20462 0.1282 1.008000
20463 ca 16925 TPS CA4 20463 -0.1028 12.010000
20464 ha 16925 TPS HA4 20464 0.1262 1.008000
20465 ca 16925 TPS CA3 20465 -0.1548 12.010000
20466 ha 16925 TPS HA3 20466 0.1282 1.008000
20467 ha 16926 TPS HA2 20467 0.1332 1.008000
20468 ca 16926 TPS CA2 20468 -0.0753 12.010000
20469 ca 16926 TPS CA1 20469 -0.361 12.010000
20470 si 16926 TPS Si 20470 1.1 28.085000
20471 ca 16926 TPS CA6 20471 -0.0753 12.010000
20472 ha 16926 TPS HH6 20472 0.1332 1.008000
20473 ca 16926 TPS CA5 20473 -0.1548 12.010000
20474 ha 16926 TPS HA5 20474 0.1282 1.008000
20475 ca 16926 TPS CA4 20475 -0.1028 12.010000
20476 ha 16926 TPS HA4 20476 0.1262 1.008000
20477 ca 16926 TPS CA3 20477 -0.1548 12.010000
20478 ha 16926 TPS HA3 20478 0.1282 1.008000
20479 ha 16927 TPS HA2 20479 0.1332 1.008000
20480 ca 16927 TPS CA2 20480 -0.0753 12.010000
20481 ca 16927 TPS CA1 20481 -0.361 12.010000
20482 si 16927 TPS Si 20482 1.1 28.085000
20483 ca 16927 TPS CA6 20483 -0.0753 12.010000
20484 ha 16927 TPS HH6 20484 0.1332 1.008000
20485 ca 16927 TPS CA5 20485 -0.1548 12.010000
20486 ha 16927 TPS HA5 20486 0.1282 1.008000
20487 ca 16927 TPS CA4 20487 -0.1028 12.010000
20488 ha 16927 TPS HA4 20488 0.1262 1.008000
20489 ca 16927 TPS CA3 20489 -0.1548 12.010000
20490 ha 16927 TPS HA3 20490 0.1282 1.008000
20491 ha 16928 TPS HA2 20491 0.1332 1.008000
20492 ca 16928 TPS CA2 20492 -0.0753 12.010000
20493 ca 16928 TPS CA1 20493 -0.361 12.010000
20494 si 16928 TPS Si 20494 1.1 28.085000
20495 ca 16928 TPS CA6 20495 -0.0753 12.010000
20496 ha 16928 TPS HH6 20496 0.1332 1.008000
20497 ca 16928 TPS CA5 20497 -0.1548 12.010000
20498 ha 16928 TPS HA5 20498 0.1282 1.008000
20499 ca 16928 TPS CA4 20499 -0.1028 12.010000
20500 ha 16928 TPS HA4 20500 0.1262 1.008000
20501 ca 16928 TPS CA3 20501 -0.1548 12.010000
20502 ha 16928 TPS HA3 20502 0.1282 1.008000
20503 ha 16929 TPS HA2 20503 0.1332 1.008000
20504 ca 16929 TPS CA2 20504 -0.0753 12.010000
20505 ca 16929 TPS CA1 20505 -0.361 12.010000
20506 si 16929 TPS Si 20506 1.1 28.085000
20507 ca 16929 TPS CA6 20507 -0.0753 12.010000
20508 ha 16929 TPS HH6 20508 0.1332 1.008000
20509 ca 16929 TPS CA5 20509 -0.1548 12.010000
20510 ha 16929 TPS HA5 20510 0.1282 1.008000
20511 ca 16929 TPS CA4 20511 -0.1028 12.010000
20512 ha 16929 TPS HA4 20512 0.1262 1.008000
20513 ca 16929 TPS CA3 20513 -0.1548 12.010000
20514 ha 16929 TPS HA3 20514 0.1282 1.008000
20515 ha 16930 TPS HA2 20515 0.1332 1.008000
20516 ca 16930 TPS CA2 20516 -0.0753 12.010000
20517 ca 16930 TPS CA1 20517 -0.361 12.010000
20518 si 16930 TPS Si 20518 1.1 28.085000
20519 ca 16930 TPS CA6 20519 -0.0753 12.010000
20520 ha 16930 TPS HH6 20520 0.1332 1.008000
20521 ca 16930 TPS CA5 20521 -0.1548 12.010000
20522 ha 16930 TPS HA5 20522 0.1282 1.008000
20523 ca 16930 TPS CA4 20523 -0.1028 12.010000
20524 ha 16930 TPS HA4 20524 0.1262 1.008000
20525 ca 16930 TPS CA3 20525 -0.1548 12.010000
20526 ha 16930 TPS HA3 20526 0.1282 1.008000
20527 ha 16931 TPS HA2 20527 0.1332 1.008000
20528 ca 16931 TPS CA2 20528 -0.0753 12.010000
20529 ca 16931 TPS CA1 20529 -0.361 12.010000
20530 si 16931 TPS Si 20530 1.1 28.085000
20531 ca 16931 TPS CA6 20531 -0.0753 12.010000
20532 ha 16931 TPS HH6 20532 0.1332 1.008000
20533 ca 16931 TPS CA5 20533 -0.1548 12.010000
20534 ha 16931 TPS HA5 20534 0.1282 1.008000
20535 ca 16931 TPS CA4 20535 -0.1028 12.010000
20536 ha 16931 TPS HA4 20536 0.1262 1.008000
20537 ca 16931 TPS CA3 20537 -0.1548 12.010000
20538 ha 16931 TPS HA3 20538 0.1282 1.008000
20539 ha 16932 TPS HA2 20539 0.1332 1.008000
20540 ca 16932 TPS CA2 20540 -0.0753 12.010000
20541 ca 16932 TPS CA1 20541 -0.361 12.010000
20542 si 16932 TPS Si 20542 1.1 28.085000
20543 ca 16932 TPS CA6 20543 -0.0753 12.010000
20544 ha 16932 TPS HH6 20544 0.1332 1.008000
20545 ca 16932 TPS CA5 20545 -0.1548 12.010000
20546 ha 16932 TPS HA5 20546 0.1282 1.008000
20547 ca 16932 TPS CA4 20547 -0.1028 12.010000
20548 ha 16932 TPS HA4 20548 0.1262 1.008000
20549 ca 16932 TPS CA3 20549 -0.1548 12.010000
20550 ha 16932 TPS HA3 20550 0.1282 1.008000
20551 ha 16933 TPS HA2 20551 0.1332 1.008000
20552 ca 16933 TPS CA2 20552 -0.0753 12.010000
20553 ca 16933 TPS CA1 20553 -0.361 12.010000
20554 si 16933 TPS Si 20554 1.1 28.085000
20555 ca 16933 TPS CA6 20555 -0.0753 12.010000
20556 ha 16933 TPS HH6 20556 0.1332 1.008000
20557 ca 16933 TPS CA5 20557 -0.1548 12.010000
20558 ha 16933 TPS HA5 20558 0.1282 1.008000
20559 ca 16933 TPS CA4 20559 -0.1028 12.010000
20560 ha 16933 TPS HA4 20560 0.1262 1.008000
20561 ca 16933 TPS CA3 20561 -0.1548 12.010000
20562 ha 16933 TPS HA3 20562 0.1282 1.008000
20563 ha 16934 TPS HA2 20563 0.1332 1.008000
20564 ca 16934 TPS CA2 20564 -0.0753 12.010000
20565 ca 16934 TPS CA1 20565 -0.361 12.010000
20566 si 16934 TPS Si 20566 1.1 28.085000
20567 ca 16934 TPS CA6 20567 -0.0753 12.010000
20568 ha 16934 TPS HH6 20568 0.1332 1.008000
20569 ca 16934 TPS CA5 20569 -0.1548 12.010000
20570 ha 16934 TPS HA5 20570 0.1282 1.008000
20571 ca 16934 TPS CA4 20571 -0.1028 12.010000
20572 ha 16934 TPS HA4 20572 0.1262 1.008000
20573 ca 16934 TPS CA3 20573 -0.1548 12.010000
20574 ha 16934 TPS HA3 20574 0.1282 1.008000
20575 ha 16935 TPS HA2 20575 0.1332 1.008000
20576 ca 16935 TPS CA2 20576 -0.0753 12.010000
20577 ca 16935 TPS CA1 20577 -0.361 12.010000
20578 si 16935 TPS Si 20578 1.1 28.085000
20579 ca 16935 TPS CA6 20579 -0.0753 12.010000
20580 ha 16935 TPS HH6 20580 0.1332 1.008000
20581 ca 16935 TPS CA5 20581 -0.1548 12.010000
20582 ha 16935 TPS HA5 20582 0.1282 1.008000
20583 ca 16935 TPS CA4 20583 -0.1028 12.010000
20584 ha 16935 TPS HA4 20584 0.1262 1.008000
20585 ca 16935 TPS CA3 20585 -0.1548 12.010000
20586 ha 16935 TPS HA3 20586 0.1282 1.008000
20587 ha 16936 TPS HA2 20587 0.1332 1.008000
20588 ca 16936 TPS CA2 20588 -0.0753 12.010000
20589 ca 16936 TPS CA1 20589 -0.361 12.010000
20590 si 16936 TPS Si 20590 1.1 28.085000
20591 ca 16936 TPS CA6 20591 -0.0753 12.010000
20592 ha 16936 TPS HH6 20592 0.1332 1.008000
20593 ca 16936 TPS CA5 20593 -0.1548 12.010000
20594 ha 16936 TPS HA5 20594 0.1282 1.008000
20595 ca 16936 TPS CA4 20595 -0.1028 12.010000
20596 ha 16936 TPS HA4 20596 0.1262 1.008000
20597 ca 16936 TPS CA3 20597 -0.1548 12.010000
20598 ha 16936 TPS HA3 20598 0.1282 1.008000
20599 ha 16937 TPS HA2 20599 0.1332 1.008000
20600 ca 16937 TPS CA2 20600 -0.0753 12.010000
20601 ca 16937 TPS CA1 20601 -0.361 12.010000
20602 si 16937 TPS Si 20602 1.1 28.085000
20603 ca 16937 TPS CA6 20603 -0.0753 12.010000
20604 ha 16937 TPS HH6 20604 0.1332 1.008000
20605 ca 16937 TPS CA5 20605 -0.1548 12.010000
20606 ha 16937 TPS HA5 20606 0.1282 1.008000
20607 ca 16937 TPS CA4 20607 -0.1028 12.010000
20608 ha 16937 TPS HA4 20608 0.1262 1.008000
20609 ca 16937 TPS CA3 20609 -0.1548 12.010000
20610 ha 16937 TPS HA3 20610 0.1282 1.008000
20611 ha 16938 TPS HA2 20611 0.1332 1.008000
20612 ca 16938 TPS CA2 20612 -0.0753 12.010000
20613 ca 16938 TPS CA1 20613 -0.361 12.010000
20614 si 16938 TPS Si 20614 1.1 28.085000
20615 ca 16938 TPS CA6 20615 -0.0753 12.010000
20616 ha 16938 TPS HH6 20616 0.1332 1.008000
20617 ca 16938 TPS CA5 20617 -0.1548 12.010000
20618 ha 16938 TPS HA5 20618 0.1282 1.008000
20619 ca 16938 TPS CA4 20619 -0.1028 12.010000
20620 ha 16938 TPS HA4 20620 0.1262 1.008000
20621 ca 16938 TPS CA3 20621 -0.1548 12.010000
20622 ha 16938 TPS HA3 20622 0.1282 1.008000
20623 ha 16939 TPS HA2 20623 0.1332 1.008000
20624 ca 16939 TPS CA2 20624 -0.0753 12.010000
20625 ca 16939 TPS CA1 20625 -0.361 12.010000
20626 si 16939 TPS Si 20626 1.1 28.085000
20627 ca 16939 TPS CA6 20627 -0.0753 12.010000
20628 ha 16939 TPS HH6 20628 0.1332 1.008000
20629 ca 16939 TPS CA5 20629 -0.1548 12.010000
20630 ha 16939 TPS HA5 20630 0.1282 1.008000
20631 ca 16939 TPS CA4 20631 -0.1028 12.010000
20632 ha 16939 TPS HA4 20632 0.1262 1.008000
20633 ca 16939 TPS CA3 20633 -0.1548 12.010000
20634 ha 16939 TPS HA3 20634 0.1282 1.008000
20635 ha 16940 TPS HA2 20635 0.1332 1.008000
20636 ca 16940 TPS CA2 20636 -0.0753 12.010000
20637 ca 16940 TPS CA1 20637 -0.361 12.010000
20638 si 16940 TPS Si 20638 1.1 28.085000
20639 ca 16940 TPS CA6 20639 -0.0753 12.010000
20640 ha 16940 TPS HH6 20640 0.1332 1.008000
20641 ca 16940 TPS CA5 20641 -0.1548 12.010000
20642 ha 16940 TPS HA5 20642 0.1282 1.008000
20643 ca 16940 TPS CA4 20643 -0.1028 12.010000
20644 ha 16940 TPS HA4 20644 0.1262 1.008000
20645 ca 16940 TPS CA3 20645 -0.1548 12.010000
20646 ha 16940 TPS HA3 20646 0.1282 1.008000
20647 ha 16941 TPS HA2 20647 0.1332 1.008000
20648 ca 16941 TPS CA2 20648 -0.0753 12.010000
20649 ca 16941 TPS CA1 20649 -0.361 12.010000
20650 si 16941 TPS Si 20650 1.1 28.085000
20651 ca 16941 TPS CA6 20651 -0.0753 12.010000
20652 ha 16941 TPS HH6 20652 0.1332 1.008000
20653 ca 16941 TPS CA5 20653 -0.1548 12.010000
20654 ha 16941 TPS HA5 20654 0.1282 1.008000
20655 ca 16941 TPS CA4 20655 -0.1028 12.010000
20656 ha 16941 TPS HA4 20656 0.1262 1.008000
20657 ca 16941 TPS CA3 20657 -0.1548 12.010000
20658 ha 16941 TPS HA3 20658 0.1282 1.008000
20659 ha 16942 TPS HA2 20659 0.1332 1.008000
20660 ca 16942 TPS CA2 20660 -0.0753 12.010000
20661 ca 16942 TPS CA1 20661 -0.361 12.010000
20662 si 16942 TPS Si 20662 1.1 28.085000
20663 ca 16942 TPS CA6 20663 -0.0753 12.010000
20664 ha 16942 TPS HH6 20664 0.1332 1.008000
20665 ca 16942 TPS CA5 20665 -0.1548 12.010000
20666 ha 16942 TPS HA5 20666 0.1282 1.008000
20667 ca 16942 TPS CA4 20667 -0.1028 12.010000
20668 ha 16942 TPS HA4 20668 0.1262 1.008000
20669 ca 16942 TPS CA3 20669 -0.1548 12.010000
20670 ha 16942 TPS HA3 20670 0.1282 1.008000
20671 ha 16943 TPS HA2 20671 0.1332 1.008000
20672 ca 16943 TPS CA2 20672 -0.0753 12.010000
20673 ca 16943 TPS CA1 20673 -0.361 12.010000
20674 si 16943 TPS Si 20674 1.1 28.085000
20675 ca 16943 TPS CA6 20675 -0.0753 12.010000
20676 ha 16943 TPS HH6 20676 0.1332 1.008000
20677 ca 16943 TPS CA5 20677 -0.1548 12.010000
20678 ha 16943 TPS HA5 20678 0.1282 1.008000
20679 ca 16943 TPS CA4 20679 -0.1028 12.010000
20680 ha 16943 TPS HA4 20680 0.1262 1.008000
20681 ca 16943 TPS CA3 20681 -0.1548 12.010000
20682 ha 16943 TPS HA3 20682 0.1282 1.008000
20683 ha 16944 TPS HA2 20683 0.1332 1.008000
20684 ca 16944 TPS CA2 20684 -0.0753 12.010000
20685 ca 16944 TPS CA1 20685 -0.361 12.010000
20686 si 16944 TPS Si 20686 1.1 28.085000
20687 ca 16944 TPS CA6 20687 -0.0753 12.010000
20688 ha 16944 TPS HH6 20688 0.1332 1.008000
20689 ca 16944 TPS CA5 20689 -0.1548 12.010000
20690 ha 16944 TPS HA5 20690 0.1282 1.008000
20691 ca 16944 TPS CA4 20691 -0.1028 12.010000
20692 ha 16944 TPS HA4 20692 0.1262 1.008000
20693 ca 16944 TPS CA3 20693 -0.1548 12.010000
20694 ha 16944 TPS HA3 20694 0.1282 1.008000
20695 ha 16945 TPS HA2 20695 0.1332 1.008000
20696 ca 16945 TPS CA2 20696 -0.0753 12.010000
20697 ca 16945 TPS CA1 20697 -0.361 12.010000
20698 si 16945 TPS Si 20698 1.1 28.085000
20699 ca 16945 TPS CA6 20699 -0.0753 12.010000
20700 ha 16945 TPS HH6 20700 0.1332 1.008000
20701 ca 16945 TPS CA5 20701 -0.1548 12.010000
20702 ha 16945 TPS HA5 20702 0.1282 1.008000
20703 ca 16945 TPS CA4 20703 -0.1028 12.010000
20704 ha 16945 TPS HA4 20704 0.1262 1.008000
20705 ca 16945 TPS CA3 20705 -0.1548 12.010000
20706 ha 16945 TPS HA3 20706 0.1282 1.008000
20707 ha 16946 TPS HA2 20707 0.1332 1.008000
20708 ca 16946 TPS CA2 20708 -0.0753 12.010000
20709 ca 16946 TPS CA1 20709 -0.361 12.010000
20710 si 16946 TPS Si 20710 1.1 28.085000
20711 ca 16946 TPS CA6 20711 -0.0753 12.010000
20712 ha 16946 TPS HH6 20712 0.1332 1.008000
20713 ca 16946 TPS CA5 20713 -0.1548 12.010000
20714 ha 16946 TPS HA5 20714 0.1282 1.008000
20715 ca 16946 TPS CA4 20715 -0.1028 12.010000
20716 ha 16946 TPS HA4 20716 0.1262 1.008000
20717 ca 16946 TPS CA3 20717 -0.1548 12.010000
20718 ha 16946 TPS HA3 20718 0.1282 1.008000
20719 ha 16947 TPS HA2 20719 0.1332 1.008000
20720 ca 16947 TPS CA2 20720 -0.0753 12.010000
20721 ca 16947 TPS CA1 20721 -0.361 12.010000
20722 si 16947 TPS Si 20722 1.1 28.085000
20723 ca 16947 TPS CA6 20723 -0.0753 12.010000
20724 ha 16947 TPS HH6 20724 0.1332 1.008000
20725 ca 16947 TPS CA5 20725 -0.1548 12.010000
20726 ha 16947 TPS HA5 20726 0.1282 1.008000
20727 ca 16947 TPS CA4 20727 -0.1028 12.010000
20728 ha 16947 TPS HA4 20728 0.1262 1.008000
20729 ca 16947 TPS CA3 20729 -0.1548 12.010000
20730 ha 16947 TPS HA3 20730 0.1282 1.008000
20731 ha 16948 TPS HA2 20731 0.1332 1.008000
20732 ca 16948 TPS CA2 20732 -0.0753 12.010000
20733 ca 16948 TPS CA1 20733 -0.361 12.010000
20734 si 16948 TPS Si 20734 1.1 28.085000
20735 ca 16948 TPS CA6 20735 -0.0753 12.010000
20736 ha 16948 TPS HH6 20736 0.1332 1.008000
20737 ca 16948 TPS CA5 20737 -0.1548 12.010000
20738 ha 16948 TPS HA5 20738 0.1282 1.008000
20739 ca 16948 TPS CA4 20739 -0.1028 12.010000
20740 ha 16948 TPS HA4 20740 0.1262 1.008000
20741 ca 16948 TPS CA3 20741 -0.1548 12.010000
20742 ha 16948 TPS HA3 20742 0.1282 1.008000
20743 ha 16949 TPS HA2 20743 0.1332 1.008000
20744 ca 16949 TPS CA2 20744 -0.0753 12.010000
20745 ca 16949 TPS CA1 20745 -0.361 12.010000
20746 si 16949 TPS Si 20746 1.1 28.085000
20747 ca 16949 TPS CA6 20747 -0.0753 12.010000
20748 ha 16949 TPS HH6 20748 0.1332 1.008000
20749 ca 16949 TPS CA5 20749 -0.1548 12.010000
20750 ha 16949 TPS HA5 20750 0.1282 1.008000
20751 ca 16949 TPS CA4 20751 -0.1028 12.010000
20752 ha 16949 TPS HA4 20752 0.1262 1.008000
20753 ca 16949 TPS CA3 20753 -0.1548 12.010000
20754 ha 16949 TPS HA3 20754 0.1282 1.008000
20755 ha 16950 TPS HA2 20755 0.1332 1.008000
20756 ca 16950 TPS CA2 20756 -0.0753 12.010000
20757 ca 16950 TPS CA1 20757 -0.361 12.010000
20758 si 16950 TPS Si 20758 1.1 28.085000
20759 ca 16950 TPS CA6 20759 -0.0753 12.010000
20760 ha 16950 TPS HH6 20760 0.1332 1.008000
20761 ca 16950 TPS CA5 20761 -0.1548 12.010000
20762 ha 16950 TPS HA5 20762 0.1282 1.008000
20763 ca 16950 TPS CA4 20763 -0.1028 12.010000
20764 ha 16950 TPS HA4 20764 0.1262 1.008000
20765 ca 16950 TPS CA3 20765 -0.1548 12.010000
20766 ha 16950 TPS HA3 20766 0.1282 1.008000
20767 ha 16951 TPS HA2 20767 0.1332 1.008000
20768 ca 16951 TPS CA2 20768 -0.0753 12.010000
20769 ca 16951 TPS CA1 20769 -0.361 12.010000
20770 si 16951 TPS Si 20770 1.1 28.085000
20771 ca 16951 TPS CA6 20771 -0.0753 12.010000
20772 ha 16951 TPS HH6 20772 0.1332 1.008000
20773 ca 16951 TPS CA5 20773 -0.1548 12.010000
20774 ha 16951 TPS HA5 20774 0.1282 1.008000
20775 ca 16951 TPS CA4 20775 -0.1028 12.010000
20776 ha 16951 TPS HA4 20776 0.1262 1.008000
20777 ca 16951 TPS CA3 20777 -0.1548 12.010000
20778 ha 16951 TPS HA3 20778 0.1282 1.008000
20779 ha 16952 TPS HA2 20779 0.1332 1.008000
20780 ca 16952 TPS CA2 20780 -0.0753 12.010000
20781 ca 16952 TPS CA1 20781 -0.361 12.010000
20782 si 16952 TPS Si 20782 1.1 28.085000
20783 ca 16952 TPS CA6 20783 -0.0753 12.010000
20784 ha 16952 TPS HH6 20784 0.1332 1.008000
20785 ca 16952 TPS CA5 20785 -0.1548 12.010000
20786 ha 16952 TPS HA5 20786 0.1282 1.008000
20787 ca 16952 TPS CA4 20787 -0.1028 12.010000
20788 ha 16952 TPS HA4 20788 0.1262 1.008000
20789 ca 16952 TPS CA3 20789 -0.1548 12.010000
20790 ha 16952 TPS HA3 20790 0.1282 1.008000
20791 ha 16953 TPS HA2 20791 0.1332 1.008000
20792 ca 16953 TPS CA2 20792 -0.0753 12.010000
20793 ca 16953 TPS CA1 20793 -0.361 12.010000
20794 si 16953 TPS Si 20794 1.1 28.085000
20795 ca 16953 TPS CA6 20795 -0.0753 12.010000
20796 ha 16953 TPS HH6 20796 0.1332 1.008000
20797 ca 16953 TPS CA5 20797 -0.1548 12.010000
20798 ha 16953 TPS HA5 20798 0.1282 1.008000
20799 ca 16953 TPS CA4 20799 -0.1028 12.010000
20800 ha 16953 TPS HA4 20800 0.1262 1.008000
20801 ca 16953 TPS CA3 20801 -0.1548 12.010000
20802 ha 16953 TPS HA3 20802 0.1282 1.008000
20803 ha 16954 TPS HA2 20803 0.1332 1.008000
20804 ca 16954 TPS CA2 20804 -0.0753 12.010000
20805 ca 16954 TPS CA1 20805 -0.361 12.010000
20806 si 16954 TPS Si 20806 1.1 28.085000
20807 ca 16954 TPS CA6 20807 -0.0753 12.010000
20808 ha 16954 TPS HH6 20808 0.1332 1.008000
20809 ca 16954 TPS CA5 20809 -0.1548 12.010000
20810 ha 16954 TPS HA5 20810 0.1282 1.008000
20811 ca 16954 TPS CA4 20811 -0.1028 12.010000
20812 ha 16954 TPS HA4 20812 0.1262 1.008000
20813 ca 16954 TPS CA3 20813 -0.1548 12.010000
20814 ha 16954 TPS HA3 20814 0.1282 1.008000
20815 ha 16955 TPS HA2 20815 0.1332 1.008000
20816 ca 16955 TPS CA2 20816 -0.0753 12.010000
20817 ca 16955 TPS CA1 20817 -0.361 12.010000
20818 si 16955 TPS Si 20818 1.1 28.085000
20819 ca 16955 TPS CA6 20819 -0.0753 12.010000
20820 ha 16955 TPS HH6 20820 0.1332 1.008000
20821 ca 16955 TPS CA5 20821 -0.1548 12.010000
20822 ha 16955 TPS HA5 20822 0.1282 1.008000
20823 ca 16955 TPS CA4 20823 -0.1028 12.010000
20824 ha 16955 TPS HA4 20824 0.1262 1.008000
20825 ca 16955 TPS CA3 20825 -0.1548 12.010000
20826 ha 16955 TPS HA3 20826 0.1282 1.008000
20827 ha 16956 TPS HA2 20827 0.1332 1.008000
20828 ca 16956 TPS CA2 20828 -0.0753 12.010000
20829 ca 16956 TPS CA1 20829 -0.361 12.010000
20830 si 16956 TPS Si 20830 1.1 28.085000
20831 ca 16956 TPS CA6 20831 -0.0753 12.010000
20832 ha 16956 TPS HH6 20832 0.1332 1.008000
20833 ca 16956 TPS CA5 20833 -0.1548 12.010000
20834 ha 16956 TPS HA5 20834 0.1282 1.008000
20835 ca 16956 TPS CA4 20835 -0.1028 12.010000
20836 ha 16956 TPS HA4 20836 0.1262 1.008000
20837 ca 16956 TPS CA3 20837 -0.1548 12.010000
20838 ha 16956 TPS HA3 20838 0.1282 1.008000
20839 ha 16957 TPS HA2 20839 0.1332 1.008000
20840 ca 16957 TPS CA2 20840 -0.0753 12.010000
20841 ca 16957 TPS CA1 20841 -0.361 12.010000
20842 si 16957 TPS Si 20842 1.1 28.085000
20843 ca 16957 TPS CA6 20843 -0.0753 12.010000
20844 ha 16957 TPS HH6 20844 0.1332 1.008000
20845 ca 16957 TPS CA5 20845 -0.1548 12.010000
20846 ha 16957 TPS HA5 20846 0.1282 1.008000
20847 ca 16957 TPS CA4 20847 -0.1028 12.010000
20848 ha 16957 TPS HA4 20848 0.1262 1.008000
20849 ca 16957 TPS CA3 20849 -0.1548 12.010000
20850 ha 16957 TPS HA3 20850 0.1282 1.008000
20851 ha 16958 TPS HA2 20851 0.1332 1.008000
20852 ca 16958 TPS CA2 20852 -0.0753 12.010000
20853 ca 16958 TPS CA1 20853 -0.361 12.010000
20854 si 16958 TPS Si 20854 1.1 28.085000
20855 ca 16958 TPS CA6 20855 -0.0753 12.010000
20856 ha 16958 TPS HH6 20856 0.1332 1.008000
20857 ca 16958 TPS CA5 20857 -0.1548 12.010000
20858 ha 16958 TPS HA5 20858 0.1282 1.008000
20859 ca 16958 TPS CA4 20859 -0.1028 12.010000
20860 ha 16958 TPS HA4 20860 0.1262 1.008000
20861 ca 16958 TPS CA3 20861 -0.1548 12.010000
20862 ha 16958 TPS HA3 20862 0.1282 1.008000
20863 ha 16959 TPS HA2 20863 0.1332 1.008000
20864 ca 16959 TPS CA2 20864 -0.0753 12.010000
20865 ca 16959 TPS CA1 20865 -0.361 12.010000
20866 si 16959 TPS Si 20866 1.1 28.085000
20867 ca 16959 TPS CA6 20867 -0.0753 12.010000
20868 ha 16959 TPS HH6 20868 0.1332 1.008000
20869 ca 16959 TPS CA5 20869 -0.1548 12.010000
20870 ha 16959 TPS HA5 20870 0.1282 1.008000
20871 ca 16959 TPS CA4 20871 -0.1028 12.010000
20872 ha 16959 TPS HA4 20872 0.1262 1.008000
20873 ca 16959 TPS CA3 20873 -0.1548 12.010000
20874 ha 16959 TPS HA3 20874 0.1282 1.008000
20875 ha 16960 TPS HA2 20875 0.1332 1.008000
20876 ca 16960 TPS CA2 20876 -0.0753 12.010000
20877 ca 16960 TPS CA1 20877 -0.361 12.010000
20878 si 16960 TPS Si 20878 1.1 28.085000
20879 ca 16960 TPS CA6 20879 -0.0753 12.010000
20880 ha 16960 TPS HH6 20880 0.1332 1.008000
20881 ca 16960 TPS CA5 20881 -0.1548 12.010000
20882 ha 16960 TPS HA5 20882 0.1282 1.008000
20883 ca 16960 TPS CA4 20883 -0.1028 12.010000
20884 ha 16960 TPS HA4 20884 0.1262 1.008000
20885 ca 16960 TPS CA3 20885 -0.1548 12.010000
20886 ha 16960 TPS HA3 20886 0.1282 1.008000
20887 ha 16961 TPS HA2 20887 0.1332 1.008000
20888 ca 16961 TPS CA2 20888 -0.0753 12.010000
20889 ca 16961 TPS CA1 20889 -0.361 12.010000
20890 si 16961 TPS Si 20890 1.1 28.085000
20891 ca 16961 TPS CA6 20891 -0.0753 12.010000
20892 ha 16961 TPS HH6 20892 0.1332 1.008000
20893 ca 16961 TPS CA5 20893 -0.1548 12.010000
20894 ha 16961 TPS HA5 20894 0.1282 1.008000
20895 ca 16961 TPS CA4 20895 -0.1028 12.010000
20896 ha 16961 TPS HA4 20896 0.1262 1.008000
20897 ca 16961 TPS CA3 20897 -0.1548 12.010000
20898 ha 16961 TPS HA3 20898 0.1282 1.008000
20899 ha 16962 TPS HA2 20899 0.1332 1.008000
20900 ca 16962 TPS CA2 20900 -0.0753 12.010000
20901 ca 16962 TPS CA1 20901 -0.361 12.010000
20902 si 16962 TPS Si 20902 1.1 28.085000
20903 ca 16962 TPS CA6 20903 -0.0753 12.010000
20904 ha 16962 TPS HH6 20904 0.1332 1.008000
20905 ca 16962 TPS CA5 20905 -0.1548 12.010000
20906 ha 16962 TPS HA5 20906 0.1282 1.008000
20907 ca 16962 TPS CA4 20907 -0.1028 12.010000
20908 ha 16962 TPS HA4 20908 0.1262 1.008000
20909 ca 16962 TPS CA3 20909 -0.1548 12.010000
20910 ha 16962 TPS HA3 20910 0.1282 1.008000
20911 ha 16963 TPS HA2 20911 0.1332 1.008000
20912 ca 16963 TPS CA2 20912 -0.0753 12.010000
20913 ca 16963 TPS CA1 20913 -0.361 12.010000
20914 si 16963 TPS Si 20914 1.1 28.085000
20915 ca 16963 TPS CA6 20915 -0.0753 12.010000
20916 ha 16963 TPS HH6 20916 0.1332 1.008000
20917 ca 16963 TPS CA5 20917 -0.1548 12.010000
20918 ha 16963 TPS HA5 20918 0.1282 1.008000
20919 ca 16963 TPS CA4 20919 -0.1028 12.010000
20920 ha 16963 TPS HA4 20920 0.1262 1.008000
20921 ca 16963 TPS CA3 20921 -0.1548 12.010000
20922 ha 16963 TPS HA3 20922 0.1282 1.008000
20923 ha 16964 TPS HA2 20923 0.1332 1.008000
20924 ca 16964 TPS CA2 20924 -0.0753 12.010000
20925 ca 16964 TPS CA1 20925 -0.361 12.010000
20926 si 16964 TPS Si 20926 1.1 28.085000
20927 ca 16964 TPS CA6 20927 -0.0753 12.010000
20928 ha 16964 TPS HH6 20928 0.1332 1.008000
20929 ca 16964 TPS CA5 20929 -0.1548 12.010000
20930 ha 16964 TPS HA5 20930 0.1282 1.008000
20931 ca 16964 TPS CA4 20931 -0.1028 12.010000
20932 ha 16964 TPS HA4 20932 0.1262 1.008000
20933 ca 16964 TPS CA3 20933 -0.1548 12.010000
20934 ha 16964 TPS HA3 20934 0.1282 1.008000
20935 ha 16965 TPS HA2 20935 0.1332 1.008000
20936 ca 16965 TPS CA2 20936 -0.0753 12.010000
20937 ca 16965 TPS CA1 20937 -0.361 12.010000
20938 si 16965 TPS Si 20938 1.1 28.085000
20939 ca 16965 TPS CA6 20939 -0.0753 12.010000
20940 ha 16965 TPS HH6 20940 0.1332 1.008000
20941 ca 16965 TPS CA5 20941 -0.1548 12.010000
20942 ha 16965 TPS HA5 20942 0.1282 1.008000
20943 ca 16965 TPS CA4 20943 -0.1028 12.010000
20944 ha 16965 TPS HA4 20944 0.1262 1.008000
20945 ca 16965 TPS CA3 20945 -0.1548 12.010000
20946 ha 16965 TPS HA3 20946 0.1282 1.008000
20947 ha 16966 TPS HA2 20947 0.1332 1.008000
20948 ca 16966 TPS CA2 20948 -0.0753 12.010000
20949 ca 16966 TPS CA1 20949 -0.361 12.010000
20950 si 16966 TPS Si 20950 1.1 28.085000
20951 ca 16966 TPS CA6 20951 -0.0753 12.010000
20952 ha 16966 TPS HH6 20952 0.1332 1.008000
20953 ca 16966 TPS CA5 20953 -0.1548 12.010000
20954 ha 16966 TPS HA5 20954 0.1282 1.008000
20955 ca 16966 TPS CA4 20955 -0.1028 12.010000
20956 ha 16966 TPS HA4 20956 0.1262 1.008000
20957 ca 16966 TPS CA3 20957 -0.1548 12.010000
20958 ha 16966 TPS HA3 20958 0.1282 1.008000
20959 ha 16967 TPS HA2 20959 0.1332 1.008000
20960 ca 16967 TPS CA2 20960 -0.0753 12.010000
20961 ca 16967 TPS CA1 20961 -0.361 12.010000
20962 si 16967 TPS Si 20962 1.1 28.085000
20963 ca 16967 TPS CA6 20963 -0.0753 12.010000
20964 ha 16967 TPS HH6 20964 0.1332 1.008000
20965 ca 16967 TPS CA5 20965 -0.1548 12.010000
20966 ha 16967 TPS HA5 20966 0.1282 1.008000
20967 ca 16967 TPS CA4 20967 -0.1028 12.010000
20968 ha 16967 TPS HA4 20968 0.1262 1.008000
20969 ca 16967 TPS CA3 20969 -0.1548 12.010000
20970 ha 16967 TPS HA3 20970 0.1282 1.008000
20971 ha 16968 TPS HA2 20971 0.1332 1.008000
20972 ca 16968 TPS CA2 20972 -0.0753 12.010000
20973 ca 16968 TPS CA1 20973 -0.361 12.010000
20974 si 16968 TPS Si 20974 1.1 28.085000
20975 ca 16968 TPS CA6 20975 -0.0753 12.010000
20976 ha 16968 TPS HH6 20976 0.1332 1.008000
20977 ca 16968 TPS CA5 20977 -0.1548 12.010000
20978 ha 16968 TPS HA5 20978 0.1282 1.008000
20979 ca 16968 TPS CA4 20979 -0.1028 12.010000
20980 ha 16968 TPS HA4 20980 0.1262 1.008000
20981 ca 16968 TPS CA3 20981 -0.1548 12.010000
20982 ha 16968 TPS HA3 20982 0.1282 1.008000
20983 ha 16969 TPS HA2 20983 0.1332 1.008000
20984 ca 16969 TPS CA2 20984 -0.0753 12.010000
20985 ca 16969 TPS CA1 20985 -0.361 12.010000
20986 si 16969 TPS Si 20986 1.1 28.085000
20987 ca 16969 TPS CA6 20987 -0.0753 12.010000
20988 ha 16969 TPS HH6 20988 0.1332 1.008000
20989 ca 16969 TPS CA5 20989 -0.1548 12.010000
20990 ha 16969 TPS HA5 20990 0.1282 1.008000
20991 ca 16969 TPS CA4 20991 -0.1028 12.010000
20992 ha 16969 TPS HA4 20992 0.1262 1.008000
20993 ca 16969 TPS CA3 20993 -0.1548 12.010000
20994 ha 16969 TPS HA3 20994 0.1282 1.008000
20995 ha 16970 TPS HA2 20995 0.1332 1.008000
20996 ca 16970 TPS CA2 20996 -0.0753 12.010000
20997 ca 16970 TPS CA1 20997 -0.361 12.010000
20998 si 16970 TPS Si 20998 1.1 28.085000
20999 ca 16970 TPS CA6 20999 -0.0753 12.010000
21000 ha 16970 TPS HH6 21000 0.1332 1.008000
21001 ca 16970 TPS CA5 21001 -0.1548 12.010000
21002 ha 16970 TPS HA5 21002 0.1282 1.008000
21003 ca 16970 TPS CA4 21003 -0.1028 12.010000
21004 ha 16970 TPS HA4 21004 0.1262 1.008000
21005 ca 16970 TPS CA3 21005 -0.1548 12.010000
21006 ha 16970 TPS HA3 21006 0.1282 1.008000
21007 ha 16971 TPS HA2 21007 0.1332 1.008000
21008 ca 16971 TPS CA2 21008 -0.0753 12.010000
21009 ca 16971 TPS CA1 21009 -0.361 12.010000
21010 si 16971 TPS Si 21010 1.1 28.085000
21011 ca 16971 TPS CA6 21011 -0.0753 12.010000
21012 ha 16971 TPS HH6 21012 0.1332 1.008000
21013 ca 16971 TPS CA5 21013 -0.1548 12.010000
21014 ha 16971 TPS HA5 21014 0.1282 1.008000
21015 ca 16971 TPS CA4 21015 -0.1028 12.010000
21016 ha 16971 TPS HA4 21016 0.1262 1.008000
21017 ca 16971 TPS CA3 21017 -0.1548 12.010000
21018 ha 16971 TPS HA3 21018 0.1282 1.008000
21019 ha 16972 TPS HA2 21019 0.1332 1.008000
21020 ca 16972 TPS CA2 21020 -0.0753 12.010000
21021 ca 16972 TPS CA1 21021 -0.361 12.010000
21022 si 16972 TPS Si 21022 1.1 28.085000
21023 ca 16972 TPS CA6 21023 -0.0753 12.010000
21024 ha 16972 TPS HH6 21024 0.1332 1.008000
21025 ca 16972 TPS CA5 21025 -0.1548 12.010000
21026 ha 16972 TPS HA5 21026 0.1282 1.008000
21027 ca 16972 TPS CA4 21027 -0.1028 12.010000
21028 ha 16972 TPS HA4 21028 0.1262 1.008000
21029 ca 16972 TPS CA3 21029 -0.1548 12.010000
21030 ha 16972 TPS HA3 21030 0.1282 1.008000
21031 ha 16973 TPS HA2 21031 0.1332 1.008000
21032 ca 16973 TPS CA2 21032 -0.0753 12.010000
21033 ca 16973 TPS CA1 21033 -0.361 12.010000
21034 si 16973 TPS Si 21034 1.1 28.085000
21035 ca 16973 TPS CA6 21035 -0.0753 12.010000
21036 ha 16973 TPS HH6 21036 0.1332 1.008000
21037 ca 16973 TPS CA5 21037 -0.1548 12.010000
21038 ha 16973 TPS HA5 21038 0.1282 1.008000
21039 ca 16973 TPS CA4 21039 -0.1028 12.010000
21040 ha 16973 TPS HA4 21040 0.1262 1.008000
21041 ca 16973 TPS CA3 21041 -0.1548 12.010000
21042 ha 16973 TPS HA3 21042 0.1282 1.008000
21043 ha 16974 TPS HA2 21043 0.1332 1.008000
21044 ca 16974 TPS CA2 21044 -0.0753 12.010000
21045 ca 16974 TPS CA1 21045 -0.361 12.010000
21046 si 16974 TPS Si 21046 1.1 28.085000
21047 ca 16974 TPS CA6 21047 -0.0753 12.010000
21048 ha 16974 TPS HH6 21048 0.1332 1.008000
21049 ca 16974 TPS CA5 21049 -0.1548 12.010000
21050 ha 16974 TPS HA5 21050 0.1282 1.008000
21051 ca 16974 TPS CA4 21051 -0.1028 12.010000
21052 ha 16974 TPS HA4 21052 0.1262 1.008000
21053 ca 16974 TPS CA3 21053 -0.1548 12.010000
21054 ha 16974 TPS HA3 21054 0.1282 1.008000
21055 ha 16975 TPS HA2 21055 0.1332 1.008000
21056 ca 16975 TPS CA2 21056 -0.0753 12.010000
21057 ca 16975 TPS CA1 21057 -0.361 12.010000
21058 si 16975 TPS Si 21058 1.1 28.085000
21059 ca 16975 TPS CA6 21059 -0.0753 12.010000
21060 ha 16975 TPS HH6 21060 0.1332 1.008000
21061 ca 16975 TPS CA5 21061 -0.1548 12.010000
21062 ha 16975 TPS HA5 21062 0.1282 1.008000
21063 ca 16975 TPS CA4 21063 -0.1028 12.010000
21064 ha 16975 TPS HA4 21064 0.1262 1.008000
21065 ca 16975 TPS CA3 21065 -0.1548 12.010000
21066 ha 16975 TPS HA3 21066 0.1282 1.008000
21067 ha 16976 TPS HA2 21067 0.1332 1.008000
21068 ca 16976 TPS CA2 21068 -0.0753 12.010000
21069 ca 16976 TPS CA1 21069 -0.361 12.010000
21070 si 16976 TPS Si 21070 1.1 28.085000
21071 ca 16976 TPS CA6 21071 -0.0753 12.010000
21072 ha 16976 TPS HH6 21072 0.1332 1.008000
21073 ca 16976 TPS CA5 21073 -0.1548 12.010000
21074 ha 16976 TPS HA5 21074 0.1282 1.008000
21075 ca 16976 TPS CA4 21075 -0.1028 12.010000
21076 ha 16976 TPS HA4 21076 0.1262 1.008000
21077 ca 16976 TPS CA3 21077 -0.1548 12.010000
21078 ha 16976 TPS HA3 21078 0.1282 1.008000
21079 ha 16977 TPS HA2 21079 0.1332 1.008000
21080 ca 16977 TPS CA2 21080 -0.0753 12.010000
21081 ca 16977 TPS CA1 21081 -0.361 12.010000
21082 si 16977 TPS Si 21082 1.1 28.085000
21083 ca 16977 TPS CA6 21083 -0.0753 12.010000
21084 ha 16977 TPS HH6 21084 0.1332 1.008000
21085 ca 16977 TPS CA5 21085 -0.1548 12.010000
21086 ha 16977 TPS HA5 21086 0.1282 1.008000
21087 ca 16977 TPS CA4 21087 -0.1028 12.010000
21088 ha 16977 TPS HA4 21088 0.1262 1.008000
21089 ca 16977 TPS CA3 21089 -0.1548 12.010000
21090 ha 16977 TPS HA3 21090 0.1282 1.008000
21091 ha 16978 TPS HA2 21091 0.1332 1.008000
21092 ca 16978 TPS CA2 21092 -0.0753 12.010000
21093 ca 16978 TPS CA1 21093 -0.361 12.010000
21094 si 16978 TPS Si 21094 1.1 28.085000
21095 ca 16978 TPS CA6 21095 -0.0753 12.010000
21096 ha 16978 TPS HH6 21096 0.1332 1.008000
21097 ca 16978 TPS CA5 21097 -0.1548 12.010000
21098 ha 16978 TPS HA5 21098 0.1282 1.008000
21099 ca 16978 TPS CA4 21099 -0.1028 12.010000
21100 ha 16978 TPS HA4 21100 0.1262 1.008000
21101 ca 16978 TPS CA3 21101 -0.1548 12.010000
21102 ha 16978 TPS HA3 21102 0.1282 1.008000
21103 ha 16979 TPS HA2 21103 0.1332 1.008000
21104 ca 16979 TPS CA2 21104 -0.0753 12.010000
21105 ca 16979 TPS CA1 21105 -0.361 12.010000
21106 si 16979 TPS Si 21106 1.1 28.085000
21107 ca 16979 TPS CA6 21107 -0.0753 12.010000
21108 ha 16979 TPS HH6 21108 0.1332 1.008000
21109 ca 16979 TPS CA5 21109 -0.1548 12.010000
21110 ha 16979 TPS HA5 21110 0.1282 1.008000
21111 ca 16979 TPS CA4 21111 -0.1028 12.010000
21112 ha 16979 TPS HA4 21112 0.1262 1.008000
21113 ca 16979 TPS CA3 21113 -0.1548 12.010000
21114 ha 16979 TPS HA3 21114 0.1282 1.008000
21115 ha 16980 TPS HA2 21115 0.1332 1.008000
21116 ca 16980 TPS CA2 21116 -0.0753 12.010000
21117 ca 16980 TPS CA1 21117 -0.361 12.010000
21118 si 16980 TPS Si 21118 1.1 28.085000
21119 ca 16980 TPS CA6 21119 -0.0753 12.010000
21120 ha 16980 TPS HH6 21120 0.1332 1.008000
21121 ca 16980 TPS CA5 21121 -0.1548 12.010000
21122 ha 16980 TPS HA5 21122 0.1282 1.008000
21123 ca 16980 TPS CA4 21123 -0.1028 12.010000
21124 ha 16980 TPS HA4 21124 0.1262 1.008000
21125 ca 16980 TPS CA3 21125 -0.1548 12.010000
21126 ha 16980 TPS HA3 21126 0.1282 1.008000
21127 ha 16981 TPS HA2 21127 0.1332 1.008000
21128 ca 16981 TPS CA2 21128 -0.0753 12.010000
21129 ca 16981 TPS CA1 21129 -0.361 12.010000
21130 si 16981 TPS Si 21130 1.1 28.085000
21131 ca 16981 TPS CA6 21131 -0.0753 12.010000
21132 ha 16981 TPS HH6 21132 0.1332 1.008000
21133 ca 16981 TPS CA5 21133 -0.1548 12.010000
21134 ha 16981 TPS HA5 21134 0.1282 1.008000
21135 ca 16981 TPS CA4 21135 -0.1028 12.010000
21136 ha 16981 TPS HA4 21136 0.1262 1.008000
21137 ca 16981 TPS CA3 21137 -0.1548 12.010000
21138 ha 16981 TPS HA3 21138 0.1282 1.008000
21139 ha 16982 TPS HA2 21139 0.1332 1.008000
21140 ca 16982 TPS CA2 21140 -0.0753 12.010000
21141 ca 16982 TPS CA1 21141 -0.361 12.010000
21142 si 16982 TPS Si 21142 1.1 28.085000
21143 ca 16982 TPS CA6 21143 -0.0753 12.010000
21144 ha 16982 TPS HH6 21144 0.1332 1.008000
21145 ca 16982 TPS CA5 21145 -0.1548 12.010000
21146 ha 16982 TPS HA5 21146 0.1282 1.008000
21147 ca 16982 TPS CA4 21147 -0.1028 12.010000
21148 ha 16982 TPS HA4 21148 0.1262 1.008000
21149 ca 16982 TPS CA3 21149 -0.1548 12.010000
21150 ha 16982 TPS HA3 21150 0.1282 1.008000
21151 ha 16983 TPS HA2 21151 0.1332 1.008000
21152 ca 16983 TPS CA2 21152 -0.0753 12.010000
21153 ca 16983 TPS CA1 21153 -0.361 12.010000
21154 si 16983 TPS Si 21154 1.1 28.085000
21155 ca 16983 TPS CA6 21155 -0.0753 12.010000
21156 ha 16983 TPS HH6 21156 0.1332 1.008000
21157 ca 16983 TPS CA5 21157 -0.1548 12.010000
21158 ha 16983 TPS HA5 21158 0.1282 1.008000
21159 ca 16983 TPS CA4 21159 -0.1028 12.010000
21160 ha 16983 TPS HA4 21160 0.1262 1.008000
21161 ca 16983 TPS CA3 21161 -0.1548 12.010000
21162 ha 16983 TPS HA3 21162 0.1282 1.008000
21163 ha 16984 TPS HA2 21163 0.1332 1.008000
21164 ca 16984 TPS CA2 21164 -0.0753 12.010000
21165 ca 16984 TPS CA1 21165 -0.361 12.010000
21166 si 16984 TPS Si 21166 1.1 28.085000
21167 ca 16984 TPS CA6 21167 -0.0753 12.010000
21168 ha 16984 TPS HH6 21168 0.1332 1.008000
21169 ca 16984 TPS CA5 21169 -0.1548 12.010000
21170 ha 16984 TPS HA5 21170 0.1282 1.008000
21171 ca 16984 TPS CA4 21171 -0.1028 12.010000
21172 ha 16984 TPS HA4 21172 0.1262 1.008000
21173 ca 16984 TPS CA3 21173 -0.1548 12.010000
21174 ha 16984 TPS HA3 21174 0.1282 1.008000
21175 SI 16985 SL Si1 21175 1.100000 28.08600
21176 OA 16985 SL O1 21176 -0.675000 15.99940
21177 HG 16985 SL H1 21177 0.400000 2.01600
21178 SI 16986 SL Si1 21178 1.100000 28.08600
21179 OA 16986 SL O1 21179 -0.675000 15.99940
21180 HG 16986 SL H1 21180 0.400000 2.01600
21181 SI 16987 SL Si1 21181 1.100000 28.08600
21182 OA 16987 SL O1 21182 -0.675000 15.99940
21183 HG 16987 SL H1 21183 0.400000 2.01600
21184 SI 16988 SL Si1 21184 1.100000 28.08600
21185 OA 16988 SL O1 21185 -0.675000 15.99940
21186 HG 16988 SL H1 21186 0.400000 2.01600
21187 SI 16989 SL Si1 21187 1.100000 28.08600
21188 OA 16989 SL O1 21188 -0.675000 15.99940
21189 HG 16989 SL H1 21189 0.400000 2.01600
21190 SI 16990 SL Si1 21190 1.100000 28.08600
21191 OA 16990 SL O1 21191 -0.675000 15.99940
21192 HG 16990 SL H1 21192 0.400000 2.01600
21193 SI 16991 SL Si1 21193 1.100000 28.08600
21194 OA 16991 SL O1 21194 -0.675000 15.99940
21195 HG 16991 SL H1 21195 0.400000 2.01600
21196 SI 16992 SL Si1 21196 1.100000 28.08600
21197 OA 16992 SL O1 21197 -0.675000 15.99940
21198 HG 16992 SL H1 21198 0.400000 2.01600
21199 SI 16993 SL Si1 21199 1.100000 28.08600
21200 OA 16993 SL O1 21200 -0.675000 15.99940
21201 HG 16993 SL H1 21201 0.400000 2.01600
21202 SI 16994 SL Si1 21202 1.100000 28.08600
21203 OA 16994 SL O1 21203 -0.675000 15.99940
21204 HG 16994 SL H1 21204 0.400000 2.01600
21205 SI 16995 SL Si1 21205 1.100000 28.08600
21206 OA 16995 SL O1 21206 -0.675000 15.99940
21207 HG 16995 SL H1 21207 0.400000 2.01600
21208 SI 16996 SL Si1 21208 1.100000 28.08600
21209 OA 16996 SL O1 21209 -0.675000 15.99940
21210 HG 16996 SL H1 21210 0.400000 2.01600
21211 SI 16997 SL Si1 21211 1.100000 28.08600
21212 OA 16997 SL O1 21212 -0.675000 15.99940
21213 HG 16997 SL H1 21213 0.400000 2.01600
21214 SI 16998 SL Si1 21214 1.100000 28.08600
21215 OA 16998 SL O1 21215 -0.675000 15.99940
21216 HG 16998 SL H1 21216 0.400000 2.01600
21217 SI 16999 SL Si1 21217 1.100000 28.08600
21218 OA 16999 SL O1 21218 -0.675000 15.99940
21219 HG 16999 SL H1 21219 0.400000 2.01600
21220 SI 17000 SL Si1 21220 1.100000 28.08600
21221 OA 17000 SL O1 21221 -0.675000 15.99940
21222 HG 17000 SL H1 21222 0.400000 2.01600
21223 SI 17001 SL Si1 21223 1.100000 28.08600
21224 OA 17001 SL O1 21224 -0.675000 15.99940
21225 HG 17001 SL H1 21225 0.400000 2.01600
21226 SI 17002 SL Si1 21226 1.100000 28.08600
21227 OA 17002 SL O1 21227 -0.675000 15.99940
21228 HG 17002 SL H1 21228 0.400000 2.01600
21229 SI 17003 SL Si1 21229 1.100000 28.08600
21230 OA 17003 SL O1 21230 -0.675000 15.99940
21231 HG 17003 SL H1 21231 0.400000 2.01600
21232 SI 17004 SL Si1 21232 1.100000 28.08600
21233 OA 17004 SL O1 21233 -0.675000 15.99940
21234 HG 17004 SL H1 21234 0.400000 2.01600
21235 SI 17005 SL Si1 21235 1.100000 28.08600
21236 OA 17005 SL O1 21236 -0.675000 15.99940
21237 HG 17005 SL H1 21237 0.400000 2.01600
21238 SI 17006 SL Si1 21238 1.100000 28.08600
21239 OA 17006 SL O1 21239 -0.675000 15.99940
21240 HG 17006 SL H1 21240 0.400000 2.01600
21241 SI 17007 SL Si1 21241 1.100000 28.08600
21242 OA 17007 SL O1 21242 -0.675000 15.99940
21243 HG 17007 SL H1 21243 0.400000 2.01600
21244 SI 17008 SL Si1 21244 1.100000 28.08600
21245 OA 17008 SL O1 21245 -0.675000 15.99940
21246 HG 17008 SL H1 21246 0.400000 2.01600
21247 SI 17009 SL Si1 21247 1.100000 28.08600
21248 OA 17009 SL O1 21248 -0.675000 15.99940
21249 HG 17009 SL H1 21249 0.400000 2.01600
21250 SI 17010 SL Si1 21250 1.100000 28.08600
21251 OA 17010 SL O1 21251 -0.675000 15.99940
21252 HG 17010 SL H1 21252 0.400000 2.01600
21253 SI 17011 SL Si1 21253 1.100000 28.08600
21254 OA 17011 SL O1 21254 -0.675000 15.99940
21255 HG 17011 SL H1 21255 0.400000 2.01600
21256 SI 17012 SL Si1 21256 1.100000 28.08600
21257 OA 17012 SL O1 21257 -0.675000 15.99940
21258 HG 17012 SL H1 21258 0.400000 2.01600
21259 SI 17013 SL Si1 21259 1.100000 28.08600
21260 OA 17013 SL O1 21260 -0.675000 15.99940
21261 HG 17013 SL H1 21261 0.400000 2.01600
21262 SI 17014 SL Si1 21262 1.100000 28.08600
21263 OA 17014 SL O1 21263 -0.675000 15.99940
21264 HG 17014 SL H1 21264 0.400000 2.01600
21265 SI 17015 SL Si1 21265 1.100000 28.08600
21266 OA 17015 SL O1 21266 -0.675000 15.99940
21267 HG 17015 SL H1 21267 0.400000 2.01600
21268 SI 17016 SL Si1 21268 1.100000 28.08600
21269 OA 17016 SL O1 21269 -0.675000 15.99940
21270 HG 17016 SL H1 21270 0.400000 2.01600
21271 SI 17017 SL Si1 21271 1.100000 28.08600
21272 OA 17017 SL O1 21272 -0.675000 15.99940
21273 HG 17017 SL H1 21273 0.400000 2.01600
21274 SI 17018 SL Si1 21274 1.100000 28.08600
21275 OA 17018 SL O1 21275 -0.675000 15.99940
21276 HG 17018 SL H1 21276 0.400000 2.01600
21277 SI 17019 SL Si1 21277 1.100000 28.08600
21278 OA 17019 SL O1 21278 -0.675000 15.99940
21279 HG 17019 SL H1 21279 0.400000 2.01600
21280 SI 17020 SL Si1 21280 1.100000 28.08600
21281 OA 17020 SL O1 21281 -0.675000 15.99940
21282 HG 17020 SL H1 21282 0.400000 2.01600
21283 SI 17021 SL Si1 21283 1.100000 28.08600
21284 OA 17021 SL O1 21284 -0.675000 15.99940
21285 HG 17021 SL H1 21285 0.400000 2.01600
21286 SI 17022 SL Si1 21286 1.100000 28.08600
21287 OA 17022 SL O1 21287 -0.675000 15.99940
21288 HG 17022 SL H1 21288 0.400000 2.01600
21289 SI 17023 SL Si1 21289 1.100000 28.08600
21290 OA 17023 SL O1 21290 -0.675000 15.99940
21291 HG 17023 SL H1 21291 0.400000 2.01600
21292 SI 17024 SL Si1 21292 1.100000 28.08600
21293 OA 17024 SL O1 21293 -0.675000 15.99940
21294 HG 17024 SL H1 21294 0.400000 2.01600
21295 SI 17025 SL Si1 21295 1.100000 28.08600
21296 OA 17025 SL O1 21296 -0.675000 15.99940
21297 HG 17025 SL H1 21297 0.400000 2.01600
21298 SI 17026 SL Si1 21298 1.100000 28.08600
21299 OA 17026 SL O1 21299 -0.675000 15.99940
21300 HG 17026 SL H1 21300 0.400000 2.01600
21301 SI 17027 SL Si1 21301 1.100000 28.08600
21302 OA 17027 SL O1 21302 -0.675000 15.99940
21303 HG 17027 SL H1 21303 0.400000 2.01600
21304 SI 17028 SL Si1 21304 1.100000 28.08600
21305 OA 17028 SL O1 21305 -0.675000 15.99940
21306 HG 17028 SL H1 21306 0.400000 2.01600
21307 SI 17029 SL Si1 21307 1.100000 28.08600
21308 OA 17029 SL O1 21308 -0.675000 15.99940
21309 HG 17029 SL H1 21309 0.400000 2.01600
21310 SI 17030 SL Si1 21310 1.100000 28.08600
21311 OA 17030 SL O1 21311 -0.675000 15.99940
21312 HG 17030 SL H1 21312 0.400000 2.01600
21313 SI 17031 SL Si1 21313 1.100000 28.08600
21314 OA 17031 SL O1 21314 -0.675000 15.99940
21315 HG 17031 SL H1 21315 0.400000 2.01600
21316 SI 17032 SL Si1 21316 1.100000 28.08600
21317 OA 17032 SL O1 21317 -0.675000 15.99940
21318 HG 17032 SL H1 21318 0.400000 2.01600
21319 SI 17033 SL Si1 21319 1.100000 28.08600
21320 OA 17033 SL O1 21320 -0.675000 15.99940
21321 HG 17033 SL H1 21321 0.400000 2.01600
21322 SI 17034 SL Si1 21322 1.100000 28.08600
21323 OA 17034 SL O1 21323 -0.675000 15.99940
21324 HG 17034 SL H1 21324 0.400000 2.01600
21325 SI 17035 SL Si1 21325 1.100000 28.08600
21326 OA 17035 SL O1 21326 -0.675000 15.99940
21327 HG 17035 SL H1 21327 0.400000 2.01600
21328 SI 17036 SL Si1 21328 1.100000 28.08600
21329 OA 17036 SL O1 21329 -0.675000 15.99940
21330 HG 17036 SL H1 21330 0.400000 2.01600
21331 SI 17037 SL Si1 21331 1.100000 28.08600
21332 OA 17037 SL O1 21332 -0.675000 15.99940
21333 HG 17037 SL H1 21333 0.400000 2.01600
21334 SI 17038 SL Si1 21334 1.100000 28.08600
21335 OA 17038 SL O1 21335 -0.675000 15.99940
21336 HG 17038 SL H1 21336 0.400000 2.01600
21337 SI 17039 SL Si1 21337 1.100000 28.08600
21338 OA 17039 SL O1 21338 -0.675000 15.99940
21339 HG 17039 SL H1 21339 0.400000 2.01600
21340 SI 17040 SL Si1 21340 1.100000 28.08600
21341 OA 17040 SL O1 21341 -0.675000 15.99940
21342 HG 17040 SL H1 21342 0.400000 2.01600
21343 SI 17041 SL Si1 21343 1.100000 28.08600
21344 OA 17041 SL O1 21344 -0.675000 15.99940
21345 HG 17041 SL H1 21345 0.400000 2.01600
21346 SI 17042 SL Si1 21346 1.100000 28.08600
21347 OA 17042 SL O1 21347 -0.675000 15.99940
21348 HG 17042 SL H1 21348 0.400000 2.01600
21349 SI 17043 SL Si1 21349 1.100000 28.08600
21350 OA 17043 SL O1 21350 -0.675000 15.99940
21351 HG 17043 SL H1 21351 0.400000 2.01600
21352 SI 17044 SL Si1 21352 1.100000 28.08600
21353 OA 17044 SL O1 21353 -0.675000 15.99940
21354 HG 17044 SL H1 21354 0.400000 2.01600
21355 SI 17045 SL Si1 21355 1.100000 28.08600
21356 OA 17045 SL O1 21356 -0.675000 15.99940
21357 HG 17045 SL H1 21357 0.400000 2.01600
21358 SI 17046 SL Si1 21358 1.100000 28.08600
21359 OA 17046 SL O1 21359 -0.675000 15.99940
21360 HG 17046 SL H1 21360 0.400000 2.01600
21361 SI 17047 SL Si1 21361 1.100000 28.08600
21362 OA 17047 SL O1 21362 -0.675000 15.99940
21363 HG 17047 SL H1 21363 0.400000 2.01600
21364 SI 17048 SL Si1 21364 1.100000 28.08600
21365 OA 17048 SL O1 21365 -0.675000 15.99940
21366 HG 17048 SL H1 21366 0.400000 2.01600
21367 SI 17049 SL Si1 21367 1.100000 28.08600
21368 OA 17049 SL O1 21368 -0.675000 15.99940
21369 HG 17049 SL H1 21369 0.400000 2.01600
21370 SI 17050 SL Si1 21370 1.100000 28.08600
21371 OA 17050 SL O1 21371 -0.675000 15.99940
21372 HG 17050 SL H1 21372 0.400000 2.01600
21373 SI 17051 SL Si1 21373 1.100000 28.08600
21374 OA 17051 SL O1 21374 -0.675000 15.99940
21375 HG 17051 SL H1 21375 0.400000 2.01600
21376 SI 17052 SL Si1 21376 1.100000 28.08600
21377 OA 17052 SL O1 21377 -0.675000 15.99940
21378 HG 17052 SL H1 21378 0.400000 2.01600
21379 SI 17053 SL Si1 21379 1.100000 28.08600
21380 OA 17053 SL O1 21380 -0.675000 15.99940
21381 HG 17053 SL H1 21381 0.400000 2.01600
21382 SI 17054 SL Si1 21382 1.100000 28.08600
21383 OA 17054 SL O1 21383 -0.675000 15.99940
21384 HG 17054 SL H1 21384 0.400000 2.01600
21385 SI 17055 SL Si1 21385 1.100000 28.08600
21386 OA 17055 SL O1 21386 -0.675000 15.99940
21387 HG 17055 SL H1 21387 0.400000 2.01600
21388 SI 17056 SL Si1 21388 1.100000 28.08600
21389 OA 17056 SL O1 21389 -0.675000 15.99940
21390 HG 17056 SL H1 21390 0.400000 2.01600
21391 SI 17057 SL Si1 21391 1.100000 28.08600
21392 OA 17057 SL O1 21392 -0.675000 15.99940
21393 HG 17057 SL H1 21393 0.400000 2.01600
21394 SI 17058 SL Si1 21394 1.100000 28.08600
21395 OA 17058 SL O1 21395 -0.675000 15.99940
21396 HG 17058 SL H1 21396 0.400000 2.01600
21397 SI 17059 SL Si1 21397 1.100000 28.08600
21398 OA 17059 SL O1 21398 -0.675000 15.99940
21399 HG 17059 SL H1 21399 0.400000 2.01600
21400 SI 17060 SL Si1 21400 1.100000 28.08600
21401 OA 17060 SL O1 21401 -0.675000 15.99940
21402 HG 17060 SL H1 21402 0.400000 2.01600
21403 SI 17061 SL Si1 21403 1.100000 28.08600
21404 OA 17061 SL O1 21404 -0.675000 15.99940
21405 HG 17061 SL H1 21405 0.400000 2.01600
21406 SI 17062 SL Si1 21406 1.100000 28.08600
21407 OA 17062 SL O1 21407 -0.675000 15.99940
21408 HG 17062 SL H1 21408 0.400000 2.01600
21409 SI 17063 SL Si1 21409 1.100000 28.08600
21410 OA 17063 SL O1 21410 -0.675000 15.99940
21411 HG 17063 SL H1 21411 0.400000 2.01600
21412 SI 17064 SL Si1 21412 1.100000 28.08600
21413 OA 17064 SL O1 21413 -0.675000 15.99940
21414 HG 17064 SL H1 21414 0.400000 2.01600
21415 SI 17065 SL Si1 21415 1.100000 28.08600
21416 OA 17065 SL O1 21416 -0.675000 15.99940
21417 HG 17065 SL H1 21417 0.400000 2.01600
21418 SI 17066 SL Si1 21418 1.100000 28.08600
21419 OA 17066 SL O1 21419 -0.675000 15.99940
21420 HG 17066 SL H1 21420 0.400000 2.01600
21421 SI 17067 SL Si1 21421 1.100000 28.08600
21422 OA 17067 SL O1 21422 -0.675000 15.99940
21423 HG 17067 SL H1 21423 0.400000 2.01600
21424 SI 17068 SL Si1 21424 1.100000 28.08600
21425 OA 17068 SL O1 21425 -0.675000 15.99940
21426 HG 17068 SL H1 21426 0.400000 2.01600
21427 SI 17069 SL Si1 21427 1.100000 28.08600
21428 OA 17069 SL O1 21428 -0.675000 15.99940
21429 HG 17069 SL H1 21429 0.400000 2.01600
21430 SI 17070 SL Si1 21430 1.100000 28.08600
21431 OA 17070 SL O1 21431 -0.675000 15.99940
21432 HG 17070 SL H1 21432 0.400000 2.01600
21433 SI 17071 SL Si1 21433 1.100000 28.08600
21434 OA 17071 SL O1 21434 -0.675000 15.99940
21435 HG 17071 SL H1 21435 0.400000 2.01600
21436 SI 17072 SL Si1 21436 1.100000 28.08600
21437 OA 17072 SL O1 21437 -0.675000 15.99940
21438 HG 17072 SL H1 21438 0.400000 2.01600
21439 SI 17073 SL Si1 21439 1.100000 28.08600
21440 OA 17073 SL O1 21440 -0.675000 15.99940
21441 HG 17073 SL H1 21441 0.400000 2.01600
21442 SI 17074 SL Si1 21442 1.100000 28.08600
21443 OA 17074 SL O1 21443 -0.675000 15.99940
21444 HG 17074 SL H1 21444 0.400000 2.01600
21445 SI 17075 SL Si1 21445 1.100000 28.08600
21446 OA 17075 SL O1 21446 -0.675000 15.99940
21447 HG 17075 SL H1 21447 0.400000 2.01600
21448 SI 17076 SL Si1 21448 1.100000 28.08600
21449 OA 17076 SL O1 21449 -0.675000 15.99940
21450 HG 17076 SL H1 21450 0.400000 2.01600
21451 SI 17077 SL Si1 21451 1.100000 28.08600
21452 OA 17077 SL O1 21452 -0.675000 15.99940
21453 HG 17077 SL H1 21453 0.400000 2.01600
21454 SI 17078 SL Si1 21454 1.100000 28.08600
21455 OA 17078 SL O1 21455 -0.675000 15.99940
21456 HG 17078 SL H1 21456 0.400000 2.01600
21457 SI 17079 SL Si1 21457 1.100000 28.08600
21458 OA 17079 SL O1 21458 -0.675000 15.99940
21459 HG 17079 SL H1 21459 0.400000 2.01600
21460 SI 17080 SL Si1 21460 1.100000 28.08600
21461 OA 17080 SL O1 21461 -0.675000 15.99940
21462 HG 17080 SL H1 21462 0.400000 2.01600
21463 SI 17081 SL Si1 21463 1.100000 28.08600
21464 OA 17081 SL O1 21464 -0.675000 15.99940
21465 HG 17081 SL H1 21465 0.400000 2.01600
21466 SI 17082 SL Si1 21466 1.100000 28.08600
21467 OA 17082 SL O1 21467 -0.675000 15.99940
21468 HG 17082 SL H1 21468 0.400000 2.01600
21469 SI 17083 SL Si1 21469 1.100000 28.08600
21470 OA 17083 SL O1 21470 -0.675000 15.99940
21471 HG 17083 SL H1 21471 0.400000 2.01600
21472 SI 17084 SL Si1 21472 1.100000 28.08600
21473 OA 17084 SL O1 21473 -0.675000 15.99940
21474 HG 17084 SL H1 21474 0.400000 2.01600
21475 SI 17085 SL Si1 21475 1.100000 28.08600
21476 OA 17085 SL O1 21476 -0.675000 15.99940
21477 HG 17085 SL H1 21477 0.400000 2.01600
21478 SI 17086 SL Si1 21478 1.100000 28.08600
21479 OA 17086 SL O1 21479 -0.675000 15.99940
21480 HG 17086 SL H1 21480 0.400000 2.01600
21481 SI 17087 SL Si1 21481 1.100000 28.08600
21482 OA 17087 SL O1 21482 -0.675000 15.99940
21483 HG 17087 SL H1 21483 0.400000 2.01600
21484 SI 17088 SL Si1 21484 1.100000 28.08600
21485 OA 17088 SL O1 21485 -0.675000 15.99940
21486 HG 17088 SL H1 21486 0.400000 2.01600
21487 SI 17089 SL Si1 21487 1.100000 28.08600
21488 OA 17089 SL O1 21488 -0.675000 15.99940
21489 HG 17089 SL H1 21489 0.400000 2.01600
21490 SI 17090 SL Si1 21490 1.100000 28.08600
21491 OA 17090 SL O1 21491 -0.675000 15.99940
21492 HG 17090 SL H1 21492 0.400000 2.01600
21493 SI 17091 SL Si1 21493 1.100000 28.08600
21494 OA 17091 SL O1 21494 -0.675000 15.99940
21495 HG 17091 SL H1 21495 0.400000 2.01600
21496 SI 17092 SL Si1 21496 1.100000 28.08600
21497 OA 17092 SL O1 21497 -0.675000 15.99940
21498 HG 17092 SL H1 21498 0.400000 2.01600
21499 SI 17093 SL Si1 21499 1.100000 28.08600
21500 OA 17093 SL O1 21500 -0.675000 15.99940
21501 HG 17093 SL H1 21501 0.400000 2.01600
21502 SI 17094 SL Si1 21502 1.100000 28.08600
21503 OA 17094 SL O1 21503 -0.675000 15.99940
21504 HG 17094 SL H1 21504 0.400000 2.01600
21505 SI 17095 SL Si1 21505 1.100000 28.08600
21506 OA 17095 SL O1 21506 -0.675000 15.99940
21507 HG 17095 SL H1 21507 0.400000 2.01600
21508 SI 17096 SL Si1 21508 1.100000 28.08600
21509 OA 17096 SL O1 21509 -0.675000 15.99940
21510 HG 17096 SL H1 21510 0.400000 2.01600
21511 SI 17097 SL Si1 21511 1.100000 28.08600
21512 OA 17097 SL O1 21512 -0.675000 15.99940
21513 HG 17097 SL H1 21513 0.400000 2.01600
21514 SI 17098 SL Si1 21514 1.100000 28.08600
21515 OA 17098 SL O1 21515 -0.675000 15.99940
21516 HG 17098 SL H1 21516 0.400000 2.01600
21517 SI 17099 SL Si1 21517 1.100000 28.08600
21518 OA 17099 SL O1 21518 -0.675000 15.99940
21519 HG 17099 SL H1 21519 0.400000 2.01600
21520 SI 17100 SL Si1 21520 1.100000 28.08600
21521 OA 17100 SL O1 21521 -0.675000 15.99940
21522 HG 17100 SL H1 21522 0.400000 2.01600
21523 SI 17101 SL Si1 21523 1.100000 28.08600
21524 OA 17101 SL O1 21524 -0.675000 15.99940
21525 HG 17101 SL H1 21525 0.400000 2.01600
21526 SI 17102 SL Si1 21526 1.100000 28.08600
21527 OA 17102 SL O1 21527 -0.675000 15.99940
21528 HG 17102 SL H1 21528 0.400000 2.01600
21529 SI 17103 SL Si1 21529 1.100000 28.08600
21530 OA 17103 SL O1 21530 -0.675000 15.99940
21531 HG 17103 SL H1 21531 0.400000 2.01600
21532 SI 17104 SL Si1 21532 1.100000 28.08600
21533 OA 17104 SL O1 21533 -0.675000 15.99940
21534 HG 17104 SL H1 21534 0.400000 2.01600
21535 SI 17105 SL Si1 21535 1.100000 28.08600
21536 OA 17105 SL O1 21536 -0.675000 15.99940
21537 HG 17105 SL H1 21537 0.400000 2.01600
21538 SI 17106 SL Si1 21538 1.100000 28.08600
21539 OA 17106 SL O1 21539 -0.675000 15.99940
21540 HG 17106 SL H1 21540 0.400000 2.01600
21541 SI 17107 SL Si1 21541 1.100000 28.08600
21542 OA 17107 SL O1 21542 -0.675000 15.99940
21543 HG 17107 SL H1 21543 0.400000 2.01600
21544 SI 17108 SL Si1 21544 1.100000 28.08600
21545 OA 17108 SL O1 21545 -0.675000 15.99940
21546 HG 17108 SL H1 21546 0.400000 2.01600
21547 SI 17109 SL Si1 21547 1.100000 28.08600
21548 OA 17109 SL O1 21548 -0.675000 15.99940
21549 HG 17109 SL H1 21549 0.400000 2.01600
21550 SI 17110 SL Si1 21550 1.100000 28.08600
21551 OA 17110 SL O1 21551 -0.675000 15.99940
21552 HG 17110 SL H1 21552 0.400000 2.01600
21553 SI 17111 SL Si1 21553 1.100000 28.08600
21554 OA 17111 SL O1 21554 -0.675000 15.99940
21555 HG 17111 SL H1 21555 0.400000 2.01600
21556 SI 17112 SL Si1 21556 1.100000 28.08600
21557 OA 17112 SL O1 21557 -0.675000 15.99940
21558 HG 17112 SL H1 21558 0.400000 2.01600
21559 SI 17113 SL Si1 21559 1.100000 28.08600
21560 OA 17113 SL O1 21560 -0.675000 15.99940
21561 HG 17113 SL H1 21561 0.400000 2.01600
21562 SI 17114 SL Si1 21562 1.100000 28.08600
21563 OA 17114 SL O1 21563 -0.675000 15.99940
21564 HG 17114 SL H1 21564 0.400000 2.01600
21565 SI 17115 SL Si1 21565 1.100000 28.08600
21566 OA 17115 SL O1 21566 -0.675000 15.99940
21567 HG 17115 SL H1 21567 0.400000 2.01600
21568 SI 17116 SL Si1 21568 1.100000 28.08600
21569 OA 17116 SL O1 21569 -0.675000 15.99940
21570 HG 17116 SL H1 21570 0.400000 2.01600
21571 SI 17117 SL Si1 21571 1.100000 28.08600
21572 OA 17117 SL O1 21572 -0.675000 15.99940
21573 HG 17117 SL H1 21573 0.400000 2.01600
21574 SI 17118 SL Si1 21574 1.100000 28.08600
21575 OA 17118 SL O1 21575 -0.675000 15.99940
21576 HG 17118 SL H1 21576 0.400000 2.01600
21577 SI 17119 SL Si1 21577 1.100000 28.08600
21578 OA 17119 SL O1 21578 -0.675000 15.99940
21579 HG 17119 SL H1 21579 0.400000 2.01600
21580 SI 17120 SL Si1 21580 1.100000 28.08600
21581 OA 17120 SL O1 21581 -0.675000 15.99940
21582 HG 17120 SL H1 21582 0.400000 2.01600
21583 SI 17121 SL Si1 21583 1.100000 28.08600
21584 OA 17121 SL O1 21584 -0.675000 15.99940
21585 HG 17121 SL H1 21585 0.400000 2.01600
21586 SI 17122 SL Si1 21586 1.100000 28.08600
21587 OA 17122 SL O1 21587 -0.675000 15.99940
21588 HG 17122 SL H1 21588 0.400000 2.01600
21589 SI 17123 SL Si1 21589 1.100000 28.08600
21590 OA 17123 SL O1 21590 -0.675000 15.99940
21591 HG 17123 SL H1 21591 0.400000 2.01600
21592 SI 17124 SL Si1 21592 1.100000 28.08600
21593 OA 17124 SL O1 21593 -0.675000 15.99940
21594 HG 17124 SL H1 21594 0.400000 2.01600
21595 SI 17125 SL Si1 21595 1.100000 28.08600
21596 OA 17125 SL O1 21596 -0.675000 15.99940
21597 HG 17125 SL H1 21597 0.400000 2.01600
21598 SI 17126 SL Si1 21598 1.100000 28.08600
21599 OA 17126 SL O1 21599 -0.675000 15.99940
21600 HG 17126 SL H1 21600 0.400000 2.01600
21601 SI 17127 SL Si1 21601 1.100000 28.08600
21602 OA 17127 SL O1 21602 -0.675000 15.99940
21603 HG 17127 SL H1 21603 0.400000 2.01600
21604 SI 17128 SL Si1 21604 1.100000 28.08600
21605 OA 17128 SL O1 21605 -0.675000 15.99940
21606 HG 17128 SL H1 21606 0.400000 2.01600
21607 SI 17129 SL Si1 21607 1.100000 28.08600
21608 OA 17129 SL O1 21608 -0.675000 15.99940
21609 HG 17129 SL H1 21609 0.400000 2.01600
21610 SI 17130 SL Si1 21610 1.100000 28.08600
21611 OA 17130 SL O1 21611 -0.675000 15.99940
21612 HG 17130 SL H1 21612 0.400000 2.01600
21613 SI 17131 SL Si1 21613 1.100000 28.08600
21614 OA 17131 SL O1 21614 -0.675000 15.99940
21615 HG 17131 SL H1 21615 0.400000 2.01600
21616 SI 17132 SL Si1 21616 1.100000 28.08600
21617 OA 17132 SL O1 21617 -0.675000 15.99940
21618 HG 17132 SL H1 21618 0.400000 2.01600
21619 SI 17133 SL Si1 21619 1.100000 28.08600
21620 OA 17133 SL O1 21620 -0.675000 15.99940
21621 HG 17133 SL H1 21621 0.400000 2.01600
21622 SI 17134 SL Si1 21622 1.100000 28.08600
21623 OA 17134 SL O1 21623 -0.675000 15.99940
21624 HG 17134 SL H1 21624 0.400000 2.01600
21625 SI 17135 SL Si1 21625 1.100000 28.08600
21626 OA 17135 SL O1 21626 -0.675000 15.99940
21627 HG 17135 SL H1 21627 0.400000 2.01600
21628 SI 17136 SL Si1 21628 1.100000 28.08600
21629 OA 17136 SL O1 21629 -0.675000 15.99940
21630 HG 17136 SL H1 21630 0.400000 2.01600
21631 SI 17137 SL Si1 21631 1.100000 28.08600
21632 OA 17137 SL O1 21632 -0.675000 15.99940
21633 HG 17137 SL H1 21633 0.400000 2.01600
21634 SI 17138 SL Si1 21634 1.100000 28.08600
21635 OA 17138 SL O1 21635 -0.675000 15.99940
21636 HG 17138 SL H1 21636 0.400000 2.01600
21637 SI 17139 SL Si1 21637 1.100000 28.08600
21638 OA 17139 SL O1 21638 -0.675000 15.99940
21639 HG 17139 SL H1 21639 0.400000 2.01600
21640 SI 17140 SL Si1 21640 1.100000 28.08600
21641 OA 17140 SL O1 21641 -0.675000 15.99940
21642 HG 17140 SL H1 21642 0.400000 2.01600
21643 SI 17141 SL Si1 21643 1.100000 28.08600
21644 OA 17141 SL O1 21644 -0.675000 15.99940
21645 HG 17141 SL H1 21645 0.400000 2.01600
21646 SI 17142 SL Si1 21646 1.100000 28.08600
21647 OA 17142 SL O1 21647 -0.675000 15.99940
21648 HG 17142 SL H1 21648 0.400000 2.01600
21649 SI 17143 SL Si1 21649 1.100000 28.08600
21650 OA 17143 SL O1 21650 -0.675000 15.99940
21651 HG 17143 SL H1 21651 0.400000 2.01600
21652 SI 17144 SL Si1 21652 1.100000 28.08600
21653 OA 17144 SL O1 21653 -0.675000 15.99940
21654 HG 17144 SL H1 21654 0.400000 2.01600
21655 SI 17145 SL Si1 21655 1.100000 28.08600
21656 OA 17145 SL O1 21656 -0.675000 15.99940
21657 HG 17145 SL H1 21657 0.400000 2.01600
21658 SI 17146 SL Si1 21658 1.100000 28.08600
21659 OA 17146 SL O1 21659 -0.675000 15.99940
21660 HG 17146 SL H1 21660 0.400000 2.01600
21661 SI 17147 SL Si1 21661 1.100000 28.08600
21662 OA 17147 SL O1 21662 -0.675000 15.99940
21663 HG 17147 SL H1 21663 0.400000 2.01600
21664 SI 17148 SL Si1 21664 1.100000 28.08600
21665 OA 17148 SL O1 21665 -0.675000 15.99940
21666 HG 17148 SL H1 21666 0.400000 2.01600
21667 SI 17149 SL Si1 21667 1.100000 28.08600
21668 OA 17149 SL O1 21668 -0.675000 15.99940
21669 HG 17149 SL H1 21669 0.400000 2.01600
21670 SI 17150 SL Si1 21670 1.100000 28.08600
21671 OA 17150 SL O1 21671 -0.675000 15.99940
21672 HG 17150 SL H1 21672 0.400000 2.01600
21673 SI 17151 SL Si1 21673 1.100000 28.08600
21674 OA 17151 SL O1 21674 -0.675000 15.99940
21675 HG 17151 SL H1 21675 0.400000 2.01600
21676 SI 17152 SL Si1 21676 1.100000 28.08600
21677 OA 17152 SL O1 21677 -0.675000 15.99940
21678 HG 17152 SL H1 21678 0.400000 2.01600
21679 SI 17153 SL Si1 21679 1.100000 28.08600
21680 OA 17153 SL O1 21680 -0.675000 15.99940
21681 HG 17153 SL H1 21681 0.400000 2.01600
21682 SI 17154 SL Si1 21682 1.100000 28.08600
21683 OA 17154 SL O1 21683 -0.675000 15.99940
21684 HG 17154 SL H1 21684 0.400000 2.01600
21685 SI 17155 SL Si1 21685 1.100000 28.08600
21686 OA 17155 SL O1 21686 -0.675000 15.99940
21687 HG 17155 SL H1 21687 0.400000 2.01600
21688 SI 17156 SL Si1 21688 1.100000 28.08600
21689 OA 17156 SL O1 21689 -0.675000 15.99940
21690 HG 17156 SL H1 21690 0.400000 2.01600
21691 SI 17157 SL Si1 21691 1.100000 28.08600
21692 OA 17157 SL O1 21692 -0.675000 15.99940
21693 HG 17157 SL H1 21693 0.400000 2.01600
21694 SI 17158 SL Si1 21694 1.100000 28.08600
21695 OA 17158 SL O1 21695 -0.675000 15.99940
21696 HG 17158 SL H1 21696 0.400000 2.01600
21697 SI 17159 SL Si1 21697 1.100000 28.08600
21698 OA 17159 SL O1 21698 -0.675000 15.99940
21699 HG 17159 SL H1 21699 0.400000 2.01600
21700 SI 17160 SL Si1 21700 1.100000 28.08600
21701 OA 17160 SL O1 21701 -0.675000 15.99940
21702 HG 17160 SL H1 21702 0.400000 2.01600
21703 SI 17161 SL Si1 21703 1.100000 28.08600
21704 OA 17161 SL O1 21704 -0.675000 15.99940
21705 HG 17161 SL H1 21705 0.400000 2.01600
21706 SI 17162 SL Si1 21706 1.100000 28.08600
21707 OA 17162 SL O1 21707 -0.675000 15.99940
21708 HG 17162 SL H1 21708 0.400000 2.01600
21709 SI 17163 SL Si1 21709 1.100000 28.08600
21710 OA 17163 SL O1 21710 -0.675000 15.99940
21711 HG 17163 SL H1 21711 0.400000 2.01600
21712 SI 17164 SL Si1 21712 1.100000 28.08600
21713 OA 17164 SL O1 21713 -0.675000 15.99940
21714 HG 17164 SL H1 21714 0.400000 2.01600
21715 SI 17165 SL Si1 21715 1.100000 28.08600
21716 OA 17165 SL O1 21716 -0.675000 15.99940
21717 HG 17165 SL H1 21717 0.400000 2.01600
21718 SI 17166 SL Si1 21718 1.100000 28.08600
21719 OA 17166 SL O1 21719 -0.675000 15.99940
21720 HG 17166 SL H1 21720 0.400000 2.01600
21721 SI 17167 SL Si1 21721 1.100000 28.08600
21722 OA 17167 SL O1 21722 -0.675000 15.99940
21723 HG 17167 SL H1 21723 0.400000 2.01600
21724 SI 17168 SL Si1 21724 1.100000 28.08600
21725 OA 17168 SL O1 21725 -0.675000 15.99940
21726 HG 17168 SL H1 21726 0.400000 2.01600
21727 SI 17169 SL Si1 21727 1.100000 28.08600
21728 OA 17169 SL O1 21728 -0.675000 15.99940
21729 HG 17169 SL H1 21729 0.400000 2.01600
21730 SI 17170 SL Si1 21730 1.100000 28.08600
21731 OA 17170 SL O1 21731 -0.675000 15.99940
21732 HG 17170 SL H1 21732 0.400000 2.01600
21733 SI 17171 SL Si1 21733 1.100000 28.08600
21734 OA 17171 SL O1 21734 -0.675000 15.99940
21735 HG 17171 SL H1 21735 0.400000 2.01600
21736 SI 17172 SL Si1 21736 1.100000 28.08600
21737 OA 17172 SL O1 21737 -0.675000 15.99940
21738 HG 17172 SL H1 21738 0.400000 2.01600
21739 SI 17173 SL Si1 21739 1.100000 28.08600
21740 OA 17173 SL O1 21740 -0.675000 15.99940
21741 HG 17173 SL H1 21741 0.400000 2.01600
21742 SI 17174 SL Si1 21742 1.100000 28.08600
21743 OA 17174 SL O1 21743 -0.675000 15.99940
21744 HG 17174 SL H1 21744 0.400000 2.01600
21745 SI 17175 SL Si1 21745 1.100000 28.08600
21746 OA 17175 SL O1 21746 -0.675000 15.99940
21747 HG 17175 SL H1 21747 0.400000 2.01600
21748 SI 17176 SL Si1 21748 1.100000 28.08600
21749 OA 17176 SL O1 21749 -0.675000 15.99940
21750 HG 17176 SL H1 21750 0.400000 2.01600
21751 SI 17177 SL Si1 21751 1.100000 28.08600
21752 OA 17177 SL O1 21752 -0.675000 15.99940
21753 HG 17177 SL H1 21753 0.400000 2.01600
21754 SI 17178 SL Si1 21754 1.100000 28.08600
21755 OA 17178 SL O1 21755 -0.675000 15.99940
21756 HG 17178 SL H1 21756 0.400000 2.01600
21757 SI 17179 SL Si1 21757 1.100000 28.08600
21758 OA 17179 SL O1 21758 -0.675000 15.99940
21759 HG 17179 SL H1 21759 0.400000 2.01600
21760 SI 17180 SL Si1 21760 1.100000 28.08600
21761 OA 17180 SL O1 21761 -0.675000 15.99940
21762 HG 17180 SL H1 21762 0.400000 2.01600
21763 SI 17181 SL Si1 21763 1.100000 28.08600
21764 OA 17181 SL O1 21764 -0.675000 15.99940
21765 HG 17181 SL H1 21765 0.400000 2.01600
21766 SI 17182 SL Si1 21766 1.100000 28.08600
21767 OA 17182 SL O1 21767 -0.675000 15.99940
21768 HG 17182 SL H1 21768 0.400000 2.01600
21769 SI 17183 SL Si1 21769 1.100000 28.08600
21770 OA 17183 SL O1 21770 -0.675000 15.99940
21771 HG 17183 SL H1 21771 0.400000 2.01600
21772 SI 17184 SL Si1 21772 1.100000 28.08600
21773 OA 17184 SL O1 21773 -0.675000 15.99940
21774 HG 17184 SL H1 21774 0.400000 2.01600
21775 SI 17185 SL Si1 21775 1.100000 28.08600
21776 OA 17185 SL O1 21776 -0.675000 15.99940
21777 HG 17185 SL H1 21777 0.400000 2.01600
21778 SI 17186 SL Si1 21778 1.100000 28.08600
21779 OA 17186 SL O1 21779 -0.675000 15.99940
21780 HG 17186 SL H1 21780 0.400000 2.01600
21781 SI 17187 SL Si1 21781 1.100000 28.08600
21782 OA 17187 SL O1 21782 -0.675000 15.99940
21783 HG 17187 SL H1 21783 0.400000 2.01600
21784 SI 17188 SL Si1 21784 1.100000 28.08600
21785 OA 17188 SL O1 21785 -0.675000 15.99940
21786 HG 17188 SL H1 21786 0.400000 2.01600
21787 SI 17189 SL Si1 21787 1.100000 28.08600
21788 OA 17189 SL O1 21788 -0.675000 15.99940
21789 HG 17189 SL H1 21789 0.400000 2.01600
21790 SI 17190 SL Si1 21790 1.100000 28.08600
21791 OA 17190 SL O1 21791 -0.675000 15.99940
21792 HG 17190 SL H1 21792 0.400000 2.01600
21793 SI 17191 SL Si1 21793 1.100000 28.08600
21794 OA 17191 SL O1 21794 -0.675000 15.99940
21795 HG 17191 SL H1 21795 0.400000 2.01600
21796 SI 17192 SL Si1 21796 1.100000 28.08600
21797 OA 17192 SL O1 21797 -0.675000 15.99940
21798 HG 17192 SL H1 21798 0.400000 2.01600
21799 SI 17193 SL Si1 21799 1.100000 28.08600
21800 OA 17193 SL O1 21800 -0.675000 15.99940
21801 HG 17193 SL H1 21801 0.400000 2.01600
21802 SI 17194 SL Si1 21802 1.100000 28.08600
21803 OA 17194 SL O1 21803 -0.675000 15.99940
21804 HG 17194 SL H1 21804 0.400000 2.01600
21805 SI 17195 SL Si1 21805 1.100000 28.08600
21806 OA 17195 SL O1 21806 -0.675000 15.99940
21807 HG 17195 SL H1 21807 0.400000 2.01600
21808 SI 17196 SL Si1 21808 1.100000 28.08600
21809 OA 17196 SL O1 21809 -0.675000 15.99940
21810 HG 17196 SL H1 21810 0.400000 2.01600
21811 SI 17197 SL Si1 21811 1.100000 28.08600
21812 OA 17197 SL O1 21812 -0.675000 15.99940
21813 HG 17197 SL H1 21813 0.400000 2.01600
21814 SI 17198 SL Si1 21814 1.100000 28.08600
21815 OA 17198 SL O1 21815 -0.675000 15.99940
21816 HG 17198 SL H1 21816 0.400000 2.01600
21817 SI 17199 SL Si1 21817 1.100000 28.08600
21818 OA 17199 SL O1 21818 -0.675000 15.99940
21819 HG 17199 SL H1 21819 0.400000 2.01600
21820 SI 17200 SL Si1 21820 1.100000 28.08600
21821 OA 17200 SL O1 21821 -0.675000 15.99940
21822 HG 17200 SL H1 21822 0.400000 2.01600
21823 SI 17201 SL Si1 21823 1.100000 28.08600
21824 OA 17201 SL O1 21824 -0.675000 15.99940
21825 HG 17201 SL H1 21825 0.400000 2.01600
21826 SI 17202 SL Si1 21826 1.100000 28.08600
21827 OA 17202 SL O1 21827 -0.675000 15.99940
21828 HG 17202 SL H1 21828 0.400000 2.01600
21829 SI 17203 SL Si1 21829 1.100000 28.08600
21830 OA 17203 SL O1 21830 -0.675000 15.99940
21831 HG 17203 SL H1 21831 0.400000 2.01600
21832 SI 17204 SL Si1 21832 1.100000 28.08600
21833 OA 17204 SL O1 21833 -0.675000 15.99940
21834 HG 17204 SL H1 21834 0.400000 2.01600
21835 SI 17205 SL Si1 21835 1.100000 28.08600
21836 OA 17205 SL O1 21836 -0.675000 15.99940
21837 HG 17205 SL H1 21837 0.400000 2.01600
21838 SI 17206 SL Si1 21838 1.100000 28.08600
21839 OA 17206 SL O1 21839 -0.675000 15.99940
21840 HG 17206 SL H1 21840 0.400000 2.01600
21841 SI 17207 SL Si1 21841 1.100000 28.08600
21842 OA 17207 SL O1 21842 -0.675000 15.99940
21843 HG 17207 SL H1 21843 0.400000 2.01600
21844 SI 17208 SL Si1 21844 1.100000 28.08600
21845 OA 17208 SL O1 21845 -0.675000 15.99940
21846 HG 17208 SL H1 21846 0.400000 2.01600
21847 SI 17209 SL Si1 21847 1.100000 28.08600
21848 OA 17209 SL O1 21848 -0.675000 15.99940
21849 HG 17209 SL H1 21849 0.400000 2.01600
21850 SI 17210 SL Si1 21850 1.100000 28.08600
21851 OA 17210 SL O1 21851 -0.675000 15.99940
21852 HG 17210 SL H1 21852 0.400000 2.01600
21853 SI 17211 SL Si1 21853 1.100000 28.08600
21854 OA 17211 SL O1 21854 -0.675000 15.99940
21855 HG 17211 SL H1 21855 0.400000 2.01600
21856 SI 17212 SL Si1 21856 1.100000 28.08600
21857 OA 17212 SL O1 21857 -0.675000 15.99940
21858 HG 17212 SL H1 21858 0.400000 2.01600
21859 SI 17213 SL Si1 21859 1.100000 28.08600
21860 OA 17213 SL O1 21860 -0.675000 15.99940
21861 HG 17213 SL H1 21861 0.400000 2.01600
21862 SI 17214 SL Si1 21862 1.100000 28.08600
21863 OA 17214 SL O1 21863 -0.675000 15.99940
21864 HG 17214 SL H1 21864 0.400000 2.01600
21865 SI 17215 SL Si1 21865 1.100000 28.08600
21866 OA 17215 SL O1 21866 -0.675000 15.99940
21867 HG 17215 SL H1 21867 0.400000 2.01600
21868 SI 17216 SL Si1 21868 1.100000 28.08600
21869 OA 17216 SL O1 21869 -0.675000 15.99940
21870 HG 17216 SL H1 21870 0.400000 2.01600
21871 SI 17217 SL Si1 21871 1.100000 28.08600
21872 OA 17217 SL O1 21872 -0.675000 15.99940
21873 HG 17217 SL H1 21873 0.400000 2.01600
21874 SI 17218 SL Si1 21874 1.100000 28.08600
21875 OA 17218 SL O1 21875 -0.675000 15.99940
21876 HG 17218 SL H1 21876 0.400000 2.01600
21877 SI 17219 SL Si1 21877 1.100000 28.08600
21878 OA 17219 SL O1 21878 -0.675000 15.99940
21879 HG 17219 SL H1 21879 0.400000 2.01600
21880 SI 17220 SL Si1 21880 1.100000 28.08600
21881 OA 17220 SL O1 21881 -0.675000 15.99940
21882 HG 17220 SL H1 21882 0.400000 2.01600
21883 SI 17221 SL Si1 21883 1.100000 28.08600
21884 OA 17221 SL O1 21884 -0.675000 15.99940
21885 HG 17221 SL H1 21885 0.400000 2.01600
21886 SI 17222 SL Si1 21886 1.100000 28.08600
21887 OA 17222 SL O1 21887 -0.675000 15.99940
21888 HG 17222 SL H1 21888 0.400000 2.01600
21889 SI 17223 SL Si1 21889 1.100000 28.08600
21890 OA 17223 SL O1 21890 -0.675000 15.99940
21891 HG 17223 SL H1 21891 0.400000 2.01600
21892 SI 17224 SL Si1 21892 1.100000 28.08600
21893 OA 17224 SL O1 21893 -0.675000 15.99940
21894 HG 17224 SL H1 21894 0.400000 2.01600
21895 SI 17225 SL Si1 21895 1.100000 28.08600
21896 OA 17225 SL O1 21896 -0.675000 15.99940
21897 HG 17225 SL H1 21897 0.400000 2.01600
21898 SI 17226 SL Si1 21898 1.100000 28.08600
21899 OA 17226 SL O1 21899 -0.675000 15.99940
21900 HG 17226 SL H1 21900 0.400000 2.01600
21901 SI 17227 SL Si1 21901 1.100000 28.08600
21902 OA 17227 SL O1 21902 -0.675000 15.99940
21903 HG 17227 SL H1 21903 0.400000 2.01600
21904 SI 17228 SL Si1 21904 1.100000 28.08600
21905 OA 17228 SL O1 21905 -0.675000 15.99940
21906 HG 17228 SL H1 21906 0.400000 2.01600
21907 SI 17229 SL Si1 21907 1.100000 28.08600
21908 OA 17229 SL O1 21908 -0.675000 15.99940
21909 HG 17229 SL H1 21909 0.400000 2.01600
21910 SI 17230 SL Si1 21910 1.100000 28.08600
21911 OA 17230 SL O1 21911 -0.675000 15.99940
21912 HG 17230 SL H1 21912 0.400000 2.01600
21913 SI 17231 SL Si1 21913 1.100000 28.08600
21914 OA 17231 SL O1 21914 -0.675000 15.99940
21915 HG 17231 SL H1 21915 0.400000 2.01600
21916 SI 17232 SL Si1 21916 1.100000 28.08600
21917 OA 17232 SL O1 21917 -0.675000 15.99940
21918 HG 17232 SL H1 21918 0.400000 2.01600
21919 SI 17233 SL Si1 21919 1.100000 28.08600
21920 OA 17233 SL O1 21920 -0.675000 15.99940
21921 HG 17233 SL H1 21921 0.400000 2.01600
21922 SI 17234 SL Si1 21922 1.100000 28.08600
21923 OA 17234 SL O1 21923 -0.675000 15.99940
21924 HG 17234 SL H1 21924 0.400000 2.01600
21925 SI 17235 SL Si1 21925 1.100000 28.08600
21926 OA 17235 SL O1 21926 -0.675000 15.99940
21927 HG 17235 SL H1 21927 0.400000 2.01600
21928 SI 17236 SL Si1 21928 1.100000 28.08600
21929 OA 17236 SL O1 21929 -0.675000 15.99940
21930 HG 17236 SL H1 21930 0.400000 2.01600
21931 SI 17237 SL Si1 21931 1.100000 28.08600
21932 OA 17237 SL O1 21932 -0.675000 15.99940
21933 HG 17237 SL H1 21933 0.400000 2.01600
21934 SI 17238 SL Si1 21934 1.100000 28.08600
21935 OA 17238 SL O1 21935 -0.675000 15.99940
21936 HG 17238 SL H1 21936 0.400000 2.01600
21937 SI 17239 SL Si1 21937 1.100000 28.08600
21938 OA 17239 SL O1 21938 -0.675000 15.99940
21939 HG 17239 SL H1 21939 0.400000 2.01600
21940 SI 17240 SL Si1 21940 1.100000 28.08600
21941 OA 17240 SL O1 21941 -0.675000 15.99940
21942 HG 17240 SL H1 21942 0.400000 2.01600
21943 SI 17241 SL Si1 21943 1.100000 28.08600
21944 OA 17241 SL O1 21944 -0.675000 15.99940
21945 HG 17241 SL H1 21945 0.400000 2.01600
21946 SI 17242 SL Si1 21946 1.100000 28.08600
21947 OA 17242 SL O1 21947 -0.675000 15.99940
21948 HG 17242 SL H1 21948 0.400000 2.01600
21949 SI 17243 SLG Si1 21949 1.100000 28.08600
21950 OA 17243 SLG O1 21950 -0.675000 15.99940
21951 HG 17243 SLG H1 21951 0.400000 2.01600
21952 OA 17243 SLG O2 21952 -0.675000 15.99940
21953 HG 17243 SLG H2 21953 0.400000 2.01600
21954 SI 17244 SLG Si1 21954 1.100000 28.08600
21955 OA 17244 SLG O1 21955 -0.675000 15.99940
21956 HG 17244 SLG H1 21956 0.400000 2.01600
21957 OA 17244 SLG O2 21957 -0.675000 15.99940
21958 HG 17244 SLG H2 21958 0.400000 2.01600
21959 SI 17245 SLG Si1 21959 1.100000 28.08600
21960 OA 17245 SLG O1 21960 -0.675000 15.99940
21961 HG 17245 SLG H1 21961 0.400000 2.01600
21962 OA 17245 SLG O2 21962 -0.675000 15.99940
21963 HG 17245 SLG H2 21963 0.400000 2.01600
21964 SI 17246 SLG Si1 21964 1.100000 28.08600
21965 OA 17246 SLG O1 21965 -0.675000 15.99940
21966 HG 17246 SLG H1 21966 0.400000 2.01600
21967 OA 17246 SLG O2 21967 -0.675000 15.99940
21968 HG 17246 SLG H2 21968 0.400000 2.01600
21969 SI 17247 SLG Si1 21969 1.100000 28.08600
21970 OA 17247 SLG O1 21970 -0.675000 15.99940
21971 HG 17247 SLG H1 21971 0.400000 2.01600
21972 OA 17247 SLG O2 21972 -0.675000 15.99940
21973 HG 17247 SLG H2 21973 0.400000 2.01600
21974 SI 17248 SLG Si1 21974 1.100000 28.08600
21975 OA 17248 SLG O1 21975 -0.675000 15.99940
21976 HG 17248 SLG H1 21976 0.400000 2.01600
21977 OA 17248 SLG O2 21977 -0.675000 15.99940
21978 HG 17248 SLG H2 21978 0.400000 2.01600
21979 SI 17249 SLG Si1 21979 1.100000 28.08600
21980 OA 17249 SLG O1 21980 -0.675000 15.99940
21981 HG 17249 SLG H1 21981 0.400000 2.01600
21982 OA 17249 SLG O2 21982 -0.675000 15.99940
21983 HG 17249 SLG H2 21983 0.400000 2.01600
21984 SI 17250 SLG Si1 21984 1.100000 28.08600
21985 OA 17250 SLG O1 21985 -0.675000 15.99940
21986 HG 17250 SLG H1 21986 0.400000 2.01600
21987 OA 17250 SLG O2 21987 -0.675000 15.99940
21988 HG 17250 SLG H2 21988 0.400000 2.01600
21989 SI 17251 SLG Si1 21989 1.100000 28.08600
21990 OA 17251 SLG O1 21990 -0.675000 15.99940
21991 HG 17251 SLG H1 21991 0.400000 2.01600
21992 OA 17251 SLG O2 21992 -0.675000 15.99940
21993 HG 17251 SLG H2 21993 0.400000 2.01600
21994 SI 17252 SLG Si1 21994 1.100000 28.08600
21995 OA 17252 SLG O1 21995 -0.675000 15.99940
21996 HG 17252 SLG H1 21996 0.400000 2.01600
21997 OA 17252 SLG O2 21997 -0.675000 15.99940
21998 HG 17252 SLG H2 21998 0.400000 2.01600
21999 SI 17253 SLG Si1 21999 1.100000 28.08600
22000 OA 17253 SLG O1 22000 -0.675000 15.99940
22001 HG 17253 SLG H1 22001 0.400000 2.01600
22002 OA 17253 SLG O2 22002 -0.675000 15.99940
22003 HG 17253 SLG H2 22003 0.400000 2.01600
22004 SI 17254 SLG Si1 22004 1.100000 28.08600
22005 OA 17254 SLG O1 22005 -0.675000 15.99940
22006 HG 17254 SLG H1 22006 0.400000 2.01600
22007 OA 17254 SLG O2 22007 -0.675000 15.99940
22008 HG 17254 SLG H2 22008 0.400000 2.01600
22009 SI 17255 SLG Si1 22009 1.100000 28.08600
22010 OA 17255 SLG O1 22010 -0.675000 15.99940
22011 HG 17255 SLG H1 22011 0.400000 2.01600
22012 OA 17255 SLG O2 22012 -0.675000 15.99940
22013 HG 17255 SLG H2 22013 0.400000 2.01600
22014 SI 17256 SLG Si1 22014 1.100000 28.08600
22015 OA 17256 SLG O1 22015 -0.675000 15.99940
22016 HG 17256 SLG H1 22016 0.400000 2.01600
22017 OA 17256 SLG O2 22017 -0.675000 15.99940
22018 HG 17256 SLG H2 22018 0.400000 2.01600
22019 SI 17257 SLG Si1 22019 1.100000 28.08600
22020 OA 17257 SLG O1 22020 -0.675000 15.99940
22021 HG 17257 SLG H1 22021 0.400000 2.01600
22022 OA 17257 SLG O2 22022 -0.675000 15.99940
22023 HG 17257 SLG H2 22023 0.400000 2.01600
22024 SI 17258 SLG Si1 22024 1.100000 28.08600
22025 OA 17258 SLG O1 22025 -0.675000 15.99940
22026 HG 17258 SLG H1 22026 0.400000 2.01600
22027 OA 17258 SLG O2 22027 -0.675000 15.99940
22028 HG 17258 SLG H2 22028 0.400000 2.01600
22029 SI 17259 SLG Si1 22029 1.100000 28.08600
22030 OA 17259 SLG O1 22030 -0.675000 15.99940
22031 HG 17259 SLG H1 22031 0.400000 2.01600
22032 OA 17259 SLG O2 22032 -0.675000 15.99940
22033 HG 17259 SLG H2 22033 0.400000 2.01600
22034 SI 17260 SLG Si1 22034 1.100000 28.08600
22035 OA 17260 SLG O1 22035 -0.675000 15.99940
22036 HG 17260 SLG H1 22036 0.400000 2.01600
22037 OA 17260 SLG O2 22037 -0.675000 15.99940
22038 HG 17260 SLG H2 22038 0.400000 2.01600
22039 SI 17261 SLG Si1 22039 1.100000 28.08600
22040 OA 17261 SLG O1 22040 -0.675000 15.99940
22041 HG 17261 SLG H1 22041 0.400000 2.01600
22042 OA 17261 SLG O2 22042 -0.675000 15.99940
22043 HG 17261 SLG H2 22043 0.400000 2.01600
22044 SI 17262 SLG Si1 22044 1.100000 28.08600
22045 OA 17262 SLG O1 22045 -0.675000 15.99940
22046 HG 17262 SLG H1 22046 0.400000 2.01600
22047 OA 17262 SLG O2 22047 -0.675000 15.99940
22048 HG 17262 SLG H2 22048 0.400000 2.01600
22049 SI 17263 SLG Si1 22049 1.100000 28.08600
22050 OA 17263 SLG O1 22050 -0.675000 15.99940
22051 HG 17263 SLG H1 22051 0.400000 2.01600
22052 OA 17263 SLG O2 22052 -0.675000 15.99940
22053 HG 17263 SLG H2 22053 0.400000 2.01600

[ bonds ]
; ai aj funct params
1 11379 1 0.16500 119244.000000
1 14916 1 0.16500 119244.000000
2 11379 1 0.16500 119244.000000
2 15600 1 0.16500 119244.000000
3 11379 1 0.16500 119244.000000
3 15788 1 0.16500 119244.000000
4 11379 1 0.16500 119244.000000
4 11719 1 0.16500 119244.000000
5 11504 1 0.16500 119244.000000
5 21175 1 0.16500 119244.000000
6 19054 1 0.16500 119244.000000
6 21175 1 0.16500 119244.000000
7 11380 1 0.16500 119244.000000
7 15710 1 0.16500 119244.000000
8 11380 1 0.16500 119244.000000
8 16538 1 0.16500 119244.000000
9 11380 1 0.16500 119244.000000
9 11772 1 0.16500 119244.000000
10 11380 1 0.16500 119244.000000
10 12437 1 0.16500 119244.000000
11 11381 1 0.16500 119244.000000
11 21343 1 0.16500 119244.000000
12 11381 1 0.16500 119244.000000
12 12585 1 0.16500 119244.000000
13 11381 1 0.16500 119244.000000
13 13600 1 0.16500 119244.000000
14 11382 1 0.16500 119244.000000
14 11415 1 0.16500 119244.000000
15 11382 1 0.16500 119244.000000
15 13531 1 0.16500 119244.000000
16 11382 1 0.16500 119244.000000
16 13792 1 0.16500 119244.000000
17 11382 1 0.16500 119244.000000
17 12520 1 0.16500 119244.000000
18 12345 1 0.16500 119244.000000
18 21166 1 0.16500 119244.000000
19 11383 1 0.16500 119244.000000
19 18466 1 0.16500 119244.000000
20 11383 1 0.16500 119244.000000
20 14162 1 0.16500 119244.000000
21 11383 1 0.16500 119244.000000
21 17358 1 0.16500 119244.000000
22 11384 1 0.16500 119244.000000
22 15175 1 0.16500 119244.000000
23 11384 1 0.16500 119244.000000
23 16125 1 0.16500 119244.000000
24 11384 1 0.16500 119244.000000
24 16784 1 0.16500 119244.000000
25 11384 1 0.16500 119244.000000
25 12818 1 0.16500 119244.000000
26 11385 1 0.16500 119244.000000
26 12250 1 0.16500 119244.000000
27 11385 1 0.16500 119244.000000
27 13833 1 0.16500 119244.000000
28 11385 1 0.16500 119244.000000
28 15020 1 0.16500 119244.000000
29 11385 1 0.16500 119244.000000
29 16411 1 0.16500 119244.000000
30 21178 1 0.16500 119244.000000
30 21508 1 0.16500 119244.000000
31 15397 1 0.16500 119244.000000
31 21178 1 0.16500 119244.000000
32 13860 1 0.16500 119244.000000
32 21178 1 0.16500 119244.000000
33 11386 1 0.16500 119244.000000
33 14199 1 0.16500 119244.000000
34 11386 1 0.16500 119244.000000
34 15516 1 0.16500 119244.000000
35 11386 1 0.16500 119244.000000
35 12752 1 0.16500 119244.000000
36 11386 1 0.16500 119244.000000
36 15191 1 0.16500 119244.000000
37 11387 1 0.16500 119244.000000
37 14147 1 0.16500 119244.000000
38 11387 1 0.16500 119244.000000
38 13489 1 0.16500 119244.000000
39 11387 1 0.16500 119244.000000
39 12677 1 0.16500 119244.000000
40 11387 1 0.16500 119244.000000
40 14036 1 0.16500 119244.000000
41 11388 1 0.16500 119244.000000
41 15168 1 0.16500 119244.000000
42 11388 1 0.16500 119244.000000
42 14525 1 0.16500 119244.000000
43 11388 1 0.16500 119244.000000
43 15834 1 0.16500 119244.000000
44 11388 1 0.16500 119244.000000
44 16203 1 0.16500 119244.000000
45 11389 1 0.16500 119244.000000
45 15287 1 0.16500 119244.000000
46 11389 1 0.16500 119244.000000
46 21613 1 0.16500 119244.000000
47 11389 1 0.16500 119244.000000
47 14228 1 0.16500 119244.000000
48 11389 1 0.16500 119244.000000
48 15664 1 0.16500 119244.000000
49 11390 1 0.16500 119244.000000
49 14511 1 0.16500 119244.000000
50 11390 1 0.16500 119244.000000
50 14847 1 0.16500 119244.000000
51 11390 1 0.16500 119244.000000
51 13943 1 0.16500 119244.000000
52 11390 1 0.16500 119244.000000
52 12191 1 0.16500 119244.000000
53 11391 1 0.16500 119244.000000
53 14011 1 0.16500 119244.000000
54 11391 1 0.16500 119244.000000
54 12654 1 0.16500 119244.000000
55 11391 1 0.16500 119244.000000
55 15772 1 0.16500 119244.000000
56 11391 1 0.16500 119244.000000
56 12262 1 0.16500 119244.000000
57 11392 1 0.16500 119244.000000
57 14040 1 0.16500 119244.000000
58 11392 1 0.16500 119244.000000
58 13868 1 0.16500 119244.000000
59 11392 1 0.16500 119244.000000
59 11828 1 0.16500 119244.000000
60 11392 1 0.16500 119244.000000
60 15347 1 0.16500 119244.000000
61 11393 1 0.16500 119244.000000
61 17274 1 0.16500 119244.000000
62 11393 1 0.16500 119244.000000
62 12441 1 0.16500 119244.000000
63 11393 1 0.16500 119244.000000
63 11418 1 0.16500 119244.000000
64 11393 1 0.16500 119244.000000
64 12170 1 0.16500 119244.000000
65 11564 1 0.16500 119244.000000
65 21181 1 0.16500 119244.000000
66 15972 1 0.16500 119244.000000
66 21181 1 0.16500 119244.000000
67 16016 1 0.16500 119244.000000
67 21181 1 0.16500 119244.000000
68 16567 1 0.16500 119244.000000
68 17666 1 0.16500 119244.000000
69 14953 1 0.16500 119244.000000
69 17666 1 0.16500 119244.000000
70 11394 1 0.16500 119244.000000
70 15234 1 0.16500 119244.000000
71 11394 1 0.16500 119244.000000
71 13819 1 0.16500 119244.000000
72 11394 1 0.16500 119244.000000
72 16323 1 0.16500 119244.000000
73 11394 1 0.16500 119244.000000
73 15905 1 0.16500 119244.000000
74 11395 1 0.16500 119244.000000
74 21643 1 0.16500 119244.000000
75 11395 1 0.16500 119244.000000
75 21034 1 0.16500 119244.000000
76 11395 1 0.16500 119244.000000
76 15763 1 0.16500 119244.000000
77 11395 1 0.16500 119244.000000
77 16593 1 0.16500 119244.000000
78 11396 1 0.16500 119244.000000
78 12443 1 0.16500 119244.000000
79 11396 1 0.16500 119244.000000
79 11785 1 0.16500 119244.000000
80 11396 1 0.16500 119244.000000
80 15122 1 0.16500 119244.000000
81 11396 1 0.16500 119244.000000
81 14672 1 0.16500 119244.000000
82 11397 1 0.16500 119244.000000
82 13791 1 0.16500 119244.000000
83 11397 1 0.16500 119244.000000
83 16596 1 0.16500 119244.000000
84 11397 1 0.16500 119244.000000
84 14691 1 0.16500 119244.000000
85 11397 1 0.16500 119244.000000
85 16446 1 0.16500 119244.000000
86 13549 1 0.16500 119244.000000
86 13575 1 0.16500 119244.000000
87 11398 1 0.16500 119244.000000
87 13169 1 0.16500 119244.000000
88 11398 1 0.16500 119244.000000
88 13575 1 0.16500 119244.000000
89 11398 1 0.16500 119244.000000
89 15766 1 0.16500 119244.000000
90 11399 1 0.16500 119244.000000
90 15458 1 0.16500 119244.000000
91 11399 1 0.16500 119244.000000
91 15869 1 0.16500 119244.000000
92 11399 1 0.16500 119244.000000
92 21784 1 0.16500 119244.000000
93 11400 1 0.16500 119244.000000
93 13754 1 0.16500 119244.000000
94 11400 1 0.16500 119244.000000
94 13508 1 0.16500 119244.000000
95 11400 1 0.16500 119244.000000
95 16167 1 0.16500 119244.000000
96 11400 1 0.16500 119244.000000
96 12629 1 0.16500 119244.000000
97 11401 1 0.16500 119244.000000
97 15498 1 0.16500 119244.000000
98 11401 1 0.16500 119244.000000
98 12970 1 0.16500 119244.000000
99 11401 1 0.16500 119244.000000
99 13859 1 0.16500 119244.000000
100 11401 1 0.16500 119244.000000
100 16033 1 0.16500 119244.000000
101 11402 1 0.16500 119244.000000
101 11648 1 0.16500 119244.000000
102 11402 1 0.16500 119244.000000
102 13955 1 0.16500 119244.000000
103 11402 1 0.16500 119244.000000
103 12409 1 0.16500 119244.000000
104 11402 1 0.16500 119244.000000
104 16176 1 0.16500 119244.000000
105 11403 1 0.16500 119244.000000
105 12097 1 0.16500 119244.000000
106 11403 1 0.16500 119244.000000
106 16545 1 0.16500 119244.000000
107 11403 1 0.16500 119244.000000
107 15935 1 0.16500 119244.000000
108 11403 1 0.16500 119244.000000
108 16179 1 0.16500 119244.000000
109 11404 1 0.16500 119244.000000
109 14660 1 0.16500 119244.000000
110 11404 1 0.16500 119244.000000
110 16102 1 0.16500 119244.000000
111 11404 1 0.16500 119244.000000
111 13519 1 0.16500 119244.000000
112 11404 1 0.16500 119244.000000
112 15810 1 0.16500 119244.000000
113 11405 1 0.16500 119244.000000
113 11775 1 0.16500 119244.000000
114 11405 1 0.16500 119244.000000
114 12535 1 0.16500 119244.000000
115 11405 1 0.16500 119244.000000
115 16088 1 0.16500 119244.000000
116 11405 1 0.16500 119244.000000
116 11832 1 0.16500 119244.000000
117 11406 1 0.16500 119244.000000
117 14340 1 0.16500 119244.000000
118 11406 1 0.16500 119244.000000
118 11829 1 0.16500 119244.000000
119 11406 1 0.16500 119244.000000
119 15110 1 0.16500 119244.000000
120 11406 1 0.16500 119244.000000
120 12604 1 0.16500 119244.000000
121 16567 1 0.16500 119244.000000
121 18430 1 0.16500 119244.000000
122 16510 1 0.16500 119244.000000
122 18430 1 0.16500 119244.000000
123 11499 1 0.16500 119244.000000
123 21184 1 0.16500 119244.000000
124 16478 1 0.16500 119244.000000
124 21184 1 0.16500 119244.000000
125 21184 1 0.16500 119244.000000
125 21337 1 0.16500 119244.000000
126 11407 1 0.16500 119244.000000
126 11837 1 0.16500 119244.000000
127 11407 1 0.16500 119244.000000
127 11409 1 0.16500 119244.000000
128 11407 1 0.16500 119244.000000
128 11843 1 0.16500 119244.000000
129 11407 1 0.16500 119244.000000
129 11737 1 0.16500 119244.000000
130 11408 1 0.16500 119244.000000
130 12840 1 0.16500 119244.000000
131 11408 1 0.16500 119244.000000
131 13726 1 0.16500 119244.000000
132 11408 1 0.16500 119244.000000
132 13643 1 0.16500 119244.000000
133 11408 1 0.16500 119244.000000
133 15555 1 0.16500 119244.000000
134 11409 1 0.16500 119244.000000
134 13205 1 0.16500 119244.000000
135 11409 1 0.16500 119244.000000
135 13494 1 0.16500 119244.000000
136 11409 1 0.16500 119244.000000
136 15222 1 0.16500 119244.000000
137 11410 1 0.16500 119244.000000
137 21211 1 0.16500 119244.000000
138 11410 1 0.16500 119244.000000
138 15209 1 0.16500 119244.000000
139 11410 1 0.16500 119244.000000
139 12210 1 0.16500 119244.000000
140 11411 1 0.16500 119244.000000
140 12609 1 0.16500 119244.000000
141 11411 1 0.16500 119244.000000
141 13686 1 0.16500 119244.000000
142 11411 1 0.16500 119244.000000
142 11953 1 0.16500 119244.000000
143 11411 1 0.16500 119244.000000
143 11860 1 0.16500 119244.000000
144 11412 1 0.16500 119244.000000
144 15205 1 0.16500 119244.000000
145 11412 1 0.16500 119244.000000
145 16756 1 0.16500 119244.000000
146 11412 1 0.16500 119244.000000
146 12219 1 0.16500 119244.000000
147 11412 1 0.16500 119244.000000
147 17932 1 0.16500 119244.000000
148 13836 1 0.16500 119244.000000
148 15027 1 0.16500 119244.000000
149 11413 1 0.16500 119244.000000
149 14822 1 0.16500 119244.000000
150 11413 1 0.16500 119244.000000
150 15027 1 0.16500 119244.000000
151 11413 1 0.16500 119244.000000
151 11660 1 0.16500 119244.000000
152 11414 1 0.16500 119244.000000
152 14590 1 0.16500 119244.000000
153 11414 1 0.16500 119244.000000
153 11793 1 0.16500 119244.000000
154 11414 1 0.16500 119244.000000
154 14704 1 0.16500 119244.000000
155 11414 1 0.16500 119244.000000
155 11847 1 0.16500 119244.000000
156 11415 1 0.16500 119244.000000
156 12113 1 0.16500 119244.000000
157 11415 1 0.16500 119244.000000
157 13440 1 0.16500 119244.000000
158 11415 1 0.16500 119244.000000
158 14041 1 0.16500 119244.000000
159 13562 1 0.16500 119244.000000
159 13676 1 0.16500 119244.000000
160 11416 1 0.16500 119244.000000
160 11690 1 0.16500 119244.000000
161 11416 1 0.16500 119244.000000
161 12691 1 0.16500 119244.000000
162 11416 1 0.16500 119244.000000
162 15165 1 0.16500 119244.000000
163 11417 1 0.16500 119244.000000
163 13202 1 0.16500 119244.000000
164 11417 1 0.16500 119244.000000
164 13427 1 0.16500 119244.000000
165 11417 1 0.16500 119244.000000
165 16111 1 0.16500 119244.000000
166 11417 1 0.16500 119244.000000
166 14653 1 0.16500 119244.000000
167 11418 1 0.16500 119244.000000
167 13687 1 0.16500 119244.000000
168 11418 1 0.16500 119244.000000
168 18418 1 0.16500 119244.000000
169 11418 1 0.16500 119244.000000
169 14109 1 0.16500 119244.000000
170 11419 1 0.16500 119244.000000
170 16179 1 0.16500 119244.000000
171 11419 1 0.16500 119244.000000
171 12072 1 0.16500 119244.000000
172 11419 1 0.16500 119244.000000
172 13418 1 0.16500 119244.000000
173 11419 1 0.16500 119244.000000
173 15568 1 0.16500 119244.000000
174 11420 1 0.16500 119244.000000
174 21502 1 0.16500 119244.000000
175 11420 1 0.16500 119244.000000
175 15075 1 0.16500 119244.000000
176 11420 1 0.16500 119244.000000
176 11546 1 0.16500 119244.000000
177 11420 1 0.16500 119244.000000
177 16616 1 0.16500 119244.000000
178 17526 1 0.16500 119244.000000
178 19258 1 0.16500 119244.000000
179 16141 1 0.16500 119244.000000
179 19258 1 0.16500 119244.000000
180 11421 1 0.16500 119244.000000
180 12711 1 0.16500 119244.000000
181 11421 1 0.16500 119244.000000
181 21577 1 0.16500 119244.000000
182 11421 1 0.16500 119244.000000
182 16017 1 0.16500 119244.000000
183 11421 1 0.16500 119244.000000
183 16083 1 0.16500 119244.000000
184 11422 1 0.16500 119244.000000
184 14461 1 0.16500 119244.000000
185 11422 1 0.16500 119244.000000
185 13283 1 0.16500 119244.000000
186 11422 1 0.16500 119244.000000
186 12616 1 0.16500 119244.000000
187 11422 1 0.16500 119244.000000
187 13763 1 0.16500 119244.000000
188 11423 1 0.16500 119244.000000
188 15681 1 0.16500 119244.000000
189 11423 1 0.16500 119244.000000
189 13665 1 0.16500 119244.000000
190 11423 1 0.16500 119244.000000
190 15364 1 0.16500 119244.000000
191 11423 1 0.16500 119244.000000
191 12080 1 0.16500 119244.000000
192 14087 1 0.16500 119244.000000
192 21949 1 0.16500 119244.000000
193 11424 1 0.16500 119244.000000
193 12991 1 0.16500 119244.000000
194 11424 1 0.16500 119244.000000
194 14711 1 0.16500 119244.000000
195 11424 1 0.16500 119244.000000
195 14545 1 0.16500 119244.000000
196 11424 1 0.16500 119244.000000
196 12468 1 0.16500 119244.000000
197 11425 1 0.16500 119244.000000
197 16353 1 0.16500 119244.000000
198 11425 1 0.16500 119244.000000
198 13965 1 0.16500 119244.000000
199 11425 1 0.16500 119244.000000
199 14250 1 0.16500 119244.000000
200 11425 1 0.16500 119244.000000
200 12388 1 0.16500 119244.000000
201 11426 1 0.16500 119244.000000
201 15261 1 0.16500 119244.000000
202 11426 1 0.16500 119244.000000
202 15052 1 0.16500 119244.000000
203 11426 1 0.16500 119244.000000
203 13291 1 0.16500 119244.000000
204 12483 1 0.16500 119244.000000
204 15052 1 0.16500 119244.000000
205 21673 1 0.16500 119244.000000
205 21999 1 0.16500 119244.000000
206 11427 1 0.16500 119244.000000
206 15899 1 0.16500 119244.000000
207 11427 1 0.16500 119244.000000
207 21673 1 0.16500 119244.000000
208 11427 1 0.16500 119244.000000
208 11769 1 0.16500 119244.000000
209 11428 1 0.16500 119244.000000
209 12985 1 0.16500 119244.000000
210 11428 1 0.16500 119244.000000
210 16524 1 0.16500 119244.000000
211 11428 1 0.16500 119244.000000
211 15720 1 0.16500 119244.000000
212 11428 1 0.16500 119244.000000
212 16344 1 0.16500 119244.000000
213 13077 1 0.16500 119244.000000
213 16509 1 0.16500 119244.000000
214 11429 1 0.16500 119244.000000
214 13077 1 0.16500 119244.000000
215 11429 1 0.16500 119244.000000
215 14212 1 0.16500 119244.000000
216 11429 1 0.16500 119244.000000
216 13229 1 0.16500 119244.000000
217 11430 1 0.16500 119244.000000
217 14228 1 0.16500 119244.000000
218 11430 1 0.16500 119244.000000
218 15494 1 0.16500 119244.000000
219 11430 1 0.16500 119244.000000
219 12283 1 0.16500 119244.000000
220 11430 1 0.16500 119244.000000
220 15668 1 0.16500 119244.000000
221 11431 1 0.16500 119244.000000
221 19534 1 0.16500 119244.000000
222 11431 1 0.16500 119244.000000
222 13059 1 0.16500 119244.000000
223 11431 1 0.16500 119244.000000
223 16357 1 0.16500 119244.000000
224 11432 1 0.16500 119244.000000
224 16502 1 0.16500 119244.000000
225 11432 1 0.16500 119244.000000
225 13830 1 0.16500 119244.000000
226 11432 1 0.16500 119244.000000
226 11773 1 0.16500 119244.000000
227 11432 1 0.16500 119244.000000
227 16381 1 0.16500 119244.000000
228 11433 1 0.16500 119244.000000
228 13417 1 0.16500 119244.000000
229 11433 1 0.16500 119244.000000
229 14013 1 0.16500 119244.000000
230 11433 1 0.16500 119244.000000
230 12012 1 0.16500 119244.000000
231 11433 1 0.16500 119244.000000
231 16042 1 0.16500 119244.000000
232 20506 1 0.16500 119244.000000
232 20962 1 0.16500 119244.000000
233 16131 1 0.16500 119244.000000
233 20506 1 0.16500 119244.000000
234 15176 1 0.16500 119244.000000
234 20506 1 0.16500 119244.000000
235 14069 1 0.16500 119244.000000
235 16258 1 0.16500 119244.000000
236 14069 1 0.16500 119244.000000
236 14521 1 0.16500 119244.000000
237 11434 1 0.16500 119244.000000
237 14069 1 0.16500 119244.000000
238 13254 1 0.16500 119244.000000
238 14069 1 0.16500 119244.000000
239 20770 1 0.16500 119244.000000
239 21187 1 0.16500 119244.000000
240 15817 1 0.16500 119244.000000
240 21187 1 0.16500 119244.000000
241 19330 1 0.16500 119244.000000
241 21187 1 0.16500 119244.000000
242 11435 1 0.16500 119244.000000
242 15989 1 0.16500 119244.000000
243 11435 1 0.16500 119244.000000
243 13452 1 0.16500 119244.000000
244 11435 1 0.16500 119244.000000
244 14866 1 0.16500 119244.000000
245 11436 1 0.16500 119244.000000
245 20878 1 0.16500 119244.000000
246 11437 1 0.16500 119244.000000
246 12873 1 0.16500 119244.000000
247 11437 1 0.16500 119244.000000
247 16461 1 0.16500 119244.000000
248 11437 1 0.16500 119244.000000
248 12924 1 0.16500 119244.000000
249 11437 1 0.16500 119244.000000
249 11507 1 0.16500 119244.000000
250 11800 1 0.16500 119244.000000
250 13623 1 0.16500 119244.000000
251 11438 1 0.16500 119244.000000
251 15133 1 0.16500 119244.000000
252 11438 1 0.16500 119244.000000
252 14245 1 0.16500 119244.000000
253 11438 1 0.16500 119244.000000
253 13623 1 0.16500 119244.000000
254 11896 1 0.16500 119244.000000
254 21190 1 0.16500 119244.000000
255 21190 1 0.16500 119244.000000
255 21265 1 0.16500 119244.000000
256 11439 1 0.16500 119244.000000
256 14003 1 0.16500 119244.000000
257 11439 1 0.16500 119244.000000
257 13802 1 0.16500 119244.000000
258 11439 1 0.16500 119244.000000
258 14801 1 0.16500 119244.000000
259 11439 1 0.16500 119244.000000
259 14068 1 0.16500 119244.000000
260 11440 1 0.16500 119244.000000
260 20326 1 0.16500 119244.000000
261 11440 1 0.16500 119244.000000
261 12100 1 0.16500 119244.000000
262 11440 1 0.16500 119244.000000
262 18742 1 0.16500 119244.000000
263 11440 1 0.16500 119244.000000
263 21193 1 0.16500 119244.000000
264 11441 1 0.16500 119244.000000
264 15981 1 0.16500 119244.000000
265 11441 1 0.16500 119244.000000
265 14463 1 0.16500 119244.000000
266 11441 1 0.16500 119244.000000
266 16569 1 0.16500 119244.000000
267 11441 1 0.16500 119244.000000
267 12280 1 0.16500 119244.000000
268 11442 1 0.16500 119244.000000
268 12833 1 0.16500 119244.000000
269 11442 1 0.16500 119244.000000
269 12965 1 0.16500 119244.000000
270 11442 1 0.16500 119244.000000
270 15611 1 0.16500 119244.000000
271 11442 1 0.16500 119244.000000
271 11477 1 0.16500 119244.000000
272 11443 1 0.16500 119244.000000
272 21880 1 0.16500 119244.000000
273 11443 1 0.16500 119244.000000
273 14103 1 0.16500 119244.000000
274 11443 1 0.16500 119244.000000
274 20818 1 0.16500 119244.000000
275 11444 1 0.16500 119244.000000
275 14756 1 0.16500 119244.000000
276 11444 1 0.16500 119244.000000
276 15616 1 0.16500 119244.000000
277 11444 1 0.16500 119244.000000
277 12169 1 0.16500 119244.000000
278 11444 1 0.16500 119244.000000
278 14461 1 0.16500 119244.000000
279 11445 1 0.16500 119244.000000
279 13437 1 0.16500 119244.000000
280 11445 1 0.16500 119244.000000
280 11997 1 0.16500 119244.000000
281 11445 1 0.16500 119244.000000
281 15319 1 0.16500 119244.000000
282 11445 1 0.16500 119244.000000
282 13935 1 0.16500 119244.000000
283 14864 1 0.16500 119244.000000
283 20230 1 0.16500 119244.000000
284 13080 1 0.16500 119244.000000
284 20230 1 0.16500 119244.000000
285 18002 1 0.16500 119244.000000
285 20230 1 0.16500 119244.000000
286 11446 1 0.16500 119244.000000
286 12298 1 0.16500 119244.000000
287 11446 1 0.16500 119244.000000
287 13071 1 0.16500 119244.000000
288 11446 1 0.16500 119244.000000
288 14546 1 0.16500 119244.000000
289 11446 1 0.16500 119244.000000
289 11454 1 0.16500 119244.000000
290 11447 1 0.16500 119244.000000
290 11886 1 0.16500 119244.000000
291 11447 1 0.16500 119244.000000
291 12230 1 0.16500 119244.000000
292 11447 1 0.16500 119244.000000
292 11528 1 0.16500 119244.000000
293 11886 1 0.16500 119244.000000
293 12774 1 0.16500 119244.000000
294 11448 1 0.16500 119244.000000
294 14613 1 0.16500 119244.000000
295 11448 1 0.16500 119244.000000
295 16000 1 0.16500 119244.000000
296 11448 1 0.16500 119244.000000
296 13506 1 0.16500 119244.000000
297 13506 1 0.16500 119244.000000
297 13829 1 0.16500 119244.000000
298 11449 1 0.16500 119244.000000
298 15403 1 0.16500 119244.000000
299 11449 1 0.16500 119244.000000
299 15529 1 0.16500 119244.000000
300 11449 1 0.16500 119244.000000
300 12095 1 0.16500 119244.000000
301 11449 1 0.16500 119244.000000
301 12078 1 0.16500 119244.000000
302 11450 1 0.16500 119244.000000
302 14455 1 0.16500 119244.000000
303 11450 1 0.16500 119244.000000
303 12154 1 0.16500 119244.000000
304 11450 1 0.16500 119244.000000
304 14276 1 0.16500 119244.000000
305 11450 1 0.16500 119244.000000
305 15612 1 0.16500 119244.000000
306 11451 1 0.16500 119244.000000
306 17302 1 0.16500 119244.000000
307 11451 1 0.16500 119244.000000
307 13092 1 0.16500 119244.000000
308 11451 1 0.16500 119244.000000
308 14582 1 0.16500 119244.000000
309 11451 1 0.16500 119244.000000
309 16147 1 0.16500 119244.000000
310 11452 1 0.16500 119244.000000
310 12568 1 0.16500 119244.000000
311 11452 1 0.16500 119244.000000
311 11710 1 0.16500 119244.000000
312 11452 1 0.16500 119244.000000
312 15328 1 0.16500 119244.000000
313 11452 1 0.16500 119244.000000
313 16533 1 0.16500 119244.000000
314 21193 1 0.16500 119244.000000
314 21682 1 0.16500 119244.000000
315 12855 1 0.16500 119244.000000
315 21193 1 0.16500 119244.000000
316 11453 1 0.16500 119244.000000
316 11676 1 0.16500 119244.000000
317 11453 1 0.16500 119244.000000
317 12799 1 0.16500 119244.000000
318 11453 1 0.16500 119244.000000
318 14196 1 0.16500 119244.000000
319 11453 1 0.16500 119244.000000
319 15782 1 0.16500 119244.000000
320 15914 1 0.16500 119244.000000
320 16812 1 0.16500 119244.000000
321 11454 1 0.16500 119244.000000
321 15316 1 0.16500 119244.000000
322 11454 1 0.16500 119244.000000
322 12080 1 0.16500 119244.000000
323 11454 1 0.16500 119244.000000
323 16210 1 0.16500 119244.000000
324 11455 1 0.16500 119244.000000
324 15084 1 0.16500 119244.000000
325 11455 1 0.16500 119244.000000
325 14227 1 0.16500 119244.000000
326 11455 1 0.16500 119244.000000
326 15448 1 0.16500 119244.000000
327 11455 1 0.16500 119244.000000
327 13914 1 0.16500 119244.000000
328 11456 1 0.16500 119244.000000
328 11786 1 0.16500 119244.000000
329 11456 1 0.16500 119244.000000
329 14721 1 0.16500 119244.000000
330 11456 1 0.16500 119244.000000
330 16544 1 0.16500 119244.000000
331 11456 1 0.16500 119244.000000
331 11618 1 0.16500 119244.000000
332 11457 1 0.16500 119244.000000
332 15690 1 0.16500 119244.000000
333 11457 1 0.16500 119244.000000
333 12228 1 0.16500 119244.000000
334 11457 1 0.16500 119244.000000
334 12115 1 0.16500 119244.000000
335 11457 1 0.16500 119244.000000
335 13939 1 0.16500 119244.000000
336 12819 1 0.16500 119244.000000
336 15469 1 0.16500 119244.000000
337 15097 1 0.16500 119244.000000
337 15469 1 0.16500 119244.000000
338 11458 1 0.16500 119244.000000
338 16456 1 0.16500 119244.000000
339 11733 1 0.16500 119244.000000
339 15469 1 0.16500 119244.000000
340 11459 1 0.16500 119244.000000
340 12681 1 0.16500 119244.000000
341 11459 1 0.16500 119244.000000
341 13918 1 0.16500 119244.000000
342 11459 1 0.16500 119244.000000
342 12776 1 0.16500 119244.000000
343 11459 1 0.16500 119244.000000
343 14579 1 0.16500 119244.000000
344 11460 1 0.16500 119244.000000
344 14772 1 0.16500 119244.000000
345 11460 1 0.16500 119244.000000
345 11779 1 0.16500 119244.000000
346 11460 1 0.16500 119244.000000
346 15106 1 0.16500 119244.000000
347 11460 1 0.16500 119244.000000
347 11515 1 0.16500 119244.000000
348 16798 1 0.16500 119244.000000
348 21856 1 0.16500 119244.000000
349 14131 1 0.16500 119244.000000
349 21856 1 0.16500 119244.000000
350 21196 1 0.16500 119244.000000
350 21856 1 0.16500 119244.000000
351 14398 1 0.16500 119244.000000
351 21196 1 0.16500 119244.000000
352 11461 1 0.16500 119244.000000
352 15924 1 0.16500 119244.000000
353 11461 1 0.16500 119244.000000
353 13685 1 0.16500 119244.000000
354 11461 1 0.16500 119244.000000
354 14467 1 0.16500 119244.000000
355 11461 1 0.16500 119244.000000
355 16347 1 0.16500 119244.000000
356 11462 1 0.16500 119244.000000
356 21070 1 0.16500 119244.000000
357 11462 1 0.16500 119244.000000
357 15674 1 0.16500 119244.000000
358 11462 1 0.16500 119244.000000
358 15124 1 0.16500 119244.000000
359 11462 1 0.16500 119244.000000
359 13999 1 0.16500 119244.000000
360 11463 1 0.16500 119244.000000
360 12763 1 0.16500 119244.000000
361 11463 1 0.16500 119244.000000
361 15901 1 0.16500 119244.000000
362 11463 1 0.16500 119244.000000
362 11565 1 0.16500 119244.000000
363 11463 1 0.16500 119244.000000
363 12511 1 0.16500 119244.000000
364 11464 1 0.16500 119244.000000
364 16465 1 0.16500 119244.000000
365 11464 1 0.16500 119244.000000
365 16234 1 0.16500 119244.000000
366 11464 1 0.16500 119244.000000
366 12725 1 0.16500 119244.000000
367 11464 1 0.16500 119244.000000
367 14386 1 0.16500 119244.000000
368 13861 1 0.16500 119244.000000
368 16268 1 0.16500 119244.000000
369 16268 1 0.16500 119244.000000
369 19942 1 0.16500 119244.000000
370 12396 1 0.16500 119244.000000
370 16268 1 0.16500 119244.000000
371 13144 1 0.16500 119244.000000
371 20470 1 0.16500 119244.000000
372 11465 1 0.16500 119244.000000
372 13144 1 0.16500 119244.000000
373 13144 1 0.16500 119244.000000
373 15534 1 0.16500 119244.000000
374 11465 1 0.16500 119244.000000
374 16826 1 0.16500 119244.000000
375 11527 1 0.16500 119244.000000
375 11859 1 0.16500 119244.000000
376 11859 1 0.16500 119244.000000
376 12751 1 0.16500 119244.000000
377 11466 1 0.16500 119244.000000
377 19198 1 0.16500 119244.000000
378 11466 1 0.16500 119244.000000
378 11859 1 0.16500 119244.000000
379 11467 1 0.16500 119244.000000
379 12664 1 0.16500 119244.000000
380 11467 1 0.16500 119244.000000
380 13642 1 0.16500 119244.000000
381 11467 1 0.16500 119244.000000
381 14166 1 0.16500 119244.000000
382 11467 1 0.16500 119244.000000
382 16457 1 0.16500 119244.000000
383 11468 1 0.16500 119244.000000
383 21568 1 0.16500 119244.000000
384 11468 1 0.16500 119244.000000
384 15357 1 0.16500 119244.000000
385 11468 1 0.16500 119244.000000
385 15865 1 0.16500 119244.000000
386 11468 1 0.16500 119244.000000
386 14440 1 0.16500 119244.000000
387 11469 1 0.16500 119244.000000
387 15474 1 0.16500 119244.000000
388 11469 1 0.16500 119244.000000
388 11535 1 0.16500 119244.000000
389 11469 1 0.16500 119244.000000
389 12974 1 0.16500 119244.000000
390 11469 1 0.16500 119244.000000
390 11685 1 0.16500 119244.000000
391 11470 1 0.16500 119244.000000
391 13387 1 0.16500 119244.000000
392 11470 1 0.16500 119244.000000
392 13128 1 0.16500 119244.000000
393 11470 1 0.16500 119244.000000
393 11888 1 0.16500 119244.000000
394 11470 1 0.16500 119244.000000
394 12593 1 0.16500 119244.000000
395 18212 1 0.16500 119244.000000
395 18310 1 0.16500 119244.000000
396 11851 1 0.16500 119244.000000
396 18310 1 0.16500 119244.000000
397 11471 1 0.16500 119244.000000
397 14242 1 0.16500 119244.000000
398 11633 1 0.16500 119244.000000
398 14422 1 0.16500 119244.000000
399 11471 1 0.16500 119244.000000
399 12606 1 0.16500 119244.000000
400 11471 1 0.16500 119244.000000
400 14422 1 0.16500 119244.000000
401 11472 1 0.16500 119244.000000
401 11543 1 0.16500 119244.000000
402 11472 1 0.16500 119244.000000
402 14153 1 0.16500 119244.000000
403 11472 1 0.16500 119244.000000
403 16548 1 0.16500 119244.000000
404 11472 1 0.16500 119244.000000
404 11576 1 0.16500 119244.000000
405 11473 1 0.16500 119244.000000
405 15666 1 0.16500 119244.000000
406 11473 1 0.16500 119244.000000
406 13058 1 0.16500 119244.000000
407 13610 1 0.16500 119244.000000
407 15311 1 0.16500 119244.000000
408 11473 1 0.16500 119244.000000
408 15311 1 0.16500 119244.000000
409 11474 1 0.16500 119244.000000
409 12456 1 0.16500 119244.000000
410 11474 1 0.16500 119244.000000
410 13006 1 0.16500 119244.000000
411 11474 1 0.16500 119244.000000
411 14173 1 0.16500 119244.000000
412 11474 1 0.16500 119244.000000
412 16290 1 0.16500 119244.000000
413 11475 1 0.16500 119244.000000
413 13137 1 0.16500 119244.000000
414 11475 1 0.16500 119244.000000
414 16568 1 0.16500 119244.000000
415 11475 1 0.16500 119244.000000
415 12594 1 0.16500 119244.000000
416 11475 1 0.16500 119244.000000
416 20350 1 0.16500 119244.000000
417 19570 1 0.16500 119244.000000
417 21199 1 0.16500 119244.000000
418 13261 1 0.16500 119244.000000
418 21199 1 0.16500 119244.000000
419 16425 1 0.16500 119244.000000
419 21199 1 0.16500 119244.000000
420 11476 1 0.16500 119244.000000
420 13228 1 0.16500 119244.000000
421 11476 1 0.16500 119244.000000
421 14077 1 0.16500 119244.000000
422 11476 1 0.16500 119244.000000
422 13977 1 0.16500 119244.000000
423 11476 1 0.16500 119244.000000
423 13176 1 0.16500 119244.000000
424 11477 1 0.16500 119244.000000
424 14297 1 0.16500 119244.000000
425 11477 1 0.16500 119244.000000
425 12752 1 0.16500 119244.000000
426 11477 1 0.16500 119244.000000
426 11507 1 0.16500 119244.000000
427 11478 1 0.16500 119244.000000
427 15864 1 0.16500 119244.000000
428 11478 1 0.16500 119244.000000
428 16438 1 0.16500 119244.000000
429 11478 1 0.16500 119244.000000
429 14202 1 0.16500 119244.000000
430 11478 1 0.16500 119244.000000
430 11581 1 0.16500 119244.000000
431 11479 1 0.16500 119244.000000
431 12738 1 0.16500 119244.000000
432 11479 1 0.16500 119244.000000
432 12815 1 0.16500 119244.000000
433 11479 1 0.16500 119244.000000
433 13455 1 0.16500 119244.000000
434 11479 1 0.16500 119244.000000
434 15762 1 0.16500 119244.000000
435 12085 1 0.16500 119244.000000
435 14362 1 0.16500 119244.000000
436 11480 1 0.16500 119244.000000
436 12085 1 0.16500 119244.000000
437 11480 1 0.16500 119244.000000
437 13115 1 0.16500 119244.000000
438 11480 1 0.16500 119244.000000
438 13957 1 0.16500 119244.000000
439 11481 1 0.16500 119244.000000
439 13483 1 0.16500 119244.000000
440 11481 1 0.16500 119244.000000
440 21316 1 0.16500 119244.000000
441 11482 1 0.16500 119244.000000
441 19642 1 0.16500 119244.000000
442 11482 1 0.16500 119244.000000
442 17414 1 0.16500 119244.000000
443 11482 1 0.16500 119244.000000
443 15265 1 0.16500 119244.000000
444 11482 1 0.16500 119244.000000
444 15769 1 0.16500 119244.000000
445 11483 1 0.16500 119244.000000
445 11532 1 0.16500 119244.000000
446 11483 1 0.16500 119244.000000
446 12736 1 0.16500 119244.000000
447 11483 1 0.16500 119244.000000
447 14064 1 0.16500 119244.000000
448 11483 1 0.16500 119244.000000
448 14760 1 0.16500 119244.000000
449 13130 1 0.16500 119244.000000
449 21202 1 0.16500 119244.000000
450 21202 1 0.16500 119244.000000
450 21280 1 0.16500 119244.000000
451 11484 1 0.16500 119244.000000
451 13519 1 0.16500 119244.000000
452 11484 1 0.16500 119244.000000
452 15913 1 0.16500 119244.000000
453 11484 1 0.16500 119244.000000
453 14361 1 0.16500 119244.000000
454 11484 1 0.16500 119244.000000
454 12834 1 0.16500 119244.000000
455 11485 1 0.16500 119244.000000
455 14441 1 0.16500 119244.000000
456 11485 1 0.16500 119244.000000
456 11895 1 0.16500 119244.000000
457 11485 1 0.16500 119244.000000
457 12392 1 0.16500 119244.000000
458 11485 1 0.16500 119244.000000
458 19702 1 0.16500 119244.000000
459 16367 1 0.16500 119244.000000
459 17764 1 0.16500 119244.000000
460 17610 1 0.16500 119244.000000
460 17764 1 0.16500 119244.000000
461 11486 1 0.16500 119244.000000
461 15545 1 0.16500 119244.000000
462 11486 1 0.16500 119244.000000
462 13370 1 0.16500 119244.000000
463 11486 1 0.16500 119244.000000
463 14879 1 0.16500 119244.000000
464 11486 1 0.16500 119244.000000
464 15556 1 0.16500 119244.000000
465 11487 1 0.16500 119244.000000
465 16492 1 0.16500 119244.000000
466 11487 1 0.16500 119244.000000
466 16287 1 0.16500 119244.000000
467 11487 1 0.16500 119244.000000
467 13904 1 0.16500 119244.000000
468 11487 1 0.16500 119244.000000
468 13014 1 0.16500 119244.000000
469 11488 1 0.16500 119244.000000
469 21730 1 0.16500 119244.000000
470 11488 1 0.16500 119244.000000
470 12100 1 0.16500 119244.000000
471 11488 1 0.16500 119244.000000
471 15584 1 0.16500 119244.000000
472 11488 1 0.16500 119244.000000
472 14451 1 0.16500 119244.000000
473 11489 1 0.16500 119244.000000
473 13127 1 0.16500 119244.000000
474 11489 1 0.16500 119244.000000
474 14980 1 0.16500 119244.000000
475 11490 1 0.16500 119244.000000
475 13894 1 0.16500 119244.000000
476 11490 1 0.16500 119244.000000
476 14800 1 0.16500 119244.000000
477 11490 1 0.16500 119244.000000
477 14899 1 0.16500 119244.000000
478 11490 1 0.16500 119244.000000
478 13348 1 0.16500 119244.000000
479 11491 1 0.16500 119244.000000
479 15531 1 0.16500 119244.000000
480 12477 1 0.16500 119244.000000
480 14004 1 0.16500 119244.000000
481 16345 1 0.16500 119244.000000
481 20758 1 0.16500 119244.000000
482 11491 1 0.16500 119244.000000
482 20758 1 0.16500 119244.000000
483 11492 1 0.16500 119244.000000
483 12949 1 0.16500 119244.000000
484 11492 1 0.16500 119244.000000
484 12870 1 0.16500 119244.000000
485 11492 1 0.16500 119244.000000
485 14587 1 0.16500 119244.000000
486 11492 1 0.16500 119244.000000
486 14177 1 0.16500 119244.000000
487 11493 1 0.16500 119244.000000
487 11981 1 0.16500 119244.000000
488 11493 1 0.16500 119244.000000
488 11600 1 0.16500 119244.000000
489 11493 1 0.16500 119244.000000
489 16198 1 0.16500 119244.000000
490 11493 1 0.16500 119244.000000
490 13247 1 0.16500 119244.000000
491 11494 1 0.16500 119244.000000
491 21979 1 0.16500 119244.000000
492 11494 1 0.16500 119244.000000
492 14012 1 0.16500 119244.000000
493 11494 1 0.16500 119244.000000
493 16568 1 0.16500 119244.000000
494 11494 1 0.16500 119244.000000
494 15847 1 0.16500 119244.000000
495 13693 1 0.16500 119244.000000
495 16167 1 0.16500 119244.000000
496 11495 1 0.16500 119244.000000
496 15617 1 0.16500 119244.000000
497 11495 1 0.16500 119244.000000
497 13693 1 0.16500 119244.000000
498 11495 1 0.16500 119244.000000
498 15419 1 0.16500 119244.000000
499 14874 1 0.16500 119244.000000
499 16966 1 0.16500 119244.000000
500 11496 1 0.16500 119244.000000
500 14884 1 0.16500 119244.000000
501 11496 1 0.16500 119244.000000
501 11874 1 0.16500 119244.000000
502 11496 1 0.16500 119244.000000
502 15170 1 0.16500 119244.000000
503 11496 1 0.16500 119244.000000
503 11503 1 0.16500 119244.000000
504 11497 1 0.16500 119244.000000
504 15243 1 0.16500 119244.000000
505 11497 1 0.16500 119244.000000
505 13240 1 0.16500 119244.000000
506 11497 1 0.16500 119244.000000
506 14671 1 0.16500 119244.000000
507 11497 1 0.16500 119244.000000
507 12437 1 0.16500 119244.000000
508 11498 1 0.16500 119244.000000
508 13496 1 0.16500 119244.000000
509 11498 1 0.16500 119244.000000
509 13631 1 0.16500 119244.000000
510 11498 1 0.16500 119244.000000
510 13420 1 0.16500 119244.000000
511 11498 1 0.16500 119244.000000
511 15569 1 0.16500 119244.000000
512 11499 1 0.16500 119244.000000
512 18226 1 0.16500 119244.000000
513 11499 1 0.16500 119244.000000
513 12247 1 0.16500 119244.000000
514 11499 1 0.16500 119244.000000
514 15410 1 0.16500 119244.000000
515 13183 1 0.16500 119244.000000
515 21205 1 0.16500 119244.000000
516 15999 1 0.16500 119244.000000
516 21205 1 0.16500 119244.000000
517 14845 1 0.16500 119244.000000
517 21205 1 0.16500 119244.000000
518 15936 1 0.16500 119244.000000
518 21058 1 0.16500 119244.000000
519 12647 1 0.16500 119244.000000
519 21058 1 0.16500 119244.000000
520 16443 1 0.16500 119244.000000
520 21058 1 0.16500 119244.000000
521 11500 1 0.16500 119244.000000
521 21463 1 0.16500 119244.000000
522 11500 1 0.16500 119244.000000
522 15366 1 0.16500 119244.000000
523 12690 1 0.16500 119244.000000
523 21463 1 0.16500 119244.000000
524 11500 1 0.16500 119244.000000
524 12251 1 0.16500 119244.000000
525 11501 1 0.16500 119244.000000
525 16333 1 0.16500 119244.000000
526 11501 1 0.16500 119244.000000
526 16542 1 0.16500 119244.000000
527 11501 1 0.16500 119244.000000
527 16389 1 0.16500 119244.000000
528 11501 1 0.16500 119244.000000
528 11907 1 0.16500 119244.000000
529 11502 1 0.16500 119244.000000
529 12580 1 0.16500 119244.000000
530 11502 1 0.16500 119244.000000
530 15582 1 0.16500 119244.000000
531 11502 1 0.16500 119244.000000
531 11667 1 0.16500 119244.000000
532 11502 1 0.16500 119244.000000
532 15722 1 0.16500 119244.000000
533 11503 1 0.16500 119244.000000
533 12159 1 0.16500 119244.000000
534 11503 1 0.16500 119244.000000
534 15413 1 0.16500 119244.000000
535 11503 1 0.16500 119244.000000
535 12998 1 0.16500 119244.000000
536 11504 1 0.16500 119244.000000
536 15814 1 0.16500 119244.000000
537 11504 1 0.16500 119244.000000
537 12399 1 0.16500 119244.000000
538 11504 1 0.16500 119244.000000
538 15907 1 0.16500 119244.000000
539 11505 1 0.16500 119244.000000
539 13987 1 0.16500 119244.000000
540 11505 1 0.16500 119244.000000
540 15719 1 0.16500 119244.000000
541 11505 1 0.16500 119244.000000
541 13571 1 0.16500 119244.000000
542 11505 1 0.16500 119244.000000
542 12877 1 0.16500 119244.000000
543 12312 1 0.16500 119244.000000
543 12616 1 0.16500 119244.000000
544 12616 1 0.16500 119244.000000
544 16310 1 0.16500 119244.000000
545 11506 1 0.16500 119244.000000
545 12616 1 0.16500 119244.000000
546 11507 1 0.16500 119244.000000
546 12896 1 0.16500 119244.000000
547 11507 1 0.16500 119244.000000
547 12478 1 0.16500 119244.000000
548 11508 1 0.16500 119244.000000
548 16067 1 0.16500 119244.000000
549 11508 1 0.16500 119244.000000
549 14326 1 0.16500 119244.000000
550 11508 1 0.16500 119244.000000
550 15601 1 0.16500 119244.000000
551 11508 1 0.16500 119244.000000
551 15867 1 0.16500 119244.000000
552 11509 1 0.16500 119244.000000
552 13248 1 0.16500 119244.000000
553 11509 1 0.16500 119244.000000
553 11655 1 0.16500 119244.000000
554 11509 1 0.16500 119244.000000
554 15787 1 0.16500 119244.000000
555 11655 1 0.16500 119244.000000
555 13053 1 0.16500 119244.000000
556 16234 1 0.16500 119244.000000
556 21208 1 0.16500 119244.000000
557 13466 1 0.16500 119244.000000
557 21208 1 0.16500 119244.000000
558 13942 1 0.16500 119244.000000
558 21208 1 0.16500 119244.000000
559 11510 1 0.16500 119244.000000
559 12517 1 0.16500 119244.000000
560 11510 1 0.16500 119244.000000
560 11801 1 0.16500 119244.000000
561 11510 1 0.16500 119244.000000
561 12808 1 0.16500 119244.000000
562 11511 1 0.16500 119244.000000
562 16525 1 0.16500 119244.000000
563 11511 1 0.16500 119244.000000
563 12401 1 0.16500 119244.000000
564 11511 1 0.16500 119244.000000
564 15082 1 0.16500 119244.000000
565 11511 1 0.16500 119244.000000
565 14079 1 0.16500 119244.000000
566 11512 1 0.16500 119244.000000
566 12119 1 0.16500 119244.000000
567 11512 1 0.16500 119244.000000
567 14076 1 0.16500 119244.000000
568 11512 1 0.16500 119244.000000
568 15010 1 0.16500 119244.000000
569 11512 1 0.16500 119244.000000
569 13223 1 0.16500 119244.000000
570 11513 1 0.16500 119244.000000
570 11639 1 0.16500 119244.000000
571 11513 1 0.16500 119244.000000
571 12548 1 0.16500 119244.000000
572 11513 1 0.16500 119244.000000
572 16398 1 0.16500 119244.000000
573 11513 1 0.16500 119244.000000
573 13414 1 0.16500 119244.000000
574 11514 1 0.16500 119244.000000
574 14767 1 0.16500 119244.000000
575 11514 1 0.16500 119244.000000
575 15453 1 0.16500 119244.000000
576 11514 1 0.16500 119244.000000
576 13305 1 0.16500 119244.000000
577 11514 1 0.16500 119244.000000
577 12426 1 0.16500 119244.000000
578 14609 1 0.16500 119244.000000
578 21211 1 0.16500 119244.000000
579 21211 1 0.16500 119244.000000
579 21313 1 0.16500 119244.000000
580 11515 1 0.16500 119244.000000
580 12114 1 0.16500 119244.000000
581 11515 1 0.16500 119244.000000
581 11960 1 0.16500 119244.000000
582 11515 1 0.16500 119244.000000
582 13620 1 0.16500 119244.000000
583 14674 1 0.16500 119244.000000
583 21954 1 0.16500 119244.000000
584 13337 1 0.16500 119244.000000
584 21954 1 0.16500 119244.000000
585 11516 1 0.16500 119244.000000
585 16085 1 0.16500 119244.000000
586 11516 1 0.16500 119244.000000
586 15456 1 0.16500 119244.000000
587 11516 1 0.16500 119244.000000
587 16461 1 0.16500 119244.000000
588 11516 1 0.16500 119244.000000
588 12248 1 0.16500 119244.000000
589 11517 1 0.16500 119244.000000
589 14619 1 0.16500 119244.000000
590 11517 1 0.16500 119244.000000
590 16322 1 0.16500 119244.000000
591 11517 1 0.16500 119244.000000
591 12371 1 0.16500 119244.000000
592 11517 1 0.16500 119244.000000
592 13114 1 0.16500 119244.000000
593 11518 1 0.16500 119244.000000
593 12192 1 0.16500 119244.000000
594 11518 1 0.16500 119244.000000
594 14637 1 0.16500 119244.000000
595 11518 1 0.16500 119244.000000
595 15633 1 0.16500 119244.000000
596 11518 1 0.16500 119244.000000
596 14804 1 0.16500 119244.000000
597 11519 1 0.16500 119244.000000
597 14424 1 0.16500 119244.000000
598 11519 1 0.16500 119244.000000
598 17190 1 0.16500 119244.000000
599 11519 1 0.16500 119244.000000
599 11569 1 0.16500 119244.000000
600 11519 1 0.16500 119244.000000
600 13243 1 0.16500 119244.000000
601 11520 1 0.16500 119244.000000
601 17456 1 0.16500 119244.000000
602 11520 1 0.16500 119244.000000
602 15472 1 0.16500 119244.000000
603 11520 1 0.16500 119244.000000
603 21691 1 0.16500 119244.000000
604 11521 1 0.16500 119244.000000
604 14474 1 0.16500 119244.000000
605 11521 1 0.16500 119244.000000
605 14695 1 0.16500 119244.000000
606 11521 1 0.16500 119244.000000
606 11522 1 0.16500 119244.000000
607 11521 1 0.16500 119244.000000
607 16124 1 0.16500 119244.000000
608 11522 1 0.16500 119244.000000
608 12823 1 0.16500 119244.000000
609 11522 1 0.16500 119244.000000
609 11645 1 0.16500 119244.000000
610 11522 1 0.16500 119244.000000
610 12720 1 0.16500 119244.000000
611 11523 1 0.16500 119244.000000
611 13622 1 0.16500 119244.000000
612 11523 1 0.16500 119244.000000
612 12304 1 0.16500 119244.000000
613 11523 1 0.16500 119244.000000
613 15743 1 0.16500 119244.000000
614 11523 1 0.16500 119244.000000
614 16601 1 0.16500 119244.000000
615 11524 1 0.16500 119244.000000
615 14945 1 0.16500 119244.000000
616 11524 1 0.16500 119244.000000
616 14442 1 0.16500 119244.000000
617 11524 1 0.16500 119244.000000
617 15270 1 0.16500 119244.000000
618 11524 1 0.16500 119244.000000
618 14181 1 0.16500 119244.000000
619 11525 1 0.16500 119244.000000
619 14914 1 0.16500 119244.000000
620 11525 1 0.16500 119244.000000
620 21778 1 0.16500 119244.000000
621 11525 1 0.16500 119244.000000
621 14583 1 0.16500 119244.000000
622 11526 1 0.16500 119244.000000
622 15554 1 0.16500 119244.000000
623 11526 1 0.16500 119244.000000
623 12634 1 0.16500 119244.000000
624 11526 1 0.16500 119244.000000
624 13397 1 0.16500 119244.000000
625 11526 1 0.16500 119244.000000
625 13805 1 0.16500 119244.000000
626 11527 1 0.16500 119244.000000
626 15161 1 0.16500 119244.000000
627 11527 1 0.16500 119244.000000
627 15459 1 0.16500 119244.000000
628 11527 1 0.16500 119244.000000
628 12025 1 0.16500 119244.000000
629 11528 1 0.16500 119244.000000
629 11535 1 0.16500 119244.000000
630 11528 1 0.16500 119244.000000
630 13812 1 0.16500 119244.000000
631 11528 1 0.16500 119244.000000
631 15689 1 0.16500 119244.000000
632 11529 1 0.16500 119244.000000
632 15765 1 0.16500 119244.000000
633 11529 1 0.16500 119244.000000
633 13991 1 0.16500 119244.000000
634 11529 1 0.16500 119244.000000
634 12418 1 0.16500 119244.000000
635 11529 1 0.16500 119244.000000
635 12091 1 0.16500 119244.000000
636 11530 1 0.16500 119244.000000
636 15428 1 0.16500 119244.000000
637 11530 1 0.16500 119244.000000
637 12157 1 0.16500 119244.000000
638 11530 1 0.16500 119244.000000
638 14297 1 0.16500 119244.000000
639 11530 1 0.16500 119244.000000
639 15191 1 0.16500 119244.000000
640 11531 1 0.16500 119244.000000
640 11819 1 0.16500 119244.000000
641 11531 1 0.16500 119244.000000
641 12314 1 0.16500 119244.000000
642 11531 1 0.16500 119244.000000
642 14092 1 0.16500 119244.000000
643 11531 1 0.16500 119244.000000
643 15169 1 0.16500 119244.000000
644 11532 1 0.16500 119244.000000
644 12302 1 0.16500 119244.000000
645 11532 1 0.16500 119244.000000
645 16618 1 0.16500 119244.000000
646 11532 1 0.16500 119244.000000
646 11791 1 0.16500 119244.000000
647 11533 1 0.16500 119244.000000
647 12746 1 0.16500 119244.000000
648 11533 1 0.16500 119244.000000
648 14620 1 0.16500 119244.000000
649 11533 1 0.16500 119244.000000
649 14155 1 0.16500 119244.000000
650 11533 1 0.16500 119244.000000
650 15606 1 0.16500 119244.000000
651 11534 1 0.16500 119244.000000
651 13614 1 0.16500 119244.000000
652 11534 1 0.16500 119244.000000
652 21910 1 0.16500 119244.000000
653 11534 1 0.16500 119244.000000
653 14179 1 0.16500 119244.000000
654 11534 1 0.16500 119244.000000
654 21418 1 0.16500 119244.000000
655 11535 1 0.16500 119244.000000
655 12124 1 0.16500 119244.000000
656 11535 1 0.16500 119244.000000
656 11921 1 0.16500 119244.000000
657 11536 1 0.16500 119244.000000
657 13732 1 0.16500 119244.000000
658 11536 1 0.16500 119244.000000
658 12515 1 0.16500 119244.000000
659 11536 1 0.16500 119244.000000
659 13313 1 0.16500 119244.000000
660 12515 1 0.16500 119244.000000
660 16608 1 0.16500 119244.000000
661 11537 1 0.16500 119244.000000
661 16075 1 0.16500 119244.000000
662 11537 1 0.16500 119244.000000
662 16532 1 0.16500 119244.000000
663 14535 1 0.16500 119244.000000
663 16532 1 0.16500 119244.000000
664 11537 1 0.16500 119244.000000
664 12542 1 0.16500 119244.000000
665 11538 1 0.16500 119244.000000
665 15780 1 0.16500 119244.000000
666 14513 1 0.16500 119244.000000
666 15780 1 0.16500 119244.000000
667 11538 1 0.16500 119244.000000
667 13242 1 0.16500 119244.000000
668 11538 1 0.16500 119244.000000
668 11698 1 0.16500 119244.000000
669 12313 1 0.16500 119244.000000
669 20650 1 0.16500 119244.000000
670 15012 1 0.16500 119244.000000
670 20650 1 0.16500 119244.000000
671 11539 1 0.16500 119244.000000
671 14115 1 0.16500 119244.000000
672 11539 1 0.16500 119244.000000
672 15041 1 0.16500 119244.000000
673 12340 1 0.16500 119244.000000
673 14115 1 0.16500 119244.000000
674 11539 1 0.16500 119244.000000
674 12815 1 0.16500 119244.000000
675 12538 1 0.16500 119244.000000
675 21214 1 0.16500 119244.000000
676 21214 1 0.16500 119244.000000
676 21754 1 0.16500 119244.000000
677 11865 1 0.16500 119244.000000
677 21214 1 0.16500 119244.000000
678 11540 1 0.16500 119244.000000
678 11582 1 0.16500 119244.000000
679 11540 1 0.16500 119244.000000
679 13911 1 0.16500 119244.000000
680 11540 1 0.16500 119244.000000
680 16399 1 0.16500 119244.000000
681 11582 1 0.16500 119244.000000
681 15821 1 0.16500 119244.000000
682 11541 1 0.16500 119244.000000
682 12873 1 0.16500 119244.000000
683 14071 1 0.16500 119244.000000
683 15611 1 0.16500 119244.000000
684 11541 1 0.16500 119244.000000
684 13697 1 0.16500 119244.000000
685 11541 1 0.16500 119244.000000
685 14071 1 0.16500 119244.000000
686 11542 1 0.16500 119244.000000
686 13196 1 0.16500 119244.000000
687 11542 1 0.16500 119244.000000
687 11684 1 0.16500 119244.000000
688 11542 1 0.16500 119244.000000
688 15808 1 0.16500 119244.000000
689 11542 1 0.16500 119244.000000
689 15073 1 0.16500 119244.000000
690 11543 1 0.16500 119244.000000
690 12017 1 0.16500 119244.000000
691 11808 1 0.16500 119244.000000
691 12991 1 0.16500 119244.000000
692 11543 1 0.16500 119244.000000
692 11808 1 0.16500 119244.000000
693 11544 1 0.16500 119244.000000
693 13686 1 0.16500 119244.000000
694 11544 1 0.16500 119244.000000
694 13961 1 0.16500 119244.000000
695 11544 1 0.16500 119244.000000
695 12045 1 0.16500 119244.000000
696 11544 1 0.16500 119244.000000
696 11953 1 0.16500 119244.000000
697 11545 1 0.16500 119244.000000
697 13698 1 0.16500 119244.000000
698 11545 1 0.16500 119244.000000
698 13495 1 0.16500 119244.000000
699 11545 1 0.16500 119244.000000
699 12081 1 0.16500 119244.000000
700 11545 1 0.16500 119244.000000
700 12772 1 0.16500 119244.000000
701 11546 1 0.16500 119244.000000
701 12957 1 0.16500 119244.000000
702 11546 1 0.16500 119244.000000
702 14314 1 0.16500 119244.000000
703 11546 1 0.16500 119244.000000
703 14560 1 0.16500 119244.000000
704 11547 1 0.16500 119244.000000
704 12502 1 0.16500 119244.000000
705 11547 1 0.16500 119244.000000
705 14088 1 0.16500 119244.000000
706 11547 1 0.16500 119244.000000
706 14165 1 0.16500 119244.000000
707 11547 1 0.16500 119244.000000
707 13430 1 0.16500 119244.000000
708 11548 1 0.16500 119244.000000
708 16049 1 0.16500 119244.000000
709 11548 1 0.16500 119244.000000
709 12725 1 0.16500 119244.000000
710 11548 1 0.16500 119244.000000
710 14694 1 0.16500 119244.000000
711 11548 1 0.16500 119244.000000
711 13363 1 0.16500 119244.000000
712 11549 1 0.16500 119244.000000
712 16595 1 0.16500 119244.000000
713 11549 1 0.16500 119244.000000
713 14561 1 0.16500 119244.000000
714 11549 1 0.16500 119244.000000
714 14670 1 0.16500 119244.000000
715 14670 1 0.16500 119244.000000
715 15108 1 0.16500 119244.000000
716 13351 1 0.16500 119244.000000
716 15472 1 0.16500 119244.000000
717 11550 1 0.16500 119244.000000
717 15472 1 0.16500 119244.000000
718 11550 1 0.16500 119244.000000
718 20746 1 0.16500 119244.000000
719 11551 1 0.16500 119244.000000
719 15139 1 0.16500 119244.000000
720 11551 1 0.16500 119244.000000
720 12285 1 0.16500 119244.000000
721 11551 1 0.16500 119244.000000
721 16215 1 0.16500 119244.000000
722 14345 1 0.16500 119244.000000
722 20662 1 0.16500 119244.000000
723 11587 1 0.16500 119244.000000
723 14019 1 0.16500 119244.000000
724 14019 1 0.16500 119244.000000
724 14345 1 0.16500 119244.000000
725 11552 1 0.16500 119244.000000
725 13699 1 0.16500 119244.000000
726 11552 1 0.16500 119244.000000
726 13583 1 0.16500 119244.000000
727 11552 1 0.16500 119244.000000
727 12399 1 0.16500 119244.000000
728 11552 1 0.16500 119244.000000
728 12966 1 0.16500 119244.000000
729 11553 1 0.16500 119244.000000
729 12273 1 0.16500 119244.000000
730 11553 1 0.16500 119244.000000
730 16025 1 0.16500 119244.000000
731 11553 1 0.16500 119244.000000
731 16256 1 0.16500 119244.000000
732 11553 1 0.16500 119244.000000
732 12695 1 0.16500 119244.000000
733 11554 1 0.16500 119244.000000
733 15602 1 0.16500 119244.000000
734 11554 1 0.16500 119244.000000
734 12074 1 0.16500 119244.000000
735 11554 1 0.16500 119244.000000
735 16284 1 0.16500 119244.000000
736 11554 1 0.16500 119244.000000
736 14804 1 0.16500 119244.000000
737 11555 1 0.16500 119244.000000
737 15688 1 0.16500 119244.000000
738 11555 1 0.16500 119244.000000
738 12389 1 0.16500 119244.000000
739 11555 1 0.16500 119244.000000
739 12384 1 0.16500 119244.000000
740 11555 1 0.16500 119244.000000
740 12521 1 0.16500 119244.000000
741 11556 1 0.16500 119244.000000
741 21271 1 0.16500 119244.000000
742 11556 1 0.16500 119244.000000
742 12906 1 0.16500 119244.000000
743 11556 1 0.16500 119244.000000
743 14811 1 0.16500 119244.000000
744 11556 1 0.16500 119244.000000
744 21547 1 0.16500 119244.000000
745 11557 1 0.16500 119244.000000
745 12294 1 0.16500 119244.000000
746 11557 1 0.16500 119244.000000
746 13602 1 0.16500 119244.000000
747 11557 1 0.16500 119244.000000
747 14150 1 0.16500 119244.000000
748 11557 1 0.16500 119244.000000
748 14901 1 0.16500 119244.000000
749 11558 1 0.16500 119244.000000
749 15421 1 0.16500 119244.000000
750 11558 1 0.16500 119244.000000
750 14773 1 0.16500 119244.000000
751 11558 1 0.16500 119244.000000
751 15300 1 0.16500 119244.000000
752 11558 1 0.16500 119244.000000
752 13542 1 0.16500 119244.000000
753 11559 1 0.16500 119244.000000
753 12612 1 0.16500 119244.000000
754 11559 1 0.16500 119244.000000
754 12595 1 0.16500 119244.000000
755 11559 1 0.16500 119244.000000
755 12297 1 0.16500 119244.000000
756 11559 1 0.16500 119244.000000
756 12044 1 0.16500 119244.000000
757 11560 1 0.16500 119244.000000
757 12534 1 0.16500 119244.000000
758 11560 1 0.16500 119244.000000
758 11654 1 0.16500 119244.000000
759 11560 1 0.16500 119244.000000
759 12931 1 0.16500 119244.000000
760 11541 1 0.16500 119244.000000
760 11560 1 0.16500 119244.000000
761 11561 1 0.16500 119244.000000
761 13065 1 0.16500 119244.000000
762 11561 1 0.16500 119244.000000
762 13030 1 0.16500 119244.000000
763 11561 1 0.16500 119244.000000
763 15013 1 0.16500 119244.000000
764 11561 1 0.16500 119244.000000
764 15768 1 0.16500 119244.000000
765 11562 1 0.16500 119244.000000
765 13902 1 0.16500 119244.000000
766 11562 1 0.16500 119244.000000
766 14511 1 0.16500 119244.000000
767 11562 1 0.16500 119244.000000
767 14002 1 0.16500 119244.000000
768 11562 1 0.16500 119244.000000
768 14705 1 0.16500 119244.000000
769 11563 1 0.16500 119244.000000
769 12045 1 0.16500 119244.000000
770 11458 1 0.16500 119244.000000
770 11563 1 0.16500 119244.000000
771 11563 1 0.16500 119244.000000
771 14136 1 0.16500 119244.000000
772 11563 1 0.16500 119244.000000
772 14684 1 0.16500 119244.000000
773 11564 1 0.16500 119244.000000
773 13573 1 0.16500 119244.000000
774 11564 1 0.16500 119244.000000
774 15299 1 0.16500 119244.000000
775 11564 1 0.16500 119244.000000
775 17148 1 0.16500 119244.000000
776 11565 1 0.16500 119244.000000
776 15997 1 0.16500 119244.000000
777 11565 1 0.16500 119244.000000
777 13819 1 0.16500 119244.000000
778 13819 1 0.16500 119244.000000
778 14423 1 0.16500 119244.000000
779 11566 1 0.16500 119244.000000
779 15393 1 0.16500 119244.000000
780 11566 1 0.16500 119244.000000
780 13828 1 0.16500 119244.000000
781 11566 1 0.16500 119244.000000
781 12472 1 0.16500 119244.000000
782 11566 1 0.16500 119244.000000
782 16411 1 0.16500 119244.000000
783 18526 1 0.16500 119244.000000
783 21688 1 0.16500 119244.000000
784 12272 1 0.16500 119244.000000
784 18526 1 0.16500 119244.000000
785 18526 1 0.16500 119244.000000
785 19174 1 0.16500 119244.000000
786 11567 1 0.16500 119244.000000
786 14401 1 0.16500 119244.000000
787 11567 1 0.16500 119244.000000
787 13244 1 0.16500 119244.000000
788 11567 1 0.16500 119244.000000
788 14281 1 0.16500 119244.000000
789 11567 1 0.16500 119244.000000
789 16054 1 0.16500 119244.000000
790 11568 1 0.16500 119244.000000
790 16351 1 0.16500 119244.000000
791 11568 1 0.16500 119244.000000
791 16163 1 0.16500 119244.000000
792 11568 1 0.16500 119244.000000
792 20266 1 0.16500 119244.000000
793 14479 1 0.16500 119244.000000
793 21751 1 0.16500 119244.000000
794 11569 1 0.16500 119244.000000
794 15429 1 0.16500 119244.000000
795 11569 1 0.16500 119244.000000
795 15963 1 0.16500 119244.000000
796 11569 1 0.16500 119244.000000
796 12583 1 0.16500 119244.000000
797 12663 1 0.16500 119244.000000
797 20602 1 0.16500 119244.000000
798 14100 1 0.16500 119244.000000
798 20602 1 0.16500 119244.000000
799 14252 1 0.16500 119244.000000
799 20602 1 0.16500 119244.000000
800 11570 1 0.16500 119244.000000
800 13043 1 0.16500 119244.000000
801 11570 1 0.16500 119244.000000
801 21331 1 0.16500 119244.000000
802 11571 1 0.16500 119244.000000
802 15711 1 0.16500 119244.000000
803 11571 1 0.16500 119244.000000
803 15266 1 0.16500 119244.000000
804 11571 1 0.16500 119244.000000
804 12821 1 0.16500 119244.000000
805 11571 1 0.16500 119244.000000
805 13654 1 0.16500 119244.000000
806 11572 1 0.16500 119244.000000
806 11893 1 0.16500 119244.000000
807 11572 1 0.16500 119244.000000
807 16203 1 0.16500 119244.000000
808 11572 1 0.16500 119244.000000
808 13199 1 0.16500 119244.000000
809 11893 1 0.16500 119244.000000
809 14031 1 0.16500 119244.000000
810 14812 1 0.16500 119244.000000
810 15832 1 0.16500 119244.000000
811 11799 1 0.16500 119244.000000
811 15832 1 0.16500 119244.000000
812 15832 1 0.16500 119244.000000
812 16252 1 0.16500 119244.000000
813 11573 1 0.16500 119244.000000
813 15832 1 0.16500 119244.000000
814 11574 1 0.16500 119244.000000
814 21784 1 0.16500 119244.000000
815 11574 1 0.16500 119244.000000
815 21505 1 0.16500 119244.000000
816 11574 1 0.16500 119244.000000
816 13891 1 0.16500 119244.000000
817 11574 1 0.16500 119244.000000
817 16367 1 0.16500 119244.000000
818 11575 1 0.16500 119244.000000
818 13185 1 0.16500 119244.000000
819 11575 1 0.16500 119244.000000
819 16149 1 0.16500 119244.000000
820 11575 1 0.16500 119244.000000
820 14851 1 0.16500 119244.000000
821 11575 1 0.16500 119244.000000
821 15235 1 0.16500 119244.000000
822 11576 1 0.16500 119244.000000
822 12328 1 0.16500 119244.000000
823 11576 1 0.16500 119244.000000
823 13525 1 0.16500 119244.000000
824 11576 1 0.16500 119244.000000
824 16452 1 0.16500 119244.000000
825 11577 1 0.16500 119244.000000
825 16420 1 0.16500 119244.000000
826 15958 1 0.16500 119244.000000
826 16420 1 0.16500 119244.000000
827 11577 1 0.16500 119244.000000
827 15422 1 0.16500 119244.000000
828 11577 1 0.16500 119244.000000
828 12062 1 0.16500 119244.000000
829 11578 1 0.16500 119244.000000
829 15085 1 0.16500 119244.000000
830 11578 1 0.16500 119244.000000
830 14254 1 0.16500 119244.000000
831 11578 1 0.16500 119244.000000
831 14504 1 0.16500 119244.000000
832 11578 1 0.16500 119244.000000
832 14140 1 0.16500 119244.000000
833 11579 1 0.16500 119244.000000
833 16213 1 0.16500 119244.000000
834 11579 1 0.16500 119244.000000
834 16164 1 0.16500 119244.000000
835 11579 1 0.16500 119244.000000
835 15719 1 0.16500 119244.000000
836 11579 1 0.16500 119244.000000
836 15940 1 0.16500 119244.000000
837 17736 1 0.16500 119244.000000
837 19882 1 0.16500 119244.000000
838 19882 1 0.16500 119244.000000
838 21511 1 0.16500 119244.000000
839 15782 1 0.16500 119244.000000
839 19882 1 0.16500 119244.000000
840 21130 1 0.16500 119244.000000
840 21361 1 0.16500 119244.000000
841 11580 1 0.16500 119244.000000
841 12687 1 0.16500 119244.000000
842 11580 1 0.16500 119244.000000
842 16258 1 0.16500 119244.000000
843 11573 1 0.16500 119244.000000
843 11580 1 0.16500 119244.000000
844 11580 1 0.16500 119244.000000
844 14728 1 0.16500 119244.000000
845 17512 1 0.16500 119244.000000
845 20110 1 0.16500 119244.000000
846 11581 1 0.16500 119244.000000
846 14717 1 0.16500 119244.000000
847 11581 1 0.16500 119244.000000
847 12024 1 0.16500 119244.000000
848 11581 1 0.16500 119244.000000
848 12812 1 0.16500 119244.000000
849 11582 1 0.16500 119244.000000
849 14313 1 0.16500 119244.000000
850 11540 1 0.16500 119244.000000
850 13138 1 0.16500 119244.000000
851 11582 1 0.16500 119244.000000
851 15359 1 0.16500 119244.000000
852 11583 1 0.16500 119244.000000
852 16021 1 0.16500 119244.000000
853 11583 1 0.16500 119244.000000
853 21814 1 0.16500 119244.000000
854 11583 1 0.16500 119244.000000
854 11900 1 0.16500 119244.000000
855 11583 1 0.16500 119244.000000
855 12309 1 0.16500 119244.000000
856 11584 1 0.16500 119244.000000
856 11636 1 0.16500 119244.000000
857 11584 1 0.16500 119244.000000
857 14481 1 0.16500 119244.000000
858 11584 1 0.16500 119244.000000
858 12846 1 0.16500 119244.000000
859 11584 1 0.16500 119244.000000
859 15846 1 0.16500 119244.000000
860 11585 1 0.16500 119244.000000
860 14841 1 0.16500 119244.000000
861 11585 1 0.16500 119244.000000
861 12817 1 0.16500 119244.000000
862 11585 1 0.16500 119244.000000
862 16339 1 0.16500 119244.000000
863 11585 1 0.16500 119244.000000
863 16388 1 0.16500 119244.000000
864 11586 1 0.16500 119244.000000
864 21445 1 0.16500 119244.000000
865 11586 1 0.16500 119244.000000
865 11616 1 0.16500 119244.000000
866 11616 1 0.16500 119244.000000
866 15142 1 0.16500 119244.000000
867 11586 1 0.16500 119244.000000
867 16510 1 0.16500 119244.000000
868 11587 1 0.16500 119244.000000
868 13521 1 0.16500 119244.000000
869 11587 1 0.16500 119244.000000
869 11630 1 0.16500 119244.000000
870 11587 1 0.16500 119244.000000
870 13250 1 0.16500 119244.000000
871 11588 1 0.16500 119244.000000
871 12846 1 0.16500 119244.000000
872 11588 1 0.16500 119244.000000
872 13652 1 0.16500 119244.000000
873 11588 1 0.16500 119244.000000
873 15297 1 0.16500 119244.000000
874 11588 1 0.16500 119244.000000
874 15735 1 0.16500 119244.000000
875 11589 1 0.16500 119244.000000
875 12042 1 0.16500 119244.000000
876 11589 1 0.16500 119244.000000
876 12123 1 0.16500 119244.000000
877 11589 1 0.16500 119244.000000
877 15558 1 0.16500 119244.000000
878 11589 1 0.16500 119244.000000
878 13140 1 0.16500 119244.000000
879 11590 1 0.16500 119244.000000
879 16065 1 0.16500 119244.000000
880 11590 1 0.16500 119244.000000
880 15349 1 0.16500 119244.000000
881 11590 1 0.16500 119244.000000
881 14555 1 0.16500 119244.000000
882 11590 1 0.16500 119244.000000
882 12413 1 0.16500 119244.000000
883 11591 1 0.16500 119244.000000
883 13467 1 0.16500 119244.000000
884 11591 1 0.16500 119244.000000
884 15427 1 0.16500 119244.000000
885 11591 1 0.16500 119244.000000
885 15275 1 0.16500 119244.000000
886 11591 1 0.16500 119244.000000
886 14508 1 0.16500 119244.000000
887 11592 1 0.16500 119244.000000
887 14028 1 0.16500 119244.000000
888 11592 1 0.16500 119244.000000
888 14405 1 0.16500 119244.000000
889 11592 1 0.16500 119244.000000
889 12690 1 0.16500 119244.000000
890 11593 1 0.16500 119244.000000
890 14574 1 0.16500 119244.000000
891 11593 1 0.16500 119244.000000
891 13619 1 0.16500 119244.000000
892 11593 1 0.16500 119244.000000
892 16186 1 0.16500 119244.000000
893 11593 1 0.16500 119244.000000
893 12573 1 0.16500 119244.000000
894 11594 1 0.16500 119244.000000
894 11679 1 0.16500 119244.000000
895 12435 1 0.16500 119244.000000
895 19246 1 0.16500 119244.000000
896 11679 1 0.16500 119244.000000
896 15670 1 0.16500 119244.000000
897 12435 1 0.16500 119244.000000
897 14895 1 0.16500 119244.000000
898 11595 1 0.16500 119244.000000
898 14062 1 0.16500 119244.000000
899 11595 1 0.16500 119244.000000
899 13755 1 0.16500 119244.000000
900 11595 1 0.16500 119244.000000
900 12180 1 0.16500 119244.000000
901 11595 1 0.16500 119244.000000
901 16040 1 0.16500 119244.000000
902 12138 1 0.16500 119244.000000
902 12878 1 0.16500 119244.000000
903 12281 1 0.16500 119244.000000
903 12878 1 0.16500 119244.000000
904 11596 1 0.16500 119244.000000
904 12878 1 0.16500 119244.000000
905 12878 1 0.16500 119244.000000
905 14693 1 0.16500 119244.000000
906 12114 1 0.16500 119244.000000
906 14438 1 0.16500 119244.000000
907 11597 1 0.16500 119244.000000
907 15501 1 0.16500 119244.000000
908 11597 1 0.16500 119244.000000
908 15352 1 0.16500 119244.000000
909 11597 1 0.16500 119244.000000
909 14438 1 0.16500 119244.000000
910 11598 1 0.16500 119244.000000
910 15460 1 0.16500 119244.000000
911 11598 1 0.16500 119244.000000
911 12077 1 0.16500 119244.000000
912 11598 1 0.16500 119244.000000
912 16230 1 0.16500 119244.000000
913 11598 1 0.16500 119244.000000
913 16122 1 0.16500 119244.000000
914 11599 1 0.16500 119244.000000
914 15627 1 0.16500 119244.000000
915 11599 1 0.16500 119244.000000
915 13293 1 0.16500 119244.000000
916 11599 1 0.16500 119244.000000
916 15362 1 0.16500 119244.000000
917 11599 1 0.16500 119244.000000
917 14651 1 0.16500 119244.000000
918 11600 1 0.16500 119244.000000
918 12155 1 0.16500 119244.000000
919 11600 1 0.16500 119244.000000
919 16080 1 0.16500 119244.000000
920 11600 1 0.16500 119244.000000
920 16427 1 0.16500 119244.000000
921 11601 1 0.16500 119244.000000
921 15346 1 0.16500 119244.000000
922 11601 1 0.16500 119244.000000
922 13975 1 0.16500 119244.000000
923 11601 1 0.16500 119244.000000
923 12980 1 0.16500 119244.000000
924 11601 1 0.16500 119244.000000
924 11857 1 0.16500 119244.000000
925 11602 1 0.16500 119244.000000
925 11611 1 0.16500 119244.000000
926 11602 1 0.16500 119244.000000
926 13858 1 0.16500 119244.000000
927 11602 1 0.16500 119244.000000
927 11916 1 0.16500 119244.000000
928 11602 1 0.16500 119244.000000
928 16294 1 0.16500 119244.000000
929 11603 1 0.16500 119244.000000
929 15766 1 0.16500 119244.000000
930 11603 1 0.16500 119244.000000
930 15105 1 0.16500 119244.000000
931 11603 1 0.16500 119244.000000
931 13721 1 0.16500 119244.000000
932 11603 1 0.16500 119244.000000
932 15498 1 0.16500 119244.000000
933 11604 1 0.16500 119244.000000
933 13755 1 0.16500 119244.000000
934 11604 1 0.16500 119244.000000
934 16363 1 0.16500 119244.000000
935 11604 1 0.16500 119244.000000
935 13340 1 0.16500 119244.000000
936 11604 1 0.16500 119244.000000
936 14806 1 0.16500 119244.000000
937 11605 1 0.16500 119244.000000
937 21817 1 0.16500 119244.000000
938 11605 1 0.16500 119244.000000
938 16147 1 0.16500 119244.000000
939 11605 1 0.16500 119244.000000
939 13125 1 0.16500 119244.000000
940 11605 1 0.16500 119244.000000
940 21964 1 0.16500 119244.000000
941 11606 1 0.16500 119244.000000
941 11662 1 0.16500 119244.000000
942 11606 1 0.16500 119244.000000
942 15845 1 0.16500 119244.000000
943 11606 1 0.16500 119244.000000
943 20998 1 0.16500 119244.000000
944 11606 1 0.16500 119244.000000
944 14632 1 0.16500 119244.000000
945 11607 1 0.16500 119244.000000
945 15512 1 0.16500 119244.000000
946 11607 1 0.16500 119244.000000
946 11774 1 0.16500 119244.000000
947 11607 1 0.16500 119244.000000
947 16462 1 0.16500 119244.000000
948 11607 1 0.16500 119244.000000
948 16617 1 0.16500 119244.000000
949 11696 1 0.16500 119244.000000
949 14792 1 0.16500 119244.000000
950 11608 1 0.16500 119244.000000
950 12334 1 0.16500 119244.000000
951 11608 1 0.16500 119244.000000
951 14792 1 0.16500 119244.000000
952 11608 1 0.16500 119244.000000
952 13663 1 0.16500 119244.000000
953 11609 1 0.16500 119244.000000
953 11625 1 0.16500 119244.000000
954 11609 1 0.16500 119244.000000
954 13513 1 0.16500 119244.000000
955 11609 1 0.16500 119244.000000
955 12678 1 0.16500 119244.000000
956 11609 1 0.16500 119244.000000
956 15362 1 0.16500 119244.000000
957 11610 1 0.16500 119244.000000
957 11674 1 0.16500 119244.000000
958 11610 1 0.16500 119244.000000
958 12355 1 0.16500 119244.000000
959 11674 1 0.16500 119244.000000
959 13448 1 0.16500 119244.000000
960 12355 1 0.16500 119244.000000
960 12704 1 0.16500 119244.000000
961 11611 1 0.16500 119244.000000
961 15544 1 0.16500 119244.000000
962 11611 1 0.16500 119244.000000
962 14625 1 0.16500 119244.000000
963 11611 1 0.16500 119244.000000
963 14522 1 0.16500 119244.000000
964 16148 1 0.16500 119244.000000
964 21217 1 0.16500 119244.000000
965 13267 1 0.16500 119244.000000
965 21217 1 0.16500 119244.000000
966 11612 1 0.16500 119244.000000
966 12846 1 0.16500 119244.000000
967 11612 1 0.16500 119244.000000
967 14171 1 0.16500 119244.000000
968 11612 1 0.16500 119244.000000
968 14655 1 0.16500 119244.000000
969 11612 1 0.16500 119244.000000
969 16333 1 0.16500 119244.000000
970 11613 1 0.16500 119244.000000
970 15824 1 0.16500 119244.000000
971 11613 1 0.16500 119244.000000
971 11892 1 0.16500 119244.000000
972 11613 1 0.16500 119244.000000
972 12230 1 0.16500 119244.000000
973 11613 1 0.16500 119244.000000
973 11804 1 0.16500 119244.000000
974 11614 1 0.16500 119244.000000
974 14692 1 0.16500 119244.000000
975 11614 1 0.16500 119244.000000
975 14065 1 0.16500 119244.000000
976 11614 1 0.16500 119244.000000
976 15931 1 0.16500 119244.000000
977 11614 1 0.16500 119244.000000
977 14681 1 0.16500 119244.000000
978 16338 1 0.16500 119244.000000
978 19894 1 0.16500 119244.000000
979 15302 1 0.16500 119244.000000
979 19894 1 0.16500 119244.000000
980 19894 1 0.16500 119244.000000
980 20734 1 0.16500 119244.000000
981 11615 1 0.16500 119244.000000
981 14912 1 0.16500 119244.000000
982 12063 1 0.16500 119244.000000
982 14912 1 0.16500 119244.000000
983 11615 1 0.16500 119244.000000
983 12217 1 0.16500 119244.000000
984 11615 1 0.16500 119244.000000
984 11732 1 0.16500 119244.000000
985 11911 1 0.16500 119244.000000
985 18086 1 0.16500 119244.000000
986 11586 1 0.16500 119244.000000
986 12404 1 0.16500 119244.000000
987 11616 1 0.16500 119244.000000
987 12789 1 0.16500 119244.000000
988 11616 1 0.16500 119244.000000
988 15701 1 0.16500 119244.000000
989 11617 1 0.16500 119244.000000
989 16415 1 0.16500 119244.000000
990 11617 1 0.16500 119244.000000
990 16604 1 0.16500 119244.000000
991 11617 1 0.16500 119244.000000
991 21757 1 0.16500 119244.000000
992 11617 1 0.16500 119244.000000
992 11654 1 0.16500 119244.000000
993 11618 1 0.16500 119244.000000
993 13353 1 0.16500 119244.000000
994 11618 1 0.16500 119244.000000
994 16434 1 0.16500 119244.000000
995 11618 1 0.16500 119244.000000
995 11786 1 0.16500 119244.000000
996 11619 1 0.16500 119244.000000
996 16544 1 0.16500 119244.000000
997 11619 1 0.16500 119244.000000
997 16396 1 0.16500 119244.000000
998 11619 1 0.16500 119244.000000
998 16062 1 0.16500 119244.000000
999 11619 1 0.16500 119244.000000
999 12539 1 0.16500 119244.000000
1000 11620 1 0.16500 119244.000000
1000 13216 1 0.16500 119244.000000
1001 11620 1 0.16500 119244.000000
1001 16483 1 0.16500 119244.000000
1002 11620 1 0.16500 119244.000000
1002 16159 1 0.16500 119244.000000
1003 11620 1 0.16500 119244.000000
1003 15364 1 0.16500 119244.000000
1004 11621 1 0.16500 119244.000000
1004 12339 1 0.16500 119244.000000
1005 11621 1 0.16500 119244.000000
1005 12042 1 0.16500 119244.000000
1006 11621 1 0.16500 119244.000000
1006 14896 1 0.16500 119244.000000
1007 11621 1 0.16500 119244.000000
1007 14230 1 0.16500 119244.000000
1008 11622 1 0.16500 119244.000000
1008 11653 1 0.16500 119244.000000
1009 11622 1 0.16500 119244.000000
1009 15310 1 0.16500 119244.000000
1010 14973 1 0.16500 119244.000000
1010 15320 1 0.16500 119244.000000
1011 11622 1 0.16500 119244.000000
1011 14973 1 0.16500 119244.000000
1012 11623 1 0.16500 119244.000000
1012 14625 1 0.16500 119244.000000
1013 11623 1 0.16500 119244.000000
1013 15678 1 0.16500 119244.000000
1014 11623 1 0.16500 119244.000000
1014 16294 1 0.16500 119244.000000
1015 11623 1 0.16500 119244.000000
1015 12562 1 0.16500 119244.000000
1016 11624 1 0.16500 119244.000000
1016 11902 1 0.16500 119244.000000
1017 11624 1 0.16500 119244.000000
1017 15937 1 0.16500 119244.000000
1018 11624 1 0.16500 119244.000000
1018 14024 1 0.16500 119244.000000
1019 11624 1 0.16500 119244.000000
1019 12425 1 0.16500 119244.000000
1020 11625 1 0.16500 119244.000000
1020 13214 1 0.16500 119244.000000
1021 11625 1 0.16500 119244.000000
1021 21760 1 0.16500 119244.000000
1022 11625 1 0.16500 119244.000000
1022 21286 1 0.16500 119244.000000
1023 11626 1 0.16500 119244.000000
1023 15734 1 0.16500 119244.000000
1024 11626 1 0.16500 119244.000000
1024 16130 1 0.16500 119244.000000
1025 11626 1 0.16500 119244.000000
1025 13194 1 0.16500 119244.000000
1026 11626 1 0.16500 119244.000000
1026 16290 1 0.16500 119244.000000
1027 11627 1 0.16500 119244.000000
1027 12092 1 0.16500 119244.000000
1028 11627 1 0.16500 119244.000000
1028 12194 1 0.16500 119244.000000
1029 11627 1 0.16500 119244.000000
1029 15502 1 0.16500 119244.000000
1030 11596 1 0.16500 119244.000000
1030 11628 1 0.16500 119244.000000
1031 11628 1 0.16500 119244.000000
1031 15838 1 0.16500 119244.000000
1032 11628 1 0.16500 119244.000000
1032 14676 1 0.16500 119244.000000
1033 11628 1 0.16500 119244.000000
1033 15367 1 0.16500 119244.000000
1034 19906 1 0.16500 119244.000000
1034 20890 1 0.16500 119244.000000
1035 14162 1 0.16500 119244.000000
1035 20890 1 0.16500 119244.000000
1036 15272 1 0.16500 119244.000000
1036 20806 1 0.16500 119244.000000
1037 15272 1 0.16500 119244.000000
1037 21844 1 0.16500 119244.000000
1038 13096 1 0.16500 119244.000000
1038 15272 1 0.16500 119244.000000
1039 11629 1 0.16500 119244.000000
1039 15272 1 0.16500 119244.000000
1040 11630 1 0.16500 119244.000000
1040 20086 1 0.16500 119244.000000
1041 11630 1 0.16500 119244.000000
1041 15194 1 0.16500 119244.000000
1042 11630 1 0.16500 119244.000000
1042 11631 1 0.16500 119244.000000
1043 11631 1 0.16500 119244.000000
1043 14732 1 0.16500 119244.000000
1044 11631 1 0.16500 119244.000000
1044 16812 1 0.16500 119244.000000
1045 11632 1 0.16500 119244.000000
1045 15290 1 0.16500 119244.000000
1046 11632 1 0.16500 119244.000000
1046 15821 1 0.16500 119244.000000
1047 11632 1 0.16500 119244.000000
1047 11701 1 0.16500 119244.000000
1048 11632 1 0.16500 119244.000000
1048 15359 1 0.16500 119244.000000
1049 11633 1 0.16500 119244.000000
1049 15138 1 0.16500 119244.000000
1050 11633 1 0.16500 119244.000000
1050 15690 1 0.16500 119244.000000
1051 11633 1 0.16500 119244.000000
1051 14646 1 0.16500 119244.000000
1052 11634 1 0.16500 119244.000000
1052 11770 1 0.16500 119244.000000
1053 11634 1 0.16500 119244.000000
1053 15597 1 0.16500 119244.000000
1054 11634 1 0.16500 119244.000000
1054 15304 1 0.16500 119244.000000
1055 11634 1 0.16500 119244.000000
1055 12563 1 0.16500 119244.000000
1056 11635 1 0.16500 119244.000000
1056 11821 1 0.16500 119244.000000
1057 11635 1 0.16500 119244.000000
1057 15946 1 0.16500 119244.000000
1058 11635 1 0.16500 119244.000000
1058 14399 1 0.16500 119244.000000
1059 11635 1 0.16500 119244.000000
1059 15345 1 0.16500 119244.000000
1060 11636 1 0.16500 119244.000000
1060 15741 1 0.16500 119244.000000
1061 11636 1 0.16500 119244.000000
1061 15477 1 0.16500 119244.000000
1062 12897 1 0.16500 119244.000000
1062 15741 1 0.16500 119244.000000
1063 13247 1 0.16500 119244.000000
1063 13464 1 0.16500 119244.000000
1064 11637 1 0.16500 119244.000000
1064 13247 1 0.16500 119244.000000
1065 13247 1 0.16500 119244.000000
1065 14829 1 0.16500 119244.000000
1066 11638 1 0.16500 119244.000000
1066 13737 1 0.16500 119244.000000
1067 11638 1 0.16500 119244.000000
1067 14589 1 0.16500 119244.000000
1068 11638 1 0.16500 119244.000000
1068 14616 1 0.16500 119244.000000
1069 11638 1 0.16500 119244.000000
1069 12356 1 0.16500 119244.000000
1070 11639 1 0.16500 119244.000000
1070 15916 1 0.16500 119244.000000
1071 11639 1 0.16500 119244.000000
1071 16503 1 0.16500 119244.000000
1072 11639 1 0.16500 119244.000000
1072 15032 1 0.16500 119244.000000
1073 11640 1 0.16500 119244.000000
1073 20806 1 0.16500 119244.000000
1074 11640 1 0.16500 119244.000000
1074 16612 1 0.16500 119244.000000
1075 11640 1 0.16500 119244.000000
1075 15246 1 0.16500 119244.000000
1076 11640 1 0.16500 119244.000000
1076 14765 1 0.16500 119244.000000
1077 11641 1 0.16500 119244.000000
1077 13589 1 0.16500 119244.000000
1078 11641 1 0.16500 119244.000000
1078 13873 1 0.16500 119244.000000
1079 11641 1 0.16500 119244.000000
1079 16468 1 0.16500 119244.000000
1080 11641 1 0.16500 119244.000000
1080 15230 1 0.16500 119244.000000
1081 11642 1 0.16500 119244.000000
1081 15769 1 0.16500 119244.000000
1082 11642 1 0.16500 119244.000000
1082 12638 1 0.16500 119244.000000
1083 11642 1 0.16500 119244.000000
1083 21940 1 0.16500 119244.000000
1084 11642 1 0.16500 119244.000000
1084 14493 1 0.16500 119244.000000
1085 11643 1 0.16500 119244.000000
1085 13413 1 0.16500 119244.000000
1086 11643 1 0.16500 119244.000000
1086 12464 1 0.16500 119244.000000
1087 11643 1 0.16500 119244.000000
1087 14075 1 0.16500 119244.000000
1088 11643 1 0.16500 119244.000000
1088 13073 1 0.16500 119244.000000
1089 11644 1 0.16500 119244.000000
1089 14116 1 0.16500 119244.000000
1090 11644 1 0.16500 119244.000000
1090 14753 1 0.16500 119244.000000
1091 11644 1 0.16500 119244.000000
1091 13131 1 0.16500 119244.000000
1092 11644 1 0.16500 119244.000000
1092 16208 1 0.16500 119244.000000
1093 11645 1 0.16500 119244.000000
1093 13106 1 0.16500 119244.000000
1094 11645 1 0.16500 119244.000000
1094 14234 1 0.16500 119244.000000
1095 11645 1 0.16500 119244.000000
1095 16271 1 0.16500 119244.000000
1096 11646 1 0.16500 119244.000000
1096 14255 1 0.16500 119244.000000
1097 11646 1 0.16500 119244.000000
1097 13230 1 0.16500 119244.000000
1098 11646 1 0.16500 119244.000000
1098 14315 1 0.16500 119244.000000
1099 11646 1 0.16500 119244.000000
1099 12720 1 0.16500 119244.000000
1100 11647 1 0.16500 119244.000000
1100 13084 1 0.16500 119244.000000
1101 11647 1 0.16500 119244.000000
1101 13123 1 0.16500 119244.000000
1102 11647 1 0.16500 119244.000000
1102 15137 1 0.16500 119244.000000
1103 11647 1 0.16500 119244.000000
1103 16467 1 0.16500 119244.000000
1104 11648 1 0.16500 119244.000000
1104 15970 1 0.16500 119244.000000
1105 11648 1 0.16500 119244.000000
1105 14899 1 0.16500 119244.000000
1106 11648 1 0.16500 119244.000000
1106 16578 1 0.16500 119244.000000
1107 11649 1 0.16500 119244.000000
1107 12155 1 0.16500 119244.000000
1108 12155 1 0.16500 119244.000000
1108 16405 1 0.16500 119244.000000
1109 12155 1 0.16500 119244.000000
1109 13295 1 0.16500 119244.000000
1110 21220 1 0.16500 119244.000000
1110 21544 1 0.16500 119244.000000
1111 13431 1 0.16500 119244.000000
1111 21220 1 0.16500 119244.000000
1112 21220 1 0.16500 119244.000000
1112 21919 1 0.16500 119244.000000
1113 11650 1 0.16500 119244.000000
1113 16375 1 0.16500 119244.000000
1114 14502 1 0.16500 119244.000000
1114 16375 1 0.16500 119244.000000
1115 11650 1 0.16500 119244.000000
1115 15350 1 0.16500 119244.000000
1116 11650 1 0.16500 119244.000000
1116 11767 1 0.16500 119244.000000
1117 11651 1 0.16500 119244.000000
1117 13768 1 0.16500 119244.000000
1118 11651 1 0.16500 119244.000000
1118 12316 1 0.16500 119244.000000
1119 11651 1 0.16500 119244.000000
1119 15615 1 0.16500 119244.000000
1120 11651 1 0.16500 119244.000000
1120 20878 1 0.16500 119244.000000
1121 11652 1 0.16500 119244.000000
1121 13132 1 0.16500 119244.000000
1122 11652 1 0.16500 119244.000000
1122 15712 1 0.16500 119244.000000
1123 11652 1 0.16500 119244.000000
1123 12303 1 0.16500 119244.000000
1124 11652 1 0.16500 119244.000000
1124 15221 1 0.16500 119244.000000
1125 11653 1 0.16500 119244.000000
1125 15986 1 0.16500 119244.000000
1126 11653 1 0.16500 119244.000000
1126 15515 1 0.16500 119244.000000
1127 11653 1 0.16500 119244.000000
1127 16255 1 0.16500 119244.000000
1128 11654 1 0.16500 119244.000000
1128 11963 1 0.16500 119244.000000
1129 11654 1 0.16500 119244.000000
1129 12866 1 0.16500 119244.000000
1130 11655 1 0.16500 119244.000000
1130 15506 1 0.16500 119244.000000
1131 11509 1 0.16500 119244.000000
1131 15113 1 0.16500 119244.000000
1132 11655 1 0.16500 119244.000000
1132 15159 1 0.16500 119244.000000
1133 11656 1 0.16500 119244.000000
1133 13911 1 0.16500 119244.000000
1134 11656 1 0.16500 119244.000000
1134 12353 1 0.16500 119244.000000
1135 11656 1 0.16500 119244.000000
1135 13958 1 0.16500 119244.000000
1136 11656 1 0.16500 119244.000000
1136 13870 1 0.16500 119244.000000
1137 15831 1 0.16500 119244.000000
1137 21607 1 0.16500 119244.000000
1138 11657 1 0.16500 119244.000000
1138 15370 1 0.16500 119244.000000
1139 11657 1 0.16500 119244.000000
1139 12745 1 0.16500 119244.000000
1140 11657 1 0.16500 119244.000000
1140 15432 1 0.16500 119244.000000
1141 11657 1 0.16500 119244.000000
1141 11825 1 0.16500 119244.000000
1142 11658 1 0.16500 119244.000000
1142 12103 1 0.16500 119244.000000
1143 11658 1 0.16500 119244.000000
1143 11672 1 0.16500 119244.000000
1144 11658 1 0.16500 119244.000000
1144 13229 1 0.16500 119244.000000
1145 11658 1 0.16500 119244.000000
1145 13482 1 0.16500 119244.000000
1146 11659 1 0.16500 119244.000000
1146 16419 1 0.16500 119244.000000
1147 11659 1 0.16500 119244.000000
1147 12847 1 0.16500 119244.000000
1148 11659 1 0.16500 119244.000000
1148 21451 1 0.16500 119244.000000
1149 11659 1 0.16500 119244.000000
1149 15897 1 0.16500 119244.000000
1150 11660 1 0.16500 119244.000000
1150 13563 1 0.16500 119244.000000
1151 13563 1 0.16500 119244.000000
1151 14027 1 0.16500 119244.000000
1152 11660 1 0.16500 119244.000000
1152 12353 1 0.16500 119244.000000
1153 11661 1 0.16500 119244.000000
1153 16528 1 0.16500 119244.000000
1154 11661 1 0.16500 119244.000000
1154 20842 1 0.16500 119244.000000
1155 11661 1 0.16500 119244.000000
1155 14746 1 0.16500 119244.000000
1156 11661 1 0.16500 119244.000000
1156 14989 1 0.16500 119244.000000
1157 11662 1 0.16500 119244.000000
1157 16116 1 0.16500 119244.000000
1158 11662 1 0.16500 119244.000000
1158 11949 1 0.16500 119244.000000
1159 11662 1 0.16500 119244.000000
1159 14865 1 0.16500 119244.000000
1160 13061 1 0.16500 119244.000000
1160 15651 1 0.16500 119244.000000
1161 11663 1 0.16500 119244.000000
1161 12044 1 0.16500 119244.000000
1162 11663 1 0.16500 119244.000000
1162 13061 1 0.16500 119244.000000
1163 13061 1 0.16500 119244.000000
1163 13389 1 0.16500 119244.000000
1164 11664 1 0.16500 119244.000000
1164 14284 1 0.16500 119244.000000
1165 11664 1 0.16500 119244.000000
1165 16319 1 0.16500 119244.000000
1166 11664 1 0.16500 119244.000000
1166 13591 1 0.16500 119244.000000
1167 11664 1 0.16500 119244.000000
1167 13953 1 0.16500 119244.000000
1168 11665 1 0.16500 119244.000000
1168 16425 1 0.16500 119244.000000
1169 11665 1 0.16500 119244.000000
1169 15056 1 0.16500 119244.000000
1170 11665 1 0.16500 119244.000000
1170 20482 1 0.16500 119244.000000
1171 11665 1 0.16500 119244.000000
1171 21538 1 0.16500 119244.000000
1172 11666 1 0.16500 119244.000000
1172 13913 1 0.16500 119244.000000
1173 11666 1 0.16500 119244.000000
1173 14918 1 0.16500 119244.000000
1174 11666 1 0.16500 119244.000000
1174 12820 1 0.16500 119244.000000
1175 11666 1 0.16500 119244.000000
1175 14116 1 0.16500 119244.000000
1176 11667 1 0.16500 119244.000000
1176 15908 1 0.16500 119244.000000
1177 11667 1 0.16500 119244.000000
1177 14350 1 0.16500 119244.000000
1178 11667 1 0.16500 119244.000000
1178 15923 1 0.16500 119244.000000
1179 16036 1 0.16500 119244.000000
1179 19354 1 0.16500 119244.000000
1180 17260 1 0.16500 119244.000000
1180 19354 1 0.16500 119244.000000
1181 11668 1 0.16500 119244.000000
1181 15208 1 0.16500 119244.000000
1182 11668 1 0.16500 119244.000000
1182 14351 1 0.16500 119244.000000
1183 11668 1 0.16500 119244.000000
1183 16030 1 0.16500 119244.000000
1184 11668 1 0.16500 119244.000000
1184 15430 1 0.16500 119244.000000
1185 11669 1 0.16500 119244.000000
1185 13790 1 0.16500 119244.000000
1186 11669 1 0.16500 119244.000000
1186 12090 1 0.16500 119244.000000
1187 11669 1 0.16500 119244.000000
1187 11778 1 0.16500 119244.000000
1188 11669 1 0.16500 119244.000000
1188 16398 1 0.16500 119244.000000
1189 11670 1 0.16500 119244.000000
1189 13035 1 0.16500 119244.000000
1190 11670 1 0.16500 119244.000000
1190 16311 1 0.16500 119244.000000
1191 11670 1 0.16500 119244.000000
1191 14559 1 0.16500 119244.000000
1192 13035 1 0.16500 119244.000000
1192 14377 1 0.16500 119244.000000
1193 11671 1 0.16500 119244.000000
1193 13975 1 0.16500 119244.000000
1194 11671 1 0.16500 119244.000000
1194 13808 1 0.16500 119244.000000
1195 11671 1 0.16500 119244.000000
1195 11909 1 0.16500 119244.000000
1196 11671 1 0.16500 119244.000000
1196 12826 1 0.16500 119244.000000
1197 11429 1 0.16500 119244.000000
1197 11672 1 0.16500 119244.000000
1198 11672 1 0.16500 119244.000000
1198 16102 1 0.16500 119244.000000
1199 13564 1 0.16500 119244.000000
1199 14814 1 0.16500 119244.000000
1200 11673 1 0.16500 119244.000000
1200 14309 1 0.16500 119244.000000
1201 11673 1 0.16500 119244.000000
1201 13564 1 0.16500 119244.000000
1202 11673 1 0.16500 119244.000000
1202 14844 1 0.16500 119244.000000
1203 11610 1 0.16500 119244.000000
1203 12549 1 0.16500 119244.000000
1204 11674 1 0.16500 119244.000000
1204 12796 1 0.16500 119244.000000
1205 11674 1 0.16500 119244.000000
1205 12778 1 0.16500 119244.000000
1206 11675 1 0.16500 119244.000000
1206 12104 1 0.16500 119244.000000
1207 11675 1 0.16500 119244.000000
1207 14456 1 0.16500 119244.000000
1208 11676 1 0.16500 119244.000000
1208 15020 1 0.16500 119244.000000
1209 11676 1 0.16500 119244.000000
1209 13828 1 0.16500 119244.000000
1210 11676 1 0.16500 119244.000000
1210 13514 1 0.16500 119244.000000
1211 11677 1 0.16500 119244.000000
1211 13957 1 0.16500 119244.000000
1212 11447 1 0.16500 119244.000000
1212 11677 1 0.16500 119244.000000
1213 11677 1 0.16500 119244.000000
1213 15331 1 0.16500 119244.000000
1214 11677 1 0.16500 119244.000000
1214 12465 1 0.16500 119244.000000
1215 11678 1 0.16500 119244.000000
1215 16280 1 0.16500 119244.000000
1216 11678 1 0.16500 119244.000000
1216 12098 1 0.16500 119244.000000
1217 11678 1 0.16500 119244.000000
1217 14795 1 0.16500 119244.000000
1218 11678 1 0.16500 119244.000000
1218 11728 1 0.16500 119244.000000
1219 11679 1 0.16500 119244.000000
1219 14460 1 0.16500 119244.000000
1220 11594 1 0.16500 119244.000000
1220 15643 1 0.16500 119244.000000
1221 11679 1 0.16500 119244.000000
1221 15984 1 0.16500 119244.000000
1222 11680 1 0.16500 119244.000000
1222 15730 1 0.16500 119244.000000
1223 11680 1 0.16500 119244.000000
1223 12490 1 0.16500 119244.000000
1224 11680 1 0.16500 119244.000000
1224 19078 1 0.16500 119244.000000
1225 11681 1 0.16500 119244.000000
1225 11702 1 0.16500 119244.000000
1226 11681 1 0.16500 119244.000000
1226 15159 1 0.16500 119244.000000
1227 11681 1 0.16500 119244.000000
1227 16293 1 0.16500 119244.000000
1228 11681 1 0.16500 119244.000000
1228 13053 1 0.16500 119244.000000
1229 11682 1 0.16500 119244.000000
1229 13840 1 0.16500 119244.000000
1230 11682 1 0.16500 119244.000000
1230 16262 1 0.16500 119244.000000
1231 11682 1 0.16500 119244.000000
1231 16285 1 0.16500 119244.000000
1232 11682 1 0.16500 119244.000000
1232 13133 1 0.16500 119244.000000
1233 11683 1 0.16500 119244.000000
1233 14849 1 0.16500 119244.000000
1234 11683 1 0.16500 119244.000000
1234 15318 1 0.16500 119244.000000
1235 11683 1 0.16500 119244.000000
1235 13218 1 0.16500 119244.000000
1236 11683 1 0.16500 119244.000000
1236 14744 1 0.16500 119244.000000
1237 19378 1 0.16500 119244.000000
1237 21685 1 0.16500 119244.000000
1238 15657 1 0.16500 119244.000000
1238 19378 1 0.16500 119244.000000
1239 13639 1 0.16500 119244.000000
1239 19378 1 0.16500 119244.000000
1240 11684 1 0.16500 119244.000000
1240 21661 1 0.16500 119244.000000
1241 11684 1 0.16500 119244.000000
1241 13509 1 0.16500 119244.000000
1242 11684 1 0.16500 119244.000000
1242 12809 1 0.16500 119244.000000
1243 11685 1 0.16500 119244.000000
1243 15111 1 0.16500 119244.000000
1244 11685 1 0.16500 119244.000000
1244 15689 1 0.16500 119244.000000
1245 11685 1 0.16500 119244.000000
1245 16054 1 0.16500 119244.000000
1246 11686 1 0.16500 119244.000000
1246 13897 1 0.16500 119244.000000
1247 11686 1 0.16500 119244.000000
1247 11844 1 0.16500 119244.000000
1248 11686 1 0.16500 119244.000000
1248 15264 1 0.16500 119244.000000
1249 11686 1 0.16500 119244.000000
1249 14107 1 0.16500 119244.000000
1250 11687 1 0.16500 119244.000000
1250 15636 1 0.16500 119244.000000
1251 11687 1 0.16500 119244.000000
1251 12908 1 0.16500 119244.000000
1252 11687 1 0.16500 119244.000000
1252 12459 1 0.16500 119244.000000
1253 11687 1 0.16500 119244.000000
1253 14283 1 0.16500 119244.000000
1254 11688 1 0.16500 119244.000000
1254 14235 1 0.16500 119244.000000
1255 11688 1 0.16500 119244.000000
1255 14034 1 0.16500 119244.000000
1256 11688 1 0.16500 119244.000000
1256 11739 1 0.16500 119244.000000
1257 11688 1 0.16500 119244.000000
1257 16222 1 0.16500 119244.000000
1258 11816 1 0.16500 119244.000000
1258 12801 1 0.16500 119244.000000
1259 11689 1 0.16500 119244.000000
1259 20914 1 0.16500 119244.000000
1260 11689 1 0.16500 119244.000000
1260 16236 1 0.16500 119244.000000
1261 11689 1 0.16500 119244.000000
1261 13208 1 0.16500 119244.000000
1262 11689 1 0.16500 119244.000000
1262 16504 1 0.16500 119244.000000
1263 11690 1 0.16500 119244.000000
1263 16559 1 0.16500 119244.000000
1264 11690 1 0.16500 119244.000000
1264 15556 1 0.16500 119244.000000
1265 11690 1 0.16500 119244.000000
1265 12348 1 0.16500 119244.000000
1266 11691 1 0.16500 119244.000000
1266 13634 1 0.16500 119244.000000
1267 11691 1 0.16500 119244.000000
1267 15389 1 0.16500 119244.000000
1268 11691 1 0.16500 119244.000000
1268 13751 1 0.16500 119244.000000
1269 11691 1 0.16500 119244.000000
1269 14252 1 0.16500 119244.000000
1270 11692 1 0.16500 119244.000000
1270 14543 1 0.16500 119244.000000
1271 11692 1 0.16500 119244.000000
1271 16616 1 0.16500 119244.000000
1272 11692 1 0.16500 119244.000000
1272 13930 1 0.16500 119244.000000
1273 11692 1 0.16500 119244.000000
1273 12428 1 0.16500 119244.000000
1274 11693 1 0.16500 119244.000000
1274 16339 1 0.16500 119244.000000
1275 11693 1 0.16500 119244.000000
1275 13153 1 0.16500 119244.000000
1276 11693 1 0.16500 119244.000000
1276 13765 1 0.16500 119244.000000
1277 11693 1 0.16500 119244.000000
1277 13151 1 0.16500 119244.000000
1278 11694 1 0.16500 119244.000000
1278 12459 1 0.16500 119244.000000
1279 11694 1 0.16500 119244.000000
1279 12168 1 0.16500 119244.000000
1280 11694 1 0.16500 119244.000000
1280 14187 1 0.16500 119244.000000
1281 11694 1 0.16500 119244.000000
1281 15639 1 0.16500 119244.000000
1282 11695 1 0.16500 119244.000000
1282 14825 1 0.16500 119244.000000
1283 11695 1 0.16500 119244.000000
1283 14960 1 0.16500 119244.000000
1284 12253 1 0.16500 119244.000000
1284 16453 1 0.16500 119244.000000
1285 11695 1 0.16500 119244.000000
1285 16453 1 0.16500 119244.000000
1286 14913 1 0.16500 119244.000000
1286 21223 1 0.16500 119244.000000
1287 14913 1 0.16500 119244.000000
1287 16490 1 0.16500 119244.000000
1288 12800 1 0.16500 119244.000000
1288 21223 1 0.16500 119244.000000
1289 11696 1 0.16500 119244.000000
1289 13345 1 0.16500 119244.000000
1290 11696 1 0.16500 119244.000000
1290 14856 1 0.16500 119244.000000
1291 11696 1 0.16500 119244.000000
1291 21535 1 0.16500 119244.000000
1292 11697 1 0.16500 119244.000000
1292 15661 1 0.16500 119244.000000
1293 11697 1 0.16500 119244.000000
1293 16053 1 0.16500 119244.000000
1294 11697 1 0.16500 119244.000000
1294 15903 1 0.16500 119244.000000
1295 11697 1 0.16500 119244.000000
1295 16458 1 0.16500 119244.000000
1296 11698 1 0.16500 119244.000000
1296 15557 1 0.16500 119244.000000
1297 11698 1 0.16500 119244.000000
1297 15087 1 0.16500 119244.000000
1298 11698 1 0.16500 119244.000000
1298 12030 1 0.16500 119244.000000
1299 11699 1 0.16500 119244.000000
1299 11812 1 0.16500 119244.000000
1300 11699 1 0.16500 119244.000000
1300 16016 1 0.16500 119244.000000
1301 11699 1 0.16500 119244.000000
1301 12218 1 0.16500 119244.000000
1302 11699 1 0.16500 119244.000000
1302 12702 1 0.16500 119244.000000
1303 11700 1 0.16500 119244.000000
1303 15193 1 0.16500 119244.000000
1304 14309 1 0.16500 119244.000000
1304 16075 1 0.16500 119244.000000
1305 11700 1 0.16500 119244.000000
1305 14309 1 0.16500 119244.000000
1306 11700 1 0.16500 119244.000000
1306 15973 1 0.16500 119244.000000
1307 11701 1 0.16500 119244.000000
1307 14672 1 0.16500 119244.000000
1308 11701 1 0.16500 119244.000000
1308 11758 1 0.16500 119244.000000
1309 11701 1 0.16500 119244.000000
1309 12811 1 0.16500 119244.000000
1310 11702 1 0.16500 119244.000000
1310 16120 1 0.16500 119244.000000
1311 11702 1 0.16500 119244.000000
1311 14431 1 0.16500 119244.000000
1312 11629 1 0.16500 119244.000000
1312 11702 1 0.16500 119244.000000
1313 11703 1 0.16500 119244.000000
1313 12031 1 0.16500 119244.000000
1314 11703 1 0.16500 119244.000000
1314 16375 1 0.16500 119244.000000
1315 11703 1 0.16500 119244.000000
1315 13372 1 0.16500 119244.000000
1316 11703 1 0.16500 119244.000000
1316 12163 1 0.16500 119244.000000
1317 11704 1 0.16500 119244.000000
1317 12829 1 0.16500 119244.000000
1318 11704 1 0.16500 119244.000000
1318 14591 1 0.16500 119244.000000
1319 11704 1 0.16500 119244.000000
1319 16293 1 0.16500 119244.000000
1320 11704 1 0.16500 119244.000000
1320 14431 1 0.16500 119244.000000
1321 11705 1 0.16500 119244.000000
1321 14543 1 0.16500 119244.000000
1322 11705 1 0.16500 119244.000000
1322 14560 1 0.16500 119244.000000
1323 11705 1 0.16500 119244.000000
1323 16114 1 0.16500 119244.000000
1324 11705 1 0.16500 119244.000000
1324 12002 1 0.16500 119244.000000
1325 11706 1 0.16500 119244.000000
1325 21292 1 0.16500 119244.000000
1326 11706 1 0.16500 119244.000000
1326 14759 1 0.16500 119244.000000
1327 11706 1 0.16500 119244.000000
1327 17218 1 0.16500 119244.000000
1328 11706 1 0.16500 119244.000000
1328 14334 1 0.16500 119244.000000
1329 11707 1 0.16500 119244.000000
1329 12911 1 0.16500 119244.000000
1330 12911 1 0.16500 119244.000000
1330 21712 1 0.16500 119244.000000
1331 11707 1 0.16500 119244.000000
1331 12452 1 0.16500 119244.000000
1332 11708 1 0.16500 119244.000000
1332 15480 1 0.16500 119244.000000
1333 11708 1 0.16500 119244.000000
1333 15204 1 0.16500 119244.000000
1334 11708 1 0.16500 119244.000000
1334 14382 1 0.16500 119244.000000
1335 11708 1 0.16500 119244.000000
1335 13751 1 0.16500 119244.000000
1336 11709 1 0.16500 119244.000000
1336 14046 1 0.16500 119244.000000
1337 11709 1 0.16500 119244.000000
1337 15552 1 0.16500 119244.000000
1338 11709 1 0.16500 119244.000000
1338 12543 1 0.16500 119244.000000
1339 11709 1 0.16500 119244.000000
1339 14271 1 0.16500 119244.000000
1340 11710 1 0.16500 119244.000000
1340 15841 1 0.16500 119244.000000
1341 11710 1 0.16500 119244.000000
1341 13649 1 0.16500 119244.000000
1342 11710 1 0.16500 119244.000000
1342 16114 1 0.16500 119244.000000
1343 11711 1 0.16500 119244.000000
1343 11878 1 0.16500 119244.000000
1344 11711 1 0.16500 119244.000000
1344 11794 1 0.16500 119244.000000
1345 11712 1 0.16500 119244.000000
1345 12419 1 0.16500 119244.000000
1346 11712 1 0.16500 119244.000000
1346 11907 1 0.16500 119244.000000
1347 11712 1 0.16500 119244.000000
1347 14322 1 0.16500 119244.000000
1348 11712 1 0.16500 119244.000000
1348 16341 1 0.16500 119244.000000
1349 13543 1 0.16500 119244.000000
1349 15714 1 0.16500 119244.000000
1350 13543 1 0.16500 119244.000000
1350 15418 1 0.16500 119244.000000
1351 11713 1 0.16500 119244.000000
1351 13543 1 0.16500 119244.000000
1352 15311 1 0.16500 119244.000000
1352 15418 1 0.16500 119244.000000
1353 11714 1 0.16500 119244.000000
1353 14127 1 0.16500 119244.000000
1354 15157 1 0.16500 119244.000000
1354 15252 1 0.16500 119244.000000
1355 11714 1 0.16500 119244.000000
1355 16318 1 0.16500 119244.000000
1356 11714 1 0.16500 119244.000000
1356 15157 1 0.16500 119244.000000
1357 12204 1 0.16500 119244.000000
1357 15910 1 0.16500 119244.000000
1358 11715 1 0.16500 119244.000000
1358 15417 1 0.16500 119244.000000
1359 12204 1 0.16500 119244.000000
1359 14471 1 0.16500 119244.000000
1360 11715 1 0.16500 119244.000000
1360 12204 1 0.16500 119244.000000
1361 11716 1 0.16500 119244.000000
1361 16363 1 0.16500 119244.000000
1362 11716 1 0.16500 119244.000000
1362 15896 1 0.16500 119244.000000
1363 11716 1 0.16500 119244.000000
1363 13803 1 0.16500 119244.000000
1364 11716 1 0.16500 119244.000000
1364 11856 1 0.16500 119244.000000
1365 11717 1 0.16500 119244.000000
1365 14045 1 0.16500 119244.000000
1366 11717 1 0.16500 119244.000000
1366 12173 1 0.16500 119244.000000
1367 11717 1 0.16500 119244.000000
1367 15021 1 0.16500 119244.000000
1368 11717 1 0.16500 119244.000000
1368 13683 1 0.16500 119244.000000
1369 11718 1 0.16500 119244.000000
1369 13109 1 0.16500 119244.000000
1370 11718 1 0.16500 119244.000000
1370 14782 1 0.16500 119244.000000
1371 11718 1 0.16500 119244.000000
1371 14101 1 0.16500 119244.000000
1372 11718 1 0.16500 119244.000000
1372 11883 1 0.16500 119244.000000
1373 11719 1 0.16500 119244.000000
1373 12139 1 0.16500 119244.000000
1374 11719 1 0.16500 119244.000000
1374 13654 1 0.16500 119244.000000
1375 11719 1 0.16500 119244.000000
1375 15340 1 0.16500 119244.000000
1376 11720 1 0.16500 119244.000000
1376 12840 1 0.16500 119244.000000
1377 11720 1 0.16500 119244.000000
1377 15651 1 0.16500 119244.000000
1378 11720 1 0.16500 119244.000000
1378 14378 1 0.16500 119244.000000
1379 11720 1 0.16500 119244.000000
1379 12456 1 0.16500 119244.000000
1380 14642 1 0.16500 119244.000000
1380 18598 1 0.16500 119244.000000
1381 18598 1 0.16500 119244.000000
1381 19198 1 0.16500 119244.000000
1382 17162 1 0.16500 119244.000000
1382 18598 1 0.16500 119244.000000
1383 11721 1 0.16500 119244.000000
1383 15017 1 0.16500 119244.000000
1384 11721 1 0.16500 119244.000000
1384 16259 1 0.16500 119244.000000
1385 11721 1 0.16500 119244.000000
1385 15619 1 0.16500 119244.000000
1386 11721 1 0.16500 119244.000000
1386 14780 1 0.16500 119244.000000
1387 12893 1 0.16500 119244.000000
1387 21226 1 0.16500 119244.000000
1388 14691 1 0.16500 119244.000000
1388 21226 1 0.16500 119244.000000
1389 15789 1 0.16500 119244.000000
1389 21226 1 0.16500 119244.000000
1390 11722 1 0.16500 119244.000000
1390 15141 1 0.16500 119244.000000
1391 11722 1 0.16500 119244.000000
1391 13371 1 0.16500 119244.000000
1392 11722 1 0.16500 119244.000000
1392 13264 1 0.16500 119244.000000
1393 11722 1 0.16500 119244.000000
1393 12613 1 0.16500 119244.000000
1394 11723 1 0.16500 119244.000000
1394 15251 1 0.16500 119244.000000
1395 11723 1 0.16500 119244.000000
1395 13626 1 0.16500 119244.000000
1396 11723 1 0.16500 119244.000000
1396 12334 1 0.16500 119244.000000
1397 11723 1 0.16500 119244.000000
1397 14856 1 0.16500 119244.000000
1398 11724 1 0.16500 119244.000000
1398 14158 1 0.16500 119244.000000
1399 11724 1 0.16500 119244.000000
1399 12959 1 0.16500 119244.000000
1400 11724 1 0.16500 119244.000000
1400 14489 1 0.16500 119244.000000
1401 11724 1 0.16500 119244.000000
1401 13674 1 0.16500 119244.000000
1402 11725 1 0.16500 119244.000000
1402 15036 1 0.16500 119244.000000
1403 14062 1 0.16500 119244.000000
1403 16072 1 0.16500 119244.000000
1404 11725 1 0.16500 119244.000000
1404 13656 1 0.16500 119244.000000
1405 11725 1 0.16500 119244.000000
1405 14062 1 0.16500 119244.000000
1406 12241 1 0.16500 119244.000000
1406 21229 1 0.16500 119244.000000
1407 18718 1 0.16500 119244.000000
1407 21229 1 0.16500 119244.000000
1408 15436 1 0.16500 119244.000000
1408 21229 1 0.16500 119244.000000
1409 12221 1 0.16500 119244.000000
1409 15112 1 0.16500 119244.000000
1410 11726 1 0.16500 119244.000000
1410 15112 1 0.16500 119244.000000
1411 11726 1 0.16500 119244.000000
1411 15731 1 0.16500 119244.000000
1412 11726 1 0.16500 119244.000000
1412 15248 1 0.16500 119244.000000
1413 11727 1 0.16500 119244.000000
1413 14659 1 0.16500 119244.000000
1414 11727 1 0.16500 119244.000000
1414 16742 1 0.16500 119244.000000
1415 11728 1 0.16500 119244.000000
1415 16368 1 0.16500 119244.000000
1416 11728 1 0.16500 119244.000000
1416 11851 1 0.16500 119244.000000
1417 11728 1 0.16500 119244.000000
1417 14748 1 0.16500 119244.000000
1418 11729 1 0.16500 119244.000000
1418 15375 1 0.16500 119244.000000
1419 11729 1 0.16500 119244.000000
1419 15950 1 0.16500 119244.000000
1420 11729 1 0.16500 119244.000000
1420 13195 1 0.16500 119244.000000
1421 11729 1 0.16500 119244.000000
1421 13215 1 0.16500 119244.000000
1422 11730 1 0.16500 119244.000000
1422 13659 1 0.16500 119244.000000
1423 11730 1 0.16500 119244.000000
1423 12408 1 0.16500 119244.000000
1424 11730 1 0.16500 119244.000000
1424 12675 1 0.16500 119244.000000
1425 11730 1 0.16500 119244.000000
1425 15555 1 0.16500 119244.000000
1426 11731 1 0.16500 119244.000000
1426 12922 1 0.16500 119244.000000
1427 11731 1 0.16500 119244.000000
1427 12913 1 0.16500 119244.000000
1428 11731 1 0.16500 119244.000000
1428 16581 1 0.16500 119244.000000
1429 11731 1 0.16500 119244.000000
1429 14571 1 0.16500 119244.000000
1430 11732 1 0.16500 119244.000000
1430 15177 1 0.16500 119244.000000
1431 11732 1 0.16500 119244.000000
1431 14121 1 0.16500 119244.000000
1432 11732 1 0.16500 119244.000000
1432 15189 1 0.16500 119244.000000
1433 11733 1 0.16500 119244.000000
1433 13256 1 0.16500 119244.000000
1434 11733 1 0.16500 119244.000000
1434 12038 1 0.16500 119244.000000
1435 11733 1 0.16500 119244.000000
1435 15309 1 0.16500 119244.000000
1436 11734 1 0.16500 119244.000000
1436 15882 1 0.16500 119244.000000
1437 11734 1 0.16500 119244.000000
1437 13719 1 0.16500 119244.000000
1438 11734 1 0.16500 119244.000000
1438 15685 1 0.16500 119244.000000
1439 11734 1 0.16500 119244.000000
1439 12264 1 0.16500 119244.000000
1440 11735 1 0.16500 119244.000000
1440 13911 1 0.16500 119244.000000
1441 11735 1 0.16500 119244.000000
1441 15022 1 0.16500 119244.000000
1442 11735 1 0.16500 119244.000000
1442 16329 1 0.16500 119244.000000
1443 15903 1 0.16500 119244.000000
1443 21232 1 0.16500 119244.000000
1444 21232 1 0.16500 119244.000000
1444 21901 1 0.16500 119244.000000
1445 11736 1 0.16500 119244.000000
1445 14383 1 0.16500 119244.000000
1446 11736 1 0.16500 119244.000000
1446 16364 1 0.16500 119244.000000
1447 11736 1 0.16500 119244.000000
1447 16620 1 0.16500 119244.000000
1448 11736 1 0.16500 119244.000000
1448 12933 1 0.16500 119244.000000
1449 16459 1 0.16500 119244.000000
1449 21235 1 0.16500 119244.000000
1450 18058 1 0.16500 119244.000000
1450 21235 1 0.16500 119244.000000
1451 11737 1 0.16500 119244.000000
1451 12689 1 0.16500 119244.000000
1452 11737 1 0.16500 119244.000000
1452 15892 1 0.16500 119244.000000
1453 11737 1 0.16500 119244.000000
1453 14580 1 0.16500 119244.000000
1454 11738 1 0.16500 119244.000000
1454 14465 1 0.16500 119244.000000
1455 11738 1 0.16500 119244.000000
1455 17092 1 0.16500 119244.000000
1456 11738 1 0.16500 119244.000000
1456 15552 1 0.16500 119244.000000
1457 11739 1 0.16500 119244.000000
1457 13795 1 0.16500 119244.000000
1458 11739 1 0.16500 119244.000000
1458 16428 1 0.16500 119244.000000
1459 11739 1 0.16500 119244.000000
1459 16341 1 0.16500 119244.000000
1460 12509 1 0.16500 119244.000000
1460 15249 1 0.16500 119244.000000
1461 11740 1 0.16500 119244.000000
1461 14988 1 0.16500 119244.000000
1462 11740 1 0.16500 119244.000000
1462 15888 1 0.16500 119244.000000
1463 13909 1 0.16500 119244.000000
1463 15125 1 0.16500 119244.000000
1464 11741 1 0.16500 119244.000000
1464 14662 1 0.16500 119244.000000
1465 11741 1 0.16500 119244.000000
1465 14299 1 0.16500 119244.000000
1466 11741 1 0.16500 119244.000000
1466 14336 1 0.16500 119244.000000
1467 11741 1 0.16500 119244.000000
1467 15128 1 0.16500 119244.000000
1468 12119 1 0.16500 119244.000000
1468 16116 1 0.16500 119244.000000
1469 12461 1 0.16500 119244.000000
1469 14191 1 0.16500 119244.000000
1470 12119 1 0.16500 119244.000000
1470 20242 1 0.16500 119244.000000
1471 12461 1 0.16500 119244.000000
1471 20242 1 0.16500 119244.000000
1472 11742 1 0.16500 119244.000000
1472 12264 1 0.16500 119244.000000
1473 11742 1 0.16500 119244.000000
1473 13372 1 0.16500 119244.000000
1474 11742 1 0.16500 119244.000000
1474 12635 1 0.16500 119244.000000
1475 11742 1 0.16500 119244.000000
1475 13149 1 0.16500 119244.000000
1476 17330 1 0.16500 119244.000000
1476 21553 1 0.16500 119244.000000
1477 14436 1 0.16500 119244.000000
1477 17330 1 0.16500 119244.000000
1478 11743 1 0.16500 119244.000000
1478 15039 1 0.16500 119244.000000
1479 11743 1 0.16500 119244.000000
1479 15924 1 0.16500 119244.000000
1480 11743 1 0.16500 119244.000000
1480 15285 1 0.16500 119244.000000
1481 11743 1 0.16500 119244.000000
1481 17036 1 0.16500 119244.000000
1482 11744 1 0.16500 119244.000000
1482 14238 1 0.16500 119244.000000
1483 11744 1 0.16500 119244.000000
1483 15506 1 0.16500 119244.000000
1484 11744 1 0.16500 119244.000000
1484 12164 1 0.16500 119244.000000
1485 11744 1 0.16500 119244.000000
1485 15912 1 0.16500 119244.000000
1486 11745 1 0.16500 119244.000000
1486 14190 1 0.16500 119244.000000
1487 11745 1 0.16500 119244.000000
1487 15484 1 0.16500 119244.000000
1488 11745 1 0.16500 119244.000000
1488 16026 1 0.16500 119244.000000
1489 11745 1 0.16500 119244.000000
1489 15027 1 0.16500 119244.000000
1490 11746 1 0.16500 119244.000000
1490 13539 1 0.16500 119244.000000
1491 11746 1 0.16500 119244.000000
1491 13837 1 0.16500 119244.000000
1492 11746 1 0.16500 119244.000000
1492 12209 1 0.16500 119244.000000
1493 11746 1 0.16500 119244.000000
1493 14896 1 0.16500 119244.000000
1494 11747 1 0.16500 119244.000000
1494 12087 1 0.16500 119244.000000
1495 11747 1 0.16500 119244.000000
1495 13432 1 0.16500 119244.000000
1496 11747 1 0.16500 119244.000000
1496 12967 1 0.16500 119244.000000
1497 11747 1 0.16500 119244.000000
1497 12804 1 0.16500 119244.000000
1498 11748 1 0.16500 119244.000000
1498 15812 1 0.16500 119244.000000
1499 12308 1 0.16500 119244.000000
1499 13682 1 0.16500 119244.000000
1500 11748 1 0.16500 119244.000000
1500 12308 1 0.16500 119244.000000
1501 11748 1 0.16500 119244.000000
1501 11939 1 0.16500 119244.000000
1502 11749 1 0.16500 119244.000000
1502 12237 1 0.16500 119244.000000
1503 11749 1 0.16500 119244.000000
1503 12897 1 0.16500 119244.000000
1504 11749 1 0.16500 119244.000000
1504 14971 1 0.16500 119244.000000
1505 11749 1 0.16500 119244.000000
1505 14392 1 0.16500 119244.000000
1506 11750 1 0.16500 119244.000000
1506 14143 1 0.16500 119244.000000
1507 11750 1 0.16500 119244.000000
1507 13730 1 0.16500 119244.000000
1508 11750 1 0.16500 119244.000000
1508 14979 1 0.16500 119244.000000
1509 11750 1 0.16500 119244.000000
1509 16137 1 0.16500 119244.000000
1510 11751 1 0.16500 119244.000000
1510 13768 1 0.16500 119244.000000
1511 11751 1 0.16500 119244.000000
1511 14513 1 0.16500 119244.000000
1512 11751 1 0.16500 119244.000000
1512 15476 1 0.16500 119244.000000
1513 11751 1 0.16500 119244.000000
1513 15423 1 0.16500 119244.000000
1514 11752 1 0.16500 119244.000000
1514 12926 1 0.16500 119244.000000
1515 11752 1 0.16500 119244.000000
1515 15178 1 0.16500 119244.000000
1516 11752 1 0.16500 119244.000000
1516 14837 1 0.16500 119244.000000
1517 11752 1 0.16500 119244.000000
1517 14816 1 0.16500 119244.000000
1518 11753 1 0.16500 119244.000000
1518 14303 1 0.16500 119244.000000
1519 11753 1 0.16500 119244.000000
1519 14361 1 0.16500 119244.000000
1520 11753 1 0.16500 119244.000000
1520 12066 1 0.16500 119244.000000
1521 11753 1 0.16500 119244.000000
1521 16118 1 0.16500 119244.000000
1522 11754 1 0.16500 119244.000000
1522 14421 1 0.16500 119244.000000
1523 11754 1 0.16500 119244.000000
1523 14618 1 0.16500 119244.000000
1524 11754 1 0.16500 119244.000000
1524 13870 1 0.16500 119244.000000
1525 11754 1 0.16500 119244.000000
1525 15408 1 0.16500 119244.000000
1526 11755 1 0.16500 119244.000000
1526 17638 1 0.16500 119244.000000
1527 11755 1 0.16500 119244.000000
1527 14616 1 0.16500 119244.000000
1528 11755 1 0.16500 119244.000000
1528 15991 1 0.16500 119244.000000
1529 11755 1 0.16500 119244.000000
1529 13832 1 0.16500 119244.000000
1530 11756 1 0.16500 119244.000000
1530 15538 1 0.16500 119244.000000
1531 11756 1 0.16500 119244.000000
1531 16263 1 0.16500 119244.000000
1532 11756 1 0.16500 119244.000000
1532 14496 1 0.16500 119244.000000
1533 11756 1 0.16500 119244.000000
1533 13935 1 0.16500 119244.000000
1534 11757 1 0.16500 119244.000000
1534 14693 1 0.16500 119244.000000
1535 11757 1 0.16500 119244.000000
1535 14928 1 0.16500 119244.000000
1536 11757 1 0.16500 119244.000000
1536 14977 1 0.16500 119244.000000
1537 11757 1 0.16500 119244.000000
1537 15461 1 0.16500 119244.000000
1538 11758 1 0.16500 119244.000000
1538 16399 1 0.16500 119244.000000
1539 11758 1 0.16500 119244.000000
1539 12959 1 0.16500 119244.000000
1540 11758 1 0.16500 119244.000000
1540 14586 1 0.16500 119244.000000
1541 13520 1 0.16500 119244.000000
1541 20866 1 0.16500 119244.000000
1542 14645 1 0.16500 119244.000000
1542 20866 1 0.16500 119244.000000
1543 11759 1 0.16500 119244.000000
1543 16451 1 0.16500 119244.000000
1544 11759 1 0.16500 119244.000000
1544 12511 1 0.16500 119244.000000
1545 11759 1 0.16500 119244.000000
1545 14096 1 0.16500 119244.000000
1546 11759 1 0.16500 119244.000000
1546 13724 1 0.16500 119244.000000
1547 11760 1 0.16500 119244.000000
1547 12413 1 0.16500 119244.000000
1548 11760 1 0.16500 119244.000000
1548 11958 1 0.16500 119244.000000
1549 11760 1 0.16500 119244.000000
1549 15132 1 0.16500 119244.000000
1550 11760 1 0.16500 119244.000000
1550 13700 1 0.16500 119244.000000
1551 11761 1 0.16500 119244.000000
1551 15055 1 0.16500 119244.000000
1552 11761 1 0.16500 119244.000000
1552 13759 1 0.16500 119244.000000
1553 11761 1 0.16500 119244.000000
1553 15406 1 0.16500 119244.000000
1554 11761 1 0.16500 119244.000000
1554 14744 1 0.16500 119244.000000
1555 11762 1 0.16500 119244.000000
1555 12314 1 0.16500 119244.000000
1556 11762 1 0.16500 119244.000000
1556 14014 1 0.16500 119244.000000
1557 11762 1 0.16500 119244.000000
1557 14602 1 0.16500 119244.000000
1558 11762 1 0.16500 119244.000000
1558 14814 1 0.16500 119244.000000
1559 11763 1 0.16500 119244.000000
1559 15211 1 0.16500 119244.000000
1560 11763 1 0.16500 119244.000000
1560 15107 1 0.16500 119244.000000
1561 11763 1 0.16500 119244.000000
1561 15551 1 0.16500 119244.000000
1562 11763 1 0.16500 119244.000000
1562 16343 1 0.16500 119244.000000
1563 11764 1 0.16500 119244.000000
1563 21634 1 0.16500 119244.000000
1564 11764 1 0.16500 119244.000000
1564 14042 1 0.16500 119244.000000
1565 11764 1 0.16500 119244.000000
1565 12276 1 0.16500 119244.000000
1566 11764 1 0.16500 119244.000000
1566 21274 1 0.16500 119244.000000
1567 11765 1 0.16500 119244.000000
1567 11826 1 0.16500 119244.000000
1568 12416 1 0.16500 119244.000000
1568 16158 1 0.16500 119244.000000
1569 11765 1 0.16500 119244.000000
1569 12416 1 0.16500 119244.000000
1570 11765 1 0.16500 119244.000000
1570 13735 1 0.16500 119244.000000
1571 11766 1 0.16500 119244.000000
1571 12263 1 0.16500 119244.000000
1572 11766 1 0.16500 119244.000000
1572 15975 1 0.16500 119244.000000
1573 11766 1 0.16500 119244.000000
1573 15757 1 0.16500 119244.000000
1574 11766 1 0.16500 119244.000000
1574 12242 1 0.16500 119244.000000
1575 11767 1 0.16500 119244.000000
1575 15911 1 0.16500 119244.000000
1576 11990 1 0.16500 119244.000000
1576 15911 1 0.16500 119244.000000
1577 11767 1 0.16500 119244.000000
1577 16222 1 0.16500 119244.000000
1578 11767 1 0.16500 119244.000000
1578 14714 1 0.16500 119244.000000
1579 11768 1 0.16500 119244.000000
1579 13567 1 0.16500 119244.000000
1580 11768 1 0.16500 119244.000000
1580 14842 1 0.16500 119244.000000
1581 11768 1 0.16500 119244.000000
1581 13022 1 0.16500 119244.000000
1582 11768 1 0.16500 119244.000000
1582 14554 1 0.16500 119244.000000
1583 11769 1 0.16500 119244.000000
1583 12136 1 0.16500 119244.000000
1584 11769 1 0.16500 119244.000000
1584 13064 1 0.16500 119244.000000
1585 11769 1 0.16500 119244.000000
1585 13637 1 0.16500 119244.000000
1586 11770 1 0.16500 119244.000000
1586 12464 1 0.16500 119244.000000
1587 11770 1 0.16500 119244.000000
1587 16517 1 0.16500 119244.000000
1588 12378 1 0.16500 119244.000000
1588 16517 1 0.16500 119244.000000
1589 11771 1 0.16500 119244.000000
1589 15676 1 0.16500 119244.000000
1590 11771 1 0.16500 119244.000000
1590 13747 1 0.16500 119244.000000
1591 11771 1 0.16500 119244.000000
1591 15525 1 0.16500 119244.000000
1592 11771 1 0.16500 119244.000000
1592 15630 1 0.16500 119244.000000
1593 11772 1 0.16500 119244.000000
1593 15845 1 0.16500 119244.000000
1594 11772 1 0.16500 119244.000000
1594 13240 1 0.16500 119244.000000
1595 11772 1 0.16500 119244.000000
1595 14982 1 0.16500 119244.000000
1596 11773 1 0.16500 119244.000000
1596 16424 1 0.16500 119244.000000
1597 11506 1 0.16500 119244.000000
1597 11773 1 0.16500 119244.000000
1598 11773 1 0.16500 119244.000000
1598 15454 1 0.16500 119244.000000
1599 11774 1 0.16500 119244.000000
1599 14126 1 0.16500 119244.000000
1600 11774 1 0.16500 119244.000000
1600 13871 1 0.16500 119244.000000
1601 11774 1 0.16500 119244.000000
1601 11817 1 0.16500 119244.000000
1602 11775 1 0.16500 119244.000000
1602 12200 1 0.16500 119244.000000
1603 11775 1 0.16500 119244.000000
1603 13294 1 0.16500 119244.000000
1604 11775 1 0.16500 119244.000000
1604 13793 1 0.16500 119244.000000
1605 11776 1 0.16500 119244.000000
1605 13219 1 0.16500 119244.000000
1606 11776 1 0.16500 119244.000000
1606 14233 1 0.16500 119244.000000
1607 11776 1 0.16500 119244.000000
1607 14510 1 0.16500 119244.000000
1608 11776 1 0.16500 119244.000000
1608 12383 1 0.16500 119244.000000
1609 11777 1 0.16500 119244.000000
1609 13734 1 0.16500 119244.000000
1610 11777 1 0.16500 119244.000000
1610 14255 1 0.16500 119244.000000
1611 11777 1 0.16500 119244.000000
1611 12916 1 0.16500 119244.000000
1612 13734 1 0.16500 119244.000000
1612 15721 1 0.16500 119244.000000
1613 11778 1 0.16500 119244.000000
1613 12843 1 0.16500 119244.000000
1614 11778 1 0.16500 119244.000000
1614 16105 1 0.16500 119244.000000
1615 11778 1 0.16500 119244.000000
1615 16191 1 0.16500 119244.000000
1616 11779 1 0.16500 119244.000000
1616 12652 1 0.16500 119244.000000
1617 11779 1 0.16500 119244.000000
1617 12855 1 0.16500 119244.000000
1618 11779 1 0.16500 119244.000000
1618 13889 1 0.16500 119244.000000
1619 11791 1 0.16500 119244.000000
1619 13732 1 0.16500 119244.000000
1620 11780 1 0.16500 119244.000000
1620 13732 1 0.16500 119244.000000
1621 11780 1 0.16500 119244.000000
1621 14380 1 0.16500 119244.000000
1622 11780 1 0.16500 119244.000000
1622 14760 1 0.16500 119244.000000
1623 11781 1 0.16500 119244.000000
1623 16101 1 0.16500 119244.000000
1624 11781 1 0.16500 119244.000000
1624 13047 1 0.16500 119244.000000
1625 11781 1 0.16500 119244.000000
1625 11914 1 0.16500 119244.000000
1626 11782 1 0.16500 119244.000000
1626 13972 1 0.16500 119244.000000
1627 11782 1 0.16500 119244.000000
1627 12368 1 0.16500 119244.000000
1628 11782 1 0.16500 119244.000000
1628 13724 1 0.16500 119244.000000
1629 11782 1 0.16500 119244.000000
1629 14698 1 0.16500 119244.000000
1630 11783 1 0.16500 119244.000000
1630 15835 1 0.16500 119244.000000
1631 11783 1 0.16500 119244.000000
1631 16303 1 0.16500 119244.000000
1632 11783 1 0.16500 119244.000000
1632 15918 1 0.16500 119244.000000
1633 13332 1 0.16500 119244.000000
1633 16303 1 0.16500 119244.000000
1634 15156 1 0.16500 119244.000000
1634 20794 1 0.16500 119244.000000
1635 19042 1 0.16500 119244.000000
1635 20794 1 0.16500 119244.000000
1636 13637 1 0.16500 119244.000000
1636 20794 1 0.16500 119244.000000
1637 11784 1 0.16500 119244.000000
1637 16027 1 0.16500 119244.000000
1638 11784 1 0.16500 119244.000000
1638 14971 1 0.16500 119244.000000
1639 11784 1 0.16500 119244.000000
1639 14155 1 0.16500 119244.000000
1640 11784 1 0.16500 119244.000000
1640 15256 1 0.16500 119244.000000
1641 11785 1 0.16500 119244.000000
1641 13565 1 0.16500 119244.000000
1642 11785 1 0.16500 119244.000000
1642 12732 1 0.16500 119244.000000
1643 11785 1 0.16500 119244.000000
1643 12795 1 0.16500 119244.000000
1644 21238 1 0.16500 119244.000000
1644 21916 1 0.16500 119244.000000
1645 21238 1 0.16500 119244.000000
1645 21814 1 0.16500 119244.000000
1646 14667 1 0.16500 119244.000000
1646 21238 1 0.16500 119244.000000
1647 11649 1 0.16500 119244.000000
1647 14408 1 0.16500 119244.000000
1648 12295 1 0.16500 119244.000000
1648 13345 1 0.16500 119244.000000
1649 11649 1 0.16500 119244.000000
1649 12295 1 0.16500 119244.000000
1650 13237 1 0.16500 119244.000000
1650 21241 1 0.16500 119244.000000
1651 16400 1 0.16500 119244.000000
1651 21241 1 0.16500 119244.000000
1652 19450 1 0.16500 119244.000000
1652 21244 1 0.16500 119244.000000
1653 12765 1 0.16500 119244.000000
1653 19450 1 0.16500 119244.000000
1654 11936 1 0.16500 119244.000000
1654 19450 1 0.16500 119244.000000
1655 13223 1 0.16500 119244.000000
1655 21244 1 0.16500 119244.000000
1656 11787 1 0.16500 119244.000000
1656 16436 1 0.16500 119244.000000
1657 11787 1 0.16500 119244.000000
1657 13439 1 0.16500 119244.000000
1658 11787 1 0.16500 119244.000000
1658 14575 1 0.16500 119244.000000
1659 11787 1 0.16500 119244.000000
1659 12379 1 0.16500 119244.000000
1660 11788 1 0.16500 119244.000000
1660 12744 1 0.16500 119244.000000
1661 11788 1 0.16500 119244.000000
1661 16612 1 0.16500 119244.000000
1662 11788 1 0.16500 119244.000000
1662 15581 1 0.16500 119244.000000
1663 11788 1 0.16500 119244.000000
1663 13764 1 0.16500 119244.000000
1664 11789 1 0.16500 119244.000000
1664 13239 1 0.16500 119244.000000
1665 11789 1 0.16500 119244.000000
1665 12659 1 0.16500 119244.000000
1666 11789 1 0.16500 119244.000000
1666 12820 1 0.16500 119244.000000
1667 11789 1 0.16500 119244.000000
1667 15659 1 0.16500 119244.000000
1668 11790 1 0.16500 119244.000000
1668 15289 1 0.16500 119244.000000
1669 11790 1 0.16500 119244.000000
1669 15625 1 0.16500 119244.000000
1670 11790 1 0.16500 119244.000000
1670 16588 1 0.16500 119244.000000
1671 11790 1 0.16500 119244.000000
1671 12220 1 0.16500 119244.000000
1672 11791 1 0.16500 119244.000000
1672 13653 1 0.16500 119244.000000
1673 11791 1 0.16500 119244.000000
1673 13824 1 0.16500 119244.000000
1674 11792 1 0.16500 119244.000000
1674 15819 1 0.16500 119244.000000
1675 11792 1 0.16500 119244.000000
1675 14072 1 0.16500 119244.000000
1676 11792 1 0.16500 119244.000000
1676 14973 1 0.16500 119244.000000
1677 11792 1 0.16500 119244.000000
1677 12894 1 0.16500 119244.000000
1678 11793 1 0.16500 119244.000000
1678 15644 1 0.16500 119244.000000
1679 11793 1 0.16500 119244.000000
1679 12657 1 0.16500 119244.000000
1680 11793 1 0.16500 119244.000000
1680 14504 1 0.16500 119244.000000
1681 11794 1 0.16500 119244.000000
1681 14745 1 0.16500 119244.000000
1682 11794 1 0.16500 119244.000000
1682 14473 1 0.16500 119244.000000
1683 11794 1 0.16500 119244.000000
1683 16840 1 0.16500 119244.000000
1684 18156 1 0.16500 119244.000000
1684 21535 1 0.16500 119244.000000
1685 13056 1 0.16500 119244.000000
1685 21010 1 0.16500 119244.000000
1686 13999 1 0.16500 119244.000000
1686 22004 1 0.16500 119244.000000
1687 13999 1 0.16500 119244.000000
1687 20434 1 0.16500 119244.000000
1688 13416 1 0.16500 119244.000000
1688 20434 1 0.16500 119244.000000
1689 12431 1 0.16500 119244.000000
1689 21247 1 0.16500 119244.000000
1690 14890 1 0.16500 119244.000000
1690 21247 1 0.16500 119244.000000
1691 15053 1 0.16500 119244.000000
1691 21247 1 0.16500 119244.000000
1692 11795 1 0.16500 119244.000000
1692 13888 1 0.16500 119244.000000
1693 11795 1 0.16500 119244.000000
1693 13336 1 0.16500 119244.000000
1694 11795 1 0.16500 119244.000000
1694 15693 1 0.16500 119244.000000
1695 11795 1 0.16500 119244.000000
1695 14291 1 0.16500 119244.000000
1696 12450 1 0.16500 119244.000000
1696 16306 1 0.16500 119244.000000
1697 11796 1 0.16500 119244.000000
1697 12450 1 0.16500 119244.000000
1698 11796 1 0.16500 119244.000000
1698 11929 1 0.16500 119244.000000
1699 11796 1 0.16500 119244.000000
1699 21364 1 0.16500 119244.000000
1700 11797 1 0.16500 119244.000000
1700 16045 1 0.16500 119244.000000
1701 11797 1 0.16500 119244.000000
1701 19270 1 0.16500 119244.000000
1702 11797 1 0.16500 119244.000000
1702 13641 1 0.16500 119244.000000
1703 11797 1 0.16500 119244.000000
1703 12960 1 0.16500 119244.000000
1704 11798 1 0.16500 119244.000000
1704 15116 1 0.16500 119244.000000
1705 11798 1 0.16500 119244.000000
1705 13027 1 0.16500 119244.000000
1706 11798 1 0.16500 119244.000000
1706 16417 1 0.16500 119244.000000
1707 11798 1 0.16500 119244.000000
1707 14645 1 0.16500 119244.000000
1708 11799 1 0.16500 119244.000000
1708 12438 1 0.16500 119244.000000
1709 11799 1 0.16500 119244.000000
1709 15128 1 0.16500 119244.000000
1710 11799 1 0.16500 119244.000000
1710 15057 1 0.16500 119244.000000
1711 11800 1 0.16500 119244.000000
1711 19186 1 0.16500 119244.000000
1712 15133 1 0.16500 119244.000000
1712 19186 1 0.16500 119244.000000
1713 11800 1 0.16500 119244.000000
1713 15745 1 0.16500 119244.000000
1714 11800 1 0.16500 119244.000000
1714 14679 1 0.16500 119244.000000
1715 11801 1 0.16500 119244.000000
1715 21763 1 0.16500 119244.000000
1716 11801 1 0.16500 119244.000000
1716 13227 1 0.16500 119244.000000
1717 11801 1 0.16500 119244.000000
1717 16910 1 0.16500 119244.000000
1718 13120 1 0.16500 119244.000000
1718 16826 1 0.16500 119244.000000
1719 11802 1 0.16500 119244.000000
1719 14693 1 0.16500 119244.000000
1720 12869 1 0.16500 119244.000000
1720 16213 1 0.16500 119244.000000
1721 12869 1 0.16500 119244.000000
1721 16127 1 0.16500 119244.000000
1722 11802 1 0.16500 119244.000000
1722 12869 1 0.16500 119244.000000
1723 11803 1 0.16500 119244.000000
1723 13405 1 0.16500 119244.000000
1724 11803 1 0.16500 119244.000000
1724 15599 1 0.16500 119244.000000
1725 11803 1 0.16500 119244.000000
1725 15608 1 0.16500 119244.000000
1726 11803 1 0.16500 119244.000000
1726 16409 1 0.16500 119244.000000
1727 20806 1 0.16500 119244.000000
1727 21877 1 0.16500 119244.000000
1728 11804 1 0.16500 119244.000000
1728 16044 1 0.16500 119244.000000
1729 11804 1 0.16500 119244.000000
1729 14301 1 0.16500 119244.000000
1730 11804 1 0.16500 119244.000000
1730 12157 1 0.16500 119244.000000
1731 11805 1 0.16500 119244.000000
1731 15073 1 0.16500 119244.000000
1732 11805 1 0.16500 119244.000000
1732 15981 1 0.16500 119244.000000
1733 11805 1 0.16500 119244.000000
1733 13303 1 0.16500 119244.000000
1734 11805 1 0.16500 119244.000000
1734 13195 1 0.16500 119244.000000
1735 14848 1 0.16500 119244.000000
1735 21250 1 0.16500 119244.000000
1736 21250 1 0.16500 119244.000000
1736 21796 1 0.16500 119244.000000
1737 14032 1 0.16500 119244.000000
1737 21250 1 0.16500 119244.000000
1738 11806 1 0.16500 119244.000000
1738 15840 1 0.16500 119244.000000
1739 11806 1 0.16500 119244.000000
1739 16591 1 0.16500 119244.000000
1740 14293 1 0.16500 119244.000000
1740 15840 1 0.16500 119244.000000
1741 12405 1 0.16500 119244.000000
1741 16591 1 0.16500 119244.000000
1742 17008 1 0.16500 119244.000000
1742 17778 1 0.16500 119244.000000
1743 11807 1 0.16500 119244.000000
1743 12288 1 0.16500 119244.000000
1744 11807 1 0.16500 119244.000000
1744 12321 1 0.16500 119244.000000
1745 11807 1 0.16500 119244.000000
1745 14701 1 0.16500 119244.000000
1746 11807 1 0.16500 119244.000000
1746 15586 1 0.16500 119244.000000
1747 11808 1 0.16500 119244.000000
1747 12983 1 0.16500 119244.000000
1748 11808 1 0.16500 119244.000000
1748 15440 1 0.16500 119244.000000
1749 11543 1 0.16500 119244.000000
1749 15050 1 0.16500 119244.000000
1750 12701 1 0.16500 119244.000000
1750 16288 1 0.16500 119244.000000
1751 11809 1 0.16500 119244.000000
1751 19222 1 0.16500 119244.000000
1752 11809 1 0.16500 119244.000000
1752 14006 1 0.16500 119244.000000
1753 11809 1 0.16500 119244.000000
1753 14269 1 0.16500 119244.000000
1754 11810 1 0.16500 119244.000000
1754 15771 1 0.16500 119244.000000
1755 11810 1 0.16500 119244.000000
1755 18802 1 0.16500 119244.000000
1756 11810 1 0.16500 119244.000000
1756 14791 1 0.16500 119244.000000
1757 11810 1 0.16500 119244.000000
1757 13157 1 0.16500 119244.000000
1758 11811 1 0.16500 119244.000000
1758 16232 1 0.16500 119244.000000
1759 11811 1 0.16500 119244.000000
1759 14269 1 0.16500 119244.000000
1760 11811 1 0.16500 119244.000000
1760 15786 1 0.16500 119244.000000
1761 11812 1 0.16500 119244.000000
1761 13018 1 0.16500 119244.000000
1762 11812 1 0.16500 119244.000000
1762 15585 1 0.16500 119244.000000
1763 11812 1 0.16500 119244.000000
1763 12096 1 0.16500 119244.000000
1764 11813 1 0.16500 119244.000000
1764 12220 1 0.16500 119244.000000
1765 11813 1 0.16500 119244.000000
1765 13786 1 0.16500 119244.000000
1766 11813 1 0.16500 119244.000000
1766 12317 1 0.16500 119244.000000
1767 11813 1 0.16500 119244.000000
1767 12384 1 0.16500 119244.000000
1768 11814 1 0.16500 119244.000000
1768 14241 1 0.16500 119244.000000
1769 11814 1 0.16500 119244.000000
1769 12833 1 0.16500 119244.000000
1770 11814 1 0.16500 119244.000000
1770 12770 1 0.16500 119244.000000
1771 11814 1 0.16500 119244.000000
1771 14126 1 0.16500 119244.000000
1772 11815 1 0.16500 119244.000000
1772 18198 1 0.16500 119244.000000
1773 11815 1 0.16500 119244.000000
1773 12429 1 0.16500 119244.000000
1774 11815 1 0.16500 119244.000000
1774 20122 1 0.16500 119244.000000
1775 11815 1 0.16500 119244.000000
1775 14398 1 0.16500 119244.000000
1776 11816 1 0.16500 119244.000000
1776 16610 1 0.16500 119244.000000
1777 11816 1 0.16500 119244.000000
1777 12714 1 0.16500 119244.000000
1778 11817 1 0.16500 119244.000000
1778 14563 1 0.16500 119244.000000
1779 11817 1 0.16500 119244.000000
1779 12884 1 0.16500 119244.000000
1780 11817 1 0.16500 119244.000000
1780 16340 1 0.16500 119244.000000
1781 11818 1 0.16500 119244.000000
1781 20338 1 0.16500 119244.000000
1782 11818 1 0.16500 119244.000000
1782 12796 1 0.16500 119244.000000
1783 11818 1 0.16500 119244.000000
1783 13879 1 0.16500 119244.000000
1784 11818 1 0.16500 119244.000000
1784 16043 1 0.16500 119244.000000
1785 11819 1 0.16500 119244.000000
1785 14038 1 0.16500 119244.000000
1786 11819 1 0.16500 119244.000000
1786 15087 1 0.16500 119244.000000
1787 11819 1 0.16500 119244.000000
1787 14923 1 0.16500 119244.000000
1788 11820 1 0.16500 119244.000000
1788 14987 1 0.16500 119244.000000
1789 11820 1 0.16500 119244.000000
1789 14530 1 0.16500 119244.000000
1790 11820 1 0.16500 119244.000000
1790 14751 1 0.16500 119244.000000
1791 11820 1 0.16500 119244.000000
1791 12883 1 0.16500 119244.000000
1792 11821 1 0.16500 119244.000000
1792 12828 1 0.16500 119244.000000
1793 11821 1 0.16500 119244.000000
1793 12932 1 0.16500 119244.000000
1794 11821 1 0.16500 119244.000000
1794 14010 1 0.16500 119244.000000
1795 11822 1 0.16500 119244.000000
1795 13602 1 0.16500 119244.000000
1796 11822 1 0.16500 119244.000000
1796 14926 1 0.16500 119244.000000
1797 11822 1 0.16500 119244.000000
1797 16254 1 0.16500 119244.000000
1798 11822 1 0.16500 119244.000000
1798 14156 1 0.16500 119244.000000
1799 11823 1 0.16500 119244.000000
1799 14074 1 0.16500 119244.000000
1800 11823 1 0.16500 119244.000000
1800 13286 1 0.16500 119244.000000
1801 11823 1 0.16500 119244.000000
1801 12618 1 0.16500 119244.000000
1802 11823 1 0.16500 119244.000000
1802 12327 1 0.16500 119244.000000
1803 11824 1 0.16500 119244.000000
1803 12089 1 0.16500 119244.000000
1804 11824 1 0.16500 119244.000000
1804 14560 1 0.16500 119244.000000
1805 11824 1 0.16500 119244.000000
1805 16616 1 0.16500 119244.000000
1806 11824 1 0.16500 119244.000000
1806 14656 1 0.16500 119244.000000
1807 15060 1 0.16500 119244.000000
1807 21253 1 0.16500 119244.000000
1808 13277 1 0.16500 119244.000000
1808 21253 1 0.16500 119244.000000
1809 11825 1 0.16500 119244.000000
1809 12466 1 0.16500 119244.000000
1810 11825 1 0.16500 119244.000000
1810 12112 1 0.16500 119244.000000
1811 11825 1 0.16500 119244.000000
1811 13478 1 0.16500 119244.000000
1812 11826 1 0.16500 119244.000000
1812 13692 1 0.16500 119244.000000
1813 11826 1 0.16500 119244.000000
1813 11891 1 0.16500 119244.000000
1814 11826 1 0.16500 119244.000000
1814 14170 1 0.16500 119244.000000
1815 11827 1 0.16500 119244.000000
1815 12652 1 0.16500 119244.000000
1816 11827 1 0.16500 119244.000000
1816 12943 1 0.16500 119244.000000
1817 11827 1 0.16500 119244.000000
1817 14265 1 0.16500 119244.000000
1818 11827 1 0.16500 119244.000000
1818 16394 1 0.16500 119244.000000
1819 11828 1 0.16500 119244.000000
1819 12070 1 0.16500 119244.000000
1820 11828 1 0.16500 119244.000000
1820 13044 1 0.16500 119244.000000
1821 11828 1 0.16500 119244.000000
1821 15540 1 0.16500 119244.000000
1822 11829 1 0.16500 119244.000000
1822 13424 1 0.16500 119244.000000
1823 11829 1 0.16500 119244.000000
1823 14790 1 0.16500 119244.000000
1824 11829 1 0.16500 119244.000000
1824 16620 1 0.16500 119244.000000
1825 11830 1 0.16500 119244.000000
1825 15388 1 0.16500 119244.000000
1826 11830 1 0.16500 119244.000000
1826 15942 1 0.16500 119244.000000
1827 11830 1 0.16500 119244.000000
1827 14003 1 0.16500 119244.000000
1828 11830 1 0.16500 119244.000000
1828 15890 1 0.16500 119244.000000
1829 13403 1 0.16500 119244.000000
1829 19594 1 0.16500 119244.000000
1830 19594 1 0.16500 119244.000000
1830 21568 1 0.16500 119244.000000
1831 13968 1 0.16500 119244.000000
1831 19594 1 0.16500 119244.000000
1832 11831 1 0.16500 119244.000000
1832 14148 1 0.16500 119244.000000
1833 11831 1 0.16500 119244.000000
1833 12557 1 0.16500 119244.000000
1834 11831 1 0.16500 119244.000000
1834 15329 1 0.16500 119244.000000
1835 11831 1 0.16500 119244.000000
1835 15555 1 0.16500 119244.000000
1836 11832 1 0.16500 119244.000000
1836 13715 1 0.16500 119244.000000
1837 11832 1 0.16500 119244.000000
1837 12940 1 0.16500 119244.000000
1838 11832 1 0.16500 119244.000000
1838 15721 1 0.16500 119244.000000
1839 11833 1 0.16500 119244.000000
1839 14467 1 0.16500 119244.000000
1840 11833 1 0.16500 119244.000000
1840 13305 1 0.16500 119244.000000
1841 11833 1 0.16500 119244.000000
1841 12426 1 0.16500 119244.000000
1842 11833 1 0.16500 119244.000000
1842 14482 1 0.16500 119244.000000
1843 11834 1 0.16500 119244.000000
1843 16281 1 0.16500 119244.000000
1844 11834 1 0.16500 119244.000000
1844 15884 1 0.16500 119244.000000
1845 11834 1 0.16500 119244.000000
1845 12331 1 0.16500 119244.000000
1846 11834 1 0.16500 119244.000000
1846 15389 1 0.16500 119244.000000
1847 11835 1 0.16500 119244.000000
1847 12615 1 0.16500 119244.000000
1848 11835 1 0.16500 119244.000000
1848 12504 1 0.16500 119244.000000
1849 11835 1 0.16500 119244.000000
1849 12729 1 0.16500 119244.000000
1850 11835 1 0.16500 119244.000000
1850 14199 1 0.16500 119244.000000
1851 11836 1 0.16500 119244.000000
1851 14477 1 0.16500 119244.000000
1852 11836 1 0.16500 119244.000000
1852 12997 1 0.16500 119244.000000
1853 11836 1 0.16500 119244.000000
1853 16113 1 0.16500 119244.000000
1854 11836 1 0.16500 119244.000000
1854 11901 1 0.16500 119244.000000
1855 11837 1 0.16500 119244.000000
1855 14895 1 0.16500 119244.000000
1856 11837 1 0.16500 119244.000000
1856 15335 1 0.16500 119244.000000
1857 11837 1 0.16500 119244.000000
1857 15643 1 0.16500 119244.000000
1858 13516 1 0.16500 119244.000000
1858 21949 1 0.16500 119244.000000
1859 11838 1 0.16500 119244.000000
1859 15255 1 0.16500 119244.000000
1860 11838 1 0.16500 119244.000000
1860 15420 1 0.16500 119244.000000
1861 11838 1 0.16500 119244.000000
1861 12554 1 0.16500 119244.000000
1862 11838 1 0.16500 119244.000000
1862 13031 1 0.16500 119244.000000
1863 12903 1 0.16500 119244.000000
1863 19006 1 0.16500 119244.000000
1864 19006 1 0.16500 119244.000000
1864 19954 1 0.16500 119244.000000
1865 14961 1 0.16500 119244.000000
1865 19006 1 0.16500 119244.000000
1866 16564 1 0.16500 119244.000000
1866 16952 1 0.16500 119244.000000
1867 15564 1 0.16500 119244.000000
1867 16952 1 0.16500 119244.000000
1868 11839 1 0.16500 119244.000000
1868 14254 1 0.16500 119244.000000
1869 11839 1 0.16500 119244.000000
1869 16560 1 0.16500 119244.000000
1870 11839 1 0.16500 119244.000000
1870 15883 1 0.16500 119244.000000
1871 11839 1 0.16500 119244.000000
1871 16100 1 0.16500 119244.000000
1872 11840 1 0.16500 119244.000000
1872 13232 1 0.16500 119244.000000
1873 11840 1 0.16500 119244.000000
1873 11875 1 0.16500 119244.000000
1874 11840 1 0.16500 119244.000000
1874 13772 1 0.16500 119244.000000
1875 11840 1 0.16500 119244.000000
1875 16344 1 0.16500 119244.000000
1876 11841 1 0.16500 119244.000000
1876 15863 1 0.16500 119244.000000
1877 11841 1 0.16500 119244.000000
1877 15628 1 0.16500 119244.000000
1878 11841 1 0.16500 119244.000000
1878 16589 1 0.16500 119244.000000
1879 11842 1 0.16500 119244.000000
1879 14200 1 0.16500 119244.000000
1880 11842 1 0.16500 119244.000000
1880 16067 1 0.16500 119244.000000
1881 11842 1 0.16500 119244.000000
1881 13045 1 0.16500 119244.000000
1882 11842 1 0.16500 119244.000000
1882 12474 1 0.16500 119244.000000
1883 11843 1 0.16500 119244.000000
1883 14089 1 0.16500 119244.000000
1884 11843 1 0.16500 119244.000000
1884 13021 1 0.16500 119244.000000
1885 11843 1 0.16500 119244.000000
1885 14122 1 0.16500 119244.000000
1886 11844 1 0.16500 119244.000000
1886 12290 1 0.16500 119244.000000
1887 11844 1 0.16500 119244.000000
1887 14641 1 0.16500 119244.000000
1888 11844 1 0.16500 119244.000000
1888 13366 1 0.16500 119244.000000
1889 18994 1 0.16500 119244.000000
1889 21256 1 0.16500 119244.000000
1890 16468 1 0.16500 119244.000000
1890 21256 1 0.16500 119244.000000
1891 13135 1 0.16500 119244.000000
1891 21256 1 0.16500 119244.000000
1892 11845 1 0.16500 119244.000000
1892 14014 1 0.16500 119244.000000
1893 11845 1 0.16500 119244.000000
1893 14946 1 0.16500 119244.000000
1894 14014 1 0.16500 119244.000000
1894 15699 1 0.16500 119244.000000
1895 11845 1 0.16500 119244.000000
1895 15716 1 0.16500 119244.000000
1896 21259 1 0.16500 119244.000000
1896 21496 1 0.16500 119244.000000
1897 16490 1 0.16500 119244.000000
1897 21259 1 0.16500 119244.000000
1898 11846 1 0.16500 119244.000000
1898 12021 1 0.16500 119244.000000
1899 11846 1 0.16500 119244.000000
1899 14594 1 0.16500 119244.000000
1900 11846 1 0.16500 119244.000000
1900 14500 1 0.16500 119244.000000
1901 11846 1 0.16500 119244.000000
1901 16269 1 0.16500 119244.000000
1902 14432 1 0.16500 119244.000000
1902 16608 1 0.16500 119244.000000
1903 11847 1 0.16500 119244.000000
1903 12950 1 0.16500 119244.000000
1904 15531 1 0.16500 119244.000000
1904 15904 1 0.16500 119244.000000
1905 11847 1 0.16500 119244.000000
1905 14432 1 0.16500 119244.000000
1906 11848 1 0.16500 119244.000000
1906 15379 1 0.16500 119244.000000
1907 11848 1 0.16500 119244.000000
1907 14542 1 0.16500 119244.000000
1908 11848 1 0.16500 119244.000000
1908 16130 1 0.16500 119244.000000
1909 11848 1 0.16500 119244.000000
1909 12178 1 0.16500 119244.000000
1910 11849 1 0.16500 119244.000000
1910 13001 1 0.16500 119244.000000
1911 11849 1 0.16500 119244.000000
1911 14110 1 0.16500 119244.000000
1912 14110 1 0.16500 119244.000000
1912 14927 1 0.16500 119244.000000
1913 11849 1 0.16500 119244.000000
1913 13761 1 0.16500 119244.000000
1914 11850 1 0.16500 119244.000000
1914 16339 1 0.16500 119244.000000
1915 11850 1 0.16500 119244.000000
1915 16155 1 0.16500 119244.000000
1916 11850 1 0.16500 119244.000000
1916 13152 1 0.16500 119244.000000
1917 11850 1 0.16500 119244.000000
1917 12161 1 0.16500 119244.000000
1918 11851 1 0.16500 119244.000000
1918 15039 1 0.16500 119244.000000
1919 11851 1 0.16500 119244.000000
1919 13507 1 0.16500 119244.000000
1920 11852 1 0.16500 119244.000000
1920 16365 1 0.16500 119244.000000
1921 11852 1 0.16500 119244.000000
1921 21754 1 0.16500 119244.000000
1922 11852 1 0.16500 119244.000000
1922 18478 1 0.16500 119244.000000
1923 11852 1 0.16500 119244.000000
1923 13439 1 0.16500 119244.000000
1924 15352 1 0.16500 119244.000000
1924 16164 1 0.16500 119244.000000
1925 11853 1 0.16500 119244.000000
1925 15352 1 0.16500 119244.000000
1926 11853 1 0.16500 119244.000000
1926 14803 1 0.16500 119244.000000
1927 14766 1 0.16500 119244.000000
1927 14803 1 0.16500 119244.000000
1928 12953 1 0.16500 119244.000000
1928 16350 1 0.16500 119244.000000
1929 11854 1 0.16500 119244.000000
1929 12402 1 0.16500 119244.000000
1930 11966 1 0.16500 119244.000000
1930 16096 1 0.16500 119244.000000
1931 11854 1 0.16500 119244.000000
1931 12953 1 0.16500 119244.000000
1932 11855 1 0.16500 119244.000000
1932 16109 1 0.16500 119244.000000
1933 11855 1 0.16500 119244.000000
1933 16146 1 0.16500 119244.000000
1934 11855 1 0.16500 119244.000000
1934 14876 1 0.16500 119244.000000
1935 11855 1 0.16500 119244.000000
1935 14993 1 0.16500 119244.000000
1936 11856 1 0.16500 119244.000000
1936 14002 1 0.16500 119244.000000
1937 11856 1 0.16500 119244.000000
1937 12108 1 0.16500 119244.000000
1938 11856 1 0.16500 119244.000000
1938 13558 1 0.16500 119244.000000
1939 12311 1 0.16500 119244.000000
1939 19462 1 0.16500 119244.000000
1940 11857 1 0.16500 119244.000000
1940 11909 1 0.16500 119244.000000
1941 11857 1 0.16500 119244.000000
1941 13517 1 0.16500 119244.000000
1942 11857 1 0.16500 119244.000000
1942 15758 1 0.16500 119244.000000
1943 11858 1 0.16500 119244.000000
1943 12714 1 0.16500 119244.000000
1944 11858 1 0.16500 119244.000000
1944 21999 1 0.16500 119244.000000
1945 11858 1 0.16500 119244.000000
1945 13253 1 0.16500 119244.000000
1946 11466 1 0.16500 119244.000000
1946 12606 1 0.16500 119244.000000
1947 11859 1 0.16500 119244.000000
1947 15181 1 0.16500 119244.000000
1948 11466 1 0.16500 119244.000000
1948 14080 1 0.16500 119244.000000
1949 11860 1 0.16500 119244.000000
1949 15143 1 0.16500 119244.000000
1950 11860 1 0.16500 119244.000000
1950 13172 1 0.16500 119244.000000
1951 11860 1 0.16500 119244.000000
1951 21823 1 0.16500 119244.000000
1952 11861 1 0.16500 119244.000000
1952 13728 1 0.16500 119244.000000
1953 11861 1 0.16500 119244.000000
1953 14123 1 0.16500 119244.000000
1954 11861 1 0.16500 119244.000000
1954 14213 1 0.16500 119244.000000
1955 11861 1 0.16500 119244.000000
1955 13044 1 0.16500 119244.000000
1956 11862 1 0.16500 119244.000000
1956 12166 1 0.16500 119244.000000
1957 11862 1 0.16500 119244.000000
1957 12408 1 0.16500 119244.000000
1958 11862 1 0.16500 119244.000000
1958 13344 1 0.16500 119244.000000
1959 11862 1 0.16500 119244.000000
1959 13028 1 0.16500 119244.000000
1960 11863 1 0.16500 119244.000000
1960 17288 1 0.16500 119244.000000
1961 11863 1 0.16500 119244.000000
1961 13885 1 0.16500 119244.000000
1962 11863 1 0.16500 119244.000000
1962 20626 1 0.16500 119244.000000
1963 11863 1 0.16500 119244.000000
1963 12823 1 0.16500 119244.000000
1964 11864 1 0.16500 119244.000000
1964 12016 1 0.16500 119244.000000
1965 11864 1 0.16500 119244.000000
1965 14487 1 0.16500 119244.000000
1966 11864 1 0.16500 119244.000000
1966 16430 1 0.16500 119244.000000
1967 11864 1 0.16500 119244.000000
1967 16066 1 0.16500 119244.000000
1968 11865 1 0.16500 119244.000000
1968 16552 1 0.16500 119244.000000
1969 11865 1 0.16500 119244.000000
1969 17134 1 0.16500 119244.000000
1970 11865 1 0.16500 119244.000000
1970 18874 1 0.16500 119244.000000
1971 11866 1 0.16500 119244.000000
1971 15438 1 0.16500 119244.000000
1972 11866 1 0.16500 119244.000000
1972 21412 1 0.16500 119244.000000
1973 11866 1 0.16500 119244.000000
1973 15759 1 0.16500 119244.000000
1974 13545 1 0.16500 119244.000000
1974 15759 1 0.16500 119244.000000
1975 14701 1 0.16500 119244.000000
1975 15906 1 0.16500 119244.000000
1976 11867 1 0.16500 119244.000000
1976 14924 1 0.16500 119244.000000
1977 11867 1 0.16500 119244.000000
1977 15906 1 0.16500 119244.000000
1978 11867 1 0.16500 119244.000000
1978 12777 1 0.16500 119244.000000
1979 11868 1 0.16500 119244.000000
1979 11896 1 0.16500 119244.000000
1980 11868 1 0.16500 119244.000000
1980 12234 1 0.16500 119244.000000
1981 11868 1 0.16500 119244.000000
1981 13357 1 0.16500 119244.000000
1982 11868 1 0.16500 119244.000000
1982 15354 1 0.16500 119244.000000
1983 11869 1 0.16500 119244.000000
1983 12978 1 0.16500 119244.000000
1984 11869 1 0.16500 119244.000000
1984 19654 1 0.16500 119244.000000
1985 11869 1 0.16500 119244.000000
1985 13998 1 0.16500 119244.000000
1986 11869 1 0.16500 119244.000000
1986 11890 1 0.16500 119244.000000
1987 11870 1 0.16500 119244.000000
1987 19954 1 0.16500 119244.000000
1988 11870 1 0.16500 119244.000000
1988 11928 1 0.16500 119244.000000
1989 15942 1 0.16500 119244.000000
1989 15971 1 0.16500 119244.000000
1990 11870 1 0.16500 119244.000000
1990 15971 1 0.16500 119244.000000
1991 11871 1 0.16500 119244.000000
1991 13942 1 0.16500 119244.000000
1992 11871 1 0.16500 119244.000000
1992 16234 1 0.16500 119244.000000
1993 11871 1 0.16500 119244.000000
1993 18550 1 0.16500 119244.000000
1994 11871 1 0.16500 119244.000000
1994 12090 1 0.16500 119244.000000
1995 11872 1 0.16500 119244.000000
1995 13765 1 0.16500 119244.000000
1996 11872 1 0.16500 119244.000000
1996 13161 1 0.16500 119244.000000
1997 11872 1 0.16500 119244.000000
1997 14464 1 0.16500 119244.000000
1998 11872 1 0.16500 119244.000000
1998 15537 1 0.16500 119244.000000
1999 11873 1 0.16500 119244.000000
1999 14758 1 0.16500 119244.000000
2000 11873 1 0.16500 119244.000000
2000 13079 1 0.16500 119244.000000
2001 11873 1 0.16500 119244.000000
2001 14409 1 0.16500 119244.000000
2002 11873 1 0.16500 119244.000000
2002 15074 1 0.16500 119244.000000
2003 11874 1 0.16500 119244.000000
2003 12122 1 0.16500 119244.000000
2004 11874 1 0.16500 119244.000000
2004 13925 1 0.16500 119244.000000
2005 11874 1 0.16500 119244.000000
2005 15636 1 0.16500 119244.000000
2006 11875 1 0.16500 119244.000000
2006 16071 1 0.16500 119244.000000
2007 11875 1 0.16500 119244.000000
2007 14843 1 0.16500 119244.000000
2008 11875 1 0.16500 119244.000000
2008 14652 1 0.16500 119244.000000
2009 14188 1 0.16500 119244.000000
2009 21868 1 0.16500 119244.000000
2010 11876 1 0.16500 119244.000000
2010 14848 1 0.16500 119244.000000
2011 11876 1 0.16500 119244.000000
2011 12963 1 0.16500 119244.000000
2012 11876 1 0.16500 119244.000000
2012 13048 1 0.16500 119244.000000
2013 11876 1 0.16500 119244.000000
2013 13260 1 0.16500 119244.000000
2014 11877 1 0.16500 119244.000000
2014 17582 1 0.16500 119244.000000
2015 11877 1 0.16500 119244.000000
2015 13383 1 0.16500 119244.000000
2016 11877 1 0.16500 119244.000000
2016 15713 1 0.16500 119244.000000
2017 11877 1 0.16500 119244.000000
2017 13172 1 0.16500 119244.000000
2018 13651 1 0.16500 119244.000000
2018 21262 1 0.16500 119244.000000
2019 14943 1 0.16500 119244.000000
2019 21262 1 0.16500 119244.000000
2020 11878 1 0.16500 119244.000000
2020 15117 1 0.16500 119244.000000
2021 11878 1 0.16500 119244.000000
2021 12665 1 0.16500 119244.000000
2022 11878 1 0.16500 119244.000000
2022 12197 1 0.16500 119244.000000
2023 11879 1 0.16500 119244.000000
2023 12793 1 0.16500 119244.000000
2024 11879 1 0.16500 119244.000000
2024 15066 1 0.16500 119244.000000
2025 11879 1 0.16500 119244.000000
2025 21427 1 0.16500 119244.000000
2026 11879 1 0.16500 119244.000000
2026 22044 1 0.16500 119244.000000
2027 12150 1 0.16500 119244.000000
2027 21265 1 0.16500 119244.000000
2028 15891 1 0.16500 119244.000000
2028 21265 1 0.16500 119244.000000
2029 11880 1 0.16500 119244.000000
2029 13382 1 0.16500 119244.000000
2030 11880 1 0.16500 119244.000000
2030 15144 1 0.16500 119244.000000
2031 11880 1 0.16500 119244.000000
2031 15136 1 0.16500 119244.000000
2032 11880 1 0.16500 119244.000000
2032 12442 1 0.16500 119244.000000
2033 11881 1 0.16500 119244.000000
2033 13920 1 0.16500 119244.000000
2034 11881 1 0.16500 119244.000000
2034 16417 1 0.16500 119244.000000
2035 11881 1 0.16500 119244.000000
2035 15417 1 0.16500 119244.000000
2036 11881 1 0.16500 119244.000000
2036 19918 1 0.16500 119244.000000
2037 11882 1 0.16500 119244.000000
2037 14889 1 0.16500 119244.000000
2038 11882 1 0.16500 119244.000000
2038 15037 1 0.16500 119244.000000
2039 11882 1 0.16500 119244.000000
2039 14946 1 0.16500 119244.000000
2040 11882 1 0.16500 119244.000000
2040 12105 1 0.16500 119244.000000
2041 11883 1 0.16500 119244.000000
2041 16458 1 0.16500 119244.000000
2042 11883 1 0.16500 119244.000000
2042 19822 1 0.16500 119244.000000
2043 11884 1 0.16500 119244.000000
2043 13419 1 0.16500 119244.000000
2044 11884 1 0.16500 119244.000000
2044 15223 1 0.16500 119244.000000
2045 11884 1 0.16500 119244.000000
2045 18898 1 0.16500 119244.000000
2046 13385 1 0.16500 119244.000000
2046 21268 1 0.16500 119244.000000
2047 21268 1 0.16500 119244.000000
2047 21700 1 0.16500 119244.000000
2048 15265 1 0.16500 119244.000000
2048 21268 1 0.16500 119244.000000
2049 11885 1 0.16500 119244.000000
2049 13101 1 0.16500 119244.000000
2050 11885 1 0.16500 119244.000000
2050 15382 1 0.16500 119244.000000
2051 11885 1 0.16500 119244.000000
2051 13481 1 0.16500 119244.000000
2052 11885 1 0.16500 119244.000000
2052 13174 1 0.16500 119244.000000
2053 11886 1 0.16500 119244.000000
2053 11892 1 0.16500 119244.000000
2054 11886 1 0.16500 119244.000000
2054 13129 1 0.16500 119244.000000
2055 11887 1 0.16500 119244.000000
2055 12163 1 0.16500 119244.000000
2056 11887 1 0.16500 119244.000000
2056 16006 1 0.16500 119244.000000
2057 11887 1 0.16500 119244.000000
2057 16150 1 0.16500 119244.000000
2058 11887 1 0.16500 119244.000000
2058 12082 1 0.16500 119244.000000
2059 11888 1 0.16500 119244.000000
2059 13294 1 0.16500 119244.000000
2060 11888 1 0.16500 119244.000000
2060 12165 1 0.16500 119244.000000
2061 11888 1 0.16500 119244.000000
2061 14183 1 0.16500 119244.000000
2062 11889 1 0.16500 119244.000000
2062 15935 1 0.16500 119244.000000
2063 11889 1 0.16500 119244.000000
2063 15096 1 0.16500 119244.000000
2064 11889 1 0.16500 119244.000000
2064 12341 1 0.16500 119244.000000
2065 11889 1 0.16500 119244.000000
2065 15656 1 0.16500 119244.000000
2066 11890 1 0.16500 119244.000000
2066 21463 1 0.16500 119244.000000
2067 11891 1 0.16500 119244.000000
2067 13544 1 0.16500 119244.000000
2068 11891 1 0.16500 119244.000000
2068 15336 1 0.16500 119244.000000
2069 11891 1 0.16500 119244.000000
2069 12970 1 0.16500 119244.000000
2070 11892 1 0.16500 119244.000000
2070 11945 1 0.16500 119244.000000
2071 11892 1 0.16500 119244.000000
2071 14426 1 0.16500 119244.000000
2072 11893 1 0.16500 119244.000000
2072 13886 1 0.16500 119244.000000
2073 11893 1 0.16500 119244.000000
2073 14983 1 0.16500 119244.000000
2074 11572 1 0.16500 119244.000000
2074 15834 1 0.16500 119244.000000
2075 11894 1 0.16500 119244.000000
2075 12424 1 0.16500 119244.000000
2076 11894 1 0.16500 119244.000000
2076 14385 1 0.16500 119244.000000
2077 11894 1 0.16500 119244.000000
2077 15187 1 0.16500 119244.000000
2078 11894 1 0.16500 119244.000000
2078 16523 1 0.16500 119244.000000
2079 11895 1 0.16500 119244.000000
2079 14129 1 0.16500 119244.000000
2080 11895 1 0.16500 119244.000000
2080 14848 1 0.16500 119244.000000
2081 11895 1 0.16500 119244.000000
2081 12902 1 0.16500 119244.000000
2082 11896 1 0.16500 119244.000000
2082 12329 1 0.16500 119244.000000
2083 11896 1 0.16500 119244.000000
2083 16197 1 0.16500 119244.000000
2084 11897 1 0.16500 119244.000000
2084 14437 1 0.16500 119244.000000
2085 11897 1 0.16500 119244.000000
2085 14789 1 0.16500 119244.000000
2086 11897 1 0.16500 119244.000000
2086 16099 1 0.16500 119244.000000
2087 11897 1 0.16500 119244.000000
2087 12839 1 0.16500 119244.000000
2088 11898 1 0.16500 119244.000000
2088 12330 1 0.16500 119244.000000
2089 11898 1 0.16500 119244.000000
2089 13657 1 0.16500 119244.000000
2090 11898 1 0.16500 119244.000000
2090 13085 1 0.16500 119244.000000
2091 11898 1 0.16500 119244.000000
2091 13875 1 0.16500 119244.000000
2092 11899 1 0.16500 119244.000000
2092 15831 1 0.16500 119244.000000
2093 11899 1 0.16500 119244.000000
2093 13672 1 0.16500 119244.000000
2094 11899 1 0.16500 119244.000000
2094 14815 1 0.16500 119244.000000
2095 11899 1 0.16500 119244.000000
2095 12344 1 0.16500 119244.000000
2096 14454 1 0.16500 119244.000000
2096 21271 1 0.16500 119244.000000
2097 21271 1 0.16500 119244.000000
2097 21358 1 0.16500 119244.000000
2098 11900 1 0.16500 119244.000000
2098 16431 1 0.16500 119244.000000
2099 15058 1 0.16500 119244.000000
2099 16431 1 0.16500 119244.000000
2100 11900 1 0.16500 119244.000000
2100 19606 1 0.16500 119244.000000
2101 11901 1 0.16500 119244.000000
2101 11922 1 0.16500 119244.000000
2102 11901 1 0.16500 119244.000000
2102 15856 1 0.16500 119244.000000
2103 11901 1 0.16500 119244.000000
2103 15855 1 0.16500 119244.000000
2104 11902 1 0.16500 119244.000000
2104 16315 1 0.16500 119244.000000
2105 11902 1 0.16500 119244.000000
2105 13439 1 0.16500 119244.000000
2106 11902 1 0.16500 119244.000000
2106 16107 1 0.16500 119244.000000
2107 17246 1 0.16500 119244.000000
2107 21490 1 0.16500 119244.000000
2108 16448 1 0.16500 119244.000000
2108 17246 1 0.16500 119244.000000
2109 11903 1 0.16500 119244.000000
2109 12766 1 0.16500 119244.000000
2110 11903 1 0.16500 119244.000000
2110 19282 1 0.16500 119244.000000
2111 11903 1 0.16500 119244.000000
2111 14586 1 0.16500 119244.000000
2112 11903 1 0.16500 119244.000000
2112 21718 1 0.16500 119244.000000
2113 11904 1 0.16500 119244.000000
2113 16019 1 0.16500 119244.000000
2114 11904 1 0.16500 119244.000000
2114 12971 1 0.16500 119244.000000
2115 11904 1 0.16500 119244.000000
2115 13480 1 0.16500 119244.000000
2116 11904 1 0.16500 119244.000000
2116 15251 1 0.16500 119244.000000
2117 12144 1 0.16500 119244.000000
2117 13816 1 0.16500 119244.000000
2118 11905 1 0.16500 119244.000000
2118 13816 1 0.16500 119244.000000
2119 11905 1 0.16500 119244.000000
2119 16005 1 0.16500 119244.000000
2120 11905 1 0.16500 119244.000000
2120 14033 1 0.16500 119244.000000
2121 11906 1 0.16500 119244.000000
2121 13967 1 0.16500 119244.000000
2122 11906 1 0.16500 119244.000000
2122 13437 1 0.16500 119244.000000
2123 11906 1 0.16500 119244.000000
2123 12733 1 0.16500 119244.000000
2124 11906 1 0.16500 119244.000000
2124 16482 1 0.16500 119244.000000
2125 11907 1 0.16500 119244.000000
2125 16526 1 0.16500 119244.000000
2126 11907 1 0.16500 119244.000000
2126 13165 1 0.16500 119244.000000
2127 11908 1 0.16500 119244.000000
2127 12297 1 0.16500 119244.000000
2128 11908 1 0.16500 119244.000000
2128 12595 1 0.16500 119244.000000
2129 11908 1 0.16500 119244.000000
2129 16136 1 0.16500 119244.000000
2130 11908 1 0.16500 119244.000000
2130 15510 1 0.16500 119244.000000
2131 11909 1 0.16500 119244.000000
2131 14862 1 0.16500 119244.000000
2132 11909 1 0.16500 119244.000000
2132 14323 1 0.16500 119244.000000
2133 11910 1 0.16500 119244.000000
2133 11965 1 0.16500 119244.000000
2134 11910 1 0.16500 119244.000000
2134 13327 1 0.16500 119244.000000
2135 11910 1 0.16500 119244.000000
2135 15258 1 0.16500 119244.000000
2136 11910 1 0.16500 119244.000000
2136 13663 1 0.16500 119244.000000
2137 11911 1 0.16500 119244.000000
2137 14139 1 0.16500 119244.000000
2138 11911 1 0.16500 119244.000000
2138 15619 1 0.16500 119244.000000
2139 11911 1 0.16500 119244.000000
2139 21310 1 0.16500 119244.000000
2140 11912 1 0.16500 119244.000000
2140 13846 1 0.16500 119244.000000
2141 11912 1 0.16500 119244.000000
2141 13075 1 0.16500 119244.000000
2142 11912 1 0.16500 119244.000000
2142 12750 1 0.16500 119244.000000
2143 11912 1 0.16500 119244.000000
2143 15149 1 0.16500 119244.000000
2144 11913 1 0.16500 119244.000000
2144 16306 1 0.16500 119244.000000
2145 11913 1 0.16500 119244.000000
2145 13070 1 0.16500 119244.000000
2146 11913 1 0.16500 119244.000000
2146 13527 1 0.16500 119244.000000
2147 11913 1 0.16500 119244.000000
2147 13098 1 0.16500 119244.000000
2148 18016 1 0.16500 119244.000000
2148 20194 1 0.16500 119244.000000
2149 11914 1 0.16500 119244.000000
2149 13453 1 0.16500 119244.000000
2150 11914 1 0.16500 119244.000000
2150 16403 1 0.16500 119244.000000
2151 11914 1 0.16500 119244.000000
2151 14996 1 0.16500 119244.000000
2152 11915 1 0.16500 119244.000000
2152 15822 1 0.16500 119244.000000
2153 11915 1 0.16500 119244.000000
2153 16085 1 0.16500 119244.000000
2154 11915 1 0.16500 119244.000000
2154 15150 1 0.16500 119244.000000
2155 11915 1 0.16500 119244.000000
2155 16326 1 0.16500 119244.000000
2156 11916 1 0.16500 119244.000000
2156 15889 1 0.16500 119244.000000
2157 11916 1 0.16500 119244.000000
2157 16316 1 0.16500 119244.000000
2158 11916 1 0.16500 119244.000000
2158 13804 1 0.16500 119244.000000
2159 14416 1 0.16500 119244.000000
2159 21274 1 0.16500 119244.000000
2160 12574 1 0.16500 119244.000000
2160 21274 1 0.16500 119244.000000
2161 12751 1 0.16500 119244.000000
2161 21277 1 0.16500 119244.000000
2162 16501 1 0.16500 119244.000000
2162 21277 1 0.16500 119244.000000
2163 13066 1 0.16500 119244.000000
2163 14397 1 0.16500 119244.000000
2164 13066 1 0.16500 119244.000000
2164 21277 1 0.16500 119244.000000
2165 11917 1 0.16500 119244.000000
2165 19462 1 0.16500 119244.000000
2166 11917 1 0.16500 119244.000000
2166 13929 1 0.16500 119244.000000
2167 11918 1 0.16500 119244.000000
2167 15360 1 0.16500 119244.000000
2168 11918 1 0.16500 119244.000000
2168 14444 1 0.16500 119244.000000
2169 11918 1 0.16500 119244.000000
2169 15414 1 0.16500 119244.000000
2170 11918 1 0.16500 119244.000000
2170 14579 1 0.16500 119244.000000
2171 11919 1 0.16500 119244.000000
2171 13352 1 0.16500 119244.000000
2172 11919 1 0.16500 119244.000000
2172 14671 1 0.16500 119244.000000
2173 11919 1 0.16500 119244.000000
2173 16460 1 0.16500 119244.000000
2174 11919 1 0.16500 119244.000000
2174 15448 1 0.16500 119244.000000
2175 11920 1 0.16500 119244.000000
2175 12761 1 0.16500 119244.000000
2176 16443 1 0.16500 119244.000000
2176 20686 1 0.16500 119244.000000
2177 11920 1 0.16500 119244.000000
2177 19294 1 0.16500 119244.000000
2178 11920 1 0.16500 119244.000000
2178 16443 1 0.16500 119244.000000
2179 11921 1 0.16500 119244.000000
2179 15331 1 0.16500 119244.000000
2180 11921 1 0.16500 119244.000000
2180 14401 1 0.16500 119244.000000
2181 11922 1 0.16500 119244.000000
2181 15787 1 0.16500 119244.000000
2182 11922 1 0.16500 119244.000000
2182 14037 1 0.16500 119244.000000
2183 11922 1 0.16500 119244.000000
2183 13869 1 0.16500 119244.000000
2184 11923 1 0.16500 119244.000000
2184 12560 1 0.16500 119244.000000
2185 11923 1 0.16500 119244.000000
2185 14652 1 0.16500 119244.000000
2186 11923 1 0.16500 119244.000000
2186 16566 1 0.16500 119244.000000
2187 11923 1 0.16500 119244.000000
2187 14198 1 0.16500 119244.000000
2188 11924 1 0.16500 119244.000000
2188 12785 1 0.16500 119244.000000
2189 11924 1 0.16500 119244.000000
2189 16159 1 0.16500 119244.000000
2190 11924 1 0.16500 119244.000000
2190 12355 1 0.16500 119244.000000
2191 11924 1 0.16500 119244.000000
2191 13854 1 0.16500 119244.000000
2192 11925 1 0.16500 119244.000000
2192 16558 1 0.16500 119244.000000
2193 11925 1 0.16500 119244.000000
2193 16349 1 0.16500 119244.000000
2194 15401 1 0.16500 119244.000000
2194 16371 1 0.16500 119244.000000
2195 11925 1 0.16500 119244.000000
2195 16371 1 0.16500 119244.000000
2196 11926 1 0.16500 119244.000000
2196 15815 1 0.16500 119244.000000
2197 11926 1 0.16500 119244.000000
2197 15605 1 0.16500 119244.000000
2198 11926 1 0.16500 119244.000000
2198 16050 1 0.16500 119244.000000
2199 11926 1 0.16500 119244.000000
2199 15155 1 0.16500 119244.000000
2200 15287 1 0.16500 119244.000000
2200 20002 1 0.16500 119244.000000
2201 14950 1 0.16500 119244.000000
2201 20002 1 0.16500 119244.000000
2202 11927 1 0.16500 119244.000000
2202 12729 1 0.16500 119244.000000
2203 11927 1 0.16500 119244.000000
2203 12704 1 0.16500 119244.000000
2204 11927 1 0.16500 119244.000000
2204 16085 1 0.16500 119244.000000
2205 11927 1 0.16500 119244.000000
2205 13818 1 0.16500 119244.000000
2206 11928 1 0.16500 119244.000000
2206 15949 1 0.16500 119244.000000
2207 11928 1 0.16500 119244.000000
2207 13055 1 0.16500 119244.000000
2208 11928 1 0.16500 119244.000000
2208 11934 1 0.16500 119244.000000
2209 11929 1 0.16500 119244.000000
2209 15148 1 0.16500 119244.000000
2210 11929 1 0.16500 119244.000000
2210 12938 1 0.16500 119244.000000
2211 11929 1 0.16500 119244.000000
2211 12877 1 0.16500 119244.000000
2212 11930 1 0.16500 119244.000000
2212 13089 1 0.16500 119244.000000
2213 11930 1 0.16500 119244.000000
2213 15323 1 0.16500 119244.000000
2214 11930 1 0.16500 119244.000000
2214 12581 1 0.16500 119244.000000
2215 11930 1 0.16500 119244.000000
2215 16550 1 0.16500 119244.000000
2216 12326 1 0.16500 119244.000000
2216 21280 1 0.16500 119244.000000
2217 16658 1 0.16500 119244.000000
2217 21280 1 0.16500 119244.000000
2218 11931 1 0.16500 119244.000000
2218 15320 1 0.16500 119244.000000
2219 11931 1 0.16500 119244.000000
2219 12600 1 0.16500 119244.000000
2220 11931 1 0.16500 119244.000000
2220 15553 1 0.16500 119244.000000
2221 11931 1 0.16500 119244.000000
2221 15788 1 0.16500 119244.000000
2222 11932 1 0.16500 119244.000000
2222 13185 1 0.16500 119244.000000
2223 11932 1 0.16500 119244.000000
2223 15228 1 0.16500 119244.000000
2224 11932 1 0.16500 119244.000000
2224 13767 1 0.16500 119244.000000
2225 11932 1 0.16500 119244.000000
2225 14537 1 0.16500 119244.000000
2226 11933 1 0.16500 119244.000000
2226 13398 1 0.16500 119244.000000
2227 11933 1 0.16500 119244.000000
2227 15695 1 0.16500 119244.000000
2228 11933 1 0.16500 119244.000000
2228 15477 1 0.16500 119244.000000
2229 11933 1 0.16500 119244.000000
2229 13389 1 0.16500 119244.000000
2230 11934 1 0.16500 119244.000000
2230 15066 1 0.16500 119244.000000
2231 11934 1 0.16500 119244.000000
2231 15890 1 0.16500 119244.000000
2232 11934 1 0.16500 119244.000000
2232 12903 1 0.16500 119244.000000
2233 12451 1 0.16500 119244.000000
2233 16896 1 0.16500 119244.000000
2234 12857 1 0.16500 119244.000000
2234 16896 1 0.16500 119244.000000
2235 11935 1 0.16500 119244.000000
2235 13880 1 0.16500 119244.000000
2236 11935 1 0.16500 119244.000000
2236 12885 1 0.16500 119244.000000
2237 11935 1 0.16500 119244.000000
2237 14814 1 0.16500 119244.000000
2238 11935 1 0.16500 119244.000000
2238 13387 1 0.16500 119244.000000
2239 11936 1 0.16500 119244.000000
2239 15010 1 0.16500 119244.000000
2240 11936 1 0.16500 119244.000000
2240 17918 1 0.16500 119244.000000
2241 11936 1 0.16500 119244.000000
2241 12480 1 0.16500 119244.000000
2242 11937 1 0.16500 119244.000000
2242 16068 1 0.16500 119244.000000
2243 11937 1 0.16500 119244.000000
2243 13741 1 0.16500 119244.000000
2244 11937 1 0.16500 119244.000000
2244 12901 1 0.16500 119244.000000
2245 11937 1 0.16500 119244.000000
2245 15867 1 0.16500 119244.000000
2246 11938 1 0.16500 119244.000000
2246 14272 1 0.16500 119244.000000
2247 11938 1 0.16500 119244.000000
2247 16538 1 0.16500 119244.000000
2248 11938 1 0.16500 119244.000000
2248 13101 1 0.16500 119244.000000
2249 11938 1 0.16500 119244.000000
2249 14982 1 0.16500 119244.000000
2250 11939 1 0.16500 119244.000000
2250 14561 1 0.16500 119244.000000
2251 11939 1 0.16500 119244.000000
2251 12972 1 0.16500 119244.000000
2252 11939 1 0.16500 119244.000000
2252 15571 1 0.16500 119244.000000
2253 11940 1 0.16500 119244.000000
2253 21706 1 0.16500 119244.000000
2254 11940 1 0.16500 119244.000000
2254 13554 1 0.16500 119244.000000
2255 11940 1 0.16500 119244.000000
2255 13624 1 0.16500 119244.000000
2256 11940 1 0.16500 119244.000000
2256 13959 1 0.16500 119244.000000
2257 11941 1 0.16500 119244.000000
2257 12910 1 0.16500 119244.000000
2258 11941 1 0.16500 119244.000000
2258 14600 1 0.16500 119244.000000
2259 11941 1 0.16500 119244.000000
2259 16048 1 0.16500 119244.000000
2260 11941 1 0.16500 119244.000000
2260 13446 1 0.16500 119244.000000
2261 11942 1 0.16500 119244.000000
2261 14755 1 0.16500 119244.000000
2262 11942 1 0.16500 119244.000000
2262 16129 1 0.16500 119244.000000
2263 11942 1 0.16500 119244.000000
2263 13034 1 0.16500 119244.000000
2264 11942 1 0.16500 119244.000000
2264 15015 1 0.16500 119244.000000
2265 11943 1 0.16500 119244.000000
2265 14639 1 0.16500 119244.000000
2266 11943 1 0.16500 119244.000000
2266 13233 1 0.16500 119244.000000
2267 11943 1 0.16500 119244.000000
2267 13739 1 0.16500 119244.000000
2268 11943 1 0.16500 119244.000000
2268 12361 1 0.16500 119244.000000
2269 12128 1 0.16500 119244.000000
2269 16493 1 0.16500 119244.000000
2270 11944 1 0.16500 119244.000000
2270 16493 1 0.16500 119244.000000
2271 11944 1 0.16500 119244.000000
2271 16354 1 0.16500 119244.000000
2272 11944 1 0.16500 119244.000000
2272 12171 1 0.16500 119244.000000
2273 11945 1 0.16500 119244.000000
2273 12634 1 0.16500 119244.000000
2274 11945 1 0.16500 119244.000000
2274 14920 1 0.16500 119244.000000
2275 11945 1 0.16500 119244.000000
2275 15182 1 0.16500 119244.000000
2276 11946 1 0.16500 119244.000000
2276 14350 1 0.16500 119244.000000
2277 11946 1 0.16500 119244.000000
2277 12923 1 0.16500 119244.000000
2278 11946 1 0.16500 119244.000000
2278 13390 1 0.16500 119244.000000
2279 11946 1 0.16500 119244.000000
2279 16282 1 0.16500 119244.000000
2280 11947 1 0.16500 119244.000000
2280 15317 1 0.16500 119244.000000
2281 11947 1 0.16500 119244.000000
2281 13803 1 0.16500 119244.000000
2282 11947 1 0.16500 119244.000000
2282 15463 1 0.16500 119244.000000
2283 11947 1 0.16500 119244.000000
2283 15620 1 0.16500 119244.000000
2284 11948 1 0.16500 119244.000000
2284 13514 1 0.16500 119244.000000
2285 11948 1 0.16500 119244.000000
2285 13529 1 0.16500 119244.000000
2286 11948 1 0.16500 119244.000000
2286 12250 1 0.16500 119244.000000
2287 11948 1 0.16500 119244.000000
2287 14919 1 0.16500 119244.000000
2288 11949 1 0.16500 119244.000000
2288 14342 1 0.16500 119244.000000
2289 11949 1 0.16500 119244.000000
2289 12589 1 0.16500 119244.000000
2290 11949 1 0.16500 119244.000000
2290 14850 1 0.16500 119244.000000
2291 11950 1 0.16500 119244.000000
2291 16484 1 0.16500 119244.000000
2292 11950 1 0.16500 119244.000000
2292 14541 1 0.16500 119244.000000
2293 11950 1 0.16500 119244.000000
2293 14650 1 0.16500 119244.000000
2294 11950 1 0.16500 119244.000000
2294 12182 1 0.16500 119244.000000
2295 15385 1 0.16500 119244.000000
2295 19198 1 0.16500 119244.000000
2296 11951 1 0.16500 119244.000000
2296 12716 1 0.16500 119244.000000
2297 11951 1 0.16500 119244.000000
2297 21400 1 0.16500 119244.000000
2298 11951 1 0.16500 119244.000000
2298 18670 1 0.16500 119244.000000
2299 13796 1 0.16500 119244.000000
2299 17512 1 0.16500 119244.000000
2300 11952 1 0.16500 119244.000000
2300 16289 1 0.16500 119244.000000
2301 11952 1 0.16500 119244.000000
2301 14978 1 0.16500 119244.000000
2302 11952 1 0.16500 119244.000000
2302 12164 1 0.16500 119244.000000
2303 11952 1 0.16500 119244.000000
2303 13882 1 0.16500 119244.000000
2304 11953 1 0.16500 119244.000000
2304 13770 1 0.16500 119244.000000
2305 11954 1 0.16500 119244.000000
2305 16188 1 0.16500 119244.000000
2306 11954 1 0.16500 119244.000000
2306 14097 1 0.16500 119244.000000
2307 11954 1 0.16500 119244.000000
2307 13136 1 0.16500 119244.000000
2308 11954 1 0.16500 119244.000000
2308 15815 1 0.16500 119244.000000
2309 11955 1 0.16500 119244.000000
2309 12475 1 0.16500 119244.000000
2310 11955 1 0.16500 119244.000000
2310 15554 1 0.16500 119244.000000
2311 11955 1 0.16500 119244.000000
2311 15182 1 0.16500 119244.000000
2312 11955 1 0.16500 119244.000000
2312 15646 1 0.16500 119244.000000
2313 11956 1 0.16500 119244.000000
2313 16338 1 0.16500 119244.000000
2314 11956 1 0.16500 119244.000000
2314 13399 1 0.16500 119244.000000
2315 11956 1 0.16500 119244.000000
2315 13749 1 0.16500 119244.000000
2316 11956 1 0.16500 119244.000000
2316 15233 1 0.16500 119244.000000
2317 11957 1 0.16500 119244.000000
2317 16210 1 0.16500 119244.000000
2318 11957 1 0.16500 119244.000000
2318 16238 1 0.16500 119244.000000
2319 11957 1 0.16500 119244.000000
2319 13426 1 0.16500 119244.000000
2320 11957 1 0.16500 119244.000000
2320 12686 1 0.16500 119244.000000
2321 11958 1 0.16500 119244.000000
2321 14187 1 0.16500 119244.000000
2322 11958 1 0.16500 119244.000000
2322 14784 1 0.16500 119244.000000
2323 11958 1 0.16500 119244.000000
2323 15330 1 0.16500 119244.000000
2324 21283 1 0.16500 119244.000000
2324 21397 1 0.16500 119244.000000
2325 14931 1 0.16500 119244.000000
2325 21283 1 0.16500 119244.000000
2326 11959 1 0.16500 119244.000000
2326 13477 1 0.16500 119244.000000
2327 11959 1 0.16500 119244.000000
2327 13143 1 0.16500 119244.000000
2328 11959 1 0.16500 119244.000000
2328 12011 1 0.16500 119244.000000
2329 11959 1 0.16500 119244.000000
2329 13940 1 0.16500 119244.000000
2330 11960 1 0.16500 119244.000000
2330 14599 1 0.16500 119244.000000
2331 11960 1 0.16500 119244.000000
2331 16478 1 0.16500 119244.000000
2332 13794 1 0.16500 119244.000000
2332 14599 1 0.16500 119244.000000
2333 11961 1 0.16500 119244.000000
2333 12383 1 0.16500 119244.000000
2334 11961 1 0.16500 119244.000000
2334 12217 1 0.16500 119244.000000
2335 11961 1 0.16500 119244.000000
2335 14351 1 0.16500 119244.000000
2336 11961 1 0.16500 119244.000000
2336 14775 1 0.16500 119244.000000
2337 14967 1 0.16500 119244.000000
2337 15396 1 0.16500 119244.000000
2338 11780 1 0.16500 119244.000000
2338 11962 1 0.16500 119244.000000
2339 15396 1 0.16500 119244.000000
2339 16197 1 0.16500 119244.000000
2340 11962 1 0.16500 119244.000000
2340 15396 1 0.16500 119244.000000
2341 11963 1 0.16500 119244.000000
2341 15152 1 0.16500 119244.000000
2342 12451 1 0.16500 119244.000000
2342 14601 1 0.16500 119244.000000
2343 11963 1 0.16500 119244.000000
2343 14601 1 0.16500 119244.000000
2344 11964 1 0.16500 119244.000000
2344 12580 1 0.16500 119244.000000
2345 11964 1 0.16500 119244.000000
2345 13262 1 0.16500 119244.000000
2346 11964 1 0.16500 119244.000000
2346 16145 1 0.16500 119244.000000
2347 11964 1 0.16500 119244.000000
2347 15153 1 0.16500 119244.000000
2348 11965 1 0.16500 119244.000000
2348 13457 1 0.16500 119244.000000
2349 11965 1 0.16500 119244.000000
2349 15984 1 0.16500 119244.000000
2350 11966 1 0.16500 119244.000000
2350 12953 1 0.16500 119244.000000
2351 11966 1 0.16500 119244.000000
2351 14339 1 0.16500 119244.000000
2352 12953 1 0.16500 119244.000000
2352 15483 1 0.16500 119244.000000
2353 11966 1 0.16500 119244.000000
2353 15377 1 0.16500 119244.000000
2354 11967 1 0.16500 119244.000000
2354 16057 1 0.16500 119244.000000
2355 11967 1 0.16500 119244.000000
2355 16227 1 0.16500 119244.000000
2356 11967 1 0.16500 119244.000000
2356 12879 1 0.16500 119244.000000
2357 11967 1 0.16500 119244.000000
2357 13685 1 0.16500 119244.000000
2358 11968 1 0.16500 119244.000000
2358 13095 1 0.16500 119244.000000
2359 11968 1 0.16500 119244.000000
2359 14106 1 0.16500 119244.000000
2360 11968 1 0.16500 119244.000000
2360 14267 1 0.16500 119244.000000
2361 11968 1 0.16500 119244.000000
2361 14720 1 0.16500 119244.000000
2362 11969 1 0.16500 119244.000000
2362 13399 1 0.16500 119244.000000
2363 11969 1 0.16500 119244.000000
2363 14762 1 0.16500 119244.000000
2364 11969 1 0.16500 119244.000000
2364 14819 1 0.16500 119244.000000
2365 11969 1 0.16500 119244.000000
2365 12269 1 0.16500 119244.000000
2366 11970 1 0.16500 119244.000000
2366 13561 1 0.16500 119244.000000
2367 11970 1 0.16500 119244.000000
2367 15302 1 0.16500 119244.000000
2368 11970 1 0.16500 119244.000000
2368 13658 1 0.16500 119244.000000
2369 11970 1 0.16500 119244.000000
2369 13399 1 0.16500 119244.000000
2370 11971 1 0.16500 119244.000000
2370 14889 1 0.16500 119244.000000
2371 11971 1 0.16500 119244.000000
2371 14487 1 0.16500 119244.000000
2372 11971 1 0.16500 119244.000000
2372 13274 1 0.16500 119244.000000
2373 11971 1 0.16500 119244.000000
2373 15859 1 0.16500 119244.000000
2374 11972 1 0.16500 119244.000000
2374 14851 1 0.16500 119244.000000
2375 11972 1 0.16500 119244.000000
2375 12553 1 0.16500 119244.000000
2376 11972 1 0.16500 119244.000000
2376 14854 1 0.16500 119244.000000
2377 11972 1 0.16500 119244.000000
2377 13767 1 0.16500 119244.000000
2378 11973 1 0.16500 119244.000000
2378 11977 1 0.16500 119244.000000
2379 11973 1 0.16500 119244.000000
2379 14293 1 0.16500 119244.000000
2380 11973 1 0.16500 119244.000000
2380 13258 1 0.16500 119244.000000
2381 11973 1 0.16500 119244.000000
2381 13309 1 0.16500 119244.000000
2382 11974 1 0.16500 119244.000000
2382 14732 1 0.16500 119244.000000
2383 11974 1 0.16500 119244.000000
2383 14345 1 0.16500 119244.000000
2384 11974 1 0.16500 119244.000000
2384 16314 1 0.16500 119244.000000
2385 11974 1 0.16500 119244.000000
2385 13039 1 0.16500 119244.000000
2386 11975 1 0.16500 119244.000000
2386 14948 1 0.16500 119244.000000
2387 11975 1 0.16500 119244.000000
2387 14137 1 0.16500 119244.000000
2388 11975 1 0.16500 119244.000000
2388 12861 1 0.16500 119244.000000
2389 11975 1 0.16500 119244.000000
2389 16600 1 0.16500 119244.000000
2390 11976 1 0.16500 119244.000000
2390 15699 1 0.16500 119244.000000
2391 11976 1 0.16500 119244.000000
2391 14182 1 0.16500 119244.000000
2392 11976 1 0.16500 119244.000000
2392 15169 1 0.16500 119244.000000
2393 11976 1 0.16500 119244.000000
2393 14889 1 0.16500 119244.000000
2394 11977 1 0.16500 119244.000000
2394 13069 1 0.16500 119244.000000
2395 11977 1 0.16500 119244.000000
2395 16464 1 0.16500 119244.000000
2396 11977 1 0.16500 119244.000000
2396 12184 1 0.16500 119244.000000
2397 15901 1 0.16500 119244.000000
2397 16464 1 0.16500 119244.000000
2398 11978 1 0.16500 119244.000000
2398 15973 1 0.16500 119244.000000
2399 11978 1 0.16500 119244.000000
2399 15232 1 0.16500 119244.000000
2400 11978 1 0.16500 119244.000000
2400 12019 1 0.16500 119244.000000
2401 14063 1 0.16500 119244.000000
2401 15973 1 0.16500 119244.000000
2402 11979 1 0.16500 119244.000000
2402 16062 1 0.16500 119244.000000
2403 11979 1 0.16500 119244.000000
2403 14843 1 0.16500 119244.000000
2404 11979 1 0.16500 119244.000000
2404 12186 1 0.16500 119244.000000
2405 11979 1 0.16500 119244.000000
2405 12724 1 0.16500 119244.000000
2406 11980 1 0.16500 119244.000000
2406 16446 1 0.16500 119244.000000
2407 11980 1 0.16500 119244.000000
2407 15820 1 0.16500 119244.000000
2408 11980 1 0.16500 119244.000000
2408 13310 1 0.16500 119244.000000
2409 11980 1 0.16500 119244.000000
2409 16037 1 0.16500 119244.000000
2410 11981 1 0.16500 119244.000000
2410 13464 1 0.16500 119244.000000
2411 11981 1 0.16500 119244.000000
2411 15855 1 0.16500 119244.000000
2412 11981 1 0.16500 119244.000000
2412 13921 1 0.16500 119244.000000
2413 11982 1 0.16500 119244.000000
2413 16546 1 0.16500 119244.000000
2414 11982 1 0.16500 119244.000000
2414 15303 1 0.16500 119244.000000
2415 11982 1 0.16500 119244.000000
2415 15157 1 0.16500 119244.000000
2416 11982 1 0.16500 119244.000000
2416 14877 1 0.16500 119244.000000
2417 11983 1 0.16500 119244.000000
2417 12966 1 0.16500 119244.000000
2418 11983 1 0.16500 119244.000000
2418 15473 1 0.16500 119244.000000
2419 11983 1 0.16500 119244.000000
2419 18634 1 0.16500 119244.000000
2420 11983 1 0.16500 119244.000000
2420 20254 1 0.16500 119244.000000
2421 11984 1 0.16500 119244.000000
2421 14975 1 0.16500 119244.000000
2422 11984 1 0.16500 119244.000000
2422 13971 1 0.16500 119244.000000
2423 11984 1 0.16500 119244.000000
2423 14130 1 0.16500 119244.000000
2424 11984 1 0.16500 119244.000000
2424 15583 1 0.16500 119244.000000
2425 11985 1 0.16500 119244.000000
2425 14593 1 0.16500 119244.000000
2426 11985 1 0.16500 119244.000000
2426 12694 1 0.16500 119244.000000
2427 11985 1 0.16500 119244.000000
2427 15653 1 0.16500 119244.000000
2428 11985 1 0.16500 119244.000000
2428 12056 1 0.16500 119244.000000
2429 11707 1 0.16500 119244.000000
2429 21286 1 0.16500 119244.000000
2430 16087 1 0.16500 119244.000000
2430 21286 1 0.16500 119244.000000
2431 17960 1 0.16500 119244.000000
2431 20326 1 0.16500 119244.000000
2432 11465 1 0.16500 119244.000000
2432 16938 1 0.16500 119244.000000
2433 16938 1 0.16500 119244.000000
2433 20326 1 0.16500 119244.000000
2434 11986 1 0.16500 119244.000000
2434 14557 1 0.16500 119244.000000
2435 11986 1 0.16500 119244.000000
2435 16316 1 0.16500 119244.000000
2436 11986 1 0.16500 119244.000000
2436 12318 1 0.16500 119244.000000
2437 11986 1 0.16500 119244.000000
2437 16246 1 0.16500 119244.000000
2438 11987 1 0.16500 119244.000000
2438 14327 1 0.16500 119244.000000
2439 11987 1 0.16500 119244.000000
2439 15247 1 0.16500 119244.000000
2440 11987 1 0.16500 119244.000000
2440 14916 1 0.16500 119244.000000
2441 11987 1 0.16500 119244.000000
2441 13907 1 0.16500 119244.000000
2442 11427 1 0.16500 119244.000000
2442 11988 1 0.16500 119244.000000
2443 11988 1 0.16500 119244.000000
2443 12780 1 0.16500 119244.000000
2444 11988 1 0.16500 119244.000000
2444 13252 1 0.16500 119244.000000
2445 11988 1 0.16500 119244.000000
2445 14065 1 0.16500 119244.000000
2446 11989 1 0.16500 119244.000000
2446 12301 1 0.16500 119244.000000
2447 11989 1 0.16500 119244.000000
2447 12683 1 0.16500 119244.000000
2448 11989 1 0.16500 119244.000000
2448 14522 1 0.16500 119244.000000
2449 11989 1 0.16500 119244.000000
2449 13858 1 0.16500 119244.000000
2450 14681 1 0.16500 119244.000000
2450 18562 1 0.16500 119244.000000
2451 18562 1 0.16500 119244.000000
2451 21445 1 0.16500 119244.000000
2452 18562 1 0.16500 119244.000000
2452 19342 1 0.16500 119244.000000
2453 11990 1 0.16500 119244.000000
2453 12471 1 0.16500 119244.000000
2454 11990 1 0.16500 119244.000000
2454 12601 1 0.16500 119244.000000
2455 11990 1 0.16500 119244.000000
2455 19138 1 0.16500 119244.000000
2456 11991 1 0.16500 119244.000000
2456 16178 1 0.16500 119244.000000
2457 11991 1 0.16500 119244.000000
2457 16245 1 0.16500 119244.000000
2458 11992 1 0.16500 119244.000000
2458 14718 1 0.16500 119244.000000
2459 11992 1 0.16500 119244.000000
2459 15291 1 0.16500 119244.000000
2460 11992 1 0.16500 119244.000000
2460 12267 1 0.16500 119244.000000
2461 11992 1 0.16500 119244.000000
2461 16305 1 0.16500 119244.000000
2462 16304 1 0.16500 119244.000000
2462 20218 1 0.16500 119244.000000
2463 12483 1 0.16500 119244.000000
2463 20218 1 0.16500 119244.000000
2464 11993 1 0.16500 119244.000000
2464 13545 1 0.16500 119244.000000
2465 11993 1 0.16500 119244.000000
2465 13867 1 0.16500 119244.000000
2466 11993 1 0.16500 119244.000000
2466 16462 1 0.16500 119244.000000
2467 11993 1 0.16500 119244.000000
2467 13638 1 0.16500 119244.000000
2468 11994 1 0.16500 119244.000000
2468 12010 1 0.16500 119244.000000
2469 11994 1 0.16500 119244.000000
2469 21697 1 0.16500 119244.000000
2470 11994 1 0.16500 119244.000000
2470 13411 1 0.16500 119244.000000
2471 11994 1 0.16500 119244.000000
2471 14982 1 0.16500 119244.000000
2472 11995 1 0.16500 119244.000000
2472 15267 1 0.16500 119244.000000
2473 11995 1 0.16500 119244.000000
2473 14465 1 0.16500 119244.000000
2474 11995 1 0.16500 119244.000000
2474 15187 1 0.16500 119244.000000
2475 11995 1 0.16500 119244.000000
2475 12909 1 0.16500 119244.000000
2476 11996 1 0.16500 119244.000000
2476 15660 1 0.16500 119244.000000
2477 11996 1 0.16500 119244.000000
2477 16472 1 0.16500 119244.000000
2478 11996 1 0.16500 119244.000000
2478 15437 1 0.16500 119244.000000
2479 12370 1 0.16500 119244.000000
2479 16472 1 0.16500 119244.000000
2480 11997 1 0.16500 119244.000000
2480 12992 1 0.16500 119244.000000
2481 11997 1 0.16500 119244.000000
2481 16263 1 0.16500 119244.000000
2482 11997 1 0.16500 119244.000000
2482 12657 1 0.16500 119244.000000
2483 11998 1 0.16500 119244.000000
2483 12561 1 0.16500 119244.000000
2484 11998 1 0.16500 119244.000000
2484 13898 1 0.16500 119244.000000
2485 11998 1 0.16500 119244.000000
2485 14629 1 0.16500 119244.000000
2486 11999 1 0.16500 119244.000000
2486 15566 1 0.16500 119244.000000
2487 11999 1 0.16500 119244.000000
2487 12564 1 0.16500 119244.000000
2488 11999 1 0.16500 119244.000000
2488 12138 1 0.16500 119244.000000
2489 11999 1 0.16500 119244.000000
2489 14388 1 0.16500 119244.000000
2490 12536 1 0.16500 119244.000000
2490 21841 1 0.16500 119244.000000
2491 15064 1 0.16500 119244.000000
2491 15788 1 0.16500 119244.000000
2492 12536 1 0.16500 119244.000000
2492 15064 1 0.16500 119244.000000
2493 12000 1 0.16500 119244.000000
2493 15729 1 0.16500 119244.000000
2494 12000 1 0.16500 119244.000000
2494 14015 1 0.16500 119244.000000
2495 12000 1 0.16500 119244.000000
2495 13278 1 0.16500 119244.000000
2496 12001 1 0.16500 119244.000000
2496 12034 1 0.16500 119244.000000
2497 12001 1 0.16500 119244.000000
2497 12639 1 0.16500 119244.000000
2498 12001 1 0.16500 119244.000000
2498 17568 1 0.16500 119244.000000
2499 12001 1 0.16500 119244.000000
2499 14861 1 0.16500 119244.000000
2500 16223 1 0.16500 119244.000000
2500 16700 1 0.16500 119244.000000
2501 13630 1 0.16500 119244.000000
2501 16700 1 0.16500 119244.000000
2502 12002 1 0.16500 119244.000000
2502 14921 1 0.16500 119244.000000
2503 12002 1 0.16500 119244.000000
2503 14448 1 0.16500 119244.000000
2504 12002 1 0.16500 119244.000000
2504 12142 1 0.16500 119244.000000
2505 14393 1 0.16500 119244.000000
2505 21289 1 0.16500 119244.000000
2506 21289 1 0.16500 119244.000000
2506 21304 1 0.16500 119244.000000
2507 14393 1 0.16500 119244.000000
2507 15800 1 0.16500 119244.000000
2508 12003 1 0.16500 119244.000000
2508 14550 1 0.16500 119244.000000
2509 12003 1 0.16500 119244.000000
2509 15652 1 0.16500 119244.000000
2510 12003 1 0.16500 119244.000000
2510 13404 1 0.16500 119244.000000
2511 12003 1 0.16500 119244.000000
2511 16388 1 0.16500 119244.000000
2512 12004 1 0.16500 119244.000000
2512 14086 1 0.16500 119244.000000
2513 12004 1 0.16500 119244.000000
2513 12259 1 0.16500 119244.000000
2514 12004 1 0.16500 119244.000000
2514 12843 1 0.16500 119244.000000
2515 12004 1 0.16500 119244.000000
2515 13250 1 0.16500 119244.000000
2516 12005 1 0.16500 119244.000000
2516 15737 1 0.16500 119244.000000
2517 12005 1 0.16500 119244.000000
2517 18170 1 0.16500 119244.000000
2518 12005 1 0.16500 119244.000000
2518 16058 1 0.16500 119244.000000
2519 12005 1 0.16500 119244.000000
2519 15961 1 0.16500 119244.000000
2520 12006 1 0.16500 119244.000000
2520 16390 1 0.16500 119244.000000
2521 12006 1 0.16500 119244.000000
2521 14000 1 0.16500 119244.000000
2522 12006 1 0.16500 119244.000000
2522 16217 1 0.16500 119244.000000
2523 12006 1 0.16500 119244.000000
2523 15875 1 0.16500 119244.000000
2524 12007 1 0.16500 119244.000000
2524 12352 1 0.16500 119244.000000
2525 12007 1 0.16500 119244.000000
2525 14380 1 0.16500 119244.000000
2526 12007 1 0.16500 119244.000000
2526 12412 1 0.16500 119244.000000
2527 12007 1 0.16500 119244.000000
2527 12867 1 0.16500 119244.000000
2528 12008 1 0.16500 119244.000000
2528 15193 1 0.16500 119244.000000
2529 12008 1 0.16500 119244.000000
2529 12542 1 0.16500 119244.000000
2530 12008 1 0.16500 119244.000000
2530 14094 1 0.16500 119244.000000
2531 12008 1 0.16500 119244.000000
2531 12432 1 0.16500 119244.000000
2532 12009 1 0.16500 119244.000000
2532 15149 1 0.16500 119244.000000
2533 12009 1 0.16500 119244.000000
2533 14515 1 0.16500 119244.000000
2534 12009 1 0.16500 119244.000000
2534 14260 1 0.16500 119244.000000
2535 12009 1 0.16500 119244.000000
2535 15137 1 0.16500 119244.000000
2536 12010 1 0.16500 119244.000000
2536 16043 1 0.16500 119244.000000
2537 12010 1 0.16500 119244.000000
2537 15696 1 0.16500 119244.000000
2538 12010 1 0.16500 119244.000000
2538 16429 1 0.16500 119244.000000
2539 12011 1 0.16500 119244.000000
2539 16132 1 0.16500 119244.000000
2540 12011 1 0.16500 119244.000000
2540 20494 1 0.16500 119244.000000
2541 12011 1 0.16500 119244.000000
2541 13615 1 0.16500 119244.000000
2542 12012 1 0.16500 119244.000000
2542 12610 1 0.16500 119244.000000
2543 12012 1 0.16500 119244.000000
2543 15326 1 0.16500 119244.000000
2544 12012 1 0.16500 119244.000000
2544 15402 1 0.16500 119244.000000
2545 12013 1 0.16500 119244.000000
2545 14409 1 0.16500 119244.000000
2546 12013 1 0.16500 119244.000000
2546 15883 1 0.16500 119244.000000
2547 12013 1 0.16500 119244.000000
2547 13603 1 0.16500 119244.000000
2548 12013 1 0.16500 119244.000000
2548 15756 1 0.16500 119244.000000
2549 12014 1 0.16500 119244.000000
2549 14822 1 0.16500 119244.000000
2550 12014 1 0.16500 119244.000000
2550 12101 1 0.16500 119244.000000
2551 12014 1 0.16500 119244.000000
2551 13445 1 0.16500 119244.000000
2552 12014 1 0.16500 119244.000000
2552 15070 1 0.16500 119244.000000
2553 12015 1 0.16500 119244.000000
2553 13325 1 0.16500 119244.000000
2554 12015 1 0.16500 119244.000000
2554 13374 1 0.16500 119244.000000
2555 12015 1 0.16500 119244.000000
2555 15003 1 0.16500 119244.000000
2556 12015 1 0.16500 119244.000000
2556 16534 1 0.16500 119244.000000
2557 13168 1 0.16500 119244.000000
2557 16376 1 0.16500 119244.000000
2558 15669 1 0.16500 119244.000000
2558 19090 1 0.16500 119244.000000
2559 12107 1 0.16500 119244.000000
2559 19090 1 0.16500 119244.000000
2560 13168 1 0.16500 119244.000000
2560 19090 1 0.16500 119244.000000
2561 12016 1 0.16500 119244.000000
2561 12622 1 0.16500 119244.000000
2562 12016 1 0.16500 119244.000000
2562 13606 1 0.16500 119244.000000
2563 12016 1 0.16500 119244.000000
2563 13274 1 0.16500 119244.000000
2564 12017 1 0.16500 119244.000000
2564 16196 1 0.16500 119244.000000
2565 12017 1 0.16500 119244.000000
2565 12650 1 0.16500 119244.000000
2566 12017 1 0.16500 119244.000000
2566 14927 1 0.16500 119244.000000
2567 12018 1 0.16500 119244.000000
2567 13542 1 0.16500 119244.000000
2568 12018 1 0.16500 119244.000000
2568 21772 1 0.16500 119244.000000
2569 12018 1 0.16500 119244.000000
2569 20518 1 0.16500 119244.000000
2570 12018 1 0.16500 119244.000000
2570 14584 1 0.16500 119244.000000
2571 12019 1 0.16500 119244.000000
2571 15654 1 0.16500 119244.000000
2572 12019 1 0.16500 119244.000000
2572 12351 1 0.16500 119244.000000
2573 12351 1 0.16500 119244.000000
2573 15089 1 0.16500 119244.000000
2574 11565 1 0.16500 119244.000000
2574 12020 1 0.16500 119244.000000
2575 12020 1 0.16500 119244.000000
2575 13361 1 0.16500 119244.000000
2576 12020 1 0.16500 119244.000000
2576 13780 1 0.16500 119244.000000
2577 12020 1 0.16500 119244.000000
2577 12914 1 0.16500 119244.000000
2578 12021 1 0.16500 119244.000000
2578 15211 1 0.16500 119244.000000
2579 12021 1 0.16500 119244.000000
2579 14286 1 0.16500 119244.000000
2580 12021 1 0.16500 119244.000000
2580 13633 1 0.16500 119244.000000
2581 13863 1 0.16500 119244.000000
2581 21292 1 0.16500 119244.000000
2582 15080 1 0.16500 119244.000000
2582 21292 1 0.16500 119244.000000
2583 12054 1 0.16500 119244.000000
2583 15285 1 0.16500 119244.000000
2584 12022 1 0.16500 119244.000000
2584 20986 1 0.16500 119244.000000
2585 12022 1 0.16500 119244.000000
2585 15285 1 0.16500 119244.000000
2586 12022 1 0.16500 119244.000000
2586 13045 1 0.16500 119244.000000
2587 21295 1 0.16500 119244.000000
2587 21592 1 0.16500 119244.000000
2588 15490 1 0.16500 119244.000000
2588 21295 1 0.16500 119244.000000
2589 12023 1 0.16500 119244.000000
2589 13600 1 0.16500 119244.000000
2590 12023 1 0.16500 119244.000000
2590 12482 1 0.16500 119244.000000
2591 12023 1 0.16500 119244.000000
2591 14975 1 0.16500 119244.000000
2592 12024 1 0.16500 119244.000000
2592 12787 1 0.16500 119244.000000
2593 12024 1 0.16500 119244.000000
2593 14475 1 0.16500 119244.000000
2594 12024 1 0.16500 119244.000000
2594 12641 1 0.16500 119244.000000
2595 12025 1 0.16500 119244.000000
2595 16501 1 0.16500 119244.000000
2596 12025 1 0.16500 119244.000000
2596 14769 1 0.16500 119244.000000
2597 12025 1 0.16500 119244.000000
2597 12148 1 0.16500 119244.000000
2598 12026 1 0.16500 119244.000000
2598 16515 1 0.16500 119244.000000
2599 12026 1 0.16500 119244.000000
2599 16064 1 0.16500 119244.000000
2600 12026 1 0.16500 119244.000000
2600 13361 1 0.16500 119244.000000
2601 12026 1 0.16500 119244.000000
2601 12742 1 0.16500 119244.000000
2602 15984 1 0.16500 119244.000000
2602 19246 1 0.16500 119244.000000
2603 14789 1 0.16500 119244.000000
2603 19246 1 0.16500 119244.000000
2604 12027 1 0.16500 119244.000000
2604 21307 1 0.16500 119244.000000
2605 21307 1 0.16500 119244.000000
2605 21625 1 0.16500 119244.000000
2606 12028 1 0.16500 119244.000000
2606 16564 1 0.16500 119244.000000
2607 14799 1 0.16500 119244.000000
2607 16564 1 0.16500 119244.000000
2608 12028 1 0.16500 119244.000000
2608 16480 1 0.16500 119244.000000
2609 12028 1 0.16500 119244.000000
2609 15720 1 0.16500 119244.000000
2610 12029 1 0.16500 119244.000000
2610 16274 1 0.16500 119244.000000
2611 12029 1 0.16500 119244.000000
2611 13007 1 0.16500 119244.000000
2612 12029 1 0.16500 119244.000000
2612 13854 1 0.16500 119244.000000
2613 12030 1 0.16500 119244.000000
2613 12629 1 0.16500 119244.000000
2614 12030 1 0.16500 119244.000000
2614 12591 1 0.16500 119244.000000
2615 12030 1 0.16500 119244.000000
2615 13193 1 0.16500 119244.000000
2616 12031 1 0.16500 119244.000000
2616 13149 1 0.16500 119244.000000
2617 12031 1 0.16500 119244.000000
2617 13416 1 0.16500 119244.000000
2618 12031 1 0.16500 119244.000000
2618 14505 1 0.16500 119244.000000
2619 12032 1 0.16500 119244.000000
2619 16437 1 0.16500 119244.000000
2620 12032 1 0.16500 119244.000000
2620 13103 1 0.16500 119244.000000
2621 12032 1 0.16500 119244.000000
2621 16111 1 0.16500 119244.000000
2622 12032 1 0.16500 119244.000000
2622 14167 1 0.16500 119244.000000
2623 12119 1 0.16500 119244.000000
2623 21959 1 0.16500 119244.000000
2624 17680 1 0.16500 119244.000000
2624 21959 1 0.16500 119244.000000
2625 12885 1 0.16500 119244.000000
2625 13328 1 0.16500 119244.000000
2626 12033 1 0.16500 119244.000000
2626 15232 1 0.16500 119244.000000
2627 12033 1 0.16500 119244.000000
2627 13328 1 0.16500 119244.000000
2628 12033 1 0.16500 119244.000000
2628 13292 1 0.16500 119244.000000
2629 12034 1 0.16500 119244.000000
2629 15929 1 0.16500 119244.000000
2630 12034 1 0.16500 119244.000000
2630 15205 1 0.16500 119244.000000
2631 12034 1 0.16500 119244.000000
2631 13079 1 0.16500 119244.000000
2632 12035 1 0.16500 119244.000000
2632 15975 1 0.16500 119244.000000
2633 12035 1 0.16500 119244.000000
2633 21400 1 0.16500 119244.000000
2634 12035 1 0.16500 119244.000000
2634 16474 1 0.16500 119244.000000
2635 12035 1 0.16500 119244.000000
2635 15725 1 0.16500 119244.000000
2636 12036 1 0.16500 119244.000000
2636 15799 1 0.16500 119244.000000
2637 12036 1 0.16500 119244.000000
2637 13401 1 0.16500 119244.000000
2638 12036 1 0.16500 119244.000000
2638 15326 1 0.16500 119244.000000
2639 12036 1 0.16500 119244.000000
2639 15993 1 0.16500 119244.000000
2640 12037 1 0.16500 119244.000000
2640 13351 1 0.16500 119244.000000
2641 12037 1 0.16500 119244.000000
2641 15789 1 0.16500 119244.000000
2642 12037 1 0.16500 119244.000000
2642 13791 1 0.16500 119244.000000
2643 12037 1 0.16500 119244.000000
2643 13311 1 0.16500 119244.000000
2644 12038 1 0.16500 119244.000000
2644 16611 1 0.16500 119244.000000
2645 12038 1 0.16500 119244.000000
2645 13393 1 0.16500 119244.000000
2646 12038 1 0.16500 119244.000000
2646 12659 1 0.16500 119244.000000
2647 12039 1 0.16500 119244.000000
2647 13435 1 0.16500 119244.000000
2648 12039 1 0.16500 119244.000000
2648 16419 1 0.16500 119244.000000
2649 15751 1 0.16500 119244.000000
2649 16419 1 0.16500 119244.000000
2650 12039 1 0.16500 119244.000000
2650 14296 1 0.16500 119244.000000
2651 12040 1 0.16500 119244.000000
2651 21544 1 0.16500 119244.000000
2652 12040 1 0.16500 119244.000000
2652 21943 1 0.16500 119244.000000
2653 12040 1 0.16500 119244.000000
2653 16558 1 0.16500 119244.000000
2654 12041 1 0.16500 119244.000000
2654 13559 1 0.16500 119244.000000
2655 12041 1 0.16500 119244.000000
2655 14172 1 0.16500 119244.000000
2656 12041 1 0.16500 119244.000000
2656 14843 1 0.16500 119244.000000
2657 12041 1 0.16500 119244.000000
2657 16511 1 0.16500 119244.000000
2658 12042 1 0.16500 119244.000000
2658 14906 1 0.16500 119244.000000
2659 12042 1 0.16500 119244.000000
2659 12175 1 0.16500 119244.000000
2660 12043 1 0.16500 119244.000000
2660 13421 1 0.16500 119244.000000
2661 12043 1 0.16500 119244.000000
2661 13389 1 0.16500 119244.000000
2662 12043 1 0.16500 119244.000000
2662 13690 1 0.16500 119244.000000
2663 12043 1 0.16500 119244.000000
2663 16607 1 0.16500 119244.000000
2664 12044 1 0.16500 119244.000000
2664 14485 1 0.16500 119244.000000
2665 12044 1 0.16500 119244.000000
2665 13881 1 0.16500 119244.000000
2666 12045 1 0.16500 119244.000000
2666 14308 1 0.16500 119244.000000
2667 12045 1 0.16500 119244.000000
2667 20710 1 0.16500 119244.000000
2668 12046 1 0.16500 119244.000000
2668 14550 1 0.16500 119244.000000
2669 12046 1 0.16500 119244.000000
2669 14464 1 0.16500 119244.000000
2670 12046 1 0.16500 119244.000000
2670 12876 1 0.16500 119244.000000
2671 12046 1 0.16500 119244.000000
2671 12262 1 0.16500 119244.000000
2672 12047 1 0.16500 119244.000000
2672 13242 1 0.16500 119244.000000
2673 12047 1 0.16500 119244.000000
2673 13418 1 0.16500 119244.000000
2674 12047 1 0.16500 119244.000000
2674 14180 1 0.16500 119244.000000
2675 12047 1 0.16500 119244.000000
2675 12162 1 0.16500 119244.000000
2676 12048 1 0.16500 119244.000000
2676 12695 1 0.16500 119244.000000
2677 12048 1 0.16500 119244.000000
2677 15099 1 0.16500 119244.000000
2678 12048 1 0.16500 119244.000000
2678 16292 1 0.16500 119244.000000
2679 12048 1 0.16500 119244.000000
2679 13958 1 0.16500 119244.000000
2680 12049 1 0.16500 119244.000000
2680 13437 1 0.16500 119244.000000
2681 12049 1 0.16500 119244.000000
2681 13522 1 0.16500 119244.000000
2682 12049 1 0.16500 119244.000000
2682 15785 1 0.16500 119244.000000
2683 14695 1 0.16500 119244.000000
2683 15785 1 0.16500 119244.000000
2684 12050 1 0.16500 119244.000000
2684 16644 1 0.16500 119244.000000
2685 12050 1 0.16500 119244.000000
2685 12631 1 0.16500 119244.000000
2686 12050 1 0.16500 119244.000000
2686 13234 1 0.16500 119244.000000
2687 12050 1 0.16500 119244.000000
2687 16172 1 0.16500 119244.000000
2688 12051 1 0.16500 119244.000000
2688 15749 1 0.16500 119244.000000
2689 12051 1 0.16500 119244.000000
2689 15784 1 0.16500 119244.000000
2690 12051 1 0.16500 119244.000000
2690 21544 1 0.16500 119244.000000
2691 12051 1 0.16500 119244.000000
2691 13908 1 0.16500 119244.000000
2692 12052 1 0.16500 119244.000000
2692 15356 1 0.16500 119244.000000
2693 12052 1 0.16500 119244.000000
2693 14263 1 0.16500 119244.000000
2694 12052 1 0.16500 119244.000000
2694 16337 1 0.16500 119244.000000
2695 12052 1 0.16500 119244.000000
2695 12856 1 0.16500 119244.000000
2696 12053 1 0.16500 119244.000000
2696 13266 1 0.16500 119244.000000
2697 12053 1 0.16500 119244.000000
2697 12341 1 0.16500 119244.000000
2698 12053 1 0.16500 119244.000000
2698 14953 1 0.16500 119244.000000
2699 12054 1 0.16500 119244.000000
2699 15470 1 0.16500 119244.000000
2700 12054 1 0.16500 119244.000000
2700 15024 1 0.16500 119244.000000
2701 12054 1 0.16500 119244.000000
2701 13580 1 0.16500 119244.000000
2702 12055 1 0.16500 119244.000000
2702 15748 1 0.16500 119244.000000
2703 12055 1 0.16500 119244.000000
2703 14337 1 0.16500 119244.000000
2704 12055 1 0.16500 119244.000000
2704 13561 1 0.16500 119244.000000
2705 12055 1 0.16500 119244.000000
2705 14287 1 0.16500 119244.000000
2706 12056 1 0.16500 119244.000000
2706 13269 1 0.16500 119244.000000
2707 12056 1 0.16500 119244.000000
2707 12213 1 0.16500 119244.000000
2708 12056 1 0.16500 119244.000000
2708 16245 1 0.16500 119244.000000
2709 12057 1 0.16500 119244.000000
2709 13244 1 0.16500 119244.000000
2710 12057 1 0.16500 119244.000000
2710 16366 1 0.16500 119244.000000
2711 12057 1 0.16500 119244.000000
2711 16397 1 0.16500 119244.000000
2712 12057 1 0.16500 119244.000000
2712 13122 1 0.16500 119244.000000
2713 12058 1 0.16500 119244.000000
2713 13822 1 0.16500 119244.000000
2714 12058 1 0.16500 119244.000000
2714 13582 1 0.16500 119244.000000
2715 12058 1 0.16500 119244.000000
2715 12448 1 0.16500 119244.000000
2716 12058 1 0.16500 119244.000000
2716 12911 1 0.16500 119244.000000
2717 12059 1 0.16500 119244.000000
2717 16509 1 0.16500 119244.000000
2718 12059 1 0.16500 119244.000000
2718 14671 1 0.16500 119244.000000
2719 12059 1 0.16500 119244.000000
2719 13174 1 0.16500 119244.000000
2720 12059 1 0.16500 119244.000000
2720 14958 1 0.16500 119244.000000
2721 12060 1 0.16500 119244.000000
2721 16618 1 0.16500 119244.000000
2722 12060 1 0.16500 119244.000000
2722 14536 1 0.16500 119244.000000
2723 12060 1 0.16500 119244.000000
2723 12374 1 0.16500 119244.000000
2724 12060 1 0.16500 119244.000000
2724 16123 1 0.16500 119244.000000
2725 12061 1 0.16500 119244.000000
2725 16543 1 0.16500 119244.000000
2726 12061 1 0.16500 119244.000000
2726 13673 1 0.16500 119244.000000
2727 12061 1 0.16500 119244.000000
2727 15323 1 0.16500 119244.000000
2728 12061 1 0.16500 119244.000000
2728 13410 1 0.16500 119244.000000
2729 15627 1 0.16500 119244.000000
2729 21298 1 0.16500 119244.000000
2730 13186 1 0.16500 119244.000000
2730 21298 1 0.16500 119244.000000
2731 13214 1 0.16500 119244.000000
2731 21298 1 0.16500 119244.000000
2732 12062 1 0.16500 119244.000000
2732 12668 1 0.16500 119244.000000
2733 12062 1 0.16500 119244.000000
2733 14085 1 0.16500 119244.000000
2734 12062 1 0.16500 119244.000000
2734 14649 1 0.16500 119244.000000
2735 12063 1 0.16500 119244.000000
2735 13166 1 0.16500 119244.000000
2736 12063 1 0.16500 119244.000000
2736 13557 1 0.16500 119244.000000
2737 12063 1 0.16500 119244.000000
2737 16011 1 0.16500 119244.000000
2738 12064 1 0.16500 119244.000000
2738 12272 1 0.16500 119244.000000
2739 12064 1 0.16500 119244.000000
2739 13668 1 0.16500 119244.000000
2740 12064 1 0.16500 119244.000000
2740 14862 1 0.16500 119244.000000
2741 12064 1 0.16500 119244.000000
2741 14826 1 0.16500 119244.000000
2742 12065 1 0.16500 119244.000000
2742 16089 1 0.16500 119244.000000
2743 12065 1 0.16500 119244.000000
2743 16575 1 0.16500 119244.000000
2744 12065 1 0.16500 119244.000000
2744 15737 1 0.16500 119244.000000
2745 12065 1 0.16500 119244.000000
2745 12622 1 0.16500 119244.000000
2746 12066 1 0.16500 119244.000000
2746 13617 1 0.16500 119244.000000
2747 12066 1 0.16500 119244.000000
2747 21733 1 0.16500 119244.000000
2748 12066 1 0.16500 119244.000000
2748 16561 1 0.16500 119244.000000
2749 12067 1 0.16500 119244.000000
2749 13029 1 0.16500 119244.000000
2750 12067 1 0.16500 119244.000000
2750 14434 1 0.16500 119244.000000
2751 12067 1 0.16500 119244.000000
2751 15798 1 0.16500 119244.000000
2752 12067 1 0.16500 119244.000000
2752 12687 1 0.16500 119244.000000
2753 12068 1 0.16500 119244.000000
2753 14120 1 0.16500 119244.000000
2754 14634 1 0.16500 119244.000000
2754 15717 1 0.16500 119244.000000
2755 12068 1 0.16500 119244.000000
2755 14680 1 0.16500 119244.000000
2756 12068 1 0.16500 119244.000000
2756 14634 1 0.16500 119244.000000
2757 12069 1 0.16500 119244.000000
2757 12465 1 0.16500 119244.000000
2758 12069 1 0.16500 119244.000000
2758 13129 1 0.16500 119244.000000
2759 12069 1 0.16500 119244.000000
2759 13646 1 0.16500 119244.000000
2760 12069 1 0.16500 119244.000000
2760 13414 1 0.16500 119244.000000
2761 12070 1 0.16500 119244.000000
2761 15259 1 0.16500 119244.000000
2762 12070 1 0.16500 119244.000000
2762 14611 1 0.16500 119244.000000
2763 12070 1 0.16500 119244.000000
2763 14206 1 0.16500 119244.000000
2764 12071 1 0.16500 119244.000000
2764 12827 1 0.16500 119244.000000
2765 12071 1 0.16500 119244.000000
2765 15496 1 0.16500 119244.000000
2766 12071 1 0.16500 119244.000000
2766 14044 1 0.16500 119244.000000
2767 12071 1 0.16500 119244.000000
2767 14517 1 0.16500 119244.000000
2768 12072 1 0.16500 119244.000000
2768 15935 1 0.16500 119244.000000
2769 12072 1 0.16500 119244.000000
2769 15860 1 0.16500 119244.000000
2770 12072 1 0.16500 119244.000000
2770 12116 1 0.16500 119244.000000
2771 12073 1 0.16500 119244.000000
2771 16552 1 0.16500 119244.000000
2772 13712 1 0.16500 119244.000000
2772 14185 1 0.16500 119244.000000
2773 12073 1 0.16500 119244.000000
2773 13712 1 0.16500 119244.000000
2774 12073 1 0.16500 119244.000000
2774 15030 1 0.16500 119244.000000
2775 15018 1 0.16500 119244.000000
2775 21301 1 0.16500 119244.000000
2776 15552 1 0.16500 119244.000000
2776 21301 1 0.16500 119244.000000
2777 12074 1 0.16500 119244.000000
2777 15548 1 0.16500 119244.000000
2778 12074 1 0.16500 119244.000000
2778 12546 1 0.16500 119244.000000
2779 12074 1 0.16500 119244.000000
2779 15746 1 0.16500 119244.000000
2780 12075 1 0.16500 119244.000000
2780 20530 1 0.16500 119244.000000
2781 12075 1 0.16500 119244.000000
2781 13369 1 0.16500 119244.000000
2782 12075 1 0.16500 119244.000000
2782 14429 1 0.16500 119244.000000
2783 12075 1 0.16500 119244.000000
2783 14524 1 0.16500 119244.000000
2784 12076 1 0.16500 119244.000000
2784 15683 1 0.16500 119244.000000
2785 12076 1 0.16500 119244.000000
2785 14291 1 0.16500 119244.000000
2786 12076 1 0.16500 119244.000000
2786 14201 1 0.16500 119244.000000
2787 12076 1 0.16500 119244.000000
2787 13289 1 0.16500 119244.000000
2788 12077 1 0.16500 119244.000000
2788 13983 1 0.16500 119244.000000
2789 12077 1 0.16500 119244.000000
2789 12816 1 0.16500 119244.000000
2790 12077 1 0.16500 119244.000000
2790 15851 1 0.16500 119244.000000
2791 12078 1 0.16500 119244.000000
2791 12670 1 0.16500 119244.000000
2792 12078 1 0.16500 119244.000000
2792 14031 1 0.16500 119244.000000
2793 12670 1 0.16500 119244.000000
2793 12999 1 0.16500 119244.000000
2794 12079 1 0.16500 119244.000000
2794 16620 1 0.16500 119244.000000
2795 12079 1 0.16500 119244.000000
2795 15522 1 0.16500 119244.000000
2796 12079 1 0.16500 119244.000000
2796 14973 1 0.16500 119244.000000
2797 14001 1 0.16500 119244.000000
2797 15522 1 0.16500 119244.000000
2798 12080 1 0.16500 119244.000000
2798 16230 1 0.16500 119244.000000
2799 12080 1 0.16500 119244.000000
2799 15851 1 0.16500 119244.000000
2800 12081 1 0.16500 119244.000000
2800 14305 1 0.16500 119244.000000
2801 12081 1 0.16500 119244.000000
2801 15025 1 0.16500 119244.000000
2802 12981 1 0.16500 119244.000000
2802 14305 1 0.16500 119244.000000
2803 12082 1 0.16500 119244.000000
2803 14535 1 0.16500 119244.000000
2804 12082 1 0.16500 119244.000000
2804 14844 1 0.16500 119244.000000
2805 12082 1 0.16500 119244.000000
2805 14505 1 0.16500 119244.000000
2806 12083 1 0.16500 119244.000000
2806 12764 1 0.16500 119244.000000
2807 12083 1 0.16500 119244.000000
2807 14258 1 0.16500 119244.000000
2808 12083 1 0.16500 119244.000000
2808 15768 1 0.16500 119244.000000
2809 12083 1 0.16500 119244.000000
2809 13091 1 0.16500 119244.000000
2810 12084 1 0.16500 119244.000000
2810 14134 1 0.16500 119244.000000
2811 12084 1 0.16500 119244.000000
2811 14344 1 0.16500 119244.000000
2812 12084 1 0.16500 119244.000000
2812 15500 1 0.16500 119244.000000
2813 12084 1 0.16500 119244.000000
2813 15069 1 0.16500 119244.000000
2814 12085 1 0.16500 119244.000000
2814 14887 1 0.16500 119244.000000
2815 13812 1 0.16500 119244.000000
2815 13872 1 0.16500 119244.000000
2816 12085 1 0.16500 119244.000000
2816 15947 1 0.16500 119244.000000
2817 11480 1 0.16500 119244.000000
2817 13812 1 0.16500 119244.000000
2818 12086 1 0.16500 119244.000000
2818 12355 1 0.16500 119244.000000
2819 12086 1 0.16500 119244.000000
2819 13956 1 0.16500 119244.000000
2820 12086 1 0.16500 119244.000000
2820 16085 1 0.16500 119244.000000
2821 12086 1 0.16500 119244.000000
2821 13607 1 0.16500 119244.000000
2822 12087 1 0.16500 119244.000000
2822 15934 1 0.16500 119244.000000
2823 12087 1 0.16500 119244.000000
2823 16605 1 0.16500 119244.000000
2824 12087 1 0.16500 119244.000000
2824 16158 1 0.16500 119244.000000
2825 12088 1 0.16500 119244.000000
2825 15648 1 0.16500 119244.000000
2826 12088 1 0.16500 119244.000000
2826 16513 1 0.16500 119244.000000
2827 12088 1 0.16500 119244.000000
2827 14384 1 0.16500 119244.000000
2828 12088 1 0.16500 119244.000000
2828 16475 1 0.16500 119244.000000
2829 12089 1 0.16500 119244.000000
2829 16290 1 0.16500 119244.000000
2830 12089 1 0.16500 119244.000000
2830 16114 1 0.16500 119244.000000
2831 12089 1 0.16500 119244.000000
2831 13985 1 0.16500 119244.000000
2832 12090 1 0.16500 119244.000000
2832 12259 1 0.16500 119244.000000
2833 12090 1 0.16500 119244.000000
2833 12635 1 0.16500 119244.000000
2834 12091 1 0.16500 119244.000000
2834 12118 1 0.16500 119244.000000
2835 12091 1 0.16500 119244.000000
2835 14640 1 0.16500 119244.000000
2836 12091 1 0.16500 119244.000000
2836 12519 1 0.16500 119244.000000
2837 12092 1 0.16500 119244.000000
2837 15465 1 0.16500 119244.000000
2838 12092 1 0.16500 119244.000000
2838 15621 1 0.16500 119244.000000
2839 12092 1 0.16500 119244.000000
2839 15447 1 0.16500 119244.000000
2840 12093 1 0.16500 119244.000000
2840 13001 1 0.16500 119244.000000
2841 12093 1 0.16500 119244.000000
2841 14714 1 0.16500 119244.000000
2842 12093 1 0.16500 119244.000000
2842 12991 1 0.16500 119244.000000
2843 12093 1 0.16500 119244.000000
2843 12601 1 0.16500 119244.000000
2844 12094 1 0.16500 119244.000000
2844 14172 1 0.16500 119244.000000
2845 12094 1 0.16500 119244.000000
2845 12319 1 0.16500 119244.000000
2846 12094 1 0.16500 119244.000000
2846 14652 1 0.16500 119244.000000
2847 12094 1 0.16500 119244.000000
2847 13534 1 0.16500 119244.000000
2848 12095 1 0.16500 119244.000000
2848 13906 1 0.16500 119244.000000
2849 12095 1 0.16500 119244.000000
2849 15242 1 0.16500 119244.000000
2850 12095 1 0.16500 119244.000000
2850 12290 1 0.16500 119244.000000
2851 12096 1 0.16500 119244.000000
2851 12845 1 0.16500 119244.000000
2852 12096 1 0.16500 119244.000000
2852 12783 1 0.16500 119244.000000
2853 12096 1 0.16500 119244.000000
2853 14139 1 0.16500 119244.000000
2854 12097 1 0.16500 119244.000000
2854 15958 1 0.16500 119244.000000
2855 12097 1 0.16500 119244.000000
2855 13856 1 0.16500 119244.000000
2856 12097 1 0.16500 119244.000000
2856 14142 1 0.16500 119244.000000
2857 12098 1 0.16500 119244.000000
2857 12329 1 0.16500 119244.000000
2858 12099 1 0.16500 119244.000000
2858 13702 1 0.16500 119244.000000
2859 12099 1 0.16500 119244.000000
2859 13473 1 0.16500 119244.000000
2860 12099 1 0.16500 119244.000000
2860 15365 1 0.16500 119244.000000
2861 13702 1 0.16500 119244.000000
2861 15252 1 0.16500 119244.000000
2862 12100 1 0.16500 119244.000000
2862 13667 1 0.16500 119244.000000
2863 12100 1 0.16500 119244.000000
2863 16394 1 0.16500 119244.000000
2864 12101 1 0.16500 119244.000000
2864 12603 1 0.16500 119244.000000
2865 12101 1 0.16500 119244.000000
2865 12684 1 0.16500 119244.000000
2866 12684 1 0.16500 119244.000000
2866 15560 1 0.16500 119244.000000
2867 12102 1 0.16500 119244.000000
2867 15267 1 0.16500 119244.000000
2868 12102 1 0.16500 119244.000000
2868 16317 1 0.16500 119244.000000
2869 12102 1 0.16500 119244.000000
2869 14398 1 0.16500 119244.000000
2870 12102 1 0.16500 119244.000000
2870 13456 1 0.16500 119244.000000
2871 12103 1 0.16500 119244.000000
2871 15810 1 0.16500 119244.000000
2872 12103 1 0.16500 119244.000000
2872 12901 1 0.16500 119244.000000
2873 12103 1 0.16500 119244.000000
2873 14244 1 0.16500 119244.000000
2874 12104 1 0.16500 119244.000000
2874 14163 1 0.16500 119244.000000
2875 12104 1 0.16500 119244.000000
2875 13670 1 0.16500 119244.000000
2876 12104 1 0.16500 119244.000000
2876 14294 1 0.16500 119244.000000
2877 12105 1 0.16500 119244.000000
2877 13833 1 0.16500 119244.000000
2878 12105 1 0.16500 119244.000000
2878 12171 1 0.16500 119244.000000
2879 12105 1 0.16500 119244.000000
2879 12576 1 0.16500 119244.000000
2880 12106 1 0.16500 119244.000000
2880 12199 1 0.16500 119244.000000
2881 12106 1 0.16500 119244.000000
2881 14387 1 0.16500 119244.000000
2882 12106 1 0.16500 119244.000000
2882 12948 1 0.16500 119244.000000
2883 12106 1 0.16500 119244.000000
2883 12735 1 0.16500 119244.000000
2884 12107 1 0.16500 119244.000000
2884 15686 1 0.16500 119244.000000
2885 12107 1 0.16500 119244.000000
2885 13502 1 0.16500 119244.000000
2886 12108 1 0.16500 119244.000000
2886 15620 1 0.16500 119244.000000
2887 12108 1 0.16500 119244.000000
2887 16580 1 0.16500 119244.000000
2888 12108 1 0.16500 119244.000000
2888 13943 1 0.16500 119244.000000
2889 12109 1 0.16500 119244.000000
2889 14552 1 0.16500 119244.000000
2890 12109 1 0.16500 119244.000000
2890 21724 1 0.16500 119244.000000
2891 12109 1 0.16500 119244.000000
2891 14759 1 0.16500 119244.000000
2892 12110 1 0.16500 119244.000000
2892 13217 1 0.16500 119244.000000
2893 12110 1 0.16500 119244.000000
2893 21913 1 0.16500 119244.000000
2894 12399 1 0.16500 119244.000000
2894 14607 1 0.16500 119244.000000
2895 12110 1 0.16500 119244.000000
2895 14607 1 0.16500 119244.000000
2896 12111 1 0.16500 119244.000000
2896 13101 1 0.16500 119244.000000
2897 12111 1 0.16500 119244.000000
2897 13137 1 0.16500 119244.000000
2898 12111 1 0.16500 119244.000000
2898 14998 1 0.16500 119244.000000
2899 12111 1 0.16500 119244.000000
2899 18502 1 0.16500 119244.000000
2900 12112 1 0.16500 119244.000000
2900 15059 1 0.16500 119244.000000
2901 12112 1 0.16500 119244.000000
2901 13522 1 0.16500 119244.000000
2902 12112 1 0.16500 119244.000000
2902 14883 1 0.16500 119244.000000
2903 12113 1 0.16500 119244.000000
2903 13058 1 0.16500 119244.000000
2904 12113 1 0.16500 119244.000000
2904 16110 1 0.16500 119244.000000
2905 12113 1 0.16500 119244.000000
2905 15683 1 0.16500 119244.000000
2906 12114 1 0.16500 119244.000000
2906 13794 1 0.16500 119244.000000
2907 13413 1 0.16500 119244.000000
2907 16168 1 0.16500 119244.000000
2908 12114 1 0.16500 119244.000000
2908 16168 1 0.16500 119244.000000
2909 12115 1 0.16500 119244.000000
2909 15138 1 0.16500 119244.000000
2910 12115 1 0.16500 119244.000000
2910 14410 1 0.16500 119244.000000
2911 12115 1 0.16500 119244.000000
2911 14422 1 0.16500 119244.000000
2912 12116 1 0.16500 119244.000000
2912 15096 1 0.16500 119244.000000
2913 12116 1 0.16500 119244.000000
2913 14953 1 0.16500 119244.000000
2914 12116 1 0.16500 119244.000000
2914 21931 1 0.16500 119244.000000
2915 12117 1 0.16500 119244.000000
2915 16160 1 0.16500 119244.000000
2916 12117 1 0.16500 119244.000000
2916 15695 1 0.16500 119244.000000
2917 12117 1 0.16500 119244.000000
2917 12595 1 0.16500 119244.000000
2918 12118 1 0.16500 119244.000000
2918 15078 1 0.16500 119244.000000
2919 12118 1 0.16500 119244.000000
2919 12238 1 0.16500 119244.000000
2920 12118 1 0.16500 119244.000000
2920 16581 1 0.16500 119244.000000
2921 16223 1 0.16500 119244.000000
2921 21304 1 0.16500 119244.000000
2922 14673 1 0.16500 119244.000000
2922 21304 1 0.16500 119244.000000
2923 12120 1 0.16500 119244.000000
2923 16609 1 0.16500 119244.000000
2924 12120 1 0.16500 119244.000000
2924 15655 1 0.16500 119244.000000
2925 12120 1 0.16500 119244.000000
2925 16405 1 0.16500 119244.000000
2926 12120 1 0.16500 119244.000000
2926 16080 1 0.16500 119244.000000
2927 12121 1 0.16500 119244.000000
2927 15833 1 0.16500 119244.000000
2928 12121 1 0.16500 119244.000000
2928 16376 1 0.16500 119244.000000
2929 12121 1 0.16500 119244.000000
2929 16183 1 0.16500 119244.000000
2930 12121 1 0.16500 119244.000000
2930 15602 1 0.16500 119244.000000
2931 12122 1 0.16500 119244.000000
2931 14135 1 0.16500 119244.000000
2932 12122 1 0.16500 119244.000000
2932 12980 1 0.16500 119244.000000
2933 12122 1 0.16500 119244.000000
2933 13668 1 0.16500 119244.000000
2934 12123 1 0.16500 119244.000000
2934 16435 1 0.16500 119244.000000
2935 12123 1 0.16500 119244.000000
2935 12175 1 0.16500 119244.000000
2936 12123 1 0.16500 119244.000000
2936 14168 1 0.16500 119244.000000
2937 12124 1 0.16500 119244.000000
2937 12774 1 0.16500 119244.000000
2938 12124 1 0.16500 119244.000000
2938 15042 1 0.16500 119244.000000
2939 12124 1 0.16500 119244.000000
2939 15019 1 0.16500 119244.000000
2940 12125 1 0.16500 119244.000000
2940 16442 1 0.16500 119244.000000
2941 12125 1 0.16500 119244.000000
2941 12446 1 0.16500 119244.000000
2942 11629 1 0.16500 119244.000000
2942 12125 1 0.16500 119244.000000
2943 12446 1 0.16500 119244.000000
2943 14143 1 0.16500 119244.000000
2944 13934 1 0.16500 119244.000000
2944 19474 1 0.16500 119244.000000
2945 14805 1 0.16500 119244.000000
2945 19474 1 0.16500 119244.000000
2946 16087 1 0.16500 119244.000000
2946 19474 1 0.16500 119244.000000
2947 12126 1 0.16500 119244.000000
2947 15576 1 0.16500 119244.000000
2948 12126 1 0.16500 119244.000000
2948 13330 1 0.16500 119244.000000
2949 12126 1 0.16500 119244.000000
2949 15738 1 0.16500 119244.000000
2950 12126 1 0.16500 119244.000000
2950 16336 1 0.16500 119244.000000
2951 16406 1 0.16500 119244.000000
2951 16495 1 0.16500 119244.000000
2952 16406 1 0.16500 119244.000000
2952 19846 1 0.16500 119244.000000
2953 12127 1 0.16500 119244.000000
2953 16406 1 0.16500 119244.000000
2954 14288 1 0.16500 119244.000000
2954 16406 1 0.16500 119244.000000
2955 12128 1 0.16500 119244.000000
2955 15009 1 0.16500 119244.000000
2956 12128 1 0.16500 119244.000000
2956 16303 1 0.16500 119244.000000
2957 12128 1 0.16500 119244.000000
2957 13903 1 0.16500 119244.000000
2958 12129 1 0.16500 119244.000000
2958 15248 1 0.16500 119244.000000
2959 12129 1 0.16500 119244.000000
2959 15633 1 0.16500 119244.000000
2960 12129 1 0.16500 119244.000000
2960 14637 1 0.16500 119244.000000
2961 12129 1 0.16500 119244.000000
2961 15926 1 0.16500 119244.000000
2962 12130 1 0.16500 119244.000000
2962 13260 1 0.16500 119244.000000
2963 12130 1 0.16500 119244.000000
2963 20134 1 0.16500 119244.000000
2964 12130 1 0.16500 119244.000000
2964 13143 1 0.16500 119244.000000
2965 12130 1 0.16500 119244.000000
2965 21796 1 0.16500 119244.000000
2966 12131 1 0.16500 119244.000000
2966 13705 1 0.16500 119244.000000
2967 12131 1 0.16500 119244.000000
2967 13181 1 0.16500 119244.000000
2968 12131 1 0.16500 119244.000000
2968 14569 1 0.16500 119244.000000
2969 12131 1 0.16500 119244.000000
2969 15849 1 0.16500 119244.000000
2970 12132 1 0.16500 119244.000000
2970 15763 1 0.16500 119244.000000
2971 12132 1 0.16500 119244.000000
2971 12666 1 0.16500 119244.000000
2972 12359 1 0.16500 119244.000000
2972 12666 1 0.16500 119244.000000
2973 12132 1 0.16500 119244.000000
2973 14050 1 0.16500 119244.000000
2974 12133 1 0.16500 119244.000000
2974 12372 1 0.16500 119244.000000
2975 12133 1 0.16500 119244.000000
2975 13305 1 0.16500 119244.000000
2976 12133 1 0.16500 119244.000000
2976 13685 1 0.16500 119244.000000
2977 12133 1 0.16500 119244.000000
2977 14420 1 0.16500 119244.000000
2978 12134 1 0.16500 119244.000000
2978 14476 1 0.16500 119244.000000
2979 12134 1 0.16500 119244.000000
2979 13074 1 0.16500 119244.000000
2980 12134 1 0.16500 119244.000000
2980 16471 1 0.16500 119244.000000
2981 12134 1 0.16500 119244.000000
2981 16409 1 0.16500 119244.000000
2982 12135 1 0.16500 119244.000000
2982 13847 1 0.16500 119244.000000
2983 12135 1 0.16500 119244.000000
2983 13107 1 0.16500 119244.000000
2984 12135 1 0.16500 119244.000000
2984 13352 1 0.16500 119244.000000
2985 12135 1 0.16500 119244.000000
2985 12777 1 0.16500 119244.000000
2986 14628 1 0.16500 119244.000000
2986 21106 1 0.16500 119244.000000
2987 15038 1 0.16500 119244.000000
2987 21106 1 0.16500 119244.000000
2988 14782 1 0.16500 119244.000000
2988 21106 1 0.16500 119244.000000
2989 12027 1 0.16500 119244.000000
2989 16499 1 0.16500 119244.000000
2990 12027 1 0.16500 119244.000000
2990 17260 1 0.16500 119244.000000
2991 21307 1 0.16500 119244.000000
2991 21661 1 0.16500 119244.000000
2992 15190 1 0.16500 119244.000000
2992 15740 1 0.16500 119244.000000
2993 12401 1 0.16500 119244.000000
2993 15740 1 0.16500 119244.000000
2994 12779 1 0.16500 119244.000000
2994 15740 1 0.16500 119244.000000
2995 15740 1 0.16500 119244.000000
2995 21310 1 0.16500 119244.000000
2996 12136 1 0.16500 119244.000000
2996 21766 1 0.16500 119244.000000
2997 12136 1 0.16500 119244.000000
2997 12758 1 0.16500 119244.000000
2998 12137 1 0.16500 119244.000000
2998 14956 1 0.16500 119244.000000
2999 12137 1 0.16500 119244.000000
2999 16506 1 0.16500 119244.000000
3000 12137 1 0.16500 119244.000000
3000 15187 1 0.16500 119244.000000
3001 12137 1 0.16500 119244.000000
3001 12662 1 0.16500 119244.000000
3002 12138 1 0.16500 119244.000000
3002 12296 1 0.16500 119244.000000
3003 12138 1 0.16500 119244.000000
3003 14811 1 0.16500 119244.000000
3004 12139 1 0.16500 119244.000000
3004 13848 1 0.16500 119244.000000
3005 12139 1 0.16500 119244.000000
3005 13013 1 0.16500 119244.000000
3006 12139 1 0.16500 119244.000000
3006 14203 1 0.16500 119244.000000
3007 12140 1 0.16500 119244.000000
3007 16231 1 0.16500 119244.000000
3008 13713 1 0.16500 119244.000000
3008 13892 1 0.16500 119244.000000
3009 12140 1 0.16500 119244.000000
3009 14461 1 0.16500 119244.000000
3010 12140 1 0.16500 119244.000000
3010 13892 1 0.16500 119244.000000
3011 12141 1 0.16500 119244.000000
3011 16610 1 0.16500 119244.000000
3012 12141 1 0.16500 119244.000000
3012 13375 1 0.16500 119244.000000
3013 12141 1 0.16500 119244.000000
3013 16590 1 0.16500 119244.000000
3014 12141 1 0.16500 119244.000000
3014 15931 1 0.16500 119244.000000
3015 12142 1 0.16500 119244.000000
3015 12687 1 0.16500 119244.000000
3016 12142 1 0.16500 119244.000000
3016 16533 1 0.16500 119244.000000
3017 12142 1 0.16500 119244.000000
3017 14336 1 0.16500 119244.000000
3018 12143 1 0.16500 119244.000000
3018 14413 1 0.16500 119244.000000
3019 12143 1 0.16500 119244.000000
3019 14963 1 0.16500 119244.000000
3020 12143 1 0.16500 119244.000000
3020 14232 1 0.16500 119244.000000
3021 12143 1 0.16500 119244.000000
3021 16076 1 0.16500 119244.000000
3022 12144 1 0.16500 119244.000000
3022 14128 1 0.16500 119244.000000
3023 12144 1 0.16500 119244.000000
3023 12256 1 0.16500 119244.000000
3024 12144 1 0.16500 119244.000000
3024 15329 1 0.16500 119244.000000
3025 12145 1 0.16500 119244.000000
3025 13912 1 0.16500 119244.000000
3026 12145 1 0.16500 119244.000000
3026 12439 1 0.16500 119244.000000
3027 12145 1 0.16500 119244.000000
3027 16412 1 0.16500 119244.000000
3028 12145 1 0.16500 119244.000000
3028 13904 1 0.16500 119244.000000
3029 12146 1 0.16500 119244.000000
3029 15847 1 0.16500 119244.000000
3030 12146 1 0.16500 119244.000000
3030 15586 1 0.16500 119244.000000
3031 12146 1 0.16500 119244.000000
3031 12594 1 0.16500 119244.000000
3032 12146 1 0.16500 119244.000000
3032 12322 1 0.16500 119244.000000
3033 12147 1 0.16500 119244.000000
3033 16009 1 0.16500 119244.000000
3034 12147 1 0.16500 119244.000000
3034 12836 1 0.16500 119244.000000
3035 12147 1 0.16500 119244.000000
3035 21046 1 0.16500 119244.000000
3036 12148 1 0.16500 119244.000000
3036 15618 1 0.16500 119244.000000
3037 12148 1 0.16500 119244.000000
3037 12864 1 0.16500 119244.000000
3038 12148 1 0.16500 119244.000000
3038 12240 1 0.16500 119244.000000
3039 12149 1 0.16500 119244.000000
3039 17134 1 0.16500 119244.000000
3040 12149 1 0.16500 119244.000000
3040 14910 1 0.16500 119244.000000
3041 12149 1 0.16500 119244.000000
3041 15852 1 0.16500 119244.000000
3042 12150 1 0.16500 119244.000000
3042 14566 1 0.16500 119244.000000
3043 12151 1 0.16500 119244.000000
3043 15893 1 0.16500 119244.000000
3044 12151 1 0.16500 119244.000000
3044 15118 1 0.16500 119244.000000
3045 12151 1 0.16500 119244.000000
3045 12964 1 0.16500 119244.000000
3046 15274 1 0.16500 119244.000000
3046 15893 1 0.16500 119244.000000
3047 12152 1 0.16500 119244.000000
3047 16527 1 0.16500 119244.000000
3048 12152 1 0.16500 119244.000000
3048 16565 1 0.16500 119244.000000
3049 12153 1 0.16500 119244.000000
3049 14258 1 0.16500 119244.000000
3050 12153 1 0.16500 119244.000000
3050 15767 1 0.16500 119244.000000
3051 12153 1 0.16500 119244.000000
3051 13023 1 0.16500 119244.000000
3052 12153 1 0.16500 119244.000000
3052 16291 1 0.16500 119244.000000
3053 12154 1 0.16500 119244.000000
3053 15629 1 0.16500 119244.000000
3054 11413 1 0.16500 119244.000000
3054 12154 1 0.16500 119244.000000
3055 12154 1 0.16500 119244.000000
3055 15126 1 0.16500 119244.000000
3056 11786 1 0.16500 119244.000000
3056 12912 1 0.16500 119244.000000
3057 11649 1 0.16500 119244.000000
3057 15201 1 0.16500 119244.000000
3058 12156 1 0.16500 119244.000000
3058 14303 1 0.16500 119244.000000
3059 12156 1 0.16500 119244.000000
3059 16131 1 0.16500 119244.000000
3060 12156 1 0.16500 119244.000000
3060 15862 1 0.16500 119244.000000
3061 12157 1 0.16500 119244.000000
3061 13268 1 0.16500 119244.000000
3062 12157 1 0.16500 119244.000000
3062 16432 1 0.16500 119244.000000
3063 12158 1 0.16500 119244.000000
3063 12376 1 0.16500 119244.000000
3064 12158 1 0.16500 119244.000000
3064 13876 1 0.16500 119244.000000
3065 12158 1 0.16500 119244.000000
3065 13715 1 0.16500 119244.000000
3066 12158 1 0.16500 119244.000000
3066 16331 1 0.16500 119244.000000
3067 12159 1 0.16500 119244.000000
3067 14204 1 0.16500 119244.000000
3068 12159 1 0.16500 119244.000000
3068 14646 1 0.16500 119244.000000
3069 12159 1 0.16500 119244.000000
3069 16581 1 0.16500 119244.000000
3070 12160 1 0.16500 119244.000000
3070 14492 1 0.16500 119244.000000
3071 12160 1 0.16500 119244.000000
3071 21790 1 0.16500 119244.000000
3072 12160 1 0.16500 119244.000000
3072 21730 1 0.16500 119244.000000
3073 12160 1 0.16500 119244.000000
3073 16394 1 0.16500 119244.000000
3074 12161 1 0.16500 119244.000000
3074 12997 1 0.16500 119244.000000
3075 12161 1 0.16500 119244.000000
3075 15945 1 0.16500 119244.000000
3076 12161 1 0.16500 119244.000000
3076 14066 1 0.16500 119244.000000
3077 12162 1 0.16500 119244.000000
3077 13503 1 0.16500 119244.000000
3078 12162 1 0.16500 119244.000000
3078 16179 1 0.16500 119244.000000
3079 12162 1 0.16500 119244.000000
3079 15557 1 0.16500 119244.000000
3080 12163 1 0.16500 119244.000000
3080 16023 1 0.16500 119244.000000
3081 12163 1 0.16500 119244.000000
3081 16472 1 0.16500 119244.000000
3082 12164 1 0.16500 119244.000000
3082 16192 1 0.16500 119244.000000
3083 12164 1 0.16500 119244.000000
3083 16293 1 0.16500 119244.000000
3084 13515 1 0.16500 119244.000000
3084 14811 1 0.16500 119244.000000
3085 12165 1 0.16500 119244.000000
3085 16018 1 0.16500 119244.000000
3086 12165 1 0.16500 119244.000000
3086 13515 1 0.16500 119244.000000
3087 12166 1 0.16500 119244.000000
3087 13643 1 0.16500 119244.000000
3088 12166 1 0.16500 119244.000000
3088 12537 1 0.16500 119244.000000
3089 12166 1 0.16500 119244.000000
3089 14674 1 0.16500 119244.000000
3090 12167 1 0.16500 119244.000000
3090 13177 1 0.16500 119244.000000
3091 12167 1 0.16500 119244.000000
3091 12944 1 0.16500 119244.000000
3092 12167 1 0.16500 119244.000000
3092 14129 1 0.16500 119244.000000
3093 12167 1 0.16500 119244.000000
3093 12207 1 0.16500 119244.000000
3094 12168 1 0.16500 119244.000000
3094 14727 1 0.16500 119244.000000
3095 12168 1 0.16500 119244.000000
3095 12782 1 0.16500 119244.000000
3096 12168 1 0.16500 119244.000000
3096 14828 1 0.16500 119244.000000
3097 12169 1 0.16500 119244.000000
3097 13708 1 0.16500 119244.000000
3098 12169 1 0.16500 119244.000000
3098 13799 1 0.16500 119244.000000
3099 12169 1 0.16500 119244.000000
3099 15806 1 0.16500 119244.000000
3100 12170 1 0.16500 119244.000000
3100 16058 1 0.16500 119244.000000
3101 12170 1 0.16500 119244.000000
3101 14466 1 0.16500 119244.000000
3102 12171 1 0.16500 119244.000000
3102 14487 1 0.16500 119244.000000
3103 12171 1 0.16500 119244.000000
3103 12947 1 0.16500 119244.000000
3104 12172 1 0.16500 119244.000000
3104 14730 1 0.16500 119244.000000
3105 12172 1 0.16500 119244.000000
3105 20782 1 0.16500 119244.000000
3106 12172 1 0.16500 119244.000000
3106 18814 1 0.16500 119244.000000
3107 15383 1 0.16500 119244.000000
3107 16237 1 0.16500 119244.000000
3108 12507 1 0.16500 119244.000000
3108 15383 1 0.16500 119244.000000
3109 16882 1 0.16500 119244.000000
3109 21316 1 0.16500 119244.000000
3110 12173 1 0.16500 119244.000000
3110 16379 1 0.16500 119244.000000
3111 12173 1 0.16500 119244.000000
3111 13473 1 0.16500 119244.000000
3112 12173 1 0.16500 119244.000000
3112 14248 1 0.16500 119244.000000
3113 12174 1 0.16500 119244.000000
3113 14161 1 0.16500 119244.000000
3114 12174 1 0.16500 119244.000000
3114 16502 1 0.16500 119244.000000
3115 12174 1 0.16500 119244.000000
3115 12879 1 0.16500 119244.000000
3116 12174 1 0.16500 119244.000000
3116 16424 1 0.16500 119244.000000
3117 12175 1 0.16500 119244.000000
3117 13176 1 0.16500 119244.000000
3118 12175 1 0.16500 119244.000000
3118 14164 1 0.16500 119244.000000
3119 21319 1 0.16500 119244.000000
3119 21688 1 0.16500 119244.000000
3120 14824 1 0.16500 119244.000000
3120 21319 1 0.16500 119244.000000
3121 15385 1 0.16500 119244.000000
3121 21319 1 0.16500 119244.000000
3122 12176 1 0.16500 119244.000000
3122 14797 1 0.16500 119244.000000
3123 12176 1 0.16500 119244.000000
3123 14939 1 0.16500 119244.000000
3124 12176 1 0.16500 119244.000000
3124 15305 1 0.16500 119244.000000
3125 12176 1 0.16500 119244.000000
3125 15404 1 0.16500 119244.000000
3126 12177 1 0.16500 119244.000000
3126 14576 1 0.16500 119244.000000
3127 12177 1 0.16500 119244.000000
3127 15662 1 0.16500 119244.000000
3128 12177 1 0.16500 119244.000000
3128 16437 1 0.16500 119244.000000
3129 12177 1 0.16500 119244.000000
3129 16519 1 0.16500 119244.000000
3130 12178 1 0.16500 119244.000000
3130 14495 1 0.16500 119244.000000
3131 12178 1 0.16500 119244.000000
3131 13568 1 0.16500 119244.000000
3132 12178 1 0.16500 119244.000000
3132 12256 1 0.16500 119244.000000
3133 14058 1 0.16500 119244.000000
3133 20770 1 0.16500 119244.000000
3134 12179 1 0.16500 119244.000000
3134 14058 1 0.16500 119244.000000
3135 14058 1 0.16500 119244.000000
3135 15139 1 0.16500 119244.000000
3136 12179 1 0.16500 119244.000000
3136 15572 1 0.16500 119244.000000
3137 12180 1 0.16500 119244.000000
3137 15957 1 0.16500 119244.000000
3138 12180 1 0.16500 119244.000000
3138 15177 1 0.16500 119244.000000
3139 12180 1 0.16500 119244.000000
3139 13491 1 0.16500 119244.000000
3140 12181 1 0.16500 119244.000000
3140 16161 1 0.16500 119244.000000
3141 12181 1 0.16500 119244.000000
3141 15360 1 0.16500 119244.000000
3142 12181 1 0.16500 119244.000000
3142 13095 1 0.16500 119244.000000
3143 12181 1 0.16500 119244.000000
3143 13918 1 0.16500 119244.000000
3144 12182 1 0.16500 119244.000000
3144 14067 1 0.16500 119244.000000
3145 12182 1 0.16500 119244.000000
3145 14823 1 0.16500 119244.000000
3146 12182 1 0.16500 119244.000000
3146 13348 1 0.16500 119244.000000
3147 15657 1 0.16500 119244.000000
3147 21322 1 0.16500 119244.000000
3148 17988 1 0.16500 119244.000000
3148 18586 1 0.16500 119244.000000
3149 15861 1 0.16500 119244.000000
3149 17988 1 0.16500 119244.000000
3150 12183 1 0.16500 119244.000000
3150 13903 1 0.16500 119244.000000
3151 12183 1 0.16500 119244.000000
3151 13338 1 0.16500 119244.000000
3152 12183 1 0.16500 119244.000000
3152 12229 1 0.16500 119244.000000
3153 12183 1 0.16500 119244.000000
3153 13017 1 0.16500 119244.000000
3154 12184 1 0.16500 119244.000000
3154 15634 1 0.16500 119244.000000
3155 12184 1 0.16500 119244.000000
3155 16120 1 0.16500 119244.000000
3156 12184 1 0.16500 119244.000000
3156 13258 1 0.16500 119244.000000
3157 12185 1 0.16500 119244.000000
3157 13866 1 0.16500 119244.000000
3158 12185 1 0.16500 119244.000000
3158 15811 1 0.16500 119244.000000
3159 12185 1 0.16500 119244.000000
3159 16135 1 0.16500 119244.000000
3160 12185 1 0.16500 119244.000000
3160 15061 1 0.16500 119244.000000
3161 16579 1 0.16500 119244.000000
3161 16882 1 0.16500 119244.000000
3162 12186 1 0.16500 119244.000000
3162 16380 1 0.16500 119244.000000
3163 12186 1 0.16500 119244.000000
3163 15014 1 0.16500 119244.000000
3164 12186 1 0.16500 119244.000000
3164 12516 1 0.16500 119244.000000
3165 12187 1 0.16500 119244.000000
3165 13823 1 0.16500 119244.000000
3166 12187 1 0.16500 119244.000000
3166 13792 1 0.16500 119244.000000
3167 12187 1 0.16500 119244.000000
3167 12223 1 0.16500 119244.000000
3168 12187 1 0.16500 119244.000000
3168 12467 1 0.16500 119244.000000
3169 12188 1 0.16500 119244.000000
3169 14757 1 0.16500 119244.000000
3170 12188 1 0.16500 119244.000000
3170 14970 1 0.16500 119244.000000
3171 12188 1 0.16500 119244.000000
3171 12976 1 0.16500 119244.000000
3172 12188 1 0.16500 119244.000000
3172 12986 1 0.16500 119244.000000
3173 12189 1 0.16500 119244.000000
3173 13667 1 0.16500 119244.000000
3174 12189 1 0.16500 119244.000000
3174 14301 1 0.16500 119244.000000
3175 12189 1 0.16500 119244.000000
3175 12965 1 0.16500 119244.000000
3176 12189 1 0.16500 119244.000000
3176 12896 1 0.16500 119244.000000
3177 12190 1 0.16500 119244.000000
3177 13494 1 0.16500 119244.000000
3178 12190 1 0.16500 119244.000000
3178 14917 1 0.16500 119244.000000
3179 12190 1 0.16500 119244.000000
3179 13861 1 0.16500 119244.000000
3180 12190 1 0.16500 119244.000000
3180 12771 1 0.16500 119244.000000
3181 12191 1 0.16500 119244.000000
3181 13378 1 0.16500 119244.000000
3182 12191 1 0.16500 119244.000000
3182 13571 1 0.16500 119244.000000
3183 12191 1 0.16500 119244.000000
3183 15439 1 0.16500 119244.000000
3184 16980 1 0.16500 119244.000000
3184 21175 1 0.16500 119244.000000
3185 12192 1 0.16500 119244.000000
3185 16284 1 0.16500 119244.000000
3186 12192 1 0.16500 119244.000000
3186 12918 1 0.16500 119244.000000
3187 12192 1 0.16500 119244.000000
3187 14425 1 0.16500 119244.000000
3188 14674 1 0.16500 119244.000000
3188 21325 1 0.16500 119244.000000
3189 19762 1 0.16500 119244.000000
3189 21325 1 0.16500 119244.000000
3190 12193 1 0.16500 119244.000000
3190 14309 1 0.16500 119244.000000
3191 12193 1 0.16500 119244.000000
3191 13776 1 0.16500 119244.000000
3192 12193 1 0.16500 119244.000000
3192 15914 1 0.16500 119244.000000
3193 12193 1 0.16500 119244.000000
3193 12445 1 0.16500 119244.000000
3194 12194 1 0.16500 119244.000000
3194 16181 1 0.16500 119244.000000
3195 12194 1 0.16500 119244.000000
3195 19654 1 0.16500 119244.000000
3196 12365 1 0.16500 119244.000000
3196 16181 1 0.16500 119244.000000
3197 12194 1 0.16500 119244.000000
3197 13983 1 0.16500 119244.000000
3198 12195 1 0.16500 119244.000000
3198 16418 1 0.16500 119244.000000
3199 12195 1 0.16500 119244.000000
3199 13367 1 0.16500 119244.000000
3200 12195 1 0.16500 119244.000000
3200 13552 1 0.16500 119244.000000
3201 12195 1 0.16500 119244.000000
3201 16620 1 0.16500 119244.000000
3202 12196 1 0.16500 119244.000000
3202 13826 1 0.16500 119244.000000
3203 12196 1 0.16500 119244.000000
3203 13491 1 0.16500 119244.000000
3204 12196 1 0.16500 119244.000000
3204 14954 1 0.16500 119244.000000
3205 12196 1 0.16500 119244.000000
3205 14376 1 0.16500 119244.000000
3206 12197 1 0.16500 119244.000000
3206 15947 1 0.16500 119244.000000
3207 12197 1 0.16500 119244.000000
3207 18100 1 0.16500 119244.000000
3208 12197 1 0.16500 119244.000000
3208 14120 1 0.16500 119244.000000
3209 12198 1 0.16500 119244.000000
3209 15147 1 0.16500 119244.000000
3210 12198 1 0.16500 119244.000000
3210 14226 1 0.16500 119244.000000
3211 12198 1 0.16500 119244.000000
3211 15805 1 0.16500 119244.000000
3212 12198 1 0.16500 119244.000000
3212 15165 1 0.16500 119244.000000
3213 12199 1 0.16500 119244.000000
3213 12250 1 0.16500 119244.000000
3214 12279 1 0.16500 119244.000000
3214 14946 1 0.16500 119244.000000
3215 12199 1 0.16500 119244.000000
3215 12279 1 0.16500 119244.000000
3216 12200 1 0.16500 119244.000000
3216 13025 1 0.16500 119244.000000
3217 12200 1 0.16500 119244.000000
3217 12213 1 0.16500 119244.000000
3218 12200 1 0.16500 119244.000000
3218 14593 1 0.16500 119244.000000
3219 12201 1 0.16500 119244.000000
3219 21388 1 0.16500 119244.000000
3220 12201 1 0.16500 119244.000000
3220 14468 1 0.16500 119244.000000
3221 12201 1 0.16500 119244.000000
3221 21910 1 0.16500 119244.000000
3222 12201 1 0.16500 119244.000000
3222 12213 1 0.16500 119244.000000
3223 16672 1 0.16500 119244.000000
3223 20722 1 0.16500 119244.000000
3224 15978 1 0.16500 119244.000000
3224 16672 1 0.16500 119244.000000
3225 12202 1 0.16500 119244.000000
3225 16282 1 0.16500 119244.000000
3226 12202 1 0.16500 119244.000000
3226 14132 1 0.16500 119244.000000
3227 12202 1 0.16500 119244.000000
3227 13199 1 0.16500 119244.000000
3228 12202 1 0.16500 119244.000000
3228 13546 1 0.16500 119244.000000
3229 12203 1 0.16500 119244.000000
3229 15475 1 0.16500 119244.000000
3230 12203 1 0.16500 119244.000000
3230 13580 1 0.16500 119244.000000
3231 12203 1 0.16500 119244.000000
3231 12586 1 0.16500 119244.000000
3232 12203 1 0.16500 119244.000000
3232 12474 1 0.16500 119244.000000
3233 12204 1 0.16500 119244.000000
3233 13026 1 0.16500 119244.000000
3234 11715 1 0.16500 119244.000000
3234 12485 1 0.16500 119244.000000
3235 11715 1 0.16500 119244.000000
3235 13897 1 0.16500 119244.000000
3236 12205 1 0.16500 119244.000000
3236 13123 1 0.16500 119244.000000
3237 12205 1 0.16500 119244.000000
3237 15170 1 0.16500 119244.000000
3238 12205 1 0.16500 119244.000000
3238 16624 1 0.16500 119244.000000
3239 12205 1 0.16500 119244.000000
3239 13203 1 0.16500 119244.000000
3240 12206 1 0.16500 119244.000000
3240 13888 1 0.16500 119244.000000
3241 12206 1 0.16500 119244.000000
3241 15046 1 0.16500 119244.000000
3242 12206 1 0.16500 119244.000000
3242 15996 1 0.16500 119244.000000
3243 12207 1 0.16500 119244.000000
3243 15579 1 0.16500 119244.000000
3244 12207 1 0.16500 119244.000000
3244 13460 1 0.16500 119244.000000
3245 12207 1 0.16500 119244.000000
3245 12863 1 0.16500 119244.000000
3246 12208 1 0.16500 119244.000000
3246 12986 1 0.16500 119244.000000
3247 12208 1 0.16500 119244.000000
3247 13643 1 0.16500 119244.000000
3248 12208 1 0.16500 119244.000000
3248 21325 1 0.16500 119244.000000
3249 12208 1 0.16500 119244.000000
3249 12408 1 0.16500 119244.000000
3250 12209 1 0.16500 119244.000000
3250 12390 1 0.16500 119244.000000
3251 12209 1 0.16500 119244.000000
3251 14256 1 0.16500 119244.000000
3252 12209 1 0.16500 119244.000000
3252 13835 1 0.16500 119244.000000
3253 12210 1 0.16500 119244.000000
3253 12958 1 0.16500 119244.000000
3254 12210 1 0.16500 119244.000000
3254 15761 1 0.16500 119244.000000
3255 12210 1 0.16500 119244.000000
3255 13034 1 0.16500 119244.000000
3256 12211 1 0.16500 119244.000000
3256 16246 1 0.16500 119244.000000
3257 12211 1 0.16500 119244.000000
3257 14233 1 0.16500 119244.000000
3258 12211 1 0.16500 119244.000000
3258 15505 1 0.16500 119244.000000
3259 12211 1 0.16500 119244.000000
3259 12318 1 0.16500 119244.000000
3260 12212 1 0.16500 119244.000000
3260 13797 1 0.16500 119244.000000
3261 12212 1 0.16500 119244.000000
3261 13706 1 0.16500 119244.000000
3262 12212 1 0.16500 119244.000000
3262 13580 1 0.16500 119244.000000
3263 12212 1 0.16500 119244.000000
3263 13909 1 0.16500 119244.000000
3264 12213 1 0.16500 119244.000000
3264 14179 1 0.16500 119244.000000
3265 12214 1 0.16500 119244.000000
3265 13095 1 0.16500 119244.000000
3266 12214 1 0.16500 119244.000000
3266 12575 1 0.16500 119244.000000
3267 12214 1 0.16500 119244.000000
3267 12975 1 0.16500 119244.000000
3268 12214 1 0.16500 119244.000000
3268 13420 1 0.16500 119244.000000
3269 12215 1 0.16500 119244.000000
3269 15608 1 0.16500 119244.000000
3270 12215 1 0.16500 119244.000000
3270 13625 1 0.16500 119244.000000
3271 12215 1 0.16500 119244.000000
3271 12566 1 0.16500 119244.000000
3272 12215 1 0.16500 119244.000000
3272 14480 1 0.16500 119244.000000
3273 12216 1 0.16500 119244.000000
3273 13367 1 0.16500 119244.000000
3274 12216 1 0.16500 119244.000000
3274 12327 1 0.16500 119244.000000
3275 12216 1 0.16500 119244.000000
3275 16594 1 0.16500 119244.000000
3276 12216 1 0.16500 119244.000000
3276 15726 1 0.16500 119244.000000
3277 12217 1 0.16500 119244.000000
3277 15471 1 0.16500 119244.000000
3278 12217 1 0.16500 119244.000000
3278 14954 1 0.16500 119244.000000
3279 12218 1 0.16500 119244.000000
3279 12407 1 0.16500 119244.000000
3280 12218 1 0.16500 119244.000000
3280 15390 1 0.16500 119244.000000
3281 12218 1 0.16500 119244.000000
3281 13546 1 0.16500 119244.000000
3282 12219 1 0.16500 119244.000000
3282 16516 1 0.16500 119244.000000
3283 12219 1 0.16500 119244.000000
3283 16605 1 0.16500 119244.000000
3284 12482 1 0.16500 119244.000000
3284 17120 1 0.16500 119244.000000
3285 14882 1 0.16500 119244.000000
3285 17120 1 0.16500 119244.000000
3286 12220 1 0.16500 119244.000000
3286 13155 1 0.16500 119244.000000
3287 12220 1 0.16500 119244.000000
3287 15770 1 0.16500 119244.000000
3288 12221 1 0.16500 119244.000000
3288 13585 1 0.16500 119244.000000
3289 12221 1 0.16500 119244.000000
3289 13360 1 0.16500 119244.000000
3290 12221 1 0.16500 119244.000000
3290 13210 1 0.16500 119244.000000
3291 12905 1 0.16500 119244.000000
3291 13489 1 0.16500 119244.000000
3292 12222 1 0.16500 119244.000000
3292 13468 1 0.16500 119244.000000
3293 12222 1 0.16500 119244.000000
3293 12905 1 0.16500 119244.000000
3294 12222 1 0.16500 119244.000000
3294 13334 1 0.16500 119244.000000
3295 12223 1 0.16500 119244.000000
3295 13513 1 0.16500 119244.000000
3296 12223 1 0.16500 119244.000000
3296 14940 1 0.16500 119244.000000
3297 12223 1 0.16500 119244.000000
3297 13978 1 0.16500 119244.000000
3298 13224 1 0.16500 119244.000000
3298 13806 1 0.16500 119244.000000
3299 12224 1 0.16500 119244.000000
3299 12716 1 0.16500 119244.000000
3300 12224 1 0.16500 119244.000000
3300 13224 1 0.16500 119244.000000
3301 12224 1 0.16500 119244.000000
3301 12850 1 0.16500 119244.000000
3302 20038 1 0.16500 119244.000000
3302 21328 1 0.16500 119244.000000
3303 18184 1 0.16500 119244.000000
3303 21328 1 0.16500 119244.000000
3304 15417 1 0.16500 119244.000000
3304 21328 1 0.16500 119244.000000
3305 12225 1 0.16500 119244.000000
3305 15375 1 0.16500 119244.000000
3306 12225 1 0.16500 119244.000000
3306 14250 1 0.16500 119244.000000
3307 12225 1 0.16500 119244.000000
3307 15109 1 0.16500 119244.000000
3308 12225 1 0.16500 119244.000000
3308 12434 1 0.16500 119244.000000
3309 12049 1 0.16500 119244.000000
3309 12226 1 0.16500 119244.000000
3310 12226 1 0.16500 119244.000000
3310 12733 1 0.16500 119244.000000
3311 12226 1 0.16500 119244.000000
3311 13688 1 0.16500 119244.000000
3312 12226 1 0.16500 119244.000000
3312 16196 1 0.16500 119244.000000
3313 12227 1 0.16500 119244.000000
3313 15891 1 0.16500 119244.000000
3314 12227 1 0.16500 119244.000000
3314 16014 1 0.16500 119244.000000
3315 12227 1 0.16500 119244.000000
3315 12352 1 0.16500 119244.000000
3316 12227 1 0.16500 119244.000000
3316 16197 1 0.16500 119244.000000
3317 12228 1 0.16500 119244.000000
3317 14339 1 0.16500 119244.000000
3318 12228 1 0.16500 119244.000000
3318 15922 1 0.16500 119244.000000
3319 12228 1 0.16500 119244.000000
3319 14430 1 0.16500 119244.000000
3320 12229 1 0.16500 119244.000000
3320 15598 1 0.16500 119244.000000
3321 12229 1 0.16500 119244.000000
3321 16184 1 0.16500 119244.000000
3322 12229 1 0.16500 119244.000000
3322 13651 1 0.16500 119244.000000
3323 12230 1 0.16500 119244.000000
3323 14735 1 0.16500 119244.000000
3324 12230 1 0.16500 119244.000000
3324 13115 1 0.16500 119244.000000
3325 12231 1 0.16500 119244.000000
3325 13387 1 0.16500 119244.000000
3326 12231 1 0.16500 119244.000000
3326 14381 1 0.16500 119244.000000
3327 12231 1 0.16500 119244.000000
3327 13548 1 0.16500 119244.000000
3328 13098 1 0.16500 119244.000000
3328 14381 1 0.16500 119244.000000
3329 12232 1 0.16500 119244.000000
3329 13670 1 0.16500 119244.000000
3330 12232 1 0.16500 119244.000000
3330 13380 1 0.16500 119244.000000
3331 12232 1 0.16500 119244.000000
3331 12830 1 0.16500 119244.000000
3332 12232 1 0.16500 119244.000000
3332 14456 1 0.16500 119244.000000
3333 12233 1 0.16500 119244.000000
3333 19390 1 0.16500 119244.000000
3334 12233 1 0.16500 119244.000000
3334 14053 1 0.16500 119244.000000
3335 12233 1 0.16500 119244.000000
3335 14016 1 0.16500 119244.000000
3336 12234 1 0.16500 119244.000000
3336 15422 1 0.16500 119244.000000
3337 12234 1 0.16500 119244.000000
3337 12668 1 0.16500 119244.000000
3338 15628 1 0.16500 119244.000000
3338 21331 1 0.16500 119244.000000
3339 15999 1 0.16500 119244.000000
3339 21331 1 0.16500 119244.000000
3340 12235 1 0.16500 119244.000000
3340 13613 1 0.16500 119244.000000
3341 12235 1 0.16500 119244.000000
3341 13221 1 0.16500 119244.000000
3342 12235 1 0.16500 119244.000000
3342 13324 1 0.16500 119244.000000
3343 12235 1 0.16500 119244.000000
3343 15833 1 0.16500 119244.000000
3344 12236 1 0.16500 119244.000000
3344 13778 1 0.16500 119244.000000
3345 12236 1 0.16500 119244.000000
3345 18442 1 0.16500 119244.000000
3346 12236 1 0.16500 119244.000000
3346 12600 1 0.16500 119244.000000
3347 12236 1 0.16500 119244.000000
3347 21874 1 0.16500 119244.000000
3348 12237 1 0.16500 119244.000000
3348 14747 1 0.16500 119244.000000
3349 12237 1 0.16500 119244.000000
3349 14495 1 0.16500 119244.000000
3350 12237 1 0.16500 119244.000000
3350 12565 1 0.16500 119244.000000
3351 13815 1 0.16500 119244.000000
3351 21334 1 0.16500 119244.000000
3352 15213 1 0.16500 119244.000000
3352 21334 1 0.16500 119244.000000
3353 19774 1 0.16500 119244.000000
3353 21334 1 0.16500 119244.000000
3354 12238 1 0.16500 119244.000000
3354 14605 1 0.16500 119244.000000
3355 12238 1 0.16500 119244.000000
3355 16193 1 0.16500 119244.000000
3356 12238 1 0.16500 119244.000000
3356 14646 1 0.16500 119244.000000
3357 14050 1 0.16500 119244.000000
3357 16616 1 0.16500 119244.000000
3358 12239 1 0.16500 119244.000000
3358 18922 1 0.16500 119244.000000
3359 12239 1 0.16500 119244.000000
3359 14050 1 0.16500 119244.000000
3360 12239 1 0.16500 119244.000000
3360 12453 1 0.16500 119244.000000
3361 12240 1 0.16500 119244.000000
3361 14548 1 0.16500 119244.000000
3362 12240 1 0.16500 119244.000000
3362 16324 1 0.16500 119244.000000
3363 12240 1 0.16500 119244.000000
3363 13028 1 0.16500 119244.000000
3364 12241 1 0.16500 119244.000000
3364 12485 1 0.16500 119244.000000
3365 12241 1 0.16500 119244.000000
3365 18184 1 0.16500 119244.000000
3366 13520 1 0.16500 119244.000000
3366 16417 1 0.16500 119244.000000
3367 12241 1 0.16500 119244.000000
3367 13520 1 0.16500 119244.000000
3368 12242 1 0.16500 119244.000000
3368 13159 1 0.16500 119244.000000
3369 12242 1 0.16500 119244.000000
3369 13170 1 0.16500 119244.000000
3370 12242 1 0.16500 119244.000000
3370 15771 1 0.16500 119244.000000
3371 13373 1 0.16500 119244.000000
3371 21337 1 0.16500 119244.000000
3372 12243 1 0.16500 119244.000000
3372 13521 1 0.16500 119244.000000
3373 12243 1 0.16500 119244.000000
3373 13149 1 0.16500 119244.000000
3374 12243 1 0.16500 119244.000000
3374 12259 1 0.16500 119244.000000
3375 12243 1 0.16500 119244.000000
3375 15398 1 0.16500 119244.000000
3376 14596 1 0.16500 119244.000000
3376 18694 1 0.16500 119244.000000
3377 15363 1 0.16500 119244.000000
3377 18694 1 0.16500 119244.000000
3378 15322 1 0.16500 119244.000000
3378 18694 1 0.16500 119244.000000
3379 13358 1 0.16500 119244.000000
3379 18072 1 0.16500 119244.000000
3380 15458 1 0.16500 119244.000000
3380 18072 1 0.16500 119244.000000
3381 12244 1 0.16500 119244.000000
3381 14773 1 0.16500 119244.000000
3382 12244 1 0.16500 119244.000000
3382 14658 1 0.16500 119244.000000
3383 12244 1 0.16500 119244.000000
3383 12728 1 0.16500 119244.000000
3384 12244 1 0.16500 119244.000000
3384 14022 1 0.16500 119244.000000
3385 14965 1 0.16500 119244.000000
3385 19858 1 0.16500 119244.000000
3386 12779 1 0.16500 119244.000000
3386 19858 1 0.16500 119244.000000
3387 13452 1 0.16500 119244.000000
3387 19858 1 0.16500 119244.000000
3388 12245 1 0.16500 119244.000000
3388 15917 1 0.16500 119244.000000
3389 12245 1 0.16500 119244.000000
3389 13085 1 0.16500 119244.000000
3390 12245 1 0.16500 119244.000000
3390 14413 1 0.16500 119244.000000
3391 12245 1 0.16500 119244.000000
3391 13657 1 0.16500 119244.000000
3392 12246 1 0.16500 119244.000000
3392 14251 1 0.16500 119244.000000
3393 12246 1 0.16500 119244.000000
3393 12873 1 0.16500 119244.000000
3394 12246 1 0.16500 119244.000000
3394 16543 1 0.16500 119244.000000
3395 12246 1 0.16500 119244.000000
3395 13629 1 0.16500 119244.000000
3396 12247 1 0.16500 119244.000000
3396 12512 1 0.16500 119244.000000
3397 12247 1 0.16500 119244.000000
3397 14178 1 0.16500 119244.000000
3398 12247 1 0.16500 119244.000000
3398 16498 1 0.16500 119244.000000
3399 12248 1 0.16500 119244.000000
3399 16045 1 0.16500 119244.000000
3400 12248 1 0.16500 119244.000000
3400 13448 1 0.16500 119244.000000
3401 12248 1 0.16500 119244.000000
3401 13860 1 0.16500 119244.000000
3402 12249 1 0.16500 119244.000000
3402 14778 1 0.16500 119244.000000
3403 12249 1 0.16500 119244.000000
3403 13727 1 0.16500 119244.000000
3404 12249 1 0.16500 119244.000000
3404 15278 1 0.16500 119244.000000
3405 12249 1 0.16500 119244.000000
3405 14181 1 0.16500 119244.000000
3406 12250 1 0.16500 119244.000000
3406 16207 1 0.16500 119244.000000
3407 12551 1 0.16500 119244.000000
3407 14891 1 0.16500 119244.000000
3408 12251 1 0.16500 119244.000000
3408 12551 1 0.16500 119244.000000
3409 12251 1 0.16500 119244.000000
3409 15237 1 0.16500 119244.000000
3410 12252 1 0.16500 119244.000000
3410 16265 1 0.16500 119244.000000
3411 12252 1 0.16500 119244.000000
3411 16441 1 0.16500 119244.000000
3412 12252 1 0.16500 119244.000000
3412 14446 1 0.16500 119244.000000
3413 12252 1 0.16500 119244.000000
3413 16346 1 0.16500 119244.000000
3414 12253 1 0.16500 119244.000000
3414 13031 1 0.16500 119244.000000
3415 13031 1 0.16500 119244.000000
3415 14059 1 0.16500 119244.000000
3416 12253 1 0.16500 119244.000000
3416 12842 1 0.16500 119244.000000
3417 14661 1 0.16500 119244.000000
3417 21340 1 0.16500 119244.000000
3418 16285 1 0.16500 119244.000000
3418 21340 1 0.16500 119244.000000
3419 21340 1 0.16500 119244.000000
3419 21514 1 0.16500 119244.000000
3420 12254 1 0.16500 119244.000000
3420 14624 1 0.16500 119244.000000
3421 12254 1 0.16500 119244.000000
3421 15073 1 0.16500 119244.000000
3422 12254 1 0.16500 119244.000000
3422 15632 1 0.16500 119244.000000
3423 12254 1 0.16500 119244.000000
3423 15668 1 0.16500 119244.000000
3424 15616 1 0.16500 119244.000000
3424 21343 1 0.16500 119244.000000
3425 13774 1 0.16500 119244.000000
3425 21343 1 0.16500 119244.000000
3426 12255 1 0.16500 119244.000000
3426 15477 1 0.16500 119244.000000
3427 12255 1 0.16500 119244.000000
3427 13988 1 0.16500 119244.000000
3428 12255 1 0.16500 119244.000000
3428 15988 1 0.16500 119244.000000
3429 12255 1 0.16500 119244.000000
3429 14655 1 0.16500 119244.000000
3430 15299 1 0.16500 119244.000000
3430 21346 1 0.16500 119244.000000
3431 14395 1 0.16500 119244.000000
3431 21346 1 0.16500 119244.000000
3432 12117 1 0.16500 119244.000000
3432 12256 1 0.16500 119244.000000
3433 12256 1 0.16500 119244.000000
3433 14052 1 0.16500 119244.000000
3434 12269 1 0.16500 119244.000000
3434 21313 1 0.16500 119244.000000
3435 12257 1 0.16500 119244.000000
3435 14685 1 0.16500 119244.000000
3436 12257 1 0.16500 119244.000000
3436 12297 1 0.16500 119244.000000
3437 12257 1 0.16500 119244.000000
3437 14876 1 0.16500 119244.000000
3438 12257 1 0.16500 119244.000000
3438 14620 1 0.16500 119244.000000
3439 12258 1 0.16500 119244.000000
3439 12873 1 0.16500 119244.000000
3440 12258 1 0.16500 119244.000000
3440 12931 1 0.16500 119244.000000
3441 12258 1 0.16500 119244.000000
3441 16415 1 0.16500 119244.000000
3442 12258 1 0.16500 119244.000000
3442 15456 1 0.16500 119244.000000
3443 12259 1 0.16500 119244.000000
3443 18406 1 0.16500 119244.000000
3444 12260 1 0.16500 119244.000000
3444 13009 1 0.16500 119244.000000
3445 12260 1 0.16500 119244.000000
3445 13417 1 0.16500 119244.000000
3446 12260 1 0.16500 119244.000000
3446 13675 1 0.16500 119244.000000
3447 12260 1 0.16500 119244.000000
3447 13478 1 0.16500 119244.000000
3448 12261 1 0.16500 119244.000000
3448 12889 1 0.16500 119244.000000
3449 12261 1 0.16500 119244.000000
3449 14523 1 0.16500 119244.000000
3450 12199 1 0.16500 119244.000000
3450 12261 1 0.16500 119244.000000
3451 12261 1 0.16500 119244.000000
3451 15658 1 0.16500 119244.000000
3452 12262 1 0.16500 119244.000000
3452 14547 1 0.16500 119244.000000
3453 12262 1 0.16500 119244.000000
3453 13223 1 0.16500 119244.000000
3454 12263 1 0.16500 119244.000000
3454 14666 1 0.16500 119244.000000
3455 12263 1 0.16500 119244.000000
3455 12294 1 0.16500 119244.000000
3456 12263 1 0.16500 119244.000000
3456 15725 1 0.16500 119244.000000
3457 12264 1 0.16500 119244.000000
3457 16191 1 0.16500 119244.000000
3458 14689 1 0.16500 119244.000000
3458 16551 1 0.16500 119244.000000
3459 12264 1 0.16500 119244.000000
3459 12843 1 0.16500 119244.000000
3460 12265 1 0.16500 119244.000000
3460 15622 1 0.16500 119244.000000
3461 12265 1 0.16500 119244.000000
3461 14229 1 0.16500 119244.000000
3462 12265 1 0.16500 119244.000000
3462 15830 1 0.16500 119244.000000
3463 12265 1 0.16500 119244.000000
3463 19174 1 0.16500 119244.000000
3464 11550 1 0.16500 119244.000000
3464 12266 1 0.16500 119244.000000
3465 12266 1 0.16500 119244.000000
3465 14737 1 0.16500 119244.000000
3466 12266 1 0.16500 119244.000000
3466 15114 1 0.16500 119244.000000
3467 12266 1 0.16500 119244.000000
3467 15979 1 0.16500 119244.000000
3468 12267 1 0.16500 119244.000000
3468 15903 1 0.16500 119244.000000
3469 12267 1 0.16500 119244.000000
3469 14044 1 0.16500 119244.000000
3470 12267 1 0.16500 119244.000000
3470 21904 1 0.16500 119244.000000
3471 12268 1 0.16500 119244.000000
3471 13532 1 0.16500 119244.000000
3472 12268 1 0.16500 119244.000000
3472 14926 1 0.16500 119244.000000
3473 12268 1 0.16500 119244.000000
3473 14921 1 0.16500 119244.000000
3474 12268 1 0.16500 119244.000000
3474 13341 1 0.16500 119244.000000
3475 12269 1 0.16500 119244.000000
3475 15594 1 0.16500 119244.000000
3476 12269 1 0.16500 119244.000000
3476 14285 1 0.16500 119244.000000
3477 12270 1 0.16500 119244.000000
3477 12348 1 0.16500 119244.000000
3478 12270 1 0.16500 119244.000000
3478 14138 1 0.16500 119244.000000
3479 12270 1 0.16500 119244.000000
3479 18766 1 0.16500 119244.000000
3480 12271 1 0.16500 119244.000000
3480 13345 1 0.16500 119244.000000
3481 12271 1 0.16500 119244.000000
3481 15912 1 0.16500 119244.000000
3482 12271 1 0.16500 119244.000000
3482 14157 1 0.16500 119244.000000
3483 12271 1 0.16500 119244.000000
3483 13869 1 0.16500 119244.000000
3484 12272 1 0.16500 119244.000000
3484 14884 1 0.16500 119244.000000
3485 12272 1 0.16500 119244.000000
3485 16615 1 0.16500 119244.000000
3486 15436 1 0.16500 119244.000000
3486 19558 1 0.16500 119244.000000
3487 13339 1 0.16500 119244.000000
3487 19558 1 0.16500 119244.000000
3488 14788 1 0.16500 119244.000000
3488 19558 1 0.16500 119244.000000
3489 12273 1 0.16500 119244.000000
3489 16447 1 0.16500 119244.000000
3490 12273 1 0.16500 119244.000000
3490 17974 1 0.16500 119244.000000
3491 12273 1 0.16500 119244.000000
3491 13127 1 0.16500 119244.000000
3492 13408 1 0.16500 119244.000000
3492 15206 1 0.16500 119244.000000
3493 13408 1 0.16500 119244.000000
3493 18874 1 0.16500 119244.000000
3494 14274 1 0.16500 119244.000000
3494 16157 1 0.16500 119244.000000
3495 12274 1 0.16500 119244.000000
3495 13640 1 0.16500 119244.000000
3496 12274 1 0.16500 119244.000000
3496 15086 1 0.16500 119244.000000
3497 12274 1 0.16500 119244.000000
3497 15814 1 0.16500 119244.000000
3498 12274 1 0.16500 119244.000000
3498 14872 1 0.16500 119244.000000
3499 12275 1 0.16500 119244.000000
3499 16280 1 0.16500 119244.000000
3500 12275 1 0.16500 119244.000000
3500 12477 1 0.16500 119244.000000
3501 12275 1 0.16500 119244.000000
3501 13841 1 0.16500 119244.000000
3502 12275 1 0.16500 119244.000000
3502 14836 1 0.16500 119244.000000
3503 12276 1 0.16500 119244.000000
3503 13466 1 0.16500 119244.000000
3504 12276 1 0.16500 119244.000000
3504 21984 1 0.16500 119244.000000
3505 12276 1 0.16500 119244.000000
3505 16111 1 0.16500 119244.000000
3506 12277 1 0.16500 119244.000000
3506 14259 1 0.16500 119244.000000
3507 12277 1 0.16500 119244.000000
3507 15023 1 0.16500 119244.000000
3508 12277 1 0.16500 119244.000000
3508 14868 1 0.16500 119244.000000
3509 12277 1 0.16500 119244.000000
3509 15876 1 0.16500 119244.000000
3510 12278 1 0.16500 119244.000000
3510 13797 1 0.16500 119244.000000
3511 12278 1 0.16500 119244.000000
3511 13810 1 0.16500 119244.000000
3512 12278 1 0.16500 119244.000000
3512 15029 1 0.16500 119244.000000
3513 12278 1 0.16500 119244.000000
3513 16347 1 0.16500 119244.000000
3514 12279 1 0.16500 119244.000000
3514 14919 1 0.16500 119244.000000
3515 12279 1 0.16500 119244.000000
3515 15900 1 0.16500 119244.000000
3516 12280 1 0.16500 119244.000000
3516 15375 1 0.16500 119244.000000
3517 12280 1 0.16500 119244.000000
3517 12597 1 0.16500 119244.000000
3518 12281 1 0.16500 119244.000000
3518 21622 1 0.16500 119244.000000
3519 12281 1 0.16500 119244.000000
3519 21547 1 0.16500 119244.000000
3520 12281 1 0.16500 119244.000000
3520 12994 1 0.16500 119244.000000
3521 12282 1 0.16500 119244.000000
3521 15843 1 0.16500 119244.000000
3522 12282 1 0.16500 119244.000000
3522 13340 1 0.16500 119244.000000
3523 12282 1 0.16500 119244.000000
3523 15957 1 0.16500 119244.000000
3524 12282 1 0.16500 119244.000000
3524 15951 1 0.16500 119244.000000
3525 20638 1 0.16500 119244.000000
3525 20938 1 0.16500 119244.000000
3526 15426 1 0.16500 119244.000000
3526 20938 1 0.16500 119244.000000
3527 19738 1 0.16500 119244.000000
3527 20938 1 0.16500 119244.000000
3528 12283 1 0.16500 119244.000000
3528 16482 1 0.16500 119244.000000
3529 12283 1 0.16500 119244.000000
3529 16205 1 0.16500 119244.000000
3530 12283 1 0.16500 119244.000000
3530 15664 1 0.16500 119244.000000
3531 12284 1 0.16500 119244.000000
3531 13885 1 0.16500 119244.000000
3532 12284 1 0.16500 119244.000000
3532 13230 1 0.16500 119244.000000
3533 12284 1 0.16500 119244.000000
3533 13688 1 0.16500 119244.000000
3534 12284 1 0.16500 119244.000000
3534 15785 1 0.16500 119244.000000
3535 12285 1 0.16500 119244.000000
3535 12747 1 0.16500 119244.000000
3536 12285 1 0.16500 119244.000000
3536 16615 1 0.16500 119244.000000
3537 12285 1 0.16500 119244.000000
3537 19726 1 0.16500 119244.000000
3538 12286 1 0.16500 119244.000000
3538 16540 1 0.16500 119244.000000
3539 12286 1 0.16500 119244.000000
3539 12893 1 0.16500 119244.000000
3540 12286 1 0.16500 119244.000000
3540 14414 1 0.16500 119244.000000
3541 12286 1 0.16500 119244.000000
3541 14124 1 0.16500 119244.000000
3542 12287 1 0.16500 119244.000000
3542 12471 1 0.16500 119244.000000
3543 12287 1 0.16500 119244.000000
3543 19498 1 0.16500 119244.000000
3544 12287 1 0.16500 119244.000000
3544 14333 1 0.16500 119244.000000
3545 12287 1 0.16500 119244.000000
3545 14540 1 0.16500 119244.000000
3546 12288 1 0.16500 119244.000000
3546 15990 1 0.16500 119244.000000
3547 12288 1 0.16500 119244.000000
3547 12649 1 0.16500 119244.000000
3548 12288 1 0.16500 119244.000000
3548 14767 1 0.16500 119244.000000
3549 12289 1 0.16500 119244.000000
3549 20974 1 0.16500 119244.000000
3550 12289 1 0.16500 119244.000000
3550 14694 1 0.16500 119244.000000
3551 12289 1 0.16500 119244.000000
3551 14820 1 0.16500 119244.000000
3552 12289 1 0.16500 119244.000000
3552 15486 1 0.16500 119244.000000
3553 12290 1 0.16500 119244.000000
3553 14276 1 0.16500 119244.000000
3554 12290 1 0.16500 119244.000000
3554 13757 1 0.16500 119244.000000
3555 12291 1 0.16500 119244.000000
3555 16340 1 0.16500 119244.000000
3556 12291 1 0.16500 119244.000000
3556 12526 1 0.16500 119244.000000
3557 12291 1 0.16500 119244.000000
3557 16386 1 0.16500 119244.000000
3558 12291 1 0.16500 119244.000000
3558 15054 1 0.16500 119244.000000
3559 21349 1 0.16500 119244.000000
3559 21742 1 0.16500 119244.000000
3560 21349 1 0.16500 119244.000000
3560 22019 1 0.16500 119244.000000
3561 13778 1 0.16500 119244.000000
3561 21349 1 0.16500 119244.000000
3562 15905 1 0.16500 119244.000000
3562 16541 1 0.16500 119244.000000
3563 12292 1 0.16500 119244.000000
3563 12384 1 0.16500 119244.000000
3564 12292 1 0.16500 119244.000000
3564 15905 1 0.16500 119244.000000
3565 12914 1 0.16500 119244.000000
3565 15905 1 0.16500 119244.000000
3566 13621 1 0.16500 119244.000000
3566 21352 1 0.16500 119244.000000
3567 21352 1 0.16500 119244.000000
3567 21829 1 0.16500 119244.000000
3568 15136 1 0.16500 119244.000000
3568 21352 1 0.16500 119244.000000
3569 17890 1 0.16500 119244.000000
3569 21355 1 0.16500 119244.000000
3570 15879 1 0.16500 119244.000000
3570 21355 1 0.16500 119244.000000
3571 12293 1 0.16500 119244.000000
3571 14621 1 0.16500 119244.000000
3572 12293 1 0.16500 119244.000000
3572 13337 1 0.16500 119244.000000
3573 12293 1 0.16500 119244.000000
3573 14462 1 0.16500 119244.000000
3574 12293 1 0.16500 119244.000000
3574 12537 1 0.16500 119244.000000
3575 12294 1 0.16500 119244.000000
3575 12891 1 0.16500 119244.000000
3576 12294 1 0.16500 119244.000000
3576 16325 1 0.16500 119244.000000
3577 11786 1 0.16500 119244.000000
3577 13345 1 0.16500 119244.000000
3578 12295 1 0.16500 119244.000000
3578 13464 1 0.16500 119244.000000
3579 12295 1 0.16500 119244.000000
3579 14157 1 0.16500 119244.000000
3580 12296 1 0.16500 119244.000000
3580 16278 1 0.16500 119244.000000
3581 12296 1 0.16500 119244.000000
3581 15705 1 0.16500 119244.000000
3582 12296 1 0.16500 119244.000000
3582 15461 1 0.16500 119244.000000
3583 12297 1 0.16500 119244.000000
3583 14392 1 0.16500 119244.000000
3584 12298 1 0.16500 119244.000000
3584 15227 1 0.16500 119244.000000
3585 12298 1 0.16500 119244.000000
3585 15650 1 0.16500 119244.000000
3586 12298 1 0.16500 119244.000000
3586 13007 1 0.16500 119244.000000
3587 13139 1 0.16500 119244.000000
3587 16352 1 0.16500 119244.000000
3588 12299 1 0.16500 119244.000000
3588 13139 1 0.16500 119244.000000
3589 12299 1 0.16500 119244.000000
3589 16448 1 0.16500 119244.000000
3590 12299 1 0.16500 119244.000000
3590 13254 1 0.16500 119244.000000
3591 12300 1 0.16500 119244.000000
3591 15583 1 0.16500 119244.000000
3592 12300 1 0.16500 119244.000000
3592 12633 1 0.16500 119244.000000
3593 12300 1 0.16500 119244.000000
3593 12995 1 0.16500 119244.000000
3594 12300 1 0.16500 119244.000000
3594 15234 1 0.16500 119244.000000
3595 12301 1 0.16500 119244.000000
3595 13827 1 0.16500 119244.000000
3596 12301 1 0.16500 119244.000000
3596 15999 1 0.16500 119244.000000
3597 12301 1 0.16500 119244.000000
3597 14428 1 0.16500 119244.000000
3598 12302 1 0.16500 119244.000000
3598 14981 1 0.16500 119244.000000
3599 12302 1 0.16500 119244.000000
3599 12486 1 0.16500 119244.000000
3600 12302 1 0.16500 119244.000000
3600 12395 1 0.16500 119244.000000
3601 12303 1 0.16500 119244.000000
3601 14793 1 0.16500 119244.000000
3602 12304 1 0.16500 119244.000000
3602 14648 1 0.16500 119244.000000
3603 12304 1 0.16500 119244.000000
3603 20050 1 0.16500 119244.000000
3604 12304 1 0.16500 119244.000000
3604 18706 1 0.16500 119244.000000
3605 12305 1 0.16500 119244.000000
3605 14365 1 0.16500 119244.000000
3606 12305 1 0.16500 119244.000000
3606 13995 1 0.16500 119244.000000
3607 12305 1 0.16500 119244.000000
3607 14401 1 0.16500 119244.000000
3608 12305 1 0.16500 119244.000000
3608 14281 1 0.16500 119244.000000
3609 12306 1 0.16500 119244.000000
3609 15183 1 0.16500 119244.000000
3610 12306 1 0.16500 119244.000000
3610 14209 1 0.16500 119244.000000
3611 12306 1 0.16500 119244.000000
3611 16109 1 0.16500 119244.000000
3612 12306 1 0.16500 119244.000000
3612 15364 1 0.16500 119244.000000
3613 12307 1 0.16500 119244.000000
3613 14888 1 0.16500 119244.000000
3614 12307 1 0.16500 119244.000000
3614 12724 1 0.16500 119244.000000
3615 12307 1 0.16500 119244.000000
3615 15007 1 0.16500 119244.000000
3616 12307 1 0.16500 119244.000000
3616 13299 1 0.16500 119244.000000
3617 11748 1 0.16500 119244.000000
3617 15108 1 0.16500 119244.000000
3618 12308 1 0.16500 119244.000000
3618 13706 1 0.16500 119244.000000
3619 12308 1 0.16500 119244.000000
3619 12972 1 0.16500 119244.000000
3620 12309 1 0.16500 119244.000000
3620 15268 1 0.16500 119244.000000
3621 12309 1 0.16500 119244.000000
3621 14507 1 0.16500 119244.000000
3622 12309 1 0.16500 119244.000000
3622 15700 1 0.16500 119244.000000
3623 12310 1 0.16500 119244.000000
3623 12619 1 0.16500 119244.000000
3624 12310 1 0.16500 119244.000000
3624 15744 1 0.16500 119244.000000
3625 15744 1 0.16500 119244.000000
3625 21424 1 0.16500 119244.000000
3626 12310 1 0.16500 119244.000000
3626 16403 1 0.16500 119244.000000
3627 12311 1 0.16500 119244.000000
3627 21403 1 0.16500 119244.000000
3628 20110 1 0.16500 119244.000000
3628 21448 1 0.16500 119244.000000
3629 12312 1 0.16500 119244.000000
3629 13756 1 0.16500 119244.000000
3630 13756 1 0.16500 119244.000000
3630 15609 1 0.16500 119244.000000
3631 12312 1 0.16500 119244.000000
3631 15240 1 0.16500 119244.000000
3632 12313 1 0.16500 119244.000000
3632 12807 1 0.16500 119244.000000
3633 12313 1 0.16500 119244.000000
3633 18366 1 0.16500 119244.000000
3634 12313 1 0.16500 119244.000000
3634 13701 1 0.16500 119244.000000
3635 18366 1 0.16500 119244.000000
3635 22014 1 0.16500 119244.000000
3636 12314 1 0.16500 119244.000000
3636 16006 1 0.16500 119244.000000
3637 12314 1 0.16500 119244.000000
3637 14038 1 0.16500 119244.000000
3638 12315 1 0.16500 119244.000000
3638 15693 1 0.16500 119244.000000
3639 12315 1 0.16500 119244.000000
3639 15714 1 0.16500 119244.000000
3640 12315 1 0.16500 119244.000000
3640 16253 1 0.16500 119244.000000
3641 12315 1 0.16500 119244.000000
3641 14169 1 0.16500 119244.000000
3642 12316 1 0.16500 119244.000000
3642 15565 1 0.16500 119244.000000
3643 12316 1 0.16500 119244.000000
3643 15043 1 0.16500 119244.000000
3644 17036 1 0.16500 119244.000000
3644 20986 1 0.16500 119244.000000
3645 20986 1 0.16500 119244.000000
3645 21454 1 0.16500 119244.000000
3646 12317 1 0.16500 119244.000000
3646 14257 1 0.16500 119244.000000
3647 12317 1 0.16500 119244.000000
3647 13438 1 0.16500 119244.000000
3648 12317 1 0.16500 119244.000000
3648 12914 1 0.16500 119244.000000
3649 12318 1 0.16500 119244.000000
3649 13219 1 0.16500 119244.000000
3650 12318 1 0.16500 119244.000000
3650 15248 1 0.16500 119244.000000
3651 12319 1 0.16500 119244.000000
3651 15856 1 0.16500 119244.000000
3652 12319 1 0.16500 119244.000000
3652 12446 1 0.16500 119244.000000
3653 12319 1 0.16500 119244.000000
3653 16293 1 0.16500 119244.000000
3654 12320 1 0.16500 119244.000000
3654 13151 1 0.16500 119244.000000
3655 11905 1 0.16500 119244.000000
3655 13834 1 0.16500 119244.000000
3656 12320 1 0.16500 119244.000000
3656 14008 1 0.16500 119244.000000
3657 12320 1 0.16500 119244.000000
3657 13834 1 0.16500 119244.000000
3658 12321 1 0.16500 119244.000000
3658 16302 1 0.16500 119244.000000
3659 12321 1 0.16500 119244.000000
3659 15033 1 0.16500 119244.000000
3660 12321 1 0.16500 119244.000000
3660 15115 1 0.16500 119244.000000
3661 12322 1 0.16500 119244.000000
3661 14818 1 0.16500 119244.000000
3662 12322 1 0.16500 119244.000000
3662 15700 1 0.16500 119244.000000
3663 12322 1 0.16500 119244.000000
3663 15033 1 0.16500 119244.000000
3664 12323 1 0.16500 119244.000000
3664 12539 1 0.16500 119244.000000
3665 12323 1 0.16500 119244.000000
3665 13299 1 0.16500 119244.000000
3666 12323 1 0.16500 119244.000000
3666 13826 1 0.16500 119244.000000
3667 12323 1 0.16500 119244.000000
3667 14036 1 0.16500 119244.000000
3668 12324 1 0.16500 119244.000000
3668 14781 1 0.16500 119244.000000
3669 12324 1 0.16500 119244.000000
3669 14649 1 0.16500 119244.000000
3670 12324 1 0.16500 119244.000000
3670 12412 1 0.16500 119244.000000
3671 12324 1 0.16500 119244.000000
3671 16119 1 0.16500 119244.000000
3672 12325 1 0.16500 119244.000000
3672 13126 1 0.16500 119244.000000
3673 12325 1 0.16500 119244.000000
3673 14455 1 0.16500 119244.000000
3674 12325 1 0.16500 119244.000000
3674 14190 1 0.16500 119244.000000
3675 12325 1 0.16500 119244.000000
3675 14506 1 0.16500 119244.000000
3676 16383 1 0.16500 119244.000000
3676 20926 1 0.16500 119244.000000
3677 14838 1 0.16500 119244.000000
3677 20926 1 0.16500 119244.000000
3678 12326 1 0.16500 119244.000000
3678 15494 1 0.16500 119244.000000
3679 12326 1 0.16500 119244.000000
3679 12717 1 0.16500 119244.000000
3680 12326 1 0.16500 119244.000000
3680 15632 1 0.16500 119244.000000
3681 12327 1 0.16500 119244.000000
3681 15572 1 0.16500 119244.000000
3682 12327 1 0.16500 119244.000000
3682 13829 1 0.16500 119244.000000
3683 12328 1 0.16500 119244.000000
3683 15960 1 0.16500 119244.000000
3684 12328 1 0.16500 119244.000000
3684 16196 1 0.16500 119244.000000
3685 12328 1 0.16500 119244.000000
3685 15528 1 0.16500 119244.000000
3686 12329 1 0.16500 119244.000000
3686 12775 1 0.16500 119244.000000
3687 12329 1 0.16500 119244.000000
3687 12509 1 0.16500 119244.000000
3688 12330 1 0.16500 119244.000000
3688 12779 1 0.16500 119244.000000
3689 12330 1 0.16500 119244.000000
3689 15708 1 0.16500 119244.000000
3690 12330 1 0.16500 119244.000000
3690 15989 1 0.16500 119244.000000
3691 12331 1 0.16500 119244.000000
3691 14382 1 0.16500 119244.000000
3692 12331 1 0.16500 119244.000000
3692 15355 1 0.16500 119244.000000
3693 12331 1 0.16500 119244.000000
3693 13107 1 0.16500 119244.000000
3694 12332 1 0.16500 119244.000000
3694 16402 1 0.16500 119244.000000
3695 11538 1 0.16500 119244.000000
3695 12332 1 0.16500 119244.000000
3696 12332 1 0.16500 119244.000000
3696 14785 1 0.16500 119244.000000
3697 12332 1 0.16500 119244.000000
3697 16421 1 0.16500 119244.000000
3698 12333 1 0.16500 119244.000000
3698 13729 1 0.16500 119244.000000
3699 12333 1 0.16500 119244.000000
3699 13673 1 0.16500 119244.000000
3700 12333 1 0.16500 119244.000000
3700 15151 1 0.16500 119244.000000
3701 12333 1 0.16500 119244.000000
3701 12581 1 0.16500 119244.000000
3702 12334 1 0.16500 119244.000000
3702 13327 1 0.16500 119244.000000
3703 12334 1 0.16500 119244.000000
3703 13869 1 0.16500 119244.000000
3704 12335 1 0.16500 119244.000000
3704 14885 1 0.16500 119244.000000
3705 12335 1 0.16500 119244.000000
3705 15908 1 0.16500 119244.000000
3706 12335 1 0.16500 119244.000000
3706 12400 1 0.16500 119244.000000
3707 12335 1 0.16500 119244.000000
3707 13610 1 0.16500 119244.000000
3708 13089 1 0.16500 119244.000000
3708 14060 1 0.16500 119244.000000
3709 12336 1 0.16500 119244.000000
3709 13089 1 0.16500 119244.000000
3710 12336 1 0.16500 119244.000000
3710 16563 1 0.16500 119244.000000
3711 12336 1 0.16500 119244.000000
3711 16050 1 0.16500 119244.000000
3712 12337 1 0.16500 119244.000000
3712 13331 1 0.16500 119244.000000
3713 12337 1 0.16500 119244.000000
3713 12735 1 0.16500 119244.000000
3714 13331 1 0.16500 119244.000000
3714 14039 1 0.16500 119244.000000
3715 12337 1 0.16500 119244.000000
3715 15132 1 0.16500 119244.000000
3716 12338 1 0.16500 119244.000000
3716 15933 1 0.16500 119244.000000
3717 12338 1 0.16500 119244.000000
3717 12801 1 0.16500 119244.000000
3718 12338 1 0.16500 119244.000000
3718 16184 1 0.16500 119244.000000
3719 12338 1 0.16500 119244.000000
3719 13375 1 0.16500 119244.000000
3720 12339 1 0.16500 119244.000000
3720 13577 1 0.16500 119244.000000
3721 12339 1 0.16500 119244.000000
3721 12557 1 0.16500 119244.000000
3722 12339 1 0.16500 119244.000000
3722 14005 1 0.16500 119244.000000
3723 12340 1 0.16500 119244.000000
3723 14262 1 0.16500 119244.000000
3724 12340 1 0.16500 119244.000000
3724 13953 1 0.16500 119244.000000
3725 12340 1 0.16500 119244.000000
3725 12672 1 0.16500 119244.000000
3726 12341 1 0.16500 119244.000000
3726 15489 1 0.16500 119244.000000
3727 12341 1 0.16500 119244.000000
3727 21781 1 0.16500 119244.000000
3728 12342 1 0.16500 119244.000000
3728 13404 1 0.16500 119244.000000
3729 13236 1 0.16500 119244.000000
3729 13404 1 0.16500 119244.000000
3730 12342 1 0.16500 119244.000000
3730 15316 1 0.16500 119244.000000
3731 12342 1 0.16500 119244.000000
3731 16238 1 0.16500 119244.000000
3732 12343 1 0.16500 119244.000000
3732 16481 1 0.16500 119244.000000
3733 12343 1 0.16500 119244.000000
3733 12932 1 0.16500 119244.000000
3734 12343 1 0.16500 119244.000000
3734 14359 1 0.16500 119244.000000
3735 12343 1 0.16500 119244.000000
3735 16522 1 0.16500 119244.000000
3736 12344 1 0.16500 119244.000000
3736 20458 1 0.16500 119244.000000
3737 12344 1 0.16500 119244.000000
3737 15930 1 0.16500 119244.000000
3738 12345 1 0.16500 119244.000000
3738 16577 1 0.16500 119244.000000
3739 12239 1 0.16500 119244.000000
3739 12345 1 0.16500 119244.000000
3740 12345 1 0.16500 119244.000000
3740 21142 1 0.16500 119244.000000
3741 12346 1 0.16500 119244.000000
3741 14326 1 0.16500 119244.000000
3742 12346 1 0.16500 119244.000000
3742 16104 1 0.16500 119244.000000
3743 12346 1 0.16500 119244.000000
3743 12881 1 0.16500 119244.000000
3744 12346 1 0.16500 119244.000000
3744 15551 1 0.16500 119244.000000
3745 12347 1 0.16500 119244.000000
3745 14905 1 0.16500 119244.000000
3746 12347 1 0.16500 119244.000000
3746 16568 1 0.16500 119244.000000
3747 12347 1 0.16500 119244.000000
3747 13050 1 0.16500 119244.000000
3748 12347 1 0.16500 119244.000000
3748 16508 1 0.16500 119244.000000
3749 12348 1 0.16500 119244.000000
3749 12909 1 0.16500 119244.000000
3750 12348 1 0.16500 119244.000000
3750 16523 1 0.16500 119244.000000
3751 12349 1 0.16500 119244.000000
3751 20314 1 0.16500 119244.000000
3752 12349 1 0.16500 119244.000000
3752 16458 1 0.16500 119244.000000
3753 12349 1 0.16500 119244.000000
3753 12738 1 0.16500 119244.000000
3754 12349 1 0.16500 119244.000000
3754 12396 1 0.16500 119244.000000
3755 12350 1 0.16500 119244.000000
3755 13631 1 0.16500 119244.000000
3756 12350 1 0.16500 119244.000000
3756 14240 1 0.16500 119244.000000
3757 12350 1 0.16500 119244.000000
3757 16195 1 0.16500 119244.000000
3758 12350 1 0.16500 119244.000000
3758 12624 1 0.16500 119244.000000
3759 12019 1 0.16500 119244.000000
3759 12587 1 0.16500 119244.000000
3760 12351 1 0.16500 119244.000000
3760 14897 1 0.16500 119244.000000
3761 12351 1 0.16500 119244.000000
3761 16322 1 0.16500 119244.000000
3762 12352 1 0.16500 119244.000000
3762 13357 1 0.16500 119244.000000
3763 12352 1 0.16500 119244.000000
3763 16119 1 0.16500 119244.000000
3764 12353 1 0.16500 119244.000000
3764 14176 1 0.16500 119244.000000
3765 12353 1 0.16500 119244.000000
3765 16026 1 0.16500 119244.000000
3766 12354 1 0.16500 119244.000000
3766 13695 1 0.16500 119244.000000
3767 12354 1 0.16500 119244.000000
3767 13927 1 0.16500 119244.000000
3768 12354 1 0.16500 119244.000000
3768 15146 1 0.16500 119244.000000
3769 12354 1 0.16500 119244.000000
3769 14697 1 0.16500 119244.000000
3770 11610 1 0.16500 119244.000000
3770 15642 1 0.16500 119244.000000
3771 19702 1 0.16500 119244.000000
3771 21550 1 0.16500 119244.000000
3772 14311 1 0.16500 119244.000000
3772 19702 1 0.16500 119244.000000
3773 12356 1 0.16500 119244.000000
3773 21610 1 0.16500 119244.000000
3774 12356 1 0.16500 119244.000000
3774 13638 1 0.16500 119244.000000
3775 12356 1 0.16500 119244.000000
3775 21928 1 0.16500 119244.000000
3776 12357 1 0.16500 119244.000000
3776 19582 1 0.16500 119244.000000
3777 12357 1 0.16500 119244.000000
3777 12778 1 0.16500 119244.000000
3778 12357 1 0.16500 119244.000000
3778 12796 1 0.16500 119244.000000
3779 12357 1 0.16500 119244.000000
3779 21508 1 0.16500 119244.000000
3780 12358 1 0.16500 119244.000000
3780 15516 1 0.16500 119244.000000
3781 12358 1 0.16500 119244.000000
3781 14251 1 0.16500 119244.000000
3782 12358 1 0.16500 119244.000000
3782 15605 1 0.16500 119244.000000
3783 12358 1 0.16500 119244.000000
3783 12615 1 0.16500 119244.000000
3784 12359 1 0.16500 119244.000000
3784 16307 1 0.16500 119244.000000
3785 12359 1 0.16500 119244.000000
3785 16002 1 0.16500 119244.000000
3786 12359 1 0.16500 119244.000000
3786 13510 1 0.16500 119244.000000
3787 12360 1 0.16500 119244.000000
3787 13270 1 0.16500 119244.000000
3788 12360 1 0.16500 119244.000000
3788 12365 1 0.16500 119244.000000
3789 12360 1 0.16500 119244.000000
3789 12978 1 0.16500 119244.000000
3790 12361 1 0.16500 119244.000000
3790 13074 1 0.16500 119244.000000
3791 12361 1 0.16500 119244.000000
3791 15132 1 0.16500 119244.000000
3792 12361 1 0.16500 119244.000000
3792 14553 1 0.16500 119244.000000
3793 12362 1 0.16500 119244.000000
3793 14635 1 0.16500 119244.000000
3794 12362 1 0.16500 119244.000000
3794 12835 1 0.16500 119244.000000
3795 12362 1 0.16500 119244.000000
3795 16047 1 0.16500 119244.000000
3796 11725 1 0.16500 119244.000000
3796 12362 1 0.16500 119244.000000
3797 12363 1 0.16500 119244.000000
3797 13371 1 0.16500 119244.000000
3798 12363 1 0.16500 119244.000000
3798 12552 1 0.16500 119244.000000
3799 12363 1 0.16500 119244.000000
3799 13219 1 0.16500 119244.000000
3800 12363 1 0.16500 119244.000000
3800 16316 1 0.16500 119244.000000
3801 12364 1 0.16500 119244.000000
3801 15919 1 0.16500 119244.000000
3802 12364 1 0.16500 119244.000000
3802 12999 1 0.16500 119244.000000
3803 12364 1 0.16500 119244.000000
3803 13650 1 0.16500 119244.000000
3804 12364 1 0.16500 119244.000000
3804 13670 1 0.16500 119244.000000
3805 12360 1 0.16500 119244.000000
3805 12385 1 0.16500 119244.000000
3806 12365 1 0.16500 119244.000000
3806 12849 1 0.16500 119244.000000
3807 12365 1 0.16500 119244.000000
3807 15104 1 0.16500 119244.000000
3808 12366 1 0.16500 119244.000000
3808 15090 1 0.16500 119244.000000
3809 12366 1 0.16500 119244.000000
3809 14779 1 0.16500 119244.000000
3810 12366 1 0.16500 119244.000000
3810 12688 1 0.16500 119244.000000
3811 12366 1 0.16500 119244.000000
3811 14064 1 0.16500 119244.000000
3812 14526 1 0.16500 119244.000000
3812 16575 1 0.16500 119244.000000
3813 12367 1 0.16500 119244.000000
3813 13198 1 0.16500 119244.000000
3814 12367 1 0.16500 119244.000000
3814 16430 1 0.16500 119244.000000
3815 12367 1 0.16500 119244.000000
3815 14526 1 0.16500 119244.000000
3816 12368 1 0.16500 119244.000000
3816 14437 1 0.16500 119244.000000
3817 12368 1 0.16500 119244.000000
3817 13766 1 0.16500 119244.000000
3818 12368 1 0.16500 119244.000000
3818 13309 1 0.16500 119244.000000
3819 12369 1 0.16500 119244.000000
3819 13967 1 0.16500 119244.000000
3820 12369 1 0.16500 119244.000000
3820 14624 1 0.16500 119244.000000
3821 12369 1 0.16500 119244.000000
3821 13935 1 0.16500 119244.000000
3822 12369 1 0.16500 119244.000000
3822 15026 1 0.16500 119244.000000
3823 12370 1 0.16500 119244.000000
3823 15124 1 0.16500 119244.000000
3824 12370 1 0.16500 119244.000000
3824 14513 1 0.16500 119244.000000
3825 12370 1 0.16500 119244.000000
3825 14711 1 0.16500 119244.000000
3826 12371 1 0.16500 119244.000000
3826 15900 1 0.16500 119244.000000
3827 12371 1 0.16500 119244.000000
3827 13970 1 0.16500 119244.000000
3828 12371 1 0.16500 119244.000000
3828 12948 1 0.16500 119244.000000
3829 12372 1 0.16500 119244.000000
3829 16347 1 0.16500 119244.000000
3830 12372 1 0.16500 119244.000000
3830 15109 1 0.16500 119244.000000
3831 12372 1 0.16500 119244.000000
3831 14723 1 0.16500 119244.000000
3832 12373 1 0.16500 119244.000000
3832 21259 1 0.16500 119244.000000
3833 14151 1 0.16500 119244.000000
3833 16490 1 0.16500 119244.000000
3834 12373 1 0.16500 119244.000000
3834 21727 1 0.16500 119244.000000
3835 12374 1 0.16500 119244.000000
3835 15632 1 0.16500 119244.000000
3836 12374 1 0.16500 119244.000000
3836 13981 1 0.16500 119244.000000
3837 12374 1 0.16500 119244.000000
3837 16445 1 0.16500 119244.000000
3838 12375 1 0.16500 119244.000000
3838 14218 1 0.16500 119244.000000
3839 12375 1 0.16500 119244.000000
3839 13652 1 0.16500 119244.000000
3840 12375 1 0.16500 119244.000000
3840 13948 1 0.16500 119244.000000
3841 12375 1 0.16500 119244.000000
3841 16233 1 0.16500 119244.000000
3842 12376 1 0.16500 119244.000000
3842 12940 1 0.16500 119244.000000
3843 12376 1 0.16500 119244.000000
3843 14811 1 0.16500 119244.000000
3844 12376 1 0.16500 119244.000000
3844 15925 1 0.16500 119244.000000
3845 12377 1 0.16500 119244.000000
3845 21631 1 0.16500 119244.000000
3846 12377 1 0.16500 119244.000000
3846 15352 1 0.16500 119244.000000
3847 12377 1 0.16500 119244.000000
3847 12915 1 0.16500 119244.000000
3848 12377 1 0.16500 119244.000000
3848 16213 1 0.16500 119244.000000
3849 12378 1 0.16500 119244.000000
3849 13642 1 0.16500 119244.000000
3850 12378 1 0.16500 119244.000000
3850 12708 1 0.16500 119244.000000
3851 12378 1 0.16500 119244.000000
3851 13012 1 0.16500 119244.000000
3852 12379 1 0.16500 119244.000000
3852 13395 1 0.16500 119244.000000
3853 12379 1 0.16500 119244.000000
3853 14983 1 0.16500 119244.000000
3854 12379 1 0.16500 119244.000000
3854 16275 1 0.16500 119244.000000
3855 12380 1 0.16500 119244.000000
3855 15948 1 0.16500 119244.000000
3856 12380 1 0.16500 119244.000000
3856 14482 1 0.16500 119244.000000
3857 12380 1 0.16500 119244.000000
3857 16067 1 0.16500 119244.000000
3858 12380 1 0.16500 119244.000000
3858 13682 1 0.16500 119244.000000
3859 12381 1 0.16500 119244.000000
3859 13352 1 0.16500 119244.000000
3860 12381 1 0.16500 119244.000000
3860 16319 1 0.16500 119244.000000
3861 12381 1 0.16500 119244.000000
3861 16142 1 0.16500 119244.000000
3862 12381 1 0.16500 119244.000000
3862 13952 1 0.16500 119244.000000
3863 12382 1 0.16500 119244.000000
3863 14121 1 0.16500 119244.000000
3864 12382 1 0.16500 119244.000000
3864 15579 1 0.16500 119244.000000
3865 12382 1 0.16500 119244.000000
3865 16486 1 0.16500 119244.000000
3866 12382 1 0.16500 119244.000000
3866 15599 1 0.16500 119244.000000
3867 12383 1 0.16500 119244.000000
3867 13371 1 0.16500 119244.000000
3868 12383 1 0.16500 119244.000000
3868 15430 1 0.16500 119244.000000
3869 12384 1 0.16500 119244.000000
3869 15675 1 0.16500 119244.000000
3870 12385 1 0.16500 119244.000000
3870 16136 1 0.16500 119244.000000
3871 12385 1 0.16500 119244.000000
3871 13356 1 0.16500 119244.000000
3872 12385 1 0.16500 119244.000000
3872 13051 1 0.16500 119244.000000
3873 12386 1 0.16500 119244.000000
3873 13341 1 0.16500 119244.000000
3874 12386 1 0.16500 119244.000000
3874 14615 1 0.16500 119244.000000
3875 12386 1 0.16500 119244.000000
3875 15131 1 0.16500 119244.000000
3876 12386 1 0.16500 119244.000000
3876 12891 1 0.16500 119244.000000
3877 12994 1 0.16500 119244.000000
3877 21358 1 0.16500 119244.000000
3878 15532 1 0.16500 119244.000000
3878 21358 1 0.16500 119244.000000
3879 18646 1 0.16500 119244.000000
3879 20158 1 0.16500 119244.000000
3880 18646 1 0.16500 119244.000000
3880 20578 1 0.16500 119244.000000
3881 15434 1 0.16500 119244.000000
3881 18646 1 0.16500 119244.000000
3882 12387 1 0.16500 119244.000000
3882 14867 1 0.16500 119244.000000
3883 12387 1 0.16500 119244.000000
3883 14025 1 0.16500 119244.000000
3884 12387 1 0.16500 119244.000000
3884 13337 1 0.16500 119244.000000
3885 12387 1 0.16500 119244.000000
3885 20290 1 0.16500 119244.000000
3886 12388 1 0.16500 119244.000000
3886 14818 1 0.16500 119244.000000
3887 12388 1 0.16500 119244.000000
3887 15586 1 0.16500 119244.000000
3888 12388 1 0.16500 119244.000000
3888 15990 1 0.16500 119244.000000
3889 12389 1 0.16500 119244.000000
3889 15878 1 0.16500 119244.000000
3890 12389 1 0.16500 119244.000000
3890 13370 1 0.16500 119244.000000
3891 12389 1 0.16500 119244.000000
3891 14327 1 0.16500 119244.000000
3892 12390 1 0.16500 119244.000000
3892 13472 1 0.16500 119244.000000
3893 12390 1 0.16500 119244.000000
3893 12507 1 0.16500 119244.000000
3894 12390 1 0.16500 119244.000000
3894 15535 1 0.16500 119244.000000
3895 12391 1 0.16500 119244.000000
3895 15765 1 0.16500 119244.000000
3896 12391 1 0.16500 119244.000000
3896 14588 1 0.16500 119244.000000
3897 12391 1 0.16500 119244.000000
3897 14605 1 0.16500 119244.000000
3898 12391 1 0.16500 119244.000000
3898 15459 1 0.16500 119244.000000
3899 12392 1 0.16500 119244.000000
3899 21796 1 0.16500 119244.000000
3900 12392 1 0.16500 119244.000000
3900 13308 1 0.16500 119244.000000
3901 12392 1 0.16500 119244.000000
3901 16555 1 0.16500 119244.000000
3902 12393 1 0.16500 119244.000000
3902 14328 1 0.16500 119244.000000
3903 12393 1 0.16500 119244.000000
3903 13846 1 0.16500 119244.000000
3904 12393 1 0.16500 119244.000000
3904 21397 1 0.16500 119244.000000
3905 12393 1 0.16500 119244.000000
3905 12420 1 0.16500 119244.000000
3906 12394 1 0.16500 119244.000000
3906 14869 1 0.16500 119244.000000
3907 12394 1 0.16500 119244.000000
3907 13474 1 0.16500 119244.000000
3908 12394 1 0.16500 119244.000000
3908 15217 1 0.16500 119244.000000
3909 12394 1 0.16500 119244.000000
3909 12683 1 0.16500 119244.000000
3910 12395 1 0.16500 119244.000000
3910 15344 1 0.16500 119244.000000
3911 12395 1 0.16500 119244.000000
3911 14400 1 0.16500 119244.000000
3912 12395 1 0.16500 119244.000000
3912 12680 1 0.16500 119244.000000
3913 12396 1 0.16500 119244.000000
3913 14688 1 0.16500 119244.000000
3914 12396 1 0.16500 119244.000000
3914 14061 1 0.16500 119244.000000
3915 12397 1 0.16500 119244.000000
3915 14500 1 0.16500 119244.000000
3916 12397 1 0.16500 119244.000000
3916 15384 1 0.16500 119244.000000
3917 12397 1 0.16500 119244.000000
3917 12931 1 0.16500 119244.000000
3918 12397 1 0.16500 119244.000000
3918 16604 1 0.16500 119244.000000
3919 13930 1 0.16500 119244.000000
3919 14458 1 0.16500 119244.000000
3920 12398 1 0.16500 119244.000000
3920 13930 1 0.16500 119244.000000
3921 12398 1 0.16500 119244.000000
3921 16539 1 0.16500 119244.000000
3922 18634 1 0.16500 119244.000000
3922 19426 1 0.16500 119244.000000
3923 12399 1 0.16500 119244.000000
3923 19426 1 0.16500 119244.000000
3924 12400 1 0.16500 119244.000000
3924 15411 1 0.16500 119244.000000
3925 12400 1 0.16500 119244.000000
3925 15245 1 0.16500 119244.000000
3926 12400 1 0.16500 119244.000000
3926 14106 1 0.16500 119244.000000
3927 12401 1 0.16500 119244.000000
3927 20854 1 0.16500 119244.000000
3928 12401 1 0.16500 119244.000000
3928 14644 1 0.16500 119244.000000
3929 12402 1 0.16500 119244.000000
3929 13312 1 0.16500 119244.000000
3930 12402 1 0.16500 119244.000000
3930 19390 1 0.16500 119244.000000
3931 12403 1 0.16500 119244.000000
3931 14561 1 0.16500 119244.000000
3932 12403 1 0.16500 119244.000000
3932 15569 1 0.16500 119244.000000
3933 12403 1 0.16500 119244.000000
3933 14612 1 0.16500 119244.000000
3934 12403 1 0.16500 119244.000000
3934 13918 1 0.16500 119244.000000
3935 13302 1 0.16500 119244.000000
3935 15206 1 0.16500 119244.000000
3936 12404 1 0.16500 119244.000000
3936 13302 1 0.16500 119244.000000
3937 12405 1 0.16500 119244.000000
3937 13360 1 0.16500 119244.000000
3938 12405 1 0.16500 119244.000000
3938 13784 1 0.16500 119244.000000
3939 12406 1 0.16500 119244.000000
3939 14964 1 0.16500 119244.000000
3940 12406 1 0.16500 119244.000000
3940 13048 1 0.16500 119244.000000
3941 12406 1 0.16500 119244.000000
3941 14029 1 0.16500 119244.000000
3942 12406 1 0.16500 119244.000000
3942 15658 1 0.16500 119244.000000
3943 12407 1 0.16500 119244.000000
3943 13762 1 0.16500 119244.000000
3944 12407 1 0.16500 119244.000000
3944 13192 1 0.16500 119244.000000
3945 12407 1 0.16500 119244.000000
3945 15292 1 0.16500 119244.000000
3946 12408 1 0.16500 119244.000000
3946 15445 1 0.16500 119244.000000
3947 12409 1 0.16500 119244.000000
3947 13894 1 0.16500 119244.000000
3948 12409 1 0.16500 119244.000000
3948 13496 1 0.16500 119244.000000
3949 12409 1 0.16500 119244.000000
3949 14823 1 0.16500 119244.000000
3950 12410 1 0.16500 119244.000000
3950 12785 1 0.16500 119244.000000
3951 12410 1 0.16500 119244.000000
3951 14724 1 0.16500 119244.000000
3952 12410 1 0.16500 119244.000000
3952 13136 1 0.16500 119244.000000
3953 12410 1 0.16500 119244.000000
3953 13738 1 0.16500 119244.000000
3954 12411 1 0.16500 119244.000000
3954 13578 1 0.16500 119244.000000
3955 12411 1 0.16500 119244.000000
3955 14039 1 0.16500 119244.000000
3956 13578 1 0.16500 119244.000000
3956 17792 1 0.16500 119244.000000
3957 12411 1 0.16500 119244.000000
3957 13331 1 0.16500 119244.000000
3958 12412 1 0.16500 119244.000000
3958 14545 1 0.16500 119244.000000
3959 12412 1 0.16500 119244.000000
3959 14711 1 0.16500 119244.000000
3960 12413 1 0.16500 119244.000000
3960 14387 1 0.16500 119244.000000
3961 12413 1 0.16500 119244.000000
3961 12576 1 0.16500 119244.000000
3962 12414 1 0.16500 119244.000000
3962 13771 1 0.16500 119244.000000
3963 12414 1 0.16500 119244.000000
3963 14774 1 0.16500 119244.000000
3964 12414 1 0.16500 119244.000000
3964 13153 1 0.16500 119244.000000
3965 12414 1 0.16500 119244.000000
3965 15104 1 0.16500 119244.000000
3966 12415 1 0.16500 119244.000000
3966 14259 1 0.16500 119244.000000
3967 12415 1 0.16500 119244.000000
3967 15351 1 0.16500 119244.000000
3968 12415 1 0.16500 119244.000000
3968 14352 1 0.16500 119244.000000
3969 12415 1 0.16500 119244.000000
3969 13735 1 0.16500 119244.000000
3970 12416 1 0.16500 119244.000000
3970 15449 1 0.16500 119244.000000
3971 12416 1 0.16500 119244.000000
3971 12429 1 0.16500 119244.000000
3972 11765 1 0.16500 119244.000000
3972 13562 1 0.16500 119244.000000
3973 12417 1 0.16500 119244.000000
3973 13105 1 0.16500 119244.000000
3974 12417 1 0.16500 119244.000000
3974 16300 1 0.16500 119244.000000
3975 12417 1 0.16500 119244.000000
3975 14957 1 0.16500 119244.000000
3976 12417 1 0.16500 119244.000000
3976 15410 1 0.16500 119244.000000
3977 12418 1 0.16500 119244.000000
3977 14588 1 0.16500 119244.000000
3978 12418 1 0.16500 119244.000000
3978 15546 1 0.16500 119244.000000
3979 12419 1 0.16500 119244.000000
3979 13995 1 0.16500 119244.000000
3980 12419 1 0.16500 119244.000000
3980 13244 1 0.16500 119244.000000
3981 12419 1 0.16500 119244.000000
3981 14647 1 0.16500 119244.000000
3982 12420 1 0.16500 119244.000000
3982 16480 1 0.16500 119244.000000
3983 12420 1 0.16500 119244.000000
3983 14321 1 0.16500 119244.000000
3984 12420 1 0.16500 119244.000000
3984 13772 1 0.16500 119244.000000
3985 12421 1 0.16500 119244.000000
3985 14483 1 0.16500 119244.000000
3986 12421 1 0.16500 119244.000000
3986 16611 1 0.16500 119244.000000
3987 12421 1 0.16500 119244.000000
3987 15953 1 0.16500 119244.000000
3988 12421 1 0.16500 119244.000000
3988 14798 1 0.16500 119244.000000
3989 12422 1 0.16500 119244.000000
3989 15538 1 0.16500 119244.000000
3990 12422 1 0.16500 119244.000000
3990 13303 1 0.16500 119244.000000
3991 12422 1 0.16500 119244.000000
3991 14254 1 0.16500 119244.000000
3992 12422 1 0.16500 119244.000000
3992 14608 1 0.16500 119244.000000
3993 12423 1 0.16500 119244.000000
3993 17400 1 0.16500 119244.000000
3994 12423 1 0.16500 119244.000000
3994 13180 1 0.16500 119244.000000
3995 12423 1 0.16500 119244.000000
3995 21739 1 0.16500 119244.000000
3996 12423 1 0.16500 119244.000000
3996 13102 1 0.16500 119244.000000
3997 12424 1 0.16500 119244.000000
3997 16506 1 0.16500 119244.000000
3998 12424 1 0.16500 119244.000000
3998 14271 1 0.16500 119244.000000
3999 12424 1 0.16500 119244.000000
3999 14158 1 0.16500 119244.000000
4000 12425 1 0.16500 119244.000000
4000 14603 1 0.16500 119244.000000
4001 12425 1 0.16500 119244.000000
4001 14609 1 0.16500 119244.000000
4002 12425 1 0.16500 119244.000000
4002 15578 1 0.16500 119244.000000
4003 12426 1 0.16500 119244.000000
4003 15867 1 0.16500 119244.000000
4004 12426 1 0.16500 119244.000000
4004 16227 1 0.16500 119244.000000
4005 12427 1 0.16500 119244.000000
4005 13669 1 0.16500 119244.000000
4006 12427 1 0.16500 119244.000000
4006 15851 1 0.16500 119244.000000
4007 12427 1 0.16500 119244.000000
4007 14546 1 0.16500 119244.000000
4008 12427 1 0.16500 119244.000000
4008 14573 1 0.16500 119244.000000
4009 12428 1 0.16500 119244.000000
4009 15539 1 0.16500 119244.000000
4010 12132 1 0.16500 119244.000000
4010 12428 1 0.16500 119244.000000
4011 12428 1 0.16500 119244.000000
4011 14077 1 0.16500 119244.000000
4012 12429 1 0.16500 119244.000000
4012 13692 1 0.16500 119244.000000
4013 12429 1 0.16500 119244.000000
4013 12967 1 0.16500 119244.000000
4014 12430 1 0.16500 119244.000000
4014 17792 1 0.16500 119244.000000
4015 12430 1 0.16500 119244.000000
4015 13220 1 0.16500 119244.000000
4016 12430 1 0.16500 119244.000000
4016 13485 1 0.16500 119244.000000
4017 12431 1 0.16500 119244.000000
4017 14809 1 0.16500 119244.000000
4018 12431 1 0.16500 119244.000000
4018 19630 1 0.16500 119244.000000
4019 12432 1 0.16500 119244.000000
4019 14689 1 0.16500 119244.000000
4020 12432 1 0.16500 119244.000000
4020 14972 1 0.16500 119244.000000
4021 12432 1 0.16500 119244.000000
4021 16361 1 0.16500 119244.000000
4022 12786 1 0.16500 119244.000000
4022 16139 1 0.16500 119244.000000
4023 12433 1 0.16500 119244.000000
4023 19318 1 0.16500 119244.000000
4024 12433 1 0.16500 119244.000000
4024 12841 1 0.16500 119244.000000
4025 12433 1 0.16500 119244.000000
4025 16139 1 0.16500 119244.000000
4026 12434 1 0.16500 119244.000000
4026 13215 1 0.16500 119244.000000
4027 13215 1 0.16500 119244.000000
4027 16362 1 0.16500 119244.000000
4028 13311 1 0.16500 119244.000000
4028 20746 1 0.16500 119244.000000
4029 16283 1 0.16500 119244.000000
4029 20746 1 0.16500 119244.000000
4030 11594 1 0.16500 119244.000000
4030 14895 1 0.16500 119244.000000
4031 12435 1 0.16500 119244.000000
4031 15885 1 0.16500 119244.000000
4032 12435 1 0.16500 119244.000000
4032 16924 1 0.16500 119244.000000
4033 21361 1 0.16500 119244.000000
4033 21772 1 0.16500 119244.000000
4034 13940 1 0.16500 119244.000000
4034 21361 1 0.16500 119244.000000
4035 12436 1 0.16500 119244.000000
4035 14506 1 0.16500 119244.000000
4036 13415 1 0.16500 119244.000000
4036 15589 1 0.16500 119244.000000
4037 12436 1 0.16500 119244.000000
4037 16572 1 0.16500 119244.000000
4038 12436 1 0.16500 119244.000000
4038 15589 1 0.16500 119244.000000
4039 12437 1 0.16500 119244.000000
4039 15254 1 0.16500 119244.000000
4040 12437 1 0.16500 119244.000000
4040 14227 1 0.16500 119244.000000
4041 20482 1 0.16500 119244.000000
4041 21862 1 0.16500 119244.000000
4042 15615 1 0.16500 119244.000000
4042 20482 1 0.16500 119244.000000
4043 12438 1 0.16500 119244.000000
4043 15455 1 0.16500 119244.000000
4044 12438 1 0.16500 119244.000000
4044 12457 1 0.16500 119244.000000
4045 12438 1 0.16500 119244.000000
4045 16249 1 0.16500 119244.000000
4046 12439 1 0.16500 119244.000000
4046 12620 1 0.16500 119244.000000
4047 12439 1 0.16500 119244.000000
4047 13162 1 0.16500 119244.000000
4048 12439 1 0.16500 119244.000000
4048 13747 1 0.16500 119244.000000
4049 12440 1 0.16500 119244.000000
4049 15096 1 0.16500 119244.000000
4050 12440 1 0.16500 119244.000000
4050 17428 1 0.16500 119244.000000
4051 12440 1 0.16500 119244.000000
4051 18778 1 0.16500 119244.000000
4052 12440 1 0.16500 119244.000000
4052 14750 1 0.16500 119244.000000
4053 12441 1 0.16500 119244.000000
4053 14965 1 0.16500 119244.000000
4054 12441 1 0.16500 119244.000000
4054 13512 1 0.16500 119244.000000
4055 12441 1 0.16500 119244.000000
4055 14780 1 0.16500 119244.000000
4056 12442 1 0.16500 119244.000000
4056 13864 1 0.16500 119244.000000
4057 12442 1 0.16500 119244.000000
4057 15294 1 0.16500 119244.000000
4058 12442 1 0.16500 119244.000000
4058 15543 1 0.16500 119244.000000
4059 12443 1 0.16500 119244.000000
4059 13695 1 0.16500 119244.000000
4060 12443 1 0.16500 119244.000000
4060 14628 1 0.16500 119244.000000
4061 12443 1 0.16500 119244.000000
4061 12766 1 0.16500 119244.000000
4062 12444 1 0.16500 119244.000000
4062 15562 1 0.16500 119244.000000
4063 12444 1 0.16500 119244.000000
4063 15680 1 0.16500 119244.000000
4064 12444 1 0.16500 119244.000000
4064 13860 1 0.16500 119244.000000
4065 12444 1 0.16500 119244.000000
4065 12487 1 0.16500 119244.000000
4066 12445 1 0.16500 119244.000000
4066 15777 1 0.16500 119244.000000
4067 11978 1 0.16500 119244.000000
4067 15777 1 0.16500 119244.000000
4068 12445 1 0.16500 119244.000000
4068 14675 1 0.16500 119244.000000
4069 12446 1 0.16500 119244.000000
4069 14198 1 0.16500 119244.000000
4070 12447 1 0.16500 119244.000000
4070 15312 1 0.16500 119244.000000
4071 12447 1 0.16500 119244.000000
4071 15395 1 0.16500 119244.000000
4072 12447 1 0.16500 119244.000000
4072 12662 1 0.16500 119244.000000
4073 12447 1 0.16500 119244.000000
4073 14790 1 0.16500 119244.000000
4074 12448 1 0.16500 119244.000000
4074 16225 1 0.16500 119244.000000
4075 12448 1 0.16500 119244.000000
4075 21367 1 0.16500 119244.000000
4076 12448 1 0.16500 119244.000000
4076 21685 1 0.16500 119244.000000
4077 12449 1 0.16500 119244.000000
4077 15260 1 0.16500 119244.000000
4078 12449 1 0.16500 119244.000000
4078 15637 1 0.16500 119244.000000
4079 12449 1 0.16500 119244.000000
4079 12920 1 0.16500 119244.000000
4080 12449 1 0.16500 119244.000000
4080 15978 1 0.16500 119244.000000
4081 11796 1 0.16500 119244.000000
4081 14730 1 0.16500 119244.000000
4082 12450 1 0.16500 119244.000000
4082 19630 1 0.16500 119244.000000
4083 12450 1 0.16500 119244.000000
4083 12641 1 0.16500 119244.000000
4084 12451 1 0.16500 119244.000000
4084 13822 1 0.16500 119244.000000
4085 12451 1 0.16500 119244.000000
4085 12882 1 0.16500 119244.000000
4086 12452 1 0.16500 119244.000000
4086 15257 1 0.16500 119244.000000
4087 12452 1 0.16500 119244.000000
4087 17204 1 0.16500 119244.000000
4088 12452 1 0.16500 119244.000000
4088 14667 1 0.16500 119244.000000
4089 12453 1 0.16500 119244.000000
4089 12540 1 0.16500 119244.000000
4090 12453 1 0.16500 119244.000000
4090 13865 1 0.16500 119244.000000
4091 12453 1 0.16500 119244.000000
4091 13605 1 0.16500 119244.000000
4092 12454 1 0.16500 119244.000000
4092 13928 1 0.16500 119244.000000
4093 12454 1 0.16500 119244.000000
4093 13434 1 0.16500 119244.000000
4094 12454 1 0.16500 119244.000000
4094 13091 1 0.16500 119244.000000
4095 12454 1 0.16500 119244.000000
4095 15013 1 0.16500 119244.000000
4096 12455 1 0.16500 119244.000000
4096 13456 1 0.16500 119244.000000
4097 12455 1 0.16500 119244.000000
4097 15271 1 0.16500 119244.000000
4098 12455 1 0.16500 119244.000000
4098 13556 1 0.16500 119244.000000
4099 12455 1 0.16500 119244.000000
4099 15386 1 0.16500 119244.000000
4100 12456 1 0.16500 119244.000000
4100 13398 1 0.16500 119244.000000
4101 13398 1 0.16500 119244.000000
4101 16130 1 0.16500 119244.000000
4102 18418 1 0.16500 119244.000000
4102 20026 1 0.16500 119244.000000
4103 13235 1 0.16500 119244.000000
4103 18418 1 0.16500 119244.000000
4104 12457 1 0.16500 119244.000000
4104 13342 1 0.16500 119244.000000
4105 12457 1 0.16500 119244.000000
4105 16454 1 0.16500 119244.000000
4106 12457 1 0.16500 119244.000000
4106 16218 1 0.16500 119244.000000
4107 13004 1 0.16500 119244.000000
4107 16463 1 0.16500 119244.000000
4108 12458 1 0.16500 119244.000000
4108 13004 1 0.16500 119244.000000
4109 12458 1 0.16500 119244.000000
4109 16568 1 0.16500 119244.000000
4110 12458 1 0.16500 119244.000000
4110 15425 1 0.16500 119244.000000
4111 13117 1 0.16500 119244.000000
4111 20614 1 0.16500 119244.000000
4112 12459 1 0.16500 119244.000000
4112 12651 1 0.16500 119244.000000
4113 12459 1 0.16500 119244.000000
4113 14135 1 0.16500 119244.000000
4114 12460 1 0.16500 119244.000000
4114 14602 1 0.16500 119244.000000
4115 12460 1 0.16500 119244.000000
4115 14844 1 0.16500 119244.000000
4116 12460 1 0.16500 119244.000000
4116 16425 1 0.16500 119244.000000
4117 12460 1 0.16500 119244.000000
4117 16150 1 0.16500 119244.000000
4118 12461 1 0.16500 119244.000000
4118 15136 1 0.16500 119244.000000
4119 12461 1 0.16500 119244.000000
4119 16494 1 0.16500 119244.000000
4120 12462 1 0.16500 119244.000000
4120 16475 1 0.16500 119244.000000
4121 12462 1 0.16500 119244.000000
4121 14739 1 0.16500 119244.000000
4122 12462 1 0.16500 119244.000000
4122 15457 1 0.16500 119244.000000
4123 12462 1 0.16500 119244.000000
4123 14277 1 0.16500 119244.000000
4124 12463 1 0.16500 119244.000000
4124 15553 1 0.16500 119244.000000
4125 12463 1 0.16500 119244.000000
4125 16360 1 0.16500 119244.000000
4126 12463 1 0.16500 119244.000000
4126 13852 1 0.16500 119244.000000
4127 12463 1 0.16500 119244.000000
4127 15986 1 0.16500 119244.000000
4128 12464 1 0.16500 119244.000000
4128 13321 1 0.16500 119244.000000
4129 12464 1 0.16500 119244.000000
4129 15694 1 0.16500 119244.000000
4130 12465 1 0.16500 119244.000000
4130 15541 1 0.16500 119244.000000
4131 12465 1 0.16500 119244.000000
4131 13158 1 0.16500 119244.000000
4132 12466 1 0.16500 119244.000000
4132 14812 1 0.16500 119244.000000
4133 12466 1 0.16500 119244.000000
4133 12657 1 0.16500 119244.000000
4134 12466 1 0.16500 119244.000000
4134 14742 1 0.16500 119244.000000
4135 12467 1 0.16500 119244.000000
4135 13822 1 0.16500 119244.000000
4136 12467 1 0.16500 119244.000000
4136 13851 1 0.16500 119244.000000
4137 12467 1 0.16500 119244.000000
4137 12520 1 0.16500 119244.000000
4138 12468 1 0.16500 119244.000000
4138 14502 1 0.16500 119244.000000
4139 12468 1 0.16500 119244.000000
4139 15941 1 0.16500 119244.000000
4140 12468 1 0.16500 119244.000000
4140 14714 1 0.16500 119244.000000
4141 12469 1 0.16500 119244.000000
4141 15088 1 0.16500 119244.000000
4142 12469 1 0.16500 119244.000000
4142 15437 1 0.16500 119244.000000
4143 12469 1 0.16500 119244.000000
4143 12535 1 0.16500 119244.000000
4144 12469 1 0.16500 119244.000000
4144 12650 1 0.16500 119244.000000
4145 12470 1 0.16500 119244.000000
4145 16362 1 0.16500 119244.000000
4146 12470 1 0.16500 119244.000000
4146 13505 1 0.16500 119244.000000
4147 12470 1 0.16500 119244.000000
4147 15375 1 0.16500 119244.000000
4148 12470 1 0.16500 119244.000000
4148 14903 1 0.16500 119244.000000
4149 12471 1 0.16500 119244.000000
4149 15596 1 0.16500 119244.000000
4150 12471 1 0.16500 119244.000000
4150 21838 1 0.16500 119244.000000
4151 12472 1 0.16500 119244.000000
4151 15040 1 0.16500 119244.000000
4152 12472 1 0.16500 119244.000000
4152 13338 1 0.16500 119244.000000
4153 12472 1 0.16500 119244.000000
4153 13651 1 0.16500 119244.000000
4154 12473 1 0.16500 119244.000000
4154 14182 1 0.16500 119244.000000
4155 12473 1 0.16500 119244.000000
4155 15859 1 0.16500 119244.000000
4156 12473 1 0.16500 119244.000000
4156 13503 1 0.16500 119244.000000
4157 12473 1 0.16500 119244.000000
4157 14196 1 0.16500 119244.000000
4158 12474 1 0.16500 119244.000000
4158 15812 1 0.16500 119244.000000
4159 12474 1 0.16500 119244.000000
4159 15776 1 0.16500 119244.000000
4160 12475 1 0.16500 119244.000000
4160 16270 1 0.16500 119244.000000
4161 12475 1 0.16500 119244.000000
4161 15255 1 0.16500 119244.000000
4162 12475 1 0.16500 119244.000000
4162 15093 1 0.16500 119244.000000
4163 12476 1 0.16500 119244.000000
4163 14898 1 0.16500 119244.000000
4164 12476 1 0.16500 119244.000000
4164 14183 1 0.16500 119244.000000
4165 12476 1 0.16500 119244.000000
4165 16088 1 0.16500 119244.000000
4166 12476 1 0.16500 119244.000000
4166 13719 1 0.16500 119244.000000
4167 11491 1 0.16500 119244.000000
4167 12477 1 0.16500 119244.000000
4168 11491 1 0.16500 119244.000000
4168 18454 1 0.16500 119244.000000
4169 12478 1 0.16500 119244.000000
4169 14559 1 0.16500 119244.000000
4170 12478 1 0.16500 119244.000000
4170 15428 1 0.16500 119244.000000
4171 12478 1 0.16500 119244.000000
4171 13818 1 0.16500 119244.000000
4172 16644 1 0.16500 119244.000000
4172 21628 1 0.16500 119244.000000
4173 12479 1 0.16500 119244.000000
4173 14509 1 0.16500 119244.000000
4174 12479 1 0.16500 119244.000000
4174 14954 1 0.16500 119244.000000
4175 12479 1 0.16500 119244.000000
4175 12484 1 0.16500 119244.000000
4176 12480 1 0.16500 119244.000000
4176 16108 1 0.16500 119244.000000
4177 12480 1 0.16500 119244.000000
4177 14743 1 0.16500 119244.000000
4178 12480 1 0.16500 119244.000000
4178 13621 1 0.16500 119244.000000
4179 12481 1 0.16500 119244.000000
4179 12612 1 0.16500 119244.000000
4180 12481 1 0.16500 119244.000000
4180 15542 1 0.16500 119244.000000
4181 12481 1 0.16500 119244.000000
4181 13581 1 0.16500 119244.000000
4182 12482 1 0.16500 119244.000000
4182 12743 1 0.16500 119244.000000
4183 12482 1 0.16500 119244.000000
4183 15583 1 0.16500 119244.000000
4184 12483 1 0.16500 119244.000000
4184 21436 1 0.16500 119244.000000
4185 12483 1 0.16500 119244.000000
4185 15262 1 0.16500 119244.000000
4186 12484 1 0.16500 119244.000000
4186 15177 1 0.16500 119244.000000
4187 12484 1 0.16500 119244.000000
4187 15025 1 0.16500 119244.000000
4188 12484 1 0.16500 119244.000000
4188 15471 1 0.16500 119244.000000
4189 12485 1 0.16500 119244.000000
4189 13339 1 0.16500 119244.000000
4190 12485 1 0.16500 119244.000000
4190 16031 1 0.16500 119244.000000
4191 12486 1 0.16500 119244.000000
4191 12736 1 0.16500 119244.000000
4192 12486 1 0.16500 119244.000000
4192 14240 1 0.16500 119244.000000
4193 12486 1 0.16500 119244.000000
4193 12776 1 0.16500 119244.000000
4194 12487 1 0.16500 119244.000000
4194 12704 1 0.16500 119244.000000
4195 12487 1 0.16500 119244.000000
4195 16374 1 0.16500 119244.000000
4196 12487 1 0.16500 119244.000000
4196 13705 1 0.16500 119244.000000
4197 12488 1 0.16500 119244.000000
4197 13726 1 0.16500 119244.000000
4198 12488 1 0.16500 119244.000000
4198 15734 1 0.16500 119244.000000
4199 12488 1 0.16500 119244.000000
4199 13649 1 0.16500 119244.000000
4200 12488 1 0.16500 119244.000000
4200 15841 1 0.16500 119244.000000
4201 12489 1 0.16500 119244.000000
4201 14303 1 0.16500 119244.000000
4202 12489 1 0.16500 119244.000000
4202 15650 1 0.16500 119244.000000
4203 12489 1 0.16500 119244.000000
4203 15176 1 0.16500 119244.000000
4204 12489 1 0.16500 119244.000000
4204 16274 1 0.16500 119244.000000
4205 12490 1 0.16500 119244.000000
4205 16433 1 0.16500 119244.000000
4206 12490 1 0.16500 119244.000000
4206 13285 1 0.16500 119244.000000
4207 12490 1 0.16500 119244.000000
4207 21574 1 0.16500 119244.000000
4208 16276 1 0.16500 119244.000000
4208 19162 1 0.16500 119244.000000
4209 19162 1 0.16500 119244.000000
4209 20446 1 0.16500 119244.000000
4210 12491 1 0.16500 119244.000000
4210 12823 1 0.16500 119244.000000
4211 12491 1 0.16500 119244.000000
4211 13132 1 0.16500 119244.000000
4212 12491 1 0.16500 119244.000000
4212 14078 1 0.16500 119244.000000
4213 12492 1 0.16500 119244.000000
4213 13782 1 0.16500 119244.000000
4214 12492 1 0.16500 119244.000000
4214 14345 1 0.16500 119244.000000
4215 12492 1 0.16500 119244.000000
4215 16270 1 0.16500 119244.000000
4216 12492 1 0.16500 119244.000000
4216 21583 1 0.16500 119244.000000
4217 12493 1 0.16500 119244.000000
4217 16032 1 0.16500 119244.000000
4218 12493 1 0.16500 119244.000000
4218 16557 1 0.16500 119244.000000
4219 12493 1 0.16500 119244.000000
4219 14372 1 0.16500 119244.000000
4220 12493 1 0.16500 119244.000000
4220 13951 1 0.16500 119244.000000
4221 12494 1 0.16500 119244.000000
4221 21895 1 0.16500 119244.000000
4222 12494 1 0.16500 119244.000000
4222 12753 1 0.16500 119244.000000
4223 12494 1 0.16500 119244.000000
4223 13171 1 0.16500 119244.000000
4224 12494 1 0.16500 119244.000000
4224 20734 1 0.16500 119244.000000
4225 12495 1 0.16500 119244.000000
4225 13653 1 0.16500 119244.000000
4226 12495 1 0.16500 119244.000000
4226 14064 1 0.16500 119244.000000
4227 12495 1 0.16500 119244.000000
4227 13525 1 0.16500 119244.000000
4228 12495 1 0.16500 119244.000000
4228 13362 1 0.16500 119244.000000
4229 12496 1 0.16500 119244.000000
4229 13606 1 0.16500 119244.000000
4230 12496 1 0.16500 119244.000000
4230 14890 1 0.16500 119244.000000
4231 12496 1 0.16500 119244.000000
4231 13687 1 0.16500 119244.000000
4232 12497 1 0.16500 119244.000000
4232 12727 1 0.16500 119244.000000
4233 12497 1 0.16500 119244.000000
4233 14558 1 0.16500 119244.000000
4234 12497 1 0.16500 119244.000000
4234 15099 1 0.16500 119244.000000
4235 12497 1 0.16500 119244.000000
4235 15629 1 0.16500 119244.000000
4236 13883 1 0.16500 119244.000000
4236 21364 1 0.16500 119244.000000
4237 12498 1 0.16500 119244.000000
4237 13273 1 0.16500 119244.000000
4238 12498 1 0.16500 119244.000000
4238 19078 1 0.16500 119244.000000
4239 12498 1 0.16500 119244.000000
4239 13285 1 0.16500 119244.000000
4240 12498 1 0.16500 119244.000000
4240 15897 1 0.16500 119244.000000
4241 12499 1 0.16500 119244.000000
4241 14986 1 0.16500 119244.000000
4242 12499 1 0.16500 119244.000000
4242 14013 1 0.16500 119244.000000
4243 12499 1 0.16500 119244.000000
4243 15969 1 0.16500 119244.000000
4244 12500 1 0.16500 119244.000000
4244 12719 1 0.16500 119244.000000
4245 12500 1 0.16500 119244.000000
4245 12547 1 0.16500 119244.000000
4246 12500 1 0.16500 119244.000000
4246 15487 1 0.16500 119244.000000
4247 12500 1 0.16500 119244.000000
4247 14835 1 0.16500 119244.000000
4248 12501 1 0.16500 119244.000000
4248 15387 1 0.16500 119244.000000
4249 12501 1 0.16500 119244.000000
4249 14159 1 0.16500 119244.000000
4250 12501 1 0.16500 119244.000000
4250 13879 1 0.16500 119244.000000
4251 12501 1 0.16500 119244.000000
4251 16374 1 0.16500 119244.000000
4252 12502 1 0.16500 119244.000000
4252 15290 1 0.16500 119244.000000
4253 12502 1 0.16500 119244.000000
4253 13091 1 0.16500 119244.000000
4254 12502 1 0.16500 119244.000000
4254 13415 1 0.16500 119244.000000
4255 12503 1 0.16500 119244.000000
4255 15131 1 0.16500 119244.000000
4256 12503 1 0.16500 119244.000000
4256 14270 1 0.16500 119244.000000
4257 12503 1 0.16500 119244.000000
4257 16325 1 0.16500 119244.000000
4258 12503 1 0.16500 119244.000000
4258 16033 1 0.16500 119244.000000
4259 12504 1 0.16500 119244.000000
4259 13590 1 0.16500 119244.000000
4260 12504 1 0.16500 119244.000000
4260 13738 1 0.16500 119244.000000
4261 12504 1 0.16500 119244.000000
4261 14736 1 0.16500 119244.000000
4262 12505 1 0.16500 119244.000000
4262 12637 1 0.16500 119244.000000
4263 12505 1 0.16500 119244.000000
4263 14969 1 0.16500 119244.000000
4264 12505 1 0.16500 119244.000000
4264 16582 1 0.16500 119244.000000
4265 12505 1 0.16500 119244.000000
4265 15952 1 0.16500 119244.000000
4266 12506 1 0.16500 119244.000000
4266 14313 1 0.16500 119244.000000
4267 12506 1 0.16500 119244.000000
4267 13291 1 0.16500 119244.000000
4268 12506 1 0.16500 119244.000000
4268 15340 1 0.16500 119244.000000
4269 12506 1 0.16500 119244.000000
4269 15022 1 0.16500 119244.000000
4270 12507 1 0.16500 119244.000000
4270 17008 1 0.16500 119244.000000
4271 12507 1 0.16500 119244.000000
4271 13837 1 0.16500 119244.000000
4272 12508 1 0.16500 119244.000000
4272 12513 1 0.16500 119244.000000
4273 12508 1 0.16500 119244.000000
4273 15460 1 0.16500 119244.000000
4274 12508 1 0.16500 119244.000000
4274 15239 1 0.16500 119244.000000
4275 12508 1 0.16500 119244.000000
4275 15316 1 0.16500 119244.000000
4276 12509 1 0.16500 119244.000000
4276 14967 1 0.16500 119244.000000
4277 12509 1 0.16500 119244.000000
4277 16496 1 0.16500 119244.000000
4278 12510 1 0.16500 119244.000000
4278 21469 1 0.16500 119244.000000
4279 12510 1 0.16500 119244.000000
4279 15881 1 0.16500 119244.000000
4280 12510 1 0.16500 119244.000000
4280 13801 1 0.16500 119244.000000
4281 12510 1 0.16500 119244.000000
4281 21616 1 0.16500 119244.000000
4282 12511 1 0.16500 119244.000000
4282 15464 1 0.16500 119244.000000
4283 12511 1 0.16500 119244.000000
4283 16464 1 0.16500 119244.000000
4284 12512 1 0.16500 119244.000000
4284 14959 1 0.16500 119244.000000
4285 12563 1 0.16500 119244.000000
4285 14959 1 0.16500 119244.000000
4286 12512 1 0.16500 119244.000000
4286 13105 1 0.16500 119244.000000
4287 12513 1 0.16500 119244.000000
4287 14935 1 0.16500 119244.000000
4288 12513 1 0.16500 119244.000000
4288 12655 1 0.16500 119244.000000
4289 12513 1 0.16500 119244.000000
4289 14554 1 0.16500 119244.000000
4290 12514 1 0.16500 119244.000000
4290 16615 1 0.16500 119244.000000
4291 12514 1 0.16500 119244.000000
4291 12998 1 0.16500 119244.000000
4292 12514 1 0.16500 119244.000000
4292 16215 1 0.16500 119244.000000
4293 12514 1 0.16500 119244.000000
4293 13112 1 0.16500 119244.000000
4294 12515 1 0.16500 119244.000000
4294 13967 1 0.16500 119244.000000
4295 11536 1 0.16500 119244.000000
4295 13824 1 0.16500 119244.000000
4296 12515 1 0.16500 119244.000000
4296 14538 1 0.16500 119244.000000
4297 13354 1 0.16500 119244.000000
4297 21367 1 0.16500 119244.000000
4298 16087 1 0.16500 119244.000000
4298 21367 1 0.16500 119244.000000
4299 12516 1 0.16500 119244.000000
4299 14410 1 0.16500 119244.000000
4300 12516 1 0.16500 119244.000000
4300 16485 1 0.16500 119244.000000
4301 12516 1 0.16500 119244.000000
4301 14962 1 0.16500 119244.000000
4302 12517 1 0.16500 119244.000000
4302 12592 1 0.16500 119244.000000
4303 12592 1 0.16500 119244.000000
4303 14908 1 0.16500 119244.000000
4304 12517 1 0.16500 119244.000000
4304 21625 1 0.16500 119244.000000
4305 12518 1 0.16500 119244.000000
4305 15185 1 0.16500 119244.000000
4306 12518 1 0.16500 119244.000000
4306 13546 1 0.16500 119244.000000
4307 12518 1 0.16500 119244.000000
4307 13595 1 0.16500 119244.000000
4308 12518 1 0.16500 119244.000000
4308 15713 1 0.16500 119244.000000
4309 12519 1 0.16500 119244.000000
4309 12553 1 0.16500 119244.000000
4310 12519 1 0.16500 119244.000000
4310 14537 1 0.16500 119244.000000
4311 12519 1 0.16500 119244.000000
4311 15580 1 0.16500 119244.000000
4312 12520 1 0.16500 119244.000000
4312 13036 1 0.16500 119244.000000
4313 12520 1 0.16500 119244.000000
4313 16225 1 0.16500 119244.000000
4314 12521 1 0.16500 119244.000000
4314 15340 1 0.16500 119244.000000
4315 12521 1 0.16500 119244.000000
4315 14018 1 0.16500 119244.000000
4316 12521 1 0.16500 119244.000000
4316 16138 1 0.16500 119244.000000
4317 12522 1 0.16500 119244.000000
4317 16141 1 0.16500 119244.000000
4318 12522 1 0.16500 119244.000000
4318 21664 1 0.16500 119244.000000
4319 12522 1 0.16500 119244.000000
4319 13730 1 0.16500 119244.000000
4320 13730 1 0.16500 119244.000000
4320 16442 1 0.16500 119244.000000
4321 12523 1 0.16500 119244.000000
4321 13567 1 0.16500 119244.000000
4322 12523 1 0.16500 119244.000000
4322 12663 1 0.16500 119244.000000
4323 12523 1 0.16500 119244.000000
4323 14763 1 0.16500 119244.000000
4324 12523 1 0.16500 119244.000000
4324 13751 1 0.16500 119244.000000
4325 14061 1 0.16500 119244.000000
4325 21370 1 0.16500 119244.000000
4326 16458 1 0.16500 119244.000000
4326 21370 1 0.16500 119244.000000
4327 12524 1 0.16500 119244.000000
4327 12830 1 0.16500 119244.000000
4328 12524 1 0.16500 119244.000000
4328 15015 1 0.16500 119244.000000
4329 12524 1 0.16500 119244.000000
4329 14755 1 0.16500 119244.000000
4330 12524 1 0.16500 119244.000000
4330 18610 1 0.16500 119244.000000
4331 12525 1 0.16500 119244.000000
4331 15002 1 0.16500 119244.000000
4332 12320 1 0.16500 119244.000000
4332 12525 1 0.16500 119244.000000
4333 12525 1 0.16500 119244.000000
4333 15818 1 0.16500 119244.000000
4334 12525 1 0.16500 119244.000000
4334 15144 1 0.16500 119244.000000
4335 12526 1 0.16500 119244.000000
4335 14433 1 0.16500 119244.000000
4336 12526 1 0.16500 119244.000000
4336 13611 1 0.16500 119244.000000
4337 12526 1 0.16500 119244.000000
4337 16243 1 0.16500 119244.000000
4338 17316 1 0.16500 119244.000000
4338 21373 1 0.16500 119244.000000
4339 16028 1 0.16500 119244.000000
4339 21373 1 0.16500 119244.000000
4340 21373 1 0.16500 119244.000000
4340 21631 1 0.16500 119244.000000
4341 12527 1 0.16500 119244.000000
4341 15235 1 0.16500 119244.000000
4342 12527 1 0.16500 119244.000000
4342 16539 1 0.16500 119244.000000
4343 12527 1 0.16500 119244.000000
4343 14833 1 0.16500 119244.000000
4344 12527 1 0.16500 119244.000000
4344 14577 1 0.16500 119244.000000
4345 12528 1 0.16500 119244.000000
4345 14916 1 0.16500 119244.000000
4346 12528 1 0.16500 119244.000000
4346 14001 1 0.16500 119244.000000
4347 12528 1 0.16500 119244.000000
4347 14243 1 0.16500 119244.000000
4348 12528 1 0.16500 119244.000000
4348 15431 1 0.16500 119244.000000
4349 12529 1 0.16500 119244.000000
4349 13090 1 0.16500 119244.000000
4350 12529 1 0.16500 119244.000000
4350 14473 1 0.16500 119244.000000
4351 12529 1 0.16500 119244.000000
4351 15446 1 0.16500 119244.000000
4352 12529 1 0.16500 119244.000000
4352 15117 1 0.16500 119244.000000
4353 12530 1 0.16500 119244.000000
4353 13502 1 0.16500 119244.000000
4354 12530 1 0.16500 119244.000000
4354 12918 1 0.16500 119244.000000
4355 12530 1 0.16500 119244.000000
4355 14788 1 0.16500 119244.000000
4356 12530 1 0.16500 119244.000000
4356 14324 1 0.16500 119244.000000
4357 12531 1 0.16500 119244.000000
4357 16072 1 0.16500 119244.000000
4358 12531 1 0.16500 119244.000000
4358 15407 1 0.16500 119244.000000
4359 12531 1 0.16500 119244.000000
4359 13378 1 0.16500 119244.000000
4360 12531 1 0.16500 119244.000000
4360 16040 1 0.16500 119244.000000
4361 12532 1 0.16500 119244.000000
4361 15941 1 0.16500 119244.000000
4362 12532 1 0.16500 119244.000000
4362 13717 1 0.16500 119244.000000
4363 12532 1 0.16500 119244.000000
4363 18254 1 0.16500 119244.000000
4364 12532 1 0.16500 119244.000000
4364 12601 1 0.16500 119244.000000
4365 12533 1 0.16500 119244.000000
4365 16352 1 0.16500 119244.000000
4366 12533 1 0.16500 119244.000000
4366 13449 1 0.16500 119244.000000
4367 12533 1 0.16500 119244.000000
4367 15559 1 0.16500 119244.000000
4368 12533 1 0.16500 119244.000000
4368 13003 1 0.16500 119244.000000
4369 12534 1 0.16500 119244.000000
4369 15231 1 0.16500 119244.000000
4370 12534 1 0.16500 119244.000000
4370 15309 1 0.16500 119244.000000
4371 12534 1 0.16500 119244.000000
4371 12584 1 0.16500 119244.000000
4372 12535 1 0.16500 119244.000000
4372 15721 1 0.16500 119244.000000
4373 12535 1 0.16500 119244.000000
4373 16199 1 0.16500 119244.000000
4374 12536 1 0.16500 119244.000000
4374 13291 1 0.16500 119244.000000
4375 12537 1 0.16500 119244.000000
4375 14378 1 0.16500 119244.000000
4376 12537 1 0.16500 119244.000000
4376 13726 1 0.16500 119244.000000
4377 12538 1 0.16500 119244.000000
4377 14910 1 0.16500 119244.000000
4378 12538 1 0.16500 119244.000000
4378 19906 1 0.16500 119244.000000
4379 12538 1 0.16500 119244.000000
4379 15778 1 0.16500 119244.000000
4380 12539 1 0.16500 119244.000000
4380 16029 1 0.16500 119244.000000
4381 12539 1 0.16500 119244.000000
4381 12724 1 0.16500 119244.000000
4382 12540 1 0.16500 119244.000000
4382 13630 1 0.16500 119244.000000
4383 12540 1 0.16500 119244.000000
4383 13593 1 0.16500 119244.000000
4384 12540 1 0.16500 119244.000000
4384 16577 1 0.16500 119244.000000
4385 12541 1 0.16500 119244.000000
4385 16259 1 0.16500 119244.000000
4386 12541 1 0.16500 119244.000000
4386 16066 1 0.16500 119244.000000
4387 12541 1 0.16500 119244.000000
4387 15009 1 0.16500 119244.000000
4388 12541 1 0.16500 119244.000000
4388 15298 1 0.16500 119244.000000
4389 12542 1 0.16500 119244.000000
4389 15882 1 0.16500 119244.000000
4390 12542 1 0.16500 119244.000000
4390 14689 1 0.16500 119244.000000
4391 12543 1 0.16500 119244.000000
4391 18682 1 0.16500 119244.000000
4392 12682 1 0.16500 119244.000000
4392 18682 1 0.16500 119244.000000
4393 12543 1 0.16500 119244.000000
4393 13281 1 0.16500 119244.000000
4394 12544 1 0.16500 119244.000000
4394 15566 1 0.16500 119244.000000
4395 12544 1 0.16500 119244.000000
4395 14094 1 0.16500 119244.000000
4396 12544 1 0.16500 119244.000000
4396 14797 1 0.16500 119244.000000
4397 12544 1 0.16500 119244.000000
4397 14194 1 0.16500 119244.000000
4398 12545 1 0.16500 119244.000000
4398 16037 1 0.16500 119244.000000
4399 12545 1 0.16500 119244.000000
4399 14124 1 0.16500 119244.000000
4400 12545 1 0.16500 119244.000000
4400 14691 1 0.16500 119244.000000
4401 12546 1 0.16500 119244.000000
4401 14948 1 0.16500 119244.000000
4402 12546 1 0.16500 119244.000000
4402 14051 1 0.16500 119244.000000
4403 12546 1 0.16500 119244.000000
4403 15833 1 0.16500 119244.000000
4404 12547 1 0.16500 119244.000000
4404 16308 1 0.16500 119244.000000
4405 12547 1 0.16500 119244.000000
4405 14863 1 0.16500 119244.000000
4406 12547 1 0.16500 119244.000000
4406 13933 1 0.16500 119244.000000
4407 12548 1 0.16500 119244.000000
4407 13646 1 0.16500 119244.000000
4408 12548 1 0.16500 119244.000000
4408 14664 1 0.16500 119244.000000
4409 12548 1 0.16500 119244.000000
4409 14972 1 0.16500 119244.000000
4410 12549 1 0.16500 119244.000000
4410 16043 1 0.16500 119244.000000
4411 12549 1 0.16500 119244.000000
4411 13216 1 0.16500 119244.000000
4412 12549 1 0.16500 119244.000000
4412 13426 1 0.16500 119244.000000
4413 12550 1 0.16500 119244.000000
4413 16508 1 0.16500 119244.000000
4414 12550 1 0.16500 119244.000000
4414 16439 1 0.16500 119244.000000
4415 12550 1 0.16500 119244.000000
4415 14846 1 0.16500 119244.000000
4416 12550 1 0.16500 119244.000000
4416 16059 1 0.16500 119244.000000
4417 12551 1 0.16500 119244.000000
4417 13589 1 0.16500 119244.000000
4418 12551 1 0.16500 119244.000000
4418 12611 1 0.16500 119244.000000
4419 12251 1 0.16500 119244.000000
4419 17624 1 0.16500 119244.000000
4420 12552 1 0.16500 119244.000000
4420 12613 1 0.16500 119244.000000
4421 12552 1 0.16500 119244.000000
4421 14449 1 0.16500 119244.000000
4422 12552 1 0.16500 119244.000000
4422 12626 1 0.16500 119244.000000
4423 12553 1 0.16500 119244.000000
4423 16177 1 0.16500 119244.000000
4424 12553 1 0.16500 119244.000000
4424 15235 1 0.16500 119244.000000
4425 12554 1 0.16500 119244.000000
4425 21667 1 0.16500 119244.000000
4426 12554 1 0.16500 119244.000000
4426 15173 1 0.16500 119244.000000
4427 12554 1 0.16500 119244.000000
4427 21433 1 0.16500 119244.000000
4428 12555 1 0.16500 119244.000000
4428 14368 1 0.16500 119244.000000
4429 12555 1 0.16500 119244.000000
4429 12980 1 0.16500 119244.000000
4430 12555 1 0.16500 119244.000000
4430 13201 1 0.16500 119244.000000
4431 12555 1 0.16500 119244.000000
4431 16624 1 0.16500 119244.000000
4432 16300 1 0.16500 119244.000000
4432 21376 1 0.16500 119244.000000
4433 13400 1 0.16500 119244.000000
4433 21376 1 0.16500 119244.000000
4434 14407 1 0.16500 119244.000000
4434 21376 1 0.16500 119244.000000
4435 13196 1 0.16500 119244.000000
4435 16658 1 0.16500 119244.000000
4436 12556 1 0.16500 119244.000000
4436 14131 1 0.16500 119244.000000
4437 12556 1 0.16500 119244.000000
4437 21886 1 0.16500 119244.000000
4438 12556 1 0.16500 119244.000000
4438 15395 1 0.16500 119244.000000
4439 12556 1 0.16500 119244.000000
4439 15492 1 0.16500 119244.000000
4440 12557 1 0.16500 119244.000000
4440 14542 1 0.16500 119244.000000
4441 12557 1 0.16500 119244.000000
4441 13142 1 0.16500 119244.000000
4442 12558 1 0.16500 119244.000000
4442 14073 1 0.16500 119244.000000
4443 12558 1 0.16500 119244.000000
4443 13102 1 0.16500 119244.000000
4444 11471 1 0.16500 119244.000000
4444 12558 1 0.16500 119244.000000
4445 12558 1 0.16500 119244.000000
4445 16485 1 0.16500 119244.000000
4446 12559 1 0.16500 119244.000000
4446 15246 1 0.16500 119244.000000
4447 12559 1 0.16500 119244.000000
4447 15295 1 0.16500 119244.000000
4448 12559 1 0.16500 119244.000000
4448 16612 1 0.16500 119244.000000
4449 12559 1 0.16500 119244.000000
4449 12988 1 0.16500 119244.000000
4450 12560 1 0.16500 119244.000000
4450 15736 1 0.16500 119244.000000
4451 12560 1 0.16500 119244.000000
4451 15325 1 0.16500 119244.000000
4452 12560 1 0.16500 119244.000000
4452 16416 1 0.16500 119244.000000
4453 12561 1 0.16500 119244.000000
4453 14083 1 0.16500 119244.000000
4454 12561 1 0.16500 119244.000000
4454 12713 1 0.16500 119244.000000
4455 12561 1 0.16500 119244.000000
4455 13500 1 0.16500 119244.000000
4456 12562 1 0.16500 119244.000000
4456 15171 1 0.16500 119244.000000
4457 12562 1 0.16500 119244.000000
4457 13032 1 0.16500 119244.000000
4458 12562 1 0.16500 119244.000000
4458 12703 1 0.16500 119244.000000
4459 12563 1 0.16500 119244.000000
4459 12887 1 0.16500 119244.000000
4460 12563 1 0.16500 119244.000000
4460 13594 1 0.16500 119244.000000
4461 12564 1 0.16500 119244.000000
4461 14194 1 0.16500 119244.000000
4462 12564 1 0.16500 119244.000000
4462 12593 1 0.16500 119244.000000
4463 11596 1 0.16500 119244.000000
4463 12564 1 0.16500 119244.000000
4464 12565 1 0.16500 119244.000000
4464 13051 1 0.16500 119244.000000
4465 12565 1 0.16500 119244.000000
4465 16136 1 0.16500 119244.000000
4466 12566 1 0.16500 119244.000000
4466 13074 1 0.16500 119244.000000
4467 12566 1 0.16500 119244.000000
4467 14406 1 0.16500 119244.000000
4468 12566 1 0.16500 119244.000000
4468 13255 1 0.16500 119244.000000
4469 12567 1 0.16500 119244.000000
4469 16132 1 0.16500 119244.000000
4470 12567 1 0.16500 119244.000000
4470 14328 1 0.16500 119244.000000
4471 12567 1 0.16500 119244.000000
4471 15391 1 0.16500 119244.000000
4472 12567 1 0.16500 119244.000000
4472 14515 1 0.16500 119244.000000
4473 12568 1 0.16500 119244.000000
4473 14548 1 0.16500 119244.000000
4474 12568 1 0.16500 119244.000000
4474 14867 1 0.16500 119244.000000
4475 12568 1 0.16500 119244.000000
4475 14462 1 0.16500 119244.000000
4476 15434 1 0.16500 119244.000000
4476 21379 1 0.16500 119244.000000
4477 16585 1 0.16500 119244.000000
4477 21379 1 0.16500 119244.000000
4478 16131 1 0.16500 119244.000000
4478 21379 1 0.16500 119244.000000
4479 15445 1 0.16500 119244.000000
4479 21382 1 0.16500 119244.000000
4480 14397 1 0.16500 119244.000000
4480 16173 1 0.16500 119244.000000
4481 16173 1 0.16500 119244.000000
4481 21382 1 0.16500 119244.000000
4482 12569 1 0.16500 119244.000000
4482 13632 1 0.16500 119244.000000
4483 12569 1 0.16500 119244.000000
4483 13779 1 0.16500 119244.000000
4484 12569 1 0.16500 119244.000000
4484 14353 1 0.16500 119244.000000
4485 12569 1 0.16500 119244.000000
4485 16396 1 0.16500 119244.000000
4486 12570 1 0.16500 119244.000000
4486 15487 1 0.16500 119244.000000
4487 12570 1 0.16500 119244.000000
4487 15163 1 0.16500 119244.000000
4488 12570 1 0.16500 119244.000000
4488 13636 1 0.16500 119244.000000
4489 12570 1 0.16500 119244.000000
4489 16536 1 0.16500 119244.000000
4490 12571 1 0.16500 119244.000000
4490 14136 1 0.16500 119244.000000
4491 12571 1 0.16500 119244.000000
4491 16163 1 0.16500 119244.000000
4492 12571 1 0.16500 119244.000000
4492 13036 1 0.16500 119244.000000
4493 12571 1 0.16500 119244.000000
4493 14601 1 0.16500 119244.000000
4494 12572 1 0.16500 119244.000000
4494 19618 1 0.16500 119244.000000
4495 14604 1 0.16500 119244.000000
4495 15978 1 0.16500 119244.000000
4496 12572 1 0.16500 119244.000000
4496 14604 1 0.16500 119244.000000
4497 12572 1 0.16500 119244.000000
4497 15779 1 0.16500 119244.000000
4498 12573 1 0.16500 119244.000000
4498 13441 1 0.16500 119244.000000
4499 12573 1 0.16500 119244.000000
4499 13121 1 0.16500 119244.000000
4500 12573 1 0.16500 119244.000000
4500 15561 1 0.16500 119244.000000
4501 12574 1 0.16500 119244.000000
4501 15752 1 0.16500 119244.000000
4502 12574 1 0.16500 119244.000000
4502 16526 1 0.16500 119244.000000
4503 12574 1 0.16500 119244.000000
4503 16465 1 0.16500 119244.000000
4504 12575 1 0.16500 119244.000000
4504 15994 1 0.16500 119244.000000
4505 12575 1 0.16500 119244.000000
4505 16140 1 0.16500 119244.000000
4506 12575 1 0.16500 119244.000000
4506 15005 1 0.16500 119244.000000
4507 12576 1 0.16500 119244.000000
4507 16212 1 0.16500 119244.000000
4508 12576 1 0.16500 119244.000000
4508 16438 1 0.16500 119244.000000
4509 12577 1 0.16500 119244.000000
4509 14719 1 0.16500 119244.000000
4510 12577 1 0.16500 119244.000000
4510 15626 1 0.16500 119244.000000
4511 12578 1 0.16500 119244.000000
4511 20038 1 0.16500 119244.000000
4512 12578 1 0.16500 119244.000000
4512 14020 1 0.16500 119244.000000
4513 12578 1 0.16500 119244.000000
4513 21478 1 0.16500 119244.000000
4514 13465 1 0.16500 119244.000000
4514 13483 1 0.16500 119244.000000
4515 20146 1 0.16500 119244.000000
4515 20554 1 0.16500 119244.000000
4516 13947 1 0.16500 119244.000000
4516 20554 1 0.16500 119244.000000
4517 16236 1 0.16500 119244.000000
4517 20554 1 0.16500 119244.000000
4518 12579 1 0.16500 119244.000000
4518 15673 1 0.16500 119244.000000
4519 12579 1 0.16500 119244.000000
4519 16300 1 0.16500 119244.000000
4520 12579 1 0.16500 119244.000000
4520 16488 1 0.16500 119244.000000
4521 12579 1 0.16500 119244.000000
4521 12807 1 0.16500 119244.000000
4522 12580 1 0.16500 119244.000000
4522 14985 1 0.16500 119244.000000
4523 12580 1 0.16500 119244.000000
4523 15242 1 0.16500 119244.000000
4524 12581 1 0.16500 119244.000000
4524 15444 1 0.16500 119244.000000
4525 12581 1 0.16500 119244.000000
4525 14241 1 0.16500 119244.000000
4526 12582 1 0.16500 119244.000000
4526 13372 1 0.16500 119244.000000
4527 12582 1 0.16500 119244.000000
4527 15754 1 0.16500 119244.000000
4528 11650 1 0.16500 119244.000000
4528 12582 1 0.16500 119244.000000
4529 12582 1 0.16500 119244.000000
4529 15866 1 0.16500 119244.000000
4530 12583 1 0.16500 119244.000000
4530 16338 1 0.16500 119244.000000
4531 12584 1 0.16500 119244.000000
4531 16387 1 0.16500 119244.000000
4532 12584 1 0.16500 119244.000000
4532 16456 1 0.16500 119244.000000
4533 11963 1 0.16500 119244.000000
4533 12584 1 0.16500 119244.000000
4534 18466 1 0.16500 119244.000000
4534 21385 1 0.16500 119244.000000
4535 14335 1 0.16500 119244.000000
4535 21385 1 0.16500 119244.000000
4536 12585 1 0.16500 119244.000000
4536 15179 1 0.16500 119244.000000
4537 12585 1 0.16500 119244.000000
4537 15060 1 0.16500 119244.000000
4538 12585 1 0.16500 119244.000000
4538 16166 1 0.16500 119244.000000
4539 14861 1 0.16500 119244.000000
4539 17932 1 0.16500 119244.000000
4540 12586 1 0.16500 119244.000000
4540 14614 1 0.16500 119244.000000
4541 12586 1 0.16500 119244.000000
4541 15865 1 0.16500 119244.000000
4542 12586 1 0.16500 119244.000000
4542 15108 1 0.16500 119244.000000
4543 12587 1 0.16500 119244.000000
4543 13970 1 0.16500 119244.000000
4544 12587 1 0.16500 119244.000000
4544 14029 1 0.16500 119244.000000
4545 12587 1 0.16500 119244.000000
4545 12748 1 0.16500 119244.000000
4546 12588 1 0.16500 119244.000000
4546 14293 1 0.16500 119244.000000
4547 12588 1 0.16500 119244.000000
4547 13258 1 0.16500 119244.000000
4548 12588 1 0.16500 119244.000000
4548 14238 1 0.16500 119244.000000
4549 12588 1 0.16500 119244.000000
4549 16401 1 0.16500 119244.000000
4550 12589 1 0.16500 119244.000000
4550 15670 1 0.16500 119244.000000
4551 12589 1 0.16500 119244.000000
4551 14460 1 0.16500 119244.000000
4552 12589 1 0.16500 119244.000000
4552 15258 1 0.16500 119244.000000
4553 19270 1 0.16500 119244.000000
4553 19978 1 0.16500 119244.000000
4554 12590 1 0.16500 119244.000000
4554 13147 1 0.16500 119244.000000
4555 12590 1 0.16500 119244.000000
4555 16415 1 0.16500 119244.000000
4556 12590 1 0.16500 119244.000000
4556 19978 1 0.16500 119244.000000
4557 12591 1 0.16500 119244.000000
4557 12645 1 0.16500 119244.000000
4558 12591 1 0.16500 119244.000000
4558 16167 1 0.16500 119244.000000
4559 12591 1 0.16500 119244.000000
4559 13890 1 0.16500 119244.000000
4560 12517 1 0.16500 119244.000000
4560 16499 1 0.16500 119244.000000
4561 12592 1 0.16500 119244.000000
4561 16516 1 0.16500 119244.000000
4562 12592 1 0.16500 119244.000000
4562 14801 1 0.16500 119244.000000
4563 12593 1 0.16500 119244.000000
4563 14186 1 0.16500 119244.000000
4564 12593 1 0.16500 119244.000000
4564 13292 1 0.16500 119244.000000
4565 12594 1 0.16500 119244.000000
4565 21814 1 0.16500 119244.000000
4566 12594 1 0.16500 119244.000000
4566 15478 1 0.16500 119244.000000
4567 12595 1 0.16500 119244.000000
4567 15542 1 0.16500 119244.000000
4568 12596 1 0.16500 119244.000000
4568 14278 1 0.16500 119244.000000
4569 12596 1 0.16500 119244.000000
4569 13329 1 0.16500 119244.000000
4570 12596 1 0.16500 119244.000000
4570 16570 1 0.16500 119244.000000
4571 12596 1 0.16500 119244.000000
4571 12740 1 0.16500 119244.000000
4572 12597 1 0.16500 119244.000000
4572 15029 1 0.16500 119244.000000
4573 12597 1 0.16500 119244.000000
4573 15739 1 0.16500 119244.000000
4574 12597 1 0.16500 119244.000000
4574 15109 1 0.16500 119244.000000
4575 12598 1 0.16500 119244.000000
4575 15237 1 0.16500 119244.000000
4576 12598 1 0.16500 119244.000000
4576 13465 1 0.16500 119244.000000
4577 12598 1 0.16500 119244.000000
4577 17624 1 0.16500 119244.000000
4578 12598 1 0.16500 119244.000000
4578 13135 1 0.16500 119244.000000
4579 12599 1 0.16500 119244.000000
4579 13573 1 0.16500 119244.000000
4580 12599 1 0.16500 119244.000000
4580 15348 1 0.16500 119244.000000
4581 12599 1 0.16500 119244.000000
4581 14669 1 0.16500 119244.000000
4582 12599 1 0.16500 119244.000000
4582 15481 1 0.16500 119244.000000
4583 12600 1 0.16500 119244.000000
4583 13300 1 0.16500 119244.000000
4584 13300 1 0.16500 119244.000000
4584 21766 1 0.16500 119244.000000
4585 12601 1 0.16500 119244.000000
4585 16086 1 0.16500 119244.000000
4586 14706 1 0.16500 119244.000000
4586 19714 1 0.16500 119244.000000
4587 19714 1 0.16500 119244.000000
4587 20530 1 0.16500 119244.000000
4588 14440 1 0.16500 119244.000000
4588 19714 1 0.16500 119244.000000
4589 15381 1 0.16500 119244.000000
4589 18862 1 0.16500 119244.000000
4590 13063 1 0.16500 119244.000000
4590 15381 1 0.16500 119244.000000
4591 12602 1 0.16500 119244.000000
4591 15381 1 0.16500 119244.000000
4592 13736 1 0.16500 119244.000000
4592 15381 1 0.16500 119244.000000
4593 14692 1 0.16500 119244.000000
4593 15142 1 0.16500 119244.000000
4594 12603 1 0.16500 119244.000000
4594 14983 1 0.16500 119244.000000
4595 12603 1 0.16500 119244.000000
4595 15142 1 0.16500 119244.000000
4596 12604 1 0.16500 119244.000000
4596 12933 1 0.16500 119244.000000
4597 12604 1 0.16500 119244.000000
4597 15600 1 0.16500 119244.000000
4598 12604 1 0.16500 119244.000000
4598 15522 1 0.16500 119244.000000
4599 12605 1 0.16500 119244.000000
4599 13884 1 0.16500 119244.000000
4600 12605 1 0.16500 119244.000000
4600 12722 1 0.16500 119244.000000
4601 12605 1 0.16500 119244.000000
4601 15237 1 0.16500 119244.000000
4602 12605 1 0.16500 119244.000000
4602 15214 1 0.16500 119244.000000
4603 16245 1 0.16500 119244.000000
4603 21388 1 0.16500 119244.000000
4604 19222 1 0.16500 119244.000000
4604 21388 1 0.16500 119244.000000
4605 12606 1 0.16500 119244.000000
4605 15985 1 0.16500 119244.000000
4606 12606 1 0.16500 119244.000000
4606 12658 1 0.16500 119244.000000
4607 13855 1 0.16500 119244.000000
4607 16296 1 0.16500 119244.000000
4608 13855 1 0.16500 119244.000000
4608 15520 1 0.16500 119244.000000
4609 12607 1 0.16500 119244.000000
4609 13388 1 0.16500 119244.000000
4610 12607 1 0.16500 119244.000000
4610 15426 1 0.16500 119244.000000
4611 12607 1 0.16500 119244.000000
4611 15711 1 0.16500 119244.000000
4612 12607 1 0.16500 119244.000000
4612 15753 1 0.16500 119244.000000
4613 12608 1 0.16500 119244.000000
4613 15980 1 0.16500 119244.000000
4614 12608 1 0.16500 119244.000000
4614 14233 1 0.16500 119244.000000
4615 12608 1 0.16500 119244.000000
4615 14933 1 0.16500 119244.000000
4616 12608 1 0.16500 119244.000000
4616 15430 1 0.16500 119244.000000
4617 12609 1 0.16500 119244.000000
4617 19114 1 0.16500 119244.000000
4618 12609 1 0.16500 119244.000000
4618 14911 1 0.16500 119244.000000
4619 12609 1 0.16500 119244.000000
4619 15481 1 0.16500 119244.000000
4620 12610 1 0.16500 119244.000000
4620 15799 1 0.16500 119244.000000
4621 12610 1 0.16500 119244.000000
4621 13478 1 0.16500 119244.000000
4622 12610 1 0.16500 119244.000000
4622 14443 1 0.16500 119244.000000
4623 12611 1 0.16500 119244.000000
4623 15180 1 0.16500 119244.000000
4624 11500 1 0.16500 119244.000000
4624 12611 1 0.16500 119244.000000
4625 12481 1 0.16500 119244.000000
4625 14391 1 0.16500 119244.000000
4626 12612 1 0.16500 119244.000000
4626 14794 1 0.16500 119244.000000
4627 12612 1 0.16500 119244.000000
4627 13076 1 0.16500 119244.000000
4628 12613 1 0.16500 119244.000000
4628 15282 1 0.16500 119244.000000
4629 12613 1 0.16500 119244.000000
4629 13804 1 0.16500 119244.000000
4630 12614 1 0.16500 119244.000000
4630 13422 1 0.16500 119244.000000
4631 12614 1 0.16500 119244.000000
4631 15263 1 0.16500 119244.000000
4632 12614 1 0.16500 119244.000000
4632 13125 1 0.16500 119244.000000
4633 12614 1 0.16500 119244.000000
4633 14611 1 0.16500 119244.000000
4634 12615 1 0.16500 119244.000000
4634 13809 1 0.16500 119244.000000
4635 12615 1 0.16500 119244.000000
4635 15815 1 0.16500 119244.000000
4636 20590 1 0.16500 119244.000000
4636 21940 1 0.16500 119244.000000
4637 13495 1 0.16500 119244.000000
4637 20590 1 0.16500 119244.000000
4638 12981 1 0.16500 119244.000000
4638 20590 1 0.16500 119244.000000
4639 11506 1 0.16500 119244.000000
4639 16381 1 0.16500 119244.000000
4640 11506 1 0.16500 119244.000000
4640 13892 1 0.16500 119244.000000
4641 12617 1 0.16500 119244.000000
4641 16145 1 0.16500 119244.000000
4642 12617 1 0.16500 119244.000000
4642 15369 1 0.16500 119244.000000
4643 12617 1 0.16500 119244.000000
4643 14985 1 0.16500 119244.000000
4644 12617 1 0.16500 119244.000000
4644 13537 1 0.16500 119244.000000
4645 12618 1 0.16500 119244.000000
4645 14207 1 0.16500 119244.000000
4646 12618 1 0.16500 119244.000000
4646 15989 1 0.16500 119244.000000
4647 12618 1 0.16500 119244.000000
4647 16594 1 0.16500 119244.000000
4648 12619 1 0.16500 119244.000000
4648 12636 1 0.16500 119244.000000
4649 12619 1 0.16500 119244.000000
4649 12633 1 0.16500 119244.000000
4650 12619 1 0.16500 119244.000000
4650 16728 1 0.16500 119244.000000
4651 12620 1 0.16500 119244.000000
4651 16169 1 0.16500 119244.000000
4652 12620 1 0.16500 119244.000000
4652 16442 1 0.16500 119244.000000
4653 12620 1 0.16500 119244.000000
4653 13053 1 0.16500 119244.000000
4654 12621 1 0.16500 119244.000000
4654 12828 1 0.16500 119244.000000
4655 12621 1 0.16500 119244.000000
4655 14047 1 0.16500 119244.000000
4656 12621 1 0.16500 119244.000000
4656 13282 1 0.16500 119244.000000
4657 12621 1 0.16500 119244.000000
4657 15766 1 0.16500 119244.000000
4658 12622 1 0.16500 119244.000000
4658 13687 1 0.16500 119244.000000
4659 12622 1 0.16500 119244.000000
4659 15167 1 0.16500 119244.000000
4660 12623 1 0.16500 119244.000000
4660 16571 1 0.16500 119244.000000
4661 12623 1 0.16500 119244.000000
4661 16614 1 0.16500 119244.000000
4662 12623 1 0.16500 119244.000000
4662 15899 1 0.16500 119244.000000
4663 12623 1 0.16500 119244.000000
4663 13064 1 0.16500 119244.000000
4664 12624 1 0.16500 119244.000000
4664 13856 1 0.16500 119244.000000
4665 12624 1 0.16500 119244.000000
4665 15656 1 0.16500 119244.000000
4666 12624 1 0.16500 119244.000000
4666 15415 1 0.16500 119244.000000
4667 12625 1 0.16500 119244.000000
4667 16530 1 0.16500 119244.000000
4668 12625 1 0.16500 119244.000000
4668 16286 1 0.16500 119244.000000
4669 12625 1 0.16500 119244.000000
4669 15446 1 0.16500 119244.000000
4670 12625 1 0.16500 119244.000000
4670 12996 1 0.16500 119244.000000
4671 12626 1 0.16500 119244.000000
4671 14872 1 0.16500 119244.000000
4672 12626 1 0.16500 119244.000000
4672 14355 1 0.16500 119244.000000
4673 12626 1 0.16500 119244.000000
4673 15731 1 0.16500 119244.000000
4674 12627 1 0.16500 119244.000000
4674 14253 1 0.16500 119244.000000
4675 12627 1 0.16500 119244.000000
4675 13597 1 0.16500 119244.000000
4676 13929 1 0.16500 119244.000000
4676 15334 1 0.16500 119244.000000
4677 12627 1 0.16500 119244.000000
4677 15334 1 0.16500 119244.000000
4678 12628 1 0.16500 119244.000000
4678 12854 1 0.16500 119244.000000
4679 12628 1 0.16500 119244.000000
4679 13582 1 0.16500 119244.000000
4680 12628 1 0.16500 119244.000000
4680 16225 1 0.16500 119244.000000
4681 12628 1 0.16500 119244.000000
4681 16217 1 0.16500 119244.000000
4682 12629 1 0.16500 119244.000000
4682 16327 1 0.16500 119244.000000
4683 12629 1 0.16500 119244.000000
4683 16402 1 0.16500 119244.000000
4684 12630 1 0.16500 119244.000000
4684 14222 1 0.16500 119244.000000
4685 12630 1 0.16500 119244.000000
4685 13114 1 0.16500 119244.000000
4686 12630 1 0.16500 119244.000000
4686 14381 1 0.16500 119244.000000
4687 12630 1 0.16500 119244.000000
4687 13070 1 0.16500 119244.000000
4688 12631 1 0.16500 119244.000000
4688 14922 1 0.16500 119244.000000
4689 12631 1 0.16500 119244.000000
4689 14765 1 0.16500 119244.000000
4690 12631 1 0.16500 119244.000000
4690 12744 1 0.16500 119244.000000
4691 12632 1 0.16500 119244.000000
4691 14415 1 0.16500 119244.000000
4692 12632 1 0.16500 119244.000000
4692 21553 1 0.16500 119244.000000
4693 12632 1 0.16500 119244.000000
4693 15003 1 0.16500 119244.000000
4694 12633 1 0.16500 119244.000000
4694 15826 1 0.16500 119244.000000
4695 12633 1 0.16500 119244.000000
4695 16143 1 0.16500 119244.000000
4696 12634 1 0.16500 119244.000000
4696 13268 1 0.16500 119244.000000
4697 12634 1 0.16500 119244.000000
4697 15854 1 0.16500 119244.000000
4698 12635 1 0.16500 119244.000000
4698 15196 1 0.16500 119244.000000
4699 12635 1 0.16500 119244.000000
4699 15486 1 0.16500 119244.000000
4700 12636 1 0.16500 119244.000000
4700 13971 1 0.16500 119244.000000
4701 12636 1 0.16500 119244.000000
4701 17106 1 0.16500 119244.000000
4702 12637 1 0.16500 119244.000000
4702 15560 1 0.16500 119244.000000
4703 12637 1 0.16500 119244.000000
4703 13287 1 0.16500 119244.000000
4704 12637 1 0.16500 119244.000000
4704 14181 1 0.16500 119244.000000
4705 12638 1 0.16500 119244.000000
4705 13803 1 0.16500 119244.000000
4706 12638 1 0.16500 119244.000000
4706 15197 1 0.16500 119244.000000
4707 12638 1 0.16500 119244.000000
4707 21595 1 0.16500 119244.000000
4708 12639 1 0.16500 119244.000000
4708 13811 1 0.16500 119244.000000
4709 12639 1 0.16500 119244.000000
4709 20302 1 0.16500 119244.000000
4710 12639 1 0.16500 119244.000000
4710 15074 1 0.16500 119244.000000
4711 12640 1 0.16500 119244.000000
4711 14629 1 0.16500 119244.000000
4712 12640 1 0.16500 119244.000000
4712 14083 1 0.16500 119244.000000
4713 12640 1 0.16500 119244.000000
4713 12656 1 0.16500 119244.000000
4714 12640 1 0.16500 119244.000000
4714 15047 1 0.16500 119244.000000
4715 12641 1 0.16500 119244.000000
4715 13070 1 0.16500 119244.000000
4716 12641 1 0.16500 119244.000000
4716 14453 1 0.16500 119244.000000
4717 12642 1 0.16500 119244.000000
4717 13176 1 0.16500 119244.000000
4718 12642 1 0.16500 119244.000000
4718 16328 1 0.16500 119244.000000
4719 12642 1 0.16500 119244.000000
4719 15618 1 0.16500 119244.000000
4720 12642 1 0.16500 119244.000000
4720 13838 1 0.16500 119244.000000
4721 12643 1 0.16500 119244.000000
4721 13482 1 0.16500 119244.000000
4722 12643 1 0.16500 119244.000000
4722 12692 1 0.16500 119244.000000
4723 12643 1 0.16500 119244.000000
4723 12653 1 0.16500 119244.000000
4724 12643 1 0.16500 119244.000000
4724 13633 1 0.16500 119244.000000
4725 12644 1 0.16500 119244.000000
4725 16152 1 0.16500 119244.000000
4726 12644 1 0.16500 119244.000000
4726 16489 1 0.16500 119244.000000
4727 12644 1 0.16500 119244.000000
4727 15940 1 0.16500 119244.000000
4728 12644 1 0.16500 119244.000000
4728 14847 1 0.16500 119244.000000
4729 12645 1 0.16500 119244.000000
4729 13274 1 0.16500 119244.000000
4730 12645 1 0.16500 119244.000000
4730 13198 1 0.16500 119244.000000
4731 12645 1 0.16500 119244.000000
4731 14182 1 0.16500 119244.000000
4732 12646 1 0.16500 119244.000000
4732 14304 1 0.16500 119244.000000
4733 12646 1 0.16500 119244.000000
4733 21946 1 0.16500 119244.000000
4734 12646 1 0.16500 119244.000000
4734 12761 1 0.16500 119244.000000
4735 12646 1 0.16500 119244.000000
4735 20206 1 0.16500 119244.000000
4736 12647 1 0.16500 119244.000000
4736 14100 1 0.16500 119244.000000
4737 12647 1 0.16500 119244.000000
4737 19294 1 0.16500 119244.000000
4738 12648 1 0.16500 119244.000000
4738 21694 1 0.16500 119244.000000
4739 12648 1 0.16500 119244.000000
4739 15676 1 0.16500 119244.000000
4740 12648 1 0.16500 119244.000000
4740 16172 1 0.16500 119244.000000
4741 12648 1 0.16500 119244.000000
4741 13234 1 0.16500 119244.000000
4742 12649 1 0.16500 119244.000000
4742 14161 1 0.16500 119244.000000
4743 12649 1 0.16500 119244.000000
4743 13917 1 0.16500 119244.000000
4744 12649 1 0.16500 119244.000000
4744 12709 1 0.16500 119244.000000
4745 12650 1 0.16500 119244.000000
4745 16187 1 0.16500 119244.000000
4746 12650 1 0.16500 119244.000000
4746 13108 1 0.16500 119244.000000
4747 12651 1 0.16500 119244.000000
4747 14472 1 0.16500 119244.000000
4748 12651 1 0.16500 119244.000000
4748 16220 1 0.16500 119244.000000
4749 12651 1 0.16500 119244.000000
4749 15485 1 0.16500 119244.000000
4750 12652 1 0.16500 119244.000000
4750 12887 1 0.16500 119244.000000
4751 12652 1 0.16500 119244.000000
4751 13667 1 0.16500 119244.000000
4752 12653 1 0.16500 119244.000000
4752 13661 1 0.16500 119244.000000
4753 12653 1 0.16500 119244.000000
4753 15155 1 0.16500 119244.000000
4754 12653 1 0.16500 119244.000000
4754 16102 1 0.16500 119244.000000
4755 13956 1 0.16500 119244.000000
4755 16102 1 0.16500 119244.000000
4756 12654 1 0.16500 119244.000000
4756 12876 1 0.16500 119244.000000
4757 12654 1 0.16500 119244.000000
4757 16043 1 0.16500 119244.000000
4758 12654 1 0.16500 119244.000000
4758 14632 1 0.16500 119244.000000
4759 12655 1 0.16500 119244.000000
4759 16009 1 0.16500 119244.000000
4760 13887 1 0.16500 119244.000000
4760 14354 1 0.16500 119244.000000
4761 12655 1 0.16500 119244.000000
4761 14354 1 0.16500 119244.000000
4762 12656 1 0.16500 119244.000000
4762 13683 1 0.16500 119244.000000
4763 12656 1 0.16500 119244.000000
4763 16144 1 0.16500 119244.000000
4764 12656 1 0.16500 119244.000000
4764 12936 1 0.16500 119244.000000
4765 12657 1 0.16500 119244.000000
4765 15059 1 0.16500 119244.000000
4766 12658 1 0.16500 119244.000000
4766 15161 1 0.16500 119244.000000
4767 12658 1 0.16500 119244.000000
4767 15385 1 0.16500 119244.000000
4768 12658 1 0.16500 119244.000000
4768 15413 1 0.16500 119244.000000
4769 12659 1 0.16500 119244.000000
4769 14116 1 0.16500 119244.000000
4770 12659 1 0.16500 119244.000000
4770 14337 1 0.16500 119244.000000
4771 18128 1 0.16500 119244.000000
4771 21571 1 0.16500 119244.000000
4772 13997 1 0.16500 119244.000000
4772 18128 1 0.16500 119244.000000
4773 12660 1 0.16500 119244.000000
4773 14791 1 0.16500 119244.000000
4774 12660 1 0.16500 119244.000000
4774 12900 1 0.16500 119244.000000
4775 12660 1 0.16500 119244.000000
4775 13139 1 0.16500 119244.000000
4776 12660 1 0.16500 119244.000000
4776 14821 1 0.16500 119244.000000
4777 12661 1 0.16500 119244.000000
4777 21487 1 0.16500 119244.000000
4778 12661 1 0.16500 119244.000000
4778 13320 1 0.16500 119244.000000
4779 12661 1 0.16500 119244.000000
4779 21922 1 0.16500 119244.000000
4780 12661 1 0.16500 119244.000000
4780 12715 1 0.16500 119244.000000
4781 12662 1 0.16500 119244.000000
4781 15727 1 0.16500 119244.000000
4782 12662 1 0.16500 119244.000000
4782 15267 1 0.16500 119244.000000
4783 13759 1 0.16500 119244.000000
4783 15727 1 0.16500 119244.000000
4784 12663 1 0.16500 119244.000000
4784 16148 1 0.16500 119244.000000
4785 12663 1 0.16500 119244.000000
4785 13617 1 0.16500 119244.000000
4786 12664 1 0.16500 119244.000000
4786 16386 1 0.16500 119244.000000
4787 12664 1 0.16500 119244.000000
4787 12942 1 0.16500 119244.000000
4788 12664 1 0.16500 119244.000000
4788 14433 1 0.16500 119244.000000
4789 12373 1 0.16500 119244.000000
4789 12665 1 0.16500 119244.000000
4790 16077 1 0.16500 119244.000000
4790 21391 1 0.16500 119244.000000
4791 13615 1 0.16500 119244.000000
4791 21391 1 0.16500 119244.000000
4792 21391 1 0.16500 119244.000000
4792 21397 1 0.16500 119244.000000
4793 12666 1 0.16500 119244.000000
4793 13865 1 0.16500 119244.000000
4794 12666 1 0.16500 119244.000000
4794 13228 1 0.16500 119244.000000
4795 13093 1 0.16500 119244.000000
4795 17736 1 0.16500 119244.000000
4796 12667 1 0.16500 119244.000000
4796 15045 1 0.16500 119244.000000
4797 12667 1 0.16500 119244.000000
4797 13744 1 0.16500 119244.000000
4798 12667 1 0.16500 119244.000000
4798 15372 1 0.16500 119244.000000
4799 12667 1 0.16500 119244.000000
4799 14900 1 0.16500 119244.000000
4800 12668 1 0.16500 119244.000000
4800 16119 1 0.16500 119244.000000
4801 12669 1 0.16500 119244.000000
4801 13108 1 0.16500 119244.000000
4802 13108 1 0.16500 119244.000000
4802 16271 1 0.16500 119244.000000
4803 12669 1 0.16500 119244.000000
4803 15045 1 0.16500 119244.000000
4804 12670 1 0.16500 119244.000000
4804 15919 1 0.16500 119244.000000
4805 12670 1 0.16500 119244.000000
4805 14830 1 0.16500 119244.000000
4806 12078 1 0.16500 119244.000000
4806 13019 1 0.16500 119244.000000
4807 12671 1 0.16500 119244.000000
4807 13596 1 0.16500 119244.000000
4808 12671 1 0.16500 119244.000000
4808 14699 1 0.16500 119244.000000
4809 12671 1 0.16500 119244.000000
4809 20854 1 0.16500 119244.000000
4810 13931 1 0.16500 119244.000000
4810 21394 1 0.16500 119244.000000
4811 13931 1 0.16500 119244.000000
4811 17554 1 0.16500 119244.000000
4812 15425 1 0.16500 119244.000000
4812 21394 1 0.16500 119244.000000
4813 14761 1 0.16500 119244.000000
4813 20818 1 0.16500 119244.000000
4814 13419 1 0.16500 119244.000000
4814 20818 1 0.16500 119244.000000
4815 15288 1 0.16500 119244.000000
4815 18380 1 0.16500 119244.000000
4816 14789 1 0.16500 119244.000000
4816 18380 1 0.16500 119244.000000
4817 16924 1 0.16500 119244.000000
4817 21604 1 0.16500 119244.000000
4818 12672 1 0.16500 119244.000000
4818 15959 1 0.16500 119244.000000
4819 12672 1 0.16500 119244.000000
4819 13499 1 0.16500 119244.000000
4820 12672 1 0.16500 119244.000000
4820 15400 1 0.16500 119244.000000
4821 12673 1 0.16500 119244.000000
4821 12788 1 0.16500 119244.000000
4822 12673 1 0.16500 119244.000000
4822 13960 1 0.16500 119244.000000
4823 12673 1 0.16500 119244.000000
4823 14055 1 0.16500 119244.000000
4824 12673 1 0.16500 119244.000000
4824 15030 1 0.16500 119244.000000
4825 12674 1 0.16500 119244.000000
4825 15871 1 0.16500 119244.000000
4826 12674 1 0.16500 119244.000000
4826 15836 1 0.16500 119244.000000
4827 12674 1 0.16500 119244.000000
4827 14418 1 0.16500 119244.000000
4828 12675 1 0.16500 119244.000000
4828 14030 1 0.16500 119244.000000
4829 12675 1 0.16500 119244.000000
4829 12986 1 0.16500 119244.000000
4830 12675 1 0.16500 119244.000000
4830 15543 1 0.16500 119244.000000
4831 12676 1 0.16500 119244.000000
4831 16349 1 0.16500 119244.000000
4832 12676 1 0.16500 119244.000000
4832 14846 1 0.16500 119244.000000
4833 12676 1 0.16500 119244.000000
4833 15749 1 0.16500 119244.000000
4834 12676 1 0.16500 119244.000000
4834 13010 1 0.16500 119244.000000
4835 12677 1 0.16500 119244.000000
4835 14978 1 0.16500 119244.000000
4836 12677 1 0.16500 119244.000000
4836 16584 1 0.16500 119244.000000
4837 12677 1 0.16500 119244.000000
4837 13299 1 0.16500 119244.000000
4838 12678 1 0.16500 119244.000000
4838 13926 1 0.16500 119244.000000
4839 12678 1 0.16500 119244.000000
4839 13293 1 0.16500 119244.000000
4840 12678 1 0.16500 119244.000000
4840 14903 1 0.16500 119244.000000
4841 12679 1 0.16500 119244.000000
4841 13884 1 0.16500 119244.000000
4842 12679 1 0.16500 119244.000000
4842 14896 1 0.16500 119244.000000
4843 12679 1 0.16500 119244.000000
4843 14542 1 0.16500 119244.000000
4844 12679 1 0.16500 119244.000000
4844 13194 1 0.16500 119244.000000
4845 12680 1 0.16500 119244.000000
4845 13088 1 0.16500 119244.000000
4846 12680 1 0.16500 119244.000000
4846 13732 1 0.16500 119244.000000
4847 12680 1 0.16500 119244.000000
4847 14810 1 0.16500 119244.000000
4848 15773 1 0.16500 119244.000000
4848 15934 1 0.16500 119244.000000
4849 15934 1 0.16500 119244.000000
4849 16756 1 0.16500 119244.000000
4850 12681 1 0.16500 119244.000000
4850 14612 1 0.16500 119244.000000
4851 12681 1 0.16500 119244.000000
4851 14009 1 0.16500 119244.000000
4852 12681 1 0.16500 119244.000000
4852 16051 1 0.16500 119244.000000
4853 12682 1 0.16500 119244.000000
4853 21886 1 0.16500 119244.000000
4854 12682 1 0.16500 119244.000000
4854 14465 1 0.16500 119244.000000
4855 12682 1 0.16500 119244.000000
4855 14956 1 0.16500 119244.000000
4856 12683 1 0.16500 119244.000000
4856 15983 1 0.16500 119244.000000
4857 12683 1 0.16500 119244.000000
4857 15889 1 0.16500 119244.000000
4858 12684 1 0.16500 119244.000000
4858 16203 1 0.16500 119244.000000
4859 12684 1 0.16500 119244.000000
4859 13364 1 0.16500 119244.000000
4860 12101 1 0.16500 119244.000000
4860 14830 1 0.16500 119244.000000
4861 13284 1 0.16500 119244.000000
4861 16854 1 0.16500 119244.000000
4862 13196 1 0.16500 119244.000000
4862 16854 1 0.16500 119244.000000
4863 12685 1 0.16500 119244.000000
4863 16001 1 0.16500 119244.000000
4864 12685 1 0.16500 119244.000000
4864 16292 1 0.16500 119244.000000
4865 12685 1 0.16500 119244.000000
4865 14644 1 0.16500 119244.000000
4866 12685 1 0.16500 119244.000000
4866 16623 1 0.16500 119244.000000
4867 12686 1 0.16500 119244.000000
4867 14958 1 0.16500 119244.000000
4868 12686 1 0.16500 119244.000000
4868 15243 1 0.16500 119244.000000
4869 12686 1 0.16500 119244.000000
4869 15227 1 0.16500 119244.000000
4870 17708 1 0.16500 119244.000000
4870 21529 1 0.16500 119244.000000
4871 14914 1 0.16500 119244.000000
4871 17708 1 0.16500 119244.000000
4872 12687 1 0.16500 119244.000000
4872 15057 1 0.16500 119244.000000
4873 12688 1 0.16500 119244.000000
4873 13754 1 0.16500 119244.000000
4874 12688 1 0.16500 119244.000000
4874 15062 1 0.16500 119244.000000
4875 12688 1 0.16500 119244.000000
4875 14334 1 0.16500 119244.000000
4876 12689 1 0.16500 119244.000000
4876 12742 1 0.16500 119244.000000
4877 12689 1 0.16500 119244.000000
4877 15610 1 0.16500 119244.000000
4878 12689 1 0.16500 119244.000000
4878 13455 1 0.16500 119244.000000
4879 12690 1 0.16500 119244.000000
4879 15800 1 0.16500 119244.000000
4880 12691 1 0.16500 119244.000000
4880 13592 1 0.16500 119244.000000
4881 12691 1 0.16500 119244.000000
4881 16317 1 0.16500 119244.000000
4882 12691 1 0.16500 119244.000000
4882 13562 1 0.16500 119244.000000
4883 12692 1 0.16500 119244.000000
4883 13750 1 0.16500 119244.000000
4884 12692 1 0.16500 119244.000000
4884 13843 1 0.16500 119244.000000
4885 12692 1 0.16500 119244.000000
4885 14660 1 0.16500 119244.000000
4886 14994 1 0.16500 119244.000000
4886 17610 1 0.16500 119244.000000
4887 12693 1 0.16500 119244.000000
4887 16589 1 0.16500 119244.000000
4888 12693 1 0.16500 119244.000000
4888 13043 1 0.16500 119244.000000
4889 12693 1 0.16500 119244.000000
4889 15983 1 0.16500 119244.000000
4890 12693 1 0.16500 119244.000000
4890 14915 1 0.16500 119244.000000
4891 12694 1 0.16500 119244.000000
4891 12874 1 0.16500 119244.000000
4892 12694 1 0.16500 119244.000000
4892 14453 1 0.16500 119244.000000
4893 12694 1 0.16500 119244.000000
4893 14381 1 0.16500 119244.000000
4894 14246 1 0.16500 119244.000000
4894 18170 1 0.16500 119244.000000
4895 13381 1 0.16500 119244.000000
4895 18268 1 0.16500 119244.000000
4896 18268 1 0.16500 119244.000000
4896 21607 1 0.16500 119244.000000
4897 12695 1 0.16500 119244.000000
4897 15495 1 0.16500 119244.000000
4898 12695 1 0.16500 119244.000000
4898 13870 1 0.16500 119244.000000
4899 14219 1 0.16500 119244.000000
4899 16061 1 0.16500 119244.000000
4900 14219 1 0.16500 119244.000000
4900 19870 1 0.16500 119244.000000
4901 12837 1 0.16500 119244.000000
4901 19870 1 0.16500 119244.000000
4902 12696 1 0.16500 119244.000000
4902 13201 1 0.16500 119244.000000
4903 12696 1 0.16500 119244.000000
4903 15036 1 0.16500 119244.000000
4904 12696 1 0.16500 119244.000000
4904 14357 1 0.16500 119244.000000
4905 12696 1 0.16500 119244.000000
4905 13275 1 0.16500 119244.000000
4906 12697 1 0.16500 119244.000000
4906 14092 1 0.16500 119244.000000
4907 12697 1 0.16500 119244.000000
4907 13793 1 0.16500 119244.000000
4908 12697 1 0.16500 119244.000000
4908 13193 1 0.16500 119244.000000
4909 12697 1 0.16500 119244.000000
4909 15419 1 0.16500 119244.000000
4910 12698 1 0.16500 119244.000000
4910 16381 1 0.16500 119244.000000
4911 12698 1 0.16500 119244.000000
4911 16342 1 0.16500 119244.000000
4912 12698 1 0.16500 119244.000000
4912 13402 1 0.16500 119244.000000
4913 12698 1 0.16500 119244.000000
4913 14846 1 0.16500 119244.000000
4914 12699 1 0.16500 119244.000000
4914 15109 1 0.16500 119244.000000
4915 12699 1 0.16500 119244.000000
4915 13647 1 0.16500 119244.000000
4916 12699 1 0.16500 119244.000000
4916 16378 1 0.16500 119244.000000
4917 12699 1 0.16500 119244.000000
4917 15491 1 0.16500 119244.000000
4918 12700 1 0.16500 119244.000000
4918 14259 1 0.16500 119244.000000
4919 12700 1 0.16500 119244.000000
4919 15336 1 0.16500 119244.000000
4920 12700 1 0.16500 119244.000000
4920 13549 1 0.16500 119244.000000
4921 12700 1 0.16500 119244.000000
4921 15561 1 0.16500 119244.000000
4922 12701 1 0.16500 119244.000000
4922 13403 1 0.16500 119244.000000
4923 12702 1 0.16500 119244.000000
4923 15168 1 0.16500 119244.000000
4924 12702 1 0.16500 119244.000000
4924 12845 1 0.16500 119244.000000
4925 12702 1 0.16500 119244.000000
4925 14541 1 0.16500 119244.000000
4926 12703 1 0.16500 119244.000000
4926 13746 1 0.16500 119244.000000
4927 12703 1 0.16500 119244.000000
4927 12917 1 0.16500 119244.000000
4928 12703 1 0.16500 119244.000000
4928 12958 1 0.16500 119244.000000
4929 19114 1 0.16500 119244.000000
4929 19750 1 0.16500 119244.000000
4930 19114 1 0.16500 119244.000000
4930 21469 1 0.16500 119244.000000
4931 12704 1 0.16500 119244.000000
4931 16483 1 0.16500 119244.000000
4932 14210 1 0.16500 119244.000000
4932 21400 1 0.16500 119244.000000
4933 12705 1 0.16500 119244.000000
4933 13733 1 0.16500 119244.000000
4934 12705 1 0.16500 119244.000000
4934 14827 1 0.16500 119244.000000
4935 12705 1 0.16500 119244.000000
4935 14532 1 0.16500 119244.000000
4936 12705 1 0.16500 119244.000000
4936 15973 1 0.16500 119244.000000
4937 13238 1 0.16500 119244.000000
4937 15012 1 0.16500 119244.000000
4938 12706 1 0.16500 119244.000000
4938 21523 1 0.16500 119244.000000
4939 12706 1 0.16500 119244.000000
4939 15012 1 0.16500 119244.000000
4940 15949 1 0.16500 119244.000000
4940 16248 1 0.16500 119244.000000
4941 12707 1 0.16500 119244.000000
4941 13086 1 0.16500 119244.000000
4942 12707 1 0.16500 119244.000000
4942 16248 1 0.16500 119244.000000
4943 12707 1 0.16500 119244.000000
4943 14751 1 0.16500 119244.000000
4944 12708 1 0.16500 119244.000000
4944 15694 1 0.16500 119244.000000
4945 12708 1 0.16500 119244.000000
4945 14137 1 0.16500 119244.000000
4946 12708 1 0.16500 119244.000000
4946 14959 1 0.16500 119244.000000
4947 12709 1 0.16500 119244.000000
4947 13050 1 0.16500 119244.000000
4948 12709 1 0.16500 119244.000000
4948 16342 1 0.16500 119244.000000
4949 12709 1 0.16500 119244.000000
4949 13347 1 0.16500 119244.000000
4950 12710 1 0.16500 119244.000000
4950 15592 1 0.16500 119244.000000
4951 12710 1 0.16500 119244.000000
4951 15553 1 0.16500 119244.000000
4952 12710 1 0.16500 119244.000000
4952 18442 1 0.16500 119244.000000
4953 12710 1 0.16500 119244.000000
4953 15363 1 0.16500 119244.000000
4954 12711 1 0.16500 119244.000000
4954 15175 1 0.16500 119244.000000
4955 12711 1 0.16500 119244.000000
4955 15944 1 0.16500 119244.000000
4956 12711 1 0.16500 119244.000000
4956 12836 1 0.16500 119244.000000
4957 12712 1 0.16500 119244.000000
4957 15583 1 0.16500 119244.000000
4958 12712 1 0.16500 119244.000000
4958 15134 1 0.16500 119244.000000
4959 12712 1 0.16500 119244.000000
4959 13612 1 0.16500 119244.000000
4960 12712 1 0.16500 119244.000000
4960 14266 1 0.16500 119244.000000
4961 12713 1 0.16500 119244.000000
4961 16171 1 0.16500 119244.000000
4962 12714 1 0.16500 119244.000000
4962 14503 1 0.16500 119244.000000
4963 12714 1 0.16500 119244.000000
4963 21673 1 0.16500 119244.000000
4964 12715 1 0.16500 119244.000000
4964 14218 1 0.16500 119244.000000
4965 12715 1 0.16500 119244.000000
4965 15969 1 0.16500 119244.000000
4966 12715 1 0.16500 119244.000000
4966 15044 1 0.16500 119244.000000
4967 12716 1 0.16500 119244.000000
4967 15975 1 0.16500 119244.000000
4968 12716 1 0.16500 119244.000000
4968 15771 1 0.16500 119244.000000
4969 12717 1 0.16500 119244.000000
4969 16260 1 0.16500 119244.000000
4970 12717 1 0.16500 119244.000000
4970 16123 1 0.16500 119244.000000
4971 12717 1 0.16500 119244.000000
4971 16742 1 0.16500 119244.000000
4972 12718 1 0.16500 119244.000000
4972 15331 1 0.16500 119244.000000
4973 12718 1 0.16500 119244.000000
4973 13158 1 0.16500 119244.000000
4974 12718 1 0.16500 119244.000000
4974 14281 1 0.16500 119244.000000
4975 12718 1 0.16500 119244.000000
4975 15199 1 0.16500 119244.000000
4976 12719 1 0.16500 119244.000000
4976 16397 1 0.16500 119244.000000
4977 12719 1 0.16500 119244.000000
4977 16512 1 0.16500 119244.000000
4978 12719 1 0.16500 119244.000000
4978 16366 1 0.16500 119244.000000
4979 12720 1 0.16500 119244.000000
4979 15785 1 0.16500 119244.000000
4980 12720 1 0.16500 119244.000000
4980 14234 1 0.16500 119244.000000
4981 12721 1 0.16500 119244.000000
4981 13432 1 0.16500 119244.000000
4982 12721 1 0.16500 119244.000000
4982 13490 1 0.16500 119244.000000
4983 12722 1 0.16500 119244.000000
4983 14886 1 0.16500 119244.000000
4984 12722 1 0.16500 119244.000000
4984 14128 1 0.16500 119244.000000
4985 12722 1 0.16500 119244.000000
4985 13568 1 0.16500 119244.000000
4986 12723 1 0.16500 119244.000000
4986 13498 1 0.16500 119244.000000
4987 12723 1 0.16500 119244.000000
4987 13546 1 0.16500 119244.000000
4988 12723 1 0.16500 119244.000000
4988 16203 1 0.16500 119244.000000
4989 12724 1 0.16500 119244.000000
4989 14353 1 0.16500 119244.000000
4990 16047 1 0.16500 119244.000000
4990 21403 1 0.16500 119244.000000
4991 20398 1 0.16500 119244.000000
4991 21403 1 0.16500 119244.000000
4992 12725 1 0.16500 119244.000000
4992 16341 1 0.16500 119244.000000
4993 12725 1 0.16500 119244.000000
4993 14034 1 0.16500 119244.000000
4994 15024 1 0.16500 119244.000000
4994 21406 1 0.16500 119244.000000
4995 13358 1 0.16500 119244.000000
4995 21406 1 0.16500 119244.000000
4996 14582 1 0.16500 119244.000000
4996 21409 1 0.16500 119244.000000
4997 12758 1 0.16500 119244.000000
4997 21409 1 0.16500 119244.000000
4998 12726 1 0.16500 119244.000000
4998 13969 1 0.16500 119244.000000
4999 12726 1 0.16500 119244.000000
4999 14411 1 0.16500 119244.000000
5000 12726 1 0.16500 119244.000000
5000 16714 1 0.16500 119244.000000
5001 12726 1 0.16500 119244.000000
5001 19606 1 0.16500 119244.000000
5002 12727 1 0.16500 119244.000000
5002 13757 1 0.16500 119244.000000
5003 12727 1 0.16500 119244.000000
5003 15292 1 0.16500 119244.000000
5004 12727 1 0.16500 119244.000000
5004 13498 1 0.16500 119244.000000
5005 12728 1 0.16500 119244.000000
5005 14204 1 0.16500 119244.000000
5006 12728 1 0.16500 119244.000000
5006 13925 1 0.16500 119244.000000
5007 12728 1 0.16500 119244.000000
5007 13203 1 0.16500 119244.000000
5008 12729 1 0.16500 119244.000000
5008 12785 1 0.16500 119244.000000
5009 12729 1 0.16500 119244.000000
5009 14592 1 0.16500 119244.000000
5010 12730 1 0.16500 119244.000000
5010 13731 1 0.16500 119244.000000
5011 13731 1 0.16500 119244.000000
5011 15297 1 0.16500 119244.000000
5012 16334 1 0.16500 119244.000000
5012 16428 1 0.16500 119244.000000
5013 12730 1 0.16500 119244.000000
5013 16334 1 0.16500 119244.000000
5014 12731 1 0.16500 119244.000000
5014 14270 1 0.16500 119244.000000
5015 12731 1 0.16500 119244.000000
5015 16440 1 0.16500 119244.000000
5016 12731 1 0.16500 119244.000000
5016 15271 1 0.16500 119244.000000
5017 12731 1 0.16500 119244.000000
5017 14995 1 0.16500 119244.000000
5018 12732 1 0.16500 119244.000000
5018 13046 1 0.16500 119244.000000
5019 12732 1 0.16500 119244.000000
5019 17442 1 0.16500 119244.000000
5020 12732 1 0.16500 119244.000000
5020 21721 1 0.16500 119244.000000
5021 12733 1 0.16500 119244.000000
5021 15050 1 0.16500 119244.000000
5022 12734 1 0.16500 119244.000000
5022 15382 1 0.16500 119244.000000
5023 12734 1 0.16500 119244.000000
5023 13825 1 0.16500 119244.000000
5024 12734 1 0.16500 119244.000000
5024 16538 1 0.16500 119244.000000
5025 12734 1 0.16500 119244.000000
5025 13205 1 0.16500 119244.000000
5026 12735 1 0.16500 119244.000000
5026 14523 1 0.16500 119244.000000
5027 12735 1 0.16500 119244.000000
5027 13197 1 0.16500 119244.000000
5028 13696 1 0.16500 119244.000000
5028 14145 1 0.16500 119244.000000
5029 12736 1 0.16500 119244.000000
5029 13696 1 0.16500 119244.000000
5030 18044 1 0.16500 119244.000000
5030 21412 1 0.16500 119244.000000
5031 13638 1 0.16500 119244.000000
5031 21412 1 0.16500 119244.000000
5032 12737 1 0.16500 119244.000000
5032 14920 1 0.16500 119244.000000
5033 12737 1 0.16500 119244.000000
5033 13620 1 0.16500 119244.000000
5034 12737 1 0.16500 119244.000000
5034 13946 1 0.16500 119244.000000
5035 12737 1 0.16500 119244.000000
5035 14426 1 0.16500 119244.000000
5036 12738 1 0.16500 119244.000000
5036 15661 1 0.16500 119244.000000
5037 12738 1 0.16500 119244.000000
5037 14344 1 0.16500 119244.000000
5038 15143 1 0.16500 119244.000000
5038 17582 1 0.16500 119244.000000
5039 12739 1 0.16500 119244.000000
5039 13469 1 0.16500 119244.000000
5040 12739 1 0.16500 119244.000000
5040 14054 1 0.16500 119244.000000
5041 12739 1 0.16500 119244.000000
5041 20674 1 0.16500 119244.000000
5042 12739 1 0.16500 119244.000000
5042 14375 1 0.16500 119244.000000
5043 20134 1 0.16500 119244.000000
5043 21415 1 0.16500 119244.000000
5044 14992 1 0.16500 119244.000000
5044 21415 1 0.16500 119244.000000
5045 12740 1 0.16500 119244.000000
5045 16308 1 0.16500 119244.000000
5046 12740 1 0.16500 119244.000000
5046 13988 1 0.16500 119244.000000
5047 12740 1 0.16500 119244.000000
5047 13690 1 0.16500 119244.000000
5048 12741 1 0.16500 119244.000000
5048 15547 1 0.16500 119244.000000
5049 15868 1 0.16500 119244.000000
5049 16573 1 0.16500 119244.000000
5050 12741 1 0.16500 119244.000000
5050 16573 1 0.16500 119244.000000
5051 12741 1 0.16500 119244.000000
5051 13333 1 0.16500 119244.000000
5052 12742 1 0.16500 119244.000000
5052 13780 1 0.16500 119244.000000
5053 12742 1 0.16500 119244.000000
5053 14257 1 0.16500 119244.000000
5054 14280 1 0.16500 119244.000000
5054 21418 1 0.16500 119244.000000
5055 13601 1 0.16500 119244.000000
5055 21418 1 0.16500 119244.000000
5056 12743 1 0.16500 119244.000000
5056 13533 1 0.16500 119244.000000
5057 12743 1 0.16500 119244.000000
5057 16355 1 0.16500 119244.000000
5058 12743 1 0.16500 119244.000000
5058 16055 1 0.16500 119244.000000
5059 15356 1 0.16500 119244.000000
5059 16356 1 0.16500 119244.000000
5060 12744 1 0.16500 119244.000000
5060 15511 1 0.16500 119244.000000
5061 12744 1 0.16500 119244.000000
5061 15356 1 0.16500 119244.000000
5062 12745 1 0.16500 119244.000000
5062 13009 1 0.16500 119244.000000
5063 12745 1 0.16500 119244.000000
5063 12927 1 0.16500 119244.000000
5064 12745 1 0.16500 119244.000000
5064 16252 1 0.16500 119244.000000
5065 12746 1 0.16500 119244.000000
5065 14653 1 0.16500 119244.000000
5066 12746 1 0.16500 119244.000000
5066 14042 1 0.16500 119244.000000
5067 12746 1 0.16500 119244.000000
5067 13202 1 0.16500 119244.000000
5068 12747 1 0.16500 119244.000000
5068 14058 1 0.16500 119244.000000
5069 12747 1 0.16500 119244.000000
5069 21652 1 0.16500 119244.000000
5070 12747 1 0.16500 119244.000000
5070 14232 1 0.16500 119244.000000
5071 12748 1 0.16500 119244.000000
5071 16626 1 0.16500 119244.000000
5072 12748 1 0.16500 119244.000000
5072 15900 1 0.16500 119244.000000
5073 12748 1 0.16500 119244.000000
5073 13462 1 0.16500 119244.000000
5074 12749 1 0.16500 119244.000000
5074 13957 1 0.16500 119244.000000
5075 12749 1 0.16500 119244.000000
5075 15541 1 0.16500 119244.000000
5076 12749 1 0.16500 119244.000000
5076 14426 1 0.16500 119244.000000
5077 12749 1 0.16500 119244.000000
5077 15534 1 0.16500 119244.000000
5078 12750 1 0.16500 119244.000000
5078 14339 1 0.16500 119244.000000
5079 12750 1 0.16500 119244.000000
5079 14584 1 0.16500 119244.000000
5080 12750 1 0.16500 119244.000000
5080 16060 1 0.16500 119244.000000
5081 12751 1 0.16500 119244.000000
5081 16609 1 0.16500 119244.000000
5082 12751 1 0.16500 119244.000000
5082 15755 1 0.16500 119244.000000
5083 12752 1 0.16500 119244.000000
5083 14251 1 0.16500 119244.000000
5084 12752 1 0.16500 119244.000000
5084 14241 1 0.16500 119244.000000
5085 12753 1 0.16500 119244.000000
5085 15512 1 0.16500 119244.000000
5086 12753 1 0.16500 119244.000000
5086 13658 1 0.16500 119244.000000
5087 12753 1 0.16500 119244.000000
5087 15004 1 0.16500 119244.000000
5088 12754 1 0.16500 119244.000000
5088 13418 1 0.16500 119244.000000
5089 12754 1 0.16500 119244.000000
5089 15958 1 0.16500 119244.000000
5090 12754 1 0.16500 119244.000000
5090 15565 1 0.16500 119244.000000
5091 12754 1 0.16500 119244.000000
5091 21931 1 0.16500 119244.000000
5092 12755 1 0.16500 119244.000000
5092 20446 1 0.16500 119244.000000
5093 12755 1 0.16500 119244.000000
5093 21520 1 0.16500 119244.000000
5094 12755 1 0.16500 119244.000000
5094 13808 1 0.16500 119244.000000
5095 12755 1 0.16500 119244.000000
5095 18814 1 0.16500 119244.000000
5096 12756 1 0.16500 119244.000000
5096 16065 1 0.16500 119244.000000
5097 12756 1 0.16500 119244.000000
5097 14384 1 0.16500 119244.000000
5098 12756 1 0.16500 119244.000000
5098 14445 1 0.16500 119244.000000
5099 12756 1 0.16500 119244.000000
5099 14727 1 0.16500 119244.000000
5100 12757 1 0.16500 119244.000000
5100 16064 1 0.16500 119244.000000
5101 12757 1 0.16500 119244.000000
5101 14089 1 0.16500 119244.000000
5102 12757 1 0.16500 119244.000000
5102 14716 1 0.16500 119244.000000
5103 12757 1 0.16500 119244.000000
5103 16408 1 0.16500 119244.000000
5104 13206 1 0.16500 119244.000000
5104 20302 1 0.16500 119244.000000
5105 12973 1 0.16500 119244.000000
5105 20302 1 0.16500 119244.000000
5106 12758 1 0.16500 119244.000000
5106 16614 1 0.16500 119244.000000
5107 11858 1 0.16500 119244.000000
5107 12758 1 0.16500 119244.000000
5108 12759 1 0.16500 119244.000000
5108 15435 1 0.16500 119244.000000
5109 12759 1 0.16500 119244.000000
5109 15046 1 0.16500 119244.000000
5110 12759 1 0.16500 119244.000000
5110 14175 1 0.16500 119244.000000
5111 12759 1 0.16500 119244.000000
5111 15549 1 0.16500 119244.000000
5112 12760 1 0.16500 119244.000000
5112 13061 1 0.16500 119244.000000
5113 12760 1 0.16500 119244.000000
5113 13175 1 0.16500 119244.000000
5114 12760 1 0.16500 119244.000000
5114 13636 1 0.16500 119244.000000
5115 13175 1 0.16500 119244.000000
5115 13690 1 0.16500 119244.000000
5116 12761 1 0.16500 119244.000000
5116 16247 1 0.16500 119244.000000
5117 12761 1 0.16500 119244.000000
5117 16602 1 0.16500 119244.000000
5118 12762 1 0.16500 119244.000000
5118 15257 1 0.16500 119244.000000
5119 12762 1 0.16500 119244.000000
5119 15162 1 0.16500 119244.000000
5120 12762 1 0.16500 119244.000000
5120 13822 1 0.16500 119244.000000
5121 12762 1 0.16500 119244.000000
5121 13752 1 0.16500 119244.000000
5122 12763 1 0.16500 119244.000000
5122 14565 1 0.16500 119244.000000
5123 12763 1 0.16500 119244.000000
5123 12764 1 0.16500 119244.000000
5124 12763 1 0.16500 119244.000000
5124 12856 1 0.16500 119244.000000
5125 12764 1 0.16500 119244.000000
5125 14439 1 0.16500 119244.000000
5126 12764 1 0.16500 119244.000000
5126 16323 1 0.16500 119244.000000
5127 12765 1 0.16500 119244.000000
5127 14547 1 0.16500 119244.000000
5128 12765 1 0.16500 119244.000000
5128 15497 1 0.16500 119244.000000
5129 12765 1 0.16500 119244.000000
5129 16048 1 0.16500 119244.000000
5130 20290 1 0.16500 119244.000000
5130 21421 1 0.16500 119244.000000
5131 14025 1 0.16500 119244.000000
5131 21421 1 0.16500 119244.000000
5132 13279 1 0.16500 119244.000000
5132 21421 1 0.16500 119244.000000
5133 12766 1 0.16500 119244.000000
5133 21637 1 0.16500 119244.000000
5134 12766 1 0.16500 119244.000000
5134 12795 1 0.16500 119244.000000
5135 12767 1 0.16500 119244.000000
5135 14674 1 0.16500 119244.000000
5136 12767 1 0.16500 119244.000000
5136 13454 1 0.16500 119244.000000
5137 12768 1 0.16500 119244.000000
5137 15204 1 0.16500 119244.000000
5138 11920 1 0.16500 119244.000000
5138 12768 1 0.16500 119244.000000
5139 12768 1 0.16500 119244.000000
5139 15573 1 0.16500 119244.000000
5140 12768 1 0.16500 119244.000000
5140 13817 1 0.16500 119244.000000
5141 17414 1 0.16500 119244.000000
5141 19414 1 0.16500 119244.000000
5142 19414 1 0.16500 119244.000000
5142 21940 1 0.16500 119244.000000
5143 15306 1 0.16500 119244.000000
5143 19414 1 0.16500 119244.000000
5144 12769 1 0.16500 119244.000000
5144 13763 1 0.16500 119244.000000
5145 12769 1 0.16500 119244.000000
5145 15665 1 0.16500 119244.000000
5146 12769 1 0.16500 119244.000000
5146 13500 1 0.16500 119244.000000
5147 12769 1 0.16500 119244.000000
5147 15047 1 0.16500 119244.000000
5148 12770 1 0.16500 119244.000000
5148 15244 1 0.16500 119244.000000
5149 12770 1 0.16500 119244.000000
5149 13871 1 0.16500 119244.000000
5150 12770 1 0.16500 119244.000000
5150 14297 1 0.16500 119244.000000
5151 12771 1 0.16500 119244.000000
5151 13931 1 0.16500 119244.000000
5152 12771 1 0.16500 119244.000000
5152 14703 1 0.16500 119244.000000
5153 12771 1 0.16500 119244.000000
5153 15733 1 0.16500 119244.000000
5154 12772 1 0.16500 119244.000000
5154 14261 1 0.16500 119244.000000
5155 12772 1 0.16500 119244.000000
5155 12837 1 0.16500 119244.000000
5156 12772 1 0.16500 119244.000000
5156 12895 1 0.16500 119244.000000
5157 11398 1 0.16500 119244.000000
5157 12773 1 0.16500 119244.000000
5158 12773 1 0.16500 119244.000000
5158 12828 1 0.16500 119244.000000
5159 12773 1 0.16500 119244.000000
5159 13121 1 0.16500 119244.000000
5160 12773 1 0.16500 119244.000000
5160 14248 1 0.16500 119244.000000
5161 11670 1 0.16500 119244.000000
5161 16432 1 0.16500 119244.000000
5162 12774 1 0.16500 119244.000000
5162 16432 1 0.16500 119244.000000
5163 12775 1 0.16500 119244.000000
5163 13403 1 0.16500 119244.000000
5164 12775 1 0.16500 119244.000000
5164 14988 1 0.16500 119244.000000
5165 12776 1 0.16500 119244.000000
5165 15569 1 0.16500 119244.000000
5166 12776 1 0.16500 119244.000000
5166 13164 1 0.16500 119244.000000
5167 12777 1 0.16500 119244.000000
5167 16302 1 0.16500 119244.000000
5168 12777 1 0.16500 119244.000000
5168 16509 1 0.16500 119244.000000
5169 12778 1 0.16500 119244.000000
5169 14578 1 0.16500 119244.000000
5170 12778 1 0.16500 119244.000000
5170 15696 1 0.16500 119244.000000
5171 12779 1 0.16500 119244.000000
5171 19510 1 0.16500 119244.000000
5172 12780 1 0.16500 119244.000000
5172 12898 1 0.16500 119244.000000
5173 17820 1 0.16500 119244.000000
5173 17946 1 0.16500 119244.000000
5174 15412 1 0.16500 119244.000000
5174 17820 1 0.16500 119244.000000
5175 12781 1 0.16500 119244.000000
5175 21532 1 0.16500 119244.000000
5176 12781 1 0.16500 119244.000000
5176 15714 1 0.16500 119244.000000
5177 12781 1 0.16500 119244.000000
5177 15963 1 0.16500 119244.000000
5178 12781 1 0.16500 119244.000000
5178 20890 1 0.16500 119244.000000
5179 12782 1 0.16500 119244.000000
5179 14976 1 0.16500 119244.000000
5180 12782 1 0.16500 119244.000000
5180 15280 1 0.16500 119244.000000
5181 12782 1 0.16500 119244.000000
5181 12848 1 0.16500 119244.000000
5182 12783 1 0.16500 119244.000000
5182 14223 1 0.16500 119244.000000
5183 12783 1 0.16500 119244.000000
5183 21592 1 0.16500 119244.000000
5184 12783 1 0.16500 119244.000000
5184 15299 1 0.16500 119244.000000
5185 12784 1 0.16500 119244.000000
5185 15498 1 0.16500 119244.000000
5186 12784 1 0.16500 119244.000000
5186 16254 1 0.16500 119244.000000
5187 12784 1 0.16500 119244.000000
5187 13549 1 0.16500 119244.000000
5188 20314 1 0.16500 119244.000000
5188 21919 1 0.16500 119244.000000
5189 15276 1 0.16500 119244.000000
5189 20314 1 0.16500 119244.000000
5190 12785 1 0.16500 119244.000000
5190 15822 1 0.16500 119244.000000
5191 12786 1 0.16500 119244.000000
5191 13959 1 0.16500 119244.000000
5192 12786 1 0.16500 119244.000000
5192 14097 1 0.16500 119244.000000
5193 12786 1 0.16500 119244.000000
5193 13738 1 0.16500 119244.000000
5194 12787 1 0.16500 119244.000000
5194 14890 1 0.16500 119244.000000
5195 12787 1 0.16500 119244.000000
5195 16200 1 0.16500 119244.000000
5196 12787 1 0.16500 119244.000000
5196 13945 1 0.16500 119244.000000
5197 11713 1 0.16500 119244.000000
5197 12788 1 0.16500 119244.000000
5198 12788 1 0.16500 119244.000000
5198 16436 1 0.16500 119244.000000
5199 12788 1 0.16500 119244.000000
5199 13707 1 0.16500 119244.000000
5200 12789 1 0.16500 119244.000000
5200 16578 1 0.16500 119244.000000
5201 12789 1 0.16500 119244.000000
5201 13395 1 0.16500 119244.000000
5202 12789 1 0.16500 119244.000000
5202 13364 1 0.16500 119244.000000
5203 12790 1 0.16500 119244.000000
5203 14147 1 0.16500 119244.000000
5204 11726 1 0.16500 119244.000000
5204 12790 1 0.16500 119244.000000
5205 12790 1 0.16500 119244.000000
5205 12951 1 0.16500 119244.000000
5206 12791 1 0.16500 119244.000000
5206 14216 1 0.16500 119244.000000
5207 13510 1 0.16500 119244.000000
5207 14216 1 0.16500 119244.000000
5208 12791 1 0.16500 119244.000000
5208 14239 1 0.16500 119244.000000
5209 12791 1 0.16500 119244.000000
5209 15763 1 0.16500 119244.000000
5210 12792 1 0.16500 119244.000000
5210 13785 1 0.16500 119244.000000
5211 12792 1 0.16500 119244.000000
5211 14778 1 0.16500 119244.000000
5212 12792 1 0.16500 119244.000000
5212 14205 1 0.16500 119244.000000
5213 12792 1 0.16500 119244.000000
5213 16259 1 0.16500 119244.000000
5214 12793 1 0.16500 119244.000000
5214 12956 1 0.16500 119244.000000
5215 12793 1 0.16500 119244.000000
5215 16454 1 0.16500 119244.000000
5216 12793 1 0.16500 119244.000000
5216 21646 1 0.16500 119244.000000
5217 12794 1 0.16500 119244.000000
5217 13018 1 0.16500 119244.000000
5218 12794 1 0.16500 119244.000000
5218 13160 1 0.16500 119244.000000
5219 12794 1 0.16500 119244.000000
5219 13192 1 0.16500 119244.000000
5220 12794 1 0.16500 119244.000000
5220 15972 1 0.16500 119244.000000
5221 12795 1 0.16500 119244.000000
5221 19282 1 0.16500 119244.000000
5222 12796 1 0.16500 119244.000000
5222 16374 1 0.16500 119244.000000
5223 14022 1 0.16500 119244.000000
5223 14854 1 0.16500 119244.000000
5224 12797 1 0.16500 119244.000000
5224 14022 1 0.16500 119244.000000
5225 12797 1 0.16500 119244.000000
5225 16193 1 0.16500 119244.000000
5226 12797 1 0.16500 119244.000000
5226 16177 1 0.16500 119244.000000
5227 12798 1 0.16500 119244.000000
5227 16183 1 0.16500 119244.000000
5228 12798 1 0.16500 119244.000000
5228 14948 1 0.16500 119244.000000
5229 12798 1 0.16500 119244.000000
5229 13346 1 0.16500 119244.000000
5230 12798 1 0.16500 119244.000000
5230 21700 1 0.16500 119244.000000
5231 15468 1 0.16500 119244.000000
5231 15568 1 0.16500 119244.000000
5232 12799 1 0.16500 119244.000000
5232 13332 1 0.16500 119244.000000
5233 12799 1 0.16500 119244.000000
5233 15468 1 0.16500 119244.000000
5234 12800 1 0.16500 119244.000000
5234 19534 1 0.16500 119244.000000
5235 12800 1 0.16500 119244.000000
5235 14564 1 0.16500 119244.000000
5236 12801 1 0.16500 119244.000000
5236 13651 1 0.16500 119244.000000
5237 12801 1 0.16500 119244.000000
5237 15880 1 0.16500 119244.000000
5238 12802 1 0.16500 119244.000000
5238 16011 1 0.16500 119244.000000
5239 14775 1 0.16500 119244.000000
5239 16011 1 0.16500 119244.000000
5240 12802 1 0.16500 119244.000000
5240 14954 1 0.16500 119244.000000
5241 12802 1 0.16500 119244.000000
5241 14531 1 0.16500 119244.000000
5242 12803 1 0.16500 119244.000000
5242 13684 1 0.16500 119244.000000
5243 12803 1 0.16500 119244.000000
5243 15026 1 0.16500 119244.000000
5244 12803 1 0.16500 119244.000000
5244 16038 1 0.16500 119244.000000
5245 12803 1 0.16500 119244.000000
5245 13303 1 0.16500 119244.000000
5246 12804 1 0.16500 119244.000000
5246 13490 1 0.16500 119244.000000
5247 12804 1 0.16500 119244.000000
5247 13692 1 0.16500 119244.000000
5248 12804 1 0.16500 119244.000000
5248 13544 1 0.16500 119244.000000
5249 12805 1 0.16500 119244.000000
5249 14118 1 0.16500 119244.000000
5250 12805 1 0.16500 119244.000000
5250 14049 1 0.16500 119244.000000
5251 12805 1 0.16500 119244.000000
5251 21487 1 0.16500 119244.000000
5252 15732 1 0.16500 119244.000000
5252 15874 1 0.16500 119244.000000
5253 12806 1 0.16500 119244.000000
5253 15874 1 0.16500 119244.000000
5254 12806 1 0.16500 119244.000000
5254 15182 1 0.16500 119244.000000
5255 12806 1 0.16500 119244.000000
5255 15916 1 0.16500 119244.000000
5256 14274 1 0.16500 119244.000000
5256 21424 1 0.16500 119244.000000
5257 21424 1 0.16500 119244.000000
5257 22009 1 0.16500 119244.000000
5258 12807 1 0.16500 119244.000000
5258 17050 1 0.16500 119244.000000
5259 12807 1 0.16500 119244.000000
5259 15140 1 0.16500 119244.000000
5260 15941 1 0.16500 119244.000000
5260 21070 1 0.16500 119244.000000
5261 13689 1 0.16500 119244.000000
5261 21070 1 0.16500 119244.000000
5262 12808 1 0.16500 119244.000000
5262 16499 1 0.16500 119244.000000
5263 12808 1 0.16500 119244.000000
5263 16036 1 0.16500 119244.000000
5264 12808 1 0.16500 119244.000000
5264 15338 1 0.16500 119244.000000
5265 12809 1 0.16500 119244.000000
5265 14496 1 0.16500 119244.000000
5266 12809 1 0.16500 119244.000000
5266 16499 1 0.16500 119244.000000
5267 12810 1 0.16500 119244.000000
5267 13867 1 0.16500 119244.000000
5268 12810 1 0.16500 119244.000000
5268 18044 1 0.16500 119244.000000
5269 12810 1 0.16500 119244.000000
5269 21928 1 0.16500 119244.000000
5270 12810 1 0.16500 119244.000000
5270 21895 1 0.16500 119244.000000
5271 12811 1 0.16500 119244.000000
5271 14421 1 0.16500 119244.000000
5272 12811 1 0.16500 119244.000000
5272 15269 1 0.16500 119244.000000
5273 12811 1 0.16500 119244.000000
5273 13565 1 0.16500 119244.000000
5274 12812 1 0.16500 119244.000000
5274 15001 1 0.16500 119244.000000
5275 12812 1 0.16500 119244.000000
5275 14222 1 0.16500 119244.000000
5276 12812 1 0.16500 119244.000000
5276 12853 1 0.16500 119244.000000
5277 12813 1 0.16500 119244.000000
5277 13605 1 0.16500 119244.000000
5278 12813 1 0.16500 119244.000000
5278 16290 1 0.16500 119244.000000
5279 12813 1 0.16500 119244.000000
5279 15588 1 0.16500 119244.000000
5280 12813 1 0.16500 119244.000000
5280 14656 1 0.16500 119244.000000
5281 12814 1 0.16500 119244.000000
5281 14166 1 0.16500 119244.000000
5282 12814 1 0.16500 119244.000000
5282 16251 1 0.16500 119244.000000
5283 12814 1 0.16500 119244.000000
5283 13012 1 0.16500 119244.000000
5284 12814 1 0.16500 119244.000000
5284 14197 1 0.16500 119244.000000
5285 12815 1 0.16500 119244.000000
5285 16588 1 0.16500 119244.000000
5286 12815 1 0.16500 119244.000000
5286 15625 1 0.16500 119244.000000
5287 19510 1 0.16500 119244.000000
5287 20854 1 0.16500 119244.000000
5288 19510 1 0.16500 119244.000000
5288 21556 1 0.16500 119244.000000
5289 12816 1 0.16500 119244.000000
5289 16034 1 0.16500 119244.000000
5290 12816 1 0.16500 119244.000000
5290 13270 1 0.16500 119244.000000
5291 12816 1 0.16500 119244.000000
5291 13665 1 0.16500 119244.000000
5292 12817 1 0.16500 119244.000000
5292 13912 1 0.16500 119244.000000
5293 12817 1 0.16500 119244.000000
5293 13152 1 0.16500 119244.000000
5294 12817 1 0.16500 119244.000000
5294 14997 1 0.16500 119244.000000
5295 12818 1 0.16500 119244.000000
5295 14631 1 0.16500 119244.000000
5296 12818 1 0.16500 119244.000000
5296 13589 1 0.16500 119244.000000
5297 12818 1 0.16500 119244.000000
5297 15180 1 0.16500 119244.000000
5298 13471 1 0.16500 119244.000000
5298 20386 1 0.16500 119244.000000
5299 20386 1 0.16500 119244.000000
5299 21598 1 0.16500 119244.000000
5300 11458 1 0.16500 119244.000000
5300 12819 1 0.16500 119244.000000
5301 12819 1 0.16500 119244.000000
5301 15339 1 0.16500 119244.000000
5302 12819 1 0.16500 119244.000000
5302 14885 1 0.16500 119244.000000
5303 12820 1 0.16500 119244.000000
5303 13701 1 0.16500 119244.000000
5304 12820 1 0.16500 119244.000000
5304 14152 1 0.16500 119244.000000
5305 12821 1 0.16500 119244.000000
5305 14203 1 0.16500 119244.000000
5306 12821 1 0.16500 119244.000000
5306 15358 1 0.16500 119244.000000
5307 12821 1 0.16500 119244.000000
5307 20638 1 0.16500 119244.000000
5308 12822 1 0.16500 119244.000000
5308 12832 1 0.16500 119244.000000
5309 12822 1 0.16500 119244.000000
5309 14030 1 0.16500 119244.000000
5310 12822 1 0.16500 119244.000000
5310 14008 1 0.16500 119244.000000
5311 12822 1 0.16500 119244.000000
5311 13816 1 0.16500 119244.000000
5312 12823 1 0.16500 119244.000000
5312 13230 1 0.16500 119244.000000
5313 12824 1 0.16500 119244.000000
5313 13848 1 0.16500 119244.000000
5314 12824 1 0.16500 119244.000000
5314 14130 1 0.16500 119244.000000
5315 12824 1 0.16500 119244.000000
5315 14225 1 0.16500 119244.000000
5316 12824 1 0.16500 119244.000000
5316 16138 1 0.16500 119244.000000
5317 12825 1 0.16500 119244.000000
5317 12955 1 0.16500 119244.000000
5318 12825 1 0.16500 119244.000000
5318 12868 1 0.16500 119244.000000
5319 12825 1 0.16500 119244.000000
5319 13301 1 0.16500 119244.000000
5320 12825 1 0.16500 119244.000000
5320 15744 1 0.16500 119244.000000
5321 12826 1 0.16500 119244.000000
5321 14826 1 0.16500 119244.000000
5322 12826 1 0.16500 119244.000000
5322 21520 1 0.16500 119244.000000
5323 12826 1 0.16500 119244.000000
5323 14232 1 0.16500 119244.000000
5324 16391 1 0.16500 119244.000000
5324 19438 1 0.16500 119244.000000
5325 19438 1 0.16500 119244.000000
5325 20758 1 0.16500 119244.000000
5326 12827 1 0.16500 119244.000000
5326 14296 1 0.16500 119244.000000
5327 12827 1 0.16500 119244.000000
5327 15291 1 0.16500 119244.000000
5328 12827 1 0.16500 119244.000000
5328 13724 1 0.16500 119244.000000
5329 12828 1 0.16500 119244.000000
5329 14359 1 0.16500 119244.000000
5330 12829 1 0.16500 119244.000000
5330 13882 1 0.16500 119244.000000
5331 12829 1 0.16500 119244.000000
5331 14607 1 0.16500 119244.000000
5332 12829 1 0.16500 119244.000000
5332 16395 1 0.16500 119244.000000
5333 12830 1 0.16500 119244.000000
5333 18754 1 0.16500 119244.000000
5334 12830 1 0.16500 119244.000000
5334 15209 1 0.16500 119244.000000
5335 13788 1 0.16500 119244.000000
5335 15527 1 0.16500 119244.000000
5336 12831 1 0.16500 119244.000000
5336 14037 1 0.16500 119244.000000
5337 14037 1 0.16500 119244.000000
5337 15527 1 0.16500 119244.000000
5338 14220 1 0.16500 119244.000000
5338 15527 1 0.16500 119244.000000
5339 12832 1 0.16500 119244.000000
5339 16108 1 0.16500 119244.000000
5340 12832 1 0.16500 119244.000000
5340 13182 1 0.16500 119244.000000
5341 12832 1 0.16500 119244.000000
5341 15542 1 0.16500 119244.000000
5342 12833 1 0.16500 119244.000000
5342 15667 1 0.16500 119244.000000
5343 12833 1 0.16500 119244.000000
5343 15691 1 0.16500 119244.000000
5344 14330 1 0.16500 119244.000000
5344 17442 1 0.16500 119244.000000
5345 12834 1 0.16500 119244.000000
5345 13584 1 0.16500 119244.000000
5346 12834 1 0.16500 119244.000000
5346 13007 1 0.16500 119244.000000
5347 12834 1 0.16500 119244.000000
5347 14958 1 0.16500 119244.000000
5348 12835 1 0.16500 119244.000000
5348 20110 1 0.16500 119244.000000
5349 12835 1 0.16500 119244.000000
5349 15843 1 0.16500 119244.000000
5350 12835 1 0.16500 119244.000000
5350 13656 1 0.16500 119244.000000
5351 13337 1 0.16500 119244.000000
5351 21427 1 0.16500 119244.000000
5352 21589 1 0.16500 119244.000000
5352 21964 1 0.16500 119244.000000
5353 12836 1 0.16500 119244.000000
5353 15966 1 0.16500 119244.000000
5354 12837 1 0.16500 119244.000000
5354 15306 1 0.16500 119244.000000
5355 12837 1 0.16500 119244.000000
5355 13495 1 0.16500 119244.000000
5356 17638 1 0.16500 119244.000000
5356 19018 1 0.16500 119244.000000
5357 12838 1 0.16500 119244.000000
5357 12890 1 0.16500 119244.000000
5358 12838 1 0.16500 119244.000000
5358 16529 1 0.16500 119244.000000
5359 11847 1 0.16500 119244.000000
5359 12838 1 0.16500 119244.000000
5360 12838 1 0.16500 119244.000000
5360 13841 1 0.16500 119244.000000
5361 12839 1 0.16500 119244.000000
5361 21484 1 0.16500 119244.000000
5362 12839 1 0.16500 119244.000000
5362 16022 1 0.16500 119244.000000
5363 12839 1 0.16500 119244.000000
5363 14296 1 0.16500 119244.000000
5364 12840 1 0.16500 119244.000000
5364 15379 1 0.16500 119244.000000
5365 12840 1 0.16500 119244.000000
5365 15734 1 0.16500 119244.000000
5366 12841 1 0.16500 119244.000000
5366 16069 1 0.16500 119244.000000
5367 12841 1 0.16500 119244.000000
5367 13669 1 0.16500 119244.000000
5368 12841 1 0.16500 119244.000000
5368 15738 1 0.16500 119244.000000
5369 12842 1 0.16500 119244.000000
5369 13821 1 0.16500 119244.000000
5370 12842 1 0.16500 119244.000000
5370 12859 1 0.16500 119244.000000
5371 12842 1 0.16500 119244.000000
5371 15574 1 0.16500 119244.000000
5372 12843 1 0.16500 119244.000000
5372 14689 1 0.16500 119244.000000
5373 15951 1 0.16500 119244.000000
5373 17750 1 0.16500 119244.000000
5374 17750 1 0.16500 119244.000000
5374 21595 1 0.16500 119244.000000
5375 13470 1 0.16500 119244.000000
5375 14419 1 0.16500 119244.000000
5376 13470 1 0.16500 119244.000000
5376 16251 1 0.16500 119244.000000
5377 12844 1 0.16500 119244.000000
5377 15574 1 0.16500 119244.000000
5378 12844 1 0.16500 119244.000000
5378 15273 1 0.16500 119244.000000
5379 12845 1 0.16500 119244.000000
5379 15703 1 0.16500 119244.000000
5380 12151 1 0.16500 119244.000000
5380 12845 1 0.16500 119244.000000
5381 12846 1 0.16500 119244.000000
5381 15898 1 0.16500 119244.000000
5382 12847 1 0.16500 119244.000000
5382 14296 1 0.16500 119244.000000
5383 12847 1 0.16500 119244.000000
5383 13766 1 0.16500 119244.000000
5384 12847 1 0.16500 119244.000000
5384 12971 1 0.16500 119244.000000
5385 12848 1 0.16500 119244.000000
5385 15979 1 0.16500 119244.000000
5386 12848 1 0.16500 119244.000000
5386 13422 1 0.16500 119244.000000
5387 12848 1 0.16500 119244.000000
5387 13791 1 0.16500 119244.000000
5388 12849 1 0.16500 119244.000000
5388 13998 1 0.16500 119244.000000
5389 12849 1 0.16500 119244.000000
5389 13540 1 0.16500 119244.000000
5390 12849 1 0.16500 119244.000000
5390 13319 1 0.16500 119244.000000
5391 12850 1 0.16500 119244.000000
5391 15322 1 0.16500 119244.000000
5392 12850 1 0.16500 119244.000000
5392 19738 1 0.16500 119244.000000
5393 12299 1 0.16500 119244.000000
5393 21430 1 0.16500 119244.000000
5394 15977 1 0.16500 119244.000000
5394 21430 1 0.16500 119244.000000
5395 12851 1 0.16500 119244.000000
5395 13034 1 0.16500 119244.000000
5396 12851 1 0.16500 119244.000000
5396 12952 1 0.16500 119244.000000
5397 12851 1 0.16500 119244.000000
5397 13288 1 0.16500 119244.000000
5398 12851 1 0.16500 119244.000000
5398 14603 1 0.16500 119244.000000
5399 12852 1 0.16500 119244.000000
5399 16495 1 0.16500 119244.000000
5400 12852 1 0.16500 119244.000000
5400 16419 1 0.16500 119244.000000
5401 12852 1 0.16500 119244.000000
5401 13273 1 0.16500 119244.000000
5402 12852 1 0.16500 119244.000000
5402 13857 1 0.16500 119244.000000
5403 12853 1 0.16500 119244.000000
5403 13606 1 0.16500 119244.000000
5404 12853 1 0.16500 119244.000000
5404 12874 1 0.16500 119244.000000
5405 12853 1 0.16500 119244.000000
5405 15195 1 0.16500 119244.000000
5406 12854 1 0.16500 119244.000000
5406 13934 1 0.16500 119244.000000
5407 12854 1 0.16500 119244.000000
5407 13354 1 0.16500 119244.000000
5408 12854 1 0.16500 119244.000000
5408 13365 1 0.16500 119244.000000
5409 12855 1 0.16500 119244.000000
5409 15804 1 0.16500 119244.000000
5410 11960 1 0.16500 119244.000000
5410 12855 1 0.16500 119244.000000
5411 12856 1 0.16500 119244.000000
5411 15826 1 0.16500 119244.000000
5412 12856 1 0.16500 119244.000000
5412 15234 1 0.16500 119244.000000
5413 12857 1 0.16500 119244.000000
5413 16163 1 0.16500 119244.000000
5414 12857 1 0.16500 119244.000000
5414 21685 1 0.16500 119244.000000
5415 12858 1 0.16500 119244.000000
5415 16554 1 0.16500 119244.000000
5416 12858 1 0.16500 119244.000000
5416 13775 1 0.16500 119244.000000
5417 12859 1 0.16500 119244.000000
5417 16298 1 0.16500 119244.000000
5418 12859 1 0.16500 119244.000000
5418 16504 1 0.16500 119244.000000
5419 12844 1 0.16500 119244.000000
5419 12859 1 0.16500 119244.000000
5420 12860 1 0.16500 119244.000000
5420 15145 1 0.16500 119244.000000
5421 12860 1 0.16500 119244.000000
5421 14137 1 0.16500 119244.000000
5422 12860 1 0.16500 119244.000000
5422 13409 1 0.16500 119244.000000
5423 12860 1 0.16500 119244.000000
5423 16386 1 0.16500 119244.000000
5424 12861 1 0.16500 119244.000000
5424 13278 1 0.16500 119244.000000
5425 12861 1 0.16500 119244.000000
5425 14957 1 0.16500 119244.000000
5426 12861 1 0.16500 119244.000000
5426 15523 1 0.16500 119244.000000
5427 19990 1 0.16500 119244.000000
5427 21433 1 0.16500 119244.000000
5428 15438 1 0.16500 119244.000000
5428 21433 1 0.16500 119244.000000
5429 12862 1 0.16500 119244.000000
5429 13699 1 0.16500 119244.000000
5430 12862 1 0.16500 119244.000000
5430 14872 1 0.16500 119244.000000
5431 12863 1 0.16500 119244.000000
5431 13378 1 0.16500 119244.000000
5432 12863 1 0.16500 119244.000000
5432 14511 1 0.16500 119244.000000
5433 12863 1 0.16500 119244.000000
5433 13394 1 0.16500 119244.000000
5434 12864 1 0.16500 119244.000000
5434 14397 1 0.16500 119244.000000
5435 12864 1 0.16500 119244.000000
5435 16466 1 0.16500 119244.000000
5436 12864 1 0.16500 119244.000000
5436 16609 1 0.16500 119244.000000
5437 12865 1 0.16500 119244.000000
5437 21709 1 0.16500 119244.000000
5438 12865 1 0.16500 119244.000000
5438 14393 1 0.16500 119244.000000
5439 12865 1 0.16500 119244.000000
5439 12897 1 0.16500 119244.000000
5440 14093 1 0.16500 119244.000000
5440 21289 1 0.16500 119244.000000
5441 12866 1 0.16500 119244.000000
5441 21757 1 0.16500 119244.000000
5442 12866 1 0.16500 119244.000000
5442 20266 1 0.16500 119244.000000
5443 12866 1 0.16500 119244.000000
5443 13444 1 0.16500 119244.000000
5444 14465 1 0.16500 119244.000000
5444 16798 1 0.16500 119244.000000
5445 14102 1 0.16500 119244.000000
5445 16421 1 0.16500 119244.000000
5446 12867 1 0.16500 119244.000000
5446 14102 1 0.16500 119244.000000
5447 12867 1 0.16500 119244.000000
5447 15780 1 0.16500 119244.000000
5448 12868 1 0.16500 119244.000000
5448 22009 1 0.16500 119244.000000
5449 12868 1 0.16500 119244.000000
5449 16157 1 0.16500 119244.000000
5450 11597 1 0.16500 119244.000000
5450 12869 1 0.16500 119244.000000
5451 11802 1 0.16500 119244.000000
5451 14928 1 0.16500 119244.000000
5452 11802 1 0.16500 119244.000000
5452 14939 1 0.16500 119244.000000
5453 12870 1 0.16500 119244.000000
5453 14892 1 0.16500 119244.000000
5454 12870 1 0.16500 119244.000000
5454 15974 1 0.16500 119244.000000
5455 12870 1 0.16500 119244.000000
5455 15645 1 0.16500 119244.000000
5456 12871 1 0.16500 119244.000000
5456 16571 1 0.16500 119244.000000
5457 12871 1 0.16500 119244.000000
5457 15648 1 0.16500 119244.000000
5458 12871 1 0.16500 119244.000000
5458 15310 1 0.16500 119244.000000
5459 12871 1 0.16500 119244.000000
5459 13954 1 0.16500 119244.000000
5460 12872 1 0.16500 119244.000000
5460 21550 1 0.16500 119244.000000
5461 12872 1 0.16500 119244.000000
5461 15441 1 0.16500 119244.000000
5462 12872 1 0.16500 119244.000000
5462 16994 1 0.16500 119244.000000
5463 12872 1 0.16500 119244.000000
5463 13980 1 0.16500 119244.000000
5464 13110 1 0.16500 119244.000000
5464 13274 1 0.16500 119244.000000
5465 12874 1 0.16500 119244.000000
5465 13579 1 0.16500 119244.000000
5466 12874 1 0.16500 119244.000000
5466 13110 1 0.16500 119244.000000
5467 12875 1 0.16500 119244.000000
5467 21769 1 0.16500 119244.000000
5468 12875 1 0.16500 119244.000000
5468 18514 1 0.16500 119244.000000
5469 12875 1 0.16500 119244.000000
5469 13032 1 0.16500 119244.000000
5470 12876 1 0.16500 119244.000000
5470 14534 1 0.16500 119244.000000
5471 12876 1 0.16500 119244.000000
5471 15652 1 0.16500 119244.000000
5472 18240 1 0.16500 119244.000000
5472 18862 1 0.16500 119244.000000
5473 18862 1 0.16500 119244.000000
5473 19666 1 0.16500 119244.000000
5474 12877 1 0.16500 119244.000000
5474 15279 1 0.16500 119244.000000
5475 12877 1 0.16500 119244.000000
5475 13527 1 0.16500 119244.000000
5476 11596 1 0.16500 119244.000000
5476 16018 1 0.16500 119244.000000
5477 12879 1 0.16500 119244.000000
5477 16281 1 0.16500 119244.000000
5478 12879 1 0.16500 119244.000000
5478 14767 1 0.16500 119244.000000
5479 12880 1 0.16500 119244.000000
5479 15922 1 0.16500 119244.000000
5480 12880 1 0.16500 119244.000000
5480 15558 1 0.16500 119244.000000
5481 12880 1 0.16500 119244.000000
5481 16380 1 0.16500 119244.000000
5482 12880 1 0.16500 119244.000000
5482 14410 1 0.16500 119244.000000
5483 12881 1 0.16500 119244.000000
5483 16174 1 0.16500 119244.000000
5484 12881 1 0.16500 119244.000000
5484 13843 1 0.16500 119244.000000
5485 12881 1 0.16500 119244.000000
5485 13412 1 0.16500 119244.000000
5486 12882 1 0.16500 119244.000000
5486 13752 1 0.16500 119244.000000
5487 12882 1 0.16500 119244.000000
5487 16604 1 0.16500 119244.000000
5488 12883 1 0.16500 119244.000000
5488 14598 1 0.16500 119244.000000
5489 12883 1 0.16500 119244.000000
5489 14995 1 0.16500 119244.000000
5490 12883 1 0.16500 119244.000000
5490 13815 1 0.16500 119244.000000
5491 12884 1 0.16500 119244.000000
5491 14249 1 0.16500 119244.000000
5492 12884 1 0.16500 119244.000000
5492 14197 1 0.16500 119244.000000
5493 12884 1 0.16500 119244.000000
5493 15512 1 0.16500 119244.000000
5494 12885 1 0.16500 119244.000000
5494 14535 1 0.16500 119244.000000
5495 12885 1 0.16500 119244.000000
5495 14186 1 0.16500 119244.000000
5496 12886 1 0.16500 119244.000000
5496 16426 1 0.16500 119244.000000
5497 12886 1 0.16500 119244.000000
5497 15499 1 0.16500 119244.000000
5498 12886 1 0.16500 119244.000000
5498 20374 1 0.16500 119244.000000
5499 12887 1 0.16500 119244.000000
5499 15120 1 0.16500 119244.000000
5500 12887 1 0.16500 119244.000000
5500 16410 1 0.16500 119244.000000
5501 12888 1 0.16500 119244.000000
5501 18814 1 0.16500 119244.000000
5502 12888 1 0.16500 119244.000000
5502 14771 1 0.16500 119244.000000
5503 12888 1 0.16500 119244.000000
5503 16200 1 0.16500 119244.000000
5504 12889 1 0.16500 119244.000000
5504 21658 1 0.16500 119244.000000
5505 12889 1 0.16500 119244.000000
5505 15915 1 0.16500 119244.000000
5506 12889 1 0.16500 119244.000000
5506 18730 1 0.16500 119244.000000
5507 12890 1 0.16500 119244.000000
5507 15946 1 0.16500 119244.000000
5508 12890 1 0.16500 119244.000000
5508 15085 1 0.16500 119244.000000
5509 12890 1 0.16500 119244.000000
5509 15644 1 0.16500 119244.000000
5510 12891 1 0.16500 119244.000000
5510 13185 1 0.16500 119244.000000
5511 12891 1 0.16500 119244.000000
5511 14486 1 0.16500 119244.000000
5512 12892 1 0.16500 119244.000000
5512 16231 1 0.16500 119244.000000
5513 12892 1 0.16500 119244.000000
5513 16602 1 0.16500 119244.000000
5514 12892 1 0.16500 119244.000000
5514 14284 1 0.16500 119244.000000
5515 12892 1 0.16500 119244.000000
5515 15400 1 0.16500 119244.000000
5516 12893 1 0.16500 119244.000000
5516 15792 1 0.16500 119244.000000
5517 12894 1 0.16500 119244.000000
5517 16571 1 0.16500 119244.000000
5518 12894 1 0.16500 119244.000000
5518 13743 1 0.16500 119244.000000
5519 12894 1 0.16500 119244.000000
5519 13213 1 0.16500 119244.000000
5520 12895 1 0.16500 119244.000000
5520 15371 1 0.16500 119244.000000
5521 12895 1 0.16500 119244.000000
5521 12951 1 0.16500 119244.000000
5522 12895 1 0.16500 119244.000000
5522 15313 1 0.16500 119244.000000
5523 12896 1 0.16500 119244.000000
5523 14492 1 0.16500 119244.000000
5524 12896 1 0.16500 119244.000000
5524 14451 1 0.16500 119244.000000
5525 12897 1 0.16500 119244.000000
5525 16333 1 0.16500 119244.000000
5526 12898 1 0.16500 119244.000000
5526 14114 1 0.16500 119244.000000
5527 12898 1 0.16500 119244.000000
5527 13054 1 0.16500 119244.000000
5528 12899 1 0.16500 119244.000000
5528 13799 1 0.16500 119244.000000
5529 12899 1 0.16500 119244.000000
5529 15008 1 0.16500 119244.000000
5530 12899 1 0.16500 119244.000000
5530 13438 1 0.16500 119244.000000
5531 12899 1 0.16500 119244.000000
5531 14417 1 0.16500 119244.000000
5532 12900 1 0.16500 119244.000000
5532 13100 1 0.16500 119244.000000
5533 12900 1 0.16500 119244.000000
5533 13169 1 0.16500 119244.000000
5534 12900 1 0.16500 119244.000000
5534 13170 1 0.16500 119244.000000
5535 12901 1 0.16500 119244.000000
5535 13750 1 0.16500 119244.000000
5536 12901 1 0.16500 119244.000000
5536 16239 1 0.16500 119244.000000
5537 12902 1 0.16500 119244.000000
5537 16486 1 0.16500 119244.000000
5538 12902 1 0.16500 119244.000000
5538 13308 1 0.16500 119244.000000
5539 12902 1 0.16500 119244.000000
5539 15493 1 0.16500 119244.000000
5540 17876 1 0.16500 119244.000000
5540 19102 1 0.16500 119244.000000
5541 14091 1 0.16500 119244.000000
5541 17876 1 0.16500 119244.000000
5542 12903 1 0.16500 119244.000000
5542 22044 1 0.16500 119244.000000
5543 12903 1 0.16500 119244.000000
5543 15324 1 0.16500 119244.000000
5544 12904 1 0.16500 119244.000000
5544 16214 1 0.16500 119244.000000
5545 14151 1 0.16500 119244.000000
5545 15943 1 0.16500 119244.000000
5546 12904 1 0.16500 119244.000000
5546 14363 1 0.16500 119244.000000
5547 12904 1 0.16500 119244.000000
5547 15943 1 0.16500 119244.000000
5548 12905 1 0.16500 119244.000000
5548 16029 1 0.16500 119244.000000
5549 12905 1 0.16500 119244.000000
5549 14036 1 0.16500 119244.000000
5550 12222 1 0.16500 119244.000000
5550 15886 1 0.16500 119244.000000
5551 12906 1 0.16500 119244.000000
5551 16331 1 0.16500 119244.000000
5552 12906 1 0.16500 119244.000000
5552 14006 1 0.16500 119244.000000
5553 12907 1 0.16500 119244.000000
5553 16018 1 0.16500 119244.000000
5554 12907 1 0.16500 119244.000000
5554 15367 1 0.16500 119244.000000
5555 12907 1 0.16500 119244.000000
5555 14320 1 0.16500 119244.000000
5556 12907 1 0.16500 119244.000000
5556 13128 1 0.16500 119244.000000
5557 12908 1 0.16500 119244.000000
5557 15353 1 0.16500 119244.000000
5558 12908 1 0.16500 119244.000000
5558 14571 1 0.16500 119244.000000
5559 12908 1 0.16500 119244.000000
5559 14329 1 0.16500 119244.000000
5560 12909 1 0.16500 119244.000000
5560 16317 1 0.16500 119244.000000
5561 12909 1 0.16500 119244.000000
5561 20182 1 0.16500 119244.000000
5562 12910 1 0.16500 119244.000000
5562 14391 1 0.16500 119244.000000
5563 12910 1 0.16500 119244.000000
5563 14794 1 0.16500 119244.000000
5564 12910 1 0.16500 119244.000000
5564 14366 1 0.16500 119244.000000
5565 12912 1 0.16500 119244.000000
5565 15692 1 0.16500 119244.000000
5566 12912 1 0.16500 119244.000000
5566 18156 1 0.16500 119244.000000
5567 12912 1 0.16500 119244.000000
5567 15927 1 0.16500 119244.000000
5568 12913 1 0.16500 119244.000000
5568 14099 1 0.16500 119244.000000
5569 12913 1 0.16500 119244.000000
5569 14537 1 0.16500 119244.000000
5570 12913 1 0.16500 119244.000000
5570 12928 1 0.16500 119244.000000
5571 12914 1 0.16500 119244.000000
5571 13612 1 0.16500 119244.000000
5572 12915 1 0.16500 119244.000000
5572 14188 1 0.16500 119244.000000
5573 12915 1 0.16500 119244.000000
5573 16127 1 0.16500 119244.000000
5574 12916 1 0.16500 119244.000000
5574 15960 1 0.16500 119244.000000
5575 12916 1 0.16500 119244.000000
5575 13709 1 0.16500 119244.000000
5576 12916 1 0.16500 119244.000000
5576 16199 1 0.16500 119244.000000
5577 12068 1 0.16500 119244.000000
5577 15584 1 0.16500 119244.000000
5578 15584 1 0.16500 119244.000000
5578 17960 1 0.16500 119244.000000
5579 13529 1 0.16500 119244.000000
5579 18730 1 0.16500 119244.000000
5580 14878 1 0.16500 119244.000000
5580 16207 1 0.16500 119244.000000
5581 14878 1 0.16500 119244.000000
5581 18730 1 0.16500 119244.000000
5582 12917 1 0.16500 119244.000000
5582 13314 1 0.16500 119244.000000
5583 12917 1 0.16500 119244.000000
5583 15594 1 0.16500 119244.000000
5584 12917 1 0.16500 119244.000000
5584 14412 1 0.16500 119244.000000
5585 12918 1 0.16500 119244.000000
5585 15910 1 0.16500 119244.000000
5586 12918 1 0.16500 119244.000000
5586 13569 1 0.16500 119244.000000
5587 12919 1 0.16500 119244.000000
5587 14107 1 0.16500 119244.000000
5588 12919 1 0.16500 119244.000000
5588 15102 1 0.16500 119244.000000
5589 12919 1 0.16500 119244.000000
5589 13450 1 0.16500 119244.000000
5590 12919 1 0.16500 119244.000000
5590 16572 1 0.16500 119244.000000
5591 12920 1 0.16500 119244.000000
5591 16619 1 0.16500 119244.000000
5592 12920 1 0.16500 119244.000000
5592 19486 1 0.16500 119244.000000
5593 12920 1 0.16500 119244.000000
5593 13815 1 0.16500 119244.000000
5594 12921 1 0.16500 119244.000000
5594 14499 1 0.16500 119244.000000
5595 12921 1 0.16500 119244.000000
5595 13081 1 0.16500 119244.000000
5596 12921 1 0.16500 119244.000000
5596 15578 1 0.16500 119244.000000
5597 12921 1 0.16500 119244.000000
5597 16107 1 0.16500 119244.000000
5598 12922 1 0.16500 119244.000000
5598 15636 1 0.16500 119244.000000
5599 12922 1 0.16500 119244.000000
5599 12998 1 0.16500 119244.000000
5600 12923 1 0.16500 119244.000000
5600 15722 1 0.16500 119244.000000
5601 12923 1 0.16500 119244.000000
5601 13686 1 0.16500 119244.000000
5602 12924 1 0.16500 119244.000000
5602 14346 1 0.16500 119244.000000
5603 12924 1 0.16500 119244.000000
5603 14492 1 0.16500 119244.000000
5604 12924 1 0.16500 119244.000000
5604 13781 1 0.16500 119244.000000
5605 12925 1 0.16500 119244.000000
5605 14389 1 0.16500 119244.000000
5606 12925 1 0.16500 119244.000000
5606 14715 1 0.16500 119244.000000
5607 12925 1 0.16500 119244.000000
5607 14202 1 0.16500 119244.000000
5608 12925 1 0.16500 119244.000000
5608 13517 1 0.16500 119244.000000
5609 12926 1 0.16500 119244.000000
5609 14256 1 0.16500 119244.000000
5610 12926 1 0.16500 119244.000000
5610 15079 1 0.16500 119244.000000
5611 12926 1 0.16500 119244.000000
5611 16579 1 0.16500 119244.000000
5612 12927 1 0.16500 119244.000000
5612 15519 1 0.16500 119244.000000
5613 12927 1 0.16500 119244.000000
5613 15370 1 0.16500 119244.000000
5614 12927 1 0.16500 119244.000000
5614 16249 1 0.16500 119244.000000
5615 12928 1 0.16500 119244.000000
5615 14214 1 0.16500 119244.000000
5616 12928 1 0.16500 119244.000000
5616 15637 1 0.16500 119244.000000
5617 12928 1 0.16500 119244.000000
5617 15078 1 0.16500 119244.000000
5618 12929 1 0.16500 119244.000000
5618 15717 1 0.16500 119244.000000
5619 12929 1 0.16500 119244.000000
5619 14377 1 0.16500 119244.000000
5620 12929 1 0.16500 119244.000000
5620 14120 1 0.16500 119244.000000
5621 12929 1 0.16500 119244.000000
5621 13662 1 0.16500 119244.000000
5622 12930 1 0.16500 119244.000000
5622 15174 1 0.16500 119244.000000
5623 12930 1 0.16500 119244.000000
5623 16487 1 0.16500 119244.000000
5624 12930 1 0.16500 119244.000000
5624 14307 1 0.16500 119244.000000
5625 12930 1 0.16500 119244.000000
5625 14377 1 0.16500 119244.000000
5626 12931 1 0.16500 119244.000000
5626 16269 1 0.16500 119244.000000
5627 12932 1 0.16500 119244.000000
5627 21898 1 0.16500 119244.000000
5628 12932 1 0.16500 119244.000000
5628 14583 1 0.16500 119244.000000
5629 12933 1 0.16500 119244.000000
5629 14243 1 0.16500 119244.000000
5630 13778 1 0.16500 119244.000000
5630 21436 1 0.16500 119244.000000
5631 12934 1 0.16500 119244.000000
5631 14208 1 0.16500 119244.000000
5632 15253 1 0.16500 119244.000000
5632 16070 1 0.16500 119244.000000
5633 12934 1 0.16500 119244.000000
5633 16070 1 0.16500 119244.000000
5634 12934 1 0.16500 119244.000000
5634 13484 1 0.16500 119244.000000
5635 12935 1 0.16500 119244.000000
5635 16134 1 0.16500 119244.000000
5636 12935 1 0.16500 119244.000000
5636 16036 1 0.16500 119244.000000
5637 12935 1 0.16500 119244.000000
5637 13005 1 0.16500 119244.000000
5638 12935 1 0.16500 119244.000000
5638 13627 1 0.16500 119244.000000
5639 12936 1 0.16500 119244.000000
5639 15307 1 0.16500 119244.000000
5640 12936 1 0.16500 119244.000000
5640 13283 1 0.16500 119244.000000
5641 12936 1 0.16500 119244.000000
5641 15526 1 0.16500 119244.000000
5642 12937 1 0.16500 119244.000000
5642 14783 1 0.16500 119244.000000
5643 12937 1 0.16500 119244.000000
5643 16336 1 0.16500 119244.000000
5644 12937 1 0.16500 119244.000000
5644 13678 1 0.16500 119244.000000
5645 12937 1 0.16500 119244.000000
5645 14653 1 0.16500 119244.000000
5646 12938 1 0.16500 119244.000000
5646 13655 1 0.16500 119244.000000
5647 12938 1 0.16500 119244.000000
5647 15427 1 0.16500 119244.000000
5648 12938 1 0.16500 119244.000000
5648 14715 1 0.16500 119244.000000
5649 12939 1 0.16500 119244.000000
5649 16518 1 0.16500 119244.000000
5650 12939 1 0.16500 119244.000000
5650 14184 1 0.16500 119244.000000
5651 12939 1 0.16500 119244.000000
5651 15188 1 0.16500 119244.000000
5652 12939 1 0.16500 119244.000000
5652 16541 1 0.16500 119244.000000
5653 13984 1 0.16500 119244.000000
5653 14900 1 0.16500 119244.000000
5654 12940 1 0.16500 119244.000000
5654 13984 1 0.16500 119244.000000
5655 12940 1 0.16500 119244.000000
5655 14388 1 0.16500 119244.000000
5656 12941 1 0.16500 119244.000000
5656 13680 1 0.16500 119244.000000
5657 12941 1 0.16500 119244.000000
5657 13893 1 0.16500 119244.000000
5658 12941 1 0.16500 119244.000000
5658 15373 1 0.16500 119244.000000
5659 12941 1 0.16500 119244.000000
5659 15917 1 0.16500 119244.000000
5660 15761 1 0.16500 119244.000000
5660 21313 1 0.16500 119244.000000
5661 12942 1 0.16500 119244.000000
5661 13190 1 0.16500 119244.000000
5662 12942 1 0.16500 119244.000000
5662 15548 1 0.16500 119244.000000
5663 12942 1 0.16500 119244.000000
5663 14051 1 0.16500 119244.000000
5664 12943 1 0.16500 119244.000000
5664 13889 1 0.16500 119244.000000
5665 12943 1 0.16500 119244.000000
5665 13105 1 0.16500 119244.000000
5666 12943 1 0.16500 119244.000000
5666 13400 1 0.16500 119244.000000
5667 12944 1 0.16500 119244.000000
5667 14912 1 0.16500 119244.000000
5668 12944 1 0.16500 119244.000000
5668 16486 1 0.16500 119244.000000
5669 12944 1 0.16500 119244.000000
5669 14441 1 0.16500 119244.000000
5670 12945 1 0.16500 119244.000000
5670 14214 1 0.16500 119244.000000
5671 12945 1 0.16500 119244.000000
5671 19678 1 0.16500 119244.000000
5672 12945 1 0.16500 119244.000000
5672 13112 1 0.16500 119244.000000
5673 12945 1 0.16500 119244.000000
5673 15779 1 0.16500 119244.000000
5674 12946 1 0.16500 119244.000000
5674 14208 1 0.16500 119244.000000
5675 12946 1 0.16500 119244.000000
5675 13164 1 0.16500 119244.000000
5676 12946 1 0.16500 119244.000000
5676 13496 1 0.16500 119244.000000
5677 12946 1 0.16500 119244.000000
5677 12984 1 0.16500 119244.000000
5678 12947 1 0.16500 119244.000000
5678 15349 1 0.16500 119244.000000
5679 12947 1 0.16500 119244.000000
5679 13680 1 0.16500 119244.000000
5680 12947 1 0.16500 119244.000000
5680 16202 1 0.16500 119244.000000
5681 12948 1 0.16500 119244.000000
5681 16438 1 0.16500 119244.000000
5682 12948 1 0.16500 119244.000000
5682 14553 1 0.16500 119244.000000
5683 12949 1 0.16500 119244.000000
5683 14796 1 0.16500 119244.000000
5684 12949 1 0.16500 119244.000000
5684 14425 1 0.16500 119244.000000
5685 12949 1 0.16500 119244.000000
5685 15544 1 0.16500 119244.000000
5686 12950 1 0.16500 119244.000000
5686 15799 1 0.16500 119244.000000
5687 12950 1 0.16500 119244.000000
5687 14443 1 0.16500 119244.000000
5688 12950 1 0.16500 119244.000000
5688 14004 1 0.16500 119244.000000
5689 12951 1 0.16500 119244.000000
5689 14510 1 0.16500 119244.000000
5690 12951 1 0.16500 119244.000000
5690 14832 1 0.16500 119244.000000
5691 12952 1 0.16500 119244.000000
5691 16250 1 0.16500 119244.000000
5692 12952 1 0.16500 119244.000000
5692 13853 1 0.16500 119244.000000
5693 12952 1 0.16500 119244.000000
5693 14892 1 0.16500 119244.000000
5694 11854 1 0.16500 119244.000000
5694 13312 1 0.16500 119244.000000
5695 13312 1 0.16500 119244.000000
5695 16082 1 0.16500 119244.000000
5696 12954 1 0.16500 119244.000000
5696 15274 1 0.16500 119244.000000
5697 12954 1 0.16500 119244.000000
5697 15270 1 0.16500 119244.000000
5698 12954 1 0.16500 119244.000000
5698 15835 1 0.16500 119244.000000
5699 12954 1 0.16500 119244.000000
5699 16079 1 0.16500 119244.000000
5700 12955 1 0.16500 119244.000000
5700 13183 1 0.16500 119244.000000
5701 12955 1 0.16500 119244.000000
5701 16244 1 0.16500 119244.000000
5702 12955 1 0.16500 119244.000000
5702 16115 1 0.16500 119244.000000
5703 12956 1 0.16500 119244.000000
5703 15226 1 0.16500 119244.000000
5704 12956 1 0.16500 119244.000000
5704 13227 1 0.16500 119244.000000
5705 12956 1 0.16500 119244.000000
5705 15890 1 0.16500 119244.000000
5706 13003 1 0.16500 119244.000000
5706 13930 1 0.16500 119244.000000
5707 12957 1 0.16500 119244.000000
5707 14754 1 0.16500 119244.000000
5708 12957 1 0.16500 119244.000000
5708 13003 1 0.16500 119244.000000
5709 12958 1 0.16500 119244.000000
5709 19402 1 0.16500 119244.000000
5710 12958 1 0.16500 119244.000000
5710 13423 1 0.16500 119244.000000
5711 12959 1 0.16500 119244.000000
5711 13695 1 0.16500 119244.000000
5712 12959 1 0.16500 119244.000000
5712 13714 1 0.16500 119244.000000
5713 12960 1 0.16500 119244.000000
5713 14411 1 0.16500 119244.000000
5714 12960 1 0.16500 119244.000000
5714 21508 1 0.16500 119244.000000
5715 12961 1 0.16500 119244.000000
5715 14528 1 0.16500 119244.000000
5716 12961 1 0.16500 119244.000000
5716 13391 1 0.16500 119244.000000
5717 12961 1 0.16500 119244.000000
5717 13936 1 0.16500 119244.000000
5718 12962 1 0.16500 119244.000000
5718 14933 1 0.16500 119244.000000
5719 12962 1 0.16500 119244.000000
5719 13923 1 0.16500 119244.000000
5720 12962 1 0.16500 119244.000000
5720 16294 1 0.16500 119244.000000
5721 12962 1 0.16500 119244.000000
5721 16316 1 0.16500 119244.000000
5722 12963 1 0.16500 119244.000000
5722 14813 1 0.16500 119244.000000
5723 12963 1 0.16500 119244.000000
5723 14639 1 0.16500 119244.000000
5724 12963 1 0.16500 119244.000000
5724 15493 1 0.16500 119244.000000
5725 16069 1 0.16500 119244.000000
5725 21439 1 0.16500 119244.000000
5726 13959 1 0.16500 119244.000000
5726 21439 1 0.16500 119244.000000
5727 19318 1 0.16500 119244.000000
5727 21439 1 0.16500 119244.000000
5728 12964 1 0.16500 119244.000000
5728 14726 1 0.16500 119244.000000
5729 12964 1 0.16500 119244.000000
5729 14048 1 0.16500 119244.000000
5730 12964 1 0.16500 119244.000000
5730 15091 1 0.16500 119244.000000
5731 12965 1 0.16500 119244.000000
5731 15120 1 0.16500 119244.000000
5732 12965 1 0.16500 119244.000000
5732 14265 1 0.16500 119244.000000
5733 12966 1 0.16500 119244.000000
5733 13264 1 0.16500 119244.000000
5734 12966 1 0.16500 119244.000000
5734 13315 1 0.16500 119244.000000
5735 12967 1 0.16500 119244.000000
5735 15773 1 0.16500 119244.000000
5736 12967 1 0.16500 119244.000000
5736 13535 1 0.16500 119244.000000
5737 16232 1 0.16500 119244.000000
5737 17316 1 0.16500 119244.000000
5738 12968 1 0.16500 119244.000000
5738 15828 1 0.16500 119244.000000
5739 12968 1 0.16500 119244.000000
5739 13380 1 0.16500 119244.000000
5740 12968 1 0.16500 119244.000000
5740 15612 1 0.16500 119244.000000
5741 12968 1 0.16500 119244.000000
5741 14942 1 0.16500 119244.000000
5742 12969 1 0.16500 119244.000000
5742 16144 1 0.16500 119244.000000
5743 12969 1 0.16500 119244.000000
5743 13038 1 0.16500 119244.000000
5744 15021 1 0.16500 119244.000000
5744 16144 1 0.16500 119244.000000
5745 12784 1 0.16500 119244.000000
5745 12970 1 0.16500 119244.000000
5746 12970 1 0.16500 119244.000000
5746 14270 1 0.16500 119244.000000
5747 12971 1 0.16500 119244.000000
5747 15288 1 0.16500 119244.000000
5748 12971 1 0.16500 119244.000000
5748 14437 1 0.16500 119244.000000
5749 12972 1 0.16500 119244.000000
5749 14612 1 0.16500 119244.000000
5750 12972 1 0.16500 119244.000000
5750 14000 1 0.16500 119244.000000
5751 12973 1 0.16500 119244.000000
5751 14012 1 0.16500 119244.000000
5752 12973 1 0.16500 119244.000000
5752 14090 1 0.16500 119244.000000
5753 12974 1 0.16500 119244.000000
5753 13609 1 0.16500 119244.000000
5754 12974 1 0.16500 119244.000000
5754 13244 1 0.16500 119244.000000
5755 12974 1 0.16500 119244.000000
5755 16090 1 0.16500 119244.000000
5756 12975 1 0.16500 119244.000000
5756 14561 1 0.16500 119244.000000
5757 12975 1 0.16500 119244.000000
5757 14452 1 0.16500 119244.000000
5758 12975 1 0.16500 119244.000000
5758 14084 1 0.16500 119244.000000
5759 12976 1 0.16500 119244.000000
5759 14743 1 0.16500 119244.000000
5760 14743 1 0.16500 119244.000000
5760 16459 1 0.16500 119244.000000
5761 12977 1 0.16500 119244.000000
5761 14987 1 0.16500 119244.000000
5762 12977 1 0.16500 119244.000000
5762 21974 1 0.16500 119244.000000
5763 12977 1 0.16500 119244.000000
5763 21802 1 0.16500 119244.000000
5764 14668 1 0.16500 119244.000000
5764 14987 1 0.16500 119244.000000
5765 12978 1 0.16500 119244.000000
5765 13319 1 0.16500 119244.000000
5766 12978 1 0.16500 119244.000000
5766 16027 1 0.16500 119244.000000
5767 12979 1 0.16500 119244.000000
5767 15739 1 0.16500 119244.000000
5768 12979 1 0.16500 119244.000000
5768 14478 1 0.16500 119244.000000
5769 12979 1 0.16500 119244.000000
5769 15491 1 0.16500 119244.000000
5770 12979 1 0.16500 119244.000000
5770 14000 1 0.16500 119244.000000
5771 12980 1 0.16500 119244.000000
5771 14862 1 0.16500 119244.000000
5772 12981 1 0.16500 119244.000000
5772 15951 1 0.16500 119244.000000
5773 12981 1 0.16500 119244.000000
5773 15197 1 0.16500 119244.000000
5774 12982 1 0.16500 119244.000000
5774 13752 1 0.16500 119244.000000
5775 12982 1 0.16500 119244.000000
5775 13641 1 0.16500 119244.000000
5776 12982 1 0.16500 119244.000000
5776 16431 1 0.16500 119244.000000
5777 12983 1 0.16500 119244.000000
5777 13001 1 0.16500 119244.000000
5778 12983 1 0.16500 119244.000000
5778 13522 1 0.16500 119244.000000
5779 12983 1 0.16500 119244.000000
5779 14927 1 0.16500 119244.000000
5780 12984 1 0.16500 119244.000000
5780 13760 1 0.16500 119244.000000
5781 12984 1 0.16500 119244.000000
5781 14145 1 0.16500 119244.000000
5782 12984 1 0.16500 119244.000000
5782 13631 1 0.16500 119244.000000
5783 12985 1 0.16500 119244.000000
5783 15014 1 0.16500 119244.000000
5784 12985 1 0.16500 119244.000000
5784 13232 1 0.16500 119244.000000
5785 12985 1 0.16500 119244.000000
5785 15149 1 0.16500 119244.000000
5786 12986 1 0.16500 119244.000000
5786 19210 1 0.16500 119244.000000
5787 12987 1 0.16500 119244.000000
5787 13654 1 0.16500 119244.000000
5788 12987 1 0.16500 119244.000000
5788 15590 1 0.16500 119244.000000
5789 12987 1 0.16500 119244.000000
5789 14018 1 0.16500 119244.000000
5790 12987 1 0.16500 119244.000000
5790 16166 1 0.16500 119244.000000
5791 15327 1 0.16500 119244.000000
5791 15581 1 0.16500 119244.000000
5792 12988 1 0.16500 119244.000000
5792 15327 1 0.16500 119244.000000
5793 12988 1 0.16500 119244.000000
5793 15086 1 0.16500 119244.000000
5794 13316 1 0.16500 119244.000000
5794 13973 1 0.16500 119244.000000
5795 12989 1 0.16500 119244.000000
5795 14358 1 0.16500 119244.000000
5796 12989 1 0.16500 119244.000000
5796 14127 1 0.16500 119244.000000
5797 12989 1 0.16500 119244.000000
5797 13973 1 0.16500 119244.000000
5798 12990 1 0.16500 119244.000000
5798 13701 1 0.16500 119244.000000
5799 11458 1 0.16500 119244.000000
5799 12990 1 0.16500 119244.000000
5800 12990 1 0.16500 119244.000000
5800 14308 1 0.16500 119244.000000
5801 12990 1 0.16500 119244.000000
5801 13913 1 0.16500 119244.000000
5802 12991 1 0.16500 119244.000000
5802 13407 1 0.16500 119244.000000
5803 12992 1 0.16500 119244.000000
5803 15432 1 0.16500 119244.000000
5804 12992 1 0.16500 119244.000000
5804 15338 1 0.16500 119244.000000
5805 12992 1 0.16500 119244.000000
5805 16134 1 0.16500 119244.000000
5806 12993 1 0.16500 119244.000000
5806 15590 1 0.16500 119244.000000
5807 12993 1 0.16500 119244.000000
5807 15318 1 0.16500 119244.000000
5808 12993 1 0.16500 119244.000000
5808 14947 1 0.16500 119244.000000
5809 12993 1 0.16500 119244.000000
5809 15526 1 0.16500 119244.000000
5810 12994 1 0.16500 119244.000000
5810 15705 1 0.16500 119244.000000
5811 12994 1 0.16500 119244.000000
5811 14977 1 0.16500 119244.000000
5812 12995 1 0.16500 119244.000000
5812 13150 1 0.16500 119244.000000
5813 12995 1 0.16500 119244.000000
5813 14225 1 0.16500 119244.000000
5814 12995 1 0.16500 119244.000000
5814 13049 1 0.16500 119244.000000
5815 12996 1 0.16500 119244.000000
5815 16459 1 0.16500 119244.000000
5816 12996 1 0.16500 119244.000000
5816 15995 1 0.16500 119244.000000
5817 12996 1 0.16500 119244.000000
5817 13581 1 0.16500 119244.000000
5818 12997 1 0.16500 119244.000000
5818 16137 1 0.16500 119244.000000
5819 12997 1 0.16500 119244.000000
5819 16392 1 0.16500 119244.000000
5820 12922 1 0.16500 119244.000000
5820 13813 1 0.16500 119244.000000
5821 12998 1 0.16500 119244.000000
5821 14214 1 0.16500 119244.000000
5822 12999 1 0.16500 119244.000000
5822 14575 1 0.16500 119244.000000
5823 12999 1 0.16500 119244.000000
5823 16315 1 0.16500 119244.000000
5824 13349 1 0.16500 119244.000000
5824 15368 1 0.16500 119244.000000
5825 13000 1 0.16500 119244.000000
5825 15368 1 0.16500 119244.000000
5826 13000 1 0.16500 119244.000000
5826 15338 1 0.16500 119244.000000
5827 13000 1 0.16500 119244.000000
5827 13989 1 0.16500 119244.000000
5828 14285 1 0.16500 119244.000000
5828 14335 1 0.16500 119244.000000
5829 14335 1 0.16500 119244.000000
5829 20734 1 0.16500 119244.000000
5830 13243 1 0.16500 119244.000000
5830 20614 1 0.16500 119244.000000
5831 13001 1 0.16500 119244.000000
5831 15200 1 0.16500 119244.000000
5832 15325 1 0.16500 119244.000000
5832 21442 1 0.16500 119244.000000
5833 14321 1 0.16500 119244.000000
5833 21442 1 0.16500 119244.000000
5834 21442 1 0.16500 119244.000000
5834 21559 1 0.16500 119244.000000
5835 13002 1 0.16500 119244.000000
5835 14122 1 0.16500 119244.000000
5836 13002 1 0.16500 119244.000000
5836 14712 1 0.16500 119244.000000
5837 14460 1 0.16500 119244.000000
5837 14712 1 0.16500 119244.000000
5838 14342 1 0.16500 119244.000000
5838 14712 1 0.16500 119244.000000
5839 16413 1 0.16500 119244.000000
5839 21445 1 0.16500 119244.000000
5840 14787 1 0.16500 119244.000000
5840 16413 1 0.16500 119244.000000
5841 16413 1 0.16500 119244.000000
5841 18478 1 0.16500 119244.000000
5842 16275 1 0.16500 119244.000000
5842 16413 1 0.16500 119244.000000
5843 13003 1 0.16500 119244.000000
5843 15075 1 0.16500 119244.000000
5844 12957 1 0.16500 119244.000000
5844 16448 1 0.16500 119244.000000
5845 13004 1 0.16500 119244.000000
5845 21989 1 0.16500 119244.000000
5846 13004 1 0.16500 119244.000000
5846 21979 1 0.16500 119244.000000
5847 13005 1 0.16500 119244.000000
5847 13885 1 0.16500 119244.000000
5848 13005 1 0.16500 119244.000000
5848 21613 1 0.16500 119244.000000
5849 13005 1 0.16500 119244.000000
5849 14968 1 0.16500 119244.000000
5850 13006 1 0.16500 119244.000000
5850 16015 1 0.16500 119244.000000
5851 13006 1 0.16500 119244.000000
5851 14299 1 0.16500 119244.000000
5852 13006 1 0.16500 119244.000000
5852 14990 1 0.16500 119244.000000
5853 13007 1 0.16500 119244.000000
5853 16210 1 0.16500 119244.000000
5854 13008 1 0.16500 119244.000000
5854 19234 1 0.16500 119244.000000
5855 13008 1 0.16500 119244.000000
5855 13950 1 0.16500 119244.000000
5856 13008 1 0.16500 119244.000000
5856 15458 1 0.16500 119244.000000
5857 13008 1 0.16500 119244.000000
5857 15776 1 0.16500 119244.000000
5858 12730 1 0.16500 119244.000000
5858 13009 1 0.16500 119244.000000
5859 13009 1 0.16500 119244.000000
5859 13461 1 0.16500 119244.000000
5860 15622 1 0.16500 119244.000000
5860 21448 1 0.16500 119244.000000
5861 15210 1 0.16500 119244.000000
5861 15622 1 0.16500 119244.000000
5862 13010 1 0.16500 119244.000000
5862 15929 1 0.16500 119244.000000
5863 14312 1 0.16500 119244.000000
5863 15147 1 0.16500 119244.000000
5864 13010 1 0.16500 119244.000000
5864 15147 1 0.16500 119244.000000
5865 13011 1 0.16500 119244.000000
5865 15417 1 0.16500 119244.000000
5866 13011 1 0.16500 119244.000000
5866 21523 1 0.16500 119244.000000
5867 13011 1 0.16500 119244.000000
5867 16103 1 0.16500 119244.000000
5868 13012 1 0.16500 119244.000000
5868 14563 1 0.16500 119244.000000
5869 13012 1 0.16500 119244.000000
5869 16386 1 0.16500 119244.000000
5870 13013 1 0.16500 119244.000000
5870 15266 1 0.16500 119244.000000
5871 13013 1 0.16500 119244.000000
5871 13778 1 0.16500 119244.000000
5872 13013 1 0.16500 119244.000000
5872 15788 1 0.16500 119244.000000
5873 13014 1 0.16500 119244.000000
5873 13154 1 0.16500 119244.000000
5874 13014 1 0.16500 119244.000000
5874 15239 1 0.16500 119244.000000
5875 13014 1 0.16500 119244.000000
5875 13628 1 0.16500 119244.000000
5876 13015 1 0.16500 119244.000000
5876 13459 1 0.16500 119244.000000
5877 13015 1 0.16500 119244.000000
5877 13902 1 0.16500 119244.000000
5878 13015 1 0.16500 119244.000000
5878 13394 1 0.16500 119244.000000
5879 11615 1 0.16500 119244.000000
5879 13015 1 0.16500 119244.000000
5880 13016 1 0.16500 119244.000000
5880 13864 1 0.16500 119244.000000
5881 13016 1 0.16500 119244.000000
5881 13748 1 0.16500 119244.000000
5882 13016 1 0.16500 119244.000000
5882 13834 1 0.16500 119244.000000
5883 13016 1 0.16500 119244.000000
5883 15543 1 0.16500 119244.000000
5884 13017 1 0.16500 119244.000000
5884 15040 1 0.16500 119244.000000
5885 13017 1 0.16500 119244.000000
5885 13493 1 0.16500 119244.000000
5886 13017 1 0.16500 119244.000000
5886 16013 1 0.16500 119244.000000
5887 13018 1 0.16500 119244.000000
5887 16623 1 0.16500 119244.000000
5888 13018 1 0.16500 119244.000000
5888 15490 1 0.16500 119244.000000
5889 13019 1 0.16500 119244.000000
5889 13498 1 0.16500 119244.000000
5890 13019 1 0.16500 119244.000000
5890 14276 1 0.16500 119244.000000
5891 13019 1 0.16500 119244.000000
5891 15126 1 0.16500 119244.000000
5892 13020 1 0.16500 119244.000000
5892 13462 1 0.16500 119244.000000
5893 12445 1 0.16500 119244.000000
5893 13020 1 0.16500 119244.000000
5894 13020 1 0.16500 119244.000000
5894 14964 1 0.16500 119244.000000
5895 13021 1 0.16500 119244.000000
5895 14551 1 0.16500 119244.000000
5896 13021 1 0.16500 119244.000000
5896 15643 1 0.16500 119244.000000
5897 13021 1 0.16500 119244.000000
5897 14698 1 0.16500 119244.000000
5898 13022 1 0.16500 119244.000000
5898 16148 1 0.16500 119244.000000
5899 13022 1 0.16500 119244.000000
5899 15650 1 0.16500 119244.000000
5900 13022 1 0.16500 119244.000000
5900 14935 1 0.16500 119244.000000
5901 13023 1 0.16500 119244.000000
5901 14355 1 0.16500 119244.000000
5902 13023 1 0.16500 119244.000000
5902 13249 1 0.16500 119244.000000
5903 13023 1 0.16500 119244.000000
5903 13784 1 0.16500 119244.000000
5904 13024 1 0.16500 119244.000000
5904 13518 1 0.16500 119244.000000
5905 13024 1 0.16500 119244.000000
5905 14738 1 0.16500 119244.000000
5906 13024 1 0.16500 119244.000000
5906 16225 1 0.16500 119244.000000
5907 13024 1 0.16500 119244.000000
5907 13639 1 0.16500 119244.000000
5908 13025 1 0.16500 119244.000000
5908 15653 1 0.16500 119244.000000
5909 12165 1 0.16500 119244.000000
5909 13025 1 0.16500 119244.000000
5910 13025 1 0.16500 119244.000000
5910 13294 1 0.16500 119244.000000
5911 13026 1 0.16500 119244.000000
5911 14425 1 0.16500 119244.000000
5912 13026 1 0.16500 119244.000000
5912 13569 1 0.16500 119244.000000
5913 13026 1 0.16500 119244.000000
5913 15166 1 0.16500 119244.000000
5914 13027 1 0.16500 119244.000000
5914 15158 1 0.16500 119244.000000
5915 13027 1 0.16500 119244.000000
5915 15264 1 0.16500 119244.000000
5916 13027 1 0.16500 119244.000000
5916 13322 1 0.16500 119244.000000
5917 13028 1 0.16500 119244.000000
5917 13335 1 0.16500 119244.000000
5918 13028 1 0.16500 119244.000000
5918 13726 1 0.16500 119244.000000
5919 16370 1 0.16500 119244.000000
5919 16728 1 0.16500 119244.000000
5920 11573 1 0.16500 119244.000000
5920 13029 1 0.16500 119244.000000
5921 13029 1 0.16500 119244.000000
5921 15368 1 0.16500 119244.000000
5922 13029 1 0.16500 119244.000000
5922 13377 1 0.16500 119244.000000
5923 13030 1 0.16500 119244.000000
5923 16003 1 0.16500 119244.000000
5924 13030 1 0.16500 119244.000000
5924 15767 1 0.16500 119244.000000
5925 13030 1 0.16500 119244.000000
5925 13249 1 0.16500 119244.000000
5926 13031 1 0.16500 119244.000000
5926 14319 1 0.16500 119244.000000
5927 12253 1 0.16500 119244.000000
5927 13541 1 0.16500 119244.000000
5928 13032 1 0.16500 119244.000000
5928 16153 1 0.16500 119244.000000
5929 13032 1 0.16500 119244.000000
5929 15081 1 0.16500 119244.000000
5930 13033 1 0.16500 119244.000000
5930 13856 1 0.16500 119244.000000
5931 13033 1 0.16500 119244.000000
5931 16421 1 0.16500 119244.000000
5932 13033 1 0.16500 119244.000000
5932 14145 1 0.16500 119244.000000
5933 13033 1 0.16500 119244.000000
5933 14240 1 0.16500 119244.000000
5934 13034 1 0.16500 119244.000000
5934 13746 1 0.16500 119244.000000
5935 13035 1 0.16500 119244.000000
5935 14735 1 0.16500 119244.000000
5936 13035 1 0.16500 119244.000000
5936 14307 1 0.16500 119244.000000
5937 13036 1 0.16500 119244.000000
5937 14041 1 0.16500 119244.000000
5938 13036 1 0.16500 119244.000000
5938 13518 1 0.16500 119244.000000
5939 13037 1 0.16500 119244.000000
5939 14532 1 0.16500 119244.000000
5940 13037 1 0.16500 119244.000000
5940 13560 1 0.16500 119244.000000
5941 13037 1 0.16500 119244.000000
5941 14848 1 0.16500 119244.000000
5942 13037 1 0.16500 119244.000000
5942 14371 1 0.16500 119244.000000
5943 15876 1 0.16500 119244.000000
5943 16273 1 0.16500 119244.000000
5944 14045 1 0.16500 119244.000000
5944 15876 1 0.16500 119244.000000
5945 13038 1 0.16500 119244.000000
5945 15876 1 0.16500 119244.000000
5946 13039 1 0.16500 119244.000000
5946 15194 1 0.16500 119244.000000
5947 13039 1 0.16500 119244.000000
5947 15193 1 0.16500 119244.000000
5948 13039 1 0.16500 119244.000000
5948 13250 1 0.16500 119244.000000
5949 13040 1 0.16500 119244.000000
5949 16453 1 0.16500 119244.000000
5950 13040 1 0.16500 119244.000000
5950 13899 1 0.16500 119244.000000
5951 13040 1 0.16500 119244.000000
5951 13177 1 0.16500 119244.000000
5952 13040 1 0.16500 119244.000000
5952 13541 1 0.16500 119244.000000
5953 13041 1 0.16500 119244.000000
5953 13977 1 0.16500 119244.000000
5954 13041 1 0.16500 119244.000000
5954 15539 1 0.16500 119244.000000
5955 12791 1 0.16500 119244.000000
5955 13041 1 0.16500 119244.000000
5956 13041 1 0.16500 119244.000000
5956 16177 1 0.16500 119244.000000
5957 13042 1 0.16500 119244.000000
5957 14234 1 0.16500 119244.000000
5958 13042 1 0.16500 119244.000000
5958 13761 1 0.16500 119244.000000
5959 13042 1 0.16500 119244.000000
5959 13522 1 0.16500 119244.000000
5960 13042 1 0.16500 119244.000000
5960 15370 1 0.16500 119244.000000
5961 13043 1 0.16500 119244.000000
5961 13488 1 0.16500 119244.000000
5962 13043 1 0.16500 119244.000000
5962 13694 1 0.16500 119244.000000
5963 14415 1 0.16500 119244.000000
5963 15141 1 0.16500 119244.000000
5964 13374 1 0.16500 119244.000000
5964 20254 1 0.16500 119244.000000
5965 14415 1 0.16500 119244.000000
5965 20254 1 0.16500 119244.000000
5966 13044 1 0.16500 119244.000000
5966 15515 1 0.16500 119244.000000
5967 13044 1 0.16500 119244.000000
5967 15308 1 0.16500 119244.000000
5968 13045 1 0.16500 119244.000000
5968 13994 1 0.16500 119244.000000
5969 13045 1 0.16500 119244.000000
5969 21406 1 0.16500 119244.000000
5970 13046 1 0.16500 119244.000000
5970 14288 1 0.16500 119244.000000
5971 13046 1 0.16500 119244.000000
5971 14275 1 0.16500 119244.000000
5972 13046 1 0.16500 119244.000000
5972 13565 1 0.16500 119244.000000
5973 13434 1 0.16500 119244.000000
5973 14288 1 0.16500 119244.000000
5974 16577 1 0.16500 119244.000000
5974 18922 1 0.16500 119244.000000
5975 18922 1 0.16500 119244.000000
5975 21517 1 0.16500 119244.000000
5976 13047 1 0.16500 119244.000000
5976 13694 1 0.16500 119244.000000
5977 13047 1 0.16500 119244.000000
5977 15327 1 0.16500 119244.000000
5978 13533 1 0.16500 119244.000000
5978 14263 1 0.16500 119244.000000
5979 14922 1 0.16500 119244.000000
5979 20842 1 0.16500 119244.000000
5980 13533 1 0.16500 119244.000000
5980 20842 1 0.16500 119244.000000
5981 13533 1 0.16500 119244.000000
5981 14882 1 0.16500 119244.000000
5982 13048 1 0.16500 119244.000000
5982 14032 1 0.16500 119244.000000
5983 13048 1 0.16500 119244.000000
5983 13233 1 0.16500 119244.000000
5984 13049 1 0.16500 119244.000000
5984 15591 1 0.16500 119244.000000
5985 13049 1 0.16500 119244.000000
5985 14165 1 0.16500 119244.000000
5986 13049 1 0.16500 119244.000000
5986 13323 1 0.16500 119244.000000
5987 13050 1 0.16500 119244.000000
5987 16439 1 0.16500 119244.000000
5988 13050 1 0.16500 119244.000000
5988 15586 1 0.16500 119244.000000
5989 13051 1 0.16500 119244.000000
5989 16027 1 0.16500 119244.000000
5990 13051 1 0.16500 119244.000000
5990 14685 1 0.16500 119244.000000
5991 18706 1 0.16500 119244.000000
5991 21775 1 0.16500 119244.000000
5992 13209 1 0.16500 119244.000000
5992 18706 1 0.16500 119244.000000
5993 13052 1 0.16500 119244.000000
5993 15283 1 0.16500 119244.000000
5994 13052 1 0.16500 119244.000000
5994 13574 1 0.16500 119244.000000
5995 13052 1 0.16500 119244.000000
5995 16372 1 0.16500 119244.000000
5996 13052 1 0.16500 119244.000000
5996 14948 1 0.16500 119244.000000
5997 17022 1 0.16500 119244.000000
5997 20050 1 0.16500 119244.000000
5998 20050 1 0.16500 119244.000000
5998 21601 1 0.16500 119244.000000
5999 13053 1 0.16500 119244.000000
5999 15856 1 0.16500 119244.000000
6000 13054 1 0.16500 119244.000000
6000 15156 1 0.16500 119244.000000
6001 13054 1 0.16500 119244.000000
6001 16527 1 0.16500 119244.000000
6002 13055 1 0.16500 119244.000000
6002 15388 1 0.16500 119244.000000
6003 13055 1 0.16500 119244.000000
6003 13787 1 0.16500 119244.000000
6004 13055 1 0.16500 119244.000000
6004 13086 1 0.16500 119244.000000
6005 13056 1 0.16500 119244.000000
6005 16434 1 0.16500 119244.000000
6006 13056 1 0.16500 119244.000000
6006 15409 1 0.16500 119244.000000
6007 13057 1 0.16500 119244.000000
6007 15545 1 0.16500 119244.000000
6008 13057 1 0.16500 119244.000000
6008 13155 1 0.16500 119244.000000
6009 13057 1 0.16500 119244.000000
6009 15526 1 0.16500 119244.000000
6010 13057 1 0.16500 119244.000000
6010 13756 1 0.16500 119244.000000
6011 13058 1 0.16500 119244.000000
6011 15567 1 0.16500 119244.000000
6012 13058 1 0.16500 119244.000000
6012 15994 1 0.16500 119244.000000
6013 13059 1 0.16500 119244.000000
6013 13132 1 0.16500 119244.000000
6014 13059 1 0.16500 119244.000000
6014 14793 1 0.16500 119244.000000
6015 13059 1 0.16500 119244.000000
6015 15164 1 0.16500 119244.000000
6016 13060 1 0.16500 119244.000000
6016 16528 1 0.16500 119244.000000
6017 13060 1 0.16500 119244.000000
6017 14690 1 0.16500 119244.000000
6018 13060 1 0.16500 119244.000000
6018 15008 1 0.16500 119244.000000
6019 13060 1 0.16500 119244.000000
6019 16355 1 0.16500 119244.000000
6020 11663 1 0.16500 119244.000000
6020 13368 1 0.16500 119244.000000
6021 11663 1 0.16500 119244.000000
6021 16308 1 0.16500 119244.000000
6022 13062 1 0.16500 119244.000000
6022 15457 1 0.16500 119244.000000
6023 13062 1 0.16500 119244.000000
6023 13727 1 0.16500 119244.000000
6024 13062 1 0.16500 119244.000000
6024 13743 1 0.16500 119244.000000
6025 13062 1 0.16500 119244.000000
6025 14852 1 0.16500 119244.000000
6026 21451 1 0.16500 119244.000000
6026 21484 1 0.16500 119244.000000
6027 15288 1 0.16500 119244.000000
6027 21451 1 0.16500 119244.000000
6028 13063 1 0.16500 119244.000000
6028 13718 1 0.16500 119244.000000
6029 13063 1 0.16500 119244.000000
6029 15259 1 0.16500 119244.000000
6030 13063 1 0.16500 119244.000000
6030 16149 1 0.16500 119244.000000
6031 16128 1 0.16500 119244.000000
6031 18002 1 0.16500 119244.000000
6032 16128 1 0.16500 119244.000000
6032 21454 1 0.16500 119244.000000
6033 13064 1 0.16500 119244.000000
6033 13664 1 0.16500 119244.000000
6034 13064 1 0.16500 119244.000000
6034 14497 1 0.16500 119244.000000
6035 13065 1 0.16500 119244.000000
6035 13585 1 0.16500 119244.000000
6036 13065 1 0.16500 119244.000000
6036 16591 1 0.16500 119244.000000
6037 13065 1 0.16500 119244.000000
6037 13857 1 0.16500 119244.000000
6038 13066 1 0.16500 119244.000000
6038 13113 1 0.16500 119244.000000
6039 13067 1 0.16500 119244.000000
6039 13997 1 0.16500 119244.000000
6040 13067 1 0.16500 119244.000000
6040 16218 1 0.16500 119244.000000
6041 13067 1 0.16500 119244.000000
6041 13636 1 0.16500 119244.000000
6042 13067 1 0.16500 119244.000000
6042 15702 1 0.16500 119244.000000
6043 13068 1 0.16500 119244.000000
6043 16325 1 0.16500 119244.000000
6044 13068 1 0.16500 119244.000000
6044 14450 1 0.16500 119244.000000
6045 13068 1 0.16500 119244.000000
6045 15793 1 0.16500 119244.000000
6046 13068 1 0.16500 119244.000000
6046 16261 1 0.16500 119244.000000
6047 13069 1 0.16500 119244.000000
6047 15895 1 0.16500 119244.000000
6048 13069 1 0.16500 119244.000000
6048 14195 1 0.16500 119244.000000
6049 13069 1 0.16500 119244.000000
6049 15511 1 0.16500 119244.000000
6050 13070 1 0.16500 119244.000000
6050 16535 1 0.16500 119244.000000
6051 13718 1 0.16500 119244.000000
6051 18240 1 0.16500 119244.000000
6052 13071 1 0.16500 119244.000000
6052 14935 1 0.16500 119244.000000
6053 13071 1 0.16500 119244.000000
6053 15621 1 0.16500 119244.000000
6054 13071 1 0.16500 119244.000000
6054 14786 1 0.16500 119244.000000
6055 13072 1 0.16500 119244.000000
6055 14970 1 0.16500 119244.000000
6056 13072 1 0.16500 119244.000000
6056 21586 1 0.16500 119244.000000
6057 13072 1 0.16500 119244.000000
6057 19762 1 0.16500 119244.000000
6058 13073 1 0.16500 119244.000000
6058 14825 1 0.16500 119244.000000
6059 13073 1 0.16500 119244.000000
6059 16204 1 0.16500 119244.000000
6060 13073 1 0.16500 119244.000000
6060 16032 1 0.16500 119244.000000
6061 13074 1 0.16500 119244.000000
6061 16473 1 0.16500 119244.000000
6062 13075 1 0.16500 119244.000000
6062 13232 1 0.16500 119244.000000
6063 13075 1 0.16500 119244.000000
6063 14816 1 0.16500 119244.000000
6064 13075 1 0.16500 119244.000000
6064 15922 1 0.16500 119244.000000
6065 13076 1 0.16500 119244.000000
6065 13446 1 0.16500 119244.000000
6066 13076 1 0.16500 119244.000000
6066 16530 1 0.16500 119244.000000
6067 13076 1 0.16500 119244.000000
6067 15550 1 0.16500 119244.000000
6068 13077 1 0.16500 119244.000000
6068 15913 1 0.16500 119244.000000
6069 13077 1 0.16500 119244.000000
6069 13584 1 0.16500 119244.000000
6070 13078 1 0.16500 119244.000000
6070 15692 1 0.16500 119244.000000
6071 13078 1 0.16500 119244.000000
6071 21739 1 0.16500 119244.000000
6072 13078 1 0.16500 119244.000000
6072 16405 1 0.16500 119244.000000
6073 13078 1 0.16500 119244.000000
6073 21649 1 0.16500 119244.000000
6074 13079 1 0.16500 119244.000000
6074 14318 1 0.16500 119244.000000
6075 13079 1 0.16500 119244.000000
6075 14312 1 0.16500 119244.000000
6076 13080 1 0.16500 119244.000000
6076 16598 1 0.16500 119244.000000
6077 13080 1 0.16500 119244.000000
6077 14855 1 0.16500 119244.000000
6078 13080 1 0.16500 119244.000000
6078 16057 1 0.16500 119244.000000
6079 13992 1 0.16500 119244.000000
6079 21457 1 0.16500 119244.000000
6080 15473 1 0.16500 119244.000000
6080 21457 1 0.16500 119244.000000
6081 13081 1 0.16500 119244.000000
6081 14798 1 0.16500 119244.000000
6082 13081 1 0.16500 119244.000000
6082 15233 1 0.16500 119244.000000
6083 13081 1 0.16500 119244.000000
6083 14483 1 0.16500 119244.000000
6084 13082 1 0.16500 119244.000000
6084 13760 1 0.16500 119244.000000
6085 13082 1 0.16500 119244.000000
6085 14490 1 0.16500 119244.000000
6086 13082 1 0.16500 119244.000000
6086 13484 1 0.16500 119244.000000
6087 13082 1 0.16500 119244.000000
6087 14823 1 0.16500 119244.000000
6088 16593 1 0.16500 119244.000000
6088 21460 1 0.16500 119244.000000
6089 21142 1 0.16500 119244.000000
6089 21460 1 0.16500 119244.000000
6090 13083 1 0.16500 119244.000000
6090 15360 1 0.16500 119244.000000
6091 13083 1 0.16500 119244.000000
6091 16056 1 0.16500 119244.000000
6092 13083 1 0.16500 119244.000000
6092 14208 1 0.16500 119244.000000
6093 13083 1 0.16500 119244.000000
6093 13938 1 0.16500 119244.000000
6094 13084 1 0.16500 119244.000000
6094 15160 1 0.16500 119244.000000
6095 13084 1 0.16500 119244.000000
6095 16295 1 0.16500 119244.000000
6096 13084 1 0.16500 119244.000000
6096 13406 1 0.16500 119244.000000
6097 13085 1 0.16500 119244.000000
6097 13452 1 0.16500 119244.000000
6098 13085 1 0.16500 119244.000000
6098 13512 1 0.16500 119244.000000
6099 14481 1 0.16500 119244.000000
6099 21466 1 0.16500 119244.000000
6100 21466 1 0.16500 119244.000000
6100 21922 1 0.16500 119244.000000
6101 14118 1 0.16500 119244.000000
6101 21466 1 0.16500 119244.000000
6102 13086 1 0.16500 119244.000000
6102 14921 1 0.16500 119244.000000
6103 13086 1 0.16500 119244.000000
6103 16533 1 0.16500 119244.000000
6104 13087 1 0.16500 119244.000000
6104 16003 1 0.16500 119244.000000
6105 13087 1 0.16500 119244.000000
6105 13569 1 0.16500 119244.000000
6106 13087 1 0.16500 119244.000000
6106 14324 1 0.16500 119244.000000
6107 13087 1 0.16500 119244.000000
6107 14637 1 0.16500 119244.000000
6108 15902 1 0.16500 119244.000000
6108 18982 1 0.16500 119244.000000
6109 15881 1 0.16500 119244.000000
6109 18982 1 0.16500 119244.000000
6110 15348 1 0.16500 119244.000000
6110 18982 1 0.16500 119244.000000
6111 13088 1 0.16500 119244.000000
6111 14538 1 0.16500 119244.000000
6112 14967 1 0.16500 119244.000000
6112 15249 1 0.16500 119244.000000
6113 13088 1 0.16500 119244.000000
6113 14967 1 0.16500 119244.000000
6114 15996 1 0.16500 119244.000000
6114 16050 1 0.16500 119244.000000
6115 13089 1 0.16500 119244.000000
6115 15605 1 0.16500 119244.000000
6116 12665 1 0.16500 119244.000000
6116 13090 1 0.16500 119244.000000
6117 13090 1 0.16500 119244.000000
6117 16286 1 0.16500 119244.000000
6118 13091 1 0.16500 119244.000000
6118 16112 1 0.16500 119244.000000
6119 13092 1 0.16500 119244.000000
6119 15820 1 0.16500 119244.000000
6120 13092 1 0.16500 119244.000000
6120 13125 1 0.16500 119244.000000
6121 13092 1 0.16500 119244.000000
6121 13783 1 0.16500 119244.000000
6122 13093 1 0.16500 119244.000000
6122 15880 1 0.16500 119244.000000
6123 13093 1 0.16500 119244.000000
6123 13828 1 0.16500 119244.000000
6124 13094 1 0.16500 119244.000000
6124 14607 1 0.16500 119244.000000
6125 13094 1 0.16500 119244.000000
6125 15907 1 0.16500 119244.000000
6126 13094 1 0.16500 119244.000000
6126 16980 1 0.16500 119244.000000
6127 13094 1 0.16500 119244.000000
6127 13276 1 0.16500 119244.000000
6128 13095 1 0.16500 119244.000000
6128 13496 1 0.16500 119244.000000
6129 12125 1 0.16500 119244.000000
6129 13096 1 0.16500 119244.000000
6130 13096 1 0.16500 119244.000000
6130 17526 1 0.16500 119244.000000
6131 13096 1 0.16500 119244.000000
6131 14236 1 0.16500 119244.000000
6132 13097 1 0.16500 119244.000000
6132 13098 1 0.16500 119244.000000
6133 13097 1 0.16500 119244.000000
6133 13292 1 0.16500 119244.000000
6134 13097 1 0.16500 119244.000000
6134 15451 1 0.16500 119244.000000
6135 13527 1 0.16500 119244.000000
6135 15367 1 0.16500 119244.000000
6136 13098 1 0.16500 119244.000000
6136 13128 1 0.16500 119244.000000
6137 13099 1 0.16500 119244.000000
6137 14896 1 0.16500 119244.000000
6138 13099 1 0.16500 119244.000000
6138 13593 1 0.16500 119244.000000
6139 13099 1 0.16500 119244.000000
6139 13865 1 0.16500 119244.000000
6140 13099 1 0.16500 119244.000000
6140 16002 1 0.16500 119244.000000
6141 13100 1 0.16500 119244.000000
6141 13254 1 0.16500 119244.000000
6142 13100 1 0.16500 119244.000000
6142 15921 1 0.16500 119244.000000
6143 13100 1 0.16500 119244.000000
6143 14156 1 0.16500 119244.000000
6144 13101 1 0.16500 119244.000000
6144 16039 1 0.16500 119244.000000
6145 14080 1 0.16500 119244.000000
6145 14642 1 0.16500 119244.000000
6146 13102 1 0.16500 119244.000000
6146 14080 1 0.16500 119244.000000
6147 14080 1 0.16500 119244.000000
6147 15755 1 0.16500 119244.000000
6148 13103 1 0.16500 119244.000000
6148 21984 1 0.16500 119244.000000
6149 13103 1 0.16500 119244.000000
6149 15524 1 0.16500 119244.000000
6150 13104 1 0.16500 119244.000000
6150 16257 1 0.16500 119244.000000
6151 13104 1 0.16500 119244.000000
6151 16613 1 0.16500 119244.000000
6152 13104 1 0.16500 119244.000000
6152 15607 1 0.16500 119244.000000
6153 13104 1 0.16500 119244.000000
6153 15479 1 0.16500 119244.000000
6154 13105 1 0.16500 119244.000000
6154 14119 1 0.16500 119244.000000
6155 13106 1 0.16500 119244.000000
6155 14111 1 0.16500 119244.000000
6156 13106 1 0.16500 119244.000000
6156 14278 1 0.16500 119244.000000
6157 13106 1 0.16500 119244.000000
6157 13944 1 0.16500 119244.000000
6158 13107 1 0.16500 119244.000000
6158 15848 1 0.16500 119244.000000
6159 13107 1 0.16500 119244.000000
6159 13917 1 0.16500 119244.000000
6160 13108 1 0.16500 119244.000000
6160 14315 1 0.16500 119244.000000
6161 12669 1 0.16500 119244.000000
6161 13598 1 0.16500 119244.000000
6162 13598 1 0.16500 119244.000000
6162 15721 1 0.16500 119244.000000
6163 13109 1 0.16500 119244.000000
6163 13553 1 0.16500 119244.000000
6164 13109 1 0.16500 119244.000000
6164 13666 1 0.16500 119244.000000
6165 13110 1 0.16500 119244.000000
6165 14360 1 0.16500 119244.000000
6166 13110 1 0.16500 119244.000000
6166 13890 1 0.16500 119244.000000
6167 14239 1 0.16500 119244.000000
6167 16350 1 0.16500 119244.000000
6168 13111 1 0.16500 119244.000000
6168 15871 1 0.16500 119244.000000
6169 13111 1 0.16500 119244.000000
6169 15483 1 0.16500 119244.000000
6170 13111 1 0.16500 119244.000000
6170 14239 1 0.16500 119244.000000
6171 13112 1 0.16500 119244.000000
6171 15413 1 0.16500 119244.000000
6172 13112 1 0.16500 119244.000000
6172 21688 1 0.16500 119244.000000
6173 13113 1 0.16500 119244.000000
6173 21649 1 0.16500 119244.000000
6174 13113 1 0.16500 119244.000000
6174 14370 1 0.16500 119244.000000
6175 15900 1 0.16500 119244.000000
6175 16626 1 0.16500 119244.000000
6176 13114 1 0.16500 119244.000000
6176 13548 1 0.16500 119244.000000
6177 13114 1 0.16500 119244.000000
6177 16272 1 0.16500 119244.000000
6178 11845 1 0.16500 119244.000000
6178 16626 1 0.16500 119244.000000
6179 13115 1 0.16500 119244.000000
6179 14929 1 0.16500 119244.000000
6180 13115 1 0.16500 119244.000000
6180 13144 1 0.16500 119244.000000
6181 13116 1 0.16500 119244.000000
6181 15688 1 0.16500 119244.000000
6182 13116 1 0.16500 119244.000000
6182 16312 1 0.16500 119244.000000
6183 13116 1 0.16500 119244.000000
6183 14158 1 0.16500 119244.000000
6184 13116 1 0.16500 119244.000000
6184 14327 1 0.16500 119244.000000
6185 13117 1 0.16500 119244.000000
6185 14427 1 0.16500 119244.000000
6186 13117 1 0.16500 119244.000000
6186 21532 1 0.16500 119244.000000
6187 13117 1 0.16500 119244.000000
6187 15852 1 0.16500 119244.000000
6188 13118 1 0.16500 119244.000000
6188 13361 1 0.16500 119244.000000
6189 13118 1 0.16500 119244.000000
6189 16355 1 0.16500 119244.000000
6190 13118 1 0.16500 119244.000000
6190 14263 1 0.16500 119244.000000
6191 13118 1 0.16500 119244.000000
6191 13612 1 0.16500 119244.000000
6192 14454 1 0.16500 119244.000000
6192 19534 1 0.16500 119244.000000
6193 13119 1 0.16500 119244.000000
6193 14507 1 0.16500 119244.000000
6194 13119 1 0.16500 119244.000000
6194 13681 1 0.16500 119244.000000
6195 13119 1 0.16500 119244.000000
6195 14871 1 0.16500 119244.000000
6196 13119 1 0.16500 119244.000000
6196 14212 1 0.16500 119244.000000
6197 15902 1 0.16500 119244.000000
6197 18898 1 0.16500 119244.000000
6198 15080 1 0.16500 119244.000000
6198 18898 1 0.16500 119244.000000
6199 14407 1 0.16500 119244.000000
6199 17050 1 0.16500 119244.000000
6200 13120 1 0.16500 119244.000000
6200 15870 1 0.16500 119244.000000
6201 13120 1 0.16500 119244.000000
6201 14599 1 0.16500 119244.000000
6202 13120 1 0.16500 119244.000000
6202 13386 1 0.16500 119244.000000
6203 13121 1 0.16500 119244.000000
6203 13523 1 0.16500 119244.000000
6204 13121 1 0.16500 119244.000000
6204 13473 1 0.16500 119244.000000
6205 13122 1 0.16500 119244.000000
6205 14279 1 0.16500 119244.000000
6206 13122 1 0.16500 119244.000000
6206 16090 1 0.16500 119244.000000
6207 13122 1 0.16500 119244.000000
6207 14863 1 0.16500 119244.000000
6208 13123 1 0.16500 119244.000000
6208 14430 1 0.16500 119244.000000
6209 13123 1 0.16500 119244.000000
6209 14422 1 0.16500 119244.000000
6210 13124 1 0.16500 119244.000000
6210 14905 1 0.16500 119244.000000
6211 13124 1 0.16500 119244.000000
6211 15959 1 0.16500 119244.000000
6212 13124 1 0.16500 119244.000000
6212 14512 1 0.16500 119244.000000
6213 13124 1 0.16500 119244.000000
6213 16342 1 0.16500 119244.000000
6214 13125 1 0.16500 119244.000000
6214 13350 1 0.16500 119244.000000
6215 13126 1 0.16500 119244.000000
6215 13703 1 0.16500 119244.000000
6216 13126 1 0.16500 119244.000000
6216 13301 1 0.16500 119244.000000
6217 13126 1 0.16500 119244.000000
6217 13976 1 0.16500 119244.000000
6218 13127 1 0.16500 119244.000000
6218 15158 1 0.16500 119244.000000
6219 13127 1 0.16500 119244.000000
6219 19966 1 0.16500 119244.000000
6220 13128 1 0.16500 119244.000000
6220 15653 1 0.16500 119244.000000
6221 13129 1 0.16500 119244.000000
6221 16503 1 0.16500 119244.000000
6222 12806 1 0.16500 119244.000000
6222 13129 1 0.16500 119244.000000
6223 13130 1 0.16500 119244.000000
6223 15715 1 0.16500 119244.000000
6224 13130 1 0.16500 119244.000000
6224 20902 1 0.16500 119244.000000
6225 13130 1 0.16500 119244.000000
6225 21880 1 0.16500 119244.000000
6226 13131 1 0.16500 119244.000000
6226 14729 1 0.16500 119244.000000
6227 13131 1 0.16500 119244.000000
6227 16145 1 0.16500 119244.000000
6228 13131 1 0.16500 119244.000000
6228 14112 1 0.16500 119244.000000
6229 15343 1 0.16500 119244.000000
6229 20374 1 0.16500 119244.000000
6230 16585 1 0.16500 119244.000000
6230 18790 1 0.16500 119244.000000
6231 14097 1 0.16500 119244.000000
6231 18790 1 0.16500 119244.000000
6232 18790 1 0.16500 119244.000000
6232 20962 1 0.16500 119244.000000
6233 21322 1 0.16500 119244.000000
6233 21469 1 0.16500 119244.000000
6234 12491 1 0.16500 119244.000000
6234 14007 1 0.16500 119244.000000
6235 13132 1 0.16500 119244.000000
6235 22024 1 0.16500 119244.000000
6236 13133 1 0.16500 119244.000000
6236 14334 1 0.16500 119244.000000
6237 13133 1 0.16500 119244.000000
6237 13536 1 0.16500 119244.000000
6238 13133 1 0.16500 119244.000000
6238 15100 1 0.16500 119244.000000
6239 13134 1 0.16500 119244.000000
6239 15995 1 0.16500 119244.000000
6240 13134 1 0.16500 119244.000000
6240 13933 1 0.16500 119244.000000
6241 13134 1 0.16500 119244.000000
6241 16477 1 0.16500 119244.000000
6242 13134 1 0.16500 119244.000000
6242 16536 1 0.16500 119244.000000
6243 13135 1 0.16500 119244.000000
6243 13837 1 0.16500 119244.000000
6244 13135 1 0.16500 119244.000000
6244 15214 1 0.16500 119244.000000
6245 13136 1 0.16500 119244.000000
6245 16274 1 0.16500 119244.000000
6246 13137 1 0.16500 119244.000000
6246 15127 1 0.16500 119244.000000
6247 13137 1 0.16500 119244.000000
6247 15906 1 0.16500 119244.000000
6248 13138 1 0.16500 119244.000000
6248 15688 1 0.16500 119244.000000
6249 13138 1 0.16500 119244.000000
6249 14489 1 0.16500 119244.000000
6250 13138 1 0.16500 119244.000000
6250 13272 1 0.16500 119244.000000
6251 13139 1 0.16500 119244.000000
6251 21907 1 0.16500 119244.000000
6252 13140 1 0.16500 119244.000000
6252 16002 1 0.16500 119244.000000
6253 13140 1 0.16500 119244.000000
6253 14402 1 0.16500 119244.000000
6254 13140 1 0.16500 119244.000000
6254 14256 1 0.16500 119244.000000
6255 13141 1 0.16500 119244.000000
6255 14429 1 0.16500 119244.000000
6256 14316 1 0.16500 119244.000000
6256 15005 1 0.16500 119244.000000
6257 13141 1 0.16500 119244.000000
6257 13420 1 0.16500 119244.000000
6258 13141 1 0.16500 119244.000000
6258 14316 1 0.16500 119244.000000
6259 13142 1 0.16500 119244.000000
6259 14230 1 0.16500 119244.000000
6260 13142 1 0.16500 119244.000000
6260 16328 1 0.16500 119244.000000
6261 13142 1 0.16500 119244.000000
6261 15734 1 0.16500 119244.000000
6262 18478 1 0.16500 119244.000000
6262 21472 1 0.16500 119244.000000
6263 18874 1 0.16500 119244.000000
6263 21472 1 0.16500 119244.000000
6264 14185 1 0.16500 119244.000000
6264 21472 1 0.16500 119244.000000
6265 13143 1 0.16500 119244.000000
6265 13485 1 0.16500 119244.000000
6266 11465 1 0.16500 119244.000000
6266 15804 1 0.16500 119244.000000
6267 16714 1 0.16500 119244.000000
6267 21787 1 0.16500 119244.000000
6268 13145 1 0.16500 119244.000000
6268 16423 1 0.16500 119244.000000
6269 13145 1 0.16500 119244.000000
6269 15663 1 0.16500 119244.000000
6270 13145 1 0.16500 119244.000000
6270 14748 1 0.16500 119244.000000
6271 13145 1 0.16500 119244.000000
6271 16038 1 0.16500 119244.000000
6272 13146 1 0.16500 119244.000000
6272 15724 1 0.16500 119244.000000
6273 13146 1 0.16500 119244.000000
6273 15546 1 0.16500 119244.000000
6274 13146 1 0.16500 119244.000000
6274 14668 1 0.16500 119244.000000
6275 13991 1 0.16500 119244.000000
6275 14668 1 0.16500 119244.000000
6276 13147 1 0.16500 119244.000000
6276 13860 1 0.16500 119244.000000
6277 13147 1 0.16500 119244.000000
6277 13781 1 0.16500 119244.000000
6278 13148 1 0.16500 119244.000000
6278 16470 1 0.16500 119244.000000
6279 13148 1 0.16500 119244.000000
6279 14945 1 0.16500 119244.000000
6280 13148 1 0.16500 119244.000000
6280 16259 1 0.16500 119244.000000
6281 13148 1 0.16500 119244.000000
6281 15118 1 0.16500 119244.000000
6282 13149 1 0.16500 119244.000000
6282 16532 1 0.16500 119244.000000
6283 12292 1 0.16500 119244.000000
6283 13150 1 0.16500 119244.000000
6284 13150 1 0.16500 119244.000000
6284 16138 1 0.16500 119244.000000
6285 13150 1 0.16500 119244.000000
6285 15134 1 0.16500 119244.000000
6286 13151 1 0.16500 119244.000000
6286 15818 1 0.16500 119244.000000
6287 13151 1 0.16500 119244.000000
6287 15998 1 0.16500 119244.000000
6288 13152 1 0.16500 119244.000000
6288 16412 1 0.16500 119244.000000
6289 13152 1 0.16500 119244.000000
6289 16113 1 0.16500 119244.000000
6290 13153 1 0.16500 119244.000000
6290 16422 1 0.16500 119244.000000
6291 13153 1 0.16500 119244.000000
6291 16155 1 0.16500 119244.000000
6292 13154 1 0.16500 119244.000000
6292 14554 1 0.16500 119244.000000
6293 13154 1 0.16500 119244.000000
6293 15084 1 0.16500 119244.000000
6294 13154 1 0.16500 119244.000000
6294 13986 1 0.16500 119244.000000
6295 13155 1 0.16500 119244.000000
6295 15878 1 0.16500 119244.000000
6296 13155 1 0.16500 119244.000000
6296 15829 1 0.16500 119244.000000
6297 13156 1 0.16500 119244.000000
6297 15867 1 0.16500 119244.000000
6298 13156 1 0.16500 119244.000000
6298 15948 1 0.16500 119244.000000
6299 13156 1 0.16500 119244.000000
6299 15453 1 0.16500 119244.000000
6300 13156 1 0.16500 119244.000000
6300 15551 1 0.16500 119244.000000
6301 13157 1 0.16500 119244.000000
6301 14488 1 0.16500 119244.000000
6302 13157 1 0.16500 119244.000000
6302 16229 1 0.16500 119244.000000
6303 13157 1 0.16500 119244.000000
6303 22039 1 0.16500 119244.000000
6304 13158 1 0.16500 119244.000000
6304 16154 1 0.16500 119244.000000
6305 13158 1 0.16500 119244.000000
6305 16105 1 0.16500 119244.000000
6306 13159 1 0.16500 119244.000000
6306 14210 1 0.16500 119244.000000
6307 13159 1 0.16500 119244.000000
6307 14791 1 0.16500 119244.000000
6308 13159 1 0.16500 119244.000000
6308 16352 1 0.16500 119244.000000
6309 13160 1 0.16500 119244.000000
6309 14980 1 0.16500 119244.000000
6310 13160 1 0.16500 119244.000000
6310 14289 1 0.16500 119244.000000
6311 13161 1 0.16500 119244.000000
6311 13771 1 0.16500 119244.000000
6312 13161 1 0.16500 119244.000000
6312 14366 1 0.16500 119244.000000
6313 13161 1 0.16500 119244.000000
6313 13182 1 0.16500 119244.000000
6314 21475 1 0.16500 119244.000000
6314 21703 1 0.16500 119244.000000
6315 15465 1 0.16500 119244.000000
6315 21475 1 0.16500 119244.000000
6316 13162 1 0.16500 119244.000000
6316 16113 1 0.16500 119244.000000
6317 13162 1 0.16500 119244.000000
6317 15909 1 0.16500 119244.000000
6318 13162 1 0.16500 119244.000000
6318 13912 1 0.16500 119244.000000
6319 13163 1 0.16500 119244.000000
6319 14962 1 0.16500 119244.000000
6320 13163 1 0.16500 119244.000000
6320 14581 1 0.16500 119244.000000
6321 13102 1 0.16500 119244.000000
6321 13163 1 0.16500 119244.000000
6322 13163 1 0.16500 119244.000000
6322 16405 1 0.16500 119244.000000
6323 13164 1 0.16500 119244.000000
6323 13696 1 0.16500 119244.000000
6324 13164 1 0.16500 119244.000000
6324 15360 1 0.16500 119244.000000
6325 13165 1 0.16500 119244.000000
6325 16465 1 0.16500 119244.000000
6326 13165 1 0.16500 119244.000000
6326 14042 1 0.16500 119244.000000
6327 13165 1 0.16500 119244.000000
6327 13609 1 0.16500 119244.000000
6328 13166 1 0.16500 119244.000000
6328 16469 1 0.16500 119244.000000
6329 13166 1 0.16500 119244.000000
6329 16534 1 0.16500 119244.000000
6330 13166 1 0.16500 119244.000000
6330 15853 1 0.16500 119244.000000
6331 13167 1 0.16500 119244.000000
6331 14647 1 0.16500 119244.000000
6332 13167 1 0.16500 119244.000000
6332 16366 1 0.16500 119244.000000
6333 13167 1 0.16500 119244.000000
6333 15372 1 0.16500 119244.000000
6334 13167 1 0.16500 119244.000000
6334 13944 1 0.16500 119244.000000
6335 13168 1 0.16500 119244.000000
6335 21655 1 0.16500 119244.000000
6336 13169 1 0.16500 119244.000000
6336 14359 1 0.16500 119244.000000
6337 14359 1 0.16500 119244.000000
6337 15921 1 0.16500 119244.000000
6338 13170 1 0.16500 119244.000000
6338 13679 1 0.16500 119244.000000
6339 13170 1 0.16500 119244.000000
6339 16254 1 0.16500 119244.000000
6340 13171 1 0.16500 119244.000000
6340 16617 1 0.16500 119244.000000
6341 13171 1 0.16500 119244.000000
6341 21118 1 0.16500 119244.000000
6342 13171 1 0.16500 119244.000000
6342 15302 1 0.16500 119244.000000
6343 13172 1 0.16500 119244.000000
6343 15635 1 0.16500 119244.000000
6344 15635 1 0.16500 119244.000000
6344 15722 1 0.16500 119244.000000
6345 13172 1 0.16500 119244.000000
6345 16282 1 0.16500 119244.000000
6346 13173 1 0.16500 119244.000000
6346 13493 1 0.16500 119244.000000
6347 13173 1 0.16500 119244.000000
6347 15349 1 0.16500 119244.000000
6348 13173 1 0.16500 119244.000000
6348 16540 1 0.16500 119244.000000
6349 13173 1 0.16500 119244.000000
6349 13338 1 0.16500 119244.000000
6350 20698 1 0.16500 119244.000000
6350 21969 1 0.16500 119244.000000
6351 16477 1 0.16500 119244.000000
6351 21969 1 0.16500 119244.000000
6352 13174 1 0.16500 119244.000000
6352 16429 1 0.16500 119244.000000
6353 13174 1 0.16500 119244.000000
6353 16235 1 0.16500 119244.000000
6354 13175 1 0.16500 119244.000000
6354 13342 1 0.16500 119244.000000
6355 13175 1 0.16500 119244.000000
6355 16607 1 0.16500 119244.000000
6356 12760 1 0.16500 119244.000000
6356 15702 1 0.16500 119244.000000
6357 13176 1 0.16500 119244.000000
6357 14230 1 0.16500 119244.000000
6358 13177 1 0.16500 119244.000000
6358 13902 1 0.16500 119244.000000
6359 13177 1 0.16500 119244.000000
6359 15202 1 0.16500 119244.000000
6360 13178 1 0.16500 119244.000000
6360 15722 1 0.16500 119244.000000
6361 13961 1 0.16500 119244.000000
6361 15520 1 0.16500 119244.000000
6362 13178 1 0.16500 119244.000000
6362 14985 1 0.16500 119244.000000
6363 13178 1 0.16500 119244.000000
6363 13961 1 0.16500 119244.000000
6364 13179 1 0.16500 119244.000000
6364 21565 1 0.16500 119244.000000
6365 13179 1 0.16500 119244.000000
6365 14343 1 0.16500 119244.000000
6366 13179 1 0.16500 119244.000000
6366 20074 1 0.16500 119244.000000
6367 13179 1 0.16500 119244.000000
6367 14703 1 0.16500 119244.000000
6368 13180 1 0.16500 119244.000000
6368 13381 1 0.16500 119244.000000
6369 12627 1 0.16500 119244.000000
6369 13180 1 0.16500 119244.000000
6370 13180 1 0.16500 119244.000000
6370 14082 1 0.16500 119244.000000
6371 13181 1 0.16500 119244.000000
6371 15183 1 0.16500 119244.000000
6372 13181 1 0.16500 119244.000000
6372 14600 1 0.16500 119244.000000
6373 13181 1 0.16500 119244.000000
6373 15387 1 0.16500 119244.000000
6374 13182 1 0.16500 119244.000000
6374 16422 1 0.16500 119244.000000
6375 13182 1 0.16500 119244.000000
6375 15510 1 0.16500 119244.000000
6376 13183 1 0.16500 119244.000000
6376 14996 1 0.16500 119244.000000
6377 13183 1 0.16500 119244.000000
6377 15217 1 0.16500 119244.000000
6378 13184 1 0.16500 119244.000000
6378 15995 1 0.16500 119244.000000
6379 13184 1 0.16500 119244.000000
6379 18324 1 0.16500 119244.000000
6380 13184 1 0.16500 119244.000000
6380 20698 1 0.16500 119244.000000
6381 13185 1 0.16500 119244.000000
6381 16261 1 0.16500 119244.000000
6382 15324 1 0.16500 119244.000000
6382 21974 1 0.16500 119244.000000
6383 17596 1 0.16500 119244.000000
6383 21478 1 0.16500 119244.000000
6384 21478 1 0.16500 119244.000000
6384 21655 1 0.16500 119244.000000
6385 13186 1 0.16500 119244.000000
6385 14090 1 0.16500 119244.000000
6386 13186 1 0.16500 119244.000000
6386 21916 1 0.16500 119244.000000
6387 13187 1 0.16500 119244.000000
6387 13852 1 0.16500 119244.000000
6388 13187 1 0.16500 119244.000000
6388 14340 1 0.16500 119244.000000
6389 13187 1 0.16500 119244.000000
6389 14744 1 0.16500 119244.000000
6390 13187 1 0.16500 119244.000000
6390 15955 1 0.16500 119244.000000
6391 13188 1 0.16500 119244.000000
6391 15783 1 0.16500 119244.000000
6392 13188 1 0.16500 119244.000000
6392 13193 1 0.16500 119244.000000
6393 13188 1 0.16500 119244.000000
6393 16327 1 0.16500 119244.000000
6394 13188 1 0.16500 119244.000000
6394 16452 1 0.16500 119244.000000
6395 13189 1 0.16500 119244.000000
6395 13449 1 0.16500 119244.000000
6396 13189 1 0.16500 119244.000000
6396 15559 1 0.16500 119244.000000
6397 13189 1 0.16500 119244.000000
6397 14458 1 0.16500 119244.000000
6398 13190 1 0.16500 119244.000000
6398 13326 1 0.16500 119244.000000
6399 13190 1 0.16500 119244.000000
6399 15746 1 0.16500 119244.000000
6400 13326 1 0.16500 119244.000000
6400 14859 1 0.16500 119244.000000
6401 14944 1 0.16500 119244.000000
6401 16214 1 0.16500 119244.000000
6402 13191 1 0.16500 119244.000000
6402 13814 1 0.16500 119244.000000
6403 13191 1 0.16500 119244.000000
6403 14913 1 0.16500 119244.000000
6404 16477 1 0.16500 119244.000000
6404 21481 1 0.16500 119244.000000
6405 15163 1 0.16500 119244.000000
6405 21481 1 0.16500 119244.000000
6406 13204 1 0.16500 119244.000000
6406 21481 1 0.16500 119244.000000
6407 13192 1 0.16500 119244.000000
6407 13595 1 0.16500 119244.000000
6408 13192 1 0.16500 119244.000000
6408 16016 1 0.16500 119244.000000
6409 13193 1 0.16500 119244.000000
6409 14923 1 0.16500 119244.000000
6410 13194 1 0.16500 119244.000000
6410 13605 1 0.16500 119244.000000
6411 13194 1 0.16500 119244.000000
6411 15813 1 0.16500 119244.000000
6412 14608 1 0.16500 119244.000000
6412 15808 1 0.16500 119244.000000
6413 14585 1 0.16500 119244.000000
6413 15808 1 0.16500 119244.000000
6414 13195 1 0.16500 119244.000000
6414 15808 1 0.16500 119244.000000
6415 13196 1 0.16500 119244.000000
6415 14955 1 0.16500 119244.000000
6416 13197 1 0.16500 119244.000000
6416 16207 1 0.16500 119244.000000
6417 15792 1 0.16500 119244.000000
6417 21811 1 0.16500 119244.000000
6418 13197 1 0.16500 119244.000000
6418 15792 1 0.16500 119244.000000
6419 13198 1 0.16500 119244.000000
6419 13503 1 0.16500 119244.000000
6420 13198 1 0.16500 119244.000000
6420 16135 1 0.16500 119244.000000
6421 13199 1 0.16500 119244.000000
6421 14350 1 0.16500 119244.000000
6422 13199 1 0.16500 119244.000000
6422 15582 1 0.16500 119244.000000
6423 13339 1 0.16500 119244.000000
6423 20038 1 0.16500 119244.000000
6424 13200 1 0.16500 119244.000000
6424 14087 1 0.16500 119244.000000
6425 13200 1 0.16500 119244.000000
6425 20566 1 0.16500 119244.000000
6426 13200 1 0.16500 119244.000000
6426 14248 1 0.16500 119244.000000
6427 13200 1 0.16500 119244.000000
6427 13516 1 0.16500 119244.000000
6428 13201 1 0.16500 119244.000000
6428 15758 1 0.16500 119244.000000
6429 13201 1 0.16500 119244.000000
6429 14476 1 0.16500 119244.000000
6430 13202 1 0.16500 119244.000000
6430 15474 1 0.16500 119244.000000
6431 13202 1 0.16500 119244.000000
6431 13609 1 0.16500 119244.000000
6432 13203 1 0.16500 119244.000000
6432 16041 1 0.16500 119244.000000
6433 13203 1 0.16500 119244.000000
6433 13625 1 0.16500 119244.000000
6434 13204 1 0.16500 119244.000000
6434 14835 1 0.16500 119244.000000
6435 13204 1 0.16500 119244.000000
6435 15284 1 0.16500 119244.000000
6436 13204 1 0.16500 119244.000000
6436 15130 1 0.16500 119244.000000
6437 15284 1 0.16500 119244.000000
6437 16357 1 0.16500 119244.000000
6438 13205 1 0.16500 119244.000000
6438 13952 1 0.16500 119244.000000
6439 13205 1 0.16500 119244.000000
6439 14227 1 0.16500 119244.000000
6440 13206 1 0.16500 119244.000000
6440 21745 1 0.16500 119244.000000
6441 13206 1 0.16500 119244.000000
6441 21871 1 0.16500 119244.000000
6442 13206 1 0.16500 119244.000000
6442 15530 1 0.16500 119244.000000
6443 13207 1 0.16500 119244.000000
6443 13710 1 0.16500 119244.000000
6444 13207 1 0.16500 119244.000000
6444 13492 1 0.16500 119244.000000
6445 13207 1 0.16500 119244.000000
6445 13568 1 0.16500 119244.000000
6446 13207 1 0.16500 119244.000000
6446 13884 1 0.16500 119244.000000
6447 13208 1 0.16500 119244.000000
6447 13616 1 0.16500 119244.000000
6448 13208 1 0.16500 119244.000000
6448 13947 1 0.16500 119244.000000
6449 13208 1 0.16500 119244.000000
6449 13966 1 0.16500 119244.000000
6450 13209 1 0.16500 119244.000000
6450 13622 1 0.16500 119244.000000
6451 13209 1 0.16500 119244.000000
6451 14855 1 0.16500 119244.000000
6452 13209 1 0.16500 119244.000000
6452 21805 1 0.16500 119244.000000
6453 13210 1 0.16500 119244.000000
6453 14519 1 0.16500 119244.000000
6454 13210 1 0.16500 119244.000000
6454 15521 1 0.16500 119244.000000
6455 13210 1 0.16500 119244.000000
6455 15747 1 0.16500 119244.000000
6456 13211 1 0.16500 119244.000000
6456 13862 1 0.16500 119244.000000
6457 13211 1 0.16500 119244.000000
6457 13287 1 0.16500 119244.000000
6458 13211 1 0.16500 119244.000000
6458 14193 1 0.16500 119244.000000
6459 13211 1 0.16500 119244.000000
6459 15933 1 0.16500 119244.000000
6460 13212 1 0.16500 119244.000000
6460 14469 1 0.16500 119244.000000
6461 13212 1 0.16500 119244.000000
6461 13813 1 0.16500 119244.000000
6462 13212 1 0.16500 119244.000000
6462 14099 1 0.16500 119244.000000
6463 13212 1 0.16500 119244.000000
6463 15260 1 0.16500 119244.000000
6464 13213 1 0.16500 119244.000000
6464 14497 1 0.16500 119244.000000
6465 13213 1 0.16500 119244.000000
6465 15320 1 0.16500 119244.000000
6466 13213 1 0.16500 119244.000000
6466 15819 1 0.16500 119244.000000
6467 13214 1 0.16500 119244.000000
6467 15362 1 0.16500 119244.000000
6468 12434 1 0.16500 119244.000000
6468 13965 1 0.16500 119244.000000
6469 13215 1 0.16500 119244.000000
6469 13850 1 0.16500 119244.000000
6470 12434 1 0.16500 119244.000000
6470 14723 1 0.16500 119244.000000
6471 13216 1 0.16500 119244.000000
6471 14011 1 0.16500 119244.000000
6472 13216 1 0.16500 119244.000000
6472 14534 1 0.16500 119244.000000
6473 13217 1 0.16500 119244.000000
6473 15671 1 0.16500 119244.000000
6474 13217 1 0.16500 119244.000000
6474 15325 1 0.16500 119244.000000
6475 13217 1 0.16500 119244.000000
6475 15760 1 0.16500 119244.000000
6476 13218 1 0.16500 119244.000000
6476 13384 1 0.16500 119244.000000
6477 13218 1 0.16500 119244.000000
6477 14879 1 0.16500 119244.000000
6478 13218 1 0.16500 119244.000000
6478 15526 1 0.16500 119244.000000
6479 12790 1 0.16500 119244.000000
6479 13219 1 0.16500 119244.000000
6480 13220 1 0.16500 119244.000000
6480 15850 1 0.16500 119244.000000
6481 13220 1 0.16500 119244.000000
6481 13940 1 0.16500 119244.000000
6482 13220 1 0.16500 119244.000000
6482 15065 1 0.16500 119244.000000
6483 13221 1 0.16500 119244.000000
6483 14907 1 0.16500 119244.000000
6484 13221 1 0.16500 119244.000000
6484 15548 1 0.16500 119244.000000
6485 13221 1 0.16500 119244.000000
6485 14338 1 0.16500 119244.000000
6486 13222 1 0.16500 119244.000000
6486 21994 1 0.16500 119244.000000
6487 13222 1 0.16500 119244.000000
6487 14371 1 0.16500 119244.000000
6488 14311 1 0.16500 119244.000000
6488 14371 1 0.16500 119244.000000
6489 13223 1 0.16500 119244.000000
6489 14713 1 0.16500 119244.000000
6490 13224 1 0.16500 119244.000000
6490 13990 1 0.16500 119244.000000
6491 13224 1 0.16500 119244.000000
6491 15426 1 0.16500 119244.000000
6492 12224 1 0.16500 119244.000000
6492 18538 1 0.16500 119244.000000
6493 13225 1 0.16500 119244.000000
6493 14467 1 0.16500 119244.000000
6494 13225 1 0.16500 119244.000000
6494 16128 1 0.16500 119244.000000
6495 13225 1 0.16500 119244.000000
6495 15601 1 0.16500 119244.000000
6496 12022 1 0.16500 119244.000000
6496 13225 1 0.16500 119244.000000
6497 13226 1 0.16500 119244.000000
6497 13929 1 0.16500 119244.000000
6498 13226 1 0.16500 119244.000000
6498 14824 1 0.16500 119244.000000
6499 13226 1 0.16500 119244.000000
6499 14364 1 0.16500 119244.000000
6500 13226 1 0.16500 119244.000000
6500 19174 1 0.16500 119244.000000
6501 13227 1 0.16500 119244.000000
6501 14860 1 0.16500 119244.000000
6502 13227 1 0.16500 119244.000000
6502 13349 1 0.16500 119244.000000
6503 13228 1 0.16500 119244.000000
6503 14216 1 0.16500 119244.000000
6504 13228 1 0.16500 119244.000000
6504 16002 1 0.16500 119244.000000
6505 13229 1 0.16500 119244.000000
6505 16302 1 0.16500 119244.000000
6506 13229 1 0.16500 119244.000000
6506 13547 1 0.16500 119244.000000
6507 13230 1 0.16500 119244.000000
6507 15712 1 0.16500 119244.000000
6508 13231 1 0.16500 119244.000000
6508 15091 1 0.16500 119244.000000
6509 13231 1 0.16500 119244.000000
6509 15061 1 0.16500 119244.000000
6510 13231 1 0.16500 119244.000000
6510 13484 1 0.16500 119244.000000
6511 13231 1 0.16500 119244.000000
6511 14650 1 0.16500 119244.000000
6512 13232 1 0.16500 119244.000000
6512 16380 1 0.16500 119244.000000
6513 13233 1 0.16500 119244.000000
6513 15658 1 0.16500 119244.000000
6514 13233 1 0.16500 119244.000000
6514 14992 1 0.16500 119244.000000
6515 13234 1 0.16500 119244.000000
6515 21577 1 0.16500 119244.000000
6516 13234 1 0.16500 119244.000000
6516 15630 1 0.16500 119244.000000
6517 13235 1 0.16500 119244.000000
6517 21826 1 0.16500 119244.000000
6518 13235 1 0.16500 119244.000000
6518 13512 1 0.16500 119244.000000
6519 14880 1 0.16500 119244.000000
6519 21826 1 0.16500 119244.000000
6520 13236 1 0.16500 119244.000000
6520 16230 1 0.16500 119244.000000
6521 13236 1 0.16500 119244.000000
6521 14209 1 0.16500 119244.000000
6522 13237 1 0.16500 119244.000000
6522 13316 1 0.16500 119244.000000
6523 13237 1 0.16500 119244.000000
6523 15345 1 0.16500 119244.000000
6524 13237 1 0.16500 119244.000000
6524 14010 1 0.16500 119244.000000
6525 13238 1 0.16500 119244.000000
6525 16296 1 0.16500 119244.000000
6526 14013 1 0.16500 119244.000000
6526 21487 1 0.16500 119244.000000
6527 13239 1 0.16500 119244.000000
6527 13409 1 0.16500 119244.000000
6528 13239 1 0.16500 119244.000000
6528 14152 1 0.16500 119244.000000
6529 13239 1 0.16500 119244.000000
6529 16500 1 0.16500 119244.000000
6530 13240 1 0.16500 119244.000000
6530 16429 1 0.16500 119244.000000
6531 13240 1 0.16500 119244.000000
6531 15992 1 0.16500 119244.000000
6532 13241 1 0.16500 119244.000000
6532 13993 1 0.16500 119244.000000
6533 13241 1 0.16500 119244.000000
6533 14708 1 0.16500 119244.000000
6534 13241 1 0.16500 119244.000000
6534 13509 1 0.16500 119244.000000
6535 13241 1 0.16500 119244.000000
6535 13284 1 0.16500 119244.000000
6536 13242 1 0.16500 119244.000000
6536 14142 1 0.16500 119244.000000
6537 13242 1 0.16500 119244.000000
6537 13769 1 0.16500 119244.000000
6538 13243 1 0.16500 119244.000000
6538 19066 1 0.16500 119244.000000
6539 13243 1 0.16500 119244.000000
6539 14516 1 0.16500 119244.000000
6540 13245 1 0.16500 119244.000000
6540 15431 1 0.16500 119244.000000
6541 13245 1 0.16500 119244.000000
6541 15593 1 0.16500 119244.000000
6542 13245 1 0.16500 119244.000000
6542 14489 1 0.16500 119244.000000
6543 13245 1 0.16500 119244.000000
6543 16399 1 0.16500 119244.000000
6544 13246 1 0.16500 119244.000000
6544 13369 1 0.16500 119244.000000
6545 13246 1 0.16500 119244.000000
6545 13960 1 0.16500 119244.000000
6546 13960 1 0.16500 119244.000000
6546 14491 1 0.16500 119244.000000
6547 11637 1 0.16500 119244.000000
6547 13775 1 0.16500 119244.000000
6548 11637 1 0.16500 119244.000000
6548 15692 1 0.16500 119244.000000
6549 11637 1 0.16500 119244.000000
6549 15655 1 0.16500 119244.000000
6550 13248 1 0.16500 119244.000000
6550 14195 1 0.16500 119244.000000
6551 13248 1 0.16500 119244.000000
6551 13747 1 0.16500 119244.000000
6552 13747 1 0.16500 119244.000000
6552 15895 1 0.16500 119244.000000
6553 13249 1 0.16500 119244.000000
6553 13585 1 0.16500 119244.000000
6554 13249 1 0.16500 119244.000000
6554 15277 1 0.16500 119244.000000
6555 11537 1 0.16500 119244.000000
6555 13250 1 0.16500 119244.000000
6556 15969 1 0.16500 119244.000000
6556 21490 1 0.16500 119244.000000
6557 21490 1 0.16500 119244.000000
6557 21502 1 0.16500 119244.000000
6558 16966 1 0.16500 119244.000000
6558 21676 1 0.16500 119244.000000
6559 13251 1 0.16500 119244.000000
6559 16333 1 0.16500 119244.000000
6560 13251 1 0.16500 119244.000000
6560 21499 1 0.16500 119244.000000
6561 13251 1 0.16500 119244.000000
6561 14416 1 0.16500 119244.000000
6562 13251 1 0.16500 119244.000000
6562 16526 1 0.16500 119244.000000
6563 13252 1 0.16500 119244.000000
6563 15070 1 0.16500 119244.000000
6564 13252 1 0.16500 119244.000000
6564 16004 1 0.16500 119244.000000
6565 13252 1 0.16500 119244.000000
6565 14969 1 0.16500 119244.000000
6566 16025 1 0.16500 119244.000000
6566 20170 1 0.16500 119244.000000
6567 20170 1 0.16500 119244.000000
6567 21925 1 0.16500 119244.000000
6568 14289 1 0.16500 119244.000000
6568 20170 1 0.16500 119244.000000
6569 13253 1 0.16500 119244.000000
6569 14943 1 0.16500 119244.000000
6570 13253 1 0.16500 119244.000000
6570 16117 1 0.16500 119244.000000
6571 13254 1 0.16500 119244.000000
6571 16201 1 0.16500 119244.000000
6572 19798 1 0.16500 119244.000000
6572 21493 1 0.16500 119244.000000
6573 15317 1 0.16500 119244.000000
6573 21493 1 0.16500 119244.000000
6574 13691 1 0.16500 119244.000000
6574 19798 1 0.16500 119244.000000
6575 13255 1 0.16500 119244.000000
6575 16373 1 0.16500 119244.000000
6576 13255 1 0.16500 119244.000000
6576 15132 1 0.16500 119244.000000
6577 13255 1 0.16500 119244.000000
6577 15330 1 0.16500 119244.000000
6578 13256 1 0.16500 119244.000000
6578 16387 1 0.16500 119244.000000
6579 13256 1 0.16500 119244.000000
6579 15186 1 0.16500 119244.000000
6580 13256 1 0.16500 119244.000000
6580 13701 1 0.16500 119244.000000
6581 15837 1 0.16500 119244.000000
6581 21496 1 0.16500 119244.000000
6582 13257 1 0.16500 119244.000000
6582 15164 1 0.16500 119244.000000
6583 13257 1 0.16500 119244.000000
6583 13744 1 0.16500 119244.000000
6584 13257 1 0.16500 119244.000000
6584 15925 1 0.16500 119244.000000
6585 13257 1 0.16500 119244.000000
6585 14944 1 0.16500 119244.000000
6586 13258 1 0.16500 119244.000000
6586 15159 1 0.16500 119244.000000
6587 15159 1 0.16500 119244.000000
6587 15895 1 0.16500 119244.000000
6588 13986 1 0.16500 119244.000000
6588 14842 1 0.16500 119244.000000
6589 13259 1 0.16500 119244.000000
6589 14842 1 0.16500 119244.000000
6590 13259 1 0.16500 119244.000000
6590 14752 1 0.16500 119244.000000
6591 13259 1 0.16500 119244.000000
6591 13887 1 0.16500 119244.000000
6592 13260 1 0.16500 119244.000000
6592 13739 1 0.16500 119244.000000
6593 13260 1 0.16500 119244.000000
6593 13308 1 0.16500 119244.000000
6594 13261 1 0.16500 119244.000000
6594 15615 1 0.16500 119244.000000
6595 13261 1 0.16500 119244.000000
6595 15674 1 0.16500 119244.000000
6596 13261 1 0.16500 119244.000000
6596 15452 1 0.16500 119244.000000
6597 13262 1 0.16500 119244.000000
6597 15923 1 0.16500 119244.000000
6598 13262 1 0.16500 119244.000000
6598 14622 1 0.16500 119244.000000
6599 13262 1 0.16500 119244.000000
6599 13900 1 0.16500 119244.000000
6600 14154 1 0.16500 119244.000000
6600 21499 1 0.16500 119244.000000
6601 14838 1 0.16500 119244.000000
6601 21499 1 0.16500 119244.000000
6602 13263 1 0.16500 119244.000000
6602 14938 1 0.16500 119244.000000
6603 13263 1 0.16500 119244.000000
6603 15515 1 0.16500 119244.000000
6604 13263 1 0.16500 119244.000000
6604 14817 1 0.16500 119244.000000
6605 13263 1 0.16500 119244.000000
6605 15728 1 0.16500 119244.000000
6606 13264 1 0.16500 119244.000000
6606 14449 1 0.16500 119244.000000
6607 13264 1 0.16500 119244.000000
6607 14775 1 0.16500 119244.000000
6608 13265 1 0.16500 119244.000000
6608 14570 1 0.16500 119244.000000
6609 13265 1 0.16500 119244.000000
6609 14283 1 0.16500 119244.000000
6610 13265 1 0.16500 119244.000000
6610 15286 1 0.16500 119244.000000
6611 13265 1 0.16500 119244.000000
6611 13813 1 0.16500 119244.000000
6612 13266 1 0.16500 119244.000000
6612 15376 1 0.16500 119244.000000
6613 13266 1 0.16500 119244.000000
6613 14764 1 0.16500 119244.000000
6614 13266 1 0.16500 119244.000000
6614 15701 1 0.16500 119244.000000
6615 13267 1 0.16500 119244.000000
6615 21703 1 0.16500 119244.000000
6616 13259 1 0.16500 119244.000000
6616 13267 1 0.16500 119244.000000
6617 13267 1 0.16500 119244.000000
6617 16126 1 0.16500 119244.000000
6618 13268 1 0.16500 119244.000000
6618 14853 1 0.16500 119244.000000
6619 13268 1 0.16500 119244.000000
6619 15874 1 0.16500 119244.000000
6620 13269 1 0.16500 119244.000000
6620 14360 1 0.16500 119244.000000
6621 13269 1 0.16500 119244.000000
6621 16178 1 0.16500 119244.000000
6622 13693 1 0.16500 119244.000000
6622 14360 1 0.16500 119244.000000
6623 13270 1 0.16500 119244.000000
6623 15332 1 0.16500 119244.000000
6624 13270 1 0.16500 119244.000000
6624 14993 1 0.16500 119244.000000
6625 13271 1 0.16500 119244.000000
6625 15570 1 0.16500 119244.000000
6626 13271 1 0.16500 119244.000000
6626 14940 1 0.16500 119244.000000
6627 13271 1 0.16500 119244.000000
6627 15700 1 0.16500 119244.000000
6628 13271 1 0.16500 119244.000000
6628 15399 1 0.16500 119244.000000
6629 13272 1 0.16500 119244.000000
6629 15340 1 0.16500 119244.000000
6630 13272 1 0.16500 119244.000000
6630 14916 1 0.16500 119244.000000
6631 13273 1 0.16500 119244.000000
6631 14519 1 0.16500 119244.000000
6632 13273 1 0.16500 119244.000000
6632 15807 1 0.16500 119244.000000
6633 13275 1 0.16500 119244.000000
6633 14323 1 0.16500 119244.000000
6634 13275 1 0.16500 119244.000000
6634 15210 1 0.16500 119244.000000
6635 13275 1 0.16500 119244.000000
6635 14508 1 0.16500 119244.000000
6636 13276 1 0.16500 119244.000000
6636 14236 1 0.16500 119244.000000
6637 13276 1 0.16500 119244.000000
6637 14431 1 0.16500 119244.000000
6638 13276 1 0.16500 119244.000000
6638 21877 1 0.16500 119244.000000
6639 13587 1 0.16500 119244.000000
6639 18226 1 0.16500 119244.000000
6640 13277 1 0.16500 119244.000000
6640 16166 1 0.16500 119244.000000
6641 13277 1 0.16500 119244.000000
6641 14203 1 0.16500 119244.000000
6642 13277 1 0.16500 119244.000000
6642 18394 1 0.16500 119244.000000
6643 13278 1 0.16500 119244.000000
6643 21700 1 0.16500 119244.000000
6644 13279 1 0.16500 119244.000000
6644 16012 1 0.16500 119244.000000
6645 13146 1 0.16500 119244.000000
6645 13279 1 0.16500 119244.000000
6646 13279 1 0.16500 119244.000000
6646 17498 1 0.16500 119244.000000
6647 15044 1 0.16500 119244.000000
6647 21502 1 0.16500 119244.000000
6648 16449 1 0.16500 119244.000000
6648 18826 1 0.16500 119244.000000
6649 14643 1 0.16500 119244.000000
6649 18826 1 0.16500 119244.000000
6650 18826 1 0.16500 119244.000000
6650 21196 1 0.16500 119244.000000
6651 13280 1 0.16500 119244.000000
6651 13664 1 0.16500 119244.000000
6652 13280 1 0.16500 119244.000000
6652 13743 1 0.16500 119244.000000
6653 13280 1 0.16500 119244.000000
6653 15135 1 0.16500 119244.000000
6654 13280 1 0.16500 119244.000000
6654 15952 1 0.16500 119244.000000
6655 13281 1 0.16500 119244.000000
6655 13392 1 0.16500 119244.000000
6656 13281 1 0.16500 119244.000000
6656 13596 1 0.16500 119244.000000
6657 13281 1 0.16500 119244.000000
6657 13932 1 0.16500 119244.000000
6658 14627 1 0.16500 119244.000000
6658 17596 1 0.16500 119244.000000
6659 13282 1 0.16500 119244.000000
6659 16100 1 0.16500 119244.000000
6660 13282 1 0.16500 119244.000000
6660 13523 1 0.16500 119244.000000
6661 13282 1 0.16500 119244.000000
6661 14399 1 0.16500 119244.000000
6662 13283 1 0.16500 119244.000000
6662 13756 1 0.16500 119244.000000
6663 13283 1 0.16500 119244.000000
6663 14756 1 0.16500 119244.000000
6664 13284 1 0.16500 119244.000000
6664 21745 1 0.16500 119244.000000
6665 13284 1 0.16500 119244.000000
6665 14585 1 0.16500 119244.000000
6666 13285 1 0.16500 119244.000000
6666 21598 1 0.16500 119244.000000
6667 13285 1 0.16500 119244.000000
6667 15521 1 0.16500 119244.000000
6668 13286 1 0.16500 119244.000000
6668 13657 1 0.16500 119244.000000
6669 13286 1 0.16500 119244.000000
6669 14613 1 0.16500 119244.000000
6670 13286 1 0.16500 119244.000000
6670 15708 1 0.16500 119244.000000
6671 13287 1 0.16500 119244.000000
6671 14692 1 0.16500 119244.000000
6672 13287 1 0.16500 119244.000000
6672 14969 1 0.16500 119244.000000
6673 13288 1 0.16500 119244.000000
6673 16497 1 0.16500 119244.000000
6674 13288 1 0.16500 119244.000000
6674 15761 1 0.16500 119244.000000
6675 13288 1 0.16500 119244.000000
6675 14609 1 0.16500 119244.000000
6676 13289 1 0.16500 119244.000000
6676 13412 1 0.16500 119244.000000
6677 13289 1 0.16500 119244.000000
6677 16606 1 0.16500 119244.000000
6678 13289 1 0.16500 119244.000000
6678 13440 1 0.16500 119244.000000
6679 13290 1 0.16500 119244.000000
6679 15930 1 0.16500 119244.000000
6680 13290 1 0.16500 119244.000000
6680 16046 1 0.16500 119244.000000
6681 13290 1 0.16500 119244.000000
6681 15603 1 0.16500 119244.000000
6682 13290 1 0.16500 119244.000000
6682 15031 1 0.16500 119244.000000
6683 13291 1 0.16500 119244.000000
6683 13848 1 0.16500 119244.000000
6684 13292 1 0.16500 119244.000000
6684 15791 1 0.16500 119244.000000
6685 13293 1 0.16500 119244.000000
6685 15570 1 0.16500 119244.000000
6686 13293 1 0.16500 119244.000000
6686 14250 1 0.16500 119244.000000
6687 13294 1 0.16500 119244.000000
6687 13604 1 0.16500 119244.000000
6688 13295 1 0.16500 119244.000000
6688 16511 1 0.16500 119244.000000
6689 13295 1 0.16500 119244.000000
6689 14408 1 0.16500 119244.000000
6690 13295 1 0.16500 119244.000000
6690 14962 1 0.16500 119244.000000
6691 13296 1 0.16500 119244.000000
6691 13416 1 0.16500 119244.000000
6692 13296 1 0.16500 119244.000000
6692 15486 1 0.16500 119244.000000
6693 13296 1 0.16500 119244.000000
6693 16375 1 0.16500 119244.000000
6694 13296 1 0.16500 119244.000000
6694 14820 1 0.16500 119244.000000
6695 13297 1 0.16500 119244.000000
6695 18610 1 0.16500 119244.000000
6696 13297 1 0.16500 119244.000000
6696 13703 1 0.16500 119244.000000
6697 13297 1 0.16500 119244.000000
6697 13380 1 0.16500 119244.000000
6698 13297 1 0.16500 119244.000000
6698 16393 1 0.16500 119244.000000
6699 13298 1 0.16500 119244.000000
6699 15037 1 0.16500 119244.000000
6700 13298 1 0.16500 119244.000000
6700 15699 1 0.16500 119244.000000
6701 13298 1 0.16500 119244.000000
6701 14196 1 0.16500 119244.000000
6702 13298 1 0.16500 119244.000000
6702 13874 1 0.16500 119244.000000
6703 13299 1 0.16500 119244.000000
6703 14531 1 0.16500 119244.000000
6704 14531 1 0.16500 119244.000000
6704 16524 1 0.16500 119244.000000
6705 13300 1 0.16500 119244.000000
6705 15592 1 0.16500 119244.000000
6706 13300 1 0.16500 119244.000000
6706 13599 1 0.16500 119244.000000
6707 13301 1 0.16500 119244.000000
6707 14088 1 0.16500 119244.000000
6708 13301 1 0.16500 119244.000000
6708 14369 1 0.16500 119244.000000
6709 13302 1 0.16500 119244.000000
6709 14185 1 0.16500 119244.000000
6710 13302 1 0.16500 119244.000000
6710 15489 1 0.16500 119244.000000
6711 13303 1 0.16500 119244.000000
6711 15950 1 0.16500 119244.000000
6712 13304 1 0.16500 119244.000000
6712 15414 1 0.16500 119244.000000
6713 13304 1 0.16500 119244.000000
6713 14579 1 0.16500 119244.000000
6714 13304 1 0.16500 119244.000000
6714 16618 1 0.16500 119244.000000
6715 12736 1 0.16500 119244.000000
6715 13304 1 0.16500 119244.000000
6716 13305 1 0.16500 119244.000000
6716 13647 1 0.16500 119244.000000
6717 13306 1 0.16500 119244.000000
6717 14728 1 0.16500 119244.000000
6718 13306 1 0.16500 119244.000000
6718 16042 1 0.16500 119244.000000
6719 13306 1 0.16500 119244.000000
6719 14218 1 0.16500 119244.000000
6720 13306 1 0.16500 119244.000000
6720 13924 1 0.16500 119244.000000
6721 13307 1 0.16500 119244.000000
6721 14061 1 0.16500 119244.000000
6722 13307 1 0.16500 119244.000000
6722 16022 1 0.16500 119244.000000
6723 13307 1 0.16500 119244.000000
6723 14044 1 0.16500 119244.000000
6724 13308 1 0.16500 119244.000000
6724 15954 1 0.16500 119244.000000
6725 14473 1 0.16500 119244.000000
6725 18058 1 0.16500 119244.000000
6726 14568 1 0.16500 119244.000000
6726 20398 1 0.16500 119244.000000
6727 13309 1 0.16500 119244.000000
6727 15113 1 0.16500 119244.000000
6728 13309 1 0.16500 119244.000000
6728 15321 1 0.16500 119244.000000
6729 13310 1 0.16500 119244.000000
6729 15648 1 0.16500 119244.000000
6730 13310 1 0.16500 119244.000000
6730 15051 1 0.16500 119244.000000
6731 13310 1 0.16500 119244.000000
6731 16446 1 0.16500 119244.000000
6732 13311 1 0.16500 119244.000000
6732 13422 1 0.16500 119244.000000
6733 13311 1 0.16500 119244.000000
6733 21817 1 0.16500 119244.000000
6734 20338 1 0.16500 119244.000000
6734 21697 1 0.16500 119244.000000
6735 19582 1 0.16500 119244.000000
6735 20338 1 0.16500 119244.000000
6736 13312 1 0.16500 119244.000000
6736 14584 1 0.16500 119244.000000
6737 11854 1 0.16500 119244.000000
6737 17176 1 0.16500 119244.000000
6738 13313 1 0.16500 119244.000000
6738 15440 1 0.16500 119244.000000
6739 13313 1 0.16500 119244.000000
6739 14153 1 0.16500 119244.000000
6740 13313 1 0.16500 119244.000000
6740 15050 1 0.16500 119244.000000
6741 13314 1 0.16500 119244.000000
6741 19402 1 0.16500 119244.000000
6742 13314 1 0.16500 119244.000000
6742 13966 1 0.16500 119244.000000
6743 13315 1 0.16500 119244.000000
6743 14799 1 0.16500 119244.000000
6744 13315 1 0.16500 119244.000000
6744 15760 1 0.16500 119244.000000
6745 13315 1 0.16500 119244.000000
6745 15718 1 0.16500 119244.000000
6746 13316 1 0.16500 119244.000000
6746 14951 1 0.16500 119244.000000
6747 13316 1 0.16500 119244.000000
6747 13507 1 0.16500 119244.000000
6748 13317 1 0.16500 119244.000000
6748 16321 1 0.16500 119244.000000
6749 13317 1 0.16500 119244.000000
6749 13476 1 0.16500 119244.000000
6750 13317 1 0.16500 119244.000000
6750 13789 1 0.16500 119244.000000
6751 13317 1 0.16500 119244.000000
6751 16504 1 0.16500 119244.000000
6752 13318 1 0.16500 119244.000000
6752 16611 1 0.16500 119244.000000
6753 13318 1 0.16500 119244.000000
6753 13749 1 0.16500 119244.000000
6754 13318 1 0.16500 119244.000000
6754 13561 1 0.16500 119244.000000
6755 13318 1 0.16500 119244.000000
6755 13673 1 0.16500 119244.000000
6756 14679 1 0.16500 119244.000000
6756 21505 1 0.16500 119244.000000
6757 14516 1 0.16500 119244.000000
6757 21505 1 0.16500 119244.000000
6758 13319 1 0.16500 119244.000000
6758 15366 1 0.16500 119244.000000
6759 13320 1 0.16500 119244.000000
6759 14118 1 0.16500 119244.000000
6760 13320 1 0.16500 119244.000000
6760 15846 1 0.16500 119244.000000
6761 13320 1 0.16500 119244.000000
6761 13652 1 0.16500 119244.000000
6762 13558 1 0.16500 119244.000000
6762 15463 1 0.16500 119244.000000
6763 15443 1 0.16500 119244.000000
6763 15463 1 0.16500 119244.000000
6764 13321 1 0.16500 119244.000000
6764 16573 1 0.16500 119244.000000
6765 13595 1 0.16500 119244.000000
6765 15292 1 0.16500 119244.000000
6766 13322 1 0.16500 119244.000000
6766 16256 1 0.16500 119244.000000
6767 13322 1 0.16500 119244.000000
6767 15292 1 0.16500 119244.000000
6768 12310 1 0.16500 119244.000000
6768 13323 1 0.16500 119244.000000
6769 13323 1 0.16500 119244.000000
6769 14088 1 0.16500 119244.000000
6770 13323 1 0.16500 119244.000000
6770 14439 1 0.16500 119244.000000
6771 13324 1 0.16500 119244.000000
6771 15374 1 0.16500 119244.000000
6772 13324 1 0.16500 119244.000000
6772 15769 1 0.16500 119244.000000
6773 13324 1 0.16500 119244.000000
6773 15443 1 0.16500 119244.000000
6774 13325 1 0.16500 119244.000000
6774 14351 1 0.16500 119244.000000
6775 13325 1 0.16500 119244.000000
6775 16321 1 0.16500 119244.000000
6776 13325 1 0.16500 119244.000000
6776 16385 1 0.16500 119244.000000
6777 13326 1 0.16500 119244.000000
6777 14433 1 0.16500 119244.000000
6778 13190 1 0.16500 119244.000000
6778 16450 1 0.16500 119244.000000
6779 13326 1 0.16500 119244.000000
6779 14527 1 0.16500 119244.000000
6780 14220 1 0.16500 119244.000000
6780 15787 1 0.16500 119244.000000
6781 13327 1 0.16500 119244.000000
6781 14220 1 0.16500 119244.000000
6782 13327 1 0.16500 119244.000000
6782 16297 1 0.16500 119244.000000
6783 15860 1 0.16500 119244.000000
6783 21511 1 0.16500 119244.000000
6784 15880 1 0.16500 119244.000000
6784 21511 1 0.16500 119244.000000
6785 12033 1 0.16500 119244.000000
6785 15654 1 0.16500 119244.000000
6786 13328 1 0.16500 119244.000000
6786 14814 1 0.16500 119244.000000
6787 15654 1 0.16500 119244.000000
6787 16626 1 0.16500 119244.000000
6788 13329 1 0.16500 119244.000000
6788 13795 1 0.16500 119244.000000
6789 13329 1 0.16500 119244.000000
6789 13731 1 0.16500 119244.000000
6790 13329 1 0.16500 119244.000000
6790 14655 1 0.16500 119244.000000
6791 13330 1 0.16500 119244.000000
6791 13572 1 0.16500 119244.000000
6792 13330 1 0.16500 119244.000000
6792 15174 1 0.16500 119244.000000
6793 13330 1 0.16500 119244.000000
6793 14347 1 0.16500 119244.000000
6794 12337 1 0.16500 119244.000000
6794 14784 1 0.16500 119244.000000
6795 13331 1 0.16500 119244.000000
6795 15792 1 0.16500 119244.000000
6796 13332 1 0.16500 119244.000000
6796 16493 1 0.16500 119244.000000
6797 13332 1 0.16500 119244.000000
6797 14435 1 0.16500 119244.000000
6798 13333 1 0.16500 119244.000000
6798 14839 1 0.16500 119244.000000
6799 13333 1 0.16500 119244.000000
6799 16030 1 0.16500 119244.000000
6800 13333 1 0.16500 119244.000000
6800 13821 1 0.16500 119244.000000
6801 13334 1 0.16500 119244.000000
6801 16309 1 0.16500 119244.000000
6802 13334 1 0.16500 119244.000000
6802 13353 1 0.16500 119244.000000
6803 13334 1 0.16500 119244.000000
6803 15912 1 0.16500 119244.000000
6804 13335 1 0.16500 119244.000000
6804 16466 1 0.16500 119244.000000
6805 13335 1 0.16500 119244.000000
6805 16328 1 0.16500 119244.000000
6806 13335 1 0.16500 119244.000000
6806 15555 1 0.16500 119244.000000
6807 13336 1 0.16500 119244.000000
6807 15683 1 0.16500 119244.000000
6808 13336 1 0.16500 119244.000000
6808 13896 1 0.16500 119244.000000
6809 13336 1 0.16500 119244.000000
6809 16574 1 0.16500 119244.000000
6810 13454 1 0.16500 119244.000000
6810 21427 1 0.16500 119244.000000
6811 13338 1 0.16500 119244.000000
6811 16354 1 0.16500 119244.000000
6812 13339 1 0.16500 119244.000000
6812 15910 1 0.16500 119244.000000
6813 13340 1 0.16500 119244.000000
6813 14528 1 0.16500 119244.000000
6814 13340 1 0.16500 119244.000000
6814 15197 1 0.16500 119244.000000
6815 12707 1 0.16500 119244.000000
6815 13341 1 0.16500 119244.000000
6816 13341 1 0.16500 119244.000000
6816 15580 1 0.16500 119244.000000
6817 13342 1 0.16500 119244.000000
6817 15128 1 0.16500 119244.000000
6818 13342 1 0.16500 119244.000000
6818 15519 1 0.16500 119244.000000
6819 13343 1 0.16500 119244.000000
6819 14934 1 0.16500 119244.000000
6820 13002 1 0.16500 119244.000000
6820 13343 1 0.16500 119244.000000
6821 13343 1 0.16500 119244.000000
6821 16287 1 0.16500 119244.000000
6822 13248 1 0.16500 119244.000000
6822 13343 1 0.16500 119244.000000
6823 13344 1 0.16500 119244.000000
6823 16324 1 0.16500 119244.000000
6824 13344 1 0.16500 119244.000000
6824 16173 1 0.16500 119244.000000
6825 13346 1 0.16500 119244.000000
6825 14627 1 0.16500 119244.000000
6826 13346 1 0.16500 119244.000000
6826 15707 1 0.16500 119244.000000
6827 13346 1 0.16500 119244.000000
6827 14015 1 0.16500 119244.000000
6828 13347 1 0.16500 119244.000000
6828 15990 1 0.16500 119244.000000
6829 13347 1 0.16500 119244.000000
6829 16502 1 0.16500 119244.000000
6830 13347 1 0.16500 119244.000000
6830 15488 1 0.16500 119244.000000
6831 13348 1 0.16500 119244.000000
6831 13390 1 0.16500 119244.000000
6832 13348 1 0.16500 119244.000000
6832 14132 1 0.16500 119244.000000
6833 13349 1 0.16500 119244.000000
6833 15798 1 0.16500 119244.000000
6834 13349 1 0.16500 119244.000000
6834 14003 1 0.16500 119244.000000
6835 13350 1 0.16500 119244.000000
6835 21820 1 0.16500 119244.000000
6836 14596 1 0.16500 119244.000000
6836 20830 1 0.16500 119244.000000
6837 13350 1 0.16500 119244.000000
6837 14596 1 0.16500 119244.000000
6838 13351 1 0.16500 119244.000000
6838 16576 1 0.16500 119244.000000
6839 13351 1 0.16500 119244.000000
6839 14737 1 0.16500 119244.000000
6840 13352 1 0.16500 119244.000000
6840 14924 1 0.16500 119244.000000
6841 13353 1 0.16500 119244.000000
6841 14870 1 0.16500 119244.000000
6842 13353 1 0.16500 119244.000000
6842 14856 1 0.16500 119244.000000
6843 13354 1 0.16500 119244.000000
6843 21799 1 0.16500 119244.000000
6844 13354 1 0.16500 119244.000000
6844 13639 1 0.16500 119244.000000
6845 13355 1 0.16500 119244.000000
6845 14869 1 0.16500 119244.000000
6846 13355 1 0.16500 119244.000000
6846 14522 1 0.16500 119244.000000
6847 13355 1 0.16500 119244.000000
6847 15645 1 0.16500 119244.000000
6848 13355 1 0.16500 119244.000000
6848 16074 1 0.16500 119244.000000
6849 13356 1 0.16500 119244.000000
6849 15510 1 0.16500 119244.000000
6850 13356 1 0.16500 119244.000000
6850 14993 1 0.16500 119244.000000
6851 13356 1 0.16500 119244.000000
6851 13771 1 0.16500 119244.000000
6852 11577 1 0.16500 119244.000000
6852 13357 1 0.16500 119244.000000
6853 11962 1 0.16500 119244.000000
6853 13357 1 0.16500 119244.000000
6854 13358 1 0.16500 119244.000000
6854 21784 1 0.16500 119244.000000
6855 13358 1 0.16500 119244.000000
6855 15776 1 0.16500 119244.000000
6856 13359 1 0.16500 119244.000000
6856 15793 1 0.16500 119244.000000
6857 13359 1 0.16500 119244.000000
6857 14457 1 0.16500 119244.000000
6858 13359 1 0.16500 119244.000000
6858 15406 1 0.16500 119244.000000
6859 13359 1 0.16500 119244.000000
6859 15672 1 0.16500 119244.000000
6860 13360 1 0.16500 119244.000000
6860 15731 1 0.16500 119244.000000
6861 12405 1 0.16500 119244.000000
6861 16401 1 0.16500 119244.000000
6862 13360 1 0.16500 119244.000000
6862 14633 1 0.16500 119244.000000
6863 13361 1 0.16500 119244.000000
6863 16209 1 0.16500 119244.000000
6864 13362 1 0.16500 119244.000000
6864 15960 1 0.16500 119244.000000
6865 13362 1 0.16500 119244.000000
6865 15090 1 0.16500 119244.000000
6866 13362 1 0.16500 119244.000000
6866 16327 1 0.16500 119244.000000
6867 14171 1 0.16500 119244.000000
6867 16526 1 0.16500 119244.000000
6868 13363 1 0.16500 119244.000000
6868 14838 1 0.16500 119244.000000
6869 13363 1 0.16500 119244.000000
6869 14171 1 0.16500 119244.000000
6870 13364 1 0.16500 119244.000000
6870 14983 1 0.16500 119244.000000
6871 13364 1 0.16500 119244.000000
6871 14768 1 0.16500 119244.000000
6872 13365 1 0.16500 119244.000000
6872 15875 1 0.16500 119244.000000
6873 13365 1 0.16500 119244.000000
6873 14738 1 0.16500 119244.000000
6874 13365 1 0.16500 119244.000000
6874 16161 1 0.16500 119244.000000
6875 13366 1 0.16500 119244.000000
6875 14349 1 0.16500 119244.000000
6876 13366 1 0.16500 119244.000000
6876 14107 1 0.16500 119244.000000
6877 13366 1 0.16500 119244.000000
6877 15974 1 0.16500 119244.000000
6878 13367 1 0.16500 119244.000000
6878 14938 1 0.16500 119244.000000
6879 13367 1 0.16500 119244.000000
6879 15687 1 0.16500 119244.000000
6880 13368 1 0.16500 119244.000000
6880 16536 1 0.16500 119244.000000
6881 13368 1 0.16500 119244.000000
6881 14970 1 0.16500 119244.000000
6882 13368 1 0.16500 119244.000000
6882 13933 1 0.16500 119244.000000
6883 12073 1 0.16500 119244.000000
6883 13369 1 0.16500 119244.000000
6884 13369 1 0.16500 119244.000000
6884 14316 1 0.16500 119244.000000
6885 13370 1 0.16500 119244.000000
6885 15770 1 0.16500 119244.000000
6886 13370 1 0.16500 119244.000000
6886 16312 1 0.16500 119244.000000
6887 13371 1 0.16500 119244.000000
6887 13923 1 0.16500 119244.000000
6888 13372 1 0.16500 119244.000000
6888 13719 1 0.16500 119244.000000
6889 13373 1 0.16500 119244.000000
6889 21682 1 0.16500 119244.000000
6890 13373 1 0.16500 119244.000000
6890 13889 1 0.16500 119244.000000
6891 13374 1 0.16500 119244.000000
6891 15853 1 0.16500 119244.000000
6892 13374 1 0.16500 119244.000000
6892 15049 1 0.16500 119244.000000
6893 13375 1 0.16500 119244.000000
6893 14193 1 0.16500 119244.000000
6894 13375 1 0.16500 119244.000000
6894 14764 1 0.16500 119244.000000
6895 13376 1 0.16500 119244.000000
6895 14640 1 0.16500 119244.000000
6896 13376 1 0.16500 119244.000000
6896 15341 1 0.16500 119244.000000
6897 15341 1 0.16500 119244.000000
6897 15539 1 0.16500 119244.000000
6898 13376 1 0.16500 119244.000000
6898 15580 1 0.16500 119244.000000
6899 14125 1 0.16500 119244.000000
6899 21514 1 0.16500 119244.000000
6900 15682 1 0.16500 119244.000000
6900 21514 1 0.16500 119244.000000
6901 20494 1 0.16500 119244.000000
6901 21808 1 0.16500 119244.000000
6902 13377 1 0.16500 119244.000000
6902 14770 1 0.16500 119244.000000
6903 13377 1 0.16500 119244.000000
6903 14070 1 0.16500 119244.000000
6904 13377 1 0.16500 119244.000000
6904 15105 1 0.16500 119244.000000
6905 13378 1 0.16500 119244.000000
6905 13831 1 0.16500 119244.000000
6906 13379 1 0.16500 119244.000000
6906 13550 1 0.16500 119244.000000
6907 13379 1 0.16500 119244.000000
6907 15817 1 0.16500 119244.000000
6908 13379 1 0.16500 119244.000000
6908 15726 1 0.16500 119244.000000
6909 13379 1 0.16500 119244.000000
6909 15492 1 0.16500 119244.000000
6910 13380 1 0.16500 119244.000000
6910 14163 1 0.16500 119244.000000
6911 13381 1 0.16500 119244.000000
6911 15098 1 0.16500 119244.000000
6912 13381 1 0.16500 119244.000000
6912 13597 1 0.16500 119244.000000
6913 13382 1 0.16500 119244.000000
6913 15809 1 0.16500 119244.000000
6914 13382 1 0.16500 119244.000000
6914 14829 1 0.16500 119244.000000
6915 13382 1 0.16500 119244.000000
6915 16494 1 0.16500 119244.000000
6916 13383 1 0.16500 119244.000000
6916 13595 1 0.16500 119244.000000
6917 13383 1 0.16500 119244.000000
6917 14645 1 0.16500 119244.000000
6918 13384 1 0.16500 119244.000000
6918 14352 1 0.16500 119244.000000
6919 13384 1 0.16500 119244.000000
6919 15055 1 0.16500 119244.000000
6920 13384 1 0.16500 119244.000000
6920 15165 1 0.16500 119244.000000
6921 13385 1 0.16500 119244.000000
6921 16376 1 0.16500 119244.000000
6922 13386 1 0.16500 119244.000000
6922 13901 1 0.16500 119244.000000
6923 13386 1 0.16500 119244.000000
6923 14438 1 0.16500 119244.000000
6924 14188 1 0.16500 119244.000000
6924 14438 1 0.16500 119244.000000
6925 13387 1 0.16500 119244.000000
6925 13604 1 0.16500 119244.000000
6926 14961 1 0.16500 119244.000000
6926 16910 1 0.16500 119244.000000
6927 13388 1 0.16500 119244.000000
6927 15129 1 0.16500 119244.000000
6928 13388 1 0.16500 119244.000000
6928 19738 1 0.16500 119244.000000
6929 13388 1 0.16500 119244.000000
6929 15363 1 0.16500 119244.000000
6930 13389 1 0.16500 119244.000000
6930 13988 1 0.16500 119244.000000
6931 16241 1 0.16500 119244.000000
6931 19846 1 0.16500 119244.000000
6932 14189 1 0.16500 119244.000000
6932 19846 1 0.16500 119244.000000
6933 13390 1 0.16500 119244.000000
6933 14106 1 0.16500 119244.000000
6934 13390 1 0.16500 119244.000000
6934 15481 1 0.16500 119244.000000
6935 13391 1 0.16500 119244.000000
6935 14146 1 0.16500 119244.000000
6936 13391 1 0.16500 119244.000000
6936 15101 1 0.16500 119244.000000
6937 13391 1 0.16500 119244.000000
6937 15439 1 0.16500 119244.000000
6938 13392 1 0.16500 119244.000000
6938 15442 1 0.16500 119244.000000
6939 13392 1 0.16500 119244.000000
6939 21865 1 0.16500 119244.000000
6940 13392 1 0.16500 119244.000000
6940 14046 1 0.16500 119244.000000
6941 13393 1 0.16500 119244.000000
6941 15748 1 0.16500 119244.000000
6942 13393 1 0.16500 119244.000000
6942 15691 1 0.16500 119244.000000
6943 13393 1 0.16500 119244.000000
6943 13673 1 0.16500 119244.000000
6944 13394 1 0.16500 119244.000000
6944 16040 1 0.16500 119244.000000
6945 13394 1 0.16500 119244.000000
6945 14806 1 0.16500 119244.000000
6946 13395 1 0.16500 119244.000000
6946 14185 1 0.16500 119244.000000
6947 13395 1 0.16500 119244.000000
6947 15970 1 0.16500 119244.000000
6948 14474 1 0.16500 119244.000000
6948 14952 1 0.16500 119244.000000
6949 14952 1 0.16500 119244.000000
6949 15130 1 0.16500 119244.000000
6950 14952 1 0.16500 119244.000000
6950 20626 1 0.16500 119244.000000
6951 13396 1 0.16500 119244.000000
6951 15647 1 0.16500 119244.000000
6952 13396 1 0.16500 119244.000000
6952 13638 1 0.16500 119244.000000
6953 13396 1 0.16500 119244.000000
6953 15732 1 0.16500 119244.000000
6954 13396 1 0.16500 119244.000000
6954 15646 1 0.16500 119244.000000
6955 13397 1 0.16500 119244.000000
6955 16462 1 0.16500 119244.000000
6956 13397 1 0.16500 119244.000000
6956 14853 1 0.16500 119244.000000
6957 13397 1 0.16500 119244.000000
6957 13737 1 0.16500 119244.000000
6958 13398 1 0.16500 119244.000000
6958 16015 1 0.16500 119244.000000
6959 12456 1 0.16500 119244.000000
6959 16607 1 0.16500 119244.000000
6960 13399 1 0.16500 119244.000000
6960 14335 1 0.16500 119244.000000
6961 13373 1 0.16500 119244.000000
6961 13400 1 0.16500 119244.000000
6962 13401 1 0.16500 119244.000000
6962 14770 1 0.16500 119244.000000
6963 13401 1 0.16500 119244.000000
6963 13722 1 0.16500 119244.000000
6964 13722 1 0.16500 119244.000000
6964 14521 1 0.16500 119244.000000
6965 13635 1 0.16500 119244.000000
6965 15240 1 0.16500 119244.000000
6966 13402 1 0.16500 119244.000000
6966 15041 1 0.16500 119244.000000
6967 13402 1 0.16500 119244.000000
6967 15240 1 0.16500 119244.000000
6968 13403 1 0.16500 119244.000000
6968 14893 1 0.16500 119244.000000
6969 14893 1 0.16500 119244.000000
6969 15354 1 0.16500 119244.000000
6970 13404 1 0.16500 119244.000000
6970 14841 1 0.16500 119244.000000
6971 12342 1 0.16500 119244.000000
6971 13628 1 0.16500 119244.000000
6972 13405 1 0.16500 119244.000000
6972 14515 1 0.16500 119244.000000
6973 13405 1 0.16500 119244.000000
6973 14317 1 0.16500 119244.000000
6974 13405 1 0.16500 119244.000000
6974 15954 1 0.16500 119244.000000
6975 13406 1 0.16500 119244.000000
6975 15334 1 0.16500 119244.000000
6976 13406 1 0.16500 119244.000000
6976 14635 1 0.16500 119244.000000
6977 13406 1 0.16500 119244.000000
6977 13632 1 0.16500 119244.000000
6978 14743 1 0.16500 119244.000000
6978 17918 1 0.16500 119244.000000
6979 13407 1 0.16500 119244.000000
6979 16014 1 0.16500 119244.000000
6980 13407 1 0.16500 119244.000000
6980 14514 1 0.16500 119244.000000
6981 13407 1 0.16500 119244.000000
6981 15440 1 0.16500 119244.000000
6982 13409 1 0.16500 119244.000000
6982 15054 1 0.16500 119244.000000
6983 13409 1 0.16500 119244.000000
6983 15283 1 0.16500 119244.000000
6984 13410 1 0.16500 119244.000000
6984 14562 1 0.16500 119244.000000
6985 13410 1 0.16500 119244.000000
6985 15309 1 0.16500 119244.000000
6986 13410 1 0.16500 119244.000000
6986 13745 1 0.16500 119244.000000
6987 13411 1 0.16500 119244.000000
6987 16039 1 0.16500 119244.000000
6988 13411 1 0.16500 119244.000000
6988 21787 1 0.16500 119244.000000
6989 13412 1 0.16500 119244.000000
6989 13633 1 0.16500 119244.000000
6990 13412 1 0.16500 119244.000000
6990 15046 1 0.16500 119244.000000
6991 13413 1 0.16500 119244.000000
6991 15620 1 0.16500 119244.000000
6992 13413 1 0.16500 119244.000000
6992 16264 1 0.16500 119244.000000
6993 13414 1 0.16500 119244.000000
6993 16105 1 0.16500 119244.000000
6994 13414 1 0.16500 119244.000000
6994 16361 1 0.16500 119244.000000
6995 13415 1 0.16500 119244.000000
6995 13928 1 0.16500 119244.000000
6996 13415 1 0.16500 119244.000000
6996 14518 1 0.16500 119244.000000
6997 13416 1 0.16500 119244.000000
6997 20950 1 0.16500 119244.000000
6998 13417 1 0.16500 119244.000000
6998 14049 1 0.16500 119244.000000
6999 13417 1 0.16500 119244.000000
6999 13652 1 0.16500 119244.000000
7000 13418 1 0.16500 119244.000000
7000 15782 1 0.16500 119244.000000
7001 13419 1 0.16500 119244.000000
7001 13863 1 0.16500 119244.000000
7002 11549 1 0.16500 119244.000000
7002 13420 1 0.16500 119244.000000
7003 13421 1 0.16500 119244.000000
7003 15735 1 0.16500 119244.000000
7004 13421 1 0.16500 119244.000000
7004 16233 1 0.16500 119244.000000
7005 13421 1 0.16500 119244.000000
7005 15477 1 0.16500 119244.000000
7006 13422 1 0.16500 119244.000000
7006 15514 1 0.16500 119244.000000
7007 13423 1 0.16500 119244.000000
7007 15171 1 0.16500 119244.000000
7008 13423 1 0.16500 119244.000000
7008 18622 1 0.16500 119244.000000
7009 13423 1 0.16500 119244.000000
7009 14755 1 0.16500 119244.000000
7010 13424 1 0.16500 119244.000000
7010 14383 1 0.16500 119244.000000
7011 13424 1 0.16500 119244.000000
7011 15687 1 0.16500 119244.000000
7012 13424 1 0.16500 119244.000000
7012 14956 1 0.16500 119244.000000
7013 13425 1 0.16500 119244.000000
7013 15085 1 0.16500 119244.000000
7014 13425 1 0.16500 119244.000000
7014 14399 1 0.16500 119244.000000
7015 13425 1 0.16500 119244.000000
7015 16100 1 0.16500 119244.000000
7016 13425 1 0.16500 119244.000000
7016 15663 1 0.16500 119244.000000
7017 13426 1 0.16500 119244.000000
7017 15642 1 0.16500 119244.000000
7018 13426 1 0.16500 119244.000000
7018 16429 1 0.16500 119244.000000
7019 14673 1 0.16500 119244.000000
7019 21517 1 0.16500 119244.000000
7020 20362 1 0.16500 119244.000000
7020 21517 1 0.16500 119244.000000
7021 13427 1 0.16500 119244.000000
7021 15982 1 0.16500 119244.000000
7022 13427 1 0.16500 119244.000000
7022 13572 1 0.16500 119244.000000
7023 13427 1 0.16500 119244.000000
7023 16437 1 0.16500 119244.000000
7024 13428 1 0.16500 119244.000000
7024 15764 1 0.16500 119244.000000
7025 13428 1 0.16500 119244.000000
7025 14163 1 0.16500 119244.000000
7026 13428 1 0.16500 119244.000000
7026 15612 1 0.16500 119244.000000
7027 13428 1 0.16500 119244.000000
7027 15919 1 0.16500 119244.000000
7028 13429 1 0.16500 119244.000000
7028 13923 1 0.16500 119244.000000
7029 13429 1 0.16500 119244.000000
7029 15081 1 0.16500 119244.000000
7030 13429 1 0.16500 119244.000000
7030 16385 1 0.16500 119244.000000
7031 13429 1 0.16500 119244.000000
7031 13476 1 0.16500 119244.000000
7032 13430 1 0.16500 119244.000000
7032 15821 1 0.16500 119244.000000
7033 13430 1 0.16500 119244.000000
7033 15962 1 0.16500 119244.000000
7034 13430 1 0.16500 119244.000000
7034 14506 1 0.16500 119244.000000
7035 13431 1 0.16500 119244.000000
7035 14134 1 0.16500 119244.000000
7036 13431 1 0.16500 119244.000000
7036 15276 1 0.16500 119244.000000
7037 13431 1 0.16500 119244.000000
7037 21943 1 0.16500 119244.000000
7038 13433 1 0.16500 119244.000000
7038 16214 1 0.16500 119244.000000
7039 13433 1 0.16500 119244.000000
7039 15199 1 0.16500 119244.000000
7040 13433 1 0.16500 119244.000000
7040 14447 1 0.16500 119244.000000
7041 13433 1 0.16500 119244.000000
7041 16278 1 0.16500 119244.000000
7042 13434 1 0.16500 119244.000000
7042 15380 1 0.16500 119244.000000
7043 13434 1 0.16500 119244.000000
7043 15269 1 0.16500 119244.000000
7044 13435 1 0.16500 119244.000000
7044 14459 1 0.16500 119244.000000
7045 13435 1 0.16500 119244.000000
7045 14332 1 0.16500 119244.000000
7046 13435 1 0.16500 119244.000000
7046 15291 1 0.16500 119244.000000
7047 13436 1 0.16500 119244.000000
7047 16035 1 0.16500 119244.000000
7048 13436 1 0.16500 119244.000000
7048 13830 1 0.16500 119244.000000
7049 13436 1 0.16500 119244.000000
7049 14312 1 0.16500 119244.000000
7050 13436 1 0.16500 119244.000000
7050 14846 1 0.16500 119244.000000
7051 13437 1 0.16500 119244.000000
7051 15059 1 0.16500 119244.000000
7052 16076 1 0.16500 119244.000000
7052 21520 1 0.16500 119244.000000
7053 13438 1 0.16500 119244.000000
7053 14266 1 0.16500 119244.000000
7054 13438 1 0.16500 119244.000000
7054 13708 1 0.16500 119244.000000
7055 13439 1 0.16500 119244.000000
7055 16552 1 0.16500 119244.000000
7056 13440 1 0.16500 119244.000000
7056 16574 1 0.16500 119244.000000
7057 13440 1 0.16500 119244.000000
7057 14286 1 0.16500 119244.000000
7058 13441 1 0.16500 119244.000000
7058 14045 1 0.16500 119244.000000
7059 13441 1 0.16500 119244.000000
7059 14259 1 0.16500 119244.000000
7060 13441 1 0.16500 119244.000000
7060 16092 1 0.16500 119244.000000
7061 13442 1 0.16500 119244.000000
7061 14348 1 0.16500 119244.000000
7062 13442 1 0.16500 119244.000000
7062 15261 1 0.16500 119244.000000
7063 14348 1 0.16500 119244.000000
7063 15744 1 0.16500 119244.000000
7064 13442 1 0.16500 119244.000000
7064 17106 1 0.16500 119244.000000
7065 15494 1 0.16500 119244.000000
7065 18142 1 0.16500 119244.000000
7066 17064 1 0.16500 119244.000000
7066 18142 1 0.16500 119244.000000
7067 13443 1 0.16500 119244.000000
7067 14533 1 0.16500 119244.000000
7068 13443 1 0.16500 119244.000000
7068 15784 1 0.16500 119244.000000
7069 13443 1 0.16500 119244.000000
7069 15041 1 0.16500 119244.000000
7070 13443 1 0.16500 119244.000000
7070 14344 1 0.16500 119244.000000
7071 13444 1 0.16500 119244.000000
7071 15861 1 0.16500 119244.000000
7072 13444 1 0.16500 119244.000000
7072 16387 1 0.16500 119244.000000
7073 13444 1 0.16500 119244.000000
7073 22014 1 0.16500 119244.000000
7074 13445 1 0.16500 119244.000000
7074 15027 1 0.16500 119244.000000
7075 13445 1 0.16500 119244.000000
7075 14081 1 0.16500 119244.000000
7076 13445 1 0.16500 119244.000000
7076 15764 1 0.16500 119244.000000
7077 13446 1 0.16500 119244.000000
7077 14873 1 0.16500 119244.000000
7078 13446 1 0.16500 119244.000000
7078 15446 1 0.16500 119244.000000
7079 13447 1 0.16500 119244.000000
7079 15953 1 0.16500 119244.000000
7080 13447 1 0.16500 119244.000000
7080 14622 1 0.16500 119244.000000
7081 13447 1 0.16500 119244.000000
7081 15339 1 0.16500 119244.000000
7082 14622 1 0.16500 119244.000000
7082 16145 1 0.16500 119244.000000
7083 13448 1 0.16500 119244.000000
7083 14578 1 0.16500 119244.000000
7084 13448 1 0.16500 119244.000000
7084 13607 1 0.16500 119244.000000
7085 12398 1 0.16500 119244.000000
7085 13449 1 0.16500 119244.000000
7086 13449 1 0.16500 119244.000000
7086 14901 1 0.16500 119244.000000
7087 13450 1 0.16500 119244.000000
7087 14618 1 0.16500 119244.000000
7088 13450 1 0.16500 119244.000000
7088 14176 1 0.16500 119244.000000
7089 13450 1 0.16500 119244.000000
7089 14455 1 0.16500 119244.000000
7090 13451 1 0.16500 119244.000000
7090 16031 1 0.16500 119244.000000
7091 13569 1 0.16500 119244.000000
7091 16078 1 0.16500 119244.000000
7092 13451 1 0.16500 119244.000000
7092 16078 1 0.16500 119244.000000
7093 13451 1 0.16500 119244.000000
7093 13588 1 0.16500 119244.000000
7094 13452 1 0.16500 119244.000000
7094 21826 1 0.16500 119244.000000
7095 13453 1 0.16500 119244.000000
7095 16185 1 0.16500 119244.000000
7096 13453 1 0.16500 119244.000000
7096 15826 1 0.16500 119244.000000
7097 13453 1 0.16500 119244.000000
7097 16337 1 0.16500 119244.000000
7098 14627 1 0.16500 119244.000000
7098 21523 1 0.16500 119244.000000
7099 13454 1 0.16500 119244.000000
7099 21571 1 0.16500 119244.000000
7100 13454 1 0.16500 119244.000000
7100 14621 1 0.16500 119244.000000
7101 13455 1 0.16500 119244.000000
7101 14917 1 0.16500 119244.000000
7102 13455 1 0.16500 119244.000000
7102 14688 1 0.16500 119244.000000
7103 13456 1 0.16500 119244.000000
7103 13759 1 0.16500 119244.000000
7104 13456 1 0.16500 119244.000000
7104 14170 1 0.16500 119244.000000
7105 13457 1 0.16500 119244.000000
7105 16297 1 0.16500 119244.000000
7106 13457 1 0.16500 119244.000000
7106 14437 1 0.16500 119244.000000
7107 13457 1 0.16500 119244.000000
7107 15251 1 0.16500 119244.000000
7108 13458 1 0.16500 119244.000000
7108 16084 1 0.16500 119244.000000
7109 13458 1 0.16500 119244.000000
7109 14950 1 0.16500 119244.000000
7110 13458 1 0.16500 119244.000000
7110 15121 1 0.16500 119244.000000
7111 13458 1 0.16500 119244.000000
7111 16205 1 0.16500 119244.000000
7112 16598 1 0.16500 119244.000000
7112 21526 1 0.16500 119244.000000
7113 21526 1 0.16500 119244.000000
7113 21859 1 0.16500 119244.000000
7114 14951 1 0.16500 119244.000000
7114 21526 1 0.16500 119244.000000
7115 13459 1 0.16500 119244.000000
7115 15208 1 0.16500 119244.000000
7116 13459 1 0.16500 119244.000000
7116 15896 1 0.16500 119244.000000
7117 13459 1 0.16500 119244.000000
7117 15471 1 0.16500 119244.000000
7118 13460 1 0.16500 119244.000000
7118 14705 1 0.16500 119244.000000
7119 13460 1 0.16500 119244.000000
7119 15184 1 0.16500 119244.000000
7120 13460 1 0.16500 119244.000000
7120 14984 1 0.16500 119244.000000
7121 13461 1 0.16500 119244.000000
7121 15735 1 0.16500 119244.000000
7122 13461 1 0.16500 119244.000000
7122 13948 1 0.16500 119244.000000
7123 13461 1 0.16500 119244.000000
7123 13497 1 0.16500 119244.000000
7124 13462 1 0.16500 119244.000000
7124 14675 1 0.16500 119244.000000
7125 13462 1 0.16500 119244.000000
7125 15915 1 0.16500 119244.000000
7126 14675 1 0.16500 119244.000000
7126 14702 1 0.16500 119244.000000
7127 13463 1 0.16500 119244.000000
7127 21853 1 0.16500 119244.000000
7128 13463 1 0.16500 119244.000000
7128 13648 1 0.16500 119244.000000
7129 13463 1 0.16500 119244.000000
7129 13541 1 0.16500 119244.000000
7130 13463 1 0.16500 119244.000000
7130 16133 1 0.16500 119244.000000
7131 13464 1 0.16500 119244.000000
7131 15927 1 0.16500 119244.000000
7132 14792 1 0.16500 119244.000000
7132 15927 1 0.16500 119244.000000
7133 13466 1 0.16500 119244.000000
7133 14731 1 0.16500 119244.000000
7134 13466 1 0.16500 119244.000000
7134 16465 1 0.16500 119244.000000
7135 13467 1 0.16500 119244.000000
7135 13656 1 0.16500 119244.000000
7136 13467 1 0.16500 119244.000000
7136 13796 1 0.16500 119244.000000
7137 13467 1 0.16500 119244.000000
7137 15407 1 0.16500 119244.000000
7138 13468 1 0.16500 119244.000000
7138 14870 1 0.16500 119244.000000
7139 13468 1 0.16500 119244.000000
7139 14710 1 0.16500 119244.000000
7140 13468 1 0.16500 119244.000000
7140 16046 1 0.16500 119244.000000
7141 13469 1 0.16500 119244.000000
7141 21763 1 0.16500 119244.000000
7142 13469 1 0.16500 119244.000000
7142 21646 1 0.16500 119244.000000
7143 13470 1 0.16500 119244.000000
7143 13616 1 0.16500 119244.000000
7144 12844 1 0.16500 119244.000000
7144 14419 1 0.16500 119244.000000
7145 13470 1 0.16500 119244.000000
7145 15092 1 0.16500 119244.000000
7146 13471 1 0.16500 119244.000000
7146 14710 1 0.16500 119244.000000
7147 13471 1 0.16500 119244.000000
7147 15897 1 0.16500 119244.000000
7148 13471 1 0.16500 119244.000000
7148 16019 1 0.16500 119244.000000
7149 13472 1 0.16500 119244.000000
7149 14979 1 0.16500 119244.000000
7150 13472 1 0.16500 119244.000000
7150 16468 1 0.16500 119244.000000
7151 13472 1 0.16500 119244.000000
7151 13539 1 0.16500 119244.000000
7152 13473 1 0.16500 119244.000000
7152 15119 1 0.16500 119244.000000
7153 14013 1 0.16500 119244.000000
7153 21529 1 0.16500 119244.000000
7154 16391 1 0.16500 119244.000000
7154 21529 1 0.16500 119244.000000
7155 13474 1 0.16500 119244.000000
7155 16074 1 0.16500 119244.000000
7156 13474 1 0.16500 119244.000000
7156 15277 1 0.16500 119244.000000
7157 13474 1 0.16500 119244.000000
7157 15767 1 0.16500 119244.000000
7158 13475 1 0.16500 119244.000000
7158 14496 1 0.16500 119244.000000
7159 13475 1 0.16500 119244.000000
7159 14228 1 0.16500 119244.000000
7160 13475 1 0.16500 119244.000000
7160 16036 1 0.16500 119244.000000
7161 13475 1 0.16500 119244.000000
7161 15319 1 0.16500 119244.000000
7162 13476 1 0.16500 119244.000000
7162 13773 1 0.16500 119244.000000
7163 13476 1 0.16500 119244.000000
7163 16030 1 0.16500 119244.000000
7164 13477 1 0.16500 119244.000000
7164 15954 1 0.16500 119244.000000
7165 13477 1 0.16500 119244.000000
7165 14480 1 0.16500 119244.000000
7166 13477 1 0.16500 119244.000000
7166 14406 1 0.16500 119244.000000
7167 13478 1 0.16500 119244.000000
7167 14941 1 0.16500 119244.000000
7168 13479 1 0.16500 119244.000000
7168 14636 1 0.16500 119244.000000
7169 13479 1 0.16500 119244.000000
7169 13741 1 0.16500 119244.000000
7170 13479 1 0.16500 119244.000000
7170 20158 1 0.16500 119244.000000
7171 15497 1 0.16500 119244.000000
7171 16840 1 0.16500 119244.000000
7172 13480 1 0.16500 119244.000000
7172 15462 1 0.16500 119244.000000
7173 13480 1 0.16500 119244.000000
7173 13766 1 0.16500 119244.000000
7174 13480 1 0.16500 119244.000000
7174 15840 1 0.16500 119244.000000
7175 13481 1 0.16500 119244.000000
7175 16509 1 0.16500 119244.000000
7176 13481 1 0.16500 119244.000000
7176 14871 1 0.16500 119244.000000
7177 11867 1 0.16500 119244.000000
7177 13481 1 0.16500 119244.000000
7178 13482 1 0.16500 119244.000000
7178 13750 1 0.16500 119244.000000
7179 13482 1 0.16500 119244.000000
7179 15551 1 0.16500 119244.000000
7180 17092 1 0.16500 119244.000000
7180 18682 1 0.16500 119244.000000
7181 13483 1 0.16500 119244.000000
7181 13593 1 0.16500 119244.000000
7182 13483 1 0.16500 119244.000000
7182 13837 1 0.16500 119244.000000
7183 13484 1 0.16500 119244.000000
7183 15811 1 0.16500 119244.000000
7184 13485 1 0.16500 119244.000000
7184 14992 1 0.16500 119244.000000
7185 13485 1 0.16500 119244.000000
7185 14039 1 0.16500 119244.000000
7186 13486 1 0.16500 119244.000000
7186 13748 1 0.16500 119244.000000
7187 13486 1 0.16500 119244.000000
7187 15655 1 0.16500 119244.000000
7188 13486 1 0.16500 119244.000000
7188 13864 1 0.16500 119244.000000
7189 13486 1 0.16500 119244.000000
7189 13659 1 0.16500 119244.000000
7190 13487 1 0.16500 119244.000000
7190 16217 1 0.16500 119244.000000
7191 13487 1 0.16500 119244.000000
7191 13926 1 0.16500 119244.000000
7192 13487 1 0.16500 119244.000000
7192 16335 1 0.16500 119244.000000
7193 13487 1 0.16500 119244.000000
7193 13513 1 0.16500 119244.000000
7194 12988 1 0.16500 119244.000000
7194 13488 1 0.16500 119244.000000
7195 13488 1 0.16500 119244.000000
7195 15814 1 0.16500 119244.000000
7196 13489 1 0.16500 119244.000000
7196 14633 1 0.16500 119244.000000
7197 13489 1 0.16500 119244.000000
7197 16289 1 0.16500 119244.000000
7198 21010 1 0.16500 119244.000000
7198 21535 1 0.16500 119244.000000
7199 13490 1 0.16500 119244.000000
7199 15971 1 0.16500 119244.000000
7200 13490 1 0.16500 119244.000000
7200 14610 1 0.16500 119244.000000
7201 13491 1 0.16500 119244.000000
7201 13779 1 0.16500 119244.000000
7202 13491 1 0.16500 119244.000000
7202 14367 1 0.16500 119244.000000
7203 13492 1 0.16500 119244.000000
7203 15588 1 0.16500 119244.000000
7204 13492 1 0.16500 119244.000000
7204 14673 1 0.16500 119244.000000
7205 13493 1 0.16500 119244.000000
7205 15051 1 0.16500 119244.000000
7206 13493 1 0.16500 119244.000000
7206 14384 1 0.16500 119244.000000
7207 13494 1 0.16500 119244.000000
7207 15631 1 0.16500 119244.000000
7208 13494 1 0.16500 119244.000000
7208 13825 1 0.16500 119244.000000
7209 13495 1 0.16500 119244.000000
7209 21562 1 0.16500 119244.000000
7210 13497 1 0.16500 119244.000000
7210 15519 1 0.16500 119244.000000
7211 13497 1 0.16500 119244.000000
7211 16124 1 0.16500 119244.000000
7212 13497 1 0.16500 119244.000000
7212 13690 1 0.16500 119244.000000
7213 13498 1 0.16500 119244.000000
7213 13906 1 0.16500 119244.000000
7214 13499 1 0.16500 119244.000000
7214 14262 1 0.16500 119244.000000
7215 13499 1 0.16500 119244.000000
7215 14161 1 0.16500 119244.000000
7216 14262 1 0.16500 119244.000000
7216 16342 1 0.16500 119244.000000
7217 13500 1 0.16500 119244.000000
7217 21601 1 0.16500 119244.000000
7218 13501 1 0.16500 119244.000000
7218 14217 1 0.16500 119244.000000
7219 13501 1 0.16500 119244.000000
7219 21604 1 0.16500 119244.000000
7220 13501 1 0.16500 119244.000000
7220 15670 1 0.16500 119244.000000
7221 13501 1 0.16500 119244.000000
7221 15710 1 0.16500 119244.000000
7222 15915 1 0.16500 119244.000000
7222 21538 1 0.16500 119244.000000
7223 13529 1 0.16500 119244.000000
7223 21538 1 0.16500 119244.000000
7224 14219 1 0.16500 119244.000000
7224 14302 1 0.16500 119244.000000
7225 13502 1 0.16500 119244.000000
7225 14302 1 0.16500 119244.000000
7226 13502 1 0.16500 119244.000000
7226 16433 1 0.16500 119244.000000
7227 13503 1 0.16500 119244.000000
7227 14435 1 0.16500 119244.000000
7228 13504 1 0.16500 119244.000000
7228 15932 1 0.16500 119244.000000
7229 13504 1 0.16500 119244.000000
7229 16313 1 0.16500 119244.000000
7230 13504 1 0.16500 119244.000000
7230 14827 1 0.16500 119244.000000
7231 13504 1 0.16500 119244.000000
7231 13541 1 0.16500 119244.000000
7232 13505 1 0.16500 119244.000000
7232 14955 1 0.16500 119244.000000
7233 13195 1 0.16500 119244.000000
7233 13505 1 0.16500 119244.000000
7234 13505 1 0.16500 119244.000000
7234 14585 1 0.16500 119244.000000
7235 13506 1 0.16500 119244.000000
7235 14445 1 0.16500 119244.000000
7236 13506 1 0.16500 119244.000000
7236 14828 1 0.16500 119244.000000
7237 14976 1 0.16500 119244.000000
7237 16000 1 0.16500 119244.000000
7238 13507 1 0.16500 119244.000000
7238 14748 1 0.16500 119244.000000
7239 13507 1 0.16500 119244.000000
7239 13810 1 0.16500 119244.000000
7240 16135 1 0.16500 119244.000000
7240 16556 1 0.16500 119244.000000
7241 13508 1 0.16500 119244.000000
7241 16135 1 0.16500 119244.000000
7242 13508 1 0.16500 119244.000000
7242 16587 1 0.16500 119244.000000
7243 13509 1 0.16500 119244.000000
7243 14608 1 0.16500 119244.000000
7244 13509 1 0.16500 119244.000000
7244 16266 1 0.16500 119244.000000
7245 13510 1 0.16500 119244.000000
7245 16350 1 0.16500 119244.000000
7246 13510 1 0.16500 119244.000000
7246 14402 1 0.16500 119244.000000
7247 13511 1 0.16500 119244.000000
7247 13565 1 0.16500 119244.000000
7248 13511 1 0.16500 119244.000000
7248 15229 1 0.16500 119244.000000
7249 13511 1 0.16500 119244.000000
7249 13588 1 0.16500 119244.000000
7250 13511 1 0.16500 119244.000000
7250 21721 1 0.16500 119244.000000
7251 13512 1 0.16500 119244.000000
7251 14109 1 0.16500 119244.000000
7252 13893 1 0.16500 119244.000000
7252 14109 1 0.16500 119244.000000
7253 13513 1 0.16500 119244.000000
7253 13582 1 0.16500 119244.000000
7254 13514 1 0.16500 119244.000000
7254 13874 1 0.16500 119244.000000
7255 13515 1 0.16500 119244.000000
7255 14006 1 0.16500 119244.000000
7256 13515 1 0.16500 119244.000000
7256 13715 1 0.16500 119244.000000
7257 13516 1 0.16500 119244.000000
7257 21898 1 0.16500 119244.000000
7258 13517 1 0.16500 119244.000000
7258 16514 1 0.16500 119244.000000
7259 13517 1 0.16500 119244.000000
7259 15864 1 0.16500 119244.000000
7260 13518 1 0.16500 119244.000000
7260 14684 1 0.16500 119244.000000
7261 13518 1 0.16500 119244.000000
7261 15411 1 0.16500 119244.000000
7262 14789 1 0.16500 119244.000000
7262 21541 1 0.16500 119244.000000
7263 16022 1 0.16500 119244.000000
7263 21541 1 0.16500 119244.000000
7264 15885 1 0.16500 119244.000000
7264 21541 1 0.16500 119244.000000
7265 12029 1 0.16500 119244.000000
7265 13519 1 0.16500 119244.000000
7266 13519 1 0.16500 119244.000000
7266 14303 1 0.16500 119244.000000
7267 13520 1 0.16500 119244.000000
7267 15158 1 0.16500 119244.000000
7268 13521 1 0.16500 119244.000000
7268 13528 1 0.16500 119244.000000
7269 14358 1 0.16500 119244.000000
7269 15252 1 0.16500 119244.000000
7270 13523 1 0.16500 119244.000000
7270 15252 1 0.16500 119244.000000
7271 13524 1 0.16500 119244.000000
7271 13607 1 0.16500 119244.000000
7272 13524 1 0.16500 119244.000000
7272 15384 1 0.16500 119244.000000
7273 13524 1 0.16500 119244.000000
7273 14594 1 0.16500 119244.000000
7274 13524 1 0.16500 119244.000000
7274 15456 1 0.16500 119244.000000
7275 13525 1 0.16500 119244.000000
7275 14380 1 0.16500 119244.000000
7276 13525 1 0.16500 119244.000000
7276 15783 1 0.16500 119244.000000
7277 14514 1 0.16500 119244.000000
7277 16086 1 0.16500 119244.000000
7278 13526 1 0.16500 119244.000000
7278 21676 1 0.16500 119244.000000
7279 13526 1 0.16500 119244.000000
7279 16086 1 0.16500 119244.000000
7280 13526 1 0.16500 119244.000000
7280 16345 1 0.16500 119244.000000
7281 13527 1 0.16500 119244.000000
7281 15451 1 0.16500 119244.000000
7282 15089 1 0.16500 119244.000000
7282 15451 1 0.16500 119244.000000
7283 13097 1 0.16500 119244.000000
7283 13548 1 0.16500 119244.000000
7284 13528 1 0.16500 119244.000000
7284 13555 1 0.16500 119244.000000
7285 13528 1 0.16500 119244.000000
7285 20086 1 0.16500 119244.000000
7286 13528 1 0.16500 119244.000000
7286 16868 1 0.16500 119244.000000
7287 13529 1 0.16500 119244.000000
7287 21835 1 0.16500 119244.000000
7288 14298 1 0.16500 119244.000000
7288 21835 1 0.16500 119244.000000
7289 13530 1 0.16500 119244.000000
7289 15750 1 0.16500 119244.000000
7290 13530 1 0.16500 119244.000000
7290 15161 1 0.16500 119244.000000
7291 15750 1 0.16500 119244.000000
7291 19678 1 0.16500 119244.000000
7292 13531 1 0.16500 119244.000000
7292 14452 1 0.16500 119244.000000
7293 13531 1 0.16500 119244.000000
7293 15571 1 0.16500 119244.000000
7294 13531 1 0.16500 119244.000000
7294 16110 1 0.16500 119244.000000
7295 13532 1 0.16500 119244.000000
7295 14543 1 0.16500 119244.000000
7296 13532 1 0.16500 119244.000000
7296 14754 1 0.16500 119244.000000
7297 13532 1 0.16500 119244.000000
7297 14150 1 0.16500 119244.000000
7298 13534 1 0.16500 119244.000000
7298 14057 1 0.16500 119244.000000
7299 13534 1 0.16500 119244.000000
7299 14843 1 0.16500 119244.000000
7300 13534 1 0.16500 119244.000000
7300 16192 1 0.16500 119244.000000
7301 13535 1 0.16500 119244.000000
7301 14610 1 0.16500 119244.000000
7302 13535 1 0.16500 119244.000000
7302 18198 1 0.16500 119244.000000
7303 13536 1 0.16500 119244.000000
7303 15253 1 0.16500 119244.000000
7304 13536 1 0.16500 119244.000000
7304 16556 1 0.16500 119244.000000
7305 13536 1 0.16500 119244.000000
7305 15062 1 0.16500 119244.000000
7306 13537 1 0.16500 119244.000000
7306 15339 1 0.16500 119244.000000
7307 13537 1 0.16500 119244.000000
7307 13913 1 0.16500 119244.000000
7308 13178 1 0.16500 119244.000000
7308 13537 1 0.16500 119244.000000
7309 13538 1 0.16500 119244.000000
7309 15773 1 0.16500 119244.000000
7310 13538 1 0.16500 119244.000000
7310 13592 1 0.16500 119244.000000
7311 13538 1 0.16500 119244.000000
7311 20410 1 0.16500 119244.000000
7312 13538 1 0.16500 119244.000000
7312 15449 1 0.16500 119244.000000
7313 13539 1 0.16500 119244.000000
7313 15214 1 0.16500 119244.000000
7314 13539 1 0.16500 119244.000000
7314 15224 1 0.16500 119244.000000
7315 13540 1 0.16500 119244.000000
7315 14891 1 0.16500 119244.000000
7316 13540 1 0.16500 119244.000000
7316 15366 1 0.16500 119244.000000
7317 13542 1 0.16500 119244.000000
7317 13940 1 0.16500 119244.000000
7318 13542 1 0.16500 119244.000000
7318 16060 1 0.16500 119244.000000
7319 11713 1 0.16500 119244.000000
7319 16107 1 0.16500 119244.000000
7320 11713 1 0.16500 119244.000000
7320 14491 1 0.16500 119244.000000
7321 13544 1 0.16500 119244.000000
7321 13910 1 0.16500 119244.000000
7322 13544 1 0.16500 119244.000000
7322 16440 1 0.16500 119244.000000
7323 13545 1 0.16500 119244.000000
7323 15563 1 0.16500 119244.000000
7324 13545 1 0.16500 119244.000000
7324 15554 1 0.16500 119244.000000
7325 14249 1 0.16500 119244.000000
7325 15563 1 0.16500 119244.000000
7326 13740 1 0.16500 119244.000000
7326 15399 1 0.16500 119244.000000
7327 13547 1 0.16500 119244.000000
7327 14507 1 0.16500 119244.000000
7328 13547 1 0.16500 119244.000000
7328 13740 1 0.16500 119244.000000
7329 13548 1 0.16500 119244.000000
7329 15654 1 0.16500 119244.000000
7330 13549 1 0.16500 119244.000000
7330 15023 1 0.16500 119244.000000
7331 13550 1 0.16500 119244.000000
7331 16619 1 0.16500 119244.000000
7332 13550 1 0.16500 119244.000000
7332 14570 1 0.16500 119244.000000
7333 13550 1 0.16500 119244.000000
7333 14469 1 0.16500 119244.000000
7334 13551 1 0.16500 119244.000000
7334 14391 1 0.16500 119244.000000
7335 13551 1 0.16500 119244.000000
7335 16048 1 0.16500 119244.000000
7336 13551 1 0.16500 119244.000000
7336 16459 1 0.16500 119244.000000
7337 13551 1 0.16500 119244.000000
7337 15446 1 0.16500 119244.000000
7338 13552 1 0.16500 119244.000000
7338 16332 1 0.16500 119244.000000
7339 13552 1 0.16500 119244.000000
7339 14494 1 0.16500 119244.000000
7340 13552 1 0.16500 119244.000000
7340 15082 1 0.16500 119244.000000
7341 16559 1 0.16500 119244.000000
7341 18766 1 0.16500 119244.000000
7342 13553 1 0.16500 119244.000000
7342 18766 1 0.16500 119244.000000
7343 13553 1 0.16500 119244.000000
7343 19822 1 0.16500 119244.000000
7344 13553 1 0.16500 119244.000000
7344 15500 1 0.16500 119244.000000
7345 13554 1 0.16500 119244.000000
7345 15982 1 0.16500 119244.000000
7346 13554 1 0.16500 119244.000000
7346 14736 1 0.16500 119244.000000
7347 13554 1 0.16500 119244.000000
7347 16519 1 0.16500 119244.000000
7348 13555 1 0.16500 119244.000000
7348 16583 1 0.16500 119244.000000
7349 13555 1 0.16500 119244.000000
7349 16532 1 0.16500 119244.000000
7350 13555 1 0.16500 119244.000000
7350 16075 1 0.16500 119244.000000
7351 13556 1 0.16500 119244.000000
7351 13660 1 0.16500 119244.000000
7352 13556 1 0.16500 119244.000000
7352 14450 1 0.16500 119244.000000
7353 13556 1 0.16500 119244.000000
7353 16562 1 0.16500 119244.000000
7354 13557 1 0.16500 119244.000000
7354 15189 1 0.16500 119244.000000
7355 13557 1 0.16500 119244.000000
7355 15720 1 0.16500 119244.000000
7356 13557 1 0.16500 119244.000000
7356 14317 1 0.16500 119244.000000
7357 13558 1 0.16500 119244.000000
7357 16194 1 0.16500 119244.000000
7358 13321 1 0.16500 119244.000000
7358 14825 1 0.16500 119244.000000
7359 13321 1 0.16500 119244.000000
7359 13558 1 0.16500 119244.000000
7360 13559 1 0.16500 119244.000000
7360 16380 1 0.16500 119244.000000
7361 13559 1 0.16500 119244.000000
7361 14837 1 0.16500 119244.000000
7362 13559 1 0.16500 119244.000000
7362 16071 1 0.16500 119244.000000
7363 13560 1 0.16500 119244.000000
7363 21994 1 0.16500 119244.000000
7364 13560 1 0.16500 119244.000000
7364 13905 1 0.16500 119244.000000
7365 13560 1 0.16500 119244.000000
7365 15154 1 0.16500 119244.000000
7366 13561 1 0.16500 119244.000000
7366 15614 1 0.16500 119244.000000
7367 13562 1 0.16500 119244.000000
7367 13735 1 0.16500 119244.000000
7368 11416 1 0.16500 119244.000000
7368 16371 1 0.16500 119244.000000
7369 14269 1 0.16500 119244.000000
7369 21547 1 0.16500 119244.000000
7370 13563 1 0.16500 119244.000000
7370 13958 1 0.16500 119244.000000
7371 11660 1 0.16500 119244.000000
7371 14558 1 0.16500 119244.000000
7372 13563 1 0.16500 119244.000000
7372 15952 1 0.16500 119244.000000
7373 11673 1 0.16500 119244.000000
7373 13328 1 0.16500 119244.000000
7374 13564 1 0.16500 119244.000000
7374 14675 1 0.16500 119244.000000
7375 14346 1 0.16500 119244.000000
7375 18586 1 0.16500 119244.000000
7376 18586 1 0.16500 119244.000000
7376 21790 1 0.16500 119244.000000
7377 13566 1 0.16500 119244.000000
7377 15517 1 0.16500 119244.000000
7378 13566 1 0.16500 119244.000000
7378 16489 1 0.16500 119244.000000
7379 13566 1 0.16500 119244.000000
7379 13922 1 0.16500 119244.000000
7380 13566 1 0.16500 119244.000000
7380 15305 1 0.16500 119244.000000
7381 13567 1 0.16500 119244.000000
7381 14361 1 0.16500 119244.000000
7382 13567 1 0.16500 119244.000000
7382 16460 1 0.16500 119244.000000
7383 13568 1 0.16500 119244.000000
7383 15640 1 0.16500 119244.000000
7384 13570 1 0.16500 119244.000000
7384 14558 1 0.16500 119244.000000
7385 13570 1 0.16500 119244.000000
7385 15296 1 0.16500 119244.000000
7386 13570 1 0.16500 119244.000000
7386 13762 1 0.16500 119244.000000
7387 13570 1 0.16500 119244.000000
7387 15709 1 0.16500 119244.000000
7388 13571 1 0.16500 119244.000000
7388 16152 1 0.16500 119244.000000
7389 13571 1 0.16500 119244.000000
7389 13895 1 0.16500 119244.000000
7390 13572 1 0.16500 119244.000000
7390 15987 1 0.16500 119244.000000
7391 13572 1 0.16500 119244.000000
7391 15042 1 0.16500 119244.000000
7392 13573 1 0.16500 119244.000000
7392 14470 1 0.16500 119244.000000
7393 13573 1 0.16500 119244.000000
7393 14541 1 0.16500 119244.000000
7394 13574 1 0.16500 119244.000000
7394 14152 1 0.16500 119244.000000
7395 13574 1 0.16500 119244.000000
7395 14918 1 0.16500 119244.000000
7396 13574 1 0.16500 119244.000000
7396 15707 1 0.16500 119244.000000
7397 13575 1 0.16500 119244.000000
7397 14045 1 0.16500 119244.000000
7398 13575 1 0.16500 119244.000000
7398 13679 1 0.16500 119244.000000
7399 14663 1 0.16500 119244.000000
7399 21022 1 0.16500 119244.000000
7400 16586 1 0.16500 119244.000000
7400 21022 1 0.16500 119244.000000
7401 13576 1 0.16500 119244.000000
7401 14818 1 0.16500 119244.000000
7402 13576 1 0.16500 119244.000000
7402 14250 1 0.16500 119244.000000
7403 13576 1 0.16500 119244.000000
7403 13647 1 0.16500 119244.000000
7404 13576 1 0.16500 119244.000000
7404 15570 1 0.16500 119244.000000
7405 13577 1 0.16500 119244.000000
7405 16175 1 0.16500 119244.000000
7406 13577 1 0.16500 119244.000000
7406 14148 1 0.16500 119244.000000
7407 13577 1 0.16500 119244.000000
7407 15872 1 0.16500 119244.000000
7408 13578 1 0.16500 119244.000000
7408 15789 1 0.16500 119244.000000
7409 12411 1 0.16500 119244.000000
7409 13586 1 0.16500 119244.000000
7410 14520 1 0.16500 119244.000000
7410 15789 1 0.16500 119244.000000
7411 13579 1 0.16500 119244.000000
7411 16095 1 0.16500 119244.000000
7412 13579 1 0.16500 119244.000000
7412 14222 1 0.16500 119244.000000
7413 13579 1 0.16500 119244.000000
7413 14889 1 0.16500 119244.000000
7414 13580 1 0.16500 119244.000000
7414 14200 1 0.16500 119244.000000
7415 13581 1 0.16500 119244.000000
7415 14485 1 0.16500 119244.000000
7416 13581 1 0.16500 119244.000000
7416 14757 1 0.16500 119244.000000
7417 13582 1 0.16500 119244.000000
7417 16087 1 0.16500 119244.000000
7418 12862 1 0.16500 119244.000000
7418 13583 1 0.16500 119244.000000
7419 13583 1 0.16500 119244.000000
7419 13882 1 0.16500 119244.000000
7420 13583 1 0.16500 119244.000000
7420 14390 1 0.16500 119244.000000
7421 13584 1 0.16500 119244.000000
7421 15642 1 0.16500 119244.000000
7422 13584 1 0.16500 119244.000000
7422 13854 1 0.16500 119244.000000
7423 13585 1 0.16500 119244.000000
7423 15926 1 0.16500 119244.000000
7424 13586 1 0.16500 119244.000000
7424 15065 1 0.16500 119244.000000
7425 13586 1 0.16500 119244.000000
7425 16576 1 0.16500 119244.000000
7426 13586 1 0.16500 119244.000000
7426 13800 1 0.16500 119244.000000
7427 13587 1 0.16500 119244.000000
7427 19642 1 0.16500 119244.000000
7428 13587 1 0.16500 119244.000000
7428 14021 1 0.16500 119244.000000
7429 13587 1 0.16500 119244.000000
7429 15523 1 0.16500 119244.000000
7430 13588 1 0.16500 119244.000000
7430 15436 1 0.16500 119244.000000
7431 12127 1 0.16500 119244.000000
7431 15380 1 0.16500 119244.000000
7432 13588 1 0.16500 119244.000000
7432 15380 1 0.16500 119244.000000
7433 13589 1 0.16500 119244.000000
7433 18994 1 0.16500 119244.000000
7434 13590 1 0.16500 119244.000000
7434 15516 1 0.16500 119244.000000
7435 13590 1 0.16500 119244.000000
7435 15894 1 0.16500 119244.000000
7436 13590 1 0.16500 119244.000000
7436 13624 1 0.16500 119244.000000
7437 13591 1 0.16500 119244.000000
7437 15610 1 0.16500 119244.000000
7438 13591 1 0.16500 119244.000000
7438 15222 1 0.16500 119244.000000
7439 13591 1 0.16500 119244.000000
7439 16515 1 0.16500 119244.000000
7440 13592 1 0.16500 119244.000000
7440 14138 1 0.16500 119244.000000
7441 13592 1 0.16500 119244.000000
7441 20122 1 0.16500 119244.000000
7442 13593 1 0.16500 119244.000000
7442 16307 1 0.16500 119244.000000
7443 13594 1 0.16500 119244.000000
7443 15145 1 0.16500 119244.000000
7444 13594 1 0.16500 119244.000000
7444 14595 1 0.16500 119244.000000
7445 13594 1 0.16500 119244.000000
7445 14563 1 0.16500 119244.000000
7446 13322 1 0.16500 119244.000000
7446 14980 1 0.16500 119244.000000
7447 13596 1 0.16500 119244.000000
7447 16525 1 0.16500 119244.000000
7448 13596 1 0.16500 119244.000000
7448 14494 1 0.16500 119244.000000
7449 13597 1 0.16500 119244.000000
7449 19462 1 0.16500 119244.000000
7450 13597 1 0.16500 119244.000000
7450 14224 1 0.16500 119244.000000
7451 12669 1 0.16500 119244.000000
7451 13984 1 0.16500 119244.000000
7452 13598 1 0.16500 119244.000000
7452 13876 1 0.16500 119244.000000
7453 13598 1 0.16500 119244.000000
7453 13744 1 0.16500 119244.000000
7454 13599 1 0.16500 119244.000000
7454 16614 1 0.16500 119244.000000
7455 13599 1 0.16500 119244.000000
7455 15310 1 0.16500 119244.000000
7456 13599 1 0.16500 119244.000000
7456 14582 1 0.16500 119244.000000
7457 13600 1 0.16500 119244.000000
7457 15626 1 0.16500 119244.000000
7458 13600 1 0.16500 119244.000000
7458 15806 1 0.16500 119244.000000
7459 13601 1 0.16500 119244.000000
7459 15682 1 0.16500 119244.000000
7460 13601 1 0.16500 119244.000000
7460 14661 1 0.16500 119244.000000
7461 13601 1 0.16500 119244.000000
7461 15797 1 0.16500 119244.000000
7462 13602 1 0.16500 119244.000000
7462 14754 1 0.16500 119244.000000
7463 13602 1 0.16500 119244.000000
7463 16352 1 0.16500 119244.000000
7464 13603 1 0.16500 119244.000000
7464 16266 1 0.16500 119244.000000
7465 13603 1 0.16500 119244.000000
7465 13993 1 0.16500 119244.000000
7466 13603 1 0.16500 119244.000000
7466 15205 1 0.16500 119244.000000
7467 13604 1 0.16500 119244.000000
7467 14092 1 0.16500 119244.000000
7468 13604 1 0.16500 119244.000000
7468 14593 1 0.16500 119244.000000
7469 13492 1 0.16500 119244.000000
7469 13605 1 0.16500 119244.000000
7470 14228 1 0.16500 119244.000000
7470 17064 1 0.16500 119244.000000
7471 13606 1 0.16500 119244.000000
7471 16242 1 0.16500 119244.000000
7472 16097 1 0.16500 119244.000000
7472 21553 1 0.16500 119244.000000
7473 13607 1 0.16500 119244.000000
7473 16091 1 0.16500 119244.000000
7474 13608 1 0.16500 119244.000000
7474 14809 1 0.16500 119244.000000
7475 13608 1 0.16500 119244.000000
7475 15195 1 0.16500 119244.000000
7476 13608 1 0.16500 119244.000000
7476 15053 1 0.16500 119244.000000
7477 13269 1 0.16500 119244.000000
7477 13608 1 0.16500 119244.000000
7478 13609 1 0.16500 119244.000000
7478 15238 1 0.16500 119244.000000
7479 13610 1 0.16500 119244.000000
7479 13707 1 0.16500 119244.000000
7480 13610 1 0.16500 119244.000000
7480 14055 1 0.16500 119244.000000
7481 13611 1 0.16500 119244.000000
7481 14412 1 0.16500 119244.000000
7482 13611 1 0.16500 119244.000000
7482 15594 1 0.16500 119244.000000
7483 13611 1 0.16500 119244.000000
7483 13644 1 0.16500 119244.000000
7484 13612 1 0.16500 119244.000000
7484 15234 1 0.16500 119244.000000
7485 14699 1 0.16500 119244.000000
7485 21556 1 0.16500 119244.000000
7486 15989 1 0.16500 119244.000000
7486 21556 1 0.16500 119244.000000
7487 13613 1 0.16500 119244.000000
7487 14261 1 0.16500 119244.000000
7488 13613 1 0.16500 119244.000000
7488 15306 1 0.16500 119244.000000
7489 13613 1 0.16500 119244.000000
7489 14840 1 0.16500 119244.000000
7490 13614 1 0.16500 119244.000000
7490 14663 1 0.16500 119244.000000
7491 13614 1 0.16500 119244.000000
7491 13709 1 0.16500 119244.000000
7492 13614 1 0.16500 119244.000000
7492 13742 1 0.16500 119244.000000
7493 13615 1 0.16500 119244.000000
7493 21772 1 0.16500 119244.000000
7494 13615 1 0.16500 119244.000000
7494 15391 1 0.16500 119244.000000
7495 13616 1 0.16500 119244.000000
7495 14403 1 0.16500 119244.000000
7496 13616 1 0.16500 119244.000000
7496 14192 1 0.16500 119244.000000
7497 13617 1 0.16500 119244.000000
7497 13634 1 0.16500 119244.000000
7498 13618 1 0.16500 119244.000000
7498 14368 1 0.16500 119244.000000
7499 13618 1 0.16500 119244.000000
7499 15639 1 0.16500 119244.000000
7500 13618 1 0.16500 119244.000000
7500 13925 1 0.16500 119244.000000
7501 13618 1 0.16500 119244.000000
7501 14135 1 0.16500 119244.000000
7502 13619 1 0.16500 119244.000000
7502 15351 1 0.16500 119244.000000
7503 13619 1 0.16500 119244.000000
7503 14318 1 0.16500 119244.000000
7504 13619 1 0.16500 119244.000000
7504 14312 1 0.16500 119244.000000
7505 13620 1 0.16500 119244.000000
7505 15870 1 0.16500 119244.000000
7506 13386 1 0.16500 119244.000000
7506 13620 1 0.16500 119244.000000
7507 14556 1 0.16500 119244.000000
7507 15144 1 0.16500 119244.000000
7508 13621 1 0.16500 119244.000000
7508 14556 1 0.16500 119244.000000
7509 13621 1 0.16500 119244.000000
7509 15010 1 0.16500 119244.000000
7510 18946 1 0.16500 119244.000000
7510 21559 1 0.16500 119244.000000
7511 13622 1 0.16500 119244.000000
7511 14174 1 0.16500 119244.000000
7512 12099 1 0.16500 119244.000000
7512 13622 1 0.16500 119244.000000
7513 14175 1 0.16500 119244.000000
7513 15996 1 0.16500 119244.000000
7514 13843 1 0.16500 119244.000000
7514 14175 1 0.16500 119244.000000
7515 13623 1 0.16500 119244.000000
7515 14994 1 0.16500 119244.000000
7516 13624 1 0.16500 119244.000000
7516 13809 1 0.16500 119244.000000
7517 13624 1 0.16500 119244.000000
7517 15991 1 0.16500 119244.000000
7518 13625 1 0.16500 119244.000000
7518 14368 1 0.16500 119244.000000
7519 13625 1 0.16500 119244.000000
7519 15421 1 0.16500 119244.000000
7520 13626 1 0.16500 119244.000000
7520 15506 1 0.16500 119244.000000
7521 13626 1 0.16500 119244.000000
7521 15462 1 0.16500 119244.000000
7522 15462 1 0.16500 119244.000000
7522 16309 1 0.16500 119244.000000
7523 13627 1 0.16500 119244.000000
7523 16455 1 0.16500 119244.000000
7524 13627 1 0.16500 119244.000000
7524 14860 1 0.16500 119244.000000
7525 13627 1 0.16500 119244.000000
7525 14054 1 0.16500 119244.000000
7526 13628 1 0.16500 119244.000000
7526 16190 1 0.16500 119244.000000
7527 13628 1 0.16500 119244.000000
7527 15084 1 0.16500 119244.000000
7528 12976 1 0.16500 119244.000000
7528 17540 1 0.16500 119244.000000
7529 17540 1 0.16500 119244.000000
7529 21586 1 0.16500 119244.000000
7530 13629 1 0.16500 119244.000000
7530 14881 1 0.16500 119244.000000
7531 13629 1 0.16500 119244.000000
7531 16326 1 0.16500 119244.000000
7532 13629 1 0.16500 119244.000000
7532 15435 1 0.16500 119244.000000
7533 13630 1 0.16500 119244.000000
7533 13884 1 0.16500 119244.000000
7534 13630 1 0.16500 119244.000000
7534 14673 1 0.16500 119244.000000
7535 13631 1 0.16500 119244.000000
7535 16537 1 0.16500 119244.000000
7536 13632 1 0.16500 119244.000000
7536 16228 1 0.16500 119244.000000
7537 13632 1 0.16500 119244.000000
7537 16467 1 0.16500 119244.000000
7538 13633 1 0.16500 119244.000000
7538 15549 1 0.16500 119244.000000
7539 13634 1 0.16500 119244.000000
7539 16426 1 0.16500 119244.000000
7540 13634 1 0.16500 119244.000000
7540 15301 1 0.16500 119244.000000
7541 13635 1 0.16500 119244.000000
7541 16035 1 0.16500 119244.000000
7542 13635 1 0.16500 119244.000000
7542 15609 1 0.16500 119244.000000
7543 13635 1 0.16500 119244.000000
7543 14226 1 0.16500 119244.000000
7544 13636 1 0.16500 119244.000000
7544 15842 1 0.16500 119244.000000
7545 13637 1 0.16500 119244.000000
7545 16004 1 0.16500 119244.000000
7546 13637 1 0.16500 119244.000000
7546 14966 1 0.16500 119244.000000
7547 13639 1 0.16500 119244.000000
7547 13801 1 0.16500 119244.000000
7548 13640 1 0.16500 119244.000000
7548 14221 1 0.16500 119244.000000
7549 13640 1 0.16500 119244.000000
7549 13882 1 0.16500 119244.000000
7550 13640 1 0.16500 119244.000000
7550 15295 1 0.16500 119244.000000
7551 13641 1 0.16500 119244.000000
7551 16330 1 0.16500 119244.000000
7552 13641 1 0.16500 119244.000000
7552 16604 1 0.16500 119244.000000
7553 13642 1 0.16500 119244.000000
7553 14907 1 0.16500 119244.000000
7554 13642 1 0.16500 119244.000000
7554 16573 1 0.16500 119244.000000
7555 13643 1 0.16500 119244.000000
7555 14211 1 0.16500 119244.000000
7556 13644 1 0.16500 119244.000000
7556 15004 1 0.16500 119244.000000
7557 13644 1 0.16500 119244.000000
7557 14819 1 0.16500 119244.000000
7558 13644 1 0.16500 119244.000000
7558 14287 1 0.16500 119244.000000
7559 13908 1 0.16500 119244.000000
7559 21989 1 0.16500 119244.000000
7560 13645 1 0.16500 119244.000000
7560 15578 1 0.16500 119244.000000
7561 13645 1 0.16500 119244.000000
7561 16497 1 0.16500 119244.000000
7562 13645 1 0.16500 119244.000000
7562 14753 1 0.16500 119244.000000
7563 13645 1 0.16500 119244.000000
7563 13853 1 0.16500 119244.000000
7564 13646 1 0.16500 119244.000000
7564 15182 1 0.16500 119244.000000
7565 13646 1 0.16500 119244.000000
7565 13758 1 0.16500 119244.000000
7566 13647 1 0.16500 119244.000000
7566 15948 1 0.16500 119244.000000
7567 13648 1 0.16500 119244.000000
7567 14597 1 0.16500 119244.000000
7568 14597 1 0.16500 119244.000000
7568 16298 1 0.16500 119244.000000
7569 13648 1 0.16500 119244.000000
7569 14026 1 0.16500 119244.000000
7570 14173 1 0.16500 119244.000000
7570 14662 1 0.16500 119244.000000
7571 13649 1 0.16500 119244.000000
7571 14173 1 0.16500 119244.000000
7572 13649 1 0.16500 119244.000000
7572 14462 1 0.16500 119244.000000
7573 13650 1 0.16500 119244.000000
7573 14603 1 0.16500 119244.000000
7574 13650 1 0.16500 119244.000000
7574 15333 1 0.16500 119244.000000
7575 13650 1 0.16500 119244.000000
7575 16024 1 0.16500 119244.000000
7576 13653 1 0.16500 119244.000000
7576 14273 1 0.16500 119244.000000
7577 13653 1 0.16500 119244.000000
7577 15528 1 0.16500 119244.000000
7578 13654 1 0.16500 119244.000000
7578 14947 1 0.16500 119244.000000
7579 13655 1 0.16500 119244.000000
7579 14730 1 0.16500 119244.000000
7580 13655 1 0.16500 119244.000000
7580 21580 1 0.16500 119244.000000
7581 13655 1 0.16500 119244.000000
7581 15275 1 0.16500 119244.000000
7582 13656 1 0.16500 119244.000000
7582 15210 1 0.16500 119244.000000
7583 13657 1 0.16500 119244.000000
7583 16384 1 0.16500 119244.000000
7584 13658 1 0.16500 119244.000000
7584 14287 1 0.16500 119244.000000
7585 13658 1 0.16500 119244.000000
7585 15151 1 0.16500 119244.000000
7586 13659 1 0.16500 119244.000000
7586 16093 1 0.16500 119244.000000
7587 13659 1 0.16500 119244.000000
7587 16466 1 0.16500 119244.000000
7588 13660 1 0.16500 119244.000000
7588 15793 1 0.16500 119244.000000
7589 13660 1 0.16500 119244.000000
7589 14123 1 0.16500 119244.000000
7590 13660 1 0.16500 119244.000000
7590 13759 1 0.16500 119244.000000
7591 13661 1 0.16500 119244.000000
7591 14594 1 0.16500 119244.000000
7592 13661 1 0.16500 119244.000000
7592 16326 1 0.16500 119244.000000
7593 13661 1 0.16500 119244.000000
7593 15549 1 0.16500 119244.000000
7594 13662 1 0.16500 119244.000000
7594 15117 1 0.16500 119244.000000
7595 13662 1 0.16500 119244.000000
7595 14600 1 0.16500 119244.000000
7596 13662 1 0.16500 119244.000000
7596 14745 1 0.16500 119244.000000
7597 13663 1 0.16500 119244.000000
7597 13878 1 0.16500 119244.000000
7598 13663 1 0.16500 119244.000000
7598 17232 1 0.16500 119244.000000
7599 13664 1 0.16500 119244.000000
7599 16004 1 0.16500 119244.000000
7600 13664 1 0.16500 119244.000000
7600 14027 1 0.16500 119244.000000
7601 13665 1 0.16500 119244.000000
7601 13669 1 0.16500 119244.000000
7602 13665 1 0.16500 119244.000000
7602 15576 1 0.16500 119244.000000
7603 14158 1 0.16500 119244.000000
7603 15218 1 0.16500 119244.000000
7604 13666 1 0.16500 119244.000000
7604 15146 1 0.16500 119244.000000
7605 13666 1 0.16500 119244.000000
7605 15218 1 0.16500 119244.000000
7606 13666 1 0.16500 119244.000000
7606 15038 1 0.16500 119244.000000
7607 13667 1 0.16500 119244.000000
7607 15824 1 0.16500 119244.000000
7608 13668 1 0.16500 119244.000000
7608 14472 1 0.16500 119244.000000
7609 13668 1 0.16500 119244.000000
7609 15215 1 0.16500 119244.000000
7610 13669 1 0.16500 119244.000000
7610 15479 1 0.16500 119244.000000
7611 13670 1 0.16500 119244.000000
7611 14024 1 0.16500 119244.000000
7612 14141 1 0.16500 119244.000000
7612 21841 1 0.16500 119244.000000
7613 13671 1 0.16500 119244.000000
7613 21841 1 0.16500 119244.000000
7614 13671 1 0.16500 119244.000000
7614 21436 1 0.16500 119244.000000
7615 13672 1 0.16500 119244.000000
7615 15886 1 0.16500 119244.000000
7616 13672 1 0.16500 119244.000000
7616 16599 1 0.16500 119244.000000
7617 13672 1 0.16500 119244.000000
7617 15031 1 0.16500 119244.000000
7618 13674 1 0.16500 119244.000000
7618 14046 1 0.16500 119244.000000
7619 13674 1 0.16500 119244.000000
7619 13932 1 0.16500 119244.000000
7620 13674 1 0.16500 119244.000000
7620 14586 1 0.16500 119244.000000
7621 13675 1 0.16500 119244.000000
7621 16334 1 0.16500 119244.000000
7622 13675 1 0.16500 119244.000000
7622 14540 1 0.16500 119244.000000
7623 13675 1 0.16500 119244.000000
7623 15200 1 0.16500 119244.000000
7624 14880 1 0.16500 119244.000000
7624 18658 1 0.16500 119244.000000
7625 18658 1 0.16500 119244.000000
7625 21652 1 0.16500 119244.000000
7626 14866 1 0.16500 119244.000000
7626 18658 1 0.16500 119244.000000
7627 20458 1 0.16500 119244.000000
7627 21562 1 0.16500 119244.000000
7628 14722 1 0.16500 119244.000000
7628 21562 1 0.16500 119244.000000
7629 13676 1 0.16500 119244.000000
7629 15055 1 0.16500 119244.000000
7630 13676 1 0.16500 119244.000000
7630 15504 1 0.16500 119244.000000
7631 13676 1 0.16500 119244.000000
7631 16317 1 0.16500 119244.000000
7632 13677 1 0.16500 119244.000000
7632 14709 1 0.16500 119244.000000
7633 13677 1 0.16500 119244.000000
7633 15158 1 0.16500 119244.000000
7634 13677 1 0.16500 119244.000000
7634 16031 1 0.16500 119244.000000
7635 13677 1 0.16500 119244.000000
7635 15229 1 0.16500 119244.000000
7636 15502 1 0.16500 119244.000000
7636 21046 1 0.16500 119244.000000
7637 13678 1 0.16500 119244.000000
7637 14056 1 0.16500 119244.000000
7638 13678 1 0.16500 119244.000000
7638 16257 1 0.16500 119244.000000
7639 13678 1 0.16500 119244.000000
7639 16121 1 0.16500 119244.000000
7640 13679 1 0.16500 119244.000000
7640 14544 1 0.16500 119244.000000
7641 13679 1 0.16500 119244.000000
7641 14488 1 0.16500 119244.000000
7642 13680 1 0.16500 119244.000000
7642 16065 1 0.16500 119244.000000
7643 13680 1 0.16500 119244.000000
7643 16212 1 0.16500 119244.000000
7644 14411 1 0.16500 119244.000000
7644 15801 1 0.16500 119244.000000
7645 13681 1 0.16500 119244.000000
7645 15801 1 0.16500 119244.000000
7646 11900 1 0.16500 119244.000000
7646 13681 1 0.16500 119244.000000
7647 13682 1 0.16500 119244.000000
7647 15491 1 0.16500 119244.000000
7648 13682 1 0.16500 119244.000000
7648 13919 1 0.16500 119244.000000
7649 13683 1 0.16500 119244.000000
7649 16092 1 0.16500 119244.000000
7650 13683 1 0.16500 119244.000000
7650 13763 1 0.16500 119244.000000
7651 13684 1 0.16500 119244.000000
7651 14538 1 0.16500 119244.000000
7652 13684 1 0.16500 119244.000000
7652 15342 1 0.16500 119244.000000
7653 13684 1 0.16500 119244.000000
7653 14268 1 0.16500 119244.000000
7654 13685 1 0.16500 119244.000000
7654 16491 1 0.16500 119244.000000
7655 12923 1 0.16500 119244.000000
7655 15908 1 0.16500 119244.000000
7656 13686 1 0.16500 119244.000000
7656 15245 1 0.16500 119244.000000
7657 13687 1 0.16500 119244.000000
7657 14466 1 0.16500 119244.000000
7658 12496 1 0.16500 119244.000000
7658 15053 1 0.16500 119244.000000
7659 13688 1 0.16500 119244.000000
7659 14725 1 0.16500 119244.000000
7660 13688 1 0.16500 119244.000000
7660 15664 1 0.16500 119244.000000
7661 18970 1 0.16500 119244.000000
7661 19834 1 0.16500 119244.000000
7662 13794 1 0.16500 119244.000000
7662 19834 1 0.16500 119244.000000
7663 11853 1 0.16500 119244.000000
7663 18970 1 0.16500 119244.000000
7664 13689 1 0.16500 119244.000000
7664 14566 1 0.16500 119244.000000
7665 13691 1 0.16500 119244.000000
7665 14528 1 0.16500 119244.000000
7666 13691 1 0.16500 119244.000000
7666 21595 1 0.16500 119244.000000
7667 13692 1 0.16500 119244.000000
7667 15271 1 0.16500 119244.000000
7668 13693 1 0.16500 119244.000000
7668 15682 1 0.16500 119244.000000
7669 11495 1 0.16500 119244.000000
7669 14179 1 0.16500 119244.000000
7670 13047 1 0.16500 119244.000000
7670 16185 1 0.16500 119244.000000
7671 13694 1 0.16500 119244.000000
7671 16291 1 0.16500 119244.000000
7672 14996 1 0.16500 119244.000000
7672 16291 1 0.16500 119244.000000
7673 13695 1 0.16500 119244.000000
7673 15038 1 0.16500 119244.000000
7674 12934 1 0.16500 119244.000000
7674 13696 1 0.16500 119244.000000
7675 13697 1 0.16500 119244.000000
7675 15309 1 0.16500 119244.000000
7676 13697 1 0.16500 119244.000000
7676 15691 1 0.16500 119244.000000
7677 13697 1 0.16500 119244.000000
7677 15186 1 0.16500 119244.000000
7678 13698 1 0.16500 119244.000000
7678 14832 1 0.16500 119244.000000
7679 13698 1 0.16500 119244.000000
7679 15930 1 0.16500 119244.000000
7680 13698 1 0.16500 119244.000000
7680 14815 1 0.16500 119244.000000
7681 13699 1 0.16500 119244.000000
7681 15282 1 0.16500 119244.000000
7682 13699 1 0.16500 119244.000000
7682 14449 1 0.16500 119244.000000
7683 13700 1 0.16500 119244.000000
7683 14553 1 0.16500 119244.000000
7684 13700 1 0.16500 119244.000000
7684 16473 1 0.16500 119244.000000
7685 13700 1 0.16500 119244.000000
7685 15864 1 0.16500 119244.000000
7686 14749 1 0.16500 119244.000000
7686 18324 1 0.16500 119244.000000
7687 13997 1 0.16500 119244.000000
7687 20674 1 0.16500 119244.000000
7688 15394 1 0.16500 119244.000000
7688 20674 1 0.16500 119244.000000
7689 13702 1 0.16500 119244.000000
7689 15454 1 0.16500 119244.000000
7690 13702 1 0.16500 119244.000000
7690 16318 1 0.16500 119244.000000
7691 13703 1 0.16500 119244.000000
7691 15828 1 0.16500 119244.000000
7692 13703 1 0.16500 119244.000000
7692 16244 1 0.16500 119244.000000
7693 14757 1 0.16500 119244.000000
7693 15542 1 0.16500 119244.000000
7694 13704 1 0.16500 119244.000000
7694 14030 1 0.16500 119244.000000
7695 13704 1 0.16500 119244.000000
7695 14757 1 0.16500 119244.000000
7696 13704 1 0.16500 119244.000000
7696 16160 1 0.16500 119244.000000
7697 13705 1 0.16500 119244.000000
7697 16553 1 0.16500 119244.000000
7698 13705 1 0.16500 119244.000000
7698 14569 1 0.16500 119244.000000
7699 14377 1 0.16500 119244.000000
7699 16553 1 0.16500 119244.000000
7700 13706 1 0.16500 119244.000000
7700 16378 1 0.16500 119244.000000
7701 13706 1 0.16500 119244.000000
7701 15739 1 0.16500 119244.000000
7702 13707 1 0.16500 119244.000000
7702 15923 1 0.16500 119244.000000
7703 13707 1 0.16500 119244.000000
7703 14499 1 0.16500 119244.000000
7704 13708 1 0.16500 119244.000000
7704 15289 1 0.16500 119244.000000
7705 13708 1 0.16500 119244.000000
7705 15829 1 0.16500 119244.000000
7706 13709 1 0.16500 119244.000000
7706 14160 1 0.16500 119244.000000
7707 13709 1 0.16500 119244.000000
7707 14733 1 0.16500 119244.000000
7708 13710 1 0.16500 119244.000000
7708 16223 1 0.16500 119244.000000
7709 13710 1 0.16500 119244.000000
7709 15640 1 0.16500 119244.000000
7710 13710 1 0.16500 119244.000000
7710 15237 1 0.16500 119244.000000
7711 13711 1 0.16500 119244.000000
7711 15809 1 0.16500 119244.000000
7712 13711 1 0.16500 119244.000000
7712 14370 1 0.16500 119244.000000
7713 13712 1 0.16500 119244.000000
7713 15508 1 0.16500 119244.000000
7714 13408 1 0.16500 119244.000000
7714 13712 1 0.16500 119244.000000
7715 13713 1 0.16500 119244.000000
7715 16424 1 0.16500 119244.000000
7716 13713 1 0.16500 119244.000000
7716 16165 1 0.16500 119244.000000
7717 13713 1 0.16500 119244.000000
7717 14657 1 0.16500 119244.000000
7718 13714 1 0.16500 119244.000000
7718 16518 1 0.16500 119244.000000
7719 13714 1 0.16500 119244.000000
7719 15359 1 0.16500 119244.000000
7720 13714 1 0.16500 119244.000000
7720 15688 1 0.16500 119244.000000
7721 13715 1 0.16500 119244.000000
7721 14733 1 0.16500 119244.000000
7722 13716 1 0.16500 119244.000000
7722 13962 1 0.16500 119244.000000
7723 13716 1 0.16500 119244.000000
7723 16100 1 0.16500 119244.000000
7724 13716 1 0.16500 119244.000000
7724 14374 1 0.16500 119244.000000
7725 13716 1 0.16500 119244.000000
7725 15157 1 0.16500 119244.000000
7726 13717 1 0.16500 119244.000000
7726 14566 1 0.16500 119244.000000
7727 13717 1 0.16500 119244.000000
7727 15891 1 0.16500 119244.000000
7728 13717 1 0.16500 119244.000000
7728 14545 1 0.16500 119244.000000
7729 13718 1 0.16500 119244.000000
7729 16474 1 0.16500 119244.000000
7730 13718 1 0.16500 119244.000000
7730 15048 1 0.16500 119244.000000
7731 13719 1 0.16500 119244.000000
7731 14535 1 0.16500 119244.000000
7732 13720 1 0.16500 119244.000000
7732 14777 1 0.16500 119244.000000
7733 13720 1 0.16500 119244.000000
7733 15965 1 0.16500 119244.000000
7734 13720 1 0.16500 119244.000000
7734 15647 1 0.16500 119244.000000
7735 13721 1 0.16500 119244.000000
7735 15921 1 0.16500 119244.000000
7736 13721 1 0.16500 119244.000000
7736 14770 1 0.16500 119244.000000
7737 13721 1 0.16500 119244.000000
7737 14047 1 0.16500 119244.000000
7738 13722 1 0.16500 119244.000000
7738 14941 1 0.16500 119244.000000
7739 13401 1 0.16500 119244.000000
7739 14742 1 0.16500 119244.000000
7740 11573 1 0.16500 119244.000000
7740 13722 1 0.16500 119244.000000
7741 13723 1 0.16500 119244.000000
7741 21886 1 0.16500 119244.000000
7742 13723 1 0.16500 119244.000000
7742 19306 1 0.16500 119244.000000
7743 13723 1 0.16500 119244.000000
7743 14494 1 0.16500 119244.000000
7744 13723 1 0.16500 119244.000000
7744 15687 1 0.16500 119244.000000
7745 13724 1 0.16500 119244.000000
7745 15997 1 0.16500 119244.000000
7746 13725 1 0.16500 119244.000000
7746 15347 1 0.16500 119244.000000
7747 13725 1 0.16500 119244.000000
7747 14611 1 0.16500 119244.000000
7748 13725 1 0.16500 119244.000000
7748 14394 1 0.16500 119244.000000
7749 13725 1 0.16500 119244.000000
7749 15515 1 0.16500 119244.000000
7750 13727 1 0.16500 119244.000000
7750 15952 1 0.16500 119244.000000
7751 13727 1 0.16500 119244.000000
7751 15296 1 0.16500 119244.000000
7752 13728 1 0.16500 119244.000000
7752 16010 1 0.16500 119244.000000
7753 13728 1 0.16500 119244.000000
7753 15672 1 0.16500 119244.000000
7754 13728 1 0.16500 119244.000000
7754 15955 1 0.16500 119244.000000
7755 13729 1 0.16500 119244.000000
7755 16550 1 0.16500 119244.000000
7756 13729 1 0.16500 119244.000000
7756 15302 1 0.16500 119244.000000
7757 13729 1 0.16500 119244.000000
7757 16521 1 0.16500 119244.000000
7758 13730 1 0.16500 119244.000000
7758 15967 1 0.16500 119244.000000
7759 12522 1 0.16500 119244.000000
7759 16468 1 0.16500 119244.000000
7760 13731 1 0.16500 119244.000000
7760 15735 1 0.16500 119244.000000
7761 12730 1 0.16500 119244.000000
7761 16180 1 0.16500 119244.000000
7762 13733 1 0.16500 119244.000000
7762 13905 1 0.16500 119244.000000
7763 13905 1 0.16500 119244.000000
7763 19150 1 0.16500 119244.000000
7764 13733 1 0.16500 119244.000000
7764 15914 1 0.16500 119244.000000
7765 11777 1 0.16500 119244.000000
7765 16586 1 0.16500 119244.000000
7766 13734 1 0.16500 119244.000000
7766 15221 1 0.16500 119244.000000
7767 13734 1 0.16500 119244.000000
7767 14733 1 0.16500 119244.000000
7768 13735 1 0.16500 119244.000000
7768 14868 1 0.16500 119244.000000
7769 14998 1 0.16500 119244.000000
7769 21565 1 0.16500 119244.000000
7770 14272 1 0.16500 119244.000000
7770 21565 1 0.16500 119244.000000
7771 13736 1 0.16500 119244.000000
7771 16283 1 0.16500 119244.000000
7772 13736 1 0.16500 119244.000000
7772 21691 1 0.16500 119244.000000
7773 11550 1 0.16500 119244.000000
7773 13736 1 0.16500 119244.000000
7774 14576 1 0.16500 119244.000000
7774 15732 1 0.16500 119244.000000
7775 13737 1 0.16500 119244.000000
7775 14853 1 0.16500 119244.000000
7776 13737 1 0.16500 119244.000000
7776 15732 1 0.16500 119244.000000
7777 13738 1 0.16500 119244.000000
7777 13809 1 0.16500 119244.000000
7778 13739 1 0.16500 119244.000000
7778 16409 1 0.16500 119244.000000
7779 13739 1 0.16500 119244.000000
7779 14406 1 0.16500 119244.000000
7780 13740 1 0.16500 119244.000000
7780 15211 1 0.16500 119244.000000
7781 13547 1 0.16500 119244.000000
7781 14999 1 0.16500 119244.000000
7782 13740 1 0.16500 119244.000000
7782 16414 1 0.16500 119244.000000
7783 13222 1 0.16500 119244.000000
7783 19150 1 0.16500 119244.000000
7784 14539 1 0.16500 119244.000000
7784 16313 1 0.16500 119244.000000
7785 14539 1 0.16500 119244.000000
7785 19150 1 0.16500 119244.000000
7786 13741 1 0.16500 119244.000000
7786 14373 1 0.16500 119244.000000
7787 13741 1 0.16500 119244.000000
7787 15601 1 0.16500 119244.000000
7788 13742 1 0.16500 119244.000000
7788 14802 1 0.16500 119244.000000
7789 13742 1 0.16500 119244.000000
7789 16084 1 0.16500 119244.000000
7790 13742 1 0.16500 119244.000000
7790 16586 1 0.16500 119244.000000
7791 13743 1 0.16500 119244.000000
7791 15236 1 0.16500 119244.000000
7792 13744 1 0.16500 119244.000000
7792 15587 1 0.16500 119244.000000
7793 13745 1 0.16500 119244.000000
7793 15231 1 0.16500 119244.000000
7794 13745 1 0.16500 119244.000000
7794 16574 1 0.16500 119244.000000
7795 13745 1 0.16500 119244.000000
7795 14881 1 0.16500 119244.000000
7796 13746 1 0.16500 119244.000000
7796 16250 1 0.16500 119244.000000
7797 13746 1 0.16500 119244.000000
7797 14177 1 0.16500 119244.000000
7798 13748 1 0.16500 119244.000000
7798 16198 1 0.16500 119244.000000
7799 13748 1 0.16500 119244.000000
7799 14148 1 0.16500 119244.000000
7800 19234 1 0.16500 119244.000000
7800 21568 1 0.16500 119244.000000
7801 13749 1 0.16500 119244.000000
7801 15429 1 0.16500 119244.000000
7802 13749 1 0.16500 119244.000000
7802 16219 1 0.16500 119244.000000
7803 13750 1 0.16500 119244.000000
7803 14326 1 0.16500 119244.000000
7804 13751 1 0.16500 119244.000000
7804 15355 1 0.16500 119244.000000
7805 18934 1 0.16500 119244.000000
7805 20974 1 0.16500 119244.000000
7806 16049 1 0.16500 119244.000000
7806 20974 1 0.16500 119244.000000
7807 13752 1 0.16500 119244.000000
7807 21712 1 0.16500 119244.000000
7808 13753 1 0.16500 119244.000000
7808 15035 1 0.16500 119244.000000
7809 13753 1 0.16500 119244.000000
7809 13975 1 0.16500 119244.000000
7810 13753 1 0.16500 119244.000000
7810 14963 1 0.16500 119244.000000
7811 13753 1 0.16500 119244.000000
7811 15679 1 0.16500 119244.000000
7812 14024 1 0.16500 119244.000000
7812 16770 1 0.16500 119244.000000
7813 16770 1 0.16500 119244.000000
7813 17806 1 0.16500 119244.000000
7814 13754 1 0.16500 119244.000000
7814 15797 1 0.16500 119244.000000
7815 13754 1 0.16500 119244.000000
7815 13840 1 0.16500 119244.000000
7816 13755 1 0.16500 119244.000000
7816 15843 1 0.16500 119244.000000
7817 13755 1 0.16500 119244.000000
7817 15407 1 0.16500 119244.000000
7818 19054 1 0.16500 119244.000000
7818 21877 1 0.16500 119244.000000
7819 15907 1 0.16500 119244.000000
7819 19054 1 0.16500 119244.000000
7820 12312 1 0.16500 119244.000000
7820 15289 1 0.16500 119244.000000
7821 13757 1 0.16500 119244.000000
7821 15629 1 0.16500 119244.000000
7822 13757 1 0.16500 119244.000000
7822 15264 1 0.16500 119244.000000
7823 13758 1 0.16500 119244.000000
7823 14105 1 0.16500 119244.000000
7824 13758 1 0.16500 119244.000000
7824 16557 1 0.16500 119244.000000
7825 13758 1 0.16500 119244.000000
7825 15928 1 0.16500 119244.000000
7826 13760 1 0.16500 119244.000000
7826 16176 1 0.16500 119244.000000
7827 13760 1 0.16500 119244.000000
7827 16545 1 0.16500 119244.000000
7828 13761 1 0.16500 119244.000000
7828 16334 1 0.16500 119244.000000
7829 13761 1 0.16500 119244.000000
7829 16180 1 0.16500 119244.000000
7830 13762 1 0.16500 119244.000000
7830 16623 1 0.16500 119244.000000
7831 13762 1 0.16500 119244.000000
7831 15099 1 0.16500 119244.000000
7832 16379 1 0.16500 119244.000000
7832 16601 1 0.16500 119244.000000
7833 13763 1 0.16500 119244.000000
7833 16601 1 0.16500 119244.000000
7834 13764 1 0.16500 119244.000000
7834 14904 1 0.16500 119244.000000
7835 13764 1 0.16500 119244.000000
7835 15095 1 0.16500 119244.000000
7836 13764 1 0.16500 119244.000000
7836 14765 1 0.16500 119244.000000
7837 13765 1 0.16500 119244.000000
7837 14550 1 0.16500 119244.000000
7838 13765 1 0.16500 119244.000000
7838 14774 1 0.16500 119244.000000
7839 13766 1 0.16500 119244.000000
7839 14096 1 0.16500 119244.000000
7840 13767 1 0.16500 119244.000000
7840 14571 1 0.16500 119244.000000
7841 13767 1 0.16500 119244.000000
7841 13868 1 0.16500 119244.000000
7842 21571 1 0.16500 119244.000000
7842 21646 1 0.16500 119244.000000
7843 19126 1 0.16500 119244.000000
7843 21850 1 0.16500 119244.000000
7844 13794 1 0.16500 119244.000000
7844 19126 1 0.16500 119244.000000
7845 16264 1 0.16500 119244.000000
7845 19126 1 0.16500 119244.000000
7846 13768 1 0.16500 119244.000000
7846 14781 1 0.16500 119244.000000
7847 13768 1 0.16500 119244.000000
7847 13769 1 0.16500 119244.000000
7848 13769 1 0.16500 119244.000000
7848 14649 1 0.16500 119244.000000
7849 13769 1 0.16500 119244.000000
7849 15565 1 0.16500 119244.000000
7850 13770 1 0.16500 119244.000000
7850 14684 1 0.16500 119244.000000
7851 15657 1 0.16500 119244.000000
7851 20710 1 0.16500 119244.000000
7852 13770 1 0.16500 119244.000000
7852 15657 1 0.16500 119244.000000
7853 13771 1 0.16500 119244.000000
7853 16034 1 0.16500 119244.000000
7854 13772 1 0.16500 119244.000000
7854 15325 1 0.16500 119244.000000
7855 13772 1 0.16500 119244.000000
7855 13798 1 0.16500 119244.000000
7856 13773 1 0.16500 119244.000000
7856 15678 1 0.16500 119244.000000
7857 13773 1 0.16500 119244.000000
7857 14403 1 0.16500 119244.000000
7858 13773 1 0.16500 119244.000000
7858 16153 1 0.16500 119244.000000
7859 13774 1 0.16500 119244.000000
7859 13898 1 0.16500 119244.000000
7860 13775 1 0.16500 119244.000000
7860 13937 1 0.16500 119244.000000
7861 13775 1 0.16500 119244.000000
7861 15809 1 0.16500 119244.000000
7862 13776 1 0.16500 119244.000000
7862 14702 1 0.16500 119244.000000
7863 13776 1 0.16500 119244.000000
7863 16301 1 0.16500 119244.000000
7864 13776 1 0.16500 119244.000000
7864 16583 1 0.16500 119244.000000
7865 13197 1 0.16500 119244.000000
7865 13777 1 0.16500 119244.000000
7866 13777 1 0.16500 119244.000000
7866 14555 1 0.16500 119244.000000
7867 13777 1 0.16500 119244.000000
7867 14387 1 0.16500 119244.000000
7868 13777 1 0.16500 119244.000000
7868 16540 1 0.16500 119244.000000
7869 13779 1 0.16500 119244.000000
7869 16182 1 0.16500 119244.000000
7870 13779 1 0.16500 119244.000000
7870 13826 1 0.16500 119244.000000
7871 13780 1 0.16500 119244.000000
7871 15405 1 0.16500 119244.000000
7872 13780 1 0.16500 119244.000000
7872 14517 1 0.16500 119244.000000
7873 13781 1 0.16500 119244.000000
7873 15562 1 0.16500 119244.000000
7874 13781 1 0.16500 119244.000000
7874 16106 1 0.16500 119244.000000
7875 13782 1 0.16500 119244.000000
7875 14664 1 0.16500 119244.000000
7876 13782 1 0.16500 119244.000000
7876 14086 1 0.16500 119244.000000
7877 13782 1 0.16500 119244.000000
7877 15965 1 0.16500 119244.000000
7878 13350 1 0.16500 119244.000000
7878 13783 1 0.16500 119244.000000
7879 13783 1 0.16500 119244.000000
7879 15592 1 0.16500 119244.000000
7880 13783 1 0.16500 119244.000000
7880 16255 1 0.16500 119244.000000
7881 13784 1 0.16500 119244.000000
7881 15976 1 0.16500 119244.000000
7882 13784 1 0.16500 119244.000000
7882 16277 1 0.16500 119244.000000
7883 13785 1 0.16500 119244.000000
7883 15190 1 0.16500 119244.000000
7884 13785 1 0.16500 119244.000000
7884 15619 1 0.16500 119244.000000
7885 13785 1 0.16500 119244.000000
7885 13875 1 0.16500 119244.000000
7886 13786 1 0.16500 119244.000000
7886 15829 1 0.16500 119244.000000
7887 13786 1 0.16500 119244.000000
7887 15878 1 0.16500 119244.000000
7888 13786 1 0.16500 119244.000000
7888 15134 1 0.16500 119244.000000
7889 13787 1 0.16500 119244.000000
7889 16440 1 0.16500 119244.000000
7890 13787 1 0.16500 119244.000000
7890 16033 1 0.16500 119244.000000
7891 13787 1 0.16500 119244.000000
7891 14751 1 0.16500 119244.000000
7892 13788 1 0.16500 119244.000000
7892 14237 1 0.16500 119244.000000
7893 13788 1 0.16500 119244.000000
7893 15219 1 0.16500 119244.000000
7894 13788 1 0.16500 119244.000000
7894 13807 1 0.16500 119244.000000
7895 13789 1 0.16500 119244.000000
7895 16097 1 0.16500 119244.000000
7896 13789 1 0.16500 119244.000000
7896 16153 1 0.16500 119244.000000
7897 13789 1 0.16500 119244.000000
7897 20194 1 0.16500 119244.000000
7898 13790 1 0.16500 119244.000000
7898 14386 1 0.16500 119244.000000
7899 13790 1 0.16500 119244.000000
7899 14731 1 0.16500 119244.000000
7900 13790 1 0.16500 119244.000000
7900 15613 1 0.16500 119244.000000
7901 13791 1 0.16500 119244.000000
7901 14520 1 0.16500 119244.000000
7902 13792 1 0.16500 119244.000000
7902 16343 1 0.16500 119244.000000
7903 13792 1 0.16500 119244.000000
7903 14286 1 0.16500 119244.000000
7904 13793 1 0.16500 119244.000000
7904 16199 1 0.16500 119244.000000
7905 13793 1 0.16500 119244.000000
7905 14160 1 0.16500 119244.000000
7906 13795 1 0.16500 119244.000000
7906 14647 1 0.16500 119244.000000
7907 13795 1 0.16500 119244.000000
7907 14111 1 0.16500 119244.000000
7908 18634 1 0.16500 119244.000000
7908 19366 1 0.16500 119244.000000
7909 13796 1 0.16500 119244.000000
7909 16358 1 0.16500 119244.000000
7910 13796 1 0.16500 119244.000000
7910 13936 1 0.16500 119244.000000
7911 13797 1 0.16500 119244.000000
7911 16368 1 0.16500 119244.000000
7912 13797 1 0.16500 119244.000000
7912 15039 1 0.16500 119244.000000
7913 13798 1 0.16500 119244.000000
7913 14016 1 0.16500 119244.000000
7914 13798 1 0.16500 119244.000000
7914 14816 1 0.16500 119244.000000
7915 13798 1 0.16500 119244.000000
7915 16071 1 0.16500 119244.000000
7916 13799 1 0.16500 119244.000000
7916 16231 1 0.16500 119244.000000
7917 13799 1 0.16500 119244.000000
7917 16020 1 0.16500 119244.000000
7918 13800 1 0.16500 119244.000000
7918 15330 1 0.16500 119244.000000
7919 13800 1 0.16500 119244.000000
7919 14520 1 0.16500 119244.000000
7920 13800 1 0.16500 119244.000000
7920 15639 1 0.16500 119244.000000
7921 13801 1 0.16500 119244.000000
7921 14911 1 0.16500 119244.000000
7922 13801 1 0.16500 119244.000000
7922 14267 1 0.16500 119244.000000
7923 13802 1 0.16500 119244.000000
7923 15105 1 0.16500 119244.000000
7924 13802 1 0.16500 119244.000000
7924 16094 1 0.16500 119244.000000
7925 13802 1 0.16500 119244.000000
7925 13859 1 0.16500 119244.000000
7926 13803 1 0.16500 119244.000000
7926 15507 1 0.16500 119244.000000
7927 13804 1 0.16500 119244.000000
7927 16589 1 0.16500 119244.000000
7928 13804 1 0.16500 119244.000000
7928 14341 1 0.16500 119244.000000
7929 13805 1 0.16500 119244.000000
7929 16410 1 0.16500 119244.000000
7930 13805 1 0.16500 119244.000000
7930 15304 1 0.16500 119244.000000
7931 13805 1 0.16500 119244.000000
7931 13871 1 0.16500 119244.000000
7932 16021 1 0.16500 119244.000000
7932 18502 1 0.16500 119244.000000
7933 18502 1 0.16500 119244.000000
7933 20350 1 0.16500 119244.000000
7934 13806 1 0.16500 119244.000000
7934 16273 1 0.16500 119244.000000
7935 13806 1 0.16500 119244.000000
7935 15753 1 0.16500 119244.000000
7936 13806 1 0.16500 119244.000000
7936 14331 1 0.16500 119244.000000
7937 13807 1 0.16500 119244.000000
7937 15818 1 0.16500 119244.000000
7938 13807 1 0.16500 119244.000000
7938 14191 1 0.16500 119244.000000
7939 13807 1 0.16500 119244.000000
7939 14865 1 0.16500 119244.000000
7940 13808 1 0.16500 119244.000000
7940 16514 1 0.16500 119244.000000
7941 13808 1 0.16500 119244.000000
7941 14771 1 0.16500 119244.000000
7942 13809 1 0.16500 119244.000000
7942 15314 1 0.16500 119244.000000
7943 13810 1 0.16500 119244.000000
7943 14127 1 0.16500 119244.000000
7944 13810 1 0.16500 119244.000000
7944 15924 1 0.16500 119244.000000
7945 14722 1 0.16500 119244.000000
7945 21574 1 0.16500 119244.000000
7946 13811 1 0.16500 119244.000000
7946 14409 1 0.16500 119244.000000
7947 13811 1 0.16500 119244.000000
7947 15530 1 0.16500 119244.000000
7948 13811 1 0.16500 119244.000000
7948 13993 1 0.16500 119244.000000
7949 13812 1 0.16500 119244.000000
7949 15943 1 0.16500 119244.000000
7950 13813 1 0.16500 119244.000000
7950 15139 1 0.16500 119244.000000
7951 13814 1 0.16500 119244.000000
7951 16348 1 0.16500 119244.000000
7952 13814 1 0.16500 119244.000000
7952 15203 1 0.16500 119244.000000
7953 12904 1 0.16500 119244.000000
7953 13814 1 0.16500 119244.000000
7954 13815 1 0.16500 119244.000000
7954 16449 1 0.16500 119244.000000
7955 13816 1 0.16500 119244.000000
7955 16422 1 0.16500 119244.000000
7956 21577 1 0.16500 119244.000000
7956 21844 1 0.16500 119244.000000
7957 13817 1 0.16500 119244.000000
7957 16346 1 0.16500 119244.000000
7958 13817 1 0.16500 119244.000000
7958 14284 1 0.16500 119244.000000
7959 13817 1 0.16500 119244.000000
7959 15480 1 0.16500 119244.000000
7960 13818 1 0.16500 119244.000000
7960 15150 1 0.16500 119244.000000
7961 13818 1 0.16500 119244.000000
7961 16461 1 0.16500 119244.000000
7962 13819 1 0.16500 119244.000000
7962 16541 1 0.16500 119244.000000
7963 13820 1 0.16500 119244.000000
7963 15895 1 0.16500 119244.000000
7964 13820 1 0.16500 119244.000000
7964 15630 1 0.16500 119244.000000
7965 13820 1 0.16500 119244.000000
7965 16120 1 0.16500 119244.000000
7966 13820 1 0.16500 119244.000000
7966 15511 1 0.16500 119244.000000
7967 13821 1 0.16500 119244.000000
7967 15547 1 0.16500 119244.000000
7968 13821 1 0.16500 119244.000000
7968 14026 1 0.16500 119244.000000
7969 13823 1 0.16500 119244.000000
7969 15162 1 0.16500 119244.000000
7970 13823 1 0.16500 119244.000000
7970 15211 1 0.16500 119244.000000
7971 13823 1 0.16500 119244.000000
7971 14940 1 0.16500 119244.000000
7972 16445 1 0.16500 119244.000000
7972 16482 1 0.16500 119244.000000
7973 14624 1 0.16500 119244.000000
7973 16445 1 0.16500 119244.000000
7974 13824 1 0.16500 119244.000000
7974 16445 1 0.16500 119244.000000
7975 13825 1 0.16500 119244.000000
7975 15877 1 0.16500 119244.000000
7976 13825 1 0.16500 119244.000000
7976 14703 1 0.16500 119244.000000
7977 13826 1 0.16500 119244.000000
7977 14509 1 0.16500 119244.000000
7978 13827 1 0.16500 119244.000000
7978 18622 1 0.16500 119244.000000
7979 13827 1 0.16500 119244.000000
7979 15628 1 0.16500 119244.000000
7980 13827 1 0.16500 119244.000000
7980 18030 1 0.16500 119244.000000
7981 13828 1 0.16500 119244.000000
7981 19030 1 0.16500 119244.000000
7982 13829 1 0.16500 119244.000000
7982 16216 1 0.16500 119244.000000
7983 13829 1 0.16500 119244.000000
7983 15728 1 0.16500 119244.000000
7984 13830 1 0.16500 119244.000000
7984 16546 1 0.16500 119244.000000
7985 13830 1 0.16500 119244.000000
7985 14758 1 0.16500 119244.000000
7986 13831 1 0.16500 119244.000000
7986 14984 1 0.16500 119244.000000
7987 13831 1 0.16500 119244.000000
7987 15579 1 0.16500 119244.000000
7988 13831 1 0.16500 119244.000000
7988 16505 1 0.16500 119244.000000
7989 13832 1 0.16500 119244.000000
7989 14295 1 0.16500 119244.000000
7990 13832 1 0.16500 119244.000000
7990 21118 1 0.16500 119244.000000
7991 13832 1 0.16500 119244.000000
7991 21928 1 0.16500 119244.000000
7992 13833 1 0.16500 119244.000000
7992 15349 1 0.16500 119244.000000
7993 13833 1 0.16500 119244.000000
7993 14387 1 0.16500 119244.000000
7994 13834 1 0.16500 119244.000000
7994 15945 1 0.16500 119244.000000
7995 13835 1 0.16500 119244.000000
7995 14906 1 0.16500 119244.000000
7996 13835 1 0.16500 119244.000000
7996 14837 1 0.16500 119244.000000
7997 13835 1 0.16500 119244.000000
7997 15774 1 0.16500 119244.000000
7998 13836 1 0.16500 119244.000000
7998 16004 1 0.16500 119244.000000
7999 13836 1 0.16500 119244.000000
7999 14081 1 0.16500 119244.000000
8000 13836 1 0.16500 119244.000000
8000 14776 1 0.16500 119244.000000
8001 13838 1 0.16500 119244.000000
8001 14548 1 0.16500 119244.000000
8002 13838 1 0.16500 119244.000000
8002 14588 1 0.16500 119244.000000
8003 13838 1 0.16500 119244.000000
8003 15841 1 0.16500 119244.000000
8004 13839 1 0.16500 119244.000000
8004 14962 1 0.16500 119244.000000
8005 13839 1 0.16500 119244.000000
8005 15201 1 0.16500 119244.000000
8006 13839 1 0.16500 119244.000000
8006 16062 1 0.16500 119244.000000
8007 13839 1 0.16500 119244.000000
8007 14082 1 0.16500 119244.000000
8008 13840 1 0.16500 119244.000000
8008 15682 1 0.16500 119244.000000
8009 13840 1 0.16500 119244.000000
8009 14630 1 0.16500 119244.000000
8010 13841 1 0.16500 119244.000000
8010 14004 1 0.16500 119244.000000
8011 13841 1 0.16500 119244.000000
8011 20014 1 0.16500 119244.000000
8012 13842 1 0.16500 119244.000000
8012 15839 1 0.16500 119244.000000
8013 13842 1 0.16500 119244.000000
8013 16331 1 0.16500 119244.000000
8014 13623 1 0.16500 119244.000000
8014 13843 1 0.16500 119244.000000
8015 13844 1 0.16500 119244.000000
8015 16266 1 0.16500 119244.000000
8016 13844 1 0.16500 119244.000000
8016 14310 1 0.16500 119244.000000
8017 13844 1 0.16500 119244.000000
8017 16560 1 0.16500 119244.000000
8018 13844 1 0.16500 119244.000000
8018 14801 1 0.16500 119244.000000
8019 13845 1 0.16500 119244.000000
8019 15508 1 0.16500 119244.000000
8020 13845 1 0.16500 119244.000000
8020 16537 1 0.16500 119244.000000
8021 13845 1 0.16500 119244.000000
8021 14440 1 0.16500 119244.000000
8022 13141 1 0.16500 119244.000000
8022 13845 1 0.16500 119244.000000
8023 13846 1 0.16500 119244.000000
8023 15391 1 0.16500 119244.000000
8024 13846 1 0.16500 119244.000000
8024 14931 1 0.16500 119244.000000
8025 13847 1 0.16500 119244.000000
8025 16460 1 0.16500 119244.000000
8026 13847 1 0.16500 119244.000000
8026 15913 1 0.16500 119244.000000
8027 13847 1 0.16500 119244.000000
8027 15355 1 0.16500 119244.000000
8028 13848 1 0.16500 119244.000000
8028 16304 1 0.16500 119244.000000
8029 13849 1 0.16500 119244.000000
8029 13976 1 0.16500 119244.000000
8030 13849 1 0.16500 119244.000000
8030 16565 1 0.16500 119244.000000
8031 13849 1 0.16500 119244.000000
8031 14190 1 0.16500 119244.000000
8032 13849 1 0.16500 119244.000000
8032 15823 1 0.16500 119244.000000
8033 13850 1 0.16500 119244.000000
8033 14374 1 0.16500 119244.000000
8034 13850 1 0.16500 119244.000000
8034 14409 1 0.16500 119244.000000
8035 13850 1 0.16500 119244.000000
8035 14877 1 0.16500 119244.000000
8036 13851 1 0.16500 119244.000000
8036 14500 1 0.16500 119244.000000
8037 13851 1 0.16500 119244.000000
8037 15152 1 0.16500 119244.000000
8038 13852 1 0.16500 119244.000000
8038 15711 1 0.16500 119244.000000
8039 13852 1 0.16500 119244.000000
8039 15600 1 0.16500 119244.000000
8040 13853 1 0.16500 119244.000000
8040 15333 1 0.16500 119244.000000
8041 13853 1 0.16500 119244.000000
8041 14112 1 0.16500 119244.000000
8042 13854 1 0.16500 119244.000000
8042 13956 1 0.16500 119244.000000
8043 17498 1 0.16500 119244.000000
8043 19618 1 0.16500 119244.000000
8044 19618 1 0.16500 119244.000000
8044 21802 1 0.16500 119244.000000
8045 13855 1 0.16500 119244.000000
8045 18352 1 0.16500 119244.000000
8046 13856 1 0.16500 119244.000000
8046 16420 1 0.16500 119244.000000
8047 13857 1 0.16500 119244.000000
8047 15747 1 0.16500 119244.000000
8048 13857 1 0.16500 119244.000000
8048 15751 1 0.16500 119244.000000
8049 13858 1 0.16500 119244.000000
8049 15171 1 0.16500 119244.000000
8050 13858 1 0.16500 119244.000000
8050 15863 1 0.16500 119244.000000
8051 13859 1 0.16500 119244.000000
8051 14434 1 0.16500 119244.000000
8052 13859 1 0.16500 119244.000000
8052 13910 1 0.16500 119244.000000
8053 13861 1 0.16500 119244.000000
8053 15335 1 0.16500 119244.000000
8054 13861 1 0.16500 119244.000000
8054 20074 1 0.16500 119244.000000
8055 13862 1 0.16500 119244.000000
8055 15028 1 0.16500 119244.000000
8056 13862 1 0.16500 119244.000000
8056 14442 1 0.16500 119244.000000
8057 11783 1 0.16500 119244.000000
8057 13862 1 0.16500 119244.000000
8058 19990 1 0.16500 119244.000000
8058 21583 1 0.16500 119244.000000
8059 15420 1 0.16500 119244.000000
8059 21583 1 0.16500 119244.000000
8060 13863 1 0.16500 119244.000000
8060 15414 1 0.16500 119244.000000
8061 13863 1 0.16500 119244.000000
8061 14659 1 0.16500 119244.000000
8062 13864 1 0.16500 119244.000000
8062 14829 1 0.16500 119244.000000
8063 13865 1 0.16500 119244.000000
8063 15813 1 0.16500 119244.000000
8064 13866 1 0.16500 119244.000000
8064 16079 1 0.16500 119244.000000
8065 13866 1 0.16500 119244.000000
8065 16179 1 0.16500 119244.000000
8066 13866 1 0.16500 119244.000000
8066 14435 1 0.16500 119244.000000
8067 15944 1 0.16500 119244.000000
8067 16784 1 0.16500 119244.000000
8068 13867 1 0.16500 119244.000000
8068 14104 1 0.16500 119244.000000
8069 13867 1 0.16500 119244.000000
8069 15512 1 0.16500 119244.000000
8070 13868 1 0.16500 119244.000000
8070 15114 1 0.16500 119244.000000
8071 13868 1 0.16500 119244.000000
8071 14329 1 0.16500 119244.000000
8072 13869 1 0.16500 119244.000000
8072 15506 1 0.16500 119244.000000
8073 13870 1 0.16500 119244.000000
8073 16399 1 0.16500 119244.000000
8074 13871 1 0.16500 119244.000000
8074 15120 1 0.16500 119244.000000
8075 13872 1 0.16500 119244.000000
8075 14264 1 0.16500 119244.000000
8076 13872 1 0.16500 119244.000000
8076 15006 1 0.16500 119244.000000
8077 13872 1 0.16500 119244.000000
8077 15689 1 0.16500 119244.000000
8078 13873 1 0.16500 119244.000000
8078 14066 1 0.16500 119244.000000
8079 13873 1 0.16500 119244.000000
8079 15214 1 0.16500 119244.000000
8080 13873 1 0.16500 119244.000000
8080 14891 1 0.16500 119244.000000
8081 16613 1 0.16500 119244.000000
8081 19318 1 0.16500 119244.000000
8082 13874 1 0.16500 119244.000000
8082 15467 1 0.16500 119244.000000
8083 13874 1 0.16500 119244.000000
8083 15056 1 0.16500 119244.000000
8084 13514 1 0.16500 119244.000000
8084 14298 1 0.16500 119244.000000
8085 13875 1 0.16500 119244.000000
8085 15298 1 0.16500 119244.000000
8086 13875 1 0.16500 119244.000000
8086 14739 1 0.16500 119244.000000
8087 13876 1 0.16500 119244.000000
8087 15221 1 0.16500 119244.000000
8088 13876 1 0.16500 119244.000000
8088 15164 1 0.16500 119244.000000
8089 13877 1 0.16500 119244.000000
8089 14497 1 0.16500 119244.000000
8090 12600 1 0.16500 119244.000000
8090 13877 1 0.16500 119244.000000
8091 19138 1 0.16500 119244.000000
8091 19522 1 0.16500 119244.000000
8092 14820 1 0.16500 119244.000000
8092 19522 1 0.16500 119244.000000
8093 19522 1 0.16500 119244.000000
8093 22004 1 0.16500 119244.000000
8094 13878 1 0.16500 119244.000000
8094 14237 1 0.16500 119244.000000
8095 13878 1 0.16500 119244.000000
8095 17834 1 0.16500 119244.000000
8096 13879 1 0.16500 119244.000000
8096 15772 1 0.16500 119244.000000
8097 13879 1 0.16500 119244.000000
8097 17890 1 0.16500 119244.000000
8098 13880 1 0.16500 119244.000000
8098 16088 1 0.16500 119244.000000
8099 15660 1 0.16500 119244.000000
8099 16006 1 0.16500 119244.000000
8100 13880 1 0.16500 119244.000000
8100 14092 1 0.16500 119244.000000
8101 13880 1 0.16500 119244.000000
8101 16006 1 0.16500 119244.000000
8102 13881 1 0.16500 119244.000000
8102 14863 1 0.16500 119244.000000
8103 13881 1 0.16500 119244.000000
8103 15988 1 0.16500 119244.000000
8104 13881 1 0.16500 119244.000000
8104 13988 1 0.16500 119244.000000
8105 14404 1 0.16500 119244.000000
8105 15786 1 0.16500 119244.000000
8106 13883 1 0.16500 119244.000000
8106 14404 1 0.16500 119244.000000
8107 13885 1 0.16500 119244.000000
8107 15698 1 0.16500 119244.000000
8108 13886 1 0.16500 119244.000000
8108 14800 1 0.16500 119244.000000
8109 13886 1 0.16500 119244.000000
8109 15970 1 0.16500 119244.000000
8110 13886 1 0.16500 119244.000000
8110 16436 1 0.16500 119244.000000
8111 13887 1 0.16500 119244.000000
8111 21703 1 0.16500 119244.000000
8112 13887 1 0.16500 119244.000000
8112 15966 1 0.16500 119244.000000
8113 13888 1 0.16500 119244.000000
8113 15429 1 0.16500 119244.000000
8114 13888 1 0.16500 119244.000000
8114 13896 1 0.16500 119244.000000
8115 12206 1 0.16500 119244.000000
8115 15323 1 0.16500 119244.000000
8116 13889 1 0.16500 119244.000000
8116 16478 1 0.16500 119244.000000
8117 13890 1 0.16500 119244.000000
8117 15169 1 0.16500 119244.000000
8118 13890 1 0.16500 119244.000000
8118 15419 1 0.16500 119244.000000
8119 13891 1 0.16500 119244.000000
8119 16174 1 0.16500 119244.000000
8120 13891 1 0.16500 119244.000000
8120 15844 1 0.16500 119244.000000
8121 13891 1 0.16500 119244.000000
8121 16104 1 0.16500 119244.000000
8122 13499 1 0.16500 119244.000000
8122 13892 1 0.16500 119244.000000
8123 13893 1 0.16500 119244.000000
8123 16066 1 0.16500 119244.000000
8124 13893 1 0.16500 119244.000000
8124 16242 1 0.16500 119244.000000
8125 13894 1 0.16500 119244.000000
8125 14106 1 0.16500 119244.000000
8126 13894 1 0.16500 119244.000000
8126 16140 1 0.16500 119244.000000
8127 13895 1 0.16500 119244.000000
8127 16505 1 0.16500 119244.000000
8128 13895 1 0.16500 119244.000000
8128 15427 1 0.16500 119244.000000
8129 13895 1 0.16500 119244.000000
8129 14300 1 0.16500 119244.000000
8130 13896 1 0.16500 119244.000000
8130 16219 1 0.16500 119244.000000
8131 13896 1 0.16500 119244.000000
8131 14562 1 0.16500 119244.000000
8132 13897 1 0.16500 119244.000000
8132 14641 1 0.16500 119244.000000
8133 13897 1 0.16500 119244.000000
8133 16417 1 0.16500 119244.000000
8134 13898 1 0.16500 119244.000000
8134 15060 1 0.16500 119244.000000
8135 13898 1 0.16500 119244.000000
8135 15047 1 0.16500 119244.000000
8136 13899 1 0.16500 119244.000000
8136 13922 1 0.16500 119244.000000
8137 13899 1 0.16500 119244.000000
8137 14705 1 0.16500 119244.000000
8138 13899 1 0.16500 119244.000000
8138 15706 1 0.16500 119244.000000
8139 13900 1 0.16500 119244.000000
8139 16315 1 0.16500 119244.000000
8140 13900 1 0.16500 119244.000000
8140 15578 1 0.16500 119244.000000
8141 13900 1 0.16500 119244.000000
8141 15403 1 0.16500 119244.000000
8142 15995 1 0.16500 119244.000000
8142 21586 1 0.16500 119244.000000
8143 13901 1 0.16500 119244.000000
8143 14949 1 0.16500 119244.000000
8144 13901 1 0.16500 119244.000000
8144 14977 1 0.16500 119244.000000
8145 13902 1 0.16500 119244.000000
8145 16194 1 0.16500 119244.000000
8146 13903 1 0.16500 119244.000000
8146 14937 1 0.16500 119244.000000
8147 13903 1 0.16500 119244.000000
8147 16202 1 0.16500 119244.000000
8148 14354 1 0.16500 119244.000000
8148 16017 1 0.16500 119244.000000
8149 13904 1 0.16500 119244.000000
8149 16017 1 0.16500 119244.000000
8150 13733 1 0.16500 119244.000000
8150 15777 1 0.16500 119244.000000
8151 13906 1 0.16500 119244.000000
8151 14031 1 0.16500 119244.000000
8152 13906 1 0.16500 119244.000000
8152 15582 1 0.16500 119244.000000
8153 14909 1 0.16500 119244.000000
8153 19294 1 0.16500 119244.000000
8154 13907 1 0.16500 119244.000000
8154 15110 1 0.16500 119244.000000
8155 13907 1 0.16500 119244.000000
8155 15247 1 0.16500 119244.000000
8156 15110 1 0.16500 119244.000000
8156 15575 1 0.16500 119244.000000
8157 13907 1 0.16500 119244.000000
8157 14385 1 0.16500 119244.000000
8158 13908 1 0.16500 119244.000000
8158 14834 1 0.16500 119244.000000
8159 13908 1 0.16500 119244.000000
8159 16463 1 0.16500 119244.000000
8160 13909 1 0.16500 119244.000000
8160 16622 1 0.16500 119244.000000
8161 11740 1 0.16500 119244.000000
8161 14614 1 0.16500 119244.000000
8162 11740 1 0.16500 119244.000000
8162 13909 1 0.16500 119244.000000
8163 13910 1 0.16500 119244.000000
8163 14068 1 0.16500 119244.000000
8164 13910 1 0.16500 119244.000000
8164 15942 1 0.16500 119244.000000
8165 13911 1 0.16500 119244.000000
8165 15431 1 0.16500 119244.000000
8166 11735 1 0.16500 119244.000000
8166 16267 1 0.16500 119244.000000
8167 13912 1 0.16500 119244.000000
8167 16287 1 0.16500 119244.000000
8168 13913 1 0.16500 119244.000000
8168 14484 1 0.16500 119244.000000
8169 13914 1 0.16500 119244.000000
8169 14934 1 0.16500 119244.000000
8170 13914 1 0.16500 119244.000000
8170 16265 1 0.16500 119244.000000
8171 13914 1 0.16500 119244.000000
8171 14089 1 0.16500 119244.000000
8172 15288 1 0.16500 119244.000000
8172 20062 1 0.16500 119244.000000
8173 17078 1 0.16500 119244.000000
8173 20062 1 0.16500 119244.000000
8174 15697 1 0.16500 119244.000000
8174 20062 1 0.16500 119244.000000
8175 13915 1 0.16500 119244.000000
8175 14192 1 0.16500 119244.000000
8176 13915 1 0.16500 119244.000000
8176 15092 1 0.16500 119244.000000
8177 13915 1 0.16500 119244.000000
8177 15004 1 0.16500 119244.000000
8178 13915 1 0.16500 119244.000000
8178 14925 1 0.16500 119244.000000
8179 13916 1 0.16500 119244.000000
8179 15726 1 0.16500 119244.000000
8180 13916 1 0.16500 119244.000000
8180 14938 1 0.16500 119244.000000
8181 13916 1 0.16500 119244.000000
8181 14682 1 0.16500 119244.000000
8182 13916 1 0.16500 119244.000000
8182 15312 1 0.16500 119244.000000
8183 13917 1 0.16500 119244.000000
8183 15959 1 0.16500 119244.000000
8184 13917 1 0.16500 119244.000000
8184 14701 1 0.16500 119244.000000
8185 13918 1 0.16500 119244.000000
8185 15875 1 0.16500 119244.000000
8186 13919 1 0.16500 119244.000000
8186 13978 1 0.16500 119244.000000
8187 13919 1 0.16500 119244.000000
8187 16343 1 0.16500 119244.000000
8188 13919 1 0.16500 119244.000000
8188 15571 1 0.16500 119244.000000
8189 13920 1 0.16500 119244.000000
8189 15116 1 0.16500 119244.000000
8190 13920 1 0.16500 119244.000000
8190 14932 1 0.16500 119244.000000
8191 13920 1 0.16500 119244.000000
8191 15068 1 0.16500 119244.000000
8192 13921 1 0.16500 119244.000000
8192 14477 1 0.16500 119244.000000
8193 13921 1 0.16500 119244.000000
8193 14037 1 0.16500 119244.000000
8194 13921 1 0.16500 119244.000000
8194 15002 1 0.16500 119244.000000
8195 13922 1 0.16500 119244.000000
8195 14960 1 0.16500 119244.000000
8196 13922 1 0.16500 119244.000000
8196 14319 1 0.16500 119244.000000
8197 13923 1 0.16500 119244.000000
8197 15430 1 0.16500 119244.000000
8198 20122 1 0.16500 119244.000000
8198 20182 1 0.16500 119244.000000
8199 13924 1 0.16500 119244.000000
8199 13948 1 0.16500 119244.000000
8200 13924 1 0.16500 119244.000000
8200 15128 1 0.16500 119244.000000
8201 13924 1 0.16500 119244.000000
8201 16252 1 0.16500 119244.000000
8202 13925 1 0.16500 119244.000000
8202 15353 1 0.16500 119244.000000
8203 13926 1 0.16500 119244.000000
8203 14529 1 0.16500 119244.000000
8204 13926 1 0.16500 119244.000000
8204 14478 1 0.16500 119244.000000
8205 13927 1 0.16500 119244.000000
8205 16305 1 0.16500 119244.000000
8206 13927 1 0.16500 119244.000000
8206 16518 1 0.16500 119244.000000
8207 13927 1 0.16500 119244.000000
8207 15675 1 0.16500 119244.000000
8208 13928 1 0.16500 119244.000000
8208 16078 1 0.16500 119244.000000
8209 13928 1 0.16500 119244.000000
8209 16003 1 0.16500 119244.000000
8210 13929 1 0.16500 119244.000000
8210 16507 1 0.16500 119244.000000
8211 12398 1 0.16500 119244.000000
8211 14150 1 0.16500 119244.000000
8212 19942 1 0.16500 119244.000000
8212 21394 1 0.16500 119244.000000
8213 13931 1 0.16500 119244.000000
8213 20074 1 0.16500 119244.000000
8214 13932 1 0.16500 119244.000000
8214 15593 1 0.16500 119244.000000
8215 13932 1 0.16500 119244.000000
8215 14677 1 0.16500 119244.000000
8216 14485 1 0.16500 119244.000000
8216 16530 1 0.16500 119244.000000
8217 13933 1 0.16500 119244.000000
8217 14485 1 0.16500 119244.000000
8218 13934 1 0.16500 119244.000000
8218 16390 1 0.16500 119244.000000
8219 13934 1 0.16500 119244.000000
8219 14761 1 0.16500 119244.000000
8220 13935 1 0.16500 119244.000000
8220 15668 1 0.16500 119244.000000
8221 13936 1 0.16500 119244.000000
8221 15843 1 0.16500 119244.000000
8222 13937 1 0.16500 119244.000000
8222 15692 1 0.16500 119244.000000
8223 13938 1 0.16500 119244.000000
8223 15684 1 0.16500 119244.000000
8224 13938 1 0.16500 119244.000000
8224 15223 1 0.16500 119244.000000
8225 13938 1 0.16500 119244.000000
8225 16603 1 0.16500 119244.000000
8226 13939 1 0.16500 119244.000000
8226 16193 1 0.16500 119244.000000
8227 13939 1 0.16500 119244.000000
8227 14168 1 0.16500 119244.000000
8228 13939 1 0.16500 119244.000000
8228 16226 1 0.16500 119244.000000
8229 13941 1 0.16500 119244.000000
8229 15386 1 0.16500 119244.000000
8230 13941 1 0.16500 119244.000000
8230 16562 1 0.16500 119244.000000
8231 13941 1 0.16500 119244.000000
8231 14131 1 0.16500 119244.000000
8232 13941 1 0.16500 119244.000000
8232 14643 1 0.16500 119244.000000
8233 13942 1 0.16500 119244.000000
8233 15968 1 0.16500 119244.000000
8234 13942 1 0.16500 119244.000000
8234 15704 1 0.16500 119244.000000
8235 13943 1 0.16500 119244.000000
8235 14766 1 0.16500 119244.000000
8236 13943 1 0.16500 119244.000000
8236 16164 1 0.16500 119244.000000
8237 20830 1 0.16500 119244.000000
8237 21589 1 0.16500 119244.000000
8238 13944 1 0.16500 119244.000000
8238 16512 1 0.16500 119244.000000
8239 13944 1 0.16500 119244.000000
8239 15587 1 0.16500 119244.000000
8240 14717 1 0.16500 119244.000000
8240 16404 1 0.16500 119244.000000
8241 13945 1 0.16500 119244.000000
8241 15001 1 0.16500 119244.000000
8242 13945 1 0.16500 119244.000000
8242 16404 1 0.16500 119244.000000
8243 13946 1 0.16500 119244.000000
8243 14928 1 0.16500 119244.000000
8244 13946 1 0.16500 119244.000000
8244 14105 1 0.16500 119244.000000
8245 13946 1 0.16500 119244.000000
8245 15541 1 0.16500 119244.000000
8246 13947 1 0.16500 119244.000000
8246 14925 1 0.16500 119244.000000
8247 15475 1 0.16500 119244.000000
8247 19234 1 0.16500 119244.000000
8248 13948 1 0.16500 119244.000000
8248 14299 1 0.16500 119244.000000
8249 13949 1 0.16500 119244.000000
8249 15424 1 0.16500 119244.000000
8250 13949 1 0.16500 119244.000000
8250 16122 1 0.16500 119244.000000
8251 13949 1 0.16500 119244.000000
8251 14997 1 0.16500 119244.000000
8252 13949 1 0.16500 119244.000000
8252 14325 1 0.16500 119244.000000
8253 13950 1 0.16500 119244.000000
8253 15865 1 0.16500 119244.000000
8254 13950 1 0.16500 119244.000000
8254 14429 1 0.16500 119244.000000
8255 13950 1 0.16500 119244.000000
8255 16595 1 0.16500 119244.000000
8256 13951 1 0.16500 119244.000000
8256 15554 1 0.16500 119244.000000
8257 13951 1 0.16500 119244.000000
8257 14059 1 0.16500 119244.000000
8258 13951 1 0.16500 119244.000000
8258 14396 1 0.16500 119244.000000
8259 15649 1 0.16500 119244.000000
8259 17778 1 0.16500 119244.000000
8260 13952 1 0.16500 119244.000000
8260 15448 1 0.16500 119244.000000
8261 13952 1 0.16500 119244.000000
8261 15222 1 0.16500 119244.000000
8262 15972 1 0.16500 119244.000000
8262 21592 1 0.16500 119244.000000
8263 13953 1 0.16500 119244.000000
8263 14417 1 0.16500 119244.000000
8264 13953 1 0.16500 119244.000000
8264 15610 1 0.16500 119244.000000
8265 15348 1 0.16500 119244.000000
8265 17148 1 0.16500 119244.000000
8266 13954 1 0.16500 119244.000000
8266 16013 1 0.16500 119244.000000
8267 13954 1 0.16500 119244.000000
8267 16117 1 0.16500 119244.000000
8268 13954 1 0.16500 119244.000000
8268 16614 1 0.16500 119244.000000
8269 13955 1 0.16500 119244.000000
8269 15030 1 0.16500 119244.000000
8270 13955 1 0.16500 119244.000000
8270 16140 1 0.16500 119244.000000
8271 13955 1 0.16500 119244.000000
8271 14316 1 0.16500 119244.000000
8272 13956 1 0.16500 119244.000000
8272 15822 1 0.16500 119244.000000
8273 13957 1 0.16500 119244.000000
8273 16625 1 0.16500 119244.000000
8274 13958 1 0.16500 119244.000000
8274 16081 1 0.16500 119244.000000
8275 13959 1 0.16500 119244.000000
8275 19930 1 0.16500 119244.000000
8276 16012 1 0.16500 119244.000000
8276 17484 1 0.16500 119244.000000
8277 13246 1 0.16500 119244.000000
8277 14524 1 0.16500 119244.000000
8278 13960 1 0.16500 119244.000000
8278 15311 1 0.16500 119244.000000
8279 13246 1 0.16500 119244.000000
8279 15005 1 0.16500 119244.000000
8280 13961 1 0.16500 119244.000000
8280 16296 1 0.16500 119244.000000
8281 13962 1 0.16500 119244.000000
8281 16186 1 0.16500 119244.000000
8282 13962 1 0.16500 119244.000000
8282 14318 1 0.16500 119244.000000
8283 14318 1 0.16500 119244.000000
8283 14758 1 0.16500 119244.000000
8284 13963 1 0.16500 119244.000000
8284 15793 1 0.16500 119244.000000
8285 13963 1 0.16500 119244.000000
8285 14270 1 0.16500 119244.000000
8286 13963 1 0.16500 119244.000000
8286 15023 1 0.16500 119244.000000
8287 13963 1 0.16500 119244.000000
8287 14170 1 0.16500 119244.000000
8288 15101 1 0.16500 119244.000000
8288 17652 1 0.16500 119244.000000
8289 17652 1 0.16500 119244.000000
8289 18114 1 0.16500 119244.000000
8290 13964 1 0.16500 119244.000000
8290 20410 1 0.16500 119244.000000
8291 13964 1 0.16500 119244.000000
8291 16558 1 0.16500 119244.000000
8292 13965 1 0.16500 119244.000000
8292 15488 1 0.16500 119244.000000
8293 13965 1 0.16500 119244.000000
8293 14420 1 0.16500 119244.000000
8294 21166 1 0.16500 119244.000000
8294 21460 1 0.16500 119244.000000
8295 13966 1 0.16500 119244.000000
8295 16153 1 0.16500 119244.000000
8296 13966 1 0.16500 119244.000000
8296 18016 1 0.16500 119244.000000
8297 13967 1 0.16500 119244.000000
8297 14590 1 0.16500 119244.000000
8298 19690 1 0.16500 119244.000000
8298 21598 1 0.16500 119244.000000
8299 13968 1 0.16500 119244.000000
8299 14988 1 0.16500 119244.000000
8300 13968 1 0.16500 119244.000000
8300 14614 1 0.16500 119244.000000
8301 13968 1 0.16500 119244.000000
8301 15475 1 0.16500 119244.000000
8302 13969 1 0.16500 119244.000000
8302 14871 1 0.16500 119244.000000
8303 13969 1 0.16500 119244.000000
8303 16235 1 0.16500 119244.000000
8304 13969 1 0.16500 119244.000000
8304 16039 1 0.16500 119244.000000
8305 13970 1 0.16500 119244.000000
8305 15658 1 0.16500 119244.000000
8306 13970 1 0.16500 119244.000000
8306 14639 1 0.16500 119244.000000
8307 13971 1 0.16500 119244.000000
8307 14225 1 0.16500 119244.000000
8308 13971 1 0.16500 119244.000000
8308 16304 1 0.16500 119244.000000
8309 13972 1 0.16500 119244.000000
8309 15321 1 0.16500 119244.000000
8310 13972 1 0.16500 119244.000000
8310 16464 1 0.16500 119244.000000
8311 13972 1 0.16500 119244.000000
8311 16320 1 0.16500 119244.000000
8312 13973 1 0.16500 119244.000000
8312 16598 1 0.16500 119244.000000
8313 13973 1 0.16500 119244.000000
8313 15392 1 0.16500 119244.000000
8314 12989 1 0.16500 119244.000000
8314 16318 1 0.16500 119244.000000
8315 14855 1 0.16500 119244.000000
8315 15392 1 0.16500 119244.000000
8316 13974 1 0.16500 119244.000000
8316 15791 1 0.16500 119244.000000
8317 13974 1 0.16500 119244.000000
8317 15232 1 0.16500 119244.000000
8318 13974 1 0.16500 119244.000000
8318 14094 1 0.16500 119244.000000
8319 13974 1 0.16500 119244.000000
8319 16489 1 0.16500 119244.000000
8320 13975 1 0.16500 119244.000000
8320 14472 1 0.16500 119244.000000
8321 13976 1 0.16500 119244.000000
8321 16157 1 0.16500 119244.000000
8322 13976 1 0.16500 119244.000000
8322 14369 1 0.16500 119244.000000
8323 13977 1 0.16500 119244.000000
8323 14640 1 0.16500 119244.000000
8324 13977 1 0.16500 119244.000000
8324 14605 1 0.16500 119244.000000
8325 13978 1 0.16500 119244.000000
8325 15107 1 0.16500 119244.000000
8326 13978 1 0.16500 119244.000000
8326 16335 1 0.16500 119244.000000
8327 13979 1 0.16500 119244.000000
8327 14788 1 0.16500 119244.000000
8328 13979 1 0.16500 119244.000000
8328 15807 1 0.16500 119244.000000
8329 13979 1 0.16500 119244.000000
8329 15433 1 0.16500 119244.000000
8330 12127 1 0.16500 119244.000000
8330 13979 1 0.16500 119244.000000
8331 13980 1 0.16500 119244.000000
8331 15049 1 0.16500 119244.000000
8332 13980 1 0.16500 119244.000000
8332 16469 1 0.16500 119244.000000
8333 13981 1 0.16500 119244.000000
8333 16205 1 0.16500 119244.000000
8334 13981 1 0.16500 119244.000000
8334 14273 1 0.16500 119244.000000
8335 13981 1 0.16500 119244.000000
8335 16260 1 0.16500 119244.000000
8336 13982 1 0.16500 119244.000000
8336 16595 1 0.16500 119244.000000
8337 13982 1 0.16500 119244.000000
8337 15577 1 0.16500 119244.000000
8338 13982 1 0.16500 119244.000000
8338 14084 1 0.16500 119244.000000
8339 13982 1 0.16500 119244.000000
8339 15005 1 0.16500 119244.000000
8340 13983 1 0.16500 119244.000000
8340 14573 1 0.16500 119244.000000
8341 13983 1 0.16500 119244.000000
8341 15479 1 0.16500 119244.000000
8342 13984 1 0.16500 119244.000000
8342 14898 1 0.16500 119244.000000
8343 13985 1 0.16500 119244.000000
8343 14077 1 0.16500 119244.000000
8344 13985 1 0.16500 119244.000000
8344 15813 1 0.16500 119244.000000
8345 13985 1 0.16500 119244.000000
8345 15841 1 0.16500 119244.000000
8346 13986 1 0.16500 119244.000000
8346 16265 1 0.16500 119244.000000
8347 13986 1 0.16500 119244.000000
8347 16492 1 0.16500 119244.000000
8348 13987 1 0.16500 119244.000000
8348 15427 1 0.16500 119244.000000
8349 13987 1 0.16500 119244.000000
8349 15148 1 0.16500 119244.000000
8350 13987 1 0.16500 119244.000000
8350 15439 1 0.16500 119244.000000
8351 13989 1 0.16500 119244.000000
8351 15192 1 0.16500 119244.000000
8352 13989 1 0.16500 119244.000000
8352 16263 1 0.16500 119244.000000
8353 13989 1 0.16500 119244.000000
8353 14070 1 0.16500 119244.000000
8354 15450 1 0.16500 119244.000000
8354 21601 1 0.16500 119244.000000
8355 13990 1 0.16500 119244.000000
8355 15021 1 0.16500 119244.000000
8356 13990 1 0.16500 119244.000000
8356 14544 1 0.16500 119244.000000
8357 13991 1 0.16500 119244.000000
8357 14530 1 0.16500 119244.000000
8358 13991 1 0.16500 119244.000000
8358 16248 1 0.16500 119244.000000
8359 13992 1 0.16500 119244.000000
8359 15141 1 0.16500 119244.000000
8360 13992 1 0.16500 119244.000000
8360 14341 1 0.16500 119244.000000
8361 13992 1 0.16500 119244.000000
8361 18514 1 0.16500 119244.000000
8362 13993 1 0.16500 119244.000000
8362 14861 1 0.16500 119244.000000
8363 13994 1 0.16500 119244.000000
8363 17372 1 0.16500 119244.000000
8364 13994 1 0.16500 119244.000000
8364 15601 1 0.16500 119244.000000
8365 13994 1 0.16500 119244.000000
8365 16367 1 0.16500 119244.000000
8366 13995 1 0.16500 119244.000000
8366 14386 1 0.16500 119244.000000
8367 13995 1 0.16500 119244.000000
8367 14023 1 0.16500 119244.000000
8368 13996 1 0.16500 119244.000000
8368 20098 1 0.16500 119244.000000
8369 13996 1 0.16500 119244.000000
8369 14028 1 0.16500 119244.000000
8370 13996 1 0.16500 119244.000000
8370 14416 1 0.16500 119244.000000
8371 14217 1 0.16500 119244.000000
8371 20998 1 0.16500 119244.000000
8372 13997 1 0.16500 119244.000000
8372 21154 1 0.16500 119244.000000
8373 16283 1 0.16500 119244.000000
8373 21589 1 0.16500 119244.000000
8374 13998 1 0.16500 119244.000000
8374 16181 1 0.16500 119244.000000
8375 13998 1 0.16500 119244.000000
8375 15180 1 0.16500 119244.000000
8376 16023 1 0.16500 119244.000000
8376 20434 1 0.16500 119244.000000
8377 13999 1 0.16500 119244.000000
8377 14502 1 0.16500 119244.000000
8378 14000 1 0.16500 119244.000000
8378 16051 1 0.16500 119244.000000
8379 14001 1 0.16500 119244.000000
8379 15819 1 0.16500 119244.000000
8380 14001 1 0.16500 119244.000000
8380 16364 1 0.16500 119244.000000
8381 14343 1 0.16500 119244.000000
8381 21604 1 0.16500 119244.000000
8382 14002 1 0.16500 119244.000000
8382 16580 1 0.16500 119244.000000
8383 11695 1 0.16500 119244.000000
8383 14002 1 0.16500 119244.000000
8384 14003 1 0.16500 119244.000000
8384 14908 1 0.16500 119244.000000
8385 14004 1 0.16500 119244.000000
8385 14306 1 0.16500 119244.000000
8386 14005 1 0.16500 119244.000000
8386 14128 1 0.16500 119244.000000
8387 14005 1 0.16500 119244.000000
8387 16005 1 0.16500 119244.000000
8388 14005 1 0.16500 119244.000000
8388 15224 1 0.16500 119244.000000
8389 14006 1 0.16500 119244.000000
8389 14468 1 0.16500 119244.000000
8390 14007 1 0.16500 119244.000000
8390 15130 1 0.16500 119244.000000
8391 14007 1 0.16500 119244.000000
8391 15284 1 0.16500 119244.000000
8392 14008 1 0.16500 119244.000000
8392 14556 1 0.16500 119244.000000
8393 14008 1 0.16500 119244.000000
8393 15543 1 0.16500 119244.000000
8394 14009 1 0.16500 119244.000000
8394 16569 1 0.16500 119244.000000
8395 14009 1 0.16500 119244.000000
8395 14400 1 0.16500 119244.000000
8396 14009 1 0.16500 119244.000000
8396 14981 1 0.16500 119244.000000
8397 14010 1 0.16500 119244.000000
8397 14358 1 0.16500 119244.000000
8398 14010 1 0.16500 119244.000000
8398 16400 1 0.16500 119244.000000
8399 14011 1 0.16500 119244.000000
8399 15849 1 0.16500 119244.000000
8400 14011 1 0.16500 119244.000000
8400 15183 1 0.16500 119244.000000
8401 14012 1 0.16500 119244.000000
8401 16439 1 0.16500 119244.000000
8402 14012 1 0.16500 119244.000000
8402 16059 1 0.16500 119244.000000
8403 14014 1 0.16500 119244.000000
8403 16095 1 0.16500 119244.000000
8404 14694 1 0.16500 119244.000000
8404 18934 1 0.16500 119244.000000
8405 18934 1 0.16500 119244.000000
8405 21838 1 0.16500 119244.000000
8406 14016 1 0.16500 119244.000000
8406 16579 1 0.16500 119244.000000
8407 14016 1 0.16500 119244.000000
8407 18946 1 0.16500 119244.000000
8408 14017 1 0.16500 119244.000000
8408 15364 1 0.16500 119244.000000
8409 14017 1 0.16500 119244.000000
8409 15174 1 0.16500 119244.000000
8410 14017 1 0.16500 119244.000000
8410 14569 1 0.16500 119244.000000
8411 14018 1 0.16500 119244.000000
8411 15878 1 0.16500 119244.000000
8412 17344 1 0.16500 119244.000000
8412 20662 1 0.16500 119244.000000
8413 14019 1 0.16500 119244.000000
8413 18406 1 0.16500 119244.000000
8414 14019 1 0.16500 119244.000000
8414 14086 1 0.16500 119244.000000
8415 14020 1 0.16500 119244.000000
8415 15077 1 0.16500 119244.000000
8416 14020 1 0.16500 119244.000000
8416 15669 1 0.16500 119244.000000
8417 14020 1 0.16500 119244.000000
8417 15910 1 0.16500 119244.000000
8418 14021 1 0.16500 119244.000000
8418 15317 1 0.16500 119244.000000
8419 14021 1 0.16500 119244.000000
8419 14178 1 0.16500 119244.000000
8420 14021 1 0.16500 119244.000000
8420 16264 1 0.16500 119244.000000
8421 12797 1 0.16500 119244.000000
8421 15377 1 0.16500 119244.000000
8422 14022 1 0.16500 119244.000000
8422 14658 1 0.16500 119244.000000
8423 14023 1 0.16500 119244.000000
8423 15754 1 0.16500 119244.000000
8424 14023 1 0.16500 119244.000000
8424 14365 1 0.16500 119244.000000
8425 14023 1 0.16500 119244.000000
8425 15372 1 0.16500 119244.000000
8426 14787 1 0.16500 119244.000000
8426 16365 1 0.16500 119244.000000
8427 14024 1 0.16500 119244.000000
8427 16365 1 0.16500 119244.000000
8428 14575 1 0.16500 119244.000000
8428 16365 1 0.16500 119244.000000
8429 16052 1 0.16500 119244.000000
8429 16324 1 0.16500 119244.000000
8430 14025 1 0.16500 119244.000000
8430 14769 1 0.16500 119244.000000
8431 14025 1 0.16500 119244.000000
8431 16324 1 0.16500 119244.000000
8432 14026 1 0.16500 119244.000000
8432 16321 1 0.16500 119244.000000
8433 14026 1 0.16500 119244.000000
8433 15202 1 0.16500 119244.000000
8434 14027 1 0.16500 119244.000000
8434 16267 1 0.16500 119244.000000
8435 14027 1 0.16500 119244.000000
8435 15236 1 0.16500 119244.000000
8436 15378 1 0.16500 119244.000000
8436 16267 1 0.16500 119244.000000
8437 14971 1 0.16500 119244.000000
8437 15623 1 0.16500 119244.000000
8438 14028 1 0.16500 119244.000000
8438 21709 1 0.16500 119244.000000
8439 14028 1 0.16500 119244.000000
8439 15623 1 0.16500 119244.000000
8440 14029 1 0.16500 119244.000000
8440 15777 1 0.16500 119244.000000
8441 14029 1 0.16500 119244.000000
8441 14532 1 0.16500 119244.000000
8442 14030 1 0.16500 119244.000000
8442 15329 1 0.16500 119244.000000
8443 14031 1 0.16500 119244.000000
8443 14807 1 0.16500 119244.000000
8444 14032 1 0.16500 119244.000000
8444 20134 1 0.16500 119244.000000
8445 14033 1 0.16500 119244.000000
8445 14066 1 0.16500 119244.000000
8446 14033 1 0.16500 119244.000000
8446 16155 1 0.16500 119244.000000
8447 14033 1 0.16500 119244.000000
8447 14886 1 0.16500 119244.000000
8448 14034 1 0.16500 119244.000000
8448 15196 1 0.16500 119244.000000
8449 14034 1 0.16500 119244.000000
8449 15790 1 0.16500 119244.000000
8450 15790 1 0.16500 119244.000000
8450 15911 1 0.16500 119244.000000
8451 14035 1 0.16500 119244.000000
8451 16158 1 0.16500 119244.000000
8452 14035 1 0.16500 119244.000000
8452 14501 1 0.16500 119244.000000
8453 14035 1 0.16500 119244.000000
8453 15351 1 0.16500 119244.000000
8454 16158 1 0.16500 119244.000000
8454 16211 1 0.16500 119244.000000
8455 14036 1 0.16500 119244.000000
8455 15031 1 0.16500 119244.000000
8456 11608 1 0.16500 119244.000000
8456 15527 1 0.16500 119244.000000
8457 14038 1 0.16500 119244.000000
8457 15699 1 0.16500 119244.000000
8458 14038 1 0.16500 119244.000000
8458 15198 1 0.16500 119244.000000
8459 15794 1 0.16500 119244.000000
8459 17456 1 0.16500 119244.000000
8460 14039 1 0.16500 119244.000000
8460 16373 1 0.16500 119244.000000
8461 14406 1 0.16500 119244.000000
8461 16373 1 0.16500 119244.000000
8462 14040 1 0.16500 119244.000000
8462 15286 1 0.16500 119244.000000
8463 14040 1 0.16500 119244.000000
8463 14682 1 0.16500 119244.000000
8464 14040 1 0.16500 119244.000000
8464 15228 1 0.16500 119244.000000
8465 14041 1 0.16500 119244.000000
8465 14707 1 0.16500 119244.000000
8466 14041 1 0.16500 119244.000000
8466 15567 1 0.16500 119244.000000
8467 14042 1 0.16500 119244.000000
8467 16542 1 0.16500 119244.000000
8468 14043 1 0.16500 119244.000000
8468 15202 1 0.16500 119244.000000
8469 13648 1 0.16500 119244.000000
8469 14043 1 0.16500 119244.000000
8470 14043 1 0.16500 119244.000000
8470 16133 1 0.16500 119244.000000
8471 14043 1 0.16500 119244.000000
8471 15441 1 0.16500 119244.000000
8472 14044 1 0.16500 119244.000000
8472 16053 1 0.16500 119244.000000
8473 16276 1 0.16500 119244.000000
8473 18574 1 0.16500 119244.000000
8474 15210 1 0.16500 119244.000000
8474 18574 1 0.16500 119244.000000
8475 14046 1 0.16500 119244.000000
8475 15018 1 0.16500 119244.000000
8476 14047 1 0.16500 119244.000000
8476 14140 1 0.16500 119244.000000
8477 14047 1 0.16500 119244.000000
8477 15946 1 0.16500 119244.000000
8478 14048 1 0.16500 119244.000000
8478 15061 1 0.16500 119244.000000
8479 14048 1 0.16500 119244.000000
8479 16575 1 0.16500 119244.000000
8480 14048 1 0.16500 119244.000000
8480 16556 1 0.16500 119244.000000
8481 14049 1 0.16500 119244.000000
8481 14540 1 0.16500 119244.000000
8482 14049 1 0.16500 119244.000000
8482 15412 1 0.16500 119244.000000
8483 14050 1 0.16500 119244.000000
8483 21679 1 0.16500 119244.000000
8484 14051 1 0.16500 119244.000000
8484 14137 1 0.16500 119244.000000
8485 14051 1 0.16500 119244.000000
8485 14907 1 0.16500 119244.000000
8486 14052 1 0.16500 119244.000000
8486 16136 1 0.16500 119244.000000
8487 14052 1 0.16500 119244.000000
8487 14886 1 0.16500 119244.000000
8488 14052 1 0.16500 119244.000000
8488 16422 1 0.16500 119244.000000
8489 14053 1 0.16500 119244.000000
8489 14931 1 0.16500 119244.000000
8490 14053 1 0.16500 119244.000000
8490 16082 1 0.16500 119244.000000
8491 14053 1 0.16500 119244.000000
8491 14816 1 0.16500 119244.000000
8492 15956 1 0.16500 119244.000000
8492 21607 1 0.16500 119244.000000
8493 14054 1 0.16500 119244.000000
8493 21763 1 0.16500 119244.000000
8494 14054 1 0.16500 119244.000000
8494 14968 1 0.16500 119244.000000
8495 14055 1 0.16500 119244.000000
8495 16140 1 0.16500 119244.000000
8496 14055 1 0.16500 119244.000000
8496 14800 1 0.16500 119244.000000
8497 15256 1 0.16500 119244.000000
8497 21832 1 0.16500 119244.000000
8498 14056 1 0.16500 119244.000000
8498 15607 1 0.16500 119244.000000
8499 14405 1 0.16500 119244.000000
8499 15256 1 0.16500 119244.000000
8500 14056 1 0.16500 119244.000000
8500 15256 1 0.16500 119244.000000
8501 14428 1 0.16500 119244.000000
8501 18030 1 0.16500 119244.000000
8502 14057 1 0.16500 119244.000000
8502 14721 1 0.16500 119244.000000
8503 14057 1 0.16500 119244.000000
8503 14408 1 0.16500 119244.000000
8504 14057 1 0.16500 119244.000000
8504 14157 1 0.16500 119244.000000
8505 12179 1 0.16500 119244.000000
8505 15485 1 0.16500 119244.000000
8506 12179 1 0.16500 119244.000000
8506 14074 1 0.16500 119244.000000
8507 14059 1 0.16500 119244.000000
8507 15273 1 0.16500 119244.000000
8508 14060 1 0.16500 119244.000000
8508 15516 1 0.16500 119244.000000
8509 14060 1 0.16500 119244.000000
8509 15991 1 0.16500 119244.000000
8510 14060 1 0.16500 119244.000000
8510 15444 1 0.16500 119244.000000
8511 21610 1 0.16500 119244.000000
8511 21937 1 0.16500 119244.000000
8512 15647 1 0.16500 119244.000000
8512 21610 1 0.16500 119244.000000
8513 14062 1 0.16500 119244.000000
8513 15172 1 0.16500 119244.000000
8514 14063 1 0.16500 119244.000000
8514 15706 1 0.16500 119244.000000
8515 14063 1 0.16500 119244.000000
8515 14897 1 0.16500 119244.000000
8516 14063 1 0.16500 119244.000000
8516 16489 1 0.16500 119244.000000
8517 14064 1 0.16500 119244.000000
8517 16402 1 0.16500 119244.000000
8518 14065 1 0.16500 119244.000000
8518 16610 1 0.16500 119244.000000
8519 14066 1 0.16500 119244.000000
8519 15224 1 0.16500 119244.000000
8520 16330 1 0.16500 119244.000000
8520 19270 1 0.16500 119244.000000
8521 14067 1 0.16500 119244.000000
8521 14669 1 0.16500 119244.000000
8522 14067 1 0.16500 119244.000000
8522 16056 1 0.16500 119244.000000
8523 14068 1 0.16500 119244.000000
8523 14908 1 0.16500 119244.000000
8524 14068 1 0.16500 119244.000000
8524 16605 1 0.16500 119244.000000
8525 11434 1 0.16500 119244.000000
8525 14448 1 0.16500 119244.000000
8526 11434 1 0.16500 119244.000000
8526 14728 1 0.16500 119244.000000
8527 11434 1 0.16500 119244.000000
8527 14314 1 0.16500 119244.000000
8528 14070 1 0.16500 119244.000000
8528 14140 1 0.16500 119244.000000
8529 14070 1 0.16500 119244.000000
8529 14742 1 0.16500 119244.000000
8530 14071 1 0.16500 119244.000000
8530 14346 1 0.16500 119244.000000
8531 14071 1 0.16500 119244.000000
8531 15861 1 0.16500 119244.000000
8532 14072 1 0.16500 119244.000000
8532 16332 1 0.16500 119244.000000
8533 14072 1 0.16500 119244.000000
8533 15457 1 0.16500 119244.000000
8534 14072 1 0.16500 119244.000000
8534 16418 1 0.16500 119244.000000
8535 14073 1 0.16500 119244.000000
8535 15985 1 0.16500 119244.000000
8536 14073 1 0.16500 119244.000000
8536 15334 1 0.16500 119244.000000
8537 14073 1 0.16500 119244.000000
8537 16295 1 0.16500 119244.000000
8538 14074 1 0.16500 119244.000000
8538 16220 1 0.16500 119244.000000
8539 14074 1 0.16500 119244.000000
8539 14413 1 0.16500 119244.000000
8540 14075 1 0.16500 119244.000000
8540 16168 1 0.16500 119244.000000
8541 14075 1 0.16500 119244.000000
8541 15597 1 0.16500 119244.000000
8542 14075 1 0.16500 119244.000000
8542 16498 1 0.16500 119244.000000
8543 14076 1 0.16500 119244.000000
8543 14865 1 0.16500 119244.000000
8544 14076 1 0.16500 119244.000000
8544 15998 1 0.16500 119244.000000
8545 14076 1 0.16500 119244.000000
8545 14191 1 0.16500 119244.000000
8546 14077 1 0.16500 119244.000000
8546 15341 1 0.16500 119244.000000
8547 14078 1 0.16500 119244.000000
8547 15164 1 0.16500 119244.000000
8548 14078 1 0.16500 119244.000000
8548 15587 1 0.16500 119244.000000
8549 14078 1 0.16500 119244.000000
8549 14315 1 0.16500 119244.000000
8550 15937 1 0.16500 119244.000000
8550 17358 1 0.16500 119244.000000
8551 14079 1 0.16500 119244.000000
8551 14852 1 0.16500 119244.000000
8552 14079 1 0.16500 119244.000000
8552 15190 1 0.16500 119244.000000
8553 14079 1 0.16500 119244.000000
8553 14739 1 0.16500 119244.000000
8554 14081 1 0.16500 119244.000000
8554 16527 1 0.16500 119244.000000
8555 14081 1 0.16500 119244.000000
8555 14114 1 0.16500 119244.000000
8556 14082 1 0.16500 119244.000000
8556 16396 1 0.16500 119244.000000
8557 14082 1 0.16500 119244.000000
8557 16485 1 0.16500 119244.000000
8558 14083 1 0.16500 119244.000000
8558 15021 1 0.16500 119244.000000
8559 14083 1 0.16500 119244.000000
8559 16379 1 0.16500 119244.000000
8560 14084 1 0.16500 119244.000000
8560 15994 1 0.16500 119244.000000
8561 14084 1 0.16500 119244.000000
8561 16110 1 0.16500 119244.000000
8562 14085 1 0.16500 119244.000000
8562 15565 1 0.16500 119244.000000
8563 14086 1 0.16500 119244.000000
8563 16398 1 0.16500 119244.000000
8564 14087 1 0.16500 119244.000000
8564 16400 1 0.16500 119244.000000
8565 14087 1 0.16500 119244.000000
8565 15365 1 0.16500 119244.000000
8566 14088 1 0.16500 119244.000000
8566 16115 1 0.16500 119244.000000
8567 14089 1 0.16500 119244.000000
8567 15222 1 0.16500 119244.000000
8568 14090 1 0.16500 119244.000000
8568 14651 1 0.16500 119244.000000
8569 14090 1 0.16500 119244.000000
8569 21871 1 0.16500 119244.000000
8570 14091 1 0.16500 119244.000000
8570 15282 1 0.16500 119244.000000
8571 14091 1 0.16500 119244.000000
8571 16589 1 0.16500 119244.000000
8572 14091 1 0.16500 119244.000000
8572 15814 1 0.16500 119244.000000
8573 14093 1 0.16500 119244.000000
8573 14481 1 0.16500 119244.000000
8574 14093 1 0.16500 119244.000000
8574 16063 1 0.16500 119244.000000
8575 14094 1 0.16500 119244.000000
8575 15305 1 0.16500 119244.000000
8576 14095 1 0.16500 119244.000000
8576 16392 1 0.16500 119244.000000
8577 14095 1 0.16500 119244.000000
8577 15855 1 0.16500 119244.000000
8578 14095 1 0.16500 119244.000000
8578 16427 1 0.16500 119244.000000
8579 14095 1 0.16500 119244.000000
8579 14172 1 0.16500 119244.000000
8580 14096 1 0.16500 119244.000000
8580 15751 1 0.16500 119244.000000
8581 11806 1 0.16500 119244.000000
8581 14096 1 0.16500 119244.000000
8582 14097 1 0.16500 119244.000000
8582 15314 1 0.16500 119244.000000
8583 14098 1 0.16500 119244.000000
8583 16063 1 0.16500 119244.000000
8584 14098 1 0.16500 119244.000000
8584 15588 1 0.16500 119244.000000
8585 11636 1 0.16500 119244.000000
8585 14098 1 0.16500 119244.000000
8586 14099 1 0.16500 119244.000000
8586 15083 1 0.16500 119244.000000
8587 14099 1 0.16500 119244.000000
8587 15286 1 0.16500 119244.000000
8588 14100 1 0.16500 119244.000000
8588 16126 1 0.16500 119244.000000
8589 14100 1 0.16500 119244.000000
8589 15573 1 0.16500 119244.000000
8590 14101 1 0.16500 119244.000000
8590 15661 1 0.16500 119244.000000
8591 14101 1 0.16500 119244.000000
8591 15146 1 0.16500 119244.000000
8592 14101 1 0.16500 119244.000000
8592 15500 1 0.16500 119244.000000
8593 12867 1 0.16500 119244.000000
8593 14649 1 0.16500 119244.000000
8594 14102 1 0.16500 119244.000000
8594 14142 1 0.16500 119244.000000
8595 14102 1 0.16500 119244.000000
8595 16420 1 0.16500 119244.000000
8596 14103 1 0.16500 119244.000000
8596 15715 1 0.16500 119244.000000
8597 14103 1 0.16500 119244.000000
8597 15796 1 0.16500 119244.000000
8598 14103 1 0.16500 119244.000000
8598 16123 1 0.16500 119244.000000
8599 14104 1 0.16500 119244.000000
8599 15092 1 0.16500 119244.000000
8600 14104 1 0.16500 119244.000000
8600 15563 1 0.16500 119244.000000
8601 14104 1 0.16500 119244.000000
8601 20146 1 0.16500 119244.000000
8602 14105 1 0.16500 119244.000000
8602 14797 1 0.16500 119244.000000
8603 14105 1 0.16500 119244.000000
8603 16361 1 0.16500 119244.000000
8604 14107 1 0.16500 119244.000000
8604 15166 1 0.16500 119244.000000
8605 14108 1 0.16500 119244.000000
8605 16407 1 0.16500 119244.000000
8606 14108 1 0.16500 119244.000000
8606 16195 1 0.16500 119244.000000
8607 14108 1 0.16500 119244.000000
8607 16496 1 0.16500 119244.000000
8608 14108 1 0.16500 119244.000000
8608 15888 1 0.16500 119244.000000
8609 13945 1 0.16500 119244.000000
8609 14109 1 0.16500 119244.000000
8610 14110 1 0.16500 119244.000000
8610 16187 1 0.16500 119244.000000
8611 14110 1 0.16500 119244.000000
8611 15920 1 0.16500 119244.000000
8612 11849 1 0.16500 119244.000000
8612 16222 1 0.16500 119244.000000
8613 14111 1 0.16500 119244.000000
8613 16180 1 0.16500 119244.000000
8614 14111 1 0.16500 119244.000000
8614 15920 1 0.16500 119244.000000
8615 14112 1 0.16500 119244.000000
8615 15153 1 0.16500 119244.000000
8616 14112 1 0.16500 119244.000000
8616 14587 1 0.16500 119244.000000
8617 14113 1 0.16500 119244.000000
8617 18754 1 0.16500 119244.000000
8618 14113 1 0.16500 119244.000000
8618 14755 1 0.16500 119244.000000
8619 14114 1 0.16500 119244.000000
8619 19342 1 0.16500 119244.000000
8620 14114 1 0.16500 119244.000000
8620 15070 1 0.16500 119244.000000
8621 21616 1 0.16500 119244.000000
8621 21799 1 0.16500 119244.000000
8622 11539 1 0.16500 119244.000000
8622 14917 1 0.16500 119244.000000
8623 14115 1 0.16500 119244.000000
8623 14512 1 0.16500 119244.000000
8624 14115 1 0.16500 119244.000000
8624 15631 1 0.16500 119244.000000
8625 14116 1 0.16500 119244.000000
8625 15953 1 0.16500 119244.000000
8626 14117 1 0.16500 119244.000000
8626 15105 1 0.16500 119244.000000
8627 14117 1 0.16500 119244.000000
8627 16560 1 0.16500 119244.000000
8628 14117 1 0.16500 119244.000000
8628 14140 1 0.16500 119244.000000
8629 14117 1 0.16500 119244.000000
8629 15192 1 0.16500 119244.000000
8630 14118 1 0.16500 119244.000000
8630 15898 1 0.16500 119244.000000
8631 14119 1 0.16500 119244.000000
8631 14265 1 0.16500 119244.000000
8632 14119 1 0.16500 119244.000000
8632 14595 1 0.16500 119244.000000
8633 14119 1 0.16500 119244.000000
8633 15673 1 0.16500 119244.000000
8634 21619 1 0.16500 119244.000000
8634 21820 1 0.16500 119244.000000
8635 17302 1 0.16500 119244.000000
8635 21619 1 0.16500 119244.000000
8636 15592 1 0.16500 119244.000000
8636 21619 1 0.16500 119244.000000
8637 14929 1 0.16500 119244.000000
8637 15006 1 0.16500 119244.000000
8638 14735 1 0.16500 119244.000000
8638 15006 1 0.16500 119244.000000
8639 14120 1 0.16500 119244.000000
8639 15006 1 0.16500 119244.000000
8640 14121 1 0.16500 119244.000000
8640 16040 1 0.16500 119244.000000
8641 14122 1 0.16500 119244.000000
8641 15509 1 0.16500 119244.000000
8642 14122 1 0.16500 119244.000000
8642 14227 1 0.16500 119244.000000
8643 14123 1 0.16500 119244.000000
8643 15312 1 0.16500 119244.000000
8644 14123 1 0.16500 119244.000000
8644 15540 1 0.16500 119244.000000
8645 14124 1 0.16500 119244.000000
8645 15040 1 0.16500 119244.000000
8646 14124 1 0.16500 119244.000000
8646 15051 1 0.16500 119244.000000
8647 14125 1 0.16500 119244.000000
8647 16151 1 0.16500 119244.000000
8648 14125 1 0.16500 119244.000000
8648 16178 1 0.16500 119244.000000
8649 14126 1 0.16500 119244.000000
8649 15151 1 0.16500 119244.000000
8650 14126 1 0.16500 119244.000000
8650 15748 1 0.16500 119244.000000
8651 14127 1 0.16500 119244.000000
8651 15663 1 0.16500 119244.000000
8652 14128 1 0.16500 119244.000000
8652 14542 1 0.16500 119244.000000
8653 14129 1 0.16500 119244.000000
8653 15932 1 0.16500 119244.000000
8654 14129 1 0.16500 119244.000000
8654 15184 1 0.16500 119244.000000
8655 14130 1 0.16500 119244.000000
8655 15134 1 0.16500 119244.000000
8656 14130 1 0.16500 119244.000000
8656 16166 1 0.16500 119244.000000
8657 14955 1 0.16500 119244.000000
8657 20902 1 0.16500 119244.000000
8658 20902 1 0.16500 119244.000000
8658 21670 1 0.16500 119244.000000
8659 14131 1 0.16500 119244.000000
8659 15267 1 0.16500 119244.000000
8660 14132 1 0.16500 119244.000000
8660 14541 1 0.16500 119244.000000
8661 14132 1 0.16500 119244.000000
8661 15834 1 0.16500 119244.000000
8662 14133 1 0.16500 119244.000000
8662 15077 1 0.16500 119244.000000
8663 14133 1 0.16500 119244.000000
8663 16372 1 0.16500 119244.000000
8664 13011 1 0.16500 119244.000000
8664 14133 1 0.16500 119244.000000
8665 14133 1 0.16500 119244.000000
8665 14627 1 0.16500 119244.000000
8666 14226 1 0.16500 119244.000000
8666 16349 1 0.16500 119244.000000
8667 14226 1 0.16500 119244.000000
8667 15067 1 0.16500 119244.000000
8668 14134 1 0.16500 119244.000000
8668 15401 1 0.16500 119244.000000
8669 14135 1 0.16500 119244.000000
8669 15346 1 0.16500 119244.000000
8670 14136 1 0.16500 119244.000000
8670 16456 1 0.16500 119244.000000
8671 14136 1 0.16500 119244.000000
8671 16351 1 0.16500 119244.000000
8672 14138 1 0.16500 119244.000000
8672 16559 1 0.16500 119244.000000
8673 14139 1 0.16500 119244.000000
8673 15017 1 0.16500 119244.000000
8674 14139 1 0.16500 119244.000000
8674 14205 1 0.16500 119244.000000
8675 11426 1 0.16500 119244.000000
8675 14141 1 0.16500 119244.000000
8676 14141 1 0.16500 119244.000000
8676 16329 1 0.16500 119244.000000
8677 14141 1 0.16500 119244.000000
8677 15484 1 0.16500 119244.000000
8678 14142 1 0.16500 119244.000000
8678 14785 1 0.16500 119244.000000
8679 15216 1 0.16500 119244.000000
8679 15816 1 0.16500 119244.000000
8680 14143 1 0.16500 119244.000000
8680 15816 1 0.16500 119244.000000
8681 14144 1 0.16500 119244.000000
8681 15168 1 0.16500 119244.000000
8682 14144 1 0.16500 119244.000000
8682 15270 1 0.16500 119244.000000
8683 14144 1 0.16500 119244.000000
8683 15893 1 0.16500 119244.000000
8684 14144 1 0.16500 119244.000000
8684 14650 1 0.16500 119244.000000
8685 14145 1 0.16500 119244.000000
8685 15072 1 0.16500 119244.000000
8686 14146 1 0.16500 119244.000000
8686 14766 1 0.16500 119244.000000
8687 14146 1 0.16500 119244.000000
8687 16363 1 0.16500 119244.000000
8688 14147 1 0.16500 119244.000000
8688 16584 1 0.16500 119244.000000
8689 14147 1 0.16500 119244.000000
8689 15731 1 0.16500 119244.000000
8690 14148 1 0.16500 119244.000000
8690 16005 1 0.16500 119244.000000
8691 14149 1 0.16500 119244.000000
8691 16195 1 0.16500 119244.000000
8692 14149 1 0.16500 119244.000000
8692 14670 1 0.16500 119244.000000
8693 14149 1 0.16500 119244.000000
8693 16407 1 0.16500 119244.000000
8694 14149 1 0.16500 119244.000000
8694 15569 1 0.16500 119244.000000
8695 14150 1 0.16500 119244.000000
8695 14486 1 0.16500 119244.000000
8696 14151 1 0.16500 119244.000000
8696 14887 1 0.16500 119244.000000
8697 14152 1 0.16500 119244.000000
8697 16488 1 0.16500 119244.000000
8698 14153 1 0.16500 119244.000000
8698 16014 1 0.16500 119244.000000
8699 14153 1 0.16500 119244.000000
8699 14380 1 0.16500 119244.000000
8700 14154 1 0.16500 119244.000000
8700 15898 1 0.16500 119244.000000
8701 14154 1 0.16500 119244.000000
8701 14481 1 0.16500 119244.000000
8702 14155 1 0.16500 119244.000000
8702 14783 1 0.16500 119244.000000
8703 14155 1 0.16500 119244.000000
8703 14685 1 0.16500 119244.000000
8704 14156 1 0.16500 119244.000000
8704 15536 1 0.16500 119244.000000
8705 14156 1 0.16500 119244.000000
8705 15498 1 0.16500 119244.000000
8706 14157 1 0.16500 119244.000000
8706 15855 1 0.16500 119244.000000
8707 14159 1 0.16500 119244.000000
8707 15680 1 0.16500 119244.000000
8708 14159 1 0.16500 119244.000000
8708 15717 1 0.16500 119244.000000
8709 14159 1 0.16500 119244.000000
8709 15879 1 0.16500 119244.000000
8710 14160 1 0.16500 119244.000000
8710 15617 1 0.16500 119244.000000
8711 14160 1 0.16500 119244.000000
8711 14179 1 0.16500 119244.000000
8712 14161 1 0.16500 119244.000000
8712 16165 1 0.16500 119244.000000
8713 14162 1 0.16500 119244.000000
8713 15778 1 0.16500 119244.000000
8714 14162 1 0.16500 119244.000000
8714 15233 1 0.16500 119244.000000
8715 14163 1 0.16500 119244.000000
8715 16565 1 0.16500 119244.000000
8716 14164 1 0.16500 119244.000000
8716 15872 1 0.16500 119244.000000
8717 14164 1 0.16500 119244.000000
8717 15123 1 0.16500 119244.000000
8718 14164 1 0.16500 119244.000000
8718 15618 1 0.16500 119244.000000
8719 14165 1 0.16500 119244.000000
8719 15188 1 0.16500 119244.000000
8720 14165 1 0.16500 119244.000000
8720 16323 1 0.16500 119244.000000
8721 14166 1 0.16500 119244.000000
8721 14403 1 0.16500 119244.000000
8722 14166 1 0.16500 119244.000000
8722 15250 1 0.16500 119244.000000
8723 14167 1 0.16500 119244.000000
8723 15803 1 0.16500 119244.000000
8724 14167 1 0.16500 119244.000000
8724 15032 1 0.16500 119244.000000
8725 14167 1 0.16500 119244.000000
8725 14777 1 0.16500 119244.000000
8726 14168 1 0.16500 119244.000000
8726 14605 1 0.16500 119244.000000
8727 14168 1 0.16500 119244.000000
8727 15138 1 0.16500 119244.000000
8728 14169 1 0.16500 119244.000000
8728 15683 1 0.16500 119244.000000
8729 11473 1 0.16500 119244.000000
8729 14169 1 0.16500 119244.000000
8730 14169 1 0.16500 119244.000000
8730 15577 1 0.16500 119244.000000
8731 16232 1 0.16500 119244.000000
8731 21622 1 0.16500 119244.000000
8732 16127 1 0.16500 119244.000000
8732 21622 1 0.16500 119244.000000
8733 14170 1 0.16500 119244.000000
8733 14868 1 0.16500 119244.000000
8734 14171 1 0.16500 119244.000000
8734 16341 1 0.16500 119244.000000
8735 13363 1 0.16500 119244.000000
8735 16479 1 0.16500 119244.000000
8736 14172 1 0.16500 119244.000000
8736 15774 1 0.16500 119244.000000
8737 14173 1 0.16500 119244.000000
8737 14378 1 0.16500 119244.000000
8738 14174 1 0.16500 119244.000000
8738 16424 1 0.16500 119244.000000
8739 14174 1 0.16500 119244.000000
8739 16491 1 0.16500 119244.000000
8740 14174 1 0.16500 119244.000000
8740 15964 1 0.16500 119244.000000
8741 14175 1 0.16500 119244.000000
8741 15155 1 0.16500 119244.000000
8742 14176 1 0.16500 119244.000000
8742 15629 1 0.16500 119244.000000
8743 14176 1 0.16500 119244.000000
8743 15408 1 0.16500 119244.000000
8744 14177 1 0.16500 119244.000000
8744 14625 1 0.16500 119244.000000
8745 14177 1 0.16500 119244.000000
8745 16129 1 0.16500 119244.000000
8746 14178 1 0.16500 119244.000000
8746 15694 1 0.16500 119244.000000
8747 14180 1 0.16500 119244.000000
8747 14196 1 0.16500 119244.000000
8748 14180 1 0.16500 119244.000000
8748 15087 1 0.16500 119244.000000
8749 14180 1 0.16500 119244.000000
8749 15467 1 0.16500 119244.000000
8750 14181 1 0.16500 119244.000000
8750 15709 1 0.16500 119244.000000
8751 14182 1 0.16500 119244.000000
8751 15087 1 0.16500 119244.000000
8752 14183 1 0.16500 119244.000000
8752 14186 1 0.16500 119244.000000
8753 14183 1 0.16500 119244.000000
8753 14388 1 0.16500 119244.000000
8754 14184 1 0.16500 119244.000000
8754 15290 1 0.16500 119244.000000
8755 14184 1 0.16500 119244.000000
8755 14275 1 0.16500 119244.000000
8756 14184 1 0.16500 119244.000000
8756 16112 1 0.16500 119244.000000
8757 14186 1 0.16500 119244.000000
8757 15882 1 0.16500 119244.000000
8758 14187 1 0.16500 119244.000000
8758 15346 1 0.16500 119244.000000
8759 14187 1 0.16500 119244.000000
8759 15035 1 0.16500 119244.000000
8760 14189 1 0.16500 119244.000000
8760 19078 1 0.16500 119244.000000
8761 14189 1 0.16500 119244.000000
8761 15807 1 0.16500 119244.000000
8762 14190 1 0.16500 119244.000000
8762 15612 1 0.16500 119244.000000
8763 14191 1 0.16500 119244.000000
8763 15144 1 0.16500 119244.000000
8764 14192 1 0.16500 119244.000000
8764 14197 1 0.16500 119244.000000
8765 14192 1 0.16500 119244.000000
8765 14412 1 0.16500 119244.000000
8766 14193 1 0.16500 119244.000000
8766 14617 1 0.16500 119244.000000
8767 14193 1 0.16500 119244.000000
8767 15918 1 0.16500 119244.000000
8768 14194 1 0.16500 119244.000000
8768 14693 1 0.16500 119244.000000
8769 14194 1 0.16500 119244.000000
8769 15838 1 0.16500 119244.000000
8770 14195 1 0.16500 119244.000000
8770 15321 1 0.16500 119244.000000
8771 14195 1 0.16500 119244.000000
8771 15525 1 0.16500 119244.000000
8772 14197 1 0.16500 119244.000000
8772 16340 1 0.16500 119244.000000
8773 14198 1 0.16500 119244.000000
8773 16141 1 0.16500 119244.000000
8774 14198 1 0.16500 119244.000000
8774 14591 1 0.16500 119244.000000
8775 14199 1 0.16500 119244.000000
8775 15428 1 0.16500 119244.000000
8776 14199 1 0.16500 119244.000000
8776 15150 1 0.16500 119244.000000
8777 14428 1 0.16500 119244.000000
8777 18610 1 0.16500 119244.000000
8778 14200 1 0.16500 119244.000000
8778 15285 1 0.16500 119244.000000
8779 14200 1 0.16500 119244.000000
8779 14482 1 0.16500 119244.000000
8780 14201 1 0.16500 119244.000000
8780 15844 1 0.16500 119244.000000
8781 14201 1 0.16500 119244.000000
8781 15577 1 0.16500 119244.000000
8782 14201 1 0.16500 119244.000000
8782 14974 1 0.16500 119244.000000
8783 14202 1 0.16500 119244.000000
8783 16535 1 0.16500 119244.000000
8784 14202 1 0.16500 119244.000000
8784 14619 1 0.16500 119244.000000
8785 14203 1 0.16500 119244.000000
8785 22019 1 0.16500 119244.000000
8786 14204 1 0.16500 119244.000000
8786 15170 1 0.16500 119244.000000
8787 14204 1 0.16500 119244.000000
8787 15690 1 0.16500 119244.000000
8788 14205 1 0.16500 119244.000000
8788 14945 1 0.16500 119244.000000
8789 14205 1 0.16500 119244.000000
8789 15585 1 0.16500 119244.000000
8790 14206 1 0.16500 119244.000000
8790 14831 1 0.16500 119244.000000
8791 14206 1 0.16500 119244.000000
8791 15308 1 0.16500 119244.000000
8792 14206 1 0.16500 119244.000000
8792 14666 1 0.16500 119244.000000
8793 14207 1 0.16500 119244.000000
8793 14866 1 0.16500 119244.000000
8794 14207 1 0.16500 119244.000000
8794 20770 1 0.16500 119244.000000
8795 14208 1 0.16500 119244.000000
8795 14823 1 0.16500 119244.000000
8796 14209 1 0.16500 119244.000000
8796 14464 1 0.16500 119244.000000
8797 14209 1 0.16500 119244.000000
8797 14534 1 0.16500 119244.000000
8798 14210 1 0.16500 119244.000000
8798 14901 1 0.16500 119244.000000
8799 14210 1 0.16500 119244.000000
8799 15873 1 0.16500 119244.000000
8800 14211 1 0.16500 119244.000000
8800 15651 1 0.16500 119244.000000
8801 13704 1 0.16500 119244.000000
8801 14211 1 0.16500 119244.000000
8802 14211 1 0.16500 119244.000000
8802 14970 1 0.16500 119244.000000
8803 14212 1 0.16500 119244.000000
8803 16091 1 0.16500 119244.000000
8804 14212 1 0.16500 119244.000000
8804 14215 1 0.16500 119244.000000
8805 14213 1 0.16500 119244.000000
8805 14790 1 0.16500 119244.000000
8806 14213 1 0.16500 119244.000000
8806 14340 1 0.16500 119244.000000
8807 14213 1 0.16500 119244.000000
8807 15986 1 0.16500 119244.000000
8808 14214 1 0.16500 119244.000000
8808 15260 1 0.16500 119244.000000
8809 14215 1 0.16500 119244.000000
8809 16235 1 0.16500 119244.000000
8810 14215 1 0.16500 119244.000000
8810 14578 1 0.16500 119244.000000
8811 14215 1 0.16500 119244.000000
8811 15642 1 0.16500 119244.000000
8812 14216 1 0.16500 119244.000000
8812 16226 1 0.16500 119244.000000
8813 14217 1 0.16500 119244.000000
8813 14982 1 0.16500 119244.000000
8814 14218 1 0.16500 119244.000000
8814 14990 1 0.16500 119244.000000
8815 19870 1 0.16500 119244.000000
8815 21883 1 0.16500 119244.000000
8816 14219 1 0.16500 119244.000000
8816 14840 1 0.16500 119244.000000
8817 14220 1 0.16500 119244.000000
8817 16240 1 0.16500 119244.000000
8818 14221 1 0.16500 119244.000000
8818 15976 1 0.16500 119244.000000
8819 14221 1 0.16500 119244.000000
8819 16401 1 0.16500 119244.000000
8820 14222 1 0.16500 119244.000000
8820 16272 1 0.16500 119244.000000
8821 14223 1 0.16500 119244.000000
8821 15961 1 0.16500 119244.000000
8822 16868 1 0.16500 119244.000000
8822 20950 1 0.16500 119244.000000
8823 14224 1 0.16500 119244.000000
8823 14635 1 0.16500 119244.000000
8824 14224 1 0.16500 119244.000000
8824 16047 1 0.16500 119244.000000
8825 14225 1 0.16500 119244.000000
8825 15261 1 0.16500 119244.000000
8826 15784 1 0.16500 119244.000000
8826 16349 1 0.16500 119244.000000
8827 14229 1 0.16500 119244.000000
8827 14323 1 0.16500 119244.000000
8828 14229 1 0.16500 119244.000000
8828 14875 1 0.16500 119244.000000
8829 14229 1 0.16500 119244.000000
8829 18574 1 0.16500 119244.000000
8830 14230 1 0.16500 119244.000000
8830 15813 1 0.16500 119244.000000
8831 14231 1 0.16500 119244.000000
8831 15950 1 0.16500 119244.000000
8832 14231 1 0.16500 119244.000000
8832 15663 1 0.16500 119244.000000
8833 14231 1 0.16500 119244.000000
8833 15029 1 0.16500 119244.000000
8834 14231 1 0.16500 119244.000000
8834 14723 1 0.16500 119244.000000
8835 14232 1 0.16500 119244.000000
8835 14472 1 0.16500 119244.000000
8836 14233 1 0.16500 119244.000000
8836 15518 1 0.16500 119244.000000
8837 14234 1 0.16500 119244.000000
8837 14927 1 0.16500 119244.000000
8838 14235 1 0.16500 119244.000000
8838 15045 1 0.16500 119244.000000
8839 14235 1 0.16500 119244.000000
8839 15372 1 0.16500 119244.000000
8840 14235 1 0.16500 119244.000000
8840 15920 1 0.16500 119244.000000
8841 14236 1 0.16500 119244.000000
8841 17386 1 0.16500 119244.000000
8842 14236 1 0.16500 119244.000000
8842 14591 1 0.16500 119244.000000
8843 14237 1 0.16500 119244.000000
8843 16116 1 0.16500 119244.000000
8844 14237 1 0.16500 119244.000000
8844 15258 1 0.16500 119244.000000
8845 14238 1 0.16500 119244.000000
8845 16309 1 0.16500 119244.000000
8846 14238 1 0.16500 119244.000000
8846 16289 1 0.16500 119244.000000
8847 14239 1 0.16500 119244.000000
8847 15377 1 0.16500 119244.000000
8848 13111 1 0.16500 119244.000000
8848 14833 1 0.16500 119244.000000
8849 14240 1 0.16500 119244.000000
8849 15344 1 0.16500 119244.000000
8850 14241 1 0.16500 119244.000000
8850 16543 1 0.16500 119244.000000
8851 18352 1 0.16500 119244.000000
8851 21823 1 0.16500 119244.000000
8852 14242 1 0.16500 119244.000000
8852 14936 1 0.16500 119244.000000
8853 14242 1 0.16500 119244.000000
8853 15170 1 0.16500 119244.000000
8854 14242 1 0.16500 119244.000000
8854 16295 1 0.16500 119244.000000
8855 12933 1 0.16500 119244.000000
8855 16506 1 0.16500 119244.000000
8856 14243 1 0.16500 119244.000000
8856 14677 1 0.16500 119244.000000
8857 14243 1 0.16500 119244.000000
8857 14489 1 0.16500 119244.000000
8858 14244 1 0.16500 119244.000000
8858 15848 1 0.16500 119244.000000
8859 14244 1 0.16500 119244.000000
8859 15453 1 0.16500 119244.000000
8860 14244 1 0.16500 119244.000000
8860 16302 1 0.16500 119244.000000
8861 14245 1 0.16500 119244.000000
8861 16188 1 0.16500 119244.000000
8862 14245 1 0.16500 119244.000000
8862 14660 1 0.16500 119244.000000
8863 14245 1 0.16500 119244.000000
8863 15155 1 0.16500 119244.000000
8864 14246 1 0.16500 119244.000000
8864 16262 1 0.16500 119244.000000
8865 14246 1 0.16500 119244.000000
8865 16630 1 0.16500 119244.000000
8866 14247 1 0.16500 119244.000000
8866 14908 1 0.16500 119244.000000
8867 14247 1 0.16500 119244.000000
8867 16359 1 0.16500 119244.000000
8868 14248 1 0.16500 119244.000000
8868 14488 1 0.16500 119244.000000
8869 15850 1 0.16500 119244.000000
8869 21130 1 0.16500 119244.000000
8870 14249 1 0.16500 119244.000000
8870 16251 1 0.16500 119244.000000
8871 14249 1 0.16500 119244.000000
8871 14396 1 0.16500 119244.000000
8872 14251 1 0.16500 119244.000000
8872 15150 1 0.16500 119244.000000
8873 14949 1 0.16500 119244.000000
8873 19786 1 0.16500 119244.000000
8874 15532 1 0.16500 119244.000000
8874 19786 1 0.16500 119244.000000
8875 19786 1 0.16500 119244.000000
8875 20470 1 0.16500 119244.000000
8876 14252 1 0.16500 119244.000000
8876 14909 1 0.16500 119244.000000
8877 15129 1 0.16500 119244.000000
8877 20638 1 0.16500 119244.000000
8878 14253 1 0.16500 119244.000000
8878 14642 1 0.16500 119244.000000
8879 14253 1 0.16500 119244.000000
8879 17400 1 0.16500 119244.000000
8880 14254 1 0.16500 119244.000000
8880 15192 1 0.16500 119244.000000
8881 14255 1 0.16500 119244.000000
8881 15121 1 0.16500 119244.000000
8882 14255 1 0.16500 119244.000000
8882 16196 1 0.16500 119244.000000
8883 14256 1 0.16500 119244.000000
8883 15383 1 0.16500 119244.000000
8884 14257 1 0.16500 119244.000000
8884 15762 1 0.16500 119244.000000
8885 14257 1 0.16500 119244.000000
8885 15625 1 0.16500 119244.000000
8886 14258 1 0.16500 119244.000000
8886 14565 1 0.16500 119244.000000
8887 14258 1 0.16500 119244.000000
8887 15825 1 0.16500 119244.000000
8888 14260 1 0.16500 119244.000000
8888 16060 1 0.16500 119244.000000
8889 14260 1 0.16500 119244.000000
8889 16041 1 0.16500 119244.000000
8890 14260 1 0.16500 119244.000000
8890 14480 1 0.16500 119244.000000
8891 14261 1 0.16500 119244.000000
8891 14493 1 0.16500 119244.000000
8892 14261 1 0.16500 119244.000000
8892 15518 1 0.16500 119244.000000
8893 13402 1 0.16500 119244.000000
8893 14262 1 0.16500 119244.000000
8894 12140 1 0.16500 119244.000000
8894 16020 1 0.16500 119244.000000
8895 14263 1 0.16500 119244.000000
8895 16356 1 0.16500 119244.000000
8896 14264 1 0.16500 119244.000000
8896 14873 1 0.16500 119244.000000
8897 14264 1 0.16500 119244.000000
8897 14887 1 0.16500 119244.000000
8898 14264 1 0.16500 119244.000000
8898 15117 1 0.16500 119244.000000
8899 14265 1 0.16500 119244.000000
8899 14638 1 0.16500 119244.000000
8900 14266 1 0.16500 119244.000000
8900 16355 1 0.16500 119244.000000
8901 14266 1 0.16500 119244.000000
8901 15806 1 0.16500 119244.000000
8902 14267 1 0.16500 119244.000000
8902 16056 1 0.16500 119244.000000
8903 14267 1 0.16500 119244.000000
8903 16161 1 0.16500 119244.000000
8904 14268 1 0.16500 119244.000000
8904 16423 1 0.16500 119244.000000
8905 14268 1 0.16500 119244.000000
8905 16569 1 0.16500 119244.000000
8906 14268 1 0.16500 119244.000000
8906 15125 1 0.16500 119244.000000
8907 14269 1 0.16500 119244.000000
8907 16018 1 0.16500 119244.000000
8908 15048 1 0.16500 119244.000000
8908 20830 1 0.16500 119244.000000
8909 14271 1 0.16500 119244.000000
8909 14956 1 0.16500 119244.000000
8910 14271 1 0.16500 119244.000000
8910 14677 1 0.16500 119244.000000
8911 14273 1 0.16500 119244.000000
8911 15857 1 0.16500 119244.000000
8912 14273 1 0.16500 119244.000000
8912 14779 1 0.16500 119244.000000
8913 14274 1 0.16500 119244.000000
8913 14348 1 0.16500 119244.000000
8914 14275 1 0.16500 119244.000000
8914 14672 1 0.16500 119244.000000
8915 14275 1 0.16500 119244.000000
8915 14718 1 0.16500 119244.000000
8916 13235 1 0.16500 119244.000000
8916 17274 1 0.16500 119244.000000
8917 14276 1 0.16500 119244.000000
8917 15529 1 0.16500 119244.000000
8918 14277 1 0.16500 119244.000000
8918 14937 1 0.16500 119244.000000
8919 14277 1 0.16500 119244.000000
8919 14778 1 0.16500 119244.000000
8920 14277 1 0.16500 119244.000000
8920 15298 1 0.16500 119244.000000
8921 14278 1 0.16500 119244.000000
8921 16124 1 0.16500 119244.000000
8922 14278 1 0.16500 119244.000000
8922 16162 1 0.16500 119244.000000
8923 19102 1 0.16500 119244.000000
8923 19426 1 0.16500 119244.000000
8924 14279 1 0.16500 119244.000000
8924 15203 1 0.16500 119244.000000
8925 14279 1 0.16500 119244.000000
8925 16530 1 0.16500 119244.000000
8926 14279 1 0.16500 119244.000000
8926 15111 1 0.16500 119244.000000
8927 16416 1 0.16500 119244.000000
8927 18946 1 0.16500 119244.000000
8928 14280 1 0.16500 119244.000000
8928 15011 1 0.16500 119244.000000
8929 14281 1 0.16500 119244.000000
8929 16348 1 0.16500 119244.000000
8930 14282 1 0.16500 119244.000000
8930 16549 1 0.16500 119244.000000
8931 14282 1 0.16500 119244.000000
8931 16390 1 0.16500 119244.000000
8932 14282 1 0.16500 119244.000000
8932 15796 1 0.16500 119244.000000
8933 14282 1 0.16500 119244.000000
8933 16051 1 0.16500 119244.000000
8934 14283 1 0.16500 119244.000000
8934 16216 1 0.16500 119244.000000
8935 14283 1 0.16500 119244.000000
8935 15485 1 0.16500 119244.000000
8936 14284 1 0.16500 119244.000000
8936 15008 1 0.16500 119244.000000
8937 14285 1 0.16500 119244.000000
8937 15004 1 0.16500 119244.000000
8938 14285 1 0.16500 119244.000000
8938 22029 1 0.16500 119244.000000
8939 13851 1 0.16500 119244.000000
8939 14286 1 0.16500 119244.000000
8940 14287 1 0.16500 119244.000000
8940 16340 1 0.16500 119244.000000
8941 14288 1 0.16500 119244.000000
8941 14332 1 0.16500 119244.000000
8942 14289 1 0.16500 119244.000000
8942 18296 1 0.16500 119244.000000
8943 14290 1 0.16500 119244.000000
8943 16081 1 0.16500 119244.000000
8944 14290 1 0.16500 119244.000000
8944 14852 1 0.16500 119244.000000
8945 14290 1 0.16500 119244.000000
8945 16292 1 0.16500 119244.000000
8946 14290 1 0.16500 119244.000000
8946 16525 1 0.16500 119244.000000
8947 14291 1 0.16500 119244.000000
8947 16174 1 0.16500 119244.000000
8948 14291 1 0.16500 119244.000000
8948 14516 1 0.16500 119244.000000
8949 14292 1 0.16500 119244.000000
8949 16513 1 0.16500 119244.000000
8950 14292 1 0.16500 119244.000000
8950 15278 1 0.16500 119244.000000
8951 14292 1 0.16500 119244.000000
8951 15457 1 0.16500 119244.000000
8952 14292 1 0.16500 119244.000000
8952 16571 1 0.16500 119244.000000
8953 14293 1 0.16500 119244.000000
8953 15462 1 0.16500 119244.000000
8954 14294 1 0.16500 119244.000000
8954 19342 1 0.16500 119244.000000
8955 14294 1 0.16500 119244.000000
8955 15063 1 0.16500 119244.000000
8956 14294 1 0.16500 119244.000000
8956 14787 1 0.16500 119244.000000
8957 14295 1 0.16500 119244.000000
8957 14589 1 0.16500 119244.000000
8958 14295 1 0.16500 119244.000000
8958 16617 1 0.16500 119244.000000
8959 14295 1 0.16500 119244.000000
8959 15444 1 0.16500 119244.000000
8960 14297 1 0.16500 119244.000000
8960 14301 1 0.16500 119244.000000
8961 14298 1 0.16500 119244.000000
8961 21862 1 0.16500 119244.000000
8962 17862 1 0.16500 119244.000000
8962 21757 1 0.16500 119244.000000
8963 14299 1 0.16500 119244.000000
8963 16607 1 0.16500 119244.000000
8964 14300 1 0.16500 119244.000000
8964 15451 1 0.16500 119244.000000
8965 14300 1 0.16500 119244.000000
8965 16535 1 0.16500 119244.000000
8966 14300 1 0.16500 119244.000000
8966 16322 1 0.16500 119244.000000
8967 14301 1 0.16500 119244.000000
8967 15854 1 0.16500 119244.000000
8968 14302 1 0.16500 119244.000000
8968 15669 1 0.16500 119244.000000
8969 14302 1 0.16500 119244.000000
8969 15633 1 0.16500 119244.000000
8970 12156 1 0.16500 119244.000000
8970 16188 1 0.16500 119244.000000
8971 14304 1 0.16500 119244.000000
8971 16602 1 0.16500 119244.000000
8972 14304 1 0.16500 119244.000000
8972 15389 1 0.16500 119244.000000
8973 14304 1 0.16500 119244.000000
8973 14657 1 0.16500 119244.000000
8974 14746 1 0.16500 119244.000000
8974 21628 1 0.16500 119244.000000
8975 16237 1 0.16500 119244.000000
8975 19390 1 0.16500 119244.000000
8976 12081 1 0.16500 119244.000000
8976 14509 1 0.16500 119244.000000
8977 14305 1 0.16500 119244.000000
8977 15957 1 0.16500 119244.000000
8978 14305 1 0.16500 119244.000000
8978 14991 1 0.16500 119244.000000
8979 14306 1 0.16500 119244.000000
8979 16391 1 0.16500 119244.000000
8980 14306 1 0.16500 119244.000000
8980 14914 1 0.16500 119244.000000
8981 14306 1 0.16500 119244.000000
8981 15326 1 0.16500 119244.000000
8982 14307 1 0.16500 119244.000000
8982 15689 1 0.16500 119244.000000
8983 14307 1 0.16500 119244.000000
8983 15042 1 0.16500 119244.000000
8984 14308 1 0.16500 119244.000000
8984 16351 1 0.16500 119244.000000
8985 14308 1 0.16500 119244.000000
8985 18886 1 0.16500 119244.000000
8986 11700 1 0.16500 119244.000000
8986 15232 1 0.16500 119244.000000
8987 14310 1 0.16500 119244.000000
8987 16605 1 0.16500 119244.000000
8988 14310 1 0.16500 119244.000000
8988 16094 1 0.16500 119244.000000
8989 14310 1 0.16500 119244.000000
8989 14501 1 0.16500 119244.000000
8990 14311 1 0.16500 119244.000000
8990 16133 1 0.16500 119244.000000
8991 14313 1 0.16500 119244.000000
8991 15591 1 0.16500 119244.000000
8992 14313 1 0.16500 119244.000000
8992 16138 1 0.16500 119244.000000
8993 14314 1 0.16500 119244.000000
8993 15969 1 0.16500 119244.000000
8994 14314 1 0.16500 119244.000000
8994 16448 1 0.16500 119244.000000
8995 14315 1 0.16500 119244.000000
8995 15221 1 0.16500 119244.000000
8996 14317 1 0.16500 119244.000000
8996 16486 1 0.16500 119244.000000
8997 14317 1 0.16500 119244.000000
8997 14683 1 0.16500 119244.000000
8998 13962 1 0.16500 119244.000000
8998 15756 1 0.16500 119244.000000
8999 14319 1 0.16500 119244.000000
8999 15093 1 0.16500 119244.000000
9000 14319 1 0.16500 119244.000000
9000 14654 1 0.16500 119244.000000
9001 11917 1 0.16500 119244.000000
9001 16507 1 0.16500 119244.000000
9002 14320 1 0.16500 119244.000000
9002 16306 1 0.16500 119244.000000
9003 14320 1 0.16500 119244.000000
9003 15638 1 0.16500 119244.000000
9004 14320 1 0.16500 119244.000000
9004 15786 1 0.16500 119244.000000
9005 14321 1 0.16500 119244.000000
9005 15564 1 0.16500 119244.000000
9006 14322 1 0.16500 119244.000000
9006 14655 1 0.16500 119244.000000
9007 14322 1 0.16500 119244.000000
9007 16570 1 0.16500 119244.000000
9008 14322 1 0.16500 119244.000000
9008 16389 1 0.16500 119244.000000
9009 14323 1 0.16500 119244.000000
9009 16276 1 0.16500 119244.000000
9010 11853 1 0.16500 119244.000000
9010 21631 1 0.16500 119244.000000
9011 21034 1 0.16500 119244.000000
9011 21166 1 0.16500 119244.000000
9012 14458 1 0.16500 119244.000000
9012 21034 1 0.16500 119244.000000
9013 14324 1 0.16500 119244.000000
9013 15926 1 0.16500 119244.000000
9014 14324 1 0.16500 119244.000000
9014 15433 1 0.16500 119244.000000
9015 14325 1 0.16500 119244.000000
9015 14631 1 0.16500 119244.000000
9016 14631 1 0.16500 119244.000000
9016 15230 1 0.16500 119244.000000
9017 14325 1 0.16500 119244.000000
9017 16412 1 0.16500 119244.000000
9018 14326 1 0.16500 119244.000000
9018 15745 1 0.16500 119244.000000
9019 14327 1 0.16500 119244.000000
9019 14385 1 0.16500 119244.000000
9020 12028 1 0.16500 119244.000000
9020 14328 1 0.16500 119244.000000
9021 14328 1 0.16500 119244.000000
9021 16077 1 0.16500 119244.000000
9022 14329 1 0.16500 119244.000000
9022 15280 1 0.16500 119244.000000
9023 14329 1 0.16500 119244.000000
9023 15979 1 0.16500 119244.000000
9024 14330 1 0.16500 119244.000000
9024 15122 1 0.16500 119244.000000
9025 14330 1 0.16500 119244.000000
9025 21901 1 0.16500 119244.000000
9026 14331 1 0.16500 119244.000000
9026 15975 1 0.16500 119244.000000
9027 14331 1 0.16500 119244.000000
9027 15672 1 0.16500 119244.000000
9028 14331 1 0.16500 119244.000000
9028 15503 1 0.16500 119244.000000
9029 14332 1 0.16500 119244.000000
9029 18910 1 0.16500 119244.000000
9030 14332 1 0.16500 119244.000000
9030 14718 1 0.16500 119244.000000
9031 14333 1 0.16500 119244.000000
9031 15412 1 0.16500 119244.000000
9032 14333 1 0.16500 119244.000000
9032 17946 1 0.16500 119244.000000
9033 13526 1 0.16500 119244.000000
9033 14333 1 0.16500 119244.000000
9034 14334 1 0.16500 119244.000000
9034 14661 1 0.16500 119244.000000
9035 15148 1 0.16500 119244.000000
9035 18114 1 0.16500 119244.000000
9036 14336 1 0.16500 119244.000000
9036 16114 1 0.16500 119244.000000
9037 14336 1 0.16500 119244.000000
9037 14734 1 0.16500 119244.000000
9038 14337 1 0.16500 119244.000000
9038 15614 1 0.16500 119244.000000
9039 14337 1 0.16500 119244.000000
9039 15054 1 0.16500 119244.000000
9040 14338 1 0.16500 119244.000000
9040 15374 1 0.16500 119244.000000
9041 15208 1 0.16500 119244.000000
9041 15868 1 0.16500 119244.000000
9042 14338 1 0.16500 119244.000000
9042 15868 1 0.16500 119244.000000
9043 14338 1 0.16500 119244.000000
9043 15518 1 0.16500 119244.000000
9044 14339 1 0.16500 119244.000000
9044 14773 1 0.16500 119244.000000
9045 14340 1 0.16500 119244.000000
9045 15727 1 0.16500 119244.000000
9046 14341 1 0.16500 119244.000000
9046 15081 1 0.16500 119244.000000
9047 14341 1 0.16500 119244.000000
9047 15863 1 0.16500 119244.000000
9048 15704 1 0.16500 119244.000000
9048 18406 1 0.16500 119244.000000
9049 14342 1 0.16500 119244.000000
9049 15254 1 0.16500 119244.000000
9050 14342 1 0.16500 119244.000000
9050 16190 1 0.16500 119244.000000
9051 14343 1 0.16500 119244.000000
9051 14895 1 0.16500 119244.000000
9052 14343 1 0.16500 119244.000000
9052 16538 1 0.16500 119244.000000
9053 14344 1 0.16500 119244.000000
9053 15276 1 0.16500 119244.000000
9054 20098 1 0.16500 119244.000000
9054 21634 1 0.16500 119244.000000
9055 16121 1 0.16500 119244.000000
9055 21634 1 0.16500 119244.000000
9056 12590 1 0.16500 119244.000000
9056 14346 1 0.16500 119244.000000
9057 14347 1 0.16500 119244.000000
9057 14592 1 0.16500 119244.000000
9058 14347 1 0.16500 119244.000000
9058 16311 1 0.16500 119244.000000
9059 14347 1 0.16500 119244.000000
9059 14736 1 0.16500 119244.000000
9060 14348 1 0.16500 119244.000000
9060 14369 1 0.16500 119244.000000
9061 13442 1 0.16500 119244.000000
9061 15052 1 0.16500 119244.000000
9062 12436 1 0.16500 119244.000000
9062 14349 1 0.16500 119244.000000
9063 14349 1 0.16500 119244.000000
9063 14455 1 0.16500 119244.000000
9064 14349 1 0.16500 119244.000000
9064 16221 1 0.16500 119244.000000
9065 14350 1 0.16500 119244.000000
9065 14800 1 0.16500 119244.000000
9066 14351 1 0.16500 119244.000000
9066 15939 1 0.16500 119244.000000
9067 15018 1 0.16500 119244.000000
9067 21637 1 0.16500 119244.000000
9068 14352 1 0.16500 119244.000000
9068 15307 1 0.16500 119244.000000
9069 14849 1 0.16500 119244.000000
9069 15307 1 0.16500 119244.000000
9070 14353 1 0.16500 119244.000000
9070 16524 1 0.16500 119244.000000
9071 14353 1 0.16500 119244.000000
9071 15014 1 0.16500 119244.000000
9072 14354 1 0.16500 119244.000000
9072 15424 1 0.16500 119244.000000
9073 12655 1 0.16500 119244.000000
9073 15239 1 0.16500 119244.000000
9074 14355 1 0.16500 119244.000000
9074 15889 1 0.16500 119244.000000
9075 14355 1 0.16500 119244.000000
9075 14915 1 0.16500 119244.000000
9076 14356 1 0.16500 119244.000000
9076 15376 1 0.16500 119244.000000
9077 14356 1 0.16500 119244.000000
9077 15489 1 0.16500 119244.000000
9078 14356 1 0.16500 119244.000000
9078 16578 1 0.16500 119244.000000
9079 14356 1 0.16500 119244.000000
9079 16176 1 0.16500 119244.000000
9080 14357 1 0.16500 119244.000000
9080 16624 1 0.16500 119244.000000
9081 14357 1 0.16500 119244.000000
9081 14364 1 0.16500 119244.000000
9082 14884 1 0.16500 119244.000000
9082 15830 1 0.16500 119244.000000
9083 14357 1 0.16500 119244.000000
9083 15830 1 0.16500 119244.000000
9084 14358 1 0.16500 119244.000000
9084 14399 1 0.16500 119244.000000
9085 13169 1 0.16500 119244.000000
9085 14488 1 0.16500 119244.000000
9086 14360 1 0.16500 119244.000000
9086 15167 1 0.16500 119244.000000
9087 14361 1 0.16500 119244.000000
9087 15650 1 0.16500 119244.000000
9088 16474 1 0.16500 119244.000000
9088 21640 1 0.16500 119244.000000
9089 15322 1 0.16500 119244.000000
9089 21640 1 0.16500 119244.000000
9090 18670 1 0.16500 119244.000000
9090 21640 1 0.16500 119244.000000
9091 14362 1 0.16500 119244.000000
9091 20470 1 0.16500 119244.000000
9092 14362 1 0.16500 119244.000000
9092 21727 1 0.16500 119244.000000
9093 14362 1 0.16500 119244.000000
9093 14363 1 0.16500 119244.000000
9094 14363 1 0.16500 119244.000000
9094 14564 1 0.16500 119244.000000
9095 14363 1 0.16500 119244.000000
9095 16625 1 0.16500 119244.000000
9096 14364 1 0.16500 119244.000000
9096 16295 1 0.16500 119244.000000
9097 14364 1 0.16500 119244.000000
9097 15016 1 0.16500 119244.000000
9098 11965 1 0.16500 119244.000000
9098 17078 1 0.16500 119244.000000
9099 14365 1 0.16500 119244.000000
9099 16191 1 0.16500 119244.000000
9100 14365 1 0.16500 119244.000000
9100 16369 1 0.16500 119244.000000
9101 14366 1 0.16500 119244.000000
9101 16109 1 0.16500 119244.000000
9102 14366 1 0.16500 119244.000000
9102 14572 1 0.16500 119244.000000
9103 15871 1 0.16500 119244.000000
9103 21643 1 0.16500 119244.000000
9104 19666 1 0.16500 119244.000000
9104 21643 1 0.16500 119244.000000
9105 14367 1 0.16500 119244.000000
9105 15189 1 0.16500 119244.000000
9106 14367 1 0.16500 119244.000000
9106 16228 1 0.16500 119244.000000
9107 14367 1 0.16500 119244.000000
9107 14376 1 0.16500 119244.000000
9108 14368 1 0.16500 119244.000000
9108 16098 1 0.16500 119244.000000
9109 14369 1 0.16500 119244.000000
9109 15962 1 0.16500 119244.000000
9110 14370 1 0.16500 119244.000000
9110 14397 1 0.16500 119244.000000
9111 13711 1 0.16500 119244.000000
9111 16093 1 0.16500 119244.000000
9112 14370 1 0.16500 119244.000000
9112 15655 1 0.16500 119244.000000
9113 14371 1 0.16500 119244.000000
9113 15932 1 0.16500 119244.000000
9114 14372 1 0.16500 119244.000000
9114 15093 1 0.16500 119244.000000
9115 14372 1 0.16500 119244.000000
9115 14960 1 0.16500 119244.000000
9116 14372 1 0.16500 119244.000000
9116 15404 1 0.16500 119244.000000
9117 14373 1 0.16500 119244.000000
9117 16227 1 0.16500 119244.000000
9118 14373 1 0.16500 119244.000000
9118 15343 1 0.16500 119244.000000
9119 14864 1 0.16500 119244.000000
9119 15343 1 0.16500 119244.000000
9120 14373 1 0.16500 119244.000000
9120 16068 1 0.16500 119244.000000
9121 14374 1 0.16500 119244.000000
9121 15950 1 0.16500 119244.000000
9122 14374 1 0.16500 119244.000000
9122 15883 1 0.16500 119244.000000
9123 14375 1 0.16500 119244.000000
9123 16455 1 0.16500 119244.000000
9124 14375 1 0.16500 119244.000000
9124 15394 1 0.16500 119244.000000
9125 14375 1 0.16500 119244.000000
9125 16218 1 0.16500 119244.000000
9126 15842 1 0.16500 119244.000000
9126 16218 1 0.16500 119244.000000
9127 14376 1 0.16500 119244.000000
9127 16524 1 0.16500 119244.000000
9128 12802 1 0.16500 119244.000000
9128 14376 1 0.16500 119244.000000
9129 14378 1 0.16500 119244.000000
9129 14808 1 0.16500 119244.000000
9130 13451 1 0.16500 119244.000000
9130 14379 1 0.16500 119244.000000
9131 14379 1 0.16500 119244.000000
9131 14709 1 0.16500 119244.000000
9132 14379 1 0.16500 119244.000000
9132 15269 1 0.16500 119244.000000
9133 14379 1 0.16500 119244.000000
9133 16572 1 0.16500 119244.000000
9134 12231 1 0.16500 119244.000000
9134 16095 1 0.16500 119244.000000
9135 14382 1 0.16500 119244.000000
9135 16319 1 0.16500 119244.000000
9136 14382 1 0.16500 119244.000000
9136 15400 1 0.16500 119244.000000
9137 14383 1 0.16500 119244.000000
9137 14677 1 0.16500 119244.000000
9138 14383 1 0.16500 119244.000000
9138 14494 1 0.16500 119244.000000
9139 16224 1 0.16500 119244.000000
9139 20722 1 0.16500 119244.000000
9140 14686 1 0.16500 119244.000000
9140 20722 1 0.16500 119244.000000
9141 14384 1 0.16500 119244.000000
9141 16202 1 0.16500 119244.000000
9142 14385 1 0.16500 119244.000000
9142 14879 1 0.16500 119244.000000
9143 20578 1 0.16500 119244.000000
9143 21733 1 0.16500 119244.000000
9144 14636 1 0.16500 119244.000000
9144 20578 1 0.16500 119244.000000
9145 14386 1 0.16500 119244.000000
9145 15196 1 0.16500 119244.000000
9146 15685 1 0.16500 119244.000000
9146 16369 1 0.16500 119244.000000
9147 14898 1 0.16500 119244.000000
9147 15685 1 0.16500 119244.000000
9148 14388 1 0.16500 119244.000000
9148 15685 1 0.16500 119244.000000
9149 14389 1 0.16500 119244.000000
9149 16471 1 0.16500 119244.000000
9150 14389 1 0.16500 119244.000000
9150 15758 1 0.16500 119244.000000
9151 14389 1 0.16500 119244.000000
9151 14508 1 0.16500 119244.000000
9152 14390 1 0.16500 119244.000000
9152 14978 1 0.16500 119244.000000
9153 14390 1 0.16500 119244.000000
9153 15671 1 0.16500 119244.000000
9154 14390 1 0.16500 119244.000000
9154 15718 1 0.16500 119244.000000
9155 14391 1 0.16500 119244.000000
9155 16108 1 0.16500 119244.000000
9156 14392 1 0.16500 119244.000000
9156 15695 1 0.16500 119244.000000
9157 14392 1 0.16500 119244.000000
9157 15988 1 0.16500 119244.000000
9158 14393 1 0.16500 119244.000000
9158 15741 1 0.16500 119244.000000
9159 12865 1 0.16500 119244.000000
9159 14747 1 0.16500 119244.000000
9160 14394 1 0.16500 119244.000000
9160 16000 1 0.16500 119244.000000
9161 14394 1 0.16500 119244.000000
9161 15820 1 0.16500 119244.000000
9162 14394 1 0.16500 119244.000000
9162 15514 1 0.16500 119244.000000
9163 14395 1 0.16500 119244.000000
9163 14726 1 0.16500 119244.000000
9164 14395 1 0.16500 119244.000000
9164 16630 1 0.16500 119244.000000
9165 14395 1 0.16500 119244.000000
9165 16621 1 0.16500 119244.000000
9166 14396 1 0.16500 119244.000000
9166 16517 1 0.16500 119244.000000
9167 14396 1 0.16500 119244.000000
9167 15304 1 0.16500 119244.000000
9168 15755 1 0.16500 119244.000000
9168 21649 1 0.16500 119244.000000
9169 14398 1 0.16500 119244.000000
9169 15386 1 0.16500 119244.000000
9170 14400 1 0.16500 119244.000000
9170 15249 1 0.16500 119244.000000
9171 14400 1 0.16500 119244.000000
9171 16407 1 0.16500 119244.000000
9172 12543 1 0.16500 119244.000000
9172 21865 1 0.16500 119244.000000
9173 14401 1 0.16500 119244.000000
9173 15613 1 0.16500 119244.000000
9174 11921 1 0.16500 119244.000000
9174 16503 1 0.16500 119244.000000
9175 15238 1 0.16500 119244.000000
9175 15613 1 0.16500 119244.000000
9176 14402 1 0.16500 119244.000000
9176 15079 1 0.16500 119244.000000
9177 14402 1 0.16500 119244.000000
9177 16096 1 0.16500 119244.000000
9178 14403 1 0.16500 119244.000000
9178 14839 1 0.16500 119244.000000
9179 14404 1 0.16500 119244.000000
9179 15367 1 0.16500 119244.000000
9180 13883 1 0.16500 119244.000000
9180 15279 1 0.16500 119244.000000
9181 14404 1 0.16500 119244.000000
9181 16306 1 0.16500 119244.000000
9182 14405 1 0.16500 119244.000000
9182 16027 1 0.16500 119244.000000
9183 14407 1 0.16500 119244.000000
9183 21790 1 0.16500 119244.000000
9184 14407 1 0.16500 119244.000000
9184 14638 1 0.16500 119244.000000
9185 14408 1 0.16500 119244.000000
9185 16062 1 0.16500 119244.000000
9186 14410 1 0.16500 119244.000000
9186 16435 1 0.16500 119244.000000
9187 14411 1 0.16500 119244.000000
9187 14578 1 0.16500 119244.000000
9188 14412 1 0.16500 119244.000000
9188 15250 1 0.16500 119244.000000
9189 16686 1 0.16500 119244.000000
9189 18958 1 0.16500 119244.000000
9190 15133 1 0.16500 119244.000000
9190 18958 1 0.16500 119244.000000
9191 18838 1 0.16500 119244.000000
9191 18958 1 0.16500 119244.000000
9192 14413 1 0.16500 119244.000000
9192 14866 1 0.16500 119244.000000
9193 14414 1 0.16500 119244.000000
9193 15393 1 0.16500 119244.000000
9194 12583 1 0.16500 119244.000000
9194 17190 1 0.16500 119244.000000
9195 14416 1 0.16500 119244.000000
9195 16542 1 0.16500 119244.000000
9196 14417 1 0.16500 119244.000000
9196 16020 1 0.16500 119244.000000
9197 14417 1 0.16500 119244.000000
9197 15625 1 0.16500 119244.000000
9198 14418 1 0.16500 119244.000000
9198 15472 1 0.16500 119244.000000
9199 14418 1 0.16500 119244.000000
9199 16007 1 0.16500 119244.000000
9200 14418 1 0.16500 119244.000000
9200 16008 1 0.16500 119244.000000
9201 14419 1 0.16500 119244.000000
9201 15173 1 0.16500 119244.000000
9202 14419 1 0.16500 119244.000000
9202 16236 1 0.16500 119244.000000
9203 14420 1 0.16500 119244.000000
9203 15990 1 0.16500 119244.000000
9204 14420 1 0.16500 119244.000000
9204 15303 1 0.16500 119244.000000
9205 14421 1 0.16500 119244.000000
9205 16447 1 0.16500 119244.000000
9206 14421 1 0.16500 119244.000000
9206 14709 1 0.16500 119244.000000
9207 14423 1 0.16500 119244.000000
9207 16451 1 0.16500 119244.000000
9208 14423 1 0.16500 119244.000000
9208 16112 1 0.16500 119244.000000
9209 14423 1 0.16500 119244.000000
9209 15291 1 0.16500 119244.000000
9210 14424 1 0.16500 119244.000000
9210 15604 1 0.16500 119244.000000
9211 14424 1 0.16500 119244.000000
9211 16550 1 0.16500 119244.000000
9212 14424 1 0.16500 119244.000000
9212 15513 1 0.16500 119244.000000
9213 14425 1 0.16500 119244.000000
9213 14471 1 0.16500 119244.000000
9214 14426 1 0.16500 119244.000000
9214 15106 1 0.16500 119244.000000
9215 14427 1 0.16500 119244.000000
9215 15693 1 0.16500 119244.000000
9216 14516 1 0.16500 119244.000000
9216 15869 1 0.16500 119244.000000
9217 14845 1 0.16500 119244.000000
9217 16244 1 0.16500 119244.000000
9218 14428 1 0.16500 119244.000000
9218 14845 1 0.16500 119244.000000
9219 14429 1 0.16500 119244.000000
9219 14440 1 0.16500 119244.000000
9220 14430 1 0.16500 119244.000000
9220 15149 1 0.16500 119244.000000
9221 14430 1 0.16500 119244.000000
9221 16041 1 0.16500 119244.000000
9222 14431 1 0.16500 119244.000000
9222 15295 1 0.16500 119244.000000
9223 14432 1 0.16500 119244.000000
9223 14704 1 0.16500 119244.000000
9224 14432 1 0.16500 119244.000000
9224 14795 1 0.16500 119244.000000
9225 14433 1 0.16500 119244.000000
9225 15250 1 0.16500 119244.000000
9226 14434 1 0.16500 119244.000000
9226 15388 1 0.16500 119244.000000
9227 14434 1 0.16500 119244.000000
9227 14567 1 0.16500 119244.000000
9228 12367 1 0.16500 119244.000000
9228 14435 1 0.16500 119244.000000
9229 14436 1 0.16500 119244.000000
9229 15003 1 0.16500 119244.000000
9230 14436 1 0.16500 119244.000000
9230 14597 1 0.16500 119244.000000
9231 14436 1 0.16500 119244.000000
9231 16321 1 0.16500 119244.000000
9232 14439 1 0.16500 119244.000000
9232 15826 1 0.16500 119244.000000
9233 14439 1 0.16500 119244.000000
9233 15825 1 0.16500 119244.000000
9234 14441 1 0.16500 119244.000000
9234 15441 1 0.16500 119244.000000
9235 14441 1 0.16500 119244.000000
9235 14683 1 0.16500 119244.000000
9236 14442 1 0.16500 119244.000000
9236 15835 1 0.16500 119244.000000
9237 14442 1 0.16500 119244.000000
9237 14778 1 0.16500 119244.000000
9238 14443 1 0.16500 119244.000000
9238 16345 1 0.16500 119244.000000
9239 14443 1 0.16500 119244.000000
9239 14883 1 0.16500 119244.000000
9240 14444 1 0.16500 119244.000000
9240 15223 1 0.16500 119244.000000
9241 14444 1 0.16500 119244.000000
9241 14761 1 0.16500 119244.000000
9242 14444 1 0.16500 119244.000000
9242 16161 1 0.16500 119244.000000
9243 14445 1 0.16500 119244.000000
9243 16384 1 0.16500 119244.000000
9244 14445 1 0.16500 119244.000000
9244 14498 1 0.16500 119244.000000
9245 14446 1 0.16500 119244.000000
9245 15573 1 0.16500 119244.000000
9246 14446 1 0.16500 119244.000000
9246 14752 1 0.16500 119244.000000
9247 14446 1 0.16500 119244.000000
9247 15936 1 0.16500 119244.000000
9248 14447 1 0.16500 119244.000000
9248 15705 1 0.16500 119244.000000
9249 14447 1 0.16500 119244.000000
9249 14454 1 0.16500 119244.000000
9250 14447 1 0.16500 119244.000000
9250 14564 1 0.16500 119244.000000
9251 14448 1 0.16500 119244.000000
9251 14754 1 0.16500 119244.000000
9252 14448 1 0.16500 119244.000000
9252 15536 1 0.16500 119244.000000
9253 14449 1 0.16500 119244.000000
9253 16584 1 0.16500 119244.000000
9254 16286 1 0.16500 119244.000000
9254 20698 1 0.16500 119244.000000
9255 14450 1 0.16500 119244.000000
9255 14995 1 0.16500 119244.000000
9256 14450 1 0.16500 119244.000000
9256 14598 1 0.16500 119244.000000
9257 14451 1 0.16500 119244.000000
9257 16044 1 0.16500 119244.000000
9258 14451 1 0.16500 119244.000000
9258 15742 1 0.16500 119244.000000
9259 14452 1 0.16500 119244.000000
9259 15875 1 0.16500 119244.000000
9260 14452 1 0.16500 119244.000000
9260 14738 1 0.16500 119244.000000
9261 14453 1 0.16500 119244.000000
9261 14809 1 0.16500 119244.000000
9262 14453 1 0.16500 119244.000000
9262 15195 1 0.16500 119244.000000
9263 15951 1 0.16500 119244.000000
9263 17470 1 0.16500 119244.000000
9264 14991 1 0.16500 119244.000000
9264 17470 1 0.16500 119244.000000
9265 14454 1 0.16500 119244.000000
9265 15925 1 0.16500 119244.000000
9266 14457 1 0.16500 119244.000000
9266 15757 1 0.16500 119244.000000
9267 14457 1 0.16500 119244.000000
9267 15023 1 0.16500 119244.000000
9268 14457 1 0.16500 119244.000000
9268 16273 1 0.16500 119244.000000
9269 18994 1 0.16500 119244.000000
9269 21736 1 0.16500 119244.000000
9270 14458 1 0.16500 119244.000000
9270 21679 1 0.16500 119244.000000
9271 15075 1 0.16500 119244.000000
9271 21679 1 0.16500 119244.000000
9272 14459 1 0.16500 119244.000000
9272 15751 1 0.16500 119244.000000
9273 14459 1 0.16500 119244.000000
9273 15013 1 0.16500 119244.000000
9274 14459 1 0.16500 119244.000000
9274 16451 1 0.16500 119244.000000
9275 14460 1 0.16500 119244.000000
9275 15509 1 0.16500 119244.000000
9276 20146 1 0.16500 119244.000000
9276 21847 1 0.16500 119244.000000
9277 14461 1 0.16500 119244.000000
9277 15743 1 0.16500 119244.000000
9278 14462 1 0.16500 119244.000000
9278 16592 1 0.16500 119244.000000
9279 14463 1 0.16500 119244.000000
9279 16051 1 0.16500 119244.000000
9280 14463 1 0.16500 119244.000000
9280 14478 1 0.16500 119244.000000
9281 14463 1 0.16500 119244.000000
9281 16549 1 0.16500 119244.000000
9282 14464 1 0.16500 119244.000000
9282 14572 1 0.16500 119244.000000
9283 12170 1 0.16500 119244.000000
9283 15737 1 0.16500 119244.000000
9284 14466 1 0.16500 119244.000000
9284 20278 1 0.16500 119244.000000
9285 14467 1 0.16500 119244.000000
9285 16227 1 0.16500 119244.000000
9286 14468 1 0.16500 119244.000000
9286 15839 1 0.16500 119244.000000
9287 14469 1 0.16500 119244.000000
9287 15139 1 0.16500 119244.000000
9288 14469 1 0.16500 119244.000000
9288 14686 1 0.16500 119244.000000
9289 14470 1 0.16500 119244.000000
9289 15143 1 0.16500 119244.000000
9290 14470 1 0.16500 119244.000000
9290 15713 1 0.16500 119244.000000
9291 14470 1 0.16500 119244.000000
9291 16282 1 0.16500 119244.000000
9292 14471 1 0.16500 119244.000000
9292 15241 1 0.16500 119244.000000
9293 14471 1 0.16500 119244.000000
9293 16547 1 0.16500 119244.000000
9294 14473 1 0.16500 119244.000000
9294 16048 1 0.16500 119244.000000
9295 14474 1 0.16500 119244.000000
9295 16162 1 0.16500 119244.000000
9296 14474 1 0.16500 119244.000000
9296 15842 1 0.16500 119244.000000
9297 14475 1 0.16500 119244.000000
9297 16514 1 0.16500 119244.000000
9298 14475 1 0.16500 119244.000000
9298 14730 1 0.16500 119244.000000
9299 14475 1 0.16500 119244.000000
9299 14715 1 0.16500 119244.000000
9300 14476 1 0.16500 119244.000000
9300 15887 1 0.16500 119244.000000
9301 14476 1 0.16500 119244.000000
9301 15608 1 0.16500 119244.000000
9302 14477 1 0.16500 119244.000000
9302 15945 1 0.16500 119244.000000
9303 14477 1 0.16500 119244.000000
9303 15416 1 0.16500 119244.000000
9304 12280 1 0.16500 119244.000000
9304 14478 1 0.16500 119244.000000
9305 14479 1 0.16500 119244.000000
9305 15499 1 0.16500 119244.000000
9306 14479 1 0.16500 119244.000000
9306 15723 1 0.16500 119244.000000
9307 14479 1 0.16500 119244.000000
9307 14864 1 0.16500 119244.000000
9308 14480 1 0.16500 119244.000000
9308 15421 1 0.16500 119244.000000
9309 14482 1 0.16500 119244.000000
9309 16378 1 0.16500 119244.000000
9310 14483 1 0.16500 119244.000000
9310 14753 1 0.16500 119244.000000
9311 14483 1 0.16500 119244.000000
9311 15614 1 0.16500 119244.000000
9312 14484 1 0.16500 119244.000000
9312 15369 1 0.16500 119244.000000
9313 14484 1 0.16500 119244.000000
9313 16296 1 0.16500 119244.000000
9314 14484 1 0.16500 119244.000000
9314 15012 1 0.16500 119244.000000
9315 14486 1 0.16500 119244.000000
9315 15580 1 0.16500 119244.000000
9316 14486 1 0.16500 119244.000000
9316 15235 1 0.16500 119244.000000
9317 14487 1 0.16500 119244.000000
9317 16242 1 0.16500 119244.000000
9318 14490 1 0.16500 119244.000000
9318 14650 1 0.16500 119244.000000
9319 14490 1 0.16500 119244.000000
9319 16520 1 0.16500 119244.000000
9320 14490 1 0.16500 119244.000000
9320 14899 1 0.16500 119244.000000
9321 14491 1 0.16500 119244.000000
9321 14910 1 0.16500 119244.000000
9322 14491 1 0.16500 119244.000000
9322 16552 1 0.16500 119244.000000
9323 14492 1 0.16500 119244.000000
9323 15611 1 0.16500 119244.000000
9324 14493 1 0.16500 119244.000000
9324 15595 1 0.16500 119244.000000
9325 14493 1 0.16500 119244.000000
9325 15374 1 0.16500 119244.000000
9326 14495 1 0.16500 119244.000000
9326 15695 1 0.16500 119244.000000
9327 14495 1 0.16500 119244.000000
9327 15741 1 0.16500 119244.000000
9328 14496 1 0.16500 119244.000000
9328 15668 1 0.16500 119244.000000
9329 12027 1 0.16500 119244.000000
9329 12809 1 0.16500 119244.000000
9330 14497 1 0.16500 119244.000000
9330 15378 1 0.16500 119244.000000
9331 14498 1 0.16500 119244.000000
9331 15035 1 0.16500 119244.000000
9332 14498 1 0.16500 119244.000000
9332 16220 1 0.16500 119244.000000
9333 14498 1 0.16500 119244.000000
9333 15917 1 0.16500 119244.000000
9334 14499 1 0.16500 119244.000000
9334 15418 1 0.16500 119244.000000
9335 13447 1 0.16500 119244.000000
9335 14499 1 0.16500 119244.000000
9336 14500 1 0.16500 119244.000000
9336 15162 1 0.16500 119244.000000
9337 14501 1 0.16500 119244.000000
9337 15756 1 0.16500 119244.000000
9338 14501 1 0.16500 119244.000000
9338 15205 1 0.16500 119244.000000
9339 14502 1 0.16500 119244.000000
9339 16472 1 0.16500 119244.000000
9340 14503 1 0.16500 119244.000000
9340 15598 1 0.16500 119244.000000
9341 14503 1 0.16500 119244.000000
9341 15933 1 0.16500 119244.000000
9342 14504 1 0.16500 119244.000000
9342 16263 1 0.16500 119244.000000
9343 14504 1 0.16500 119244.000000
9343 15026 1 0.16500 119244.000000
9344 14505 1 0.16500 119244.000000
9344 19570 1 0.16500 119244.000000
9345 14505 1 0.16500 119244.000000
9345 16023 1 0.16500 119244.000000
9346 14506 1 0.16500 119244.000000
9346 15315 1 0.16500 119244.000000
9347 14507 1 0.16500 119244.000000
9347 15033 1 0.16500 119244.000000
9348 20098 1 0.16500 119244.000000
9348 21832 1 0.16500 119244.000000
9349 14508 1 0.16500 119244.000000
9349 15887 1 0.16500 119244.000000
9350 14509 1 0.16500 119244.000000
9350 14832 1 0.16500 119244.000000
9351 14510 1 0.16500 119244.000000
9351 14741 1 0.16500 119244.000000
9352 12479 1 0.16500 119244.000000
9352 14510 1 0.16500 119244.000000
9353 16183 1 0.16500 119244.000000
9353 21655 1 0.16500 119244.000000
9354 14511 1 0.16500 119244.000000
9354 16363 1 0.16500 119244.000000
9355 14512 1 0.16500 119244.000000
9355 15000 1 0.16500 119244.000000
9356 14512 1 0.16500 119244.000000
9356 15733 1 0.16500 119244.000000
9357 14513 1 0.16500 119244.000000
9357 14923 1 0.16500 119244.000000
9358 14514 1 0.16500 119244.000000
9358 15904 1 0.16500 119244.000000
9359 14874 1 0.16500 119244.000000
9359 15891 1 0.16500 119244.000000
9360 14514 1 0.16500 119244.000000
9360 14874 1 0.16500 119244.000000
9361 14515 1 0.16500 119244.000000
9361 15720 1 0.16500 119244.000000
9362 14427 1 0.16500 119244.000000
9362 15869 1 0.16500 119244.000000
9363 14517 1 0.16500 119244.000000
9363 15997 1 0.16500 119244.000000
9364 14517 1 0.16500 119244.000000
9364 14580 1 0.16500 119244.000000
9365 14518 1 0.16500 119244.000000
9365 15767 1 0.16500 119244.000000
9366 14518 1 0.16500 119244.000000
9366 15094 1 0.16500 119244.000000
9367 14518 1 0.16500 119244.000000
9367 16115 1 0.16500 119244.000000
9368 14519 1 0.16500 119244.000000
9368 16433 1 0.16500 119244.000000
9369 14519 1 0.16500 119244.000000
9369 15926 1 0.16500 119244.000000
9370 14520 1 0.16500 119244.000000
9370 14784 1 0.16500 119244.000000
9371 14521 1 0.16500 119244.000000
9371 14986 1 0.16500 119244.000000
9372 14521 1 0.16500 119244.000000
9372 16042 1 0.16500 119244.000000
9373 14522 1 0.16500 119244.000000
9373 16129 1 0.16500 119244.000000
9374 14523 1 0.16500 119244.000000
9374 14992 1 0.16500 119244.000000
9375 16200 1 0.16500 119244.000000
9375 20026 1 0.16500 119244.000000
9376 14524 1 0.16500 119244.000000
9376 16253 1 0.16500 119244.000000
9377 14524 1 0.16500 119244.000000
9377 15577 1 0.16500 119244.000000
9378 14525 1 0.16500 119244.000000
9378 15560 1 0.16500 119244.000000
9379 14525 1 0.16500 119244.000000
9379 14768 1 0.16500 119244.000000
9380 14526 1 0.16500 119244.000000
9380 15274 1 0.16500 119244.000000
9381 14526 1 0.16500 119244.000000
9381 16470 1 0.16500 119244.000000
9382 14527 1 0.16500 119244.000000
9382 16250 1 0.16500 119244.000000
9383 14527 1 0.16500 119244.000000
9383 14587 1 0.16500 119244.000000
9384 14146 1 0.16500 119244.000000
9384 14528 1 0.16500 119244.000000
9385 14529 1 0.16500 119244.000000
9385 16549 1 0.16500 119244.000000
9386 14529 1 0.16500 119244.000000
9386 14805 1 0.16500 119244.000000
9387 14529 1 0.16500 119244.000000
9387 16390 1 0.16500 119244.000000
9388 16139 1 0.16500 119244.000000
9388 20962 1 0.16500 119244.000000
9389 14530 1 0.16500 119244.000000
9389 15637 1 0.16500 119244.000000
9390 14530 1 0.16500 119244.000000
9390 14615 1 0.16500 119244.000000
9391 14531 1 0.16500 119244.000000
9391 15718 1 0.16500 119244.000000
9392 14532 1 0.16500 119244.000000
9392 14813 1 0.16500 119244.000000
9393 14533 1 0.16500 119244.000000
9393 14834 1 0.16500 119244.000000
9394 14533 1 0.16500 119244.000000
9394 19942 1 0.16500 119244.000000
9395 14533 1 0.16500 119244.000000
9395 21919 1 0.16500 119244.000000
9396 14534 1 0.16500 119244.000000
9396 16238 1 0.16500 119244.000000
9397 14536 1 0.16500 119244.000000
9397 15796 1 0.16500 119244.000000
9398 14536 1 0.16500 119244.000000
9398 14981 1 0.16500 119244.000000
9399 14536 1 0.16500 119244.000000
9399 16299 1 0.16500 119244.000000
9400 14537 1 0.16500 119244.000000
9400 14615 1 0.16500 119244.000000
9401 14538 1 0.16500 119244.000000
9401 14704 1 0.16500 119244.000000
9402 14539 1 0.16500 119244.000000
9402 17722 1 0.16500 119244.000000
9403 14539 1 0.16500 119244.000000
9403 14732 1 0.16500 119244.000000
9404 14540 1 0.16500 119244.000000
9404 15297 1 0.16500 119244.000000
9405 17176 1 0.16500 119244.000000
9405 18850 1 0.16500 119244.000000
9406 14543 1 0.16500 119244.000000
9406 15341 1 0.16500 119244.000000
9407 14544 1 0.16500 119244.000000
9407 15771 1 0.16500 119244.000000
9408 14544 1 0.16500 119244.000000
9408 16273 1 0.16500 119244.000000
9409 14545 1 0.16500 119244.000000
9409 16014 1 0.16500 119244.000000
9410 14546 1 0.16500 119244.000000
9410 15681 1 0.16500 119244.000000
9411 14546 1 0.16500 119244.000000
9411 16274 1 0.16500 119244.000000
9412 14547 1 0.16500 119244.000000
9412 14572 1 0.16500 119244.000000
9413 14547 1 0.16500 119244.000000
9413 15537 1 0.16500 119244.000000
9414 14548 1 0.16500 119244.000000
9414 15546 1 0.16500 119244.000000
9415 14549 1 0.16500 119244.000000
9415 14949 1 0.16500 119244.000000
9416 14549 1 0.16500 119244.000000
9416 15705 1 0.16500 119244.000000
9417 14549 1 0.16500 119244.000000
9417 15281 1 0.16500 119244.000000
9418 14549 1 0.16500 119244.000000
9418 16625 1 0.16500 119244.000000
9419 14550 1 0.16500 119244.000000
9419 14865 1 0.16500 119244.000000
9420 14551 1 0.16500 119244.000000
9420 16297 1 0.16500 119244.000000
9421 13002 1 0.16500 119244.000000
9421 14551 1 0.16500 119244.000000
9422 14551 1 0.16500 119244.000000
9422 15321 1 0.16500 119244.000000
9423 14552 1 0.16500 119244.000000
9423 14902 1 0.16500 119244.000000
9424 14552 1 0.16500 119244.000000
9424 15011 1 0.16500 119244.000000
9425 14552 1 0.16500 119244.000000
9425 15857 1 0.16500 119244.000000
9426 14553 1 0.16500 119244.000000
9426 14619 1 0.16500 119244.000000
9427 14554 1 0.16500 119244.000000
9427 15227 1 0.16500 119244.000000
9428 14555 1 0.16500 119244.000000
9428 14784 1 0.16500 119244.000000
9429 14555 1 0.16500 119244.000000
9429 16596 1 0.16500 119244.000000
9430 14964 1 0.16500 119244.000000
9430 21658 1 0.16500 119244.000000
9431 14556 1 0.16500 119244.000000
9431 15998 1 0.16500 119244.000000
9432 14557 1 0.16500 119244.000000
9432 14637 1 0.16500 119244.000000
9433 14557 1 0.16500 119244.000000
9433 15277 1 0.16500 119244.000000
9434 14558 1 0.16500 119244.000000
9434 16582 1 0.16500 119244.000000
9435 14559 1 0.16500 119244.000000
9435 16044 1 0.16500 119244.000000
9436 14559 1 0.16500 119244.000000
9436 16553 1 0.16500 119244.000000
9437 14560 1 0.16500 119244.000000
9437 14734 1 0.16500 119244.000000
9438 14562 1 0.16500 119244.000000
9438 15097 1 0.16500 119244.000000
9439 14562 1 0.16500 119244.000000
9439 16611 1 0.16500 119244.000000
9440 14563 1 0.16500 119244.000000
9440 15304 1 0.16500 119244.000000
9441 14564 1 0.16500 119244.000000
9441 15532 1 0.16500 119244.000000
9442 14565 1 0.16500 119244.000000
9442 15464 1 0.16500 119244.000000
9443 14565 1 0.16500 119244.000000
9443 16185 1 0.16500 119244.000000
9444 14566 1 0.16500 119244.000000
9444 16119 1 0.16500 119244.000000
9445 14567 1 0.16500 119244.000000
9445 14926 1 0.16500 119244.000000
9446 14567 1 0.16500 119244.000000
9446 15536 1 0.16500 119244.000000
9447 14567 1 0.16500 119244.000000
9447 14921 1 0.16500 119244.000000
9448 14568 1 0.16500 119244.000000
9448 15831 1 0.16500 119244.000000
9449 14568 1 0.16500 119244.000000
9449 14991 1 0.16500 119244.000000
9450 14568 1 0.16500 119244.000000
9450 16182 1 0.16500 119244.000000
9451 14569 1 0.16500 119244.000000
9451 16483 1 0.16500 119244.000000
9452 14017 1 0.16500 119244.000000
9452 14592 1 0.16500 119244.000000
9453 14570 1 0.16500 119244.000000
9453 15572 1 0.16500 119244.000000
9454 14570 1 0.16500 119244.000000
9454 14682 1 0.16500 119244.000000
9455 14571 1 0.16500 119244.000000
9455 15286 1 0.16500 119244.000000
9456 16501 1 0.16500 119244.000000
9456 18338 1 0.16500 119244.000000
9457 14572 1 0.16500 119244.000000
9457 15183 1 0.16500 119244.000000
9458 14708 1 0.16500 119244.000000
9458 21661 1 0.16500 119244.000000
9459 14573 1 0.16500 119244.000000
9459 15621 1 0.16500 119244.000000
9460 14573 1 0.16500 119244.000000
9460 18490 1 0.16500 119244.000000
9461 14574 1 0.16500 119244.000000
9461 16310 1 0.16500 119244.000000
9462 14574 1 0.16500 119244.000000
9462 16092 1 0.16500 119244.000000
9463 14574 1 0.16500 119244.000000
9463 15119 1 0.16500 119244.000000
9464 14998 1 0.16500 119244.000000
9464 17554 1 0.16500 119244.000000
9465 12868 1 0.16500 119244.000000
9465 14845 1 0.16500 119244.000000
9466 14575 1 0.16500 119244.000000
9466 15063 1 0.16500 119244.000000
9467 14576 1 0.16500 119244.000000
9467 15803 1 0.16500 119244.000000
9468 14576 1 0.16500 119244.000000
9468 14930 1 0.16500 119244.000000
9469 12602 1 0.16500 119244.000000
9469 14577 1 0.16500 119244.000000
9470 14577 1 0.16500 119244.000000
9470 16149 1 0.16500 119244.000000
9471 14577 1 0.16500 119244.000000
9471 19666 1 0.16500 119244.000000
9472 14579 1 0.16500 119244.000000
9472 15796 1 0.16500 119244.000000
9473 14580 1 0.16500 119244.000000
9473 14698 1 0.16500 119244.000000
9474 14580 1 0.16500 119244.000000
9474 16320 1 0.16500 119244.000000
9475 14581 1 0.16500 119244.000000
9475 16609 1 0.16500 119244.000000
9476 14581 1 0.16500 119244.000000
9476 15181 1 0.16500 119244.000000
9477 14581 1 0.16500 119244.000000
9477 15123 1 0.16500 119244.000000
9478 14582 1 0.16500 119244.000000
9478 16117 1 0.16500 119244.000000
9479 14583 1 0.16500 119244.000000
9479 20014 1 0.16500 119244.000000
9480 14583 1 0.16500 119244.000000
9480 15993 1 0.16500 119244.000000
9481 14584 1 0.16500 119244.000000
9481 14931 1 0.16500 119244.000000
9482 14585 1 0.16500 119244.000000
9482 15530 1 0.16500 119244.000000
9483 14586 1 0.16500 119244.000000
9483 15495 1 0.16500 119244.000000
9484 14587 1 0.16500 119244.000000
9484 16547 1 0.16500 119244.000000
9485 14527 1 0.16500 119244.000000
9485 14859 1 0.16500 119244.000000
9486 12418 1 0.16500 119244.000000
9486 15328 1 0.16500 119244.000000
9487 14588 1 0.16500 119244.000000
9487 14640 1 0.16500 119244.000000
9488 14589 1 0.16500 119244.000000
9488 16462 1 0.16500 119244.000000
9489 14589 1 0.16500 119244.000000
9489 15244 1 0.16500 119244.000000
9490 14590 1 0.16500 119244.000000
9490 15059 1 0.16500 119244.000000
9491 14590 1 0.16500 119244.000000
9491 14857 1 0.16500 119244.000000
9492 21664 1 0.16500 119244.000000
9492 21736 1 0.16500 119244.000000
9493 14591 1 0.16500 119244.000000
9493 15736 1 0.16500 119244.000000
9494 14592 1 0.16500 119244.000000
9494 14724 1 0.16500 119244.000000
9495 14593 1 0.16500 119244.000000
9495 15419 1 0.16500 119244.000000
9496 14594 1 0.16500 119244.000000
9496 14999 1 0.16500 119244.000000
9497 14595 1 0.16500 119244.000000
9497 15667 1 0.16500 119244.000000
9498 14595 1 0.16500 119244.000000
9498 15120 1 0.16500 119244.000000
9499 14596 1 0.16500 119244.000000
9499 15624 1 0.16500 119244.000000
9500 16055 1 0.16500 119244.000000
9500 20686 1 0.16500 119244.000000
9501 14598 1 0.16500 119244.000000
9501 14615 1 0.16500 119244.000000
9502 14598 1 0.16500 119244.000000
9502 15083 1 0.16500 119244.000000
9503 14600 1 0.16500 119244.000000
9503 16487 1 0.16500 119244.000000
9504 14601 1 0.16500 119244.000000
9504 20266 1 0.16500 119244.000000
9505 16298 1 0.16500 119244.000000
9505 21853 1 0.16500 119244.000000
9506 21667 1 0.16500 119244.000000
9506 21853 1 0.16500 119244.000000
9507 14602 1 0.16500 119244.000000
9507 15716 1 0.16500 119244.000000
9508 13564 1 0.16500 119244.000000
9508 14602 1 0.16500 119244.000000
9509 14603 1 0.16500 119244.000000
9509 15209 1 0.16500 119244.000000
9510 12572 1 0.16500 119244.000000
9510 15750 1 0.16500 119244.000000
9511 14604 1 0.16500 119244.000000
9511 14668 1 0.16500 119244.000000
9512 14604 1 0.16500 119244.000000
9512 15637 1 0.16500 119244.000000
9513 14606 1 0.16500 119244.000000
9513 14641 1 0.16500 119244.000000
9514 14606 1 0.16500 119244.000000
9514 15153 1 0.16500 119244.000000
9515 14606 1 0.16500 119244.000000
9515 15068 1 0.16500 119244.000000
9516 14606 1 0.16500 119244.000000
9516 16547 1 0.16500 119244.000000
9517 12110 1 0.16500 119244.000000
9517 15736 1 0.16500 119244.000000
9518 14608 1 0.16500 119244.000000
9518 15883 1 0.16500 119244.000000
9519 14609 1 0.16500 119244.000000
9519 14762 1 0.16500 119244.000000
9520 14610 1 0.16500 119244.000000
9520 15213 1 0.16500 119244.000000
9521 14611 1 0.16500 119244.000000
9521 14696 1 0.16500 119244.000000
9522 14612 1 0.16500 119244.000000
9522 16622 1 0.16500 119244.000000
9523 14613 1 0.16500 119244.000000
9523 16475 1 0.16500 119244.000000
9524 14613 1 0.16500 119244.000000
9524 16418 1 0.16500 119244.000000
9525 14614 1 0.16500 119244.000000
9525 15888 1 0.16500 119244.000000
9526 15345 1 0.16500 119244.000000
9526 20014 1 0.16500 119244.000000
9527 14616 1 0.16500 119244.000000
9527 15662 1 0.16500 119244.000000
9528 14616 1 0.16500 119244.000000
9528 15894 1 0.16500 119244.000000
9529 14617 1 0.16500 119244.000000
9529 14692 1 0.16500 119244.000000
9530 14617 1 0.16500 119244.000000
9530 14768 1 0.16500 119244.000000
9531 14617 1 0.16500 119244.000000
9531 15701 1 0.16500 119244.000000
9532 15315 1 0.16500 119244.000000
9532 15821 1 0.16500 119244.000000
9533 14618 1 0.16500 119244.000000
9533 15315 1 0.16500 119244.000000
9534 14618 1 0.16500 119244.000000
9534 16572 1 0.16500 119244.000000
9535 14619 1 0.16500 119244.000000
9535 15103 1 0.16500 119244.000000
9536 14620 1 0.16500 119244.000000
9536 16090 1 0.16500 119244.000000
9537 14620 1 0.16500 119244.000000
9537 15550 1 0.16500 119244.000000
9538 14621 1 0.16500 119244.000000
9538 14808 1 0.16500 119244.000000
9539 14621 1 0.16500 119244.000000
9539 16454 1 0.16500 119244.000000
9540 14622 1 0.16500 119244.000000
9540 14753 1 0.16500 119244.000000
9541 14623 1 0.16500 119244.000000
9541 21922 1 0.16500 119244.000000
9542 14623 1 0.16500 119244.000000
9542 20362 1 0.16500 119244.000000
9543 14623 1 0.16500 119244.000000
9543 16063 1 0.16500 119244.000000
9544 14623 1 0.16500 119244.000000
9544 15044 1 0.16500 119244.000000
9545 14624 1 0.16500 119244.000000
9545 15342 1 0.16500 119244.000000
9546 14625 1 0.16500 119244.000000
9546 16450 1 0.16500 119244.000000
9547 14626 1 0.16500 119244.000000
9547 15076 1 0.16500 119244.000000
9548 14626 1 0.16500 119244.000000
9548 14749 1 0.16500 119244.000000
9549 21094 1 0.16500 119244.000000
9549 21580 1 0.16500 119244.000000
9550 14629 1 0.16500 119244.000000
9550 15358 1 0.16500 119244.000000
9551 14629 1 0.16500 119244.000000
9551 15426 1 0.16500 119244.000000
9552 14630 1 0.16500 119244.000000
9552 16167 1 0.16500 119244.000000
9553 14630 1 0.16500 119244.000000
9553 16089 1 0.16500 119244.000000
9554 14630 1 0.16500 119244.000000
9554 15167 1 0.16500 119244.000000
9555 14631 1 0.16500 119244.000000
9555 15677 1 0.16500 119244.000000
9556 14632 1 0.16500 119244.000000
9556 14713 1 0.16500 119244.000000
9557 14632 1 0.16500 119244.000000
9557 21697 1 0.16500 119244.000000
9558 17372 1 0.16500 119244.000000
9558 21454 1 0.16500 119244.000000
9559 14633 1 0.16500 119244.000000
9559 15112 1 0.16500 119244.000000
9560 14633 1 0.16500 119244.000000
9560 15775 1 0.16500 119244.000000
9561 14634 1 0.16500 119244.000000
9561 18100 1 0.16500 119244.000000
9562 14634 1 0.16500 119244.000000
9562 21748 1 0.16500 119244.000000
9563 15003 1 0.16500 119244.000000
9563 16994 1 0.16500 119244.000000
9564 14635 1 0.16500 119244.000000
9564 15016 1 0.16500 119244.000000
9565 14636 1 0.16500 119244.000000
9565 16426 1 0.16500 119244.000000
9566 14636 1 0.16500 119244.000000
9566 16239 1 0.16500 119244.000000
9567 14557 1 0.16500 119244.000000
9567 15544 1 0.16500 119244.000000
9568 13964 1 0.16500 119244.000000
9568 17568 1 0.16500 119244.000000
9569 14638 1 0.16500 119244.000000
9569 15611 1 0.16500 119244.000000
9570 14638 1 0.16500 119244.000000
9570 15140 1 0.16500 119244.000000
9571 14639 1 0.16500 119244.000000
9571 15103 1 0.16500 119244.000000
9572 14641 1 0.16500 119244.000000
9572 15242 1 0.16500 119244.000000
9573 14642 1 0.16500 119244.000000
9573 15985 1 0.16500 119244.000000
9574 14643 1 0.16500 119244.000000
9574 15492 1 0.16500 119244.000000
9575 14643 1 0.16500 119244.000000
9575 19486 1 0.16500 119244.000000
9576 14644 1 0.16500 119244.000000
9576 21925 1 0.16500 119244.000000
9577 14644 1 0.16500 119244.000000
9577 16525 1 0.16500 119244.000000
9578 14645 1 0.16500 119244.000000
9578 19918 1 0.16500 119244.000000
9579 14646 1 0.16500 119244.000000
9579 15161 1 0.16500 119244.000000
9580 14647 1 0.16500 119244.000000
9580 16570 1 0.16500 119244.000000
9581 14648 1 0.16500 119244.000000
9581 21805 1 0.16500 119244.000000
9582 14648 1 0.16500 119244.000000
9582 15858 1 0.16500 119244.000000
9583 14648 1 0.16500 119244.000000
9583 22049 1 0.16500 119244.000000
9584 14651 1 0.16500 119244.000000
9584 16353 1 0.16500 119244.000000
9585 14651 1 0.16500 119244.000000
9585 15847 1 0.16500 119244.000000
9586 14652 1 0.16500 119244.000000
9586 16395 1 0.16500 119244.000000
9587 14653 1 0.16500 119244.000000
9587 16121 1 0.16500 119244.000000
9588 14654 1 0.16500 119244.000000
9588 16314 1 0.16500 119244.000000
9589 14654 1 0.16500 119244.000000
9589 16313 1 0.16500 119244.000000
9590 14654 1 0.16500 119244.000000
9590 15517 1 0.16500 119244.000000
9591 14656 1 0.16500 119244.000000
9591 14990 1 0.16500 119244.000000
9592 14656 1 0.16500 119244.000000
9592 15044 1 0.16500 119244.000000
9593 14657 1 0.16500 119244.000000
9593 15858 1 0.16500 119244.000000
9594 14657 1 0.16500 119244.000000
9594 15723 1 0.16500 119244.000000
9595 14658 1 0.16500 119244.000000
9595 16007 1 0.16500 119244.000000
9596 14658 1 0.16500 119244.000000
9596 14737 1 0.16500 119244.000000
9597 15300 1 0.16500 119244.000000
9597 16007 1 0.16500 119244.000000
9598 14659 1 0.16500 119244.000000
9598 14759 1 0.16500 119244.000000
9599 14659 1 0.16500 119244.000000
9599 16123 1 0.16500 119244.000000
9600 14660 1 0.16500 119244.000000
9600 15862 1 0.16500 119244.000000
9601 14903 1 0.16500 119244.000000
9601 21670 1 0.16500 119244.000000
9602 21670 1 0.16500 119244.000000
9602 21760 1 0.16500 119244.000000
9603 14661 1 0.16500 119244.000000
9603 21724 1 0.16500 119244.000000
9604 14662 1 0.16500 119244.000000
9604 16073 1 0.16500 119244.000000
9605 14662 1 0.16500 119244.000000
9605 14808 1 0.16500 119244.000000
9606 14663 1 0.16500 119244.000000
9606 15839 1 0.16500 119244.000000
9607 14664 1 0.16500 119244.000000
9607 15646 1 0.16500 119244.000000
9608 14664 1 0.16500 119244.000000
9608 15916 1 0.16500 119244.000000
9609 14665 1 0.16500 119244.000000
9609 16175 1 0.16500 119244.000000
9610 16175 1 0.16500 119244.000000
9610 16198 1 0.16500 119244.000000
9611 16080 1 0.16500 119244.000000
9611 16175 1 0.16500 119244.000000
9612 14666 1 0.16500 119244.000000
9612 16261 1 0.16500 119244.000000
9613 14666 1 0.16500 119244.000000
9613 15672 1 0.16500 119244.000000
9614 14667 1 0.16500 119244.000000
9614 15362 1 0.16500 119244.000000
9615 14667 1 0.16500 119244.000000
9615 15700 1 0.16500 119244.000000
9616 14669 1 0.16500 119244.000000
9616 15684 1 0.16500 119244.000000
9617 14669 1 0.16500 119244.000000
9617 16484 1 0.16500 119244.000000
9618 14670 1 0.16500 119244.000000
9618 15865 1 0.16500 119244.000000
9619 14671 1 0.16500 119244.000000
9619 15382 1 0.16500 119244.000000
9620 14672 1 0.16500 119244.000000
9620 16518 1 0.16500 119244.000000
9621 12767 1 0.16500 119244.000000
9621 15076 1 0.16500 119244.000000
9622 17288 1 0.16500 119244.000000
9622 22024 1 0.16500 119244.000000
9623 14676 1 0.16500 119244.000000
9623 16232 1 0.16500 119244.000000
9624 14676 1 0.16500 119244.000000
9624 16213 1 0.16500 119244.000000
9625 14676 1 0.16500 119244.000000
9625 16028 1 0.16500 119244.000000
9626 14678 1 0.16500 119244.000000
9626 16265 1 0.16500 119244.000000
9627 14678 1 0.16500 119244.000000
9627 15448 1 0.16500 119244.000000
9628 14678 1 0.16500 119244.000000
9628 15480 1 0.16500 119244.000000
9629 14678 1 0.16500 119244.000000
9629 14763 1 0.16500 119244.000000
9630 14679 1 0.16500 119244.000000
9630 16174 1 0.16500 119244.000000
9631 14679 1 0.16500 119244.000000
9631 14994 1 0.16500 119244.000000
9632 14680 1 0.16500 119244.000000
9632 15742 1 0.16500 119244.000000
9633 15562 1 0.16500 119244.000000
9633 15742 1 0.16500 119244.000000
9634 14680 1 0.16500 119244.000000
9634 16553 1 0.16500 119244.000000
9635 14681 1 0.16500 119244.000000
9635 15070 1 0.16500 119244.000000
9636 14681 1 0.16500 119244.000000
9636 15142 1 0.16500 119244.000000
9637 14682 1 0.16500 119244.000000
9637 15728 1 0.16500 119244.000000
9638 14683 1 0.16500 119244.000000
9638 16469 1 0.16500 119244.000000
9639 14683 1 0.16500 119244.000000
9639 16555 1 0.16500 119244.000000
9640 14684 1 0.16500 119244.000000
9640 15245 1 0.16500 119244.000000
9641 14685 1 0.16500 119244.000000
9641 14993 1 0.16500 119244.000000
9642 14686 1 0.16500 119244.000000
9642 19486 1 0.16500 119244.000000
9643 14686 1 0.16500 119244.000000
9643 19330 1 0.16500 119244.000000
9644 14687 1 0.16500 119244.000000
9644 16370 1 0.16500 119244.000000
9645 14687 1 0.16500 119244.000000
9645 16101 1 0.16500 119244.000000
9646 14688 1 0.16500 119244.000000
9646 16053 1 0.16500 119244.000000
9647 14688 1 0.16500 119244.000000
9647 15892 1 0.16500 119244.000000
9648 18254 1 0.16500 119244.000000
9648 21676 1 0.16500 119244.000000
9649 14690 1 0.16500 119244.000000
9649 15806 1 0.16500 119244.000000
9650 14690 1 0.16500 119244.000000
9650 16055 1 0.16500 119244.000000
9651 14690 1 0.16500 119244.000000
9651 16247 1 0.16500 119244.000000
9652 14691 1 0.16500 119244.000000
9652 21817 1 0.16500 119244.000000
9653 15324 1 0.16500 119244.000000
9653 20290 1 0.16500 119244.000000
9654 15941 1 0.16500 119244.000000
9654 19138 1 0.16500 119244.000000
9655 15596 1 0.16500 119244.000000
9655 15790 1 0.16500 119244.000000
9656 14694 1 0.16500 119244.000000
9656 15790 1 0.16500 119244.000000
9657 14695 1 0.16500 119244.000000
9657 15370 1 0.16500 119244.000000
9658 14696 1 0.16500 119244.000000
9658 15624 1 0.16500 119244.000000
9659 14696 1 0.16500 119244.000000
9659 15308 1 0.16500 119244.000000
9660 14696 1 0.16500 119244.000000
9660 16255 1 0.16500 119244.000000
9661 14697 1 0.16500 119244.000000
9661 15903 1 0.16500 119244.000000
9662 14697 1 0.16500 119244.000000
9662 15122 1 0.16500 119244.000000
9663 14697 1 0.16500 119244.000000
9663 14782 1 0.16500 119244.000000
9664 14698 1 0.16500 119244.000000
9664 16099 1 0.16500 119244.000000
9665 14699 1 0.16500 119244.000000
9665 19306 1 0.16500 119244.000000
9666 14699 1 0.16500 119244.000000
9666 15082 1 0.16500 119244.000000
9667 14700 1 0.16500 119244.000000
9667 16019 1 0.16500 119244.000000
9668 14700 1 0.16500 119244.000000
9668 16189 1 0.16500 119244.000000
9669 14700 1 0.16500 119244.000000
9669 14856 1 0.16500 119244.000000
9670 14700 1 0.16500 119244.000000
9670 15697 1 0.16500 119244.000000
9671 14701 1 0.16500 119244.000000
9671 14905 1 0.16500 119244.000000
9672 17862 1 0.16500 119244.000000
9672 19978 1 0.16500 119244.000000
9673 14702 1 0.16500 119244.000000
9673 16425 1 0.16500 119244.000000
9674 14703 1 0.16500 119244.000000
9674 14998 1 0.16500 119244.000000
9675 14704 1 0.16500 119244.000000
9675 16038 1 0.16500 119244.000000
9676 14705 1 0.16500 119244.000000
9676 14847 1 0.16500 119244.000000
9677 14706 1 0.16500 119244.000000
9677 15508 1 0.16500 119244.000000
9678 14706 1 0.16500 119244.000000
9678 15206 1 0.16500 119244.000000
9679 14706 1 0.16500 119244.000000
9679 21781 1 0.16500 119244.000000
9680 14707 1 0.16500 119244.000000
9680 16456 1 0.16500 119244.000000
9681 14707 1 0.16500 119244.000000
9681 15097 1 0.16500 119244.000000
9682 14707 1 0.16500 119244.000000
9682 15231 1 0.16500 119244.000000
9683 14708 1 0.16500 119244.000000
9683 16516 1 0.16500 119244.000000
9684 14709 1 0.16500 119244.000000
9684 15102 1 0.16500 119244.000000
9685 14710 1 0.16500 119244.000000
9685 15775 1 0.16500 119244.000000
9686 14710 1 0.16500 119244.000000
9686 15521 1 0.16500 119244.000000
9687 15783 1 0.16500 119244.000000
9687 16548 1 0.16500 119244.000000
9688 14711 1 0.16500 119244.000000
9688 16548 1 0.16500 119244.000000
9689 14712 1 0.16500 119244.000000
9689 16240 1 0.16500 119244.000000
9690 18742 1 0.16500 119244.000000
9690 21682 1 0.16500 119244.000000
9691 14713 1 0.16500 119244.000000
9691 18282 1 0.16500 119244.000000
9692 14714 1 0.16500 119244.000000
9692 16187 1 0.16500 119244.000000
9693 14715 1 0.16500 119244.000000
9693 16535 1 0.16500 119244.000000
9694 14716 1 0.16500 119244.000000
9694 14934 1 0.16500 119244.000000
9695 14716 1 0.16500 119244.000000
9695 15525 1 0.16500 119244.000000
9696 14717 1 0.16500 119244.000000
9696 16514 1 0.16500 119244.000000
9697 14717 1 0.16500 119244.000000
9697 15679 1 0.16500 119244.000000
9698 14718 1 0.16500 119244.000000
9698 15122 1 0.16500 119244.000000
9699 14719 1 0.16500 119244.000000
9699 15616 1 0.16500 119244.000000
9700 14719 1 0.16500 119244.000000
9700 16247 1 0.16500 119244.000000
9701 14719 1 0.16500 119244.000000
9701 20206 1 0.16500 119244.000000
9702 14720 1 0.16500 119244.000000
9702 14738 1 0.16500 119244.000000
9703 14720 1 0.16500 119244.000000
9703 15411 1 0.16500 119244.000000
9704 14720 1 0.16500 119244.000000
9704 15994 1 0.16500 119244.000000
9705 14721 1 0.16500 119244.000000
9705 16029 1 0.16500 119244.000000
9706 14721 1 0.16500 119244.000000
9706 15912 1 0.16500 119244.000000
9707 14888 1 0.16500 119244.000000
9707 16029 1 0.16500 119244.000000
9708 14722 1 0.16500 119244.000000
9708 15930 1 0.16500 119244.000000
9709 11714 1 0.16500 119244.000000
9709 14723 1 0.16500 119244.000000
9710 14724 1 0.16500 119244.000000
9710 15738 1 0.16500 119244.000000
9711 14724 1 0.16500 119244.000000
9711 15681 1 0.16500 119244.000000
9712 14725 1 0.16500 119244.000000
9712 15121 1 0.16500 119244.000000
9713 14725 1 0.16500 119244.000000
9713 15287 1 0.16500 119244.000000
9714 14726 1 0.16500 119244.000000
9714 15961 1 0.16500 119244.000000
9715 14726 1 0.16500 119244.000000
9715 15703 1 0.16500 119244.000000
9716 14727 1 0.16500 119244.000000
9716 16596 1 0.16500 119244.000000
9717 14727 1 0.16500 119244.000000
9717 14976 1 0.16500 119244.000000
9718 14728 1 0.16500 119244.000000
9718 14734 1 0.16500 119244.000000
9719 14729 1 0.16500 119244.000000
9719 15827 1 0.16500 119244.000000
9720 14729 1 0.16500 119244.000000
9720 15283 1 0.16500 119244.000000
9721 14729 1 0.16500 119244.000000
9721 14918 1 0.16500 119244.000000
9722 14731 1 0.16500 119244.000000
9722 15238 1 0.16500 119244.000000
9723 14731 1 0.16500 119244.000000
9723 15968 1 0.16500 119244.000000
9724 14733 1 0.16500 119244.000000
9724 15839 1 0.16500 119244.000000
9725 14734 1 0.16500 119244.000000
9725 14990 1 0.16500 119244.000000
9726 14735 1 0.16500 119244.000000
9726 16044 1 0.16500 119244.000000
9727 11866 1 0.16500 119244.000000
9727 19990 1 0.16500 119244.000000
9728 14736 1 0.16500 119244.000000
9728 15738 1 0.16500 119244.000000
9729 15353 1 0.16500 119244.000000
9729 15641 1 0.16500 119244.000000
9730 14737 1 0.16500 119244.000000
9730 15641 1 0.16500 119244.000000
9731 14739 1 0.16500 119244.000000
9731 15708 1 0.16500 119244.000000
9732 14740 1 0.16500 119244.000000
9732 15533 1 0.16500 119244.000000
9733 14740 1 0.16500 119244.000000
9733 16083 1 0.16500 119244.000000
9734 14740 1 0.16500 119244.000000
9734 21844 1 0.16500 119244.000000
9735 14740 1 0.16500 119244.000000
9735 16442 1 0.16500 119244.000000
9736 14741 1 0.16500 119244.000000
9736 15025 1 0.16500 119244.000000
9737 14741 1 0.16500 119244.000000
9737 15471 1 0.16500 119244.000000
9738 14741 1 0.16500 119244.000000
9738 15518 1 0.16500 119244.000000
9739 14742 1 0.16500 119244.000000
9739 15644 1 0.16500 119244.000000
9740 12976 1 0.16500 119244.000000
9740 19210 1 0.16500 119244.000000
9741 14744 1 0.16500 119244.000000
9741 15575 1 0.16500 119244.000000
9742 14745 1 0.16500 119244.000000
9742 15387 1 0.16500 119244.000000
9743 14745 1 0.16500 119244.000000
9743 15879 1 0.16500 119244.000000
9744 14746 1 0.16500 119244.000000
9744 15936 1 0.16500 119244.000000
9745 14746 1 0.16500 119244.000000
9745 16172 1 0.16500 119244.000000
9746 14747 1 0.16500 119244.000000
9746 15623 1 0.16500 119244.000000
9747 14747 1 0.16500 119244.000000
9747 15800 1 0.16500 119244.000000
9748 14748 1 0.16500 119244.000000
9748 16529 1 0.16500 119244.000000
9749 14749 1 0.16500 119244.000000
9749 16536 1 0.16500 119244.000000
9750 14749 1 0.16500 119244.000000
9750 21154 1 0.16500 119244.000000
9751 14750 1 0.16500 119244.000000
9751 21781 1 0.16500 119244.000000
9752 14750 1 0.16500 119244.000000
9752 15656 1 0.16500 119244.000000
9753 14750 1 0.16500 119244.000000
9753 15415 1 0.16500 119244.000000
9754 14751 1 0.16500 119244.000000
9754 15131 1 0.16500 119244.000000
9755 14752 1 0.16500 119244.000000
9755 21694 1 0.16500 119244.000000
9756 14752 1 0.16500 119244.000000
9756 16126 1 0.16500 119244.000000
9757 14756 1 0.16500 119244.000000
9757 15179 1 0.16500 119244.000000
9758 14756 1 0.16500 119244.000000
9758 15047 1 0.16500 119244.000000
9759 14877 1 0.16500 119244.000000
9759 15488 1 0.16500 119244.000000
9760 14758 1 0.16500 119244.000000
9760 14877 1 0.16500 119244.000000
9761 14759 1 0.16500 119244.000000
9761 14779 1 0.16500 119244.000000
9762 14760 1 0.16500 119244.000000
9762 16421 1 0.16500 119244.000000
9763 14760 1 0.16500 119244.000000
9763 15344 1 0.16500 119244.000000
9764 14786 1 0.16500 119244.000000
9764 17904 1 0.16500 119244.000000
9765 15447 1 0.16500 119244.000000
9765 17904 1 0.16500 119244.000000
9766 14761 1 0.16500 119244.000000
9766 21799 1 0.16500 119244.000000
9767 14762 1 0.16500 119244.000000
9767 15233 1 0.16500 119244.000000
9768 14762 1 0.16500 119244.000000
9768 18466 1 0.16500 119244.000000
9769 14763 1 0.16500 119244.000000
9769 14842 1 0.16500 119244.000000
9770 14763 1 0.16500 119244.000000
9770 15573 1 0.16500 119244.000000
9771 14764 1 0.16500 119244.000000
9771 16567 1 0.16500 119244.000000
9772 14764 1 0.16500 119244.000000
9772 15860 1 0.16500 119244.000000
9773 14766 1 0.16500 119244.000000
9773 15507 1 0.16500 119244.000000
9774 15966 1 0.16500 119244.000000
9774 21694 1 0.16500 119244.000000
9775 14767 1 0.16500 119244.000000
9775 15848 1 0.16500 119244.000000
9776 14768 1 0.16500 119244.000000
9776 16520 1 0.16500 119244.000000
9777 14525 1 0.16500 119244.000000
9777 15270 1 0.16500 119244.000000
9778 14769 1 0.16500 119244.000000
9778 16012 1 0.16500 119244.000000
9779 14769 1 0.16500 119244.000000
9779 15546 1 0.16500 119244.000000
9780 14770 1 0.16500 119244.000000
9780 16258 1 0.16500 119244.000000
9781 14771 1 0.16500 119244.000000
9781 16076 1 0.16500 119244.000000
9782 14771 1 0.16500 119244.000000
9782 16404 1 0.16500 119244.000000
9783 14772 1 0.16500 119244.000000
9783 16410 1 0.16500 119244.000000
9784 14772 1 0.16500 119244.000000
9784 14920 1 0.16500 119244.000000
9785 14772 1 0.16500 119244.000000
9785 15597 1 0.16500 119244.000000
9786 14773 1 0.16500 119244.000000
9786 16041 1 0.16500 119244.000000
9787 14774 1 0.16500 119244.000000
9787 14841 1 0.16500 119244.000000
9788 13236 1 0.16500 119244.000000
9788 14774 1 0.16500 119244.000000
9789 14775 1 0.16500 119244.000000
9789 15853 1 0.16500 119244.000000
9790 14776 1 0.16500 119244.000000
9790 16267 1 0.16500 119244.000000
9791 14776 1 0.16500 119244.000000
9791 15484 1 0.16500 119244.000000
9792 14776 1 0.16500 119244.000000
9792 14966 1 0.16500 119244.000000
9793 14779 1 0.16500 119244.000000
9793 16618 1 0.16500 119244.000000
9794 14780 1 0.16500 119244.000000
9794 16066 1 0.16500 119244.000000
9795 14780 1 0.16500 119244.000000
9795 15737 1 0.16500 119244.000000
9796 14781 1 0.16500 119244.000000
9796 15124 1 0.16500 119244.000000
9797 11436 1 0.16500 119244.000000
9797 14781 1 0.16500 119244.000000
9798 14783 1 0.16500 119244.000000
9798 15332 1 0.16500 119244.000000
9799 14783 1 0.16500 119244.000000
9799 15576 1 0.16500 119244.000000
9800 14785 1 0.16500 119244.000000
9800 15072 1 0.16500 119244.000000
9801 14785 1 0.16500 119244.000000
9801 15557 1 0.16500 119244.000000
9802 14786 1 0.16500 119244.000000
9802 15176 1 0.16500 119244.000000
9803 14786 1 0.16500 119244.000000
9803 15337 1 0.16500 119244.000000
9804 14788 1 0.16500 119244.000000
9804 15686 1 0.16500 119244.000000
9805 14790 1 0.16500 119244.000000
9805 14938 1 0.16500 119244.000000
9806 16594 1 0.16500 119244.000000
9806 19306 1 0.16500 119244.000000
9807 14792 1 0.16500 119244.000000
9807 16554 1 0.16500 119244.000000
9808 14793 1 0.16500 119244.000000
9808 16331 1 0.16500 119244.000000
9809 14794 1 0.16500 119244.000000
9809 14876 1 0.16500 119244.000000
9810 14794 1 0.16500 119244.000000
9810 15510 1 0.16500 119244.000000
9811 14795 1 0.16500 119244.000000
9811 14836 1 0.16500 119244.000000
9812 14795 1 0.16500 119244.000000
9812 16531 1 0.16500 119244.000000
9813 14796 1 0.16500 119244.000000
9813 14804 1 0.16500 119244.000000
9814 14796 1 0.16500 119244.000000
9814 16450 1 0.16500 119244.000000
9815 14796 1 0.16500 119244.000000
9815 15746 1 0.16500 119244.000000
9816 14797 1 0.16500 119244.000000
9816 14928 1 0.16500 119244.000000
9817 13543 1 0.16500 119244.000000
9817 14798 1 0.16500 119244.000000
9818 14798 1 0.16500 119244.000000
9818 16219 1 0.16500 119244.000000
9819 14799 1 0.16500 119244.000000
9819 15853 1 0.16500 119244.000000
9820 14799 1 0.16500 119244.000000
9820 16011 1 0.16500 119244.000000
9821 14801 1 0.16500 119244.000000
9821 15192 1 0.16500 119244.000000
9822 14802 1 0.16500 119244.000000
9822 14950 1 0.16500 119244.000000
9823 14802 1 0.16500 119244.000000
9823 15011 1 0.16500 119244.000000
9824 14803 1 0.16500 119244.000000
9824 15101 1 0.16500 119244.000000
9825 16280 1 0.16500 119244.000000
9825 18212 1 0.16500 119244.000000
9826 14804 1 0.16500 119244.000000
9826 16246 1 0.16500 119244.000000
9827 14805 1 0.16500 119244.000000
9827 21880 1 0.16500 119244.000000
9828 14805 1 0.16500 119244.000000
9828 21760 1 0.16500 119244.000000
9829 14806 1 0.16500 119244.000000
9829 15896 1 0.16500 119244.000000
9830 14806 1 0.16500 119244.000000
9830 15177 1 0.16500 119244.000000
9831 14807 1 0.16500 119244.000000
9831 16315 1 0.16500 119244.000000
9832 14807 1 0.16500 119244.000000
9832 15923 1 0.16500 119244.000000
9833 14807 1 0.16500 119244.000000
9833 16436 1 0.16500 119244.000000
9834 14808 1 0.16500 119244.000000
9834 15702 1 0.16500 119244.000000
9835 14809 1 0.16500 119244.000000
9835 20542 1 0.16500 119244.000000
9836 14810 1 0.16500 119244.000000
9836 14981 1 0.16500 119244.000000
9837 13824 1 0.16500 119244.000000
9837 14810 1 0.16500 119244.000000
9838 14810 1 0.16500 119244.000000
9838 15342 1 0.16500 119244.000000
9839 13000 1 0.16500 119244.000000
9839 14812 1 0.16500 119244.000000
9840 14812 1 0.16500 119244.000000
9840 15432 1 0.16500 119244.000000
9841 14813 1 0.16500 119244.000000
9841 15184 1 0.16500 119244.000000
9842 14813 1 0.16500 119244.000000
9842 14897 1 0.16500 119244.000000
9843 14815 1 0.16500 119244.000000
9843 14991 1 0.16500 119244.000000
9844 14815 1 0.16500 119244.000000
9844 20458 1 0.16500 119244.000000
9845 14817 1 0.16500 119244.000000
9845 16418 1 0.16500 119244.000000
9846 11622 1 0.16500 119244.000000
9846 14817 1 0.16500 119244.000000
9847 11448 1 0.16500 119244.000000
9847 14817 1 0.16500 119244.000000
9848 14818 1 0.16500 119244.000000
9848 15115 1 0.16500 119244.000000
9849 14819 1 0.16500 119244.000000
9849 15614 1 0.16500 119244.000000
9850 14819 1 0.16500 119244.000000
9850 16497 1 0.16500 119244.000000
9851 14820 1 0.16500 119244.000000
9851 15911 1 0.16500 119244.000000
9852 14821 1 0.16500 119244.000000
9852 22039 1 0.16500 119244.000000
9853 14821 1 0.16500 119244.000000
9853 16522 1 0.16500 119244.000000
9854 14822 1 0.16500 119244.000000
9854 16582 1 0.16500 119244.000000
9855 14824 1 0.16500 119244.000000
9855 15985 1 0.16500 119244.000000
9856 14824 1 0.16500 119244.000000
9856 14936 1 0.16500 119244.000000
9857 14825 1 0.16500 119244.000000
9857 16279 1 0.16500 119244.000000
9858 14826 1 0.16500 119244.000000
9858 14875 1 0.16500 119244.000000
9859 14826 1 0.16500 119244.000000
9859 19726 1 0.16500 119244.000000
9860 14827 1 0.16500 119244.000000
9860 15706 1 0.16500 119244.000000
9861 14827 1 0.16500 119244.000000
9861 15517 1 0.16500 119244.000000
9862 14828 1 0.16500 119244.000000
9862 16216 1 0.16500 119244.000000
9863 14828 1 0.16500 119244.000000
9863 16220 1 0.16500 119244.000000
9864 14829 1 0.16500 119244.000000
9864 15002 1 0.16500 119244.000000
9865 14830 1 0.16500 119244.000000
9865 15063 1 0.16500 119244.000000
9866 14830 1 0.16500 119244.000000
9866 15764 1 0.16500 119244.000000
9867 14831 1 0.16500 119244.000000
9867 15503 1 0.16500 119244.000000
9868 14831 1 0.16500 119244.000000
9868 16474 1 0.16500 119244.000000
9869 14831 1 0.16500 119244.000000
9869 15624 1 0.16500 119244.000000
9870 14832 1 0.16500 119244.000000
9870 15031 1 0.16500 119244.000000
9871 14833 1 0.16500 119244.000000
9871 16008 1 0.16500 119244.000000
9872 14833 1 0.16500 119244.000000
9872 16177 1 0.16500 119244.000000
9873 14834 1 0.16500 119244.000000
9873 15425 1 0.16500 119244.000000
9874 14834 1 0.16500 119244.000000
9874 15000 1 0.16500 119244.000000
9875 14835 1 0.16500 119244.000000
9875 16477 1 0.16500 119244.000000
9876 14835 1 0.16500 119244.000000
9876 15795 1 0.16500 119244.000000
9877 14836 1 0.16500 119244.000000
9877 18454 1 0.16500 119244.000000
9878 14836 1 0.16500 119244.000000
9878 15531 1 0.16500 119244.000000
9879 14837 1 0.16500 119244.000000
9879 15558 1 0.16500 119244.000000
9880 14839 1 0.16500 119244.000000
9880 16504 1 0.16500 119244.000000
9881 14839 1 0.16500 119244.000000
9881 15574 1 0.16500 119244.000000
9882 14840 1 0.16500 119244.000000
9882 15602 1 0.16500 119244.000000
9883 14840 1 0.16500 119244.000000
9883 15505 1 0.16500 119244.000000
9884 14841 1 0.16500 119244.000000
9884 14997 1 0.16500 119244.000000
9885 14844 1 0.16500 119244.000000
9885 16583 1 0.16500 119244.000000
9886 14847 1 0.16500 119244.000000
9886 16580 1 0.16500 119244.000000
9887 13038 1 0.16500 119244.000000
9887 15406 1 0.16500 119244.000000
9888 14849 1 0.16500 119244.000000
9888 16144 1 0.16500 119244.000000
9889 13038 1 0.16500 119244.000000
9889 14849 1 0.16500 119244.000000
9890 14850 1 0.16500 119244.000000
9890 16240 1 0.16500 119244.000000
9891 14850 1 0.16500 119244.000000
9891 16388 1 0.16500 119244.000000
9892 12831 1 0.16500 119244.000000
9892 14850 1 0.16500 119244.000000
9893 14851 1 0.16500 119244.000000
9893 15114 1 0.16500 119244.000000
9894 14851 1 0.16500 119244.000000
9894 16008 1 0.16500 119244.000000
9895 14852 1 0.16500 119244.000000
9895 16332 1 0.16500 119244.000000
9896 14853 1 0.16500 119244.000000
9896 15244 1 0.16500 119244.000000
9897 14854 1 0.16500 119244.000000
9897 16581 1 0.16500 119244.000000
9898 14854 1 0.16500 119244.000000
9898 15353 1 0.16500 119244.000000
9899 14855 1 0.16500 119244.000000
9899 21859 1 0.16500 119244.000000
9900 14857 1 0.16500 119244.000000
9900 15440 1 0.16500 119244.000000
9901 14857 1 0.16500 119244.000000
9901 15904 1 0.16500 119244.000000
9902 14857 1 0.16500 119244.000000
9902 14883 1 0.16500 119244.000000
9903 14858 1 0.16500 119244.000000
9903 21082 1 0.16500 119244.000000
9904 14858 1 0.16500 119244.000000
9904 15156 1 0.16500 119244.000000
9905 14858 1 0.16500 119244.000000
9905 15823 1 0.16500 119244.000000
9906 14859 1 0.16500 119244.000000
9906 15283 1 0.16500 119244.000000
9907 14859 1 0.16500 119244.000000
9907 16208 1 0.16500 119244.000000
9908 14860 1 0.16500 119244.000000
9908 15338 1 0.16500 119244.000000
9909 14860 1 0.16500 119244.000000
9909 15455 1 0.16500 119244.000000
9910 15163 1 0.16500 119244.000000
9910 21154 1 0.16500 119244.000000
9911 14862 1 0.16500 119244.000000
9911 15830 1 0.16500 119244.000000
9912 14863 1 0.16500 119244.000000
9912 16397 1 0.16500 119244.000000
9913 14864 1 0.16500 119244.000000
9913 16057 1 0.16500 119244.000000
9914 14867 1 0.16500 119244.000000
9914 15724 1 0.16500 119244.000000
9915 14867 1 0.16500 119244.000000
9915 15066 1 0.16500 119244.000000
9916 14868 1 0.16500 119244.000000
9916 15055 1 0.16500 119244.000000
9917 14869 1 0.16500 119244.000000
9917 16244 1 0.16500 119244.000000
9918 14869 1 0.16500 119244.000000
9918 15094 1 0.16500 119244.000000
9919 14870 1 0.16500 119244.000000
9919 15409 1 0.16500 119244.000000
9920 14870 1 0.16500 119244.000000
9920 16019 1 0.16500 119244.000000
9921 14871 1 0.16500 119244.000000
9921 16021 1 0.16500 119244.000000
9922 14221 1 0.16500 119244.000000
9922 14872 1 0.16500 119244.000000
9923 12862 1 0.16500 119244.000000
9923 16584 1 0.16500 119244.000000
9924 14873 1 0.16500 119244.000000
9924 16487 1 0.16500 119244.000000
9925 14873 1 0.16500 119244.000000
9925 15111 1 0.16500 119244.000000
9926 14874 1 0.16500 119244.000000
9926 15531 1 0.16500 119244.000000
9927 14875 1 0.16500 119244.000000
9927 20446 1 0.16500 119244.000000
9928 14876 1 0.16500 119244.000000
9928 16156 1 0.16500 119244.000000
9929 14879 1 0.16500 119244.000000
9929 15504 1 0.16500 119244.000000
9930 14880 1 0.16500 119244.000000
9930 16076 1 0.16500 119244.000000
9931 14881 1 0.16500 119244.000000
9931 16269 1 0.16500 119244.000000
9932 14881 1 0.16500 119244.000000
9932 15549 1 0.16500 119244.000000
9933 14882 1 0.16500 119244.000000
9933 16143 1 0.16500 119244.000000
9934 14883 1 0.16500 119244.000000
9934 15200 1 0.16500 119244.000000
9935 14884 1 0.16500 119244.000000
9935 14936 1 0.16500 119244.000000
9936 14885 1 0.16500 119244.000000
9936 15666 1 0.16500 119244.000000
9937 14885 1 0.16500 119244.000000
9937 15567 1 0.16500 119244.000000
9938 13540 1 0.16500 119244.000000
9938 14886 1 0.16500 119244.000000
9939 12373 1 0.16500 119244.000000
9939 14887 1 0.16500 119244.000000
9940 14151 1 0.16500 119244.000000
9940 15203 1 0.16500 119244.000000
9941 14888 1 0.16500 119244.000000
9941 16192 1 0.16500 119244.000000
9942 14888 1 0.16500 119244.000000
9942 14978 1 0.16500 119244.000000
9943 14890 1 0.16500 119244.000000
9943 15195 1 0.16500 119244.000000
9944 14891 1 0.16500 119244.000000
9944 15677 1 0.16500 119244.000000
9945 14892 1 0.16500 119244.000000
9945 16024 1 0.16500 119244.000000
9946 14892 1 0.16500 119244.000000
9946 15333 1 0.16500 119244.000000
9947 14893 1 0.16500 119244.000000
9947 15888 1 0.16500 119244.000000
9948 14893 1 0.16500 119244.000000
9948 15357 1 0.16500 119244.000000
9949 15662 1 0.16500 119244.000000
9949 21706 1 0.16500 119244.000000
9950 19018 1 0.16500 119244.000000
9950 21706 1 0.16500 119244.000000
9951 14894 1 0.16500 119244.000000
9951 15770 1 0.16500 119244.000000
9952 14894 1 0.16500 119244.000000
9952 15675 1 0.16500 119244.000000
9953 14894 1 0.16500 119244.000000
9953 15661 1 0.16500 119244.000000
9954 14894 1 0.16500 119244.000000
9954 15762 1 0.16500 119244.000000
9955 11594 1 0.16500 119244.000000
9955 15509 1 0.16500 119244.000000
9956 14897 1 0.16500 119244.000000
9956 14984 1 0.16500 119244.000000
9957 14898 1 0.16500 119244.000000
9957 15866 1 0.16500 119244.000000
9958 14899 1 0.16500 119244.000000
9958 15834 1 0.16500 119244.000000
9959 14900 1 0.16500 119244.000000
9959 16278 1 0.16500 119244.000000
9960 14900 1 0.16500 119244.000000
9960 16369 1 0.16500 119244.000000
9961 14901 1 0.16500 119244.000000
9961 15725 1 0.16500 119244.000000
9962 14902 1 0.16500 119244.000000
9962 16260 1 0.16500 119244.000000
9963 14902 1 0.16500 119244.000000
9963 14950 1 0.16500 119244.000000
9964 14903 1 0.16500 119244.000000
9964 15627 1 0.16500 119244.000000
9965 14904 1 0.16500 119244.000000
9965 14922 1 0.16500 119244.000000
9966 14904 1 0.16500 119244.000000
9966 16337 1 0.16500 119244.000000
9967 14905 1 0.16500 119244.000000
9967 15127 1 0.16500 119244.000000
9968 14906 1 0.16500 119244.000000
9968 15207 1 0.16500 119244.000000
9969 14665 1 0.16500 119244.000000
9969 14906 1 0.16500 119244.000000
9970 14907 1 0.16500 119244.000000
9970 15443 1 0.16500 119244.000000
9971 14909 1 0.16500 119244.000000
9971 21946 1 0.16500 119244.000000
9972 14909 1 0.16500 119244.000000
9972 15204 1 0.16500 119244.000000
9973 14910 1 0.16500 119244.000000
9973 15714 1 0.16500 119244.000000
9974 13770 1 0.16500 119244.000000
9974 14911 1 0.16500 119244.000000
9975 14911 1 0.16500 119244.000000
9975 15245 1 0.16500 119244.000000
9976 14912 1 0.16500 119244.000000
9976 15939 1 0.16500 119244.000000
9977 14913 1 0.16500 119244.000000
9977 15795 1 0.16500 119244.000000
9978 16357 1 0.16500 119244.000000
9978 21223 1 0.16500 119244.000000
9979 13694 1 0.16500 119244.000000
9979 14915 1 0.16500 119244.000000
9980 14915 1 0.16500 119244.000000
9980 15086 1 0.16500 119244.000000
9981 13272 1 0.16500 119244.000000
9981 15022 1 0.16500 119244.000000
9982 14917 1 0.16500 119244.000000
9982 16268 1 0.16500 119244.000000
9983 14918 1 0.16500 119244.000000
9983 15369 1 0.16500 119244.000000
9984 14919 1 0.16500 119244.000000
9984 15716 1 0.16500 119244.000000
9985 14919 1 0.16500 119244.000000
9985 15915 1 0.16500 119244.000000
9986 14920 1 0.16500 119244.000000
9986 16557 1 0.16500 119244.000000
9987 14923 1 0.16500 119244.000000
9987 15660 1 0.16500 119244.000000
9988 14924 1 0.16500 119244.000000
9988 15382 1 0.16500 119244.000000
9989 14924 1 0.16500 119244.000000
9989 15877 1 0.16500 119244.000000
9990 19030 1 0.16500 119244.000000
9990 21835 1 0.16500 119244.000000
9991 14925 1 0.16500 119244.000000
9991 22029 1 0.16500 119244.000000
9992 14925 1 0.16500 119244.000000
9992 21847 1 0.16500 119244.000000
9993 18850 1 0.16500 119244.000000
9993 20518 1 0.16500 119244.000000
9994 15483 1 0.16500 119244.000000
9994 15836 1 0.16500 119244.000000
9995 15836 1 0.16500 119244.000000
9995 18850 1 0.16500 119244.000000
9996 14926 1 0.16500 119244.000000
9996 16033 1 0.16500 119244.000000
9997 14929 1 0.16500 119244.000000
9997 15584 1 0.16500 119244.000000
9998 14929 1 0.16500 119244.000000
9998 15947 1 0.16500 119244.000000
9999 12774 1 0.16500 119244.000000
9999 14930 1 0.16500 119244.000000
10000 14930 1 0.16500 119244.000000
10000 15019 1 0.16500 119244.000000
10001 14930 1 0.16500 119244.000000
10001 15874 1 0.16500 119244.000000
10002 14932 1 0.16500 119244.000000
10002 15520 1 0.16500 119244.000000
10003 14932 1 0.16500 119244.000000
10003 15635 1 0.16500 119244.000000
10004 14932 1 0.16500 119244.000000
10004 19918 1 0.16500 119244.000000
10005 14933 1 0.16500 119244.000000
10005 16246 1 0.16500 119244.000000
10006 14933 1 0.16500 119244.000000
10006 15361 1 0.16500 119244.000000
10007 14934 1 0.16500 119244.000000
10007 16492 1 0.16500 119244.000000
10008 14935 1 0.16500 119244.000000
10008 15465 1 0.16500 119244.000000
10009 14936 1 0.16500 119244.000000
10009 15413 1 0.16500 119244.000000
10010 14937 1 0.16500 119244.000000
10010 15028 1 0.16500 119244.000000
10011 14937 1 0.16500 119244.000000
10011 16513 1 0.16500 119244.000000
10012 15058 1 0.16500 119244.000000
10012 21712 1 0.16500 119244.000000
10013 14939 1 0.16500 119244.000000
10013 15940 1 0.16500 119244.000000
10014 14939 1 0.16500 119244.000000
10014 15501 1 0.16500 119244.000000
10015 14940 1 0.16500 119244.000000
10015 15257 1 0.16500 119244.000000
10016 14941 1 0.16500 119244.000000
10016 16042 1 0.16500 119244.000000
10017 14941 1 0.16500 119244.000000
10017 16252 1 0.16500 119244.000000
10018 14942 1 0.16500 119244.000000
10018 16024 1 0.16500 119244.000000
10019 14942 1 0.16500 119244.000000
10019 15529 1 0.16500 119244.000000
10020 14942 1 0.16500 119244.000000
10020 15974 1 0.16500 119244.000000
10021 14943 1 0.16500 119244.000000
10021 15040 1 0.16500 119244.000000
10022 13191 1 0.16500 119244.000000
10022 14944 1 0.16500 119244.000000
10023 14944 1 0.16500 119244.000000
10023 16357 1 0.16500 119244.000000
10024 13191 1 0.16500 119244.000000
10024 16512 1 0.16500 119244.000000
10025 14945 1 0.16500 119244.000000
10025 15893 1 0.16500 119244.000000
10026 14946 1 0.16500 119244.000000
10026 16272 1 0.16500 119244.000000
10027 14947 1 0.16500 119244.000000
10027 15247 1 0.16500 119244.000000
10028 14018 1 0.16500 119244.000000
10028 14947 1 0.16500 119244.000000
10029 14949 1 0.16500 119244.000000
10029 15534 1 0.16500 119244.000000
10030 14951 1 0.16500 119244.000000
10030 16206 1 0.16500 119244.000000
10031 14952 1 0.16500 119244.000000
10031 15163 1 0.16500 119244.000000
10032 15394 1 0.16500 119244.000000
10032 20626 1 0.16500 119244.000000
10033 14953 1 0.16500 119244.000000
10033 17428 1 0.16500 119244.000000
10034 21715 1 0.16500 119244.000000
10034 21751 1 0.16500 119244.000000
10035 15499 1 0.16500 119244.000000
10035 21715 1 0.16500 119244.000000
10036 21715 1 0.16500 119244.000000
10036 21946 1 0.16500 119244.000000
10037 14957 1 0.16500 119244.000000
10037 16600 1 0.16500 119244.000000
10038 12512 1 0.16500 119244.000000
10038 14957 1 0.16500 119244.000000
10039 14958 1 0.16500 119244.000000
10039 16460 1 0.16500 119244.000000
10040 14959 1 0.16500 119244.000000
10040 15145 1 0.16500 119244.000000
10041 14960 1 0.16500 119244.000000
10041 16204 1 0.16500 119244.000000
10042 14961 1 0.16500 119244.000000
10042 15890 1 0.16500 119244.000000
10043 14961 1 0.16500 119244.000000
10043 16359 1 0.16500 119244.000000
10044 14963 1 0.16500 119244.000000
10044 16404 1 0.16500 119244.000000
10045 14963 1 0.16500 119244.000000
10045 15917 1 0.16500 119244.000000
10046 18910 1 0.16500 119244.000000
10046 21904 1 0.16500 119244.000000
10047 16241 1 0.16500 119244.000000
10047 18910 1 0.16500 119244.000000
10048 14964 1 0.16500 119244.000000
10048 15154 1 0.16500 119244.000000
10049 14965 1 0.16500 119244.000000
10049 21889 1 0.16500 119244.000000
10050 14965 1 0.16500 119244.000000
10050 15619 1 0.16500 119244.000000
10051 14966 1 0.16500 119244.000000
10051 15378 1 0.16500 119244.000000
10052 13088 1 0.16500 119244.000000
10052 16531 1 0.16500 119244.000000
10053 14968 1 0.16500 119244.000000
10053 19546 1 0.16500 119244.000000
10054 14969 1 0.16500 119244.000000
10054 15135 1 0.16500 119244.000000
10055 13072 1 0.16500 119244.000000
10055 15076 1 0.16500 119244.000000
10056 14971 1 0.16500 119244.000000
10056 16542 1 0.16500 119244.000000
10057 14972 1 0.16500 119244.000000
10057 16270 1 0.16500 119244.000000
10058 14972 1 0.16500 119244.000000
10058 15928 1 0.16500 119244.000000
10059 14974 1 0.16500 119244.000000
10059 16606 1 0.16500 119244.000000
10060 14974 1 0.16500 119244.000000
10060 15812 1 0.16500 119244.000000
10061 14974 1 0.16500 119244.000000
10061 16110 1 0.16500 119244.000000
10062 15514 1 0.16500 119244.000000
10062 16446 1 0.16500 119244.000000
10063 13901 1 0.16500 119244.000000
10063 21868 1 0.16500 119244.000000
10064 14977 1 0.16500 119244.000000
10064 16127 1 0.16500 119244.000000
10065 14979 1 0.16500 119244.000000
10065 16392 1 0.16500 119244.000000
10066 14979 1 0.16500 119244.000000
10066 15774 1 0.16500 119244.000000
10067 14980 1 0.16500 119244.000000
10067 16025 1 0.16500 119244.000000
10068 15442 1 0.16500 119244.000000
10068 21718 1 0.16500 119244.000000
10069 17974 1 0.16500 119244.000000
10069 21718 1 0.16500 119244.000000
10070 14984 1 0.16500 119244.000000
10070 16152 1 0.16500 119244.000000
10071 14985 1 0.16500 119244.000000
10071 15068 1 0.16500 119244.000000
10072 14986 1 0.16500 119244.000000
10072 15326 1 0.16500 119244.000000
10073 14986 1 0.16500 119244.000000
10073 16201 1 0.16500 119244.000000
10074 14987 1 0.16500 119244.000000
10074 15949 1 0.16500 119244.000000
10075 12977 1 0.16500 119244.000000
10075 19774 1 0.16500 119244.000000
10076 14988 1 0.16500 119244.000000
10076 15470 1 0.16500 119244.000000
10077 14989 1 0.16500 119244.000000
10077 16356 1 0.16500 119244.000000
10078 14989 1 0.16500 119244.000000
10078 16408 1 0.16500 119244.000000
10079 14989 1 0.16500 119244.000000
10079 16441 1 0.16500 119244.000000
10080 21493 1 0.16500 119244.000000
10080 21850 1 0.16500 119244.000000
10081 15507 1 0.16500 119244.000000
10081 19798 1 0.16500 119244.000000
10082 14523 1 0.16500 119244.000000
10082 21811 1 0.16500 119244.000000
10083 16554 1 0.16500 119244.000000
10083 17834 1 0.16500 119244.000000
10084 12858 1 0.16500 119244.000000
10084 15927 1 0.16500 119244.000000
10085 16151 1 0.16500 119244.000000
10085 20278 1 0.16500 119244.000000
10086 15212 1 0.16500 119244.000000
10086 20278 1 0.16500 119244.000000
10087 14994 1 0.16500 119244.000000
10087 19066 1 0.16500 119244.000000
10088 14995 1 0.16500 119244.000000
10088 15131 1 0.16500 119244.000000
10089 14996 1 0.16500 119244.000000
10089 15825 1 0.16500 119244.000000
10090 14997 1 0.16500 119244.000000
10090 15239 1 0.16500 119244.000000
10091 14999 1 0.16500 119244.000000
10091 16091 1 0.16500 119244.000000
10092 11672 1 0.16500 119244.000000
10092 14999 1 0.16500 119244.000000
10093 15000 1 0.16500 119244.000000
10093 16508 1 0.16500 119244.000000
10094 15000 1 0.16500 119244.000000
10094 15041 1 0.16500 119244.000000
10095 15001 1 0.16500 119244.000000
10095 16212 1 0.16500 119244.000000
10096 15001 1 0.16500 119244.000000
10096 16242 1 0.16500 119244.000000
10097 15002 1 0.16500 119244.000000
10097 15219 1 0.16500 119244.000000
10098 15007 1 0.16500 119244.000000
10098 16344 1 0.16500 119244.000000
10099 15007 1 0.16500 119244.000000
10099 15671 1 0.16500 119244.000000
10100 15007 1 0.16500 119244.000000
10100 15718 1 0.16500 119244.000000
10101 15008 1 0.16500 119244.000000
10101 16515 1 0.16500 119244.000000
10102 15009 1 0.16500 119244.000000
10102 16470 1 0.16500 119244.000000
10103 15009 1 0.16500 119244.000000
10103 16430 1 0.16500 119244.000000
10104 18442 1 0.16500 119244.000000
10104 21742 1 0.16500 119244.000000
10105 12706 1 0.16500 119244.000000
10105 15707 1 0.16500 119244.000000
10106 15013 1 0.16500 119244.000000
10106 16495 1 0.16500 119244.000000
10107 15014 1 0.16500 119244.000000
10107 16467 1 0.16500 119244.000000
10108 15015 1 0.16500 119244.000000
10108 15645 1 0.16500 119244.000000
10109 15015 1 0.16500 119244.000000
10109 16024 1 0.16500 119244.000000
10110 15016 1 0.16500 119244.000000
10110 15036 1 0.16500 119244.000000
10111 15016 1 0.16500 119244.000000
10111 15622 1 0.16500 119244.000000
10112 15017 1 0.16500 119244.000000
10112 15118 1 0.16500 119244.000000
10113 15017 1 0.16500 119244.000000
10113 15961 1 0.16500 119244.000000
10114 15018 1 0.16500 119244.000000
10114 15038 1 0.16500 119244.000000
10115 15019 1 0.16500 119244.000000
10115 16503 1 0.16500 119244.000000
10116 15019 1 0.16500 119244.000000
10116 15071 1 0.16500 119244.000000
10117 15020 1 0.16500 119244.000000
10117 16354 1 0.16500 119244.000000
10118 15020 1 0.16500 119244.000000
10118 15037 1 0.16500 119244.000000
10119 13990 1 0.16500 119244.000000
10119 16171 1 0.16500 119244.000000
10120 15022 1 0.16500 119244.000000
10120 15064 1 0.16500 119244.000000
10121 15024 1 0.16500 119244.000000
10121 15475 1 0.16500 119244.000000
10122 15025 1 0.16500 119244.000000
10122 15595 1 0.16500 119244.000000
10123 15026 1 0.16500 119244.000000
10123 15538 1 0.16500 119244.000000
10124 20422 1 0.16500 119244.000000
10124 21721 1 0.16500 119244.000000
10125 15028 1 0.16500 119244.000000
10125 15278 1 0.16500 119244.000000
10126 15028 1 0.16500 119244.000000
10126 15598 1 0.16500 119244.000000
10127 15029 1 0.16500 119244.000000
10127 16423 1 0.16500 119244.000000
10128 15030 1 0.16500 119244.000000
10128 15970 1 0.16500 119244.000000
10129 15032 1 0.16500 119244.000000
10129 15071 1 0.16500 119244.000000
10130 15032 1 0.16500 119244.000000
10130 15968 1 0.16500 119244.000000
10131 15033 1 0.16500 119244.000000
10131 15478 1 0.16500 119244.000000
10132 15034 1 0.16500 119244.000000
10132 15599 1 0.16500 119244.000000
10133 15034 1 0.16500 119244.000000
10133 15172 1 0.16500 119244.000000
10134 14121 1 0.16500 119244.000000
10134 15034 1 0.16500 119244.000000
10135 15034 1 0.16500 119244.000000
10135 15189 1 0.16500 119244.000000
10136 15035 1 0.16500 119244.000000
10136 16065 1 0.16500 119244.000000
10137 15036 1 0.16500 119244.000000
10137 15160 1 0.16500 119244.000000
10138 15037 1 0.16500 119244.000000
10138 15859 1 0.16500 119244.000000
10139 15039 1 0.16500 119244.000000
10139 15470 1 0.16500 119244.000000
10140 17218 1 0.16500 119244.000000
10140 21724 1 0.16500 119244.000000
10141 15947 1 0.16500 119244.000000
10141 21727 1 0.16500 119244.000000
10142 15042 1 0.16500 119244.000000
10142 15474 1 0.16500 119244.000000
10143 16116 1 0.16500 119244.000000
10143 17680 1 0.16500 119244.000000
10144 16106 1 0.16500 119244.000000
10144 21730 1 0.16500 119244.000000
10145 15043 1 0.16500 119244.000000
10145 15782 1 0.16500 119244.000000
10146 15043 1 0.16500 119244.000000
10146 21862 1 0.16500 119244.000000
10147 15043 1 0.16500 119244.000000
10147 15467 1 0.16500 119244.000000
10148 16613 1 0.16500 119244.000000
10148 18490 1 0.16500 119244.000000
10149 15337 1 0.16500 119244.000000
10149 18490 1 0.16500 119244.000000
10150 15350 1 0.16500 119244.000000
10150 15866 1 0.16500 119244.000000
10151 15045 1 0.16500 119244.000000
10151 15866 1 0.16500 119244.000000
10152 15046 1 0.16500 119244.000000
10152 16574 1 0.16500 119244.000000
10153 15048 1 0.16500 119244.000000
10153 15263 1 0.16500 119244.000000
10154 15048 1 0.16500 119244.000000
10154 15624 1 0.16500 119244.000000
10155 15050 1 0.16500 119244.000000
10155 15528 1 0.16500 119244.000000
10156 12733 1 0.16500 119244.000000
10156 16482 1 0.16500 119244.000000
10157 15051 1 0.16500 119244.000000
10157 16596 1 0.16500 119244.000000
10158 15052 1 0.16500 119244.000000
10158 21082 1 0.16500 119244.000000
10159 15053 1 0.16500 119244.000000
10159 15212 1 0.16500 119244.000000
10160 15054 1 0.16500 119244.000000
10160 16208 1 0.16500 119244.000000
10161 15056 1 0.16500 119244.000000
10161 15716 1 0.16500 119244.000000
10162 15056 1 0.16500 119244.000000
10162 15198 1 0.16500 119244.000000
10163 15057 1 0.16500 119244.000000
10163 16073 1 0.16500 119244.000000
10164 15057 1 0.16500 119244.000000
10164 15226 1 0.16500 119244.000000
10165 15058 1 0.16500 119244.000000
10165 17204 1 0.16500 119244.000000
10166 15060 1 0.16500 119244.000000
10166 15358 1 0.16500 119244.000000
10167 15061 1 0.16500 119244.000000
10167 15274 1 0.16500 119244.000000
10168 15062 1 0.16500 119244.000000
10168 16587 1 0.16500 119244.000000
10169 15062 1 0.16500 119244.000000
10169 16070 1 0.16500 119244.000000
10170 15063 1 0.16500 119244.000000
10170 16275 1 0.16500 119244.000000
10171 15064 1 0.16500 119244.000000
10171 15378 1 0.16500 119244.000000
10172 15065 1 0.16500 119244.000000
10172 16373 1 0.16500 119244.000000
10173 15065 1 0.16500 119244.000000
10173 15421 1 0.16500 119244.000000
10174 15066 1 0.16500 119244.000000
10174 16592 1 0.16500 119244.000000
10175 15067 1 0.16500 119244.000000
10175 15545 1 0.16500 119244.000000
10176 15067 1 0.16500 119244.000000
10176 15165 1 0.16500 119244.000000
10177 15068 1 0.16500 119244.000000
10177 16103 1 0.16500 119244.000000
10178 15069 1 0.16500 119244.000000
10178 15770 1 0.16500 119244.000000
10179 15069 1 0.16500 119244.000000
10179 15545 1 0.16500 119244.000000
10180 15069 1 0.16500 119244.000000
10180 16588 1 0.16500 119244.000000
10181 15071 1 0.16500 119244.000000
10181 15238 1 0.16500 119244.000000
10182 15071 1 0.16500 119244.000000
10182 16111 1 0.16500 119244.000000
10183 15072 1 0.16500 119244.000000
10183 16587 1 0.16500 119244.000000
10184 15072 1 0.16500 119244.000000
10184 15811 1 0.16500 119244.000000
10185 16131 1 0.16500 119244.000000
10185 21733 1 0.16500 119244.000000
10186 15073 1 0.16500 119244.000000
10186 15538 1 0.16500 119244.000000
10187 15074 1 0.16500 119244.000000
10187 16059 1 0.16500 119244.000000
10188 15074 1 0.16500 119244.000000
10188 15466 1 0.16500 119244.000000
10189 15076 1 0.16500 119244.000000
10189 15702 1 0.16500 119244.000000
10190 15077 1 0.16500 119244.000000
10190 16183 1 0.16500 119244.000000
10191 15077 1 0.16500 119244.000000
10191 16284 1 0.16500 119244.000000
10192 15078 1 0.16500 119244.000000
10192 15765 1 0.16500 119244.000000
10193 13530 1 0.16500 119244.000000
10193 15078 1 0.16500 119244.000000
10194 15079 1 0.16500 119244.000000
10194 16237 1 0.16500 119244.000000
10195 16237 1 0.16500 119244.000000
10195 21316 1 0.16500 119244.000000
10196 15080 1 0.16500 119244.000000
10196 16603 1 0.16500 119244.000000
10197 15080 1 0.16500 119244.000000
10197 15100 1 0.16500 119244.000000
10198 15081 1 0.16500 119244.000000
10198 16294 1 0.16500 119244.000000
10199 16125 1 0.16500 119244.000000
10199 21736 1 0.16500 119244.000000
10200 15082 1 0.16500 119244.000000
10200 15708 1 0.16500 119244.000000
10201 15083 1 0.16500 119244.000000
10201 15228 1 0.16500 119244.000000
10202 15083 1 0.16500 119244.000000
10202 16619 1 0.16500 119244.000000
10203 15084 1 0.16500 119244.000000
10203 15243 1 0.16500 119244.000000
10204 15085 1 0.16500 119244.000000
10204 16038 1 0.16500 119244.000000
10205 15086 1 0.16500 119244.000000
10205 15976 1 0.16500 119244.000000
10206 11996 1 0.16500 119244.000000
10206 15088 1 0.16500 119244.000000
10207 15088 1 0.16500 119244.000000
10207 15350 1 0.16500 119244.000000
10208 15088 1 0.16500 119244.000000
10208 16088 1 0.16500 119244.000000
10209 15089 1 0.16500 119244.000000
10209 15791 1 0.16500 119244.000000
10210 15089 1 0.16500 119244.000000
10210 16152 1 0.16500 119244.000000
10211 15090 1 0.16500 119244.000000
10211 15857 1 0.16500 119244.000000
10212 15090 1 0.16500 119244.000000
10212 15797 1 0.16500 119244.000000
10213 18970 1 0.16500 119244.000000
10213 21850 1 0.16500 119244.000000
10214 15091 1 0.16500 119244.000000
10214 15253 1 0.16500 119244.000000
10215 15091 1 0.16500 119244.000000
10215 16484 1 0.16500 119244.000000
10216 15092 1 0.16500 119244.000000
10216 16251 1 0.16500 119244.000000
10217 15093 1 0.16500 119244.000000
10217 15928 1 0.16500 119244.000000
10218 15094 1 0.16500 119244.000000
10218 15589 1 0.16500 119244.000000
10219 15094 1 0.16500 119244.000000
10219 15938 1 0.16500 119244.000000
10220 15095 1 0.16500 119244.000000
10220 15327 1 0.16500 119244.000000
10221 15095 1 0.16500 119244.000000
10221 15246 1 0.16500 119244.000000
10222 15095 1 0.16500 119244.000000
10222 21934 1 0.16500 119244.000000
10223 15096 1 0.16500 119244.000000
10223 15958 1 0.16500 119244.000000
10224 15097 1 0.16500 119244.000000
10224 15666 1 0.16500 119244.000000
10225 15098 1 0.16500 119244.000000
10225 16396 1 0.16500 119244.000000
10226 15098 1 0.16500 119244.000000
10226 16599 1 0.16500 119244.000000
10227 15098 1 0.16500 119244.000000
10227 16182 1 0.16500 119244.000000
10228 15099 1 0.16500 119244.000000
10228 16256 1 0.16500 119244.000000
10229 15100 1 0.16500 119244.000000
10229 16621 1 0.16500 119244.000000
10230 16163 1 0.16500 119244.000000
10230 20710 1 0.16500 119244.000000
10231 15101 1 0.16500 119244.000000
10231 15719 1 0.16500 119244.000000
10232 15102 1 0.16500 119244.000000
10232 15264 1 0.16500 119244.000000
10233 15102 1 0.16500 119244.000000
10233 15408 1 0.16500 119244.000000
10234 15103 1 0.16500 119244.000000
10234 16505 1 0.16500 119244.000000
10235 15103 1 0.16500 119244.000000
10235 16322 1 0.16500 119244.000000
10236 15104 1 0.16500 119244.000000
10236 16122 1 0.16500 119244.000000
10237 15104 1 0.16500 119244.000000
10237 15677 1 0.16500 119244.000000
10238 13238 1 0.16500 119244.000000
10238 18886 1 0.16500 119244.000000
10239 18886 1 0.16500 119244.000000
10239 20650 1 0.16500 119244.000000
10240 15106 1 0.16500 119244.000000
10240 15824 1 0.16500 119244.000000
10241 15106 1 0.16500 119244.000000
10241 15804 1 0.16500 119244.000000
10242 15107 1 0.16500 119244.000000
10242 15948 1 0.16500 119244.000000
10243 15107 1 0.16500 119244.000000
10243 15399 1 0.16500 119244.000000
10244 15108 1 0.16500 119244.000000
10244 16622 1 0.16500 119244.000000
10245 15110 1 0.16500 119244.000000
10245 16506 1 0.16500 119244.000000
10246 15111 1 0.16500 119244.000000
10246 15550 1 0.16500 119244.000000
10247 15112 1 0.16500 119244.000000
10247 15603 1 0.16500 119244.000000
10248 13626 1 0.16500 119244.000000
10248 15113 1 0.16500 119244.000000
10249 15113 1 0.16500 119244.000000
10249 16297 1 0.16500 119244.000000
10250 15114 1 0.16500 119244.000000
10250 15259 1 0.16500 119244.000000
10251 15115 1 0.16500 119244.000000
10251 15453 1 0.16500 119244.000000
10252 15115 1 0.16500 119244.000000
10252 15399 1 0.16500 119244.000000
10253 15116 1 0.16500 119244.000000
10253 15185 1 0.16500 119244.000000
10254 15116 1 0.16500 119244.000000
10254 15242 1 0.16500 119244.000000
10255 15118 1 0.16500 119244.000000
10255 16575 1 0.16500 119244.000000
10256 15119 1 0.16500 119244.000000
10256 16601 1 0.16500 119244.000000
10257 15119 1 0.16500 119244.000000
10257 15454 1 0.16500 119244.000000
10258 15121 1 0.16500 119244.000000
10258 16586 1 0.16500 119244.000000
10259 14725 1 0.16500 119244.000000
10259 15712 1 0.16500 119244.000000
10260 15123 1 0.16500 119244.000000
10260 16080 1 0.16500 119244.000000
10261 15123 1 0.16500 119244.000000
10261 16435 1 0.16500 119244.000000
10262 15124 1 0.16500 119244.000000
10262 15423 1 0.16500 119244.000000
10263 15125 1 0.16500 119244.000000
10263 15249 1 0.16500 119244.000000
10264 15125 1 0.16500 119244.000000
10264 16368 1 0.16500 119244.000000
10265 15201 1 0.16500 119244.000000
10265 21739 1 0.16500 119244.000000
10266 14822 1 0.16500 119244.000000
10266 15126 1 0.16500 119244.000000
10267 15126 1 0.16500 119244.000000
10267 15764 1 0.16500 119244.000000
10268 15127 1 0.16500 119244.000000
10268 15733 1 0.16500 119244.000000
10269 15127 1 0.16500 119244.000000
10269 15877 1 0.16500 119244.000000
10270 15129 1 0.16500 119244.000000
10270 21742 1 0.16500 119244.000000
10271 15129 1 0.16500 119244.000000
10271 15266 1 0.16500 119244.000000
10272 14007 1 0.16500 119244.000000
10272 16512 1 0.16500 119244.000000
10273 15130 1 0.16500 119244.000000
10273 16162 1 0.16500 119244.000000
10274 15133 1 0.16500 119244.000000
10274 16585 1 0.16500 119244.000000
10275 11438 1 0.16500 119244.000000
10275 16050 1 0.16500 119244.000000
10276 15490 1 0.16500 119244.000000
10276 18296 1 0.16500 119244.000000
10277 15135 1 0.16500 119244.000000
10277 15899 1 0.16500 119244.000000
10278 15135 1 0.16500 119244.000000
10278 15278 1 0.16500 119244.000000
10279 15137 1 0.16500 119244.000000
10279 16228 1 0.16500 119244.000000
10280 15137 1 0.16500 119244.000000
10280 16597 1 0.16500 119244.000000
10281 15138 1 0.16500 119244.000000
10281 15181 1 0.16500 119244.000000
10282 15140 1 0.16500 119244.000000
10282 15861 1 0.16500 119244.000000
10283 15140 1 0.16500 119244.000000
10283 15186 1 0.16500 119244.000000
10284 15141 1 0.16500 119244.000000
10284 16385 1 0.16500 119244.000000
10285 12603 1 0.16500 119244.000000
10285 16275 1 0.16500 119244.000000
10286 15143 1 0.16500 119244.000000
10286 19750 1 0.16500 119244.000000
10287 15145 1 0.16500 119244.000000
10287 16500 1 0.16500 119244.000000
10288 15146 1 0.16500 119244.000000
10288 16312 1 0.16500 119244.000000
10289 15147 1 0.16500 119244.000000
10289 15351 1 0.16500 119244.000000
10290 11925 1 0.16500 119244.000000
10290 13010 1 0.16500 119244.000000
10291 15148 1 0.16500 119244.000000
10291 15279 1 0.16500 119244.000000
10292 15151 1 0.16500 119244.000000
10292 16617 1 0.16500 119244.000000
10293 15152 1 0.16500 119244.000000
10293 15231 1 0.16500 119244.000000
10294 15152 1 0.16500 119244.000000
10294 16269 1 0.16500 119244.000000
10295 15153 1 0.16500 119244.000000
10295 15403 1 0.16500 119244.000000
10296 14032 1 0.16500 119244.000000
10296 15154 1 0.16500 119244.000000
10297 15160 1 0.16500 119244.000000
10297 16624 1 0.16500 119244.000000
10298 15160 1 0.16500 119244.000000
10298 16597 1 0.16500 119244.000000
10299 15162 1 0.16500 119244.000000
10299 16414 1 0.16500 119244.000000
10300 15166 1 0.16500 119244.000000
10300 15781 1 0.16500 119244.000000
10301 15166 1 0.16500 119244.000000
10301 16078 1 0.16500 119244.000000
10302 15589 1 0.16500 119244.000000
10302 15781 1 0.16500 119244.000000
10303 15167 1 0.16500 119244.000000
10303 16151 1 0.16500 119244.000000
10304 15168 1 0.16500 119244.000000
10304 15390 1 0.16500 119244.000000
10305 15169 1 0.16500 119244.000000
10305 16095 1 0.16500 119244.000000
10306 16171 1 0.16500 119244.000000
10306 18802 1 0.16500 119244.000000
10307 18538 1 0.16500 119244.000000
10307 18802 1 0.16500 119244.000000
10308 15171 1 0.16500 119244.000000
10308 16129 1 0.16500 119244.000000
10309 15172 1 0.16500 119244.000000
10309 16597 1 0.16500 119244.000000
10310 15172 1 0.16500 119244.000000
10310 16228 1 0.16500 119244.000000
10311 15173 1 0.16500 119244.000000
10311 15273 1 0.16500 119244.000000
10312 15173 1 0.16500 119244.000000
10312 15438 1 0.16500 119244.000000
10313 15174 1 0.16500 119244.000000
10313 16146 1 0.16500 119244.000000
10314 15422 1 0.16500 119244.000000
10314 18778 1 0.16500 119244.000000
10315 14325 1 0.16500 119244.000000
10315 15175 1 0.16500 119244.000000
10316 15175 1 0.16500 119244.000000
10316 15424 1 0.16500 119244.000000
10317 15176 1 0.16500 119244.000000
10317 16561 1 0.16500 119244.000000
10318 15178 1 0.16500 119244.000000
10318 16096 1 0.16500 119244.000000
10319 15178 1 0.16500 119244.000000
10319 16082 1 0.16500 119244.000000
10320 15178 1 0.16500 119244.000000
10320 15922 1 0.16500 119244.000000
10321 15179 1 0.16500 119244.000000
10321 15829 1 0.16500 119244.000000
10322 15179 1 0.16500 119244.000000
10322 15590 1 0.16500 119244.000000
10323 15181 1 0.16500 119244.000000
10323 15459 1 0.16500 119244.000000
10324 15184 1 0.16500 119244.000000
10324 15706 1 0.16500 119244.000000
10325 15185 1 0.16500 119244.000000
10325 15582 1 0.16500 119244.000000
10326 15185 1 0.16500 119244.000000
10326 15635 1 0.16500 119244.000000
10327 15186 1 0.16500 119244.000000
10327 15659 1 0.16500 119244.000000
10328 15187 1 0.16500 119244.000000
10328 15504 1 0.16500 119244.000000
10329 18718 1 0.16500 119244.000000
10329 19966 1 0.16500 119244.000000
10330 16304 1 0.16500 119244.000000
10330 18394 1 0.16500 119244.000000
10331 15188 1 0.16500 119244.000000
10331 15359 1 0.16500 119244.000000
10332 12292 1 0.16500 119244.000000
10332 15188 1 0.16500 119244.000000
10333 15190 1 0.16500 119244.000000
10333 16001 1 0.16500 119244.000000
10334 15191 1 0.16500 119244.000000
10334 15894 1 0.16500 119244.000000
10335 15191 1 0.16500 119244.000000
10335 15244 1 0.16500 119244.000000
10336 15193 1 0.16500 119244.000000
10336 15517 1 0.16500 119244.000000
10337 15194 1 0.16500 119244.000000
10337 15914 1 0.16500 119244.000000
10338 15194 1 0.16500 119244.000000
10338 16075 1 0.16500 119244.000000
10339 15754 1 0.16500 119244.000000
10339 16191 1 0.16500 119244.000000
10340 15196 1 0.16500 119244.000000
10340 15754 1 0.16500 119244.000000
10341 15197 1 0.16500 119244.000000
10341 15595 1 0.16500 119244.000000
10342 15198 1 0.16500 119244.000000
10342 15476 1 0.16500 119244.000000
10343 15198 1 0.16500 119244.000000
10343 16150 1 0.16500 119244.000000
10344 15199 1 0.16500 119244.000000
10344 16625 1 0.16500 119244.000000
10345 15199 1 0.16500 119244.000000
10345 15281 1 0.16500 119244.000000
10346 15200 1 0.16500 119244.000000
10346 16086 1 0.16500 119244.000000
10347 15201 1 0.16500 119244.000000
10347 16544 1 0.16500 119244.000000
10348 15202 1 0.16500 119244.000000
10348 15939 1 0.16500 119244.000000
10349 15203 1 0.16500 119244.000000
10349 15795 1 0.16500 119244.000000
10350 15204 1 0.16500 119244.000000
10350 16602 1 0.16500 119244.000000
10351 15207 1 0.16500 119244.000000
10351 16435 1 0.16500 119244.000000
10352 15207 1 0.16500 119244.000000
10352 15558 1 0.16500 119244.000000
10353 15207 1 0.16500 119244.000000
10353 16511 1 0.16500 119244.000000
10354 15208 1 0.16500 119244.000000
10354 16194 1 0.16500 119244.000000
10355 15209 1 0.16500 119244.000000
10355 17806 1 0.16500 119244.000000
10356 16507 1 0.16500 119244.000000
10356 21448 1 0.16500 119244.000000
10357 15212 1 0.16500 119244.000000
10357 16178 1 0.16500 119244.000000
10358 15213 1 0.16500 119244.000000
10358 15271 1 0.16500 119244.000000
10359 15213 1 0.16500 119244.000000
10359 16449 1 0.16500 119244.000000
10360 15215 1 0.16500 119244.000000
10360 16615 1 0.16500 119244.000000
10361 15215 1 0.16500 119244.000000
10361 15485 1 0.16500 119244.000000
10362 15215 1 0.16500 119244.000000
10362 15636 1 0.16500 119244.000000
10363 15216 1 0.16500 119244.000000
10363 16412 1 0.16500 119244.000000
10364 15216 1 0.16500 119244.000000
10364 16083 1 0.16500 119244.000000
10365 15216 1 0.16500 119244.000000
10365 15967 1 0.16500 119244.000000
10366 15217 1 0.16500 119244.000000
10366 16291 1 0.16500 119244.000000
10367 15217 1 0.16500 119244.000000
10367 15983 1 0.16500 119244.000000
10368 15218 1 0.16500 119244.000000
10368 16523 1 0.16500 119244.000000
10369 15218 1 0.16500 119244.000000
10369 15552 1 0.16500 119244.000000
10370 13878 1 0.16500 119244.000000
10370 15219 1 0.16500 119244.000000
10371 15219 1 0.16500 119244.000000
10371 16494 1 0.16500 119244.000000
10372 15220 1 0.16500 119244.000000
10372 16079 1 0.16500 119244.000000
10373 15220 1 0.16500 119244.000000
10373 15376 1 0.16500 119244.000000
10374 15220 1 0.16500 119244.000000
10374 16545 1 0.16500 119244.000000
10375 15220 1 0.16500 119244.000000
10375 16520 1 0.16500 119244.000000
10376 15223 1 0.16500 119244.000000
10376 15881 1 0.16500 119244.000000
10377 15224 1 0.16500 119244.000000
10377 16444 1 0.16500 119244.000000
10378 15225 1 0.16500 119244.000000
10378 16168 1 0.16500 119244.000000
10379 15225 1 0.16500 119244.000000
10379 16204 1 0.16500 119244.000000
10380 15225 1 0.16500 119244.000000
10380 15404 1 0.16500 119244.000000
10381 15226 1 0.16500 119244.000000
10381 15798 1 0.16500 119244.000000
10382 15226 1 0.16500 119244.000000
10382 15455 1 0.16500 119244.000000
10383 15227 1 0.16500 119244.000000
10383 15316 1 0.16500 119244.000000
10384 15228 1 0.16500 119244.000000
10384 15540 1 0.16500 119244.000000
10385 15229 1 0.16500 119244.000000
10385 18718 1 0.16500 119244.000000
10386 15229 1 0.16500 119244.000000
10386 16447 1 0.16500 119244.000000
10387 15230 1 0.16500 119244.000000
10387 16137 1 0.16500 119244.000000
10388 15230 1 0.16500 119244.000000
10388 15967 1 0.16500 119244.000000
10389 15236 1 0.16500 119244.000000
10389 16170 1 0.16500 119244.000000
10390 15236 1 0.16500 119244.000000
10390 15819 1 0.16500 119244.000000
10391 15240 1 0.16500 119244.000000
10391 16588 1 0.16500 119244.000000
10392 15241 1 0.16500 119244.000000
10392 15746 1 0.16500 119244.000000
10393 15241 1 0.16500 119244.000000
10393 16284 1 0.16500 119244.000000
10394 15241 1 0.16500 119244.000000
10394 16372 1 0.16500 119244.000000
10395 15243 1 0.16500 119244.000000
10395 15992 1 0.16500 119244.000000
10396 15247 1 0.16500 119244.000000
10396 15600 1 0.16500 119244.000000
10397 17484 1 0.16500 119244.000000
10397 18338 1 0.16500 119244.000000
10398 15248 1 0.16500 119244.000000
10398 15371 1 0.16500 119244.000000
10399 15250 1 0.16500 119244.000000
10399 15678 1 0.16500 119244.000000
10400 15251 1 0.16500 119244.000000
10400 15697 1 0.16500 119244.000000
10401 13523 1 0.16500 119244.000000
10401 16186 1 0.16500 119244.000000
10402 15253 1 0.16500 119244.000000
10402 16621 1 0.16500 119244.000000
10403 15254 1 0.16500 119244.000000
10403 15845 1 0.16500 119244.000000
10404 15254 1 0.16500 119244.000000
10404 15710 1 0.16500 119244.000000
10405 15255 1 0.16500 119244.000000
10405 15759 1 0.16500 119244.000000
10406 14059 1 0.16500 119244.000000
10406 15255 1 0.16500 119244.000000
10407 14056 1 0.16500 119244.000000
10407 15332 1 0.16500 119244.000000
10408 15257 1 0.16500 119244.000000
10408 15268 1 0.16500 119244.000000
10409 15258 1 0.16500 119244.000000
10409 21793 1 0.16500 119244.000000
10410 15259 1 0.16500 119244.000000
10410 15263 1 0.16500 119244.000000
10411 15260 1 0.16500 119244.000000
10411 16224 1 0.16500 119244.000000
10412 15261 1 0.16500 119244.000000
10412 15591 1 0.16500 119244.000000
10413 15262 1 0.16500 119244.000000
10413 21082 1 0.16500 119244.000000
10414 13671 1 0.16500 119244.000000
10414 15262 1 0.16500 119244.000000
10415 15263 1 0.16500 119244.000000
10415 16283 1 0.16500 119244.000000
10416 15265 1 0.16500 119244.000000
10416 15833 1 0.16500 119244.000000
10417 15265 1 0.16500 119244.000000
10417 15523 1 0.16500 119244.000000
10418 15266 1 0.16500 119244.000000
10418 15553 1 0.16500 119244.000000
10419 15268 1 0.16500 119244.000000
10419 16431 1 0.16500 119244.000000
10420 15268 1 0.16500 119244.000000
10420 16414 1 0.16500 119244.000000
10421 15269 1 0.16500 119244.000000
10421 15290 1 0.16500 119244.000000
10422 11629 1 0.16500 119244.000000
10422 16169 1 0.16500 119244.000000
10423 15273 1 0.16500 119244.000000
10423 15563 1 0.16500 119244.000000
10424 15275 1 0.16500 119244.000000
10424 16276 1 0.16500 119244.000000
10425 15276 1 0.16500 119244.000000
10425 19822 1 0.16500 119244.000000
10426 15277 1 0.16500 119244.000000
10426 15889 1 0.16500 119244.000000
10427 15279 1 0.16500 119244.000000
10427 16028 1 0.16500 119244.000000
10428 15280 1 0.16500 119244.000000
10428 15347 1 0.16500 119244.000000
10429 15280 1 0.16500 119244.000000
10429 16216 1 0.16500 119244.000000
10430 15281 1 0.16500 119244.000000
10430 15461 1 0.16500 119244.000000
10431 15281 1 0.16500 119244.000000
10431 15541 1 0.16500 119244.000000
10432 15282 1 0.16500 119244.000000
10432 15473 1 0.16500 119244.000000
10433 15287 1 0.16500 119244.000000
10433 17694 1 0.16500 119244.000000
10434 15289 1 0.16500 119244.000000
10434 16020 1 0.16500 119244.000000
10435 16059 1 0.16500 119244.000000
10435 19810 1 0.16500 119244.000000
10436 16463 1 0.16500 119244.000000
10436 19810 1 0.16500 119244.000000
10437 15293 1 0.16500 119244.000000
10437 15802 1 0.16500 119244.000000
10438 15293 1 0.16500 119244.000000
10438 15314 1 0.16500 119244.000000
10439 15293 1 0.16500 119244.000000
10439 19930 1 0.16500 119244.000000
10440 15293 1 0.16500 119244.000000
10440 16686 1 0.16500 119244.000000
10441 15294 1 0.16500 119244.000000
10441 21829 1 0.16500 119244.000000
10442 15294 1 0.16500 119244.000000
10442 16093 1 0.16500 119244.000000
10443 15295 1 0.16500 119244.000000
10443 15907 1 0.16500 119244.000000
10444 15296 1 0.16500 119244.000000
10444 16001 1 0.16500 119244.000000
10445 15296 1 0.16500 119244.000000
10445 16292 1 0.16500 119244.000000
10446 15297 1 0.16500 119244.000000
10446 16479 1 0.16500 119244.000000
10447 15298 1 0.16500 119244.000000
10447 15373 1 0.16500 119244.000000
10448 15299 1 0.16500 119244.000000
10448 15703 1 0.16500 119244.000000
10449 15300 1 0.16500 119244.000000
10449 16576 1 0.16500 119244.000000
10450 15300 1 0.16500 119244.000000
10450 20518 1 0.16500 119244.000000
10451 15301 1 0.16500 119244.000000
10451 15355 1 0.16500 119244.000000
10452 15301 1 0.16500 119244.000000
10452 16118 1 0.16500 119244.000000
10453 15301 1 0.16500 119244.000000
10453 15884 1 0.16500 119244.000000
10454 15303 1 0.16500 119244.000000
10454 16491 1 0.16500 119244.000000
10455 15303 1 0.16500 119244.000000
10455 16502 1 0.16500 119244.000000
10456 15305 1 0.16500 119244.000000
10456 15928 1 0.16500 119244.000000
10457 15306 1 0.16500 119244.000000
10457 21883 1 0.16500 119244.000000
10458 15307 1 0.16500 119244.000000
10458 16092 1 0.16500 119244.000000
10459 14352 1 0.16500 119244.000000
10459 15805 1 0.16500 119244.000000
10460 15308 1 0.16500 119244.000000
10460 16010 1 0.16500 119244.000000
10461 15680 1 0.16500 119244.000000
10461 21748 1 0.16500 119244.000000
10462 16106 1 0.16500 119244.000000
10462 21748 1 0.16500 119244.000000
10463 21751 1 0.16500 119244.000000
10463 22049 1 0.16500 119244.000000
10464 15310 1 0.16500 119244.000000
10464 15820 1 0.16500 119244.000000
10465 15312 1 0.16500 119244.000000
10465 16562 1 0.16500 119244.000000
10466 15313 1 0.16500 119244.000000
10466 16061 1 0.16500 119244.000000
10467 14722 1 0.16500 119244.000000
10467 15313 1 0.16500 119244.000000
10468 12336 1 0.16500 119244.000000
10468 15314 1 0.16500 119244.000000
10469 15315 1 0.16500 119244.000000
10469 16026 1 0.16500 119244.000000
10470 15317 1 0.16500 119244.000000
10470 15769 1 0.16500 119244.000000
10471 12969 1 0.16500 119244.000000
10471 15318 1 0.16500 119244.000000
10472 15318 1 0.16500 119244.000000
10472 15711 1 0.16500 119244.000000
10473 15319 1 0.16500 119244.000000
10473 16134 1 0.16500 119244.000000
10474 15319 1 0.16500 119244.000000
10474 15664 1 0.16500 119244.000000
10475 15937 1 0.16500 119244.000000
10475 21754 1 0.16500 119244.000000
10476 15320 1 0.16500 119244.000000
10476 15522 1 0.16500 119244.000000
10477 15322 1 0.16500 119244.000000
10477 15503 1 0.16500 119244.000000
10478 15323 1 0.16500 119244.000000
10478 15435 1 0.16500 119244.000000
10479 15324 1 0.16500 119244.000000
10479 15724 1 0.16500 119244.000000
10480 13376 1 0.16500 119244.000000
10480 15328 1 0.16500 119244.000000
10481 15328 1 0.16500 119244.000000
10481 16248 1 0.16500 119244.000000
10482 15329 1 0.16500 119244.000000
10482 15379 1 0.16500 119244.000000
10483 15330 1 0.16500 119244.000000
10483 16098 1 0.16500 119244.000000
10484 15331 1 0.16500 119244.000000
10484 16054 1 0.16500 119244.000000
10485 15332 1 0.16500 119244.000000
10485 15479 1 0.16500 119244.000000
10486 15333 1 0.16500 119244.000000
10486 15403 1 0.16500 119244.000000
10487 15335 1 0.16500 119244.000000
10487 15892 1 0.16500 119244.000000
10488 15335 1 0.16500 119244.000000
10488 15885 1 0.16500 119244.000000
10489 14035 1 0.16500 119244.000000
10489 15336 1 0.16500 119244.000000
10490 15336 1 0.16500 119244.000000
10490 16094 1 0.16500 119244.000000
10491 15745 1 0.16500 119244.000000
10491 20158 1 0.16500 119244.000000
10492 12433 1 0.16500 119244.000000
10492 15337 1 0.16500 119244.000000
10493 15339 1 0.16500 119244.000000
10493 15908 1 0.16500 119244.000000
10494 15342 1 0.16500 119244.000000
10494 15981 1 0.16500 119244.000000
10495 15343 1 0.16500 119244.000000
10495 16128 1 0.16500 119244.000000
10496 11962 1 0.16500 119244.000000
10496 15344 1 0.16500 119244.000000
10497 15345 1 0.16500 119244.000000
10497 16529 1 0.16500 119244.000000
10498 15346 1 0.16500 119244.000000
10498 16098 1 0.16500 119244.000000
10499 15347 1 0.16500 119244.000000
10499 15728 1 0.16500 119244.000000
10500 15348 1 0.16500 119244.000000
10500 19750 1 0.16500 119244.000000
10501 15350 1 0.16500 119244.000000
10501 16187 1 0.16500 119244.000000
10502 15354 1 0.16500 119244.000000
10502 16288 1 0.16500 119244.000000
10503 15354 1 0.16500 119244.000000
10503 16496 1 0.16500 119244.000000
10504 15356 1 0.16500 119244.000000
10504 15901 1 0.16500 119244.000000
10505 15357 1 0.16500 119244.000000
10505 16195 1 0.16500 119244.000000
10506 15357 1 0.16500 119244.000000
10506 15415 1 0.16500 119244.000000
10507 15358 1 0.16500 119244.000000
10507 15590 1 0.16500 119244.000000
10508 15434 1 0.16500 119244.000000
10508 19186 1 0.16500 119244.000000
10509 15361 1 0.16500 119244.000000
10509 16457 1 0.16500 119244.000000
10510 15361 1 0.16500 119244.000000
10510 16450 1 0.16500 119244.000000
10511 15361 1 0.16500 119244.000000
10511 15548 1 0.16500 119244.000000
10512 15363 1 0.16500 119244.000000
10512 16360 1 0.16500 119244.000000
10513 13671 1 0.16500 119244.000000
10513 19042 1 0.16500 119244.000000
10514 13877 1 0.16500 119244.000000
10514 19042 1 0.16500 119244.000000
10515 15365 1 0.16500 119244.000000
10515 21775 1 0.16500 119244.000000
10516 15365 1 0.16500 119244.000000
10516 15392 1 0.16500 119244.000000
10517 15366 1 0.16500 119244.000000
10517 15640 1 0.16500 119244.000000
10518 12565 1 0.16500 119244.000000
10518 13319 1 0.16500 119244.000000
10519 15368 1 0.16500 119244.000000
10519 15455 1 0.16500 119244.000000
10520 15369 1 0.16500 119244.000000
10520 16103 1 0.16500 119244.000000
10521 14695 1 0.16500 119244.000000
10521 15698 1 0.16500 119244.000000
10522 15371 1 0.16500 119244.000000
10522 15505 1 0.16500 119244.000000
10523 15371 1 0.16500 119244.000000
10523 16061 1 0.16500 119244.000000
10524 15373 1 0.16500 119244.000000
10524 16202 1 0.16500 119244.000000
10525 15373 1 0.16500 119244.000000
10525 16384 1 0.16500 119244.000000
10526 15374 1 0.16500 119244.000000
10526 15463 1 0.16500 119244.000000
10527 15376 1 0.16500 119244.000000
10527 15935 1 0.16500 119244.000000
10528 15377 1 0.16500 119244.000000
10528 16226 1 0.16500 119244.000000
10529 15379 1 0.16500 119244.000000
10529 16160 1 0.16500 119244.000000
10530 15380 1 0.16500 119244.000000
10530 15433 1 0.16500 119244.000000
10531 12602 1 0.16500 119244.000000
10531 16008 1 0.16500 119244.000000
10532 12602 1 0.16500 119244.000000
10532 15871 1 0.16500 119244.000000
10533 15383 1 0.16500 119244.000000
10533 16307 1 0.16500 119244.000000
10534 15384 1 0.16500 119244.000000
10534 15801 1 0.16500 119244.000000
10535 15384 1 0.16500 119244.000000
10535 16045 1 0.16500 119244.000000
10536 15385 1 0.16500 119244.000000
10536 19678 1 0.16500 119244.000000
10537 15386 1 0.16500 119244.000000
10537 16449 1 0.16500 119244.000000
10538 15387 1 0.16500 119244.000000
10538 15497 1 0.16500 119244.000000
10539 15388 1 0.16500 119244.000000
10539 15798 1 0.16500 119244.000000
10540 15389 1 0.16500 119244.000000
10540 15499 1 0.16500 119244.000000
10541 15390 1 0.16500 119244.000000
10541 15709 1 0.16500 119244.000000
10542 15390 1 0.16500 119244.000000
10542 16382 1 0.16500 119244.000000
10543 15391 1 0.16500 119244.000000
10543 16060 1 0.16500 119244.000000
10544 15392 1 0.16500 119244.000000
10544 16206 1 0.16500 119244.000000
10545 15394 1 0.16500 119244.000000
10545 19546 1 0.16500 119244.000000
10546 15395 1 0.16500 119244.000000
10546 15726 1 0.16500 119244.000000
10547 15395 1 0.16500 119244.000000
10547 15687 1 0.16500 119244.000000
10548 15396 1 0.16500 119244.000000
10548 16496 1 0.16500 119244.000000
10549 15397 1 0.16500 119244.000000
10549 15680 1 0.16500 119244.000000
10550 15398 1 0.16500 119244.000000
10550 18550 1 0.16500 119244.000000
10551 15398 1 0.16500 119244.000000
10551 20950 1 0.16500 119244.000000
10552 15398 1 0.16500 119244.000000
10552 15486 1 0.16500 119244.000000
10553 15400 1 0.16500 119244.000000
10553 16165 1 0.16500 119244.000000
10554 15401 1 0.16500 119244.000000
10554 16559 1 0.16500 119244.000000
10555 15401 1 0.16500 119244.000000
10555 21943 1 0.16500 119244.000000
10556 15402 1 0.16500 119244.000000
10556 16391 1 0.16500 119244.000000
10557 15402 1 0.16500 119244.000000
10557 16345 1 0.16500 119244.000000
10558 15402 1 0.16500 119244.000000
10558 15412 1 0.16500 119244.000000
10559 15404 1 0.16500 119244.000000
10559 16557 1 0.16500 119244.000000
10560 19630 1 0.16500 119244.000000
10560 20782 1 0.16500 119244.000000
10561 16200 1 0.16500 119244.000000
10561 20782 1 0.16500 119244.000000
10562 15405 1 0.16500 119244.000000
10562 16305 1 0.16500 119244.000000
10563 15405 1 0.16500 119244.000000
10563 16053 1 0.16500 119244.000000
10564 15405 1 0.16500 119244.000000
10564 15762 1 0.16500 119244.000000
10565 15406 1 0.16500 119244.000000
10565 15955 1 0.16500 119244.000000
10566 15407 1 0.16500 119244.000000
10566 15439 1 0.16500 119244.000000
10567 21766 1 0.16500 119244.000000
10567 21874 1 0.16500 119244.000000
10568 15408 1 0.16500 119244.000000
10568 16256 1 0.16500 119244.000000
10569 15409 1 0.16500 119244.000000
10569 16189 1 0.16500 119244.000000
10570 15409 1 0.16500 119244.000000
10570 19690 1 0.16500 119244.000000
10571 15411 1 0.16500 119244.000000
10571 15567 1 0.16500 119244.000000
10572 16307 1 0.16500 119244.000000
10572 21142 1 0.16500 119244.000000
10573 15414 1 0.16500 119244.000000
10573 16603 1 0.16500 119244.000000
10574 15415 1 0.16500 119244.000000
10574 16288 1 0.16500 119244.000000
10575 15416 1 0.16500 119244.000000
10575 15818 1 0.16500 119244.000000
10576 12831 1 0.16500 119244.000000
10576 15416 1 0.16500 119244.000000
10577 15416 1 0.16500 119244.000000
10577 16339 1 0.16500 119244.000000
10578 15418 1 0.16500 119244.000000
10578 15666 1 0.16500 119244.000000
10579 15420 1 0.16500 119244.000000
10579 16476 1 0.16500 119244.000000
10580 15420 1 0.16500 119244.000000
10580 16314 1 0.16500 119244.000000
10581 15863 1 0.16500 119244.000000
10581 21769 1 0.16500 119244.000000
10582 18622 1 0.16500 119244.000000
10582 21769 1 0.16500 119244.000000
10583 15422 1 0.16500 119244.000000
10583 16288 1 0.16500 119244.000000
10584 15423 1 0.16500 119244.000000
10584 15660 1 0.16500 119244.000000
10585 15423 1 0.16500 119244.000000
10585 15452 1 0.16500 119244.000000
10586 15424 1 0.16500 119244.000000
10586 15502 1 0.16500 119244.000000
10587 16301 1 0.16500 119244.000000
10587 20086 1 0.16500 119244.000000
10588 15425 1 0.16500 119244.000000
10588 15733 1 0.16500 119244.000000
10589 15428 1 0.16500 119244.000000
10589 16311 1 0.16500 119244.000000
10590 15429 1 0.16500 119244.000000
10590 16550 1 0.16500 119244.000000
10591 15450 1 0.16500 119244.000000
10591 21775 1 0.16500 119244.000000
10592 15977 1 0.16500 119244.000000
10592 21778 1 0.16500 119244.000000
10593 16522 1 0.16500 119244.000000
10593 21778 1 0.16500 119244.000000
10594 15431 1 0.16500 119244.000000
10594 16170 1 0.16500 119244.000000
10595 15432 1 0.16500 119244.000000
10595 16249 1 0.16500 119244.000000
10596 15433 1 0.16500 119244.000000
10596 16495 1 0.16500 119244.000000
10597 15434 1 0.16500 119244.000000
10597 15862 1 0.16500 119244.000000
10598 15435 1 0.16500 119244.000000
10598 15605 1 0.16500 119244.000000
10599 15436 1 0.16500 119244.000000
10599 16031 1 0.16500 119244.000000
10600 15437 1 0.16500 119244.000000
10600 16548 1 0.16500 119244.000000
10601 15437 1 0.16500 119244.000000
10601 16452 1 0.16500 119244.000000
10602 15441 1 0.16500 119244.000000
10602 16534 1 0.16500 119244.000000
10603 15442 1 0.16500 119244.000000
10603 21925 1 0.16500 119244.000000
10604 15442 1 0.16500 119244.000000
10604 15495 1 0.16500 119244.000000
10605 15443 1 0.16500 119244.000000
10605 15694 1 0.16500 119244.000000
10606 15444 1 0.16500 119244.000000
10606 16521 1 0.16500 119244.000000
10607 15445 1 0.16500 119244.000000
10607 16093 1 0.16500 119244.000000
10608 15449 1 0.16500 119244.000000
10608 16211 1 0.16500 119244.000000
10609 15449 1 0.16500 119244.000000
10609 16371 1 0.16500 119244.000000
10610 15450 1 0.16500 119244.000000
10610 16379 1 0.16500 119244.000000
10611 15450 1 0.16500 119244.000000
10611 20566 1 0.16500 119244.000000
10612 15452 1 0.16500 119244.000000
10612 16023 1 0.16500 119244.000000
10613 15452 1 0.16500 119244.000000
10613 16150 1 0.16500 119244.000000
10614 15454 1 0.16500 119244.000000
10614 16546 1 0.16500 119244.000000
10615 15456 1 0.16500 119244.000000
10615 16326 1 0.16500 119244.000000
10616 15459 1 0.16500 119244.000000
10616 15618 1 0.16500 119244.000000
10617 15460 1 0.16500 119244.000000
10617 15851 1 0.16500 119244.000000
10618 15460 1 0.16500 119244.000000
10618 15621 1 0.16500 119244.000000
10619 15461 1 0.16500 119244.000000
10619 16154 1 0.16500 119244.000000
10620 15464 1 0.16500 119244.000000
10620 16277 1 0.16500 119244.000000
10621 15464 1 0.16500 119244.000000
10621 15634 1 0.16500 119244.000000
10622 15465 1 0.16500 119244.000000
10622 16009 1 0.16500 119244.000000
10623 15466 1 0.16500 119244.000000
10623 16353 1 0.16500 119244.000000
10624 15466 1 0.16500 119244.000000
10624 16439 1 0.16500 119244.000000
10625 13411 1 0.16500 119244.000000
10625 15696 1 0.16500 119244.000000
10626 19582 1 0.16500 119244.000000
10626 21787 1 0.16500 119244.000000
10627 15467 1 0.16500 119244.000000
10627 15476 1 0.16500 119244.000000
10628 12799 1 0.16500 119244.000000
10628 16354 1 0.16500 119244.000000
10629 15468 1 0.16500 119244.000000
10629 15880 1 0.16500 119244.000000
10630 15468 1 0.16500 119244.000000
10630 16184 1 0.16500 119244.000000
10631 15469 1 0.16500 119244.000000
10631 15953 1 0.16500 119244.000000
10632 15473 1 0.16500 119244.000000
10632 19102 1 0.16500 119244.000000
10633 15474 1 0.16500 119244.000000
10633 15606 1 0.16500 119244.000000
10634 15476 1 0.16500 119244.000000
10634 15615 1 0.16500 119244.000000
10635 15478 1 0.16500 119244.000000
10635 16021 1 0.16500 119244.000000
10636 15478 1 0.16500 119244.000000
10636 15906 1 0.16500 119244.000000
10637 15480 1 0.16500 119244.000000
10637 16319 1 0.16500 119244.000000
10638 14067 1 0.16500 119244.000000
10638 15481 1 0.16500 119244.000000
10639 15482 1 0.16500 119244.000000
10639 16444 1 0.16500 119244.000000
10640 15482 1 0.16500 119244.000000
10640 15945 1 0.16500 119244.000000
10641 15482 1 0.16500 119244.000000
10641 16005 1 0.16500 119244.000000
10642 15482 1 0.16500 119244.000000
10642 16198 1 0.16500 119244.000000
10643 15483 1 0.16500 119244.000000
10643 16007 1 0.16500 119244.000000
10644 15484 1 0.16500 119244.000000
10644 15823 1 0.16500 119244.000000
10645 15487 1 0.16500 119244.000000
10645 16162 1 0.16500 119244.000000
10646 15487 1 0.16500 119244.000000
10646 16308 1 0.16500 119244.000000
10647 15466 1 0.16500 119244.000000
10647 15488 1 0.16500 119244.000000
10648 15489 1 0.16500 119244.000000
10648 15508 1 0.16500 119244.000000
10649 15490 1 0.16500 119244.000000
10649 21310 1 0.16500 119244.000000
10650 15491 1 0.16500 119244.000000
10650 16335 1 0.16500 119244.000000
10651 15493 1 0.16500 119244.000000
10651 16409 1 0.16500 119244.000000
10652 15493 1 0.16500 119244.000000
10652 15579 1 0.16500 119244.000000
10653 15494 1 0.16500 119244.000000
10653 16260 1 0.16500 119244.000000
10654 15495 1 0.16500 119244.000000
10654 15593 1 0.16500 119244.000000
10655 15496 1 0.16500 119244.000000
10655 16099 1 0.16500 119244.000000
10656 15496 1 0.16500 119244.000000
10656 16022 1 0.16500 119244.000000
10657 15496 1 0.16500 119244.000000
10657 15892 1 0.16500 119244.000000
10658 15497 1 0.16500 119244.000000
10658 15772 1 0.16500 119244.000000
10659 15500 1 0.16500 119244.000000
10659 15556 1 0.16500 119244.000000
10660 15501 1 0.16500 119244.000000
10660 16164 1 0.16500 119244.000000
10661 15225 1 0.16500 119244.000000
10661 15501 1 0.16500 119244.000000
10662 15502 1 0.16500 119244.000000
10662 16009 1 0.16500 119244.000000
10663 15503 1 0.16500 119244.000000
10663 16010 1 0.16500 119244.000000
10664 15504 1 0.16500 119244.000000
10664 15575 1 0.16500 119244.000000
10665 15505 1 0.16500 119244.000000
10665 15633 1 0.16500 119244.000000
10666 15507 1 0.16500 119244.000000
10666 15620 1 0.16500 119244.000000
10667 15509 1 0.16500 119244.000000
10667 15710 1 0.16500 119244.000000
10668 15511 1 0.16500 119244.000000
10668 15525 1 0.16500 119244.000000
10669 15513 1 0.16500 119244.000000
10669 15996 1 0.16500 119244.000000
10670 15513 1 0.16500 119244.000000
10670 19066 1 0.16500 119244.000000
10671 15513 1 0.16500 119244.000000
10671 18838 1 0.16500 119244.000000
10672 14976 1 0.16500 119244.000000
10672 15514 1 0.16500 119244.000000
10673 15519 1 0.16500 119244.000000
10673 15842 1 0.16500 119244.000000
10674 15520 1 0.16500 119244.000000
10674 21823 1 0.16500 119244.000000
10675 15521 1 0.16500 119244.000000
10675 15603 1 0.16500 119244.000000
10676 12079 1 0.16500 119244.000000
10676 15986 1 0.16500 119244.000000
10677 14178 1 0.16500 119244.000000
10677 15523 1 0.16500 119244.000000
10678 15524 1 0.16500 119244.000000
10678 21892 1 0.16500 119244.000000
10679 15524 1 0.16500 119244.000000
10679 16121 1 0.16500 119244.000000
10680 14716 1 0.16500 119244.000000
10680 16441 1 0.16500 119244.000000
10681 12831 1 0.16500 119244.000000
10681 15909 1 0.16500 119244.000000
10682 15528 1 0.16500 119244.000000
10682 16205 1 0.16500 119244.000000
10683 15529 1 0.16500 119244.000000
10683 15919 1 0.16500 119244.000000
10684 15530 1 0.16500 119244.000000
10684 16362 1 0.16500 119244.000000
10685 15533 1 0.16500 119244.000000
10685 16125 1 0.16500 119244.000000
10686 15533 1 0.16500 119244.000000
10686 15944 1 0.16500 119244.000000
10687 15534 1 0.16500 119244.000000
10687 15870 1 0.16500 119244.000000
10688 15535 1 0.16500 119244.000000
10688 16579 1 0.16500 119244.000000
10689 15535 1 0.16500 119244.000000
10689 16566 1 0.16500 119244.000000
10690 15535 1 0.16500 119244.000000
10690 15649 1 0.16500 119244.000000
10691 15536 1 0.16500 119244.000000
10691 16258 1 0.16500 119244.000000
10692 15537 1 0.16500 119244.000000
10692 15998 1 0.16500 119244.000000
10693 15537 1 0.16500 119244.000000
10693 16108 1 0.16500 119244.000000
10694 15984 1 0.16500 119244.000000
10694 21793 1 0.16500 119244.000000
10695 15539 1 0.16500 119244.000000
10695 16539 1 0.16500 119244.000000
10696 15540 1 0.16500 119244.000000
10696 16261 1 0.16500 119244.000000
10697 15544 1 0.16500 119244.000000
10697 16074 1 0.16500 119244.000000
10698 15067 1 0.16500 119244.000000
10698 15805 1 0.16500 119244.000000
10699 15547 1 0.16500 119244.000000
10699 16453 1 0.16500 119244.000000
10700 15547 1 0.16500 119244.000000
10700 16194 1 0.16500 119244.000000
10701 15755 1 0.16500 119244.000000
10701 17162 1 0.16500 119244.000000
10702 15550 1 0.16500 119244.000000
10702 16156 1 0.16500 119244.000000
10703 15556 1 0.16500 119244.000000
10703 16523 1 0.16500 119244.000000
10704 13508 1 0.16500 119244.000000
10704 15557 1 0.16500 119244.000000
10705 15559 1 0.16500 119244.000000
10705 15873 1 0.16500 119244.000000
10706 15560 1 0.16500 119244.000000
10706 16382 1 0.16500 119244.000000
10707 15561 1 0.16500 119244.000000
10707 16377 1 0.16500 119244.000000
10708 15561 1 0.16500 119244.000000
10708 15766 1 0.16500 119244.000000
10709 15562 1 0.16500 119244.000000
10709 16461 1 0.16500 119244.000000
10710 15564 1 0.16500 119244.000000
10710 15760 1 0.16500 119244.000000
10711 15564 1 0.16500 119244.000000
10711 19366 1 0.16500 119244.000000
10712 15566 1 0.16500 119244.000000
10712 15882 1 0.16500 119244.000000
10713 15566 1 0.16500 119244.000000
10713 16551 1 0.16500 119244.000000
10714 15568 1 0.16500 119244.000000
10714 15860 1 0.16500 119244.000000
10715 15568 1 0.16500 119244.000000
10715 15918 1 0.16500 119244.000000
10716 15570 1 0.16500 119244.000000
10716 16335 1 0.16500 119244.000000
10717 15571 1 0.16500 119244.000000
10717 16217 1 0.16500 119244.000000
10718 15572 1 0.16500 119244.000000
10718 15817 1 0.16500 119244.000000
10719 15574 1 0.16500 119244.000000
10719 16279 1 0.16500 119244.000000
10720 15575 1 0.16500 119244.000000
10720 15727 1 0.16500 119244.000000
10721 15576 1 0.16500 119244.000000
10721 16146 1 0.16500 119244.000000
10722 15581 1 0.16500 119244.000000
10722 16185 1 0.16500 119244.000000
10723 15581 1 0.16500 119244.000000
10723 15634 1 0.16500 119244.000000
10724 15585 1 0.16500 119244.000000
10724 16001 1 0.16500 119244.000000
10725 15585 1 0.16500 119244.000000
10725 15709 1 0.16500 119244.000000
10726 15587 1 0.16500 119244.000000
10726 16271 1 0.16500 119244.000000
10727 14098 1 0.16500 119244.000000
10727 16015 1 0.16500 119244.000000
10728 15588 1 0.16500 119244.000000
10728 16130 1 0.16500 119244.000000
10729 15591 1 0.16500 119244.000000
10729 15962 1 0.16500 119244.000000
10730 15593 1 0.16500 119244.000000
10730 16081 1 0.16500 119244.000000
10731 15594 1 0.16500 119244.000000
10731 15761 1 0.16500 119244.000000
10732 15595 1 0.16500 119244.000000
10732 15896 1 0.16500 119244.000000
10733 15596 1 0.16500 119244.000000
10733 16479 1 0.16500 119244.000000
10734 15596 1 0.16500 119244.000000
10734 16428 1 0.16500 119244.000000
10735 15597 1 0.16500 119244.000000
10735 16032 1 0.16500 119244.000000
10736 15978 1 0.16500 119244.000000
10736 21802 1 0.16500 119244.000000
10737 14503 1 0.16500 119244.000000
10737 15899 1 0.16500 119244.000000
10738 15598 1 0.16500 119244.000000
10738 16013 1 0.16500 119244.000000
10739 15599 1 0.16500 119244.000000
10739 16072 1 0.16500 119244.000000
10740 15602 1 0.16500 119244.000000
10740 15669 1 0.16500 119244.000000
10741 15313 1 0.16500 119244.000000
10741 15603 1 0.16500 119244.000000
10742 15604 1 0.16500 119244.000000
10742 16521 1 0.16500 119244.000000
10743 15604 1 0.16500 119244.000000
10743 16563 1 0.16500 119244.000000
10744 15964 1 0.16500 119244.000000
10744 21805 1 0.16500 119244.000000
10745 15606 1 0.16500 119244.000000
10745 16156 1 0.16500 119244.000000
10746 15606 1 0.16500 119244.000000
10746 16146 1 0.16500 119244.000000
10747 15607 1 0.16500 119244.000000
10747 19654 1 0.16500 119244.000000
10748 15608 1 0.16500 119244.000000
10748 16597 1 0.16500 119244.000000
10749 15609 1 0.16500 119244.000000
10749 15805 1 0.16500 119244.000000
10750 15610 1 0.16500 119244.000000
10750 15631 1 0.16500 119244.000000
10751 15613 1 0.16500 119244.000000
10751 16105 1 0.16500 119244.000000
10752 15616 1 0.16500 119244.000000
10752 15665 1 0.16500 119244.000000
10753 15617 1 0.16500 119244.000000
10753 15797 1 0.16500 119244.000000
10754 15617 1 0.16500 119244.000000
10754 16327 1 0.16500 119244.000000
10755 14405 1 0.16500 119244.000000
10755 15623 1 0.16500 119244.000000
10756 16077 1 0.16500 119244.000000
10756 21808 1 0.16500 119244.000000
10757 16555 1 0.16500 119244.000000
10757 21808 1 0.16500 119244.000000
10758 15626 1 0.16500 119244.000000
10758 16055 1 0.16500 119244.000000
10759 15627 1 0.16500 119244.000000
10759 21871 1 0.16500 119244.000000
10760 15630 1 0.16500 119244.000000
10760 16169 1 0.16500 119244.000000
10761 15631 1 0.16500 119244.000000
10761 16142 1 0.16500 119244.000000
10762 15632 1 0.16500 119244.000000
10762 16299 1 0.16500 119244.000000
10763 15634 1 0.16500 119244.000000
10763 15976 1 0.16500 119244.000000
10764 15638 1 0.16500 119244.000000
10764 19222 1 0.16500 119244.000000
10765 15638 1 0.16500 119244.000000
10765 15653 1 0.16500 119244.000000
10766 15638 1 0.16500 119244.000000
10766 20542 1 0.16500 119244.000000
10767 15639 1 0.16500 119244.000000
10767 15641 1 0.16500 119244.000000
10768 15640 1 0.16500 119244.000000
10768 15800 1 0.16500 119244.000000
10769 15641 1 0.16500 119244.000000
10769 15979 1 0.16500 119244.000000
10770 15643 1 0.16500 119244.000000
10770 16099 1 0.16500 119244.000000
10771 15644 1 0.16500 119244.000000
10771 15799 1 0.16500 119244.000000
10772 15645 1 0.16500 119244.000000
10772 15828 1 0.16500 119244.000000
10773 15646 1 0.16500 119244.000000
10773 15759 1 0.16500 119244.000000
10774 15647 1 0.16500 119244.000000
10774 15803 1 0.16500 119244.000000
10775 15648 1 0.16500 119244.000000
10775 16000 1 0.16500 119244.000000
10776 15649 1 0.16500 119244.000000
10776 16416 1 0.16500 119244.000000
10777 15649 1 0.16500 119244.000000
10777 16141 1 0.16500 119244.000000
10778 15651 1 0.16500 119244.000000
10778 16160 1 0.16500 119244.000000
10779 15652 1 0.16500 119244.000000
10779 15845 1 0.16500 119244.000000
10780 15652 1 0.16500 119244.000000
10780 15992 1 0.16500 119244.000000
10781 15656 1 0.16500 119244.000000
10781 16537 1 0.16500 119244.000000
10782 15659 1 0.16500 119244.000000
10782 15667 1 0.16500 119244.000000
10783 15659 1 0.16500 119244.000000
10783 15673 1 0.16500 119244.000000
10784 15662 1 0.16500 119244.000000
10784 21937 1 0.16500 119244.000000
10785 15665 1 0.16500 119244.000000
10785 15743 1 0.16500 119244.000000
10786 15665 1 0.16500 119244.000000
10786 17022 1 0.16500 119244.000000
10787 15667 1 0.16500 119244.000000
10787 15748 1 0.16500 119244.000000
10788 15671 1 0.16500 119244.000000
10788 16395 1 0.16500 119244.000000
10789 15673 1 0.16500 119244.000000
10789 16500 1 0.16500 119244.000000
10790 15674 1 0.16500 119244.000000
10790 20878 1 0.16500 119244.000000
10791 15675 1 0.16500 119244.000000
10791 16312 1 0.16500 119244.000000
10792 15676 1 0.16500 119244.000000
10792 16492 1 0.16500 119244.000000
10793 13904 1 0.16500 119244.000000
10793 15676 1 0.16500 119244.000000
10794 15677 1 0.16500 119244.000000
10794 16155 1 0.16500 119244.000000
10795 16298 1 0.16500 119244.000000
10795 20914 1 0.16500 119244.000000
10796 15678 1 0.16500 119244.000000
10796 16457 1 0.16500 119244.000000
10797 15679 1 0.16500 119244.000000
10797 15864 1 0.16500 119244.000000
10798 15679 1 0.16500 119244.000000
10798 16212 1 0.16500 119244.000000
10799 15681 1 0.16500 119244.000000
10799 16159 1 0.16500 119244.000000
10800 15684 1 0.16500 119244.000000
10800 16621 1 0.16500 119244.000000
10801 15684 1 0.16500 119244.000000
10801 15902 1 0.16500 119244.000000
10802 15686 1 0.16500 119244.000000
10802 15730 1 0.16500 119244.000000
10803 15690 1 0.16500 119244.000000
10803 16193 1 0.16500 119244.000000
10804 16583 1 0.16500 119244.000000
10804 19570 1 0.16500 119244.000000
10805 15691 1 0.16500 119244.000000
10805 16543 1 0.16500 119244.000000
10806 15693 1 0.16500 119244.000000
10806 15963 1 0.16500 119244.000000
10807 15696 1 0.16500 119244.000000
10807 16235 1 0.16500 119244.000000
10808 15697 1 0.16500 119244.000000
10808 17232 1 0.16500 119244.000000
10809 15698 1 0.16500 119244.000000
10809 16455 1 0.16500 119244.000000
10810 15698 1 0.16500 119244.000000
10810 16134 1 0.16500 119244.000000
10811 15701 1 0.16500 119244.000000
10811 15931 1 0.16500 119244.000000
10812 15703 1 0.16500 119244.000000
10812 16484 1 0.16500 119244.000000
10813 15707 1 0.16500 119244.000000
10813 15729 1 0.16500 119244.000000
10814 19210 1 0.16500 119244.000000
10814 21829 1 0.16500 119244.000000
10815 15712 1 0.16500 119244.000000
10815 17694 1 0.16500 119244.000000
10816 15713 1 0.16500 119244.000000
10816 16016 1 0.16500 119244.000000
10817 15715 1 0.16500 119244.000000
10817 16549 1 0.16500 119244.000000
10818 15715 1 0.16500 119244.000000
10818 16299 1 0.16500 119244.000000
10819 14680 1 0.16500 119244.000000
10819 15717 1 0.16500 119244.000000
10820 15719 1 0.16500 119244.000000
10820 16028 1 0.16500 119244.000000
10821 16358 1 0.16500 119244.000000
10821 21094 1 0.16500 119244.000000
10822 15275 1 0.16500 119244.000000
10822 21094 1 0.16500 119244.000000
10823 15723 1 0.16500 119244.000000
10823 16281 1 0.16500 119244.000000
10824 15723 1 0.16500 119244.000000
10824 15964 1 0.16500 119244.000000
10825 15724 1 0.16500 119244.000000
10825 15949 1 0.16500 119244.000000
10826 15725 1 0.16500 119244.000000
10826 16149 1 0.16500 119244.000000
10827 15729 1 0.16500 119244.000000
10827 16488 1 0.16500 119244.000000
10828 15730 1 0.16500 119244.000000
10828 15807 1 0.16500 119244.000000
10829 15736 1 0.16500 119244.000000
10829 17848 1 0.16500 119244.000000
10830 15739 1 0.16500 119244.000000
10830 16569 1 0.16500 119244.000000
10831 15742 1 0.16500 119244.000000
10831 16106 1 0.16500 119244.000000
10832 15743 1 0.16500 119244.000000
10832 15858 1 0.16500 119244.000000
10833 15745 1 0.16500 119244.000000
10833 16367 1 0.16500 119244.000000
10834 15747 1 0.16500 119244.000000
10834 15897 1 0.16500 119244.000000
10835 11806 1 0.16500 119244.000000
10835 15747 1 0.16500 119244.000000
10836 15749 1 0.16500 119244.000000
10836 19810 1 0.16500 119244.000000
10837 15749 1 0.16500 119244.000000
10837 16558 1 0.16500 119244.000000
10838 15750 1 0.16500 119244.000000
10838 16012 1 0.16500 119244.000000
10839 13530 1 0.16500 119244.000000
10839 15765 1 0.16500 119244.000000
10840 15752 1 0.16500 119244.000000
10840 16234 1 0.16500 119244.000000
10841 15752 1 0.16500 119244.000000
10841 16049 1 0.16500 119244.000000
10842 15753 1 0.16500 119244.000000
10842 15955 1 0.16500 119244.000000
10843 12969 1 0.16500 119244.000000
10843 15753 1 0.16500 119244.000000
10844 15756 1 0.16500 119244.000000
10844 16377 1 0.16500 119244.000000
10845 15757 1 0.16500 119244.000000
10845 16325 1 0.16500 119244.000000
10846 15757 1 0.16500 119244.000000
10846 16254 1 0.16500 119244.000000
10847 15758 1 0.16500 119244.000000
10847 16473 1 0.16500 119244.000000
10848 15760 1 0.16500 119244.000000
10848 16480 1 0.16500 119244.000000
10849 15763 1 0.16500 119244.000000
10849 16539 1 0.16500 119244.000000
10850 15768 1 0.16500 119244.000000
10850 16451 1 0.16500 119244.000000
10851 15768 1 0.16500 119244.000000
10851 16277 1 0.16500 119244.000000
10852 15772 1 0.16500 119244.000000
10852 18282 1 0.16500 119244.000000
10853 15774 1 0.16500 119244.000000
10853 16566 1 0.16500 119244.000000
10854 15775 1 0.16500 119244.000000
10854 15840 1 0.16500 119244.000000
10855 15776 1 0.16500 119244.000000
10855 15844 1 0.16500 119244.000000
10856 15778 1 0.16500 119244.000000
10856 16107 1 0.16500 119244.000000
10857 15778 1 0.16500 119244.000000
10857 15937 1 0.16500 119244.000000
10858 15779 1 0.16500 119244.000000
10858 16224 1 0.16500 119244.000000
10859 15780 1 0.16500 119244.000000
10859 15783 1 0.16500 119244.000000
10860 15781 1 0.16500 119244.000000
10860 15938 1 0.16500 119244.000000
10861 15781 1 0.16500 119244.000000
10861 16221 1 0.16500 119244.000000
10862 14134 1 0.16500 119244.000000
10862 15784 1 0.16500 119244.000000
10863 15787 1 0.16500 119244.000000
10863 15909 1 0.16500 119244.000000
10864 13578 1 0.16500 119244.000000
10864 15794 1 0.16500 119244.000000
10865 15791 1 0.16500 119244.000000
10865 15838 1 0.16500 119244.000000
10866 21847 1 0.16500 119244.000000
10866 21895 1 0.16500 119244.000000
10867 15794 1 0.16500 119244.000000
10867 15850 1 0.16500 119244.000000
10868 15836 1 0.16500 119244.000000
10868 22034 1 0.16500 119244.000000
10869 16593 1 0.16500 119244.000000
10869 22034 1 0.16500 119244.000000
10870 15795 1 0.16500 119244.000000
10870 15837 1 0.16500 119244.000000
10871 15801 1 0.16500 119244.000000
10871 16091 1 0.16500 119244.000000
10872 13681 1 0.16500 119244.000000
10872 16414 1 0.16500 119244.000000
10873 15802 1 0.16500 119244.000000
10873 16563 1 0.16500 119244.000000
10874 15802 1 0.16500 119244.000000
10874 15991 1 0.16500 119244.000000
10875 15803 1 0.16500 119244.000000
10875 15916 1 0.16500 119244.000000
10876 15804 1 0.16500 119244.000000
10876 15870 1 0.16500 119244.000000
10877 15609 1 0.16500 119244.000000
10877 16310 1 0.16500 119244.000000
10878 15810 1 0.16500 119244.000000
10878 15913 1 0.16500 119244.000000
10879 15810 1 0.16500 119244.000000
10879 16118 1 0.16500 119244.000000
10880 15811 1 0.16500 119244.000000
10880 16545 1 0.16500 119244.000000
10881 15812 1 0.16500 119244.000000
10881 16595 1 0.16500 119244.000000
10882 15815 1 0.16500 119244.000000
10882 15822 1 0.16500 119244.000000
10883 15816 1 0.16500 119244.000000
10883 16113 1 0.16500 119244.000000
10884 14143 1 0.16500 119244.000000
10884 15856 1 0.16500 119244.000000
10885 15816 1 0.16500 119244.000000
10885 16137 1 0.16500 119244.000000
10886 15817 1 0.16500 119244.000000
10886 16594 1 0.16500 119244.000000
10887 16476 1 0.16500 119244.000000
10887 21667 1 0.16500 119244.000000
10888 15823 1 0.16500 119244.000000
10888 16527 1 0.16500 119244.000000
10889 15824 1 0.16500 119244.000000
10889 15854 1 0.16500 119244.000000
10890 15825 1 0.16500 119244.000000
10890 16115 1 0.16500 119244.000000
10891 16394 1 0.16500 119244.000000
10891 18742 1 0.16500 119244.000000
10892 15827 1 0.16500 119244.000000
10892 16372 1 0.16500 119244.000000
10893 15827 1 0.16500 119244.000000
10893 16103 1 0.16500 119244.000000
10894 15827 1 0.16500 119244.000000
10894 16547 1 0.16500 119244.000000
10895 15828 1 0.16500 119244.000000
10895 16221 1 0.16500 119244.000000
10896 15831 1 0.16500 119244.000000
10896 16599 1 0.16500 119244.000000
10897 15835 1 0.16500 119244.000000
10897 16470 1 0.16500 119244.000000
10898 15837 1 0.16500 119244.000000
10898 16286 1 0.16500 119244.000000
10899 15837 1 0.16500 119244.000000
10899 16490 1 0.16500 119244.000000
10900 15838 1 0.16500 119244.000000
10900 15940 1 0.16500 119244.000000
10901 15775 1 0.16500 119244.000000
10901 16309 1 0.16500 119244.000000
10902 16189 1 0.16500 119244.000000
10902 21010 1 0.16500 119244.000000
10903 15844 1 0.16500 119244.000000
10903 15869 1 0.16500 119244.000000
10904 15846 1 0.16500 119244.000000
10904 16233 1 0.16500 119244.000000
10905 15846 1 0.16500 119244.000000
10905 16063 1 0.16500 119244.000000
10906 15847 1 0.16500 119244.000000
10906 21916 1 0.16500 119244.000000
10907 16447 1 0.16500 119244.000000
10907 19282 1 0.16500 119244.000000
10908 15848 1 0.16500 119244.000000
10908 15884 1 0.16500 119244.000000
10909 15849 1 0.16500 119244.000000
10909 16483 1 0.16500 119244.000000
10910 15849 1 0.16500 119244.000000
10910 16374 1 0.16500 119244.000000
10911 19018 1 0.16500 119244.000000
10911 19930 1 0.16500 119244.000000
10912 15850 1 0.16500 119244.000000
10912 16576 1 0.16500 119244.000000
10913 12149 1 0.16500 119244.000000
10913 16253 1 0.16500 119244.000000
10914 15854 1 0.16500 119244.000000
10914 16410 1 0.16500 119244.000000
10915 15857 1 0.16500 119244.000000
10915 16084 1 0.16500 119244.000000
10916 15858 1 0.16500 119244.000000
10916 20206 1 0.16500 119244.000000
10917 11944 1 0.16500 119244.000000
10917 15859 1 0.16500 119244.000000
10918 15862 1 0.16500 119244.000000
10918 16239 1 0.16500 119244.000000
10919 15868 1 0.16500 119244.000000
10919 15980 1 0.16500 119244.000000
10920 14427 1 0.16500 119244.000000
10920 16253 1 0.16500 119244.000000
10921 15872 1 0.16500 119244.000000
10921 16466 1 0.16500 119244.000000
10922 15872 1 0.16500 119244.000000
10922 16328 1 0.16500 119244.000000
10923 15873 1 0.16500 119244.000000
10923 21907 1 0.16500 119244.000000
10924 15877 1 0.16500 119244.000000
10924 16142 1 0.16500 119244.000000
10925 15881 1 0.16500 119244.000000
10925 16056 1 0.16500 119244.000000
10926 16046 1 0.16500 119244.000000
10926 19690 1 0.16500 119244.000000
10927 15884 1 0.16500 119244.000000
10927 16068 1 0.16500 119244.000000
10928 15886 1 0.16500 119244.000000
10928 16046 1 0.16500 119244.000000
10929 15886 1 0.16500 119244.000000
10929 16434 1 0.16500 119244.000000
10930 15887 1 0.16500 119244.000000
10930 16072 1 0.16500 119244.000000
10931 15894 1 0.16500 119244.000000
10931 16519 1 0.16500 119244.000000
10932 15898 1 0.16500 119244.000000
10932 16383 1 0.16500 119244.000000
10933 15901 1 0.16500 119244.000000
10933 16209 1 0.16500 119244.000000
10934 15904 1 0.16500 119244.000000
10934 16608 1 0.16500 119244.000000
10935 15909 1 0.16500 119244.000000
10935 16240 1 0.16500 119244.000000
10936 15918 1 0.16500 119244.000000
10936 16079 1 0.16500 119244.000000
10937 15920 1 0.16500 119244.000000
10937 16271 1 0.16500 119244.000000
10938 15921 1 0.16500 119244.000000
10938 16481 1 0.16500 119244.000000
10939 15924 1 0.16500 119244.000000
10939 16598 1 0.16500 119244.000000
10940 15965 1 0.16500 119244.000000
10940 17344 1 0.16500 119244.000000
10941 15925 1 0.16500 119244.000000
10941 16278 1 0.16500 119244.000000
10942 16376 1 0.16500 119244.000000
10942 21883 1 0.16500 119244.000000
10943 15929 1 0.16500 119244.000000
10943 16211 1 0.16500 119244.000000
10944 13964 1 0.16500 119244.000000
10944 15929 1 0.16500 119244.000000
10945 15931 1 0.16500 119244.000000
10945 16510 1 0.16500 119244.000000
10946 15932 1 0.16500 119244.000000
10946 16133 1 0.16500 119244.000000
10947 15933 1 0.16500 119244.000000
10947 16610 1 0.16500 119244.000000
10948 15934 1 0.16500 119244.000000
10948 16211 1 0.16500 119244.000000
10949 18086 1 0.16500 119244.000000
10949 21889 1 0.16500 119244.000000
10950 16058 1 0.16500 119244.000000
10950 21889 1 0.16500 119244.000000
10951 15938 1 0.16500 119244.000000
10951 16003 1 0.16500 119244.000000
10952 15938 1 0.16500 119244.000000
10952 16074 1 0.16500 119244.000000
10953 15939 1 0.16500 119244.000000
10953 16534 1 0.16500 119244.000000
10954 15942 1 0.16500 119244.000000
10954 16359 1 0.16500 119244.000000
10955 15943 1 0.16500 119244.000000
10955 16054 1 0.16500 119244.000000
10956 15946 1 0.16500 119244.000000
10956 15993 1 0.16500 119244.000000
10957 17386 1 0.16500 119244.000000
10957 17848 1 0.16500 119244.000000
10958 15954 1 0.16500 119244.000000
10958 16132 1 0.16500 119244.000000
10959 15956 1 0.16500 119244.000000
10959 16544 1 0.16500 119244.000000
10960 15956 1 0.16500 119244.000000
10960 16434 1 0.16500 119244.000000
10961 15956 1 0.16500 119244.000000
10961 16599 1 0.16500 119244.000000
10962 15957 1 0.16500 119244.000000
10962 16047 1 0.16500 119244.000000
10963 15959 1 0.16500 119244.000000
10963 16142 1 0.16500 119244.000000
10964 15982 1 0.16500 119244.000000
10964 21892 1 0.16500 119244.000000
10965 16437 1 0.16500 119244.000000
10965 21892 1 0.16500 119244.000000
10966 15960 1 0.16500 119244.000000
10966 16084 1 0.16500 119244.000000
10967 15962 1 0.16500 119244.000000
10967 16329 1 0.16500 119244.000000
10968 15963 1 0.16500 119244.000000
10968 16219 1 0.16500 119244.000000
10969 15964 1 0.16500 119244.000000
10969 16057 1 0.16500 119244.000000
10970 15966 1 0.16500 119244.000000
10970 16017 1 0.16500 119244.000000
10971 15967 1 0.16500 119244.000000
10971 16125 1 0.16500 119244.000000
10972 15968 1 0.16500 119244.000000
10972 16398 1 0.16500 119244.000000
10973 15971 1 0.16500 119244.000000
10973 16440 1 0.16500 119244.000000
10974 11870 1 0.16500 119244.000000
10974 19774 1 0.16500 119244.000000
10975 15974 1 0.16500 119244.000000
10975 16221 1 0.16500 119244.000000
10976 15977 1 0.16500 119244.000000
10976 16201 1 0.16500 119244.000000
10977 15980 1 0.16500 119244.000000
10977 16030 1 0.16500 119244.000000
10978 15980 1 0.16500 119244.000000
10978 16457 1 0.16500 119244.000000
10979 15981 1 0.16500 119244.000000
10979 16299 1 0.16500 119244.000000
10980 16069 1 0.16500 119244.000000
10980 16336 1 0.16500 119244.000000
10981 15982 1 0.16500 119244.000000
10981 16336 1 0.16500 119244.000000
10982 15983 1 0.16500 119244.000000
10982 15999 1 0.16500 119244.000000
10983 15987 1 0.16500 119244.000000
10983 16311 1 0.16500 119244.000000
10984 15987 1 0.16500 119244.000000
10984 16432 1 0.16500 119244.000000
10985 15987 1 0.16500 119244.000000
10985 16519 1 0.16500 119244.000000
10986 15988 1 0.16500 119244.000000
10986 16389 1 0.16500 119244.000000
10987 15992 1 0.16500 119244.000000
10987 16238 1 0.16500 119244.000000
10988 16563 1 0.16500 119244.000000
10988 18838 1 0.16500 119244.000000
10989 15993 1 0.16500 119244.000000
10989 16481 1 0.16500 119244.000000
10990 15997 1 0.16500 119244.000000
10990 16320 1 0.16500 119244.000000
10991 16522 1 0.16500 119244.000000
10991 21898 1 0.16500 119244.000000
10992 16010 1 0.16500 119244.000000
10992 16360 1 0.16500 119244.000000
10993 16013 1 0.16500 119244.000000
10993 16513 1 0.16500 119244.000000
10994 16015 1 0.16500 119244.000000
10994 16233 1 0.16500 119244.000000
10995 21901 1 0.16500 119244.000000
10995 21904 1 0.16500 119244.000000
10996 16025 1 0.16500 119244.000000
10996 16623 1 0.16500 119244.000000
10997 16026 1 0.16500 119244.000000
10997 16329 1 0.16500 119244.000000
10998 11770 1 0.16500 119244.000000
10998 16032 1 0.16500 119244.000000
10999 16034 1 0.16500 119244.000000
10999 16109 1 0.16500 119244.000000
11000 16034 1 0.16500 119244.000000
11000 16230 1 0.16500 119244.000000
11001 16035 1 0.16500 119244.000000
11001 16381 1 0.16500 119244.000000
11002 16035 1 0.16500 119244.000000
11002 16310 1 0.16500 119244.000000
11003 16037 1 0.16500 119244.000000
11003 16147 1 0.16500 119244.000000
11004 16037 1 0.16500 119244.000000
11004 16117 1 0.16500 119244.000000
11005 16045 1 0.16500 119244.000000
11005 16415 1 0.16500 119244.000000
11006 14224 1 0.16500 119244.000000
11006 16182 1 0.16500 119244.000000
11007 16052 1 0.16500 119244.000000
11007 16501 1 0.16500 119244.000000
11008 16052 1 0.16500 119244.000000
11008 16173 1 0.16500 119244.000000
11009 16229 1 0.16500 119244.000000
11009 20566 1 0.16500 119244.000000
11010 16061 1 0.16500 119244.000000
11010 16433 1 0.16500 119244.000000
11011 16064 1 0.16500 119244.000000
11011 16320 1 0.16500 119244.000000
11012 16067 1 0.16500 119244.000000
11012 16104 1 0.16500 119244.000000
11013 16068 1 0.16500 119244.000000
11013 16426 1 0.16500 119244.000000
11014 16069 1 0.16500 119244.000000
11014 16257 1 0.16500 119244.000000
11015 16070 1 0.16500 119244.000000
11015 16603 1 0.16500 119244.000000
11016 16071 1 0.16500 119244.000000
11016 16566 1 0.16500 119244.000000
11017 15887 1 0.16500 119244.000000
11017 16471 1 0.16500 119244.000000
11018 16073 1 0.16500 119244.000000
11018 16454 1 0.16500 119244.000000
11019 16073 1 0.16500 119244.000000
11019 16592 1 0.16500 119244.000000
11020 16081 1 0.16500 119244.000000
11020 16170 1 0.16500 119244.000000
11021 16170 1 0.16500 119244.000000
11021 16364 1 0.16500 119244.000000
11022 15079 1 0.16500 119244.000000
11022 16082 1 0.16500 119244.000000
11023 16083 1 0.16500 119244.000000
11023 16169 1 0.16500 119244.000000
11024 16089 1 0.16500 119244.000000
11024 16556 1 0.16500 119244.000000
11025 16089 1 0.16500 119244.000000
11025 16262 1 0.16500 119244.000000
11026 16090 1 0.16500 119244.000000
11026 16389 1 0.16500 119244.000000
11027 16094 1 0.16500 119244.000000
11027 16377 1 0.16500 119244.000000
11028 16096 1 0.16500 119244.000000
11028 16226 1 0.16500 119244.000000
11029 16097 1 0.16500 119244.000000
11029 18514 1 0.16500 119244.000000
11030 16097 1 0.16500 119244.000000
11030 16385 1 0.16500 119244.000000
11031 16098 1 0.16500 119244.000000
11031 16473 1 0.16500 119244.000000
11032 16101 1 0.16500 119244.000000
11032 21934 1 0.16500 119244.000000
11033 16104 1 0.16500 119244.000000
11033 16606 1 0.16500 119244.000000
11034 16112 1 0.16500 119244.000000
11034 16323 1 0.16500 119244.000000
11035 16118 1 0.16500 119244.000000
11035 16239 1 0.16500 119244.000000
11036 16120 1 0.16500 119244.000000
11036 16612 1 0.16500 119244.000000
11037 16122 1 0.16500 119244.000000
11037 16181 1 0.16500 119244.000000
11038 16124 1 0.16500 119244.000000
11038 16180 1 0.16500 119244.000000
11039 16132 1 0.16500 119244.000000
11039 16555 1 0.16500 119244.000000
11040 13136 1 0.16500 119244.000000
11040 16139 1 0.16500 119244.000000
11041 16143 1 0.16500 119244.000000
11041 16337 1 0.16500 119244.000000
11042 16143 1 0.16500 119244.000000
11042 16370 1 0.16500 119244.000000
11043 16148 1 0.16500 119244.000000
11043 16561 1 0.16500 119244.000000
11044 19366 1 0.16500 119244.000000
11044 21913 1 0.16500 119244.000000
11045 16151 1 0.16500 119244.000000
11045 16262 1 0.16500 119244.000000
11046 16154 1 0.16500 119244.000000
11046 16369 1 0.16500 119244.000000
11047 16154 1 0.16500 119244.000000
11047 16551 1 0.16500 119244.000000
11048 16156 1 0.16500 119244.000000
11048 16487 1 0.16500 119244.000000
11049 16157 1 0.16500 119244.000000
11049 16393 1 0.16500 119244.000000
11050 16159 1 0.16500 119244.000000
11050 16210 1 0.16500 119244.000000
11051 16165 1 0.16500 119244.000000
11051 16281 1 0.16500 119244.000000
11052 16171 1 0.16500 119244.000000
11052 16229 1 0.16500 119244.000000
11053 16172 1 0.16500 119244.000000
11053 16441 1 0.16500 119244.000000
11054 14665 1 0.16500 119244.000000
11054 16444 1 0.16500 119244.000000
11055 14665 1 0.16500 119244.000000
11055 16427 1 0.16500 119244.000000
11056 16176 1 0.16500 119244.000000
11056 16537 1 0.16500 119244.000000
11057 16184 1 0.16500 119244.000000
11057 16303 1 0.16500 119244.000000
11058 16186 1 0.16500 119244.000000
11058 16546 1 0.16500 119244.000000
11059 16188 1 0.16500 119244.000000
11059 16585 1 0.16500 119244.000000
11060 16190 1 0.16500 119244.000000
11060 16388 1 0.16500 119244.000000
11061 16190 1 0.16500 119244.000000
11061 16287 1 0.16500 119244.000000
11062 12127 1 0.16500 119244.000000
11062 20422 1 0.16500 119244.000000
11063 16192 1 0.16500 119244.000000
11063 16395 1 0.16500 119244.000000
11064 16197 1 0.16500 119244.000000
11064 16531 1 0.16500 119244.000000
11065 16199 1 0.16500 119244.000000
11065 16452 1 0.16500 119244.000000
11066 16201 1 0.16500 119244.000000
11066 16481 1 0.16500 119244.000000
11067 12723 1 0.16500 119244.000000
11067 16382 1 0.16500 119244.000000
11068 16204 1 0.16500 119244.000000
11068 16580 1 0.16500 119244.000000
11069 16206 1 0.16500 119244.000000
11069 16400 1 0.16500 119244.000000
11070 16207 1 0.16500 119244.000000
11070 16411 1 0.16500 119244.000000
11071 16208 1 0.16500 119244.000000
11071 16243 1 0.16500 119244.000000
11072 16064 1 0.16500 119244.000000
11072 16209 1 0.16500 119244.000000
11073 16209 1 0.16500 119244.000000
11073 16356 1 0.16500 119244.000000
11074 16214 1 0.16500 119244.000000
11074 16348 1 0.16500 119244.000000
11075 16215 1 0.16500 119244.000000
11075 16224 1 0.16500 119244.000000
11076 16222 1 0.16500 119244.000000
11076 16428 1 0.16500 119244.000000
11077 16231 1 0.16500 119244.000000
11077 16247 1 0.16500 119244.000000
11078 12039 1 0.16500 119244.000000
11078 16241 1 0.16500 119244.000000
11079 16243 1 0.16500 119244.000000
11079 16497 1 0.16500 119244.000000
11080 16243 1 0.16500 119244.000000
11080 16250 1 0.16500 119244.000000
11081 16245 1 0.16500 119244.000000
11081 20542 1 0.16500 119244.000000
11082 16249 1 0.16500 119244.000000
11082 16455 1 0.16500 119244.000000
11083 16255 1 0.16500 119244.000000
11083 16360 1 0.16500 119244.000000
11084 16264 1 0.16500 119244.000000
11084 16498 1 0.16500 119244.000000
11085 16266 1 0.16500 119244.000000
11085 16516 1 0.16500 119244.000000
11086 16270 1 0.16500 119244.000000
11086 16314 1 0.16500 119244.000000
11087 16272 1 0.16500 119244.000000
11087 16438 1 0.16500 119244.000000
11088 16277 1 0.16500 119244.000000
11088 16591 1 0.16500 119244.000000
11089 16279 1 0.16500 119244.000000
11089 16517 1 0.16500 119244.000000
11090 12741 1 0.16500 119244.000000
11090 16279 1 0.16500 119244.000000
11091 16280 1 0.16500 119244.000000
11091 16529 1 0.16500 119244.000000
11092 16383 1 0.16500 119244.000000
11092 19498 1 0.16500 119244.000000
11093 16289 1 0.16500 119244.000000
11093 16401 1 0.16500 119244.000000
11094 16305 1 0.16500 119244.000000
11094 16541 1 0.16500 119244.000000
11095 16313 1 0.16500 119244.000000
11095 16476 1 0.16500 119244.000000
11096 16318 1 0.16500 119244.000000
11096 16491 1 0.16500 119244.000000
11097 16476 1 0.16500 119244.000000
11097 17722 1 0.16500 119244.000000
11098 16332 1 0.16500 119244.000000
11098 16364 1 0.16500 119244.000000
11099 16343 1 0.16500 119244.000000
11099 16606 1 0.16500 119244.000000
11100 16344 1 0.16500 119244.000000
11100 16480 1 0.16500 119244.000000
11101 16346 1 0.16500 119244.000000
11101 16528 1 0.16500 119244.000000
11102 16346 1 0.16500 119244.000000
11102 16408 1 0.16500 119244.000000
11103 16347 1 0.16500 119244.000000
11103 16378 1 0.16500 119244.000000
11104 16348 1 0.16500 119244.000000
11104 16366 1 0.16500 119244.000000
11105 16350 1 0.16500 119244.000000
11105 16593 1 0.16500 119244.000000
11106 16351 1 0.16500 119244.000000
11106 16387 1 0.16500 119244.000000
11107 16353 1 0.16500 119244.000000
11107 16362 1 0.16500 119244.000000
11108 16361 1 0.16500 119244.000000
11108 16551 1 0.16500 119244.000000
11109 16368 1 0.16500 119244.000000
11109 16423 1 0.16500 119244.000000
11110 16370 1 0.16500 119244.000000
11110 16403 1 0.16500 119244.000000
11111 16377 1 0.16500 119244.000000
11111 16560 1 0.16500 119244.000000
11112 16382 1 0.16500 119244.000000
11112 16582 1 0.16500 119244.000000
11113 16383 1 0.16500 119244.000000
11113 16479 1 0.16500 119244.000000
11114 16384 1 0.16500 119244.000000
11114 16475 1 0.16500 119244.000000
11115 16392 1 0.16500 119244.000000
11115 16444 1 0.16500 119244.000000
11116 16393 1 0.16500 119244.000000
11116 16565 1 0.16500 119244.000000
11117 16397 1 0.16500 119244.000000
11117 16570 1 0.16500 119244.000000
11118 16402 1 0.16500 119244.000000
11118 16587 1 0.16500 119244.000000
11119 16407 1 0.16500 119244.000000
11119 16622 1 0.16500 119244.000000
11120 16408 1 0.16500 119244.000000
11120 16515 1 0.16500 119244.000000
11121 16411 1 0.16500 119244.000000
11121 16540 1 0.16500 119244.000000
11122 16427 1 0.16500 119244.000000
11122 16511 1 0.16500 119244.000000
11123 16430 1 0.16500 119244.000000
11123 16493 1 0.16500 119244.000000
11124 16443 1 0.16500 119244.000000
11124 16528 1 0.16500 119244.000000
11125 16521 1 0.16500 119244.000000
11125 21118 1 0.16500 119244.000000
11126 16463 1 0.16500 119244.000000
11126 16508 1 0.16500 119244.000000
11127 16467 1 0.16500 119244.000000
11127 16485 1 0.16500 119244.000000
11128 16469 1 0.16500 119244.000000
11128 16564 1 0.16500 119244.000000
11129 16471 1 0.16500 119244.000000
11129 16505 1 0.16500 119244.000000
11130 16478 1 0.16500 119244.000000
11130 16498 1 0.16500 119244.000000
11131 16488 1 0.16500 119244.000000
11131 16600 1 0.16500 119244.000000
11132 16500 1 0.16500 119244.000000
11132 16600 1 0.16500 119244.000000
11133 16520 1 0.16500 119244.000000
11133 16578 1 0.16500 119244.000000
11134 16531 1 0.16500 119244.000000
11134 16608 1 0.16500 119244.000000
11135 16533 1 0.16500 119244.000000
11135 16592 1 0.16500 119244.000000
11136 16562 1 0.16500 119244.000000
11136 16619 1 0.16500 119244.000000
11137 16567 1 0.16500 119244.000000
11137 16590 1 0.16500 119244.000000
11138 12098 1 0.16500 119244.000000
11138 12775 1 0.16500 119244.000000
11139 11381 1 0.16500 119244.000000
11139 12577 1 0.16500 119244.000000
11140 12893 1 0.16500 119244.000000
11140 14414 1 0.16500 119244.000000
11141 13488 1 0.16500 119244.000000
11141 21934 1 0.16500 119244.000000
11142 13720 1 0.16500 119244.000000
11142 21937 1 0.16500 119244.000000
11143 14223 1 0.16500 119244.000000
11143 16058 1 0.16500 119244.000000
11144 14217 1 0.16500 119244.000000
11144 14272 1 0.16500 119244.000000
11145 12636 1 0.16500 119244.000000
11145 14975 1 0.16500 119244.000000
11146 13996 1 0.16500 119244.000000
11146 21832 1 0.16500 119244.000000
11147 11436 1 0.16500 119244.000000
11147 15674 1 0.16500 119244.000000
11148 12882 1 0.16500 119244.000000
11148 16330 1 0.16500 119244.000000
11149 13307 1 0.16500 119244.000000
11149 21370 1 0.16500 119244.000000
11150 12674 1 0.16500 119244.000000
11150 21691 1 0.16500 119244.000000
11151 14298 1 0.16500 119244.000000
11151 19030 1 0.16500 119244.000000
11152 15786 1 0.16500 119244.000000
11152 21364 1 0.16500 119244.000000
11153 13883 1 0.16500 119244.000000
11153 21580 1 0.16500 119244.000000
11154 15180 1 0.16500 119244.000000
11154 21046 1 0.16500 119244.000000
11155 12219 1 0.16500 119244.000000
11155 14247 1 0.16500 119244.000000
11156 12671 1 0.16500 119244.000000
11156 21865 1 0.16500 119244.000000
11157 14415 1 0.16500 119244.000000
11157 15049 1 0.16500 119244.000000
11158 13113 1 0.16500 119244.000000
11158 13937 1 0.16500 119244.000000
11159 13500 1 0.16500 119244.000000
11159 13774 1 0.16500 119244.000000
11160 12477 1 0.16500 119244.000000
11160 18454 1 0.16500 119244.000000
11161 16147 1 0.16500 119244.000000
11161 21820 1 0.16500 119244.000000
11162 14138 1 0.16500 119244.000000
11162 20182 1 0.16500 119244.000000
11163 12316 1 0.16500 119244.000000
11163 14085 1 0.16500 119244.000000
11164 14610 1 0.16500 119244.000000
11164 19954 1 0.16500 119244.000000
11165 15492 1 0.16500 119244.000000
11165 19330 1 0.16500 119244.000000
11166 13168 1 0.16500 119244.000000
11166 13385 1 0.16500 119244.000000
11167 11890 1 0.16500 119244.000000
11167 12690 1 0.16500 119244.000000
11168 12805 1 0.16500 119244.000000
11168 19498 1 0.16500 119244.000000
11169 14154 1 0.16500 119244.000000
11169 20926 1 0.16500 119244.000000
11170 12850 1 0.16500 119244.000000
11170 18670 1 0.16500 119244.000000
11171 15100 1 0.16500 119244.000000
11171 16285 1 0.16500 119244.000000
11172 12767 1 0.16500 119244.000000
11172 14626 1 0.16500 119244.000000
11173 13842 1 0.16500 119244.000000
11173 14468 1 0.16500 119244.000000
11174 12915 1 0.16500 119244.000000
11174 21868 1 0.16500 119244.000000
11175 11883 1 0.16500 119244.000000
11175 21232 1 0.16500 119244.000000
11176 16338 1 0.16500 119244.000000
11176 21385 1 0.16500 119244.000000
11177 14414 1 0.16500 119244.000000
11177 14878 1 0.16500 119244.000000
11178 14875 1 0.16500 119244.000000
11178 19162 1 0.16500 119244.000000
11179 11592 1 0.16500 119244.000000
11179 21709 1 0.16500 119244.000000
11180 12303 1 0.16500 119244.000000
11180 13842 1 0.16500 119244.000000
11181 12402 1 0.16500 119244.000000
11181 21283 1 0.16500 119244.000000
11182 14189 1 0.16500 119244.000000
11182 20422 1 0.16500 119244.000000
11183 12404 1 0.16500 119244.000000
11183 13408 1 0.16500 119244.000000
11184 13093 1 0.16500 119244.000000
11184 15393 1 0.16500 119244.000000
11185 13385 1 0.16500 119244.000000
11185 19642 1 0.16500 119244.000000
11186 12136 1 0.16500 119244.000000
11186 21874 1 0.16500 119244.000000
11187 15458 1 0.16500 119244.000000
11187 20530 1 0.16500 119244.000000
11188 12234 1 0.16500 119244.000000
11188 12701 1 0.16500 119244.000000
11189 15533 1 0.16500 119244.000000
11189 21664 1 0.16500 119244.000000
11190 14878 1 0.16500 119244.000000
11190 21811 1 0.16500 119244.000000
11191 11443 1 0.16500 119244.000000
11191 11727 1 0.16500 119244.000000
11192 14085 1 0.16500 119244.000000
11192 21931 1 0.16500 119244.000000
11193 12780 1 0.16500 119244.000000
11193 14065 1 0.16500 119244.000000
11194 13147 1 0.16500 119244.000000
11194 15397 1 0.16500 119244.000000
11195 14687 1 0.16500 119244.000000
11195 14882 1 0.16500 119244.000000
11196 14321 1 0.16500 119244.000000
11196 21913 1 0.16500 119244.000000
11197 11489 1 0.16500 119244.000000
11197 13160 1 0.16500 119244.000000
11198 11399 1 0.16500 119244.000000
11198 15852 1 0.16500 119244.000000
11199 15852 1 0.16500 119244.000000
11199 21532 1 0.16500 119244.000000
11200 13465 1 0.16500 119244.000000
11200 16223 1 0.16500 119244.000000
11201 13143 1 0.16500 119244.000000
11201 21415 1 0.16500 119244.000000
11202 11675 1 0.16500 119244.000000
11202 14787 1 0.16500 119244.000000
11203 13090 1 0.16500 119244.000000
11203 21496 1 0.16500 119244.000000
11204 14093 1 0.16500 119244.000000
11204 20362 1 0.16500 119244.000000
11205 12430 1 0.16500 119244.000000
11205 21130 1 0.16500 119244.000000
11206 12583 1 0.16500 119244.000000
11206 20614 1 0.16500 119244.000000
11207 15670 1 0.16500 119244.000000
11207 21793 1 0.16500 119244.000000
11208 16561 1 0.16500 119244.000000
11208 21217 1 0.16500 119244.000000
11209 12458 1 0.16500 119244.000000
11209 20350 1 0.16500 119244.000000
11210 13432 1 0.16500 119244.000000
11210 14247 1 0.16500 119244.000000
11211 12875 1 0.16500 119244.000000
11211 20194 1 0.16500 119244.000000
11212 13980 1 0.16500 119244.000000
11212 21550 1 0.16500 119244.000000
11213 12795 1 0.16500 119244.000000
11213 21637 1 0.16500 119244.000000
11214 14791 1 0.16500 119244.000000
11214 21907 1 0.16500 119244.000000
11215 11410 1 0.16500 119244.000000
11215 14113 1 0.16500 119244.000000
11216 14975 1 0.16500 119244.000000
11216 18394 1 0.16500 119244.000000
11217 13774 1 0.16500 119244.000000
11217 21253 1 0.16500 119244.000000
11218 13400 1 0.16500 119244.000000
11218 15410 1 0.16500 119244.000000
11219 12982 1 0.16500 119244.000000
11219 19606 1 0.16500 119244.000000
11220 12150 1 0.16500 119244.000000
11220 12668 1 0.16500 119244.000000
11221 16049 1 0.16500 119244.000000
11221 21838 1 0.16500 119244.000000
11222 14597 1 0.16500 119244.000000
11222 20914 1 0.16500 119244.000000
11223 12431 1 0.16500 119244.000000
11223 20026 1 0.16500 119244.000000
11224 15337 1 0.16500 119244.000000
11224 15447 1 0.16500 119244.000000
11225 16416 1 0.16500 119244.000000
11225 19258 1 0.16500 119244.000000
11226 11680 1 0.16500 119244.000000
11226 21574 1 0.16500 119244.000000
11227 14951 1 0.16500 119244.000000
11227 21859 1 0.16500 119244.000000
11228 16052 1 0.16500 119244.000000
11228 21382 1 0.16500 119244.000000
11229 14330 1 0.16500 119244.000000
11229 14628 1 0.16500 119244.000000
11230 12311 1 0.16500 119244.000000
11230 16507 1 0.16500 119244.000000
11231 12152 1 0.16500 119244.000000
11231 12898 1 0.16500 119244.000000
11232 13469 1 0.16500 119244.000000
11232 19546 1 0.16500 119244.000000
11233 15393 1 0.16500 119244.000000
11233 21262 1 0.16500 119244.000000
11234 14207 1 0.16500 119244.000000
11234 21652 1 0.16500 119244.000000
11235 11711 1 0.16500 119244.000000
11235 12665 1 0.16500 119244.000000
11236 11383 1 0.16500 119244.000000
11236 19906 1 0.16500 119244.000000
11237 12961 1 0.16500 119244.000000
11237 16358 1 0.16500 119244.000000
11238 11953 1 0.16500 119244.000000
11238 21322 1 0.16500 119244.000000
11239 14280 1 0.16500 119244.000000
11239 14663 1 0.16500 119244.000000
11240 14955 1 0.16500 119244.000000
11240 21202 1 0.16500 119244.000000
11241 11631 1 0.16500 119244.000000
11241 16301 1 0.16500 119244.000000
11242 11816 1 0.16500 119244.000000
11242 16590 1 0.16500 119244.000000
11243 16206 1 0.16500 119244.000000
11243 21241 1 0.16500 119244.000000
11244 12150 1 0.16500 119244.000000
11244 13689 1 0.16500 119244.000000
11245 13253 1 0.16500 119244.000000
11245 21409 1 0.16500 119244.000000
11246 14713 1 0.16500 119244.000000
11246 20998 1 0.16500 119244.000000
11247 14708 1 0.16500 119244.000000
11247 21625 1 0.16500 119244.000000
11248 13479 1 0.16500 119244.000000
11248 20374 1 0.16500 119244.000000
11249 14968 1 0.16500 119244.000000
11249 21613 1 0.16500 119244.000000
11250 12303 1 0.16500 119244.000000
11250 21022 1 0.16500 119244.000000
11251 14626 1 0.16500 119244.000000
11251 19762 1 0.16500 119244.000000
11252 14456 1 0.16500 119244.000000
11252 16393 1 0.16500 119244.000000
11253 14223 1 0.16500 119244.000000
11253 21295 1 0.16500 119244.000000
11254 11510 1 0.16500 119244.000000
11254 19354 1 0.16500 119244.000000
11255 12721 1 0.16500 119244.000000
11255 13535 1 0.16500 119244.000000
11256 12311 1 0.16500 119244.000000
11256 20398 1 0.16500 119244.000000
11257 11951 1 0.16500 119244.000000
11257 18538 1 0.16500 119244.000000
11258 11551 1 0.16500 119244.000000
11258 19726 1 0.16500 119244.000000
11259 11481 1 0.16500 119244.000000
11259 16577 1 0.16500 119244.000000
11260 16189 1 0.16500 119244.000000
11260 20386 1 0.16500 119244.000000
11261 15262 1 0.16500 119244.000000
11261 20218 1 0.16500 119244.000000
11262 14456 1 0.16500 119244.000000
11262 18754 1 0.16500 119244.000000
11263 11489 1 0.16500 119244.000000
11263 19966 1 0.16500 119244.000000
11264 15902 1 0.16500 119244.000000
11264 21346 1 0.16500 119244.000000
11265 12701 1 0.16500 119244.000000
11265 18778 1 0.16500 119244.000000
11266 11570 1 0.16500 119244.000000
11266 11781 1 0.16500 119244.000000
11267 14188 1 0.16500 119244.000000
11267 19834 1 0.16500 119244.000000
11268 12233 1 0.16500 119244.000000
11268 21559 1 0.16500 119244.000000
11269 12040 1 0.16500 119244.000000
11269 20410 1 0.16500 119244.000000
11270 13383 1 0.16500 119244.000000
11270 20866 1 0.16500 119244.000000
11271 11841 1 0.16500 119244.000000
11271 21457 1 0.16500 119244.000000
11272 14599 1 0.16500 119244.000000
11272 21337 1 0.16500 119244.000000
11273 13521 1 0.16500 119244.000000
11273 18550 1 0.16500 119244.000000
11274 14914 1 0.16500 119244.000000
11274 19438 1 0.16500 119244.000000
11275 12147 1 0.16500 119244.000000
11275 21475 1 0.16500 119244.000000
11276 13020 1 0.16500 119244.000000
11276 21658 1 0.16500 119244.000000
11277 15010 1 0.16500 119244.000000
11277 21244 1 0.16500 119244.000000
11278 14732 1 0.16500 119244.000000
11278 20662 1 0.16500 119244.000000
11279 14113 1 0.16500 119244.000000
11279 19402 1 0.16500 119244.000000
11280 15704 1 0.16500 119244.000000
11280 15965 1 0.16500 119244.000000
11281 14861 1 0.16500 119244.000000
11281 21745 1 0.16500 119244.000000
11282 12499 1 0.16500 119244.000000
11282 21430 1 0.16500 119244.000000
11283 13103 1 0.16500 119244.000000
11283 14777 1 0.16500 119244.000000
11284 11998 1 0.16500 119244.000000
11284 12713 1 0.16500 119244.000000
11285 11991 1 0.16500 119244.000000
11285 14125 1 0.16500 119244.000000
11286 14015 1 0.16500 119244.000000
11286 15729 1 0.16500 119244.000000
11287 15136 1 0.16500 119244.000000
11287 20242 1 0.16500 119244.000000
11288 15397 1 0.16500 119244.000000
11288 21355 1 0.16500 119244.000000
11289 11738 1 0.16500 119244.000000
11289 21301 1 0.16500 119244.000000
11290 16077 1 0.16500 119244.000000
11290 20494 1 0.16500 119244.000000
11291 11884 1 0.16500 119244.000000
11291 21616 1 0.16500 119244.000000
11292 16241 1 0.16500 119244.000000
11292 21484 1 0.16500 119244.000000
11293 11991 1 0.16500 119244.000000
11293 21910 1 0.16500 119244.000000
11294 13184 1 0.16500 119244.000000
11294 21235 1 0.16500 119244.000000
11295 12404 1 0.16500 119244.000000
11295 18430 1 0.16500 119244.000000
11296 14802 1 0.16500 119244.000000
11296 20002 1 0.16500 119244.000000
11297 12577 1 0.16500 119244.000000
11297 20686 1 0.16500 119244.000000
11298 14922 1 0.16500 119244.000000
11298 21628 1 0.16500 119244.000000
11299 12098 1 0.16500 119244.000000
11299 21190 1 0.16500 119244.000000
11300 13278 1 0.16500 119244.000000
11300 15410 1 0.16500 119244.000000
11301 14902 1 0.16500 119244.000000
11301 15011 1 0.16500 119244.000000
11302 14628 1 0.16500 119244.000000
11302 14782 1 0.16500 119244.000000
11303 13189 1 0.16500 119244.000000
11303 15873 1 0.16500 119244.000000
11304 12721 1 0.16500 119244.000000
11304 16359 1 0.16500 119244.000000
11305 13066 1 0.16500 119244.000000
11305 13711 1 0.16500 119244.000000
11306 14702 1 0.16500 119244.000000
11306 16301 1 0.16500 119244.000000
11307 15936 1 0.16500 119244.000000
11307 16126 1 0.16500 119244.000000
11308 12911 1 0.16500 119244.000000
11308 15058 1 0.16500 119244.000000
11309 12270 1 0.16500 119244.000000
11309 13109 1 0.16500 119244.000000
11310 11809 1 0.16500 119244.000000
11310 11811 1 0.16500 119244.000000
11311 15524 1 0.16500 119244.000000
11311 16257 1 0.16500 119244.000000
11312 15607 1 0.16500 119244.000000
11312 16613 1 0.16500 119244.000000
11313 11917 1 0.16500 119244.000000
11313 14253 1 0.16500 119244.000000
11314 12647 1 0.16500 119244.000000
11314 14252 1 0.16500 119244.000000
11315 12800 1 0.16500 119244.000000
11315 15532 1 0.16500 119244.000000
11316 13222 1 0.16500 119244.000000
11316 14311 1 0.16500 119244.000000
11317 12960 1 0.16500 119244.000000
11317 16330 1 0.16500 119244.000000
11318 11890 1 0.16500 119244.000000
11318 12611 1 0.16500 119244.000000
11319 13936 1 0.16500 119244.000000
11319 16358 1 0.16500 119244.000000
11320 15024 1 0.16500 119244.000000
11320 15470 1 0.16500 119244.000000
11321 12172 1 0.16500 119244.000000
11321 12888 1 0.16500 119244.000000
11322 16101 1 0.16500 119244.000000
11322 16403 1 0.16500 119244.000000
11323 11675 1 0.16500 119244.000000
11323 12152 1 0.16500 119244.000000
11324 15438 1 0.16500 119244.000000
11324 16236 1 0.16500 119244.000000
11325 12836 1 0.16500 119244.000000
11325 15944 1 0.16500 119244.000000
11326 13516 1 0.16500 119244.000000
11326 14821 1 0.16500 119244.000000
11327 12713 1 0.16500 119244.000000
11327 16229 1 0.16500 119244.000000
11328 12536 1 0.16500 119244.000000
11328 13877 1 0.16500 119244.000000
11329 11520 1 0.16500 119244.000000
11329 15794 1 0.16500 119244.000000
11330 12973 1 0.16500 119244.000000
11330 13186 1 0.16500 119244.000000
11331 14246 1 0.16500 119244.000000
11331 16285 1 0.16500 119244.000000
11332 12000 1 0.16500 119244.000000
11332 16300 1 0.16500 119244.000000
11333 13238 1 0.16500 119244.000000
11333 13855 1 0.16500 119244.000000
11334 14466 1 0.16500 119244.000000
11334 15212 1 0.16500 119244.000000
11335 11707 1 0.16500 119244.000000
11335 13214 1 0.16500 119244.000000
11336 14838 1 0.16500 119244.000000
11336 15752 1 0.16500 119244.000000
11337 15294 1 0.16500 119244.000000
11337 15809 1 0.16500 119244.000000
11338 12578 1 0.16500 119244.000000
11338 15686 1 0.16500 119244.000000
11339 14272 1 0.16500 119244.000000
11339 16039 1 0.16500 119244.000000
11340 15779 1 0.16500 119244.000000
11340 16215 1 0.16500 119244.000000
11341 13432 1 0.16500 119244.000000
11341 15773 1 0.16500 119244.000000
11342 11481 1 0.16500 119244.000000
11342 13465 1 0.16500 119244.000000
11343 12780 1 0.16500 119244.000000
11343 13054 1 0.16500 119244.000000
11344 14274 1 0.16500 119244.000000
11344 14858 1 0.16500 119244.000000
11345 14966 1 0.16500 119244.000000
11345 15156 1 0.16500 119244.000000
11346 16510 1 0.16500 119244.000000
11346 16590 1 0.16500 119244.000000
11347 13691 1 0.16500 119244.000000
11347 14803 1 0.16500 119244.000000
11348 12545 1 0.16500 119244.000000
11348 14943 1 0.16500 119244.000000
11349 14289 1 0.16500 119244.000000
11349 15972 1 0.16500 119244.000000
11350 11435 1 0.16500 119244.000000
11350 14880 1 0.16500 119244.000000
11351 12053 1 0.16500 119244.000000
11351 15206 1 0.16500 119244.000000
11352 16494 1 0.16500 119244.000000
11352 16554 1 0.16500 119244.000000
11353 13905 1 0.16500 119244.000000
11353 15154 1 0.16500 119244.000000
11354 14777 1 0.16500 119244.000000
11354 15704 1 0.16500 119244.000000
11355 11627 1 0.16500 119244.000000
11355 15447 1 0.16500 119244.000000
11356 14061 1 0.16500 119244.000000
11356 15885 1 0.16500 119244.000000
11357 12858 1 0.16500 119244.000000
11357 13937 1 0.16500 119244.000000
11358 12109 1 0.16500 119244.000000
11358 14280 1 0.16500 119244.000000
11359 13344 1 0.16500 119244.000000
11359 15445 1 0.16500 119244.000000
11360 15075 1 0.16500 119244.000000
11360 15559 1 0.16500 119244.000000
11361 12632 1 0.16500 119244.000000
11361 15049 1 0.16500 119244.000000
11362 11436 1 0.16500 119244.000000
11362 13689 1 0.16500 119244.000000
11363 12023 1 0.16500 119244.000000
11363 15626 1 0.16500 119244.000000
11364 13314 1 0.16500 119244.000000
11364 13947 1 0.16500 119244.000000
11365 14687 1 0.16500 119244.000000
11365 14904 1 0.16500 119244.000000
11366 11711 1 0.16500 119244.000000
11366 15879 1 0.16500 119244.000000
11367 11727 1 0.16500 119244.000000
11367 13419 1 0.16500 119244.000000
11368 12107 1 0.16500 119244.000000
11368 15730 1 0.16500 119244.000000
11369 12706 1 0.16500 119244.000000
11369 14015 1 0.16500 119244.000000
11370 12886 1 0.16500 119244.000000
11370 13617 1 0.16500 119244.000000
11371 14765 1 0.16500 119244.000000
11371 15246 1 0.16500 119244.000000
11372 11525 1 0.16500 119244.000000
11372 15977 1 0.16500 119244.000000
11373 11570 1 0.16500 119244.000000
11373 15628 1 0.16500 119244.000000
11374 12344 1 0.16500 119244.000000
11374 13056 1 0.16500 119244.000000
11375 11568 1 0.16500 119244.000000
11375 12857 1 0.16500 119244.000000
11376 11431 1 0.16500 119244.000000
11376 15284 1 0.16500 119244.000000
11377 12906 1 0.16500 119244.000000
11377 14793 1 0.16500 119244.000000
11378 15604 1 0.16500 119244.000000
11378 15802 1 0.16500 119244.000000
16627 16628 1 0.10860 301825.392000
16628 16629 1 0.13986 296436.400000
16628 16637 1 0.13986 296436.400000
16629 16630 1 0.18850 35430.112000
16629 16631 1 0.13986 296436.400000
16630 16639 1 0.16500 119244.000000
16631 16632 1 0.10860 301825.392000
16631 16633 1 0.13986 296436.400000
16633 16634 1 0.10860 301825.392000
16633 16635 1 0.13986 296436.400000
16635 16636 1 0.10860 301825.392000
16635 16637 1 0.13986 296436.400000
16637 16638 1 0.10860 301825.392000
16639 16640 1 0.09450 207108.000000
16641 16642 1 0.10860 301825.392000
16642 16643 1 0.13986 296436.400000
16642 16651 1 0.13986 296436.400000
16643 16644 1 0.18850 35430.112000
16643 16645 1 0.13986 296436.400000
16644 16653 1 0.16500 119244.000000
16645 16646 1 0.10860 301825.392000
16645 16647 1 0.13986 296436.400000
16647 16648 1 0.10860 301825.392000
16647 16649 1 0.13986 296436.400000
16649 16650 1 0.10860 301825.392000
16649 16651 1 0.13986 296436.400000
16651 16652 1 0.10860 301825.392000
16653 16654 1 0.09450 207108.000000
16655 16656 1 0.10860 301825.392000
16656 16657 1 0.13986 296436.400000
16656 16665 1 0.13986 296436.400000
16657 16658 1 0.18850 35430.112000
16657 16659 1 0.13986 296436.400000
16658 16667 1 0.16500 119244.000000
16659 16660 1 0.10860 301825.392000
16659 16661 1 0.13986 296436.400000
16661 16662 1 0.10860 301825.392000
16661 16663 1 0.13986 296436.400000
16663 16664 1 0.10860 301825.392000
16663 16665 1 0.13986 296436.400000
16665 16666 1 0.10860 301825.392000
16667 16668 1 0.09450 207108.000000
16669 16670 1 0.10860 301825.392000
16670 16671 1 0.13986 296436.400000
16670 16679 1 0.13986 296436.400000
16671 16672 1 0.18850 35430.112000
16671 16673 1 0.13986 296436.400000
16672 16681 1 0.16500 119244.000000
16673 16674 1 0.10860 301825.392000
16673 16675 1 0.13986 296436.400000
16675 16676 1 0.10860 301825.392000
16675 16677 1 0.13986 296436.400000
16677 16678 1 0.10860 301825.392000
16677 16679 1 0.13986 296436.400000
16679 16680 1 0.10860 301825.392000
16681 16682 1 0.09450 207108.000000
16683 16684 1 0.10860 301825.392000
16684 16685 1 0.13986 296436.400000
16684 16693 1 0.13986 296436.400000
16685 16686 1 0.18850 35430.112000
16685 16687 1 0.13986 296436.400000
16686 16695 1 0.16500 119244.000000
16687 16688 1 0.10860 301825.392000
16687 16689 1 0.13986 296436.400000
16689 16690 1 0.10860 301825.392000
16689 16691 1 0.13986 296436.400000
16691 16692 1 0.10860 301825.392000
16691 16693 1 0.13986 296436.400000
16693 16694 1 0.10860 301825.392000
16695 16696 1 0.09450 207108.000000
16697 16698 1 0.10860 301825.392000
16698 16699 1 0.13986 296436.400000
16698 16707 1 0.13986 296436.400000
16699 16700 1 0.18850 35430.112000
16699 16701 1 0.13986 296436.400000
16700 16709 1 0.16500 119244.000000
16701 16702 1 0.10860 301825.392000
16701 16703 1 0.13986 296436.400000
16703 16704 1 0.10860 301825.392000
16703 16705 1 0.13986 296436.400000
16705 16706 1 0.10860 301825.392000
16705 16707 1 0.13986 296436.400000
16707 16708 1 0.10860 301825.392000
16709 16710 1 0.09450 207108.000000
16711 16712 1 0.10860 301825.392000
16712 16713 1 0.13986 296436.400000
16712 16721 1 0.13986 296436.400000
16713 16714 1 0.18850 35430.112000
16713 16715 1 0.13986 296436.400000
16714 16723 1 0.16500 119244.000000
16715 16716 1 0.10860 301825.392000
16715 16717 1 0.13986 296436.400000
16717 16718 1 0.10860 301825.392000
16717 16719 1 0.13986 296436.400000
16719 16720 1 0.10860 301825.392000
16719 16721 1 0.13986 296436.400000
16721 16722 1 0.10860 301825.392000
16723 16724 1 0.09450 207108.000000
16725 16726 1 0.10860 301825.392000
16726 16727 1 0.13986 296436.400000
16726 16735 1 0.13986 296436.400000
16727 16728 1 0.18850 35430.112000
16727 16729 1 0.13986 296436.400000
16728 16737 1 0.16500 119244.000000
16729 16730 1 0.10860 301825.392000
16729 16731 1 0.13986 296436.400000
16731 16732 1 0.10860 301825.392000
16731 16733 1 0.13986 296436.400000
16733 16734 1 0.10860 301825.392000
16733 16735 1 0.13986 296436.400000
16735 16736 1 0.10860 301825.392000
16737 16738 1 0.09450 207108.000000
16739 16740 1 0.10860 301825.392000
16740 16741 1 0.13986 296436.400000
16740 16749 1 0.13986 296436.400000
16741 16742 1 0.18850 35430.112000
16741 16743 1 0.13986 296436.400000
16742 16751 1 0.16500 119244.000000
16743 16744 1 0.10860 301825.392000
16743 16745 1 0.13986 296436.400000
16745 16746 1 0.10860 301825.392000
16745 16747 1 0.13986 296436.400000
16747 16748 1 0.10860 301825.392000
16747 16749 1 0.13986 296436.400000
16749 16750 1 0.10860 301825.392000
16751 16752 1 0.09450 207108.000000
16753 16754 1 0.10860 301825.392000
16754 16755 1 0.13986 296436.400000
16754 16763 1 0.13986 296436.400000
16755 16756 1 0.18850 35430.112000
16755 16757 1 0.13986 296436.400000
16756 16765 1 0.16500 119244.000000
16757 16758 1 0.10860 301825.392000
16757 16759 1 0.13986 296436.400000
16759 16760 1 0.10860 301825.392000
16759 16761 1 0.13986 296436.400000
16761 16762 1 0.10860 301825.392000
16761 16763 1 0.13986 296436.400000
16763 16764 1 0.10860 301825.392000
16765 16766 1 0.09450 207108.000000
16767 16768 1 0.10860 301825.392000
16768 16769 1 0.13986 296436.400000
16768 16777 1 0.13986 296436.400000
16769 16770 1 0.18850 35430.112000
16769 16771 1 0.13986 296436.400000
16770 16779 1 0.16500 119244.000000
16771 16772 1 0.10860 301825.392000
16771 16773 1 0.13986 296436.400000
16773 16774 1 0.10860 301825.392000
16773 16775 1 0.13986 296436.400000
16775 16776 1 0.10860 301825.392000
16775 16777 1 0.13986 296436.400000
16777 16778 1 0.10860 301825.392000
16779 16780 1 0.09450 207108.000000
16781 16782 1 0.10860 301825.392000
16782 16783 1 0.13986 296436.400000
16782 16791 1 0.13986 296436.400000
16783 16784 1 0.18850 35430.112000
16783 16785 1 0.13986 296436.400000
16784 16793 1 0.16500 119244.000000
16785 16786 1 0.10860 301825.392000
16785 16787 1 0.13986 296436.400000
16787 16788 1 0.10860 301825.392000
16787 16789 1 0.13986 296436.400000
16789 16790 1 0.10860 301825.392000
16789 16791 1 0.13986 296436.400000
16791 16792 1 0.10860 301825.392000
16793 16794 1 0.09450 207108.000000
16795 16796 1 0.10860 301825.392000
16796 16797 1 0.13986 296436.400000
16796 16805 1 0.13986 296436.400000
16797 16798 1 0.18850 35430.112000
16797 16799 1 0.13986 296436.400000
16798 16807 1 0.16500 119244.000000
16799 16800 1 0.10860 301825.392000
16799 16801 1 0.13986 296436.400000
16801 16802 1 0.10860 301825.392000
16801 16803 1 0.13986 296436.400000
16803 16804 1 0.10860 301825.392000
16803 16805 1 0.13986 296436.400000
16805 16806 1 0.10860 301825.392000
16807 16808 1 0.09450 207108.000000
16809 16810 1 0.10860 301825.392000
16810 16811 1 0.13986 296436.400000
16810 16819 1 0.13986 296436.400000
16811 16812 1 0.18850 35430.112000
16811 16813 1 0.13986 296436.400000
16812 16821 1 0.16500 119244.000000
16813 16814 1 0.10860 301825.392000
16813 16815 1 0.13986 296436.400000
16815 16816 1 0.10860 301825.392000
16815 16817 1 0.13986 296436.400000
16817 16818 1 0.10860 301825.392000
16817 16819 1 0.13986 296436.400000
16819 16820 1 0.10860 301825.392000
16821 16822 1 0.09450 207108.000000
16823 16824 1 0.10860 301825.392000
16824 16825 1 0.13986 296436.400000
16824 16833 1 0.13986 296436.400000
16825 16826 1 0.18850 35430.112000
16825 16827 1 0.13986 296436.400000
16826 16835 1 0.16500 119244.000000
16827 16828 1 0.10860 301825.392000
16827 16829 1 0.13986 296436.400000
16829 16830 1 0.10860 301825.392000
16829 16831 1 0.13986 296436.400000
16831 16832 1 0.10860 301825.392000
16831 16833 1 0.13986 296436.400000
16833 16834 1 0.10860 301825.392000
16835 16836 1 0.09450 207108.000000
16837 16838 1 0.10860 301825.392000
16838 16839 1 0.13986 296436.400000
16838 16847 1 0.13986 296436.400000
16839 16840 1 0.18850 35430.112000
16839 16841 1 0.13986 296436.400000
16840 16849 1 0.16500 119244.000000
16841 16842 1 0.10860 301825.392000
16841 16843 1 0.13986 296436.400000
16843 16844 1 0.10860 301825.392000
16843 16845 1 0.13986 296436.400000
16845 16846 1 0.10860 301825.392000
16845 16847 1 0.13986 296436.400000
16847 16848 1 0.10860 301825.392000
16849 16850 1 0.09450 207108.000000
16851 16852 1 0.10860 301825.392000
16852 16853 1 0.13986 296436.400000
16852 16861 1 0.13986 296436.400000
16853 16854 1 0.18850 35430.112000
16853 16855 1 0.13986 296436.400000
16854 16863 1 0.16500 119244.000000
16855 16856 1 0.10860 301825.392000
16855 16857 1 0.13986 296436.400000
16857 16858 1 0.10860 301825.392000
16857 16859 1 0.13986 296436.400000
16859 16860 1 0.10860 301825.392000
16859 16861 1 0.13986 296436.400000
16861 16862 1 0.10860 301825.392000
16863 16864 1 0.09450 207108.000000
16865 16866 1 0.10860 301825.392000
16866 16867 1 0.13986 296436.400000
16866 16875 1 0.13986 296436.400000
16867 16868 1 0.18850 35430.112000
16867 16869 1 0.13986 296436.400000
16868 16877 1 0.16500 119244.000000
16869 16870 1 0.10860 301825.392000
16869 16871 1 0.13986 296436.400000
16871 16872 1 0.10860 301825.392000
16871 16873 1 0.13986 296436.400000
16873 16874 1 0.10860 301825.392000
16873 16875 1 0.13986 296436.400000
16875 16876 1 0.10860 301825.392000
16877 16878 1 0.09450 207108.000000
16879 16880 1 0.10860 301825.392000
16880 16881 1 0.13986 296436.400000
16880 16889 1 0.13986 296436.400000
16881 16882 1 0.18850 35430.112000
16881 16883 1 0.13986 296436.400000
16882 16891 1 0.16500 119244.000000
16883 16884 1 0.10860 301825.392000
16883 16885 1 0.13986 296436.400000
16885 16886 1 0.10860 301825.392000
16885 16887 1 0.13986 296436.400000
16887 16888 1 0.10860 301825.392000
16887 16889 1 0.13986 296436.400000
16889 16890 1 0.10860 301825.392000
16891 16892 1 0.09450 207108.000000
16893 16894 1 0.10860 301825.392000
16894 16895 1 0.13986 296436.400000
16894 16903 1 0.13986 296436.400000
16895 16896 1 0.18850 35430.112000
16895 16897 1 0.13986 296436.400000
16896 16905 1 0.16500 119244.000000
16897 16898 1 0.10860 301825.392000
16897 16899 1 0.13986 296436.400000
16899 16900 1 0.10860 301825.392000
16899 16901 1 0.13986 296436.400000
16901 16902 1 0.10860 301825.392000
16901 16903 1 0.13986 296436.400000
16903 16904 1 0.10860 301825.392000
16905 16906 1 0.09450 207108.000000
16907 16908 1 0.10860 301825.392000
16908 16909 1 0.13986 296436.400000
16908 16917 1 0.13986 296436.400000
16909 16910 1 0.18850 35430.112000
16909 16911 1 0.13986 296436.400000
16910 16919 1 0.16500 119244.000000
16911 16912 1 0.10860 301825.392000
16911 16913 1 0.13986 296436.400000
16913 16914 1 0.10860 301825.392000
16913 16915 1 0.13986 296436.400000
16915 16916 1 0.10860 301825.392000
16915 16917 1 0.13986 296436.400000
16917 16918 1 0.10860 301825.392000
16919 16920 1 0.09450 207108.000000
16921 16922 1 0.10860 301825.392000
16922 16923 1 0.13986 296436.400000
16922 16931 1 0.13986 296436.400000
16923 16924 1 0.18850 35430.112000
16923 16925 1 0.13986 296436.400000
16924 16933 1 0.16500 119244.000000
16925 16926 1 0.10860 301825.392000
16925 16927 1 0.13986 296436.400000
16927 16928 1 0.10860 301825.392000
16927 16929 1 0.13986 296436.400000
16929 16930 1 0.10860 301825.392000
16929 16931 1 0.13986 296436.400000
16931 16932 1 0.10860 301825.392000
16933 16934 1 0.09450 207108.000000
16935 16936 1 0.10860 301825.392000
16936 16937 1 0.13986 296436.400000
16936 16945 1 0.13986 296436.400000
16937 16938 1 0.18850 35430.112000
16937 16939 1 0.13986 296436.400000
16938 16947 1 0.16500 119244.000000
16939 16940 1 0.10860 301825.392000
16939 16941 1 0.13986 296436.400000
16941 16942 1 0.10860 301825.392000
16941 16943 1 0.13986 296436.400000
16943 16944 1 0.10860 301825.392000
16943 16945 1 0.13986 296436.400000
16945 16946 1 0.10860 301825.392000
16947 16948 1 0.09450 207108.000000
16949 16950 1 0.10860 301825.392000
16950 16951 1 0.13986 296436.400000
16950 16959 1 0.13986 296436.400000
16951 16952 1 0.18850 35430.112000
16951 16953 1 0.13986 296436.400000
16952 16961 1 0.16500 119244.000000
16953 16954 1 0.10860 301825.392000
16953 16955 1 0.13986 296436.400000
16955 16956 1 0.10860 301825.392000
16955 16957 1 0.13986 296436.400000
16957 16958 1 0.10860 301825.392000
16957 16959 1 0.13986 296436.400000
16959 16960 1 0.10860 301825.392000
16961 16962 1 0.09450 207108.000000
16963 16964 1 0.10860 301825.392000
16964 16965 1 0.13986 296436.400000
16964 16973 1 0.13986 296436.400000
16965 16966 1 0.18850 35430.112000
16965 16967 1 0.13986 296436.400000
16966 16975 1 0.16500 119244.000000
16967 16968 1 0.10860 301825.392000
16967 16969 1 0.13986 296436.400000
16969 16970 1 0.10860 301825.392000
16969 16971 1 0.13986 296436.400000
16971 16972 1 0.10860 301825.392000
16971 16973 1 0.13986 296436.400000
16973 16974 1 0.10860 301825.392000
16975 16976 1 0.09450 207108.000000
16977 16978 1 0.10860 301825.392000
16978 16979 1 0.13986 296436.400000
16978 16987 1 0.13986 296436.400000
16979 16980 1 0.18850 35430.112000
16979 16981 1 0.13986 296436.400000
16980 16989 1 0.16500 119244.000000
16981 16982 1 0.10860 301825.392000
16981 16983 1 0.13986 296436.400000
16983 16984 1 0.10860 301825.392000
16983 16985 1 0.13986 296436.400000
16985 16986 1 0.10860 301825.392000
16985 16987 1 0.13986 296436.400000
16987 16988 1 0.10860 301825.392000
16989 16990 1 0.09450 207108.000000
16991 16992 1 0.10860 301825.392000
16992 16993 1 0.13986 296436.400000
16992 17001 1 0.13986 296436.400000
16993 16994 1 0.18850 35430.112000
16993 16995 1 0.13986 296436.400000
16994 17003 1 0.16500 119244.000000
16995 16996 1 0.10860 301825.392000
16995 16997 1 0.13986 296436.400000
16997 16998 1 0.10860 301825.392000
16997 16999 1 0.13986 296436.400000
16999 17000 1 0.10860 301825.392000
16999 17001 1 0.13986 296436.400000
17001 17002 1 0.10860 301825.392000
17003 17004 1 0.09450 207108.000000
17005 17006 1 0.10860 301825.392000
17006 17007 1 0.13986 296436.400000
17006 17015 1 0.13986 296436.400000
17007 17008 1 0.18850 35430.112000
17007 17009 1 0.13986 296436.400000
17008 17017 1 0.16500 119244.000000
17009 17010 1 0.10860 301825.392000
17009 17011 1 0.13986 296436.400000
17011 17012 1 0.10860 301825.392000
17011 17013 1 0.13986 296436.400000
17013 17014 1 0.10860 301825.392000
17013 17015 1 0.13986 296436.400000
17015 17016 1 0.10860 301825.392000
17017 17018 1 0.09450 207108.000000
17019 17020 1 0.10860 301825.392000
17020 17021 1 0.13986 296436.400000
17020 17029 1 0.13986 296436.400000
17021 17022 1 0.18850 35430.112000
17021 17023 1 0.13986 296436.400000
17022 17031 1 0.16500 119244.000000
17023 17024 1 0.10860 301825.392000
17023 17025 1 0.13986 296436.400000
17025 17026 1 0.10860 301825.392000
17025 17027 1 0.13986 296436.400000
17027 17028 1 0.10860 301825.392000
17027 17029 1 0.13986 296436.400000
17029 17030 1 0.10860 301825.392000
17031 17032 1 0.09450 207108.000000
17033 17034 1 0.10860 301825.392000
17034 17035 1 0.13986 296436.400000
17034 17043 1 0.13986 296436.400000
17035 17036 1 0.18850 35430.112000
17035 17037 1 0.13986 296436.400000
17036 17045 1 0.16500 119244.000000
17037 17038 1 0.10860 301825.392000
17037 17039 1 0.13986 296436.400000
17039 17040 1 0.10860 301825.392000
17039 17041 1 0.13986 296436.400000
17041 17042 1 0.10860 301825.392000
17041 17043 1 0.13986 296436.400000
17043 17044 1 0.10860 301825.392000
17045 17046 1 0.09450 207108.000000
17047 17048 1 0.10860 301825.392000
17048 17049 1 0.13986 296436.400000
17048 17057 1 0.13986 296436.400000
17049 17050 1 0.18850 35430.112000
17049 17051 1 0.13986 296436.400000
17050 17059 1 0.16500 119244.000000
17051 17052 1 0.10860 301825.392000
17051 17053 1 0.13986 296436.400000
17053 17054 1 0.10860 301825.392000
17053 17055 1 0.13986 296436.400000
17055 17056 1 0.10860 301825.392000
17055 17057 1 0.13986 296436.400000
17057 17058 1 0.10860 301825.392000
17059 17060 1 0.09450 207108.000000
17061 17062 1 0.10860 301825.392000
17062 17063 1 0.13986 296436.400000
17062 17071 1 0.13986 296436.400000
17063 17064 1 0.18850 35430.112000
17063 17065 1 0.13986 296436.400000
17064 17073 1 0.16500 119244.000000
17065 17066 1 0.10860 301825.392000
17065 17067 1 0.13986 296436.400000
17067 17068 1 0.10860 301825.392000
17067 17069 1 0.13986 296436.400000
17069 17070 1 0.10860 301825.392000
17069 17071 1 0.13986 296436.400000
17071 17072 1 0.10860 301825.392000
17073 17074 1 0.09450 207108.000000
17075 17076 1 0.10860 301825.392000
17076 17077 1 0.13986 296436.400000
17076 17085 1 0.13986 296436.400000
17077 17078 1 0.18850 35430.112000
17077 17079 1 0.13986 296436.400000
17078 17087 1 0.16500 119244.000000
17079 17080 1 0.10860 301825.392000
17079 17081 1 0.13986 296436.400000
17081 17082 1 0.10860 301825.392000
17081 17083 1 0.13986 296436.400000
17083 17084 1 0.10860 301825.392000
17083 17085 1 0.13986 296436.400000
17085 17086 1 0.10860 301825.392000
17087 17088 1 0.09450 207108.000000
17089 17090 1 0.10860 301825.392000
17090 17091 1 0.13986 296436.400000
17090 17099 1 0.13986 296436.400000
17091 17092 1 0.18850 35430.112000
17091 17093 1 0.13986 296436.400000
17092 17101 1 0.16500 119244.000000
17093 17094 1 0.10860 301825.392000
17093 17095 1 0.13986 296436.400000
17095 17096 1 0.10860 301825.392000
17095 17097 1 0.13986 296436.400000
17097 17098 1 0.10860 301825.392000
17097 17099 1 0.13986 296436.400000
17099 17100 1 0.10860 301825.392000
17101 17102 1 0.09450 207108.000000
17103 17104 1 0.10860 301825.392000
17104 17105 1 0.13986 296436.400000
17104 17113 1 0.13986 296436.400000
17105 17106 1 0.18850 35430.112000
17105 17107 1 0.13986 296436.400000
17106 17115 1 0.16500 119244.000000
17107 17108 1 0.10860 301825.392000
17107 17109 1 0.13986 296436.400000
17109 17110 1 0.10860 301825.392000
17109 17111 1 0.13986 296436.400000
17111 17112 1 0.10860 301825.392000
17111 17113 1 0.13986 296436.400000
17113 17114 1 0.10860 301825.392000
17115 17116 1 0.09450 207108.000000
17117 17118 1 0.10860 301825.392000
17118 17119 1 0.13986 296436.400000
17118 17127 1 0.13986 296436.400000
17119 17120 1 0.18850 35430.112000
17119 17121 1 0.13986 296436.400000
17120 17129 1 0.16500 119244.000000
17121 17122 1 0.10860 301825.392000
17121 17123 1 0.13986 296436.400000
17123 17124 1 0.10860 301825.392000
17123 17125 1 0.13986 296436.400000
17125 17126 1 0.10860 301825.392000
17125 17127 1 0.13986 296436.400000
17127 17128 1 0.10860 301825.392000
17129 17130 1 0.09450 207108.000000
17131 17132 1 0.10860 301825.392000
17132 17133 1 0.13986 296436.400000
17132 17141 1 0.13986 296436.400000
17133 17134 1 0.18850 35430.112000
17133 17135 1 0.13986 296436.400000
17134 17143 1 0.16500 119244.000000
17135 17136 1 0.10860 301825.392000
17135 17137 1 0.13986 296436.400000
17137 17138 1 0.10860 301825.392000
17137 17139 1 0.13986 296436.400000
17139 17140 1 0.10860 301825.392000
17139 17141 1 0.13986 296436.400000
17141 17142 1 0.10860 301825.392000
17143 17144 1 0.09450 207108.000000
17145 17146 1 0.10860 301825.392000
17146 17147 1 0.13986 296436.400000
17146 17155 1 0.13986 296436.400000
17147 17148 1 0.18850 35430.112000
17147 17149 1 0.13986 296436.400000
17148 17157 1 0.16500 119244.000000
17149 17150 1 0.10860 301825.392000
17149 17151 1 0.13986 296436.400000
17151 17152 1 0.10860 301825.392000
17151 17153 1 0.13986 296436.400000
17153 17154 1 0.10860 301825.392000
17153 17155 1 0.13986 296436.400000
17155 17156 1 0.10860 301825.392000
17157 17158 1 0.09450 207108.000000
17159 17160 1 0.10860 301825.392000
17160 17161 1 0.13986 296436.400000
17160 17169 1 0.13986 296436.400000
17161 17162 1 0.18850 35430.112000
17161 17163 1 0.13986 296436.400000
17162 17171 1 0.16500 119244.000000
17163 17164 1 0.10860 301825.392000
17163 17165 1 0.13986 296436.400000
17165 17166 1 0.10860 301825.392000
17165 17167 1 0.13986 296436.400000
17167 17168 1 0.10860 301825.392000
17167 17169 1 0.13986 296436.400000
17169 17170 1 0.10860 301825.392000
17171 17172 1 0.09450 207108.000000
17173 17174 1 0.10860 301825.392000
17174 17175 1 0.13986 296436.400000
17174 17183 1 0.13986 296436.400000
17175 17176 1 0.18850 35430.112000
17175 17177 1 0.13986 296436.400000
17176 17185 1 0.16500 119244.000000
17177 17178 1 0.10860 301825.392000
17177 17179 1 0.13986 296436.400000
17179 17180 1 0.10860 301825.392000
17179 17181 1 0.13986 296436.400000
17181 17182 1 0.10860 301825.392000
17181 17183 1 0.13986 296436.400000
17183 17184 1 0.10860 301825.392000
17185 17186 1 0.09450 207108.000000
17187 17188 1 0.10860 301825.392000
17188 17189 1 0.13986 296436.400000
17188 17197 1 0.13986 296436.400000
17189 17190 1 0.18850 35430.112000
17189 17191 1 0.13986 296436.400000
17190 17199 1 0.16500 119244.000000
17191 17192 1 0.10860 301825.392000
17191 17193 1 0.13986 296436.400000
17193 17194 1 0.10860 301825.392000
17193 17195 1 0.13986 296436.400000
17195 17196 1 0.10860 301825.392000
17195 17197 1 0.13986 296436.400000
17197 17198 1 0.10860 301825.392000
17199 17200 1 0.09450 207108.000000
17201 17202 1 0.10860 301825.392000
17202 17203 1 0.13986 296436.400000
17202 17211 1 0.13986 296436.400000
17203 17204 1 0.18850 35430.112000
17203 17205 1 0.13986 296436.400000
17204 17213 1 0.16500 119244.000000
17205 17206 1 0.10860 301825.392000
17205 17207 1 0.13986 296436.400000
17207 17208 1 0.10860 301825.392000
17207 17209 1 0.13986 296436.400000
17209 17210 1 0.10860 301825.392000
17209 17211 1 0.13986 296436.400000
17211 17212 1 0.10860 301825.392000
17213 17214 1 0.09450 207108.000000
17215 17216 1 0.10860 301825.392000
17216 17217 1 0.13986 296436.400000
17216 17225 1 0.13986 296436.400000
17217 17218 1 0.18850 35430.112000
17217 17219 1 0.13986 296436.400000
17218 17227 1 0.16500 119244.000000
17219 17220 1 0.10860 301825.392000
17219 17221 1 0.13986 296436.400000
17221 17222 1 0.10860 301825.392000
17221 17223 1 0.13986 296436.400000
17223 17224 1 0.10860 301825.392000
17223 17225 1 0.13986 296436.400000
17225 17226 1 0.10860 301825.392000
17227 17228 1 0.09450 207108.000000
17229 17230 1 0.10860 301825.392000
17230 17231 1 0.13986 296436.400000
17230 17239 1 0.13986 296436.400000
17231 17232 1 0.18850 35430.112000
17231 17233 1 0.13986 296436.400000
17232 17241 1 0.16500 119244.000000
17233 17234 1 0.10860 301825.392000
17233 17235 1 0.13986 296436.400000
17235 17236 1 0.10860 301825.392000
17235 17237 1 0.13986 296436.400000
17237 17238 1 0.10860 301825.392000
17237 17239 1 0.13986 296436.400000
17239 17240 1 0.10860 301825.392000
17241 17242 1 0.09450 207108.000000
17243 17244 1 0.10860 301825.392000
17244 17245 1 0.13986 296436.400000
17244 17253 1 0.13986 296436.400000
17245 17246 1 0.18850 35430.112000
17245 17247 1 0.13986 296436.400000
17246 17255 1 0.16500 119244.000000
17247 17248 1 0.10860 301825.392000
17247 17249 1 0.13986 296436.400000
17249 17250 1 0.10860 301825.392000
17249 17251 1 0.13986 296436.400000
17251 17252 1 0.10860 301825.392000
17251 17253 1 0.13986 296436.400000
17253 17254 1 0.10860 301825.392000
17255 17256 1 0.09450 207108.000000
17257 17258 1 0.10860 301825.392000
17258 17259 1 0.13986 296436.400000
17258 17267 1 0.13986 296436.400000
17259 17260 1 0.18850 35430.112000
17259 17261 1 0.13986 296436.400000
17260 17269 1 0.16500 119244.000000
17261 17262 1 0.10860 301825.392000
17261 17263 1 0.13986 296436.400000
17263 17264 1 0.10860 301825.392000
17263 17265 1 0.13986 296436.400000
17265 17266 1 0.10860 301825.392000
17265 17267 1 0.13986 296436.400000
17267 17268 1 0.10860 301825.392000
17269 17270 1 0.09450 207108.000000
17271 17272 1 0.10860 301825.392000
17272 17273 1 0.13986 296436.400000
17272 17281 1 0.13986 296436.400000
17273 17274 1 0.18850 35430.112000
17273 17275 1 0.13986 296436.400000
17274 17283 1 0.16500 119244.000000
17275 17276 1 0.10860 301825.392000
17275 17277 1 0.13986 296436.400000
17277 17278 1 0.10860 301825.392000
17277 17279 1 0.13986 296436.400000
17279 17280 1 0.10860 301825.392000
17279 17281 1 0.13986 296436.400000
17281 17282 1 0.10860 301825.392000
17283 17284 1 0.09450 207108.000000
17285 17286 1 0.10860 301825.392000
17286 17287 1 0.13986 296436.400000
17286 17295 1 0.13986 296436.400000
17287 17288 1 0.18850 35430.112000
17287 17289 1 0.13986 296436.400000
17288 17297 1 0.16500 119244.000000
17289 17290 1 0.10860 301825.392000
17289 17291 1 0.13986 296436.400000
17291 17292 1 0.10860 301825.392000
17291 17293 1 0.13986 296436.400000
17293 17294 1 0.10860 301825.392000
17293 17295 1 0.13986 296436.400000
17295 17296 1 0.10860 301825.392000
17297 17298 1 0.09450 207108.000000
17299 17300 1 0.10860 301825.392000
17300 17301 1 0.13986 296436.400000
17300 17309 1 0.13986 296436.400000
17301 17302 1 0.18850 35430.112000
17301 17303 1 0.13986 296436.400000
17302 17311 1 0.16500 119244.000000
17303 17304 1 0.10860 301825.392000
17303 17305 1 0.13986 296436.400000
17305 17306 1 0.10860 301825.392000
17305 17307 1 0.13986 296436.400000
17307 17308 1 0.10860 301825.392000
17307 17309 1 0.13986 296436.400000
17309 17310 1 0.10860 301825.392000
17311 17312 1 0.09450 207108.000000
17313 17314 1 0.10860 301825.392000
17314 17315 1 0.13986 296436.400000
17314 17323 1 0.13986 296436.400000
17315 17316 1 0.18850 35430.112000
17315 17317 1 0.13986 296436.400000
17316 17325 1 0.16500 119244.000000
17317 17318 1 0.10860 301825.392000
17317 17319 1 0.13986 296436.400000
17319 17320 1 0.10860 301825.392000
17319 17321 1 0.13986 296436.400000
17321 17322 1 0.10860 301825.392000
17321 17323 1 0.13986 296436.400000
17323 17324 1 0.10860 301825.392000
17325 17326 1 0.09450 207108.000000
17327 17328 1 0.10860 301825.392000
17328 17329 1 0.13986 296436.400000
17328 17337 1 0.13986 296436.400000
17329 17330 1 0.18850 35430.112000
17329 17331 1 0.13986 296436.400000
17330 17339 1 0.16500 119244.000000
17331 17332 1 0.10860 301825.392000
17331 17333 1 0.13986 296436.400000
17333 17334 1 0.10860 301825.392000
17333 17335 1 0.13986 296436.400000
17335 17336 1 0.10860 301825.392000
17335 17337 1 0.13986 296436.400000
17337 17338 1 0.10860 301825.392000
17339 17340 1 0.09450 207108.000000
17341 17342 1 0.10860 301825.392000
17342 17343 1 0.13986 296436.400000
17342 17351 1 0.13986 296436.400000
17343 17344 1 0.18850 35430.112000
17343 17345 1 0.13986 296436.400000
17344 17353 1 0.16500 119244.000000
17345 17346 1 0.10860 301825.392000
17345 17347 1 0.13986 296436.400000
17347 17348 1 0.10860 301825.392000
17347 17349 1 0.13986 296436.400000
17349 17350 1 0.10860 301825.392000
17349 17351 1 0.13986 296436.400000
17351 17352 1 0.10860 301825.392000
17353 17354 1 0.09450 207108.000000
17355 17356 1 0.10860 301825.392000
17356 17357 1 0.13986 296436.400000
17356 17365 1 0.13986 296436.400000
17357 17358 1 0.18850 35430.112000
17357 17359 1 0.13986 296436.400000
17358 17367 1 0.16500 119244.000000
17359 17360 1 0.10860 301825.392000
17359 17361 1 0.13986 296436.400000
17361 17362 1 0.10860 301825.392000
17361 17363 1 0.13986 296436.400000
17363 17364 1 0.10860 301825.392000
17363 17365 1 0.13986 296436.400000
17365 17366 1 0.10860 301825.392000
17367 17368 1 0.09450 207108.000000
17369 17370 1 0.10860 301825.392000
17370 17371 1 0.13986 296436.400000
17370 17379 1 0.13986 296436.400000
17371 17372 1 0.18850 35430.112000
17371 17373 1 0.13986 296436.400000
17372 17381 1 0.16500 119244.000000
17373 17374 1 0.10860 301825.392000
17373 17375 1 0.13986 296436.400000
17375 17376 1 0.10860 301825.392000
17375 17377 1 0.13986 296436.400000
17377 17378 1 0.10860 301825.392000
17377 17379 1 0.13986 296436.400000
17379 17380 1 0.10860 301825.392000
17381 17382 1 0.09450 207108.000000
17383 17384 1 0.10860 301825.392000
17384 17385 1 0.13986 296436.400000
17384 17393 1 0.13986 296436.400000
17385 17386 1 0.18850 35430.112000
17385 17387 1 0.13986 296436.400000
17386 17395 1 0.16500 119244.000000
17387 17388 1 0.10860 301825.392000
17387 17389 1 0.13986 296436.400000
17389 17390 1 0.10860 301825.392000
17389 17391 1 0.13986 296436.400000
17391 17392 1 0.10860 301825.392000
17391 17393 1 0.13986 296436.400000
17393 17394 1 0.10860 301825.392000
17395 17396 1 0.09450 207108.000000
17397 17398 1 0.10860 301825.392000
17398 17399 1 0.13986 296436.400000
17398 17407 1 0.13986 296436.400000
17399 17400 1 0.18850 35430.112000
17399 17401 1 0.13986 296436.400000
17400 17409 1 0.16500 119244.000000
17401 17402 1 0.10860 301825.392000
17401 17403 1 0.13986 296436.400000
17403 17404 1 0.10860 301825.392000
17403 17405 1 0.13986 296436.400000
17405 17406 1 0.10860 301825.392000
17405 17407 1 0.13986 296436.400000
17407 17408 1 0.10860 301825.392000
17409 17410 1 0.09450 207108.000000
17411 17412 1 0.10860 301825.392000
17412 17413 1 0.13986 296436.400000
17412 17421 1 0.13986 296436.400000
17413 17414 1 0.18850 35430.112000
17413 17415 1 0.13986 296436.400000
17414 17423 1 0.16500 119244.000000
17415 17416 1 0.10860 301825.392000
17415 17417 1 0.13986 296436.400000
17417 17418 1 0.10860 301825.392000
17417 17419 1 0.13986 296436.400000
17419 17420 1 0.10860 301825.392000
17419 17421 1 0.13986 296436.400000
17421 17422 1 0.10860 301825.392000
17423 17424 1 0.09450 207108.000000
17425 17426 1 0.10860 301825.392000
17426 17427 1 0.13986 296436.400000
17426 17435 1 0.13986 296436.400000
17427 17428 1 0.18850 35430.112000
17427 17429 1 0.13986 296436.400000
17428 17437 1 0.16500 119244.000000
17429 17430 1 0.10860 301825.392000
17429 17431 1 0.13986 296436.400000
17431 17432 1 0.10860 301825.392000
17431 17433 1 0.13986 296436.400000
17433 17434 1 0.10860 301825.392000
17433 17435 1 0.13986 296436.400000
17435 17436 1 0.10860 301825.392000
17437 17438 1 0.09450 207108.000000
17439 17440 1 0.10860 301825.392000
17440 17441 1 0.13986 296436.400000
17440 17449 1 0.13986 296436.400000
17441 17442 1 0.18850 35430.112000
17441 17443 1 0.13986 296436.400000
17442 17451 1 0.16500 119244.000000
17443 17444 1 0.10860 301825.392000
17443 17445 1 0.13986 296436.400000
17445 17446 1 0.10860 301825.392000
17445 17447 1 0.13986 296436.400000
17447 17448 1 0.10860 301825.392000
17447 17449 1 0.13986 296436.400000
17449 17450 1 0.10860 301825.392000
17451 17452 1 0.09450 207108.000000
17453 17454 1 0.10860 301825.392000
17454 17455 1 0.13986 296436.400000
17454 17463 1 0.13986 296436.400000
17455 17456 1 0.18850 35430.112000
17455 17457 1 0.13986 296436.400000
17456 17465 1 0.16500 119244.000000
17457 17458 1 0.10860 301825.392000
17457 17459 1 0.13986 296436.400000
17459 17460 1 0.10860 301825.392000
17459 17461 1 0.13986 296436.400000
17461 17462 1 0.10860 301825.392000
17461 17463 1 0.13986 296436.400000
17463 17464 1 0.10860 301825.392000
17465 17466 1 0.09450 207108.000000
17467 17468 1 0.10860 301825.392000
17468 17469 1 0.13986 296436.400000
17468 17477 1 0.13986 296436.400000
17469 17470 1 0.18850 35430.112000
17469 17471 1 0.13986 296436.400000
17470 17479 1 0.16500 119244.000000
17471 17472 1 0.10860 301825.392000
17471 17473 1 0.13986 296436.400000
17473 17474 1 0.10860 301825.392000
17473 17475 1 0.13986 296436.400000
17475 17476 1 0.10860 301825.392000
17475 17477 1 0.13986 296436.400000
17477 17478 1 0.10860 301825.392000
17479 17480 1 0.09450 207108.000000
17481 17482 1 0.10860 301825.392000
17482 17483 1 0.13986 296436.400000
17482 17491 1 0.13986 296436.400000
17483 17484 1 0.18850 35430.112000
17483 17485 1 0.13986 296436.400000
17484 17493 1 0.16500 119244.000000
17485 17486 1 0.10860 301825.392000
17485 17487 1 0.13986 296436.400000
17487 17488 1 0.10860 301825.392000
17487 17489 1 0.13986 296436.400000
17489 17490 1 0.10860 301825.392000
17489 17491 1 0.13986 296436.400000
17491 17492 1 0.10860 301825.392000
17493 17494 1 0.09450 207108.000000
17495 17496 1 0.10860 301825.392000
17496 17497 1 0.13986 296436.400000
17496 17505 1 0.13986 296436.400000
17497 17498 1 0.18850 35430.112000
17497 17499 1 0.13986 296436.400000
17498 17507 1 0.16500 119244.000000
17499 17500 1 0.10860 301825.392000
17499 17501 1 0.13986 296436.400000
17501 17502 1 0.10860 301825.392000
17501 17503 1 0.13986 296436.400000
17503 17504 1 0.10860 301825.392000
17503 17505 1 0.13986 296436.400000
17505 17506 1 0.10860 301825.392000
17507 17508 1 0.09450 207108.000000
17509 17510 1 0.10860 301825.392000
17510 17511 1 0.13986 296436.400000
17510 17519 1 0.13986 296436.400000
17511 17512 1 0.18850 35430.112000
17511 17513 1 0.13986 296436.400000
17512 17521 1 0.16500 119244.000000
17513 17514 1 0.10860 301825.392000
17513 17515 1 0.13986 296436.400000
17515 17516 1 0.10860 301825.392000
17515 17517 1 0.13986 296436.400000
17517 17518 1 0.10860 301825.392000
17517 17519 1 0.13986 296436.400000
17519 17520 1 0.10860 301825.392000
17521 17522 1 0.09450 207108.000000
17523 17524 1 0.10860 301825.392000
17524 17525 1 0.13986 296436.400000
17524 17533 1 0.13986 296436.400000
17525 17526 1 0.18850 35430.112000
17525 17527 1 0.13986 296436.400000
17526 17535 1 0.16500 119244.000000
17527 17528 1 0.10860 301825.392000
17527 17529 1 0.13986 296436.400000
17529 17530 1 0.10860 301825.392000
17529 17531 1 0.13986 296436.400000
17531 17532 1 0.10860 301825.392000
17531 17533 1 0.13986 296436.400000
17533 17534 1 0.10860 301825.392000
17535 17536 1 0.09450 207108.000000
17537 17538 1 0.10860 301825.392000
17538 17539 1 0.13986 296436.400000
17538 17547 1 0.13986 296436.400000
17539 17540 1 0.18850 35430.112000
17539 17541 1 0.13986 296436.400000
17540 17549 1 0.16500 119244.000000
17541 17542 1 0.10860 301825.392000
17541 17543 1 0.13986 296436.400000
17543 17544 1 0.10860 301825.392000
17543 17545 1 0.13986 296436.400000
17545 17546 1 0.10860 301825.392000
17545 17547 1 0.13986 296436.400000
17547 17548 1 0.10860 301825.392000
17549 17550 1 0.09450 207108.000000
17551 17552 1 0.10860 301825.392000
17552 17553 1 0.13986 296436.400000
17552 17561 1 0.13986 296436.400000
17553 17554 1 0.18850 35430.112000
17553 17555 1 0.13986 296436.400000
17554 17563 1 0.16500 119244.000000
17555 17556 1 0.10860 301825.392000
17555 17557 1 0.13986 296436.400000
17557 17558 1 0.10860 301825.392000
17557 17559 1 0.13986 296436.400000
17559 17560 1 0.10860 301825.392000
17559 17561 1 0.13986 296436.400000
17561 17562 1 0.10860 301825.392000
17563 17564 1 0.09450 207108.000000
17565 17566 1 0.10860 301825.392000
17566 17567 1 0.13986 296436.400000
17566 17575 1 0.13986 296436.400000
17567 17568 1 0.18850 35430.112000
17567 17569 1 0.13986 296436.400000
17568 17577 1 0.16500 119244.000000
17569 17570 1 0.10860 301825.392000
17569 17571 1 0.13986 296436.400000
17571 17572 1 0.10860 301825.392000
17571 17573 1 0.13986 296436.400000
17573 17574 1 0.10860 301825.392000
17573 17575 1 0.13986 296436.400000
17575 17576 1 0.10860 301825.392000
17577 17578 1 0.09450 207108.000000
17579 17580 1 0.10860 301825.392000
17580 17581 1 0.13986 296436.400000
17580 17589 1 0.13986 296436.400000
17581 17582 1 0.18850 35430.112000
17581 17583 1 0.13986 296436.400000
17582 17591 1 0.16500 119244.000000
17583 17584 1 0.10860 301825.392000
17583 17585 1 0.13986 296436.400000
17585 17586 1 0.10860 301825.392000
17585 17587 1 0.13986 296436.400000
17587 17588 1 0.10860 301825.392000
17587 17589 1 0.13986 296436.400000
17589 17590 1 0.10860 301825.392000
17591 17592 1 0.09450 207108.000000
17593 17594 1 0.10860 301825.392000
17594 17595 1 0.13986 296436.400000
17594 17603 1 0.13986 296436.400000
17595 17596 1 0.18850 35430.112000
17595 17597 1 0.13986 296436.400000
17596 17605 1 0.16500 119244.000000
17597 17598 1 0.10860 301825.392000
17597 17599 1 0.13986 296436.400000
17599 17600 1 0.10860 301825.392000
17599 17601 1 0.13986 296436.400000
17601 17602 1 0.10860 301825.392000
17601 17603 1 0.13986 296436.400000
17603 17604 1 0.10860 301825.392000
17605 17606 1 0.09450 207108.000000
17607 17608 1 0.10860 301825.392000
17608 17609 1 0.13986 296436.400000
17608 17617 1 0.13986 296436.400000
17609 17610 1 0.18850 35430.112000
17609 17611 1 0.13986 296436.400000
17610 17619 1 0.16500 119244.000000
17611 17612 1 0.10860 301825.392000
17611 17613 1 0.13986 296436.400000
17613 17614 1 0.10860 301825.392000
17613 17615 1 0.13986 296436.400000
17615 17616 1 0.10860 301825.392000
17615 17617 1 0.13986 296436.400000
17617 17618 1 0.10860 301825.392000
17619 17620 1 0.09450 207108.000000
17621 17622 1 0.10860 301825.392000
17622 17623 1 0.13986 296436.400000
17622 17631 1 0.13986 296436.400000
17623 17624 1 0.18850 35430.112000
17623 17625 1 0.13986 296436.400000
17624 17633 1 0.16500 119244.000000
17625 17626 1 0.10860 301825.392000
17625 17627 1 0.13986 296436.400000
17627 17628 1 0.10860 301825.392000
17627 17629 1 0.13986 296436.400000
17629 17630 1 0.10860 301825.392000
17629 17631 1 0.13986 296436.400000
17631 17632 1 0.10860 301825.392000
17633 17634 1 0.09450 207108.000000
17635 17636 1 0.10860 301825.392000
17636 17637 1 0.13986 296436.400000
17636 17645 1 0.13986 296436.400000
17637 17638 1 0.18850 35430.112000
17637 17639 1 0.13986 296436.400000
17638 17647 1 0.16500 119244.000000
17639 17640 1 0.10860 301825.392000
17639 17641 1 0.13986 296436.400000
17641 17642 1 0.10860 301825.392000
17641 17643 1 0.13986 296436.400000
17643 17644 1 0.10860 301825.392000
17643 17645 1 0.13986 296436.400000
17645 17646 1 0.10860 301825.392000
17647 17648 1 0.09450 207108.000000
17649 17650 1 0.10860 301825.392000
17650 17651 1 0.13986 296436.400000
17650 17659 1 0.13986 296436.400000
17651 17652 1 0.18850 35430.112000
17651 17653 1 0.13986 296436.400000
17652 17661 1 0.16500 119244.000000
17653 17654 1 0.10860 301825.392000
17653 17655 1 0.13986 296436.400000
17655 17656 1 0.10860 301825.392000
17655 17657 1 0.13986 296436.400000
17657 17658 1 0.10860 301825.392000
17657 17659 1 0.13986 296436.400000
17659 17660 1 0.10860 301825.392000
17661 17662 1 0.09450 207108.000000
17663 17664 1 0.10860 301825.392000
17664 17665 1 0.13986 296436.400000
17664 17673 1 0.13986 296436.400000
17665 17666 1 0.18850 35430.112000
17665 17667 1 0.13986 296436.400000
17666 17675 1 0.16500 119244.000000
17667 17668 1 0.10860 301825.392000
17667 17669 1 0.13986 296436.400000
17669 17670 1 0.10860 301825.392000
17669 17671 1 0.13986 296436.400000
17671 17672 1 0.10860 301825.392000
17671 17673 1 0.13986 296436.400000
17673 17674 1 0.10860 301825.392000
17675 17676 1 0.09450 207108.000000
17677 17678 1 0.10860 301825.392000
17678 17679 1 0.13986 296436.400000
17678 17687 1 0.13986 296436.400000
17679 17680 1 0.18850 35430.112000
17679 17681 1 0.13986 296436.400000
17680 17689 1 0.16500 119244.000000
17681 17682 1 0.10860 301825.392000
17681 17683 1 0.13986 296436.400000
17683 17684 1 0.10860 301825.392000
17683 17685 1 0.13986 296436.400000
17685 17686 1 0.10860 301825.392000
17685 17687 1 0.13986 296436.400000
17687 17688 1 0.10860 301825.392000
17689 17690 1 0.09450 207108.000000
17691 17692 1 0.10860 301825.392000
17692 17693 1 0.13986 296436.400000
17692 17701 1 0.13986 296436.400000
17693 17694 1 0.18850 35430.112000
17693 17695 1 0.13986 296436.400000
17694 17703 1 0.16500 119244.000000
17695 17696 1 0.10860 301825.392000
17695 17697 1 0.13986 296436.400000
17697 17698 1 0.10860 301825.392000
17697 17699 1 0.13986 296436.400000
17699 17700 1 0.10860 301825.392000
17699 17701 1 0.13986 296436.400000
17701 17702 1 0.10860 301825.392000
17703 17704 1 0.09450 207108.000000
17705 17706 1 0.10860 301825.392000
17706 17707 1 0.13986 296436.400000
17706 17715 1 0.13986 296436.400000
17707 17708 1 0.18850 35430.112000
17707 17709 1 0.13986 296436.400000
17708 17717 1 0.16500 119244.000000
17709 17710 1 0.10860 301825.392000
17709 17711 1 0.13986 296436.400000
17711 17712 1 0.10860 301825.392000
17711 17713 1 0.13986 296436.400000
17713 17714 1 0.10860 301825.392000
17713 17715 1 0.13986 296436.400000
17715 17716 1 0.10860 301825.392000
17717 17718 1 0.09450 207108.000000
17719 17720 1 0.10860 301825.392000
17720 17721 1 0.13986 296436.400000
17720 17729 1 0.13986 296436.400000
17721 17722 1 0.18850 35430.112000
17721 17723 1 0.13986 296436.400000
17722 17731 1 0.16500 119244.000000
17723 17724 1 0.10860 301825.392000
17723 17725 1 0.13986 296436.400000
17725 17726 1 0.10860 301825.392000
17725 17727 1 0.13986 296436.400000
17727 17728 1 0.10860 301825.392000
17727 17729 1 0.13986 296436.400000
17729 17730 1 0.10860 301825.392000
17731 17732 1 0.09450 207108.000000
17733 17734 1 0.10860 301825.392000
17734 17735 1 0.13986 296436.400000
17734 17743 1 0.13986 296436.400000
17735 17736 1 0.18850 35430.112000
17735 17737 1 0.13986 296436.400000
17736 17745 1 0.16500 119244.000000
17737 17738 1 0.10860 301825.392000
17737 17739 1 0.13986 296436.400000
17739 17740 1 0.10860 301825.392000
17739 17741 1 0.13986 296436.400000
17741 17742 1 0.10860 301825.392000
17741 17743 1 0.13986 296436.400000
17743 17744 1 0.10860 301825.392000
17745 17746 1 0.09450 207108.000000
17747 17748 1 0.10860 301825.392000
17748 17749 1 0.13986 296436.400000
17748 17757 1 0.13986 296436.400000
17749 17750 1 0.18850 35430.112000
17749 17751 1 0.13986 296436.400000
17750 17759 1 0.16500 119244.000000
17751 17752 1 0.10860 301825.392000
17751 17753 1 0.13986 296436.400000
17753 17754 1 0.10860 301825.392000
17753 17755 1 0.13986 296436.400000
17755 17756 1 0.10860 301825.392000
17755 17757 1 0.13986 296436.400000
17757 17758 1 0.10860 301825.392000
17759 17760 1 0.09450 207108.000000
17761 17762 1 0.10860 301825.392000
17762 17763 1 0.13986 296436.400000
17762 17771 1 0.13986 296436.400000
17763 17764 1 0.18850 35430.112000
17763 17765 1 0.13986 296436.400000
17764 17773 1 0.16500 119244.000000
17765 17766 1 0.10860 301825.392000
17765 17767 1 0.13986 296436.400000
17767 17768 1 0.10860 301825.392000
17767 17769 1 0.13986 296436.400000
17769 17770 1 0.10860 301825.392000
17769 17771 1 0.13986 296436.400000
17771 17772 1 0.10860 301825.392000
17773 17774 1 0.09450 207108.000000
17775 17776 1 0.10860 301825.392000
17776 17777 1 0.13986 296436.400000
17776 17785 1 0.13986 296436.400000
17777 17778 1 0.18850 35430.112000
17777 17779 1 0.13986 296436.400000
17778 17787 1 0.16500 119244.000000
17779 17780 1 0.10860 301825.392000
17779 17781 1 0.13986 296436.400000
17781 17782 1 0.10860 301825.392000
17781 17783 1 0.13986 296436.400000
17783 17784 1 0.10860 301825.392000
17783 17785 1 0.13986 296436.400000
17785 17786 1 0.10860 301825.392000
17787 17788 1 0.09450 207108.000000
17789 17790 1 0.10860 301825.392000
17790 17791 1 0.13986 296436.400000
17790 17799 1 0.13986 296436.400000
17791 17792 1 0.18850 35430.112000
17791 17793 1 0.13986 296436.400000
17792 17801 1 0.16500 119244.000000
17793 17794 1 0.10860 301825.392000
17793 17795 1 0.13986 296436.400000
17795 17796 1 0.10860 301825.392000
17795 17797 1 0.13986 296436.400000
17797 17798 1 0.10860 301825.392000
17797 17799 1 0.13986 296436.400000
17799 17800 1 0.10860 301825.392000
17801 17802 1 0.09450 207108.000000
17803 17804 1 0.10860 301825.392000
17804 17805 1 0.13986 296436.400000
17804 17813 1 0.13986 296436.400000
17805 17806 1 0.18850 35430.112000
17805 17807 1 0.13986 296436.400000
17806 17815 1 0.16500 119244.000000
17807 17808 1 0.10860 301825.392000
17807 17809 1 0.13986 296436.400000
17809 17810 1 0.10860 301825.392000
17809 17811 1 0.13986 296436.400000
17811 17812 1 0.10860 301825.392000
17811 17813 1 0.13986 296436.400000
17813 17814 1 0.10860 301825.392000
17815 17816 1 0.09450 207108.000000
17817 17818 1 0.10860 301825.392000
17818 17819 1 0.13986 296436.400000
17818 17827 1 0.13986 296436.400000
17819 17820 1 0.18850 35430.112000
17819 17821 1 0.13986 296436.400000
17820 17829 1 0.16500 119244.000000
17821 17822 1 0.10860 301825.392000
17821 17823 1 0.13986 296436.400000
17823 17824 1 0.10860 301825.392000
17823 17825 1 0.13986 296436.400000
17825 17826 1 0.10860 301825.392000
17825 17827 1 0.13986 296436.400000
17827 17828 1 0.10860 301825.392000
17829 17830 1 0.09450 207108.000000
17831 17832 1 0.10860 301825.392000
17832 17833 1 0.13986 296436.400000
17832 17841 1 0.13986 296436.400000
17833 17834 1 0.18850 35430.112000
17833 17835 1 0.13986 296436.400000
17834 17843 1 0.16500 119244.000000
17835 17836 1 0.10860 301825.392000
17835 17837 1 0.13986 296436.400000
17837 17838 1 0.10860 301825.392000
17837 17839 1 0.13986 296436.400000
17839 17840 1 0.10860 301825.392000
17839 17841 1 0.13986 296436.400000
17841 17842 1 0.10860 301825.392000
17843 17844 1 0.09450 207108.000000
17845 17846 1 0.10860 301825.392000
17846 17847 1 0.13986 296436.400000
17846 17855 1 0.13986 296436.400000
17847 17848 1 0.18850 35430.112000
17847 17849 1 0.13986 296436.400000
17848 17857 1 0.16500 119244.000000
17849 17850 1 0.10860 301825.392000
17849 17851 1 0.13986 296436.400000
17851 17852 1 0.10860 301825.392000
17851 17853 1 0.13986 296436.400000
17853 17854 1 0.10860 301825.392000
17853 17855 1 0.13986 296436.400000
17855 17856 1 0.10860 301825.392000
17857 17858 1 0.09450 207108.000000
17859 17860 1 0.10860 301825.392000
17860 17861 1 0.13986 296436.400000
17860 17869 1 0.13986 296436.400000
17861 17862 1 0.18850 35430.112000
17861 17863 1 0.13986 296436.400000
17862 17871 1 0.16500 119244.000000
17863 17864 1 0.10860 301825.392000
17863 17865 1 0.13986 296436.400000
17865 17866 1 0.10860 301825.392000
17865 17867 1 0.13986 296436.400000
17867 17868 1 0.10860 301825.392000
17867 17869 1 0.13986 296436.400000
17869 17870 1 0.10860 301825.392000
17871 17872 1 0.09450 207108.000000
17873 17874 1 0.10860 301825.392000
17874 17875 1 0.13986 296436.400000
17874 17883 1 0.13986 296436.400000
17875 17876 1 0.18850 35430.112000
17875 17877 1 0.13986 296436.400000
17876 17885 1 0.16500 119244.000000
17877 17878 1 0.10860 301825.392000
17877 17879 1 0.13986 296436.400000
17879 17880 1 0.10860 301825.392000
17879 17881 1 0.13986 296436.400000
17881 17882 1 0.10860 301825.392000
17881 17883 1 0.13986 296436.400000
17883 17884 1 0.10860 301825.392000
17885 17886 1 0.09450 207108.000000
17887 17888 1 0.10860 301825.392000
17888 17889 1 0.13986 296436.400000
17888 17897 1 0.13986 296436.400000
17889 17890 1 0.18850 35430.112000
17889 17891 1 0.13986 296436.400000
17890 17899 1 0.16500 119244.000000
17891 17892 1 0.10860 301825.392000
17891 17893 1 0.13986 296436.400000
17893 17894 1 0.10860 301825.392000
17893 17895 1 0.13986 296436.400000
17895 17896 1 0.10860 301825.392000
17895 17897 1 0.13986 296436.400000
17897 17898 1 0.10860 301825.392000
17899 17900 1 0.09450 207108.000000
17901 17902 1 0.10860 301825.392000
17902 17903 1 0.13986 296436.400000
17902 17911 1 0.13986 296436.400000
17903 17904 1 0.18850 35430.112000
17903 17905 1 0.13986 296436.400000
17904 17913 1 0.16500 119244.000000
17905 17906 1 0.10860 301825.392000
17905 17907 1 0.13986 296436.400000
17907 17908 1 0.10860 301825.392000
17907 17909 1 0.13986 296436.400000
17909 17910 1 0.10860 301825.392000
17909 17911 1 0.13986 296436.400000
17911 17912 1 0.10860 301825.392000
17913 17914 1 0.09450 207108.000000
17915 17916 1 0.10860 301825.392000
17916 17917 1 0.13986 296436.400000
17916 17925 1 0.13986 296436.400000
17917 17918 1 0.18850 35430.112000
17917 17919 1 0.13986 296436.400000
17918 17927 1 0.16500 119244.000000
17919 17920 1 0.10860 301825.392000
17919 17921 1 0.13986 296436.400000
17921 17922 1 0.10860 301825.392000
17921 17923 1 0.13986 296436.400000
17923 17924 1 0.10860 301825.392000
17923 17925 1 0.13986 296436.400000
17925 17926 1 0.10860 301825.392000
17927 17928 1 0.09450 207108.000000
17929 17930 1 0.10860 301825.392000
17930 17931 1 0.13986 296436.400000
17930 17939 1 0.13986 296436.400000
17931 17932 1 0.18850 35430.112000
17931 17933 1 0.13986 296436.400000
17932 17941 1 0.16500 119244.000000
17933 17934 1 0.10860 301825.392000
17933 17935 1 0.13986 296436.400000
17935 17936 1 0.10860 301825.392000
17935 17937 1 0.13986 296436.400000
17937 17938 1 0.10860 301825.392000
17937 17939 1 0.13986 296436.400000
17939 17940 1 0.10860 301825.392000
17941 17942 1 0.09450 207108.000000
17943 17944 1 0.10860 301825.392000
17944 17945 1 0.13986 296436.400000
17944 17953 1 0.13986 296436.400000
17945 17946 1 0.18850 35430.112000
17945 17947 1 0.13986 296436.400000
17946 17955 1 0.16500 119244.000000
17947 17948 1 0.10860 301825.392000
17947 17949 1 0.13986 296436.400000
17949 17950 1 0.10860 301825.392000
17949 17951 1 0.13986 296436.400000
17951 17952 1 0.10860 301825.392000
17951 17953 1 0.13986 296436.400000
17953 17954 1 0.10860 301825.392000
17955 17956 1 0.09450 207108.000000
17957 17958 1 0.10860 301825.392000
17958 17959 1 0.13986 296436.400000
17958 17967 1 0.13986 296436.400000
17959 17960 1 0.18850 35430.112000
17959 17961 1 0.13986 296436.400000
17960 17969 1 0.16500 119244.000000
17961 17962 1 0.10860 301825.392000
17961 17963 1 0.13986 296436.400000
17963 17964 1 0.10860 301825.392000
17963 17965 1 0.13986 296436.400000
17965 17966 1 0.10860 301825.392000
17965 17967 1 0.13986 296436.400000
17967 17968 1 0.10860 301825.392000
17969 17970 1 0.09450 207108.000000
17971 17972 1 0.10860 301825.392000
17972 17973 1 0.13986 296436.400000
17972 17981 1 0.13986 296436.400000
17973 17974 1 0.18850 35430.112000
17973 17975 1 0.13986 296436.400000
17974 17983 1 0.16500 119244.000000
17975 17976 1 0.10860 301825.392000
17975 17977 1 0.13986 296436.400000
17977 17978 1 0.10860 301825.392000
17977 17979 1 0.13986 296436.400000
17979 17980 1 0.10860 301825.392000
17979 17981 1 0.13986 296436.400000
17981 17982 1 0.10860 301825.392000
17983 17984 1 0.09450 207108.000000
17985 17986 1 0.10860 301825.392000
17986 17987 1 0.13986 296436.400000
17986 17995 1 0.13986 296436.400000
17987 17988 1 0.18850 35430.112000
17987 17989 1 0.13986 296436.400000
17988 17997 1 0.16500 119244.000000
17989 17990 1 0.10860 301825.392000
17989 17991 1 0.13986 296436.400000
17991 17992 1 0.10860 301825.392000
17991 17993 1 0.13986 296436.400000
17993 17994 1 0.10860 301825.392000
17993 17995 1 0.13986 296436.400000
17995 17996 1 0.10860 301825.392000
17997 17998 1 0.09450 207108.000000
17999 18000 1 0.10860 301825.392000
18000 18001 1 0.13986 296436.400000
18000 18009 1 0.13986 296436.400000
18001 18002 1 0.18850 35430.112000
18001 18003 1 0.13986 296436.400000
18002 18011 1 0.16500 119244.000000
18003 18004 1 0.10860 301825.392000
18003 18005 1 0.13986 296436.400000
18005 18006 1 0.10860 301825.392000
18005 18007 1 0.13986 296436.400000
18007 18008 1 0.10860 301825.392000
18007 18009 1 0.13986 296436.400000
18009 18010 1 0.10860 301825.392000
18011 18012 1 0.09450 207108.000000
18013 18014 1 0.10860 301825.392000
18014 18015 1 0.13986 296436.400000
18014 18023 1 0.13986 296436.400000
18015 18016 1 0.18850 35430.112000
18015 18017 1 0.13986 296436.400000
18016 18025 1 0.16500 119244.000000
18017 18018 1 0.10860 301825.392000
18017 18019 1 0.13986 296436.400000
18019 18020 1 0.10860 301825.392000
18019 18021 1 0.13986 296436.400000
18021 18022 1 0.10860 301825.392000
18021 18023 1 0.13986 296436.400000
18023 18024 1 0.10860 301825.392000
18025 18026 1 0.09450 207108.000000
18027 18028 1 0.10860 301825.392000
18028 18029 1 0.13986 296436.400000
18028 18037 1 0.13986 296436.400000
18029 18030 1 0.18850 35430.112000
18029 18031 1 0.13986 296436.400000
18030 18039 1 0.16500 119244.000000
18031 18032 1 0.10860 301825.392000
18031 18033 1 0.13986 296436.400000
18033 18034 1 0.10860 301825.392000
18033 18035 1 0.13986 296436.400000
18035 18036 1 0.10860 301825.392000
18035 18037 1 0.13986 296436.400000
18037 18038 1 0.10860 301825.392000
18039 18040 1 0.09450 207108.000000
18041 18042 1 0.10860 301825.392000
18042 18043 1 0.13986 296436.400000
18042 18051 1 0.13986 296436.400000
18043 18044 1 0.18850 35430.112000
18043 18045 1 0.13986 296436.400000
18044 18053 1 0.16500 119244.000000
18045 18046 1 0.10860 301825.392000
18045 18047 1 0.13986 296436.400000
18047 18048 1 0.10860 301825.392000
18047 18049 1 0.13986 296436.400000
18049 18050 1 0.10860 301825.392000
18049 18051 1 0.13986 296436.400000
18051 18052 1 0.10860 301825.392000
18053 18054 1 0.09450 207108.000000
18055 18056 1 0.10860 301825.392000
18056 18057 1 0.13986 296436.400000
18056 18065 1 0.13986 296436.400000
18057 18058 1 0.18850 35430.112000
18057 18059 1 0.13986 296436.400000
18058 18067 1 0.16500 119244.000000
18059 18060 1 0.10860 301825.392000
18059 18061 1 0.13986 296436.400000
18061 18062 1 0.10860 301825.392000
18061 18063 1 0.13986 296436.400000
18063 18064 1 0.10860 301825.392000
18063 18065 1 0.13986 296436.400000
18065 18066 1 0.10860 301825.392000
18067 18068 1 0.09450 207108.000000
18069 18070 1 0.10860 301825.392000
18070 18071 1 0.13986 296436.400000
18070 18079 1 0.13986 296436.400000
18071 18072 1 0.18850 35430.112000
18071 18073 1 0.13986 296436.400000
18072 18081 1 0.16500 119244.000000
18073 18074 1 0.10860 301825.392000
18073 18075 1 0.13986 296436.400000
18075 18076 1 0.10860 301825.392000
18075 18077 1 0.13986 296436.400000
18077 18078 1 0.10860 301825.392000
18077 18079 1 0.13986 296436.400000
18079 18080 1 0.10860 301825.392000
18081 18082 1 0.09450 207108.000000
18083 18084 1 0.10860 301825.392000
18084 18085 1 0.13986 296436.400000
18084 18093 1 0.13986 296436.400000
18085 18086 1 0.18850 35430.112000
18085 18087 1 0.13986 296436.400000
18086 18095 1 0.16500 119244.000000
18087 18088 1 0.10860 301825.392000
18087 18089 1 0.13986 296436.400000
18089 18090 1 0.10860 301825.392000
18089 18091 1 0.13986 296436.400000
18091 18092 1 0.10860 301825.392000
18091 18093 1 0.13986 296436.400000
18093 18094 1 0.10860 301825.392000
18095 18096 1 0.09450 207108.000000
18097 18098 1 0.10860 301825.392000
18098 18099 1 0.13986 296436.400000
18098 18107 1 0.13986 296436.400000
18099 18100 1 0.18850 35430.112000
18099 18101 1 0.13986 296436.400000
18100 18109 1 0.16500 119244.000000
18101 18102 1 0.10860 301825.392000
18101 18103 1 0.13986 296436.400000
18103 18104 1 0.10860 301825.392000
18103 18105 1 0.13986 296436.400000
18105 18106 1 0.10860 301825.392000
18105 18107 1 0.13986 296436.400000
18107 18108 1 0.10860 301825.392000
18109 18110 1 0.09450 207108.000000
18111 18112 1 0.10860 301825.392000
18112 18113 1 0.13986 296436.400000
18112 18121 1 0.13986 296436.400000
18113 18114 1 0.18850 35430.112000
18113 18115 1 0.13986 296436.400000
18114 18123 1 0.16500 119244.000000
18115 18116 1 0.10860 301825.392000
18115 18117 1 0.13986 296436.400000
18117 18118 1 0.10860 301825.392000
18117 18119 1 0.13986 296436.400000
18119 18120 1 0.10860 301825.392000
18119 18121 1 0.13986 296436.400000
18121 18122 1 0.10860 301825.392000
18123 18124 1 0.09450 207108.000000
18125 18126 1 0.10860 301825.392000
18126 18127 1 0.13986 296436.400000
18126 18135 1 0.13986 296436.400000
18127 18128 1 0.18850 35430.112000
18127 18129 1 0.13986 296436.400000
18128 18137 1 0.16500 119244.000000
18129 18130 1 0.10860 301825.392000
18129 18131 1 0.13986 296436.400000
18131 18132 1 0.10860 301825.392000
18131 18133 1 0.13986 296436.400000
18133 18134 1 0.10860 301825.392000
18133 18135 1 0.13986 296436.400000
18135 18136 1 0.10860 301825.392000
18137 18138 1 0.09450 207108.000000
18139 18140 1 0.10860 301825.392000
18140 18141 1 0.13986 296436.400000
18140 18149 1 0.13986 296436.400000
18141 18142 1 0.18850 35430.112000
18141 18143 1 0.13986 296436.400000
18142 18151 1 0.16500 119244.000000
18143 18144 1 0.10860 301825.392000
18143 18145 1 0.13986 296436.400000
18145 18146 1 0.10860 301825.392000
18145 18147 1 0.13986 296436.400000
18147 18148 1 0.10860 301825.392000
18147 18149 1 0.13986 296436.400000
18149 18150 1 0.10860 301825.392000
18151 18152 1 0.09450 207108.000000
18153 18154 1 0.10860 301825.392000
18154 18155 1 0.13986 296436.400000
18154 18163 1 0.13986 296436.400000
18155 18156 1 0.18850 35430.112000
18155 18157 1 0.13986 296436.400000
18156 18165 1 0.16500 119244.000000
18157 18158 1 0.10860 301825.392000
18157 18159 1 0.13986 296436.400000
18159 18160 1 0.10860 301825.392000
18159 18161 1 0.13986 296436.400000
18161 18162 1 0.10860 301825.392000
18161 18163 1 0.13986 296436.400000
18163 18164 1 0.10860 301825.392000
18165 18166 1 0.09450 207108.000000
18167 18168 1 0.10860 301825.392000
18168 18169 1 0.13986 296436.400000
18168 18177 1 0.13986 296436.400000
18169 18170 1 0.18850 35430.112000
18169 18171 1 0.13986 296436.400000
18170 18179 1 0.16500 119244.000000
18171 18172 1 0.10860 301825.392000
18171 18173 1 0.13986 296436.400000
18173 18174 1 0.10860 301825.392000
18173 18175 1 0.13986 296436.400000
18175 18176 1 0.10860 301825.392000
18175 18177 1 0.13986 296436.400000
18177 18178 1 0.10860 301825.392000
18179 18180 1 0.09450 207108.000000
18181 18182 1 0.10860 301825.392000
18182 18183 1 0.13986 296436.400000
18182 18191 1 0.13986 296436.400000
18183 18184 1 0.18850 35430.112000
18183 18185 1 0.13986 296436.400000
18184 18193 1 0.16500 119244.000000
18185 18186 1 0.10860 301825.392000
18185 18187 1 0.13986 296436.400000
18187 18188 1 0.10860 301825.392000
18187 18189 1 0.13986 296436.400000
18189 18190 1 0.10860 301825.392000
18189 18191 1 0.13986 296436.400000
18191 18192 1 0.10860 301825.392000
18193 18194 1 0.09450 207108.000000
18195 18196 1 0.10860 301825.392000
18196 18197 1 0.13986 296436.400000
18196 18205 1 0.13986 296436.400000
18197 18198 1 0.18850 35430.112000
18197 18199 1 0.13986 296436.400000
18198 18207 1 0.16500 119244.000000
18199 18200 1 0.10860 301825.392000
18199 18201 1 0.13986 296436.400000
18201 18202 1 0.10860 301825.392000
18201 18203 1 0.13986 296436.400000
18203 18204 1 0.10860 301825.392000
18203 18205 1 0.13986 296436.400000
18205 18206 1 0.10860 301825.392000
18207 18208 1 0.09450 207108.000000
18209 18210 1 0.10860 301825.392000
18210 18211 1 0.13986 296436.400000
18210 18219 1 0.13986 296436.400000
18211 18212 1 0.18850 35430.112000
18211 18213 1 0.13986 296436.400000
18212 18221 1 0.16500 119244.000000
18213 18214 1 0.10860 301825.392000
18213 18215 1 0.13986 296436.400000
18215 18216 1 0.10860 301825.392000
18215 18217 1 0.13986 296436.400000
18217 18218 1 0.10860 301825.392000
18217 18219 1 0.13986 296436.400000
18219 18220 1 0.10860 301825.392000
18221 18222 1 0.09450 207108.000000
18223 18224 1 0.10860 301825.392000
18224 18225 1 0.13986 296436.400000
18224 18233 1 0.13986 296436.400000
18225 18226 1 0.18850 35430.112000
18225 18227 1 0.13986 296436.400000
18226 18235 1 0.16500 119244.000000
18227 18228 1 0.10860 301825.392000
18227 18229 1 0.13986 296436.400000
18229 18230 1 0.10860 301825.392000
18229 18231 1 0.13986 296436.400000
18231 18232 1 0.10860 301825.392000
18231 18233 1 0.13986 296436.400000
18233 18234 1 0.10860 301825.392000
18235 18236 1 0.09450 207108.000000
18237 18238 1 0.10860 301825.392000
18238 18239 1 0.13986 296436.400000
18238 18247 1 0.13986 296436.400000
18239 18240 1 0.18850 35430.112000
18239 18241 1 0.13986 296436.400000
18240 18249 1 0.16500 119244.000000
18241 18242 1 0.10860 301825.392000
18241 18243 1 0.13986 296436.400000
18243 18244 1 0.10860 301825.392000
18243 18245 1 0.13986 296436.400000
18245 18246 1 0.10860 301825.392000
18245 18247 1 0.13986 296436.400000
18247 18248 1 0.10860 301825.392000
18249 18250 1 0.09450 207108.000000
18251 18252 1 0.10860 301825.392000
18252 18253 1 0.13986 296436.400000
18252 18261 1 0.13986 296436.400000
18253 18254 1 0.18850 35430.112000
18253 18255 1 0.13986 296436.400000
18254 18263 1 0.16500 119244.000000
18255 18256 1 0.10860 301825.392000
18255 18257 1 0.13986 296436.400000
18257 18258 1 0.10860 301825.392000
18257 18259 1 0.13986 296436.400000
18259 18260 1 0.10860 301825.392000
18259 18261 1 0.13986 296436.400000
18261 18262 1 0.10860 301825.392000
18263 18264 1 0.09450 207108.000000
18265 18266 1 0.10860 301825.392000
18266 18267 1 0.13986 296436.400000
18266 18275 1 0.13986 296436.400000
18267 18268 1 0.18850 35430.112000
18267 18269 1 0.13986 296436.400000
18268 18277 1 0.16500 119244.000000
18269 18270 1 0.10860 301825.392000
18269 18271 1 0.13986 296436.400000
18271 18272 1 0.10860 301825.392000
18271 18273 1 0.13986 296436.400000
18273 18274 1 0.10860 301825.392000
18273 18275 1 0.13986 296436.400000
18275 18276 1 0.10860 301825.392000
18277 18278 1 0.09450 207108.000000
18279 18280 1 0.10860 301825.392000
18280 18281 1 0.13986 296436.400000
18280 18289 1 0.13986 296436.400000
18281 18282 1 0.18850 35430.112000
18281 18283 1 0.13986 296436.400000
18282 18291 1 0.16500 119244.000000
18283 18284 1 0.10860 301825.392000
18283 18285 1 0.13986 296436.400000
18285 18286 1 0.10860 301825.392000
18285 18287 1 0.13986 296436.400000
18287 18288 1 0.10860 301825.392000
18287 18289 1 0.13986 296436.400000
18289 18290 1 0.10860 301825.392000
18291 18292 1 0.09450 207108.000000
18293 18294 1 0.10860 301825.392000
18294 18295 1 0.13986 296436.400000
18294 18303 1 0.13986 296436.400000
18295 18296 1 0.18850 35430.112000
18295 18297 1 0.13986 296436.400000
18296 18305 1 0.16500 119244.000000
18297 18298 1 0.10860 301825.392000
18297 18299 1 0.13986 296436.400000
18299 18300 1 0.10860 301825.392000
18299 18301 1 0.13986 296436.400000
18301 18302 1 0.10860 301825.392000
18301 18303 1 0.13986 296436.400000
18303 18304 1 0.10860 301825.392000
18305 18306 1 0.09450 207108.000000
18307 18308 1 0.10860 301825.392000
18308 18309 1 0.13986 296436.400000
18308 18317 1 0.13986 296436.400000
18309 18310 1 0.18850 35430.112000
18309 18311 1 0.13986 296436.400000
18310 18319 1 0.16500 119244.000000
18311 18312 1 0.10860 301825.392000
18311 18313 1 0.13986 296436.400000
18313 18314 1 0.10860 301825.392000
18313 18315 1 0.13986 296436.400000
18315 18316 1 0.10860 301825.392000
18315 18317 1 0.13986 296436.400000
18317 18318 1 0.10860 301825.392000
18319 18320 1 0.09450 207108.000000
18321 18322 1 0.10860 301825.392000
18322 18323 1 0.13986 296436.400000
18322 18331 1 0.13986 296436.400000
18323 18324 1 0.18850 35430.112000
18323 18325 1 0.13986 296436.400000
18324 18333 1 0.16500 119244.000000
18325 18326 1 0.10860 301825.392000
18325 18327 1 0.13986 296436.400000
18327 18328 1 0.10860 301825.392000
18327 18329 1 0.13986 296436.400000
18329 18330 1 0.10860 301825.392000
18329 18331 1 0.13986 296436.400000
18331 18332 1 0.10860 301825.392000
18333 18334 1 0.09450 207108.000000
18335 18336 1 0.10860 301825.392000
18336 18337 1 0.13986 296436.400000
18336 18345 1 0.13986 296436.400000
18337 18338 1 0.18850 35430.112000
18337 18339 1 0.13986 296436.400000
18338 18347 1 0.16500 119244.000000
18339 18340 1 0.10860 301825.392000
18339 18341 1 0.13986 296436.400000
18341 18342 1 0.10860 301825.392000
18341 18343 1 0.13986 296436.400000
18343 18344 1 0.10860 301825.392000
18343 18345 1 0.13986 296436.400000
18345 18346 1 0.10860 301825.392000
18347 18348 1 0.09450 207108.000000
18349 18350 1 0.10860 301825.392000
18350 18351 1 0.13986 296436.400000
18350 18359 1 0.13986 296436.400000
18351 18352 1 0.18850 35430.112000
18351 18353 1 0.13986 296436.400000
18352 18361 1 0.16500 119244.000000
18353 18354 1 0.10860 301825.392000
18353 18355 1 0.13986 296436.400000
18355 18356 1 0.10860 301825.392000
18355 18357 1 0.13986 296436.400000
18357 18358 1 0.10860 301825.392000
18357 18359 1 0.13986 296436.400000
18359 18360 1 0.10860 301825.392000
18361 18362 1 0.09450 207108.000000
18363 18364 1 0.10860 301825.392000
18364 18365 1 0.13986 296436.400000
18364 18373 1 0.13986 296436.400000
18365 18366 1 0.18850 35430.112000
18365 18367 1 0.13986 296436.400000
18366 18375 1 0.16500 119244.000000
18367 18368 1 0.10860 301825.392000
18367 18369 1 0.13986 296436.400000
18369 18370 1 0.10860 301825.392000
18369 18371 1 0.13986 296436.400000
18371 18372 1 0.10860 301825.392000
18371 18373 1 0.13986 296436.400000
18373 18374 1 0.10860 301825.392000
18375 18376 1 0.09450 207108.000000
18377 18378 1 0.10860 301825.392000
18378 18379 1 0.13986 296436.400000
18378 18387 1 0.13986 296436.400000
18379 18380 1 0.18850 35430.112000
18379 18381 1 0.13986 296436.400000
18380 18389 1 0.16500 119244.000000
18381 18382 1 0.10860 301825.392000
18381 18383 1 0.13986 296436.400000
18383 18384 1 0.10860 301825.392000
18383 18385 1 0.13986 296436.400000
18385 18386 1 0.10860 301825.392000
18385 18387 1 0.13986 296436.400000
18387 18388 1 0.10860 301825.392000
18389 18390 1 0.09450 207108.000000
18391 18392 1 0.10860 301825.392000
18392 18393 1 0.13986 296436.400000
18392 18401 1 0.13986 296436.400000
18393 18394 1 0.18850 35430.112000
18393 18395 1 0.13986 296436.400000
18395 18396 1 0.10860 301825.392000
18395 18397 1 0.13986 296436.400000
18397 18398 1 0.10860 301825.392000
18397 18399 1 0.13986 296436.400000
18399 18400 1 0.10860 301825.392000
18399 18401 1 0.13986 296436.400000
18401 18402 1 0.10860 301825.392000
18403 18404 1 0.10860 301825.392000
18404 18405 1 0.13986 296436.400000
18404 18413 1 0.13986 296436.400000
18405 18406 1 0.18850 35430.112000
18405 18407 1 0.13986 296436.400000
18407 18408 1 0.10860 301825.392000
18407 18409 1 0.13986 296436.400000
18409 18410 1 0.10860 301825.392000
18409 18411 1 0.13986 296436.400000
18411 18412 1 0.10860 301825.392000
18411 18413 1 0.13986 296436.400000
18413 18414 1 0.10860 301825.392000
18415 18416 1 0.10860 301825.392000
18416 18417 1 0.13986 296436.400000
18416 18425 1 0.13986 296436.400000
18417 18418 1 0.18850 35430.112000
18417 18419 1 0.13986 296436.400000
18419 18420 1 0.10860 301825.392000
18419 18421 1 0.13986 296436.400000
18421 18422 1 0.10860 301825.392000
18421 18423 1 0.13986 296436.400000
18423 18424 1 0.10860 301825.392000
18423 18425 1 0.13986 296436.400000
18425 18426 1 0.10860 301825.392000
18427 18428 1 0.10860 301825.392000
18428 18429 1 0.13986 296436.400000
18428 18437 1 0.13986 296436.400000
18429 18430 1 0.18850 35430.112000
18429 18431 1 0.13986 296436.400000
18431 18432 1 0.10860 301825.392000
18431 18433 1 0.13986 296436.400000
18433 18434 1 0.10860 301825.392000
18433 18435 1 0.13986 296436.400000
18435 18436 1 0.10860 301825.392000
18435 18437 1 0.13986 296436.400000
18437 18438 1 0.10860 301825.392000
18439 18440 1 0.10860 301825.392000
18440 18441 1 0.13986 296436.400000
18440 18449 1 0.13986 296436.400000
18441 18442 1 0.18850 35430.112000
18441 18443 1 0.13986 296436.400000
18443 18444 1 0.10860 301825.392000
18443 18445 1 0.13986 296436.400000
18445 18446 1 0.10860 301825.392000
18445 18447 1 0.13986 296436.400000
18447 18448 1 0.10860 301825.392000
18447 18449 1 0.13986 296436.400000
18449 18450 1 0.10860 301825.392000
18451 18452 1 0.10860 301825.392000
18452 18453 1 0.13986 296436.400000
18452 18461 1 0.13986 296436.400000
18453 18454 1 0.18850 35430.112000
18453 18455 1 0.13986 296436.400000
18455 18456 1 0.10860 301825.392000
18455 18457 1 0.13986 296436.400000
18457 18458 1 0.10860 301825.392000
18457 18459 1 0.13986 296436.400000
18459 18460 1 0.10860 301825.392000
18459 18461 1 0.13986 296436.400000
18461 18462 1 0.10860 301825.392000
18463 18464 1 0.10860 301825.392000
18464 18465 1 0.13986 296436.400000
18464 18473 1 0.13986 296436.400000
18465 18466 1 0.18850 35430.112000
18465 18467 1 0.13986 296436.400000
18467 18468 1 0.10860 301825.392000
18467 18469 1 0.13986 296436.400000
18469 18470 1 0.10860 301825.392000
18469 18471 1 0.13986 296436.400000
18471 18472 1 0.10860 301825.392000
18471 18473 1 0.13986 296436.400000
18473 18474 1 0.10860 301825.392000
18475 18476 1 0.10860 301825.392000
18476 18477 1 0.13986 296436.400000
18476 18485 1 0.13986 296436.400000
18477 18478 1 0.18850 35430.112000
18477 18479 1 0.13986 296436.400000
18479 18480 1 0.10860 301825.392000
18479 18481 1 0.13986 296436.400000
18481 18482 1 0.10860 301825.392000
18481 18483 1 0.13986 296436.400000
18483 18484 1 0.10860 301825.392000
18483 18485 1 0.13986 296436.400000
18485 18486 1 0.10860 301825.392000
18487 18488 1 0.10860 301825.392000
18488 18489 1 0.13986 296436.400000
18488 18497 1 0.13986 296436.400000
18489 18490 1 0.18850 35430.112000
18489 18491 1 0.13986 296436.400000
18491 18492 1 0.10860 301825.392000
18491 18493 1 0.13986 296436.400000
18493 18494 1 0.10860 301825.392000
18493 18495 1 0.13986 296436.400000
18495 18496 1 0.10860 301825.392000
18495 18497 1 0.13986 296436.400000
18497 18498 1 0.10860 301825.392000
18499 18500 1 0.10860 301825.392000
18500 18501 1 0.13986 296436.400000
18500 18509 1 0.13986 296436.400000
18501 18502 1 0.18850 35430.112000
18501 18503 1 0.13986 296436.400000
18503 18504 1 0.10860 301825.392000
18503 18505 1 0.13986 296436.400000
18505 18506 1 0.10860 301825.392000
18505 18507 1 0.13986 296436.400000
18507 18508 1 0.10860 301825.392000
18507 18509 1 0.13986 296436.400000
18509 18510 1 0.10860 301825.392000
18511 18512 1 0.10860 301825.392000
18512 18513 1 0.13986 296436.400000
18512 18521 1 0.13986 296436.400000
18513 18514 1 0.18850 35430.112000
18513 18515 1 0.13986 296436.400000
18515 18516 1 0.10860 301825.392000
18515 18517 1 0.13986 296436.400000
18517 18518 1 0.10860 301825.392000
18517 18519 1 0.13986 296436.400000
18519 18520 1 0.10860 301825.392000
18519 18521 1 0.13986 296436.400000
18521 18522 1 0.10860 301825.392000
18523 18524 1 0.10860 301825.392000
18524 18525 1 0.13986 296436.400000
18524 18533 1 0.13986 296436.400000
18525 18526 1 0.18850 35430.112000
18525 18527 1 0.13986 296436.400000
18527 18528 1 0.10860 301825.392000
18527 18529 1 0.13986 296436.400000
18529 18530 1 0.10860 301825.392000
18529 18531 1 0.13986 296436.400000
18531 18532 1 0.10860 301825.392000
18531 18533 1 0.13986 296436.400000
18533 18534 1 0.10860 301825.392000
18535 18536 1 0.10860 301825.392000
18536 18537 1 0.13986 296436.400000
18536 18545 1 0.13986 296436.400000
18537 18538 1 0.18850 35430.112000
18537 18539 1 0.13986 296436.400000
18539 18540 1 0.10860 301825.392000
18539 18541 1 0.13986 296436.400000
18541 18542 1 0.10860 301825.392000
18541 18543 1 0.13986 296436.400000
18543 18544 1 0.10860 301825.392000
18543 18545 1 0.13986 296436.400000
18545 18546 1 0.10860 301825.392000
18547 18548 1 0.10860 301825.392000
18548 18549 1 0.13986 296436.400000
18548 18557 1 0.13986 296436.400000
18549 18550 1 0.18850 35430.112000
18549 18551 1 0.13986 296436.400000
18551 18552 1 0.10860 301825.392000
18551 18553 1 0.13986 296436.400000
18553 18554 1 0.10860 301825.392000
18553 18555 1 0.13986 296436.400000
18555 18556 1 0.10860 301825.392000
18555 18557 1 0.13986 296436.400000
18557 18558 1 0.10860 301825.392000
18559 18560 1 0.10860 301825.392000
18560 18561 1 0.13986 296436.400000
18560 18569 1 0.13986 296436.400000
18561 18562 1 0.18850 35430.112000
18561 18563 1 0.13986 296436.400000
18563 18564 1 0.10860 301825.392000
18563 18565 1 0.13986 296436.400000
18565 18566 1 0.10860 301825.392000
18565 18567 1 0.13986 296436.400000
18567 18568 1 0.10860 301825.392000
18567 18569 1 0.13986 296436.400000
18569 18570 1 0.10860 301825.392000
18571 18572 1 0.10860 301825.392000
18572 18573 1 0.13986 296436.400000
18572 18581 1 0.13986 296436.400000
18573 18574 1 0.18850 35430.112000
18573 18575 1 0.13986 296436.400000
18575 18576 1 0.10860 301825.392000
18575 18577 1 0.13986 296436.400000
18577 18578 1 0.10860 301825.392000
18577 18579 1 0.13986 296436.400000
18579 18580 1 0.10860 301825.392000
18579 18581 1 0.13986 296436.400000
18581 18582 1 0.10860 301825.392000
18583 18584 1 0.10860 301825.392000
18584 18585 1 0.13986 296436.400000
18584 18593 1 0.13986 296436.400000
18585 18586 1 0.18850 35430.112000
18585 18587 1 0.13986 296436.400000
18587 18588 1 0.10860 301825.392000
18587 18589 1 0.13986 296436.400000
18589 18590 1 0.10860 301825.392000
18589 18591 1 0.13986 296436.400000
18591 18592 1 0.10860 301825.392000
18591 18593 1 0.13986 296436.400000
18593 18594 1 0.10860 301825.392000
18595 18596 1 0.10860 301825.392000
18596 18597 1 0.13986 296436.400000
18596 18605 1 0.13986 296436.400000
18597 18598 1 0.18850 35430.112000
18597 18599 1 0.13986 296436.400000
18599 18600 1 0.10860 301825.392000
18599 18601 1 0.13986 296436.400000
18601 18602 1 0.10860 301825.392000
18601 18603 1 0.13986 296436.400000
18603 18604 1 0.10860 301825.392000
18603 18605 1 0.13986 296436.400000
18605 18606 1 0.10860 301825.392000
18607 18608 1 0.10860 301825.392000
18608 18609 1 0.13986 296436.400000
18608 18617 1 0.13986 296436.400000
18609 18610 1 0.18850 35430.112000
18609 18611 1 0.13986 296436.400000
18611 18612 1 0.10860 301825.392000
18611 18613 1 0.13986 296436.400000
18613 18614 1 0.10860 301825.392000
18613 18615 1 0.13986 296436.400000
18615 18616 1 0.10860 301825.392000
18615 18617 1 0.13986 296436.400000
18617 18618 1 0.10860 301825.392000
18619 18620 1 0.10860 301825.392000
18620 18621 1 0.13986 296436.400000
18620 18629 1 0.13986 296436.400000
18621 18622 1 0.18850 35430.112000
18621 18623 1 0.13986 296436.400000
18623 18624 1 0.10860 301825.392000
18623 18625 1 0.13986 296436.400000
18625 18626 1 0.10860 301825.392000
18625 18627 1 0.13986 296436.400000
18627 18628 1 0.10860 301825.392000
18627 18629 1 0.13986 296436.400000
18629 18630 1 0.10860 301825.392000
18631 18632 1 0.10860 301825.392000
18632 18633 1 0.13986 296436.400000
18632 18641 1 0.13986 296436.400000
18633 18634 1 0.18850 35430.112000
18633 18635 1 0.13986 296436.400000
18635 18636 1 0.10860 301825.392000
18635 18637 1 0.13986 296436.400000
18637 18638 1 0.10860 301825.392000
18637 18639 1 0.13986 296436.400000
18639 18640 1 0.10860 301825.392000
18639 18641 1 0.13986 296436.400000
18641 18642 1 0.10860 301825.392000
18643 18644 1 0.10860 301825.392000
18644 18645 1 0.13986 296436.400000
18644 18653 1 0.13986 296436.400000
18645 18646 1 0.18850 35430.112000
18645 18647 1 0.13986 296436.400000
18647 18648 1 0.10860 301825.392000
18647 18649 1 0.13986 296436.400000
18649 18650 1 0.10860 301825.392000
18649 18651 1 0.13986 296436.400000
18651 18652 1 0.10860 301825.392000
18651 18653 1 0.13986 296436.400000
18653 18654 1 0.10860 301825.392000
18655 18656 1 0.10860 301825.392000
18656 18657 1 0.13986 296436.400000
18656 18665 1 0.13986 296436.400000
18657 18658 1 0.18850 35430.112000
18657 18659 1 0.13986 296436.400000
18659 18660 1 0.10860 301825.392000
18659 18661 1 0.13986 296436.400000
18661 18662 1 0.10860 301825.392000
18661 18663 1 0.13986 296436.400000
18663 18664 1 0.10860 301825.392000
18663 18665 1 0.13986 296436.400000
18665 18666 1 0.10860 301825.392000
18667 18668 1 0.10860 301825.392000
18668 18669 1 0.13986 296436.400000
18668 18677 1 0.13986 296436.400000
18669 18670 1 0.18850 35430.112000
18669 18671 1 0.13986 296436.400000
18671 18672 1 0.10860 301825.392000
18671 18673 1 0.13986 296436.400000
18673 18674 1 0.10860 301825.392000
18673 18675 1 0.13986 296436.400000
18675 18676 1 0.10860 301825.392000
18675 18677 1 0.13986 296436.400000
18677 18678 1 0.10860 301825.392000
18679 18680 1 0.10860 301825.392000
18680 18681 1 0.13986 296436.400000
18680 18689 1 0.13986 296436.400000
18681 18682 1 0.18850 35430.112000
18681 18683 1 0.13986 296436.400000
18683 18684 1 0.10860 301825.392000
18683 18685 1 0.13986 296436.400000
18685 18686 1 0.10860 301825.392000
18685 18687 1 0.13986 296436.400000
18687 18688 1 0.10860 301825.392000
18687 18689 1 0.13986 296436.400000
18689 18690 1 0.10860 301825.392000
18691 18692 1 0.10860 301825.392000
18692 18693 1 0.13986 296436.400000
18692 18701 1 0.13986 296436.400000
18693 18694 1 0.18850 35430.112000
18693 18695 1 0.13986 296436.400000
18695 18696 1 0.10860 301825.392000
18695 18697 1 0.13986 296436.400000
18697 18698 1 0.10860 301825.392000
18697 18699 1 0.13986 296436.400000
18699 18700 1 0.10860 301825.392000
18699 18701 1 0.13986 296436.400000
18701 18702 1 0.10860 301825.392000
18703 18704 1 0.10860 301825.392000
18704 18705 1 0.13986 296436.400000
18704 18713 1 0.13986 296436.400000
18705 18706 1 0.18850 35430.112000
18705 18707 1 0.13986 296436.400000
18707 18708 1 0.10860 301825.392000
18707 18709 1 0.13986 296436.400000
18709 18710 1 0.10860 301825.392000
18709 18711 1 0.13986 296436.400000
18711 18712 1 0.10860 301825.392000
18711 18713 1 0.13986 296436.400000
18713 18714 1 0.10860 301825.392000
18715 18716 1 0.10860 301825.392000
18716 18717 1 0.13986 296436.400000
18716 18725 1 0.13986 296436.400000
18717 18718 1 0.18850 35430.112000
18717 18719 1 0.13986 296436.400000
18719 18720 1 0.10860 301825.392000
18719 18721 1 0.13986 296436.400000
18721 18722 1 0.10860 301825.392000
18721 18723 1 0.13986 296436.400000
18723 18724 1 0.10860 301825.392000
18723 18725 1 0.13986 296436.400000
18725 18726 1 0.10860 301825.392000
18727 18728 1 0.10860 301825.392000
18728 18729 1 0.13986 296436.400000
18728 18737 1 0.13986 296436.400000
18729 18730 1 0.18850 35430.112000
18729 18731 1 0.13986 296436.400000
18731 18732 1 0.10860 301825.392000
18731 18733 1 0.13986 296436.400000
18733 18734 1 0.10860 301825.392000
18733 18735 1 0.13986 296436.400000
18735 18736 1 0.10860 301825.392000
18735 18737 1 0.13986 296436.400000
18737 18738 1 0.10860 301825.392000
18739 18740 1 0.10860 301825.392000
18740 18741 1 0.13986 296436.400000
18740 18749 1 0.13986 296436.400000
18741 18742 1 0.18850 35430.112000
18741 18743 1 0.13986 296436.400000
18743 18744 1 0.10860 301825.392000
18743 18745 1 0.13986 296436.400000
18745 18746 1 0.10860 301825.392000
18745 18747 1 0.13986 296436.400000
18747 18748 1 0.10860 301825.392000
18747 18749 1 0.13986 296436.400000
18749 18750 1 0.10860 301825.392000
18751 18752 1 0.10860 301825.392000
18752 18753 1 0.13986 296436.400000
18752 18761 1 0.13986 296436.400000
18753 18754 1 0.18850 35430.112000
18753 18755 1 0.13986 296436.400000
18755 18756 1 0.10860 301825.392000
18755 18757 1 0.13986 296436.400000
18757 18758 1 0.10860 301825.392000
18757 18759 1 0.13986 296436.400000
18759 18760 1 0.10860 301825.392000
18759 18761 1 0.13986 296436.400000
18761 18762 1 0.10860 301825.392000
18763 18764 1 0.10860 301825.392000
18764 18765 1 0.13986 296436.400000
18764 18773 1 0.13986 296436.400000
18765 18766 1 0.18850 35430.112000
18765 18767 1 0.13986 296436.400000
18767 18768 1 0.10860 301825.392000
18767 18769 1 0.13986 296436.400000
18769 18770 1 0.10860 301825.392000
18769 18771 1 0.13986 296436.400000
18771 18772 1 0.10860 301825.392000
18771 18773 1 0.13986 296436.400000
18773 18774 1 0.10860 301825.392000
18775 18776 1 0.10860 301825.392000
18776 18777 1 0.13986 296436.400000
18776 18785 1 0.13986 296436.400000
18777 18778 1 0.18850 35430.112000
18777 18779 1 0.13986 296436.400000
18779 18780 1 0.10860 301825.392000
18779 18781 1 0.13986 296436.400000
18781 18782 1 0.10860 301825.392000
18781 18783 1 0.13986 296436.400000
18783 18784 1 0.10860 301825.392000
18783 18785 1 0.13986 296436.400000
18785 18786 1 0.10860 301825.392000
18787 18788 1 0.10860 301825.392000
18788 18789 1 0.13986 296436.400000
18788 18797 1 0.13986 296436.400000
18789 18790 1 0.18850 35430.112000
18789 18791 1 0.13986 296436.400000
18791 18792 1 0.10860 301825.392000
18791 18793 1 0.13986 296436.400000
18793 18794 1 0.10860 301825.392000
18793 18795 1 0.13986 296436.400000
18795 18796 1 0.10860 301825.392000
18795 18797 1 0.13986 296436.400000
18797 18798 1 0.10860 301825.392000
18799 18800 1 0.10860 301825.392000
18800 18801 1 0.13986 296436.400000
18800 18809 1 0.13986 296436.400000
18801 18802 1 0.18850 35430.112000
18801 18803 1 0.13986 296436.400000
18803 18804 1 0.10860 301825.392000
18803 18805 1 0.13986 296436.400000
18805 18806 1 0.10860 301825.392000
18805 18807 1 0.13986 296436.400000
18807 18808 1 0.10860 301825.392000
18807 18809 1 0.13986 296436.400000
18809 18810 1 0.10860 301825.392000
18811 18812 1 0.10860 301825.392000
18812 18813 1 0.13986 296436.400000
18812 18821 1 0.13986 296436.400000
18813 18814 1 0.18850 35430.112000
18813 18815 1 0.13986 296436.400000
18815 18816 1 0.10860 301825.392000
18815 18817 1 0.13986 296436.400000
18817 18818 1 0.10860 301825.392000
18817 18819 1 0.13986 296436.400000
18819 18820 1 0.10860 301825.392000
18819 18821 1 0.13986 296436.400000
18821 18822 1 0.10860 301825.392000
18823 18824 1 0.10860 301825.392000
18824 18825 1 0.13986 296436.400000
18824 18833 1 0.13986 296436.400000
18825 18826 1 0.18850 35430.112000
18825 18827 1 0.13986 296436.400000
18827 18828 1 0.10860 301825.392000
18827 18829 1 0.13986 296436.400000
18829 18830 1 0.10860 301825.392000
18829 18831 1 0.13986 296436.400000
18831 18832 1 0.10860 301825.392000
18831 18833 1 0.13986 296436.400000
18833 18834 1 0.10860 301825.392000
18835 18836 1 0.10860 301825.392000
18836 18837 1 0.13986 296436.400000
18836 18845 1 0.13986 296436.400000
18837 18838 1 0.18850 35430.112000
18837 18839 1 0.13986 296436.400000
18839 18840 1 0.10860 301825.392000
18839 18841 1 0.13986 296436.400000
18841 18842 1 0.10860 301825.392000
18841 18843 1 0.13986 296436.400000
18843 18844 1 0.10860 301825.392000
18843 18845 1 0.13986 296436.400000
18845 18846 1 0.10860 301825.392000
18847 18848 1 0.10860 301825.392000
18848 18849 1 0.13986 296436.400000
18848 18857 1 0.13986 296436.400000
18849 18850 1 0.18850 35430.112000
18849 18851 1 0.13986 296436.400000
18851 18852 1 0.10860 301825.392000
18851 18853 1 0.13986 296436.400000
18853 18854 1 0.10860 301825.392000
18853 18855 1 0.13986 296436.400000
18855 18856 1 0.10860 301825.392000
18855 18857 1 0.13986 296436.400000
18857 18858 1 0.10860 301825.392000
18859 18860 1 0.10860 301825.392000
18860 18861 1 0.13986 296436.400000
18860 18869 1 0.13986 296436.400000
18861 18862 1 0.18850 35430.112000
18861 18863 1 0.13986 296436.400000
18863 18864 1 0.10860 301825.392000
18863 18865 1 0.13986 296436.400000
18865 18866 1 0.10860 301825.392000
18865 18867 1 0.13986 296436.400000
18867 18868 1 0.10860 301825.392000
18867 18869 1 0.13986 296436.400000
18869 18870 1 0.10860 301825.392000
18871 18872 1 0.10860 301825.392000
18872 18873 1 0.13986 296436.400000
18872 18881 1 0.13986 296436.400000
18873 18874 1 0.18850 35430.112000
18873 18875 1 0.13986 296436.400000
18875 18876 1 0.10860 301825.392000
18875 18877 1 0.13986 296436.400000
18877 18878 1 0.10860 301825.392000
18877 18879 1 0.13986 296436.400000
18879 18880 1 0.10860 301825.392000
18879 18881 1 0.13986 296436.400000
18881 18882 1 0.10860 301825.392000
18883 18884 1 0.10860 301825.392000
18884 18885 1 0.13986 296436.400000
18884 18893 1 0.13986 296436.400000
18885 18886 1 0.18850 35430.112000
18885 18887 1 0.13986 296436.400000
18887 18888 1 0.10860 301825.392000
18887 18889 1 0.13986 296436.400000
18889 18890 1 0.10860 301825.392000
18889 18891 1 0.13986 296436.400000
18891 18892 1 0.10860 301825.392000
18891 18893 1 0.13986 296436.400000
18893 18894 1 0.10860 301825.392000
18895 18896 1 0.10860 301825.392000
18896 18897 1 0.13986 296436.400000
18896 18905 1 0.13986 296436.400000
18897 18898 1 0.18850 35430.112000
18897 18899 1 0.13986 296436.400000
18899 18900 1 0.10860 301825.392000
18899 18901 1 0.13986 296436.400000
18901 18902 1 0.10860 301825.392000
18901 18903 1 0.13986 296436.400000
18903 18904 1 0.10860 301825.392000
18903 18905 1 0.13986 296436.400000
18905 18906 1 0.10860 301825.392000
18907 18908 1 0.10860 301825.392000
18908 18909 1 0.13986 296436.400000
18908 18917 1 0.13986 296436.400000
18909 18910 1 0.18850 35430.112000
18909 18911 1 0.13986 296436.400000
18911 18912 1 0.10860 301825.392000
18911 18913 1 0.13986 296436.400000
18913 18914 1 0.10860 301825.392000
18913 18915 1 0.13986 296436.400000
18915 18916 1 0.10860 301825.392000
18915 18917 1 0.13986 296436.400000
18917 18918 1 0.10860 301825.392000
18919 18920 1 0.10860 301825.392000
18920 18921 1 0.13986 296436.400000
18920 18929 1 0.13986 296436.400000
18921 18922 1 0.18850 35430.112000
18921 18923 1 0.13986 296436.400000
18923 18924 1 0.10860 301825.392000
18923 18925 1 0.13986 296436.400000
18925 18926 1 0.10860 301825.392000
18925 18927 1 0.13986 296436.400000
18927 18928 1 0.10860 301825.392000
18927 18929 1 0.13986 296436.400000
18929 18930 1 0.10860 301825.392000
18931 18932 1 0.10860 301825.392000
18932 18933 1 0.13986 296436.400000
18932 18941 1 0.13986 296436.400000
18933 18934 1 0.18850 35430.112000
18933 18935 1 0.13986 296436.400000
18935 18936 1 0.10860 301825.392000
18935 18937 1 0.13986 296436.400000
18937 18938 1 0.10860 301825.392000
18937 18939 1 0.13986 296436.400000
18939 18940 1 0.10860 301825.392000
18939 18941 1 0.13986 296436.400000
18941 18942 1 0.10860 301825.392000
18943 18944 1 0.10860 301825.392000
18944 18945 1 0.13986 296436.400000
18944 18953 1 0.13986 296436.400000
18945 18946 1 0.18850 35430.112000
18945 18947 1 0.13986 296436.400000
18947 18948 1 0.10860 301825.392000
18947 18949 1 0.13986 296436.400000
18949 18950 1 0.10860 301825.392000
18949 18951 1 0.13986 296436.400000
18951 18952 1 0.10860 301825.392000
18951 18953 1 0.13986 296436.400000
18953 18954 1 0.10860 301825.392000
18955 18956 1 0.10860 301825.392000
18956 18957 1 0.13986 296436.400000
18956 18965 1 0.13986 296436.400000
18957 18958 1 0.18850 35430.112000
18957 18959 1 0.13986 296436.400000
18959 18960 1 0.10860 301825.392000
18959 18961 1 0.13986 296436.400000
18961 18962 1 0.10860 301825.392000
18961 18963 1 0.13986 296436.400000
18963 18964 1 0.10860 301825.392000
18963 18965 1 0.13986 296436.400000
18965 18966 1 0.10860 301825.392000
18967 18968 1 0.10860 301825.392000
18968 18969 1 0.13986 296436.400000
18968 18977 1 0.13986 296436.400000
18969 18970 1 0.18850 35430.112000
18969 18971 1 0.13986 296436.400000
18971 18972 1 0.10860 301825.392000
18971 18973 1 0.13986 296436.400000
18973 18974 1 0.10860 301825.392000
18973 18975 1 0.13986 296436.400000
18975 18976 1 0.10860 301825.392000
18975 18977 1 0.13986 296436.400000
18977 18978 1 0.10860 301825.392000
18979 18980 1 0.10860 301825.392000
18980 18981 1 0.13986 296436.400000
18980 18989 1 0.13986 296436.400000
18981 18982 1 0.18850 35430.112000
18981 18983 1 0.13986 296436.400000
18983 18984 1 0.10860 301825.392000
18983 18985 1 0.13986 296436.400000
18985 18986 1 0.10860 301825.392000
18985 18987 1 0.13986 296436.400000
18987 18988 1 0.10860 301825.392000
18987 18989 1 0.13986 296436.400000
18989 18990 1 0.10860 301825.392000
18991 18992 1 0.10860 301825.392000
18992 18993 1 0.13986 296436.400000
18992 19001 1 0.13986 296436.400000
18993 18994 1 0.18850 35430.112000
18993 18995 1 0.13986 296436.400000
18995 18996 1 0.10860 301825.392000
18995 18997 1 0.13986 296436.400000
18997 18998 1 0.10860 301825.392000
18997 18999 1 0.13986 296436.400000
18999 19000 1 0.10860 301825.392000
18999 19001 1 0.13986 296436.400000
19001 19002 1 0.10860 301825.392000
19003 19004 1 0.10860 301825.392000
19004 19005 1 0.13986 296436.400000
19004 19013 1 0.13986 296436.400000
19005 19006 1 0.18850 35430.112000
19005 19007 1 0.13986 296436.400000
19007 19008 1 0.10860 301825.392000
19007 19009 1 0.13986 296436.400000
19009 19010 1 0.10860 301825.392000
19009 19011 1 0.13986 296436.400000
19011 19012 1 0.10860 301825.392000
19011 19013 1 0.13986 296436.400000
19013 19014 1 0.10860 301825.392000
19015 19016 1 0.10860 301825.392000
19016 19017 1 0.13986 296436.400000
19016 19025 1 0.13986 296436.400000
19017 19018 1 0.18850 35430.112000
19017 19019 1 0.13986 296436.400000
19019 19020 1 0.10860 301825.392000
19019 19021 1 0.13986 296436.400000
19021 19022 1 0.10860 301825.392000
19021 19023 1 0.13986 296436.400000
19023 19024 1 0.10860 301825.392000
19023 19025 1 0.13986 296436.400000
19025 19026 1 0.10860 301825.392000
19027 19028 1 0.10860 301825.392000
19028 19029 1 0.13986 296436.400000
19028 19037 1 0.13986 296436.400000
19029 19030 1 0.18850 35430.112000
19029 19031 1 0.13986 296436.400000
19031 19032 1 0.10860 301825.392000
19031 19033 1 0.13986 296436.400000
19033 19034 1 0.10860 301825.392000
19033 19035 1 0.13986 296436.400000
19035 19036 1 0.10860 301825.392000
19035 19037 1 0.13986 296436.400000
19037 19038 1 0.10860 301825.392000
19039 19040 1 0.10860 301825.392000
19040 19041 1 0.13986 296436.400000
19040 19049 1 0.13986 296436.400000
19041 19042 1 0.18850 35430.112000
19041 19043 1 0.13986 296436.400000
19043 19044 1 0.10860 301825.392000
19043 19045 1 0.13986 296436.400000
19045 19046 1 0.10860 301825.392000
19045 19047 1 0.13986 296436.400000
19047 19048 1 0.10860 301825.392000
19047 19049 1 0.13986 296436.400000
19049 19050 1 0.10860 301825.392000
19051 19052 1 0.10860 301825.392000
19052 19053 1 0.13986 296436.400000
19052 19061 1 0.13986 296436.400000
19053 19054 1 0.18850 35430.112000
19053 19055 1 0.13986 296436.400000
19055 19056 1 0.10860 301825.392000
19055 19057 1 0.13986 296436.400000
19057 19058 1 0.10860 301825.392000
19057 19059 1 0.13986 296436.400000
19059 19060 1 0.10860 301825.392000
19059 19061 1 0.13986 296436.400000
19061 19062 1 0.10860 301825.392000
19063 19064 1 0.10860 301825.392000
19064 19065 1 0.13986 296436.400000
19064 19073 1 0.13986 296436.400000
19065 19066 1 0.18850 35430.112000
19065 19067 1 0.13986 296436.400000
19067 19068 1 0.10860 301825.392000
19067 19069 1 0.13986 296436.400000
19069 19070 1 0.10860 301825.392000
19069 19071 1 0.13986 296436.400000
19071 19072 1 0.10860 301825.392000
19071 19073 1 0.13986 296436.400000
19073 19074 1 0.10860 301825.392000
19075 19076 1 0.10860 301825.392000
19076 19077 1 0.13986 296436.400000
19076 19085 1 0.13986 296436.400000
19077 19078 1 0.18850 35430.112000
19077 19079 1 0.13986 296436.400000
19079 19080 1 0.10860 301825.392000
19079 19081 1 0.13986 296436.400000
19081 19082 1 0.10860 301825.392000
19081 19083 1 0.13986 296436.400000
19083 19084 1 0.10860 301825.392000
19083 19085 1 0.13986 296436.400000
19085 19086 1 0.10860 301825.392000
19087 19088 1 0.10860 301825.392000
19088 19089 1 0.13986 296436.400000
19088 19097 1 0.13986 296436.400000
19089 19090 1 0.18850 35430.112000
19089 19091 1 0.13986 296436.400000
19091 19092 1 0.10860 301825.392000
19091 19093 1 0.13986 296436.400000
19093 19094 1 0.10860 301825.392000
19093 19095 1 0.13986 296436.400000
19095 19096 1 0.10860 301825.392000
19095 19097 1 0.13986 296436.400000
19097 19098 1 0.10860 301825.392000
19099 19100 1 0.10860 301825.392000
19100 19101 1 0.13986 296436.400000
19100 19109 1 0.13986 296436.400000
19101 19102 1 0.18850 35430.112000
19101 19103 1 0.13986 296436.400000
19103 19104 1 0.10860 301825.392000
19103 19105 1 0.13986 296436.400000
19105 19106 1 0.10860 301825.392000
19105 19107 1 0.13986 296436.400000
19107 19108 1 0.10860 301825.392000
19107 19109 1 0.13986 296436.400000
19109 19110 1 0.10860 301825.392000
19111 19112 1 0.10860 301825.392000
19112 19113 1 0.13986 296436.400000
19112 19121 1 0.13986 296436.400000
19113 19114 1 0.18850 35430.112000
19113 19115 1 0.13986 296436.400000
19115 19116 1 0.10860 301825.392000
19115 19117 1 0.13986 296436.400000
19117 19118 1 0.10860 301825.392000
19117 19119 1 0.13986 296436.400000
19119 19120 1 0.10860 301825.392000
19119 19121 1 0.13986 296436.400000
19121 19122 1 0.10860 301825.392000
19123 19124 1 0.10860 301825.392000
19124 19125 1 0.13986 296436.400000
19124 19133 1 0.13986 296436.400000
19125 19126 1 0.18850 35430.112000
19125 19127 1 0.13986 296436.400000
19127 19128 1 0.10860 301825.392000
19127 19129 1 0.13986 296436.400000
19129 19130 1 0.10860 301825.392000
19129 19131 1 0.13986 296436.400000
19131 19132 1 0.10860 301825.392000
19131 19133 1 0.13986 296436.400000
19133 19134 1 0.10860 301825.392000
19135 19136 1 0.10860 301825.392000
19136 19137 1 0.13986 296436.400000
19136 19145 1 0.13986 296436.400000
19137 19138 1 0.18850 35430.112000
19137 19139 1 0.13986 296436.400000
19139 19140 1 0.10860 301825.392000
19139 19141 1 0.13986 296436.400000
19141 19142 1 0.10860 301825.392000
19141 19143 1 0.13986 296436.400000
19143 19144 1 0.10860 301825.392000
19143 19145 1 0.13986 296436.400000
19145 19146 1 0.10860 301825.392000
19147 19148 1 0.10860 301825.392000
19148 19149 1 0.13986 296436.400000
19148 19157 1 0.13986 296436.400000
19149 19150 1 0.18850 35430.112000
19149 19151 1 0.13986 296436.400000
19151 19152 1 0.10860 301825.392000
19151 19153 1 0.13986 296436.400000
19153 19154 1 0.10860 301825.392000
19153 19155 1 0.13986 296436.400000
19155 19156 1 0.10860 301825.392000
19155 19157 1 0.13986 296436.400000
19157 19158 1 0.10860 301825.392000
19159 19160 1 0.10860 301825.392000
19160 19161 1 0.13986 296436.400000
19160 19169 1 0.13986 296436.400000
19161 19162 1 0.18850 35430.112000
19161 19163 1 0.13986 296436.400000
19163 19164 1 0.10860 301825.392000
19163 19165 1 0.13986 296436.400000
19165 19166 1 0.10860 301825.392000
19165 19167 1 0.13986 296436.400000
19167 19168 1 0.10860 301825.392000
19167 19169 1 0.13986 296436.400000
19169 19170 1 0.10860 301825.392000
19171 19172 1 0.10860 301825.392000
19172 19173 1 0.13986 296436.400000
19172 19181 1 0.13986 296436.400000
19173 19174 1 0.18850 35430.112000
19173 19175 1 0.13986 296436.400000
19175 19176 1 0.10860 301825.392000
19175 19177 1 0.13986 296436.400000
19177 19178 1 0.10860 301825.392000
19177 19179 1 0.13986 296436.400000
19179 19180 1 0.10860 301825.392000
19179 19181 1 0.13986 296436.400000
19181 19182 1 0.10860 301825.392000
19183 19184 1 0.10860 301825.392000
19184 19185 1 0.13986 296436.400000
19184 19193 1 0.13986 296436.400000
19185 19186 1 0.18850 35430.112000
19185 19187 1 0.13986 296436.400000
19187 19188 1 0.10860 301825.392000
19187 19189 1 0.13986 296436.400000
19189 19190 1 0.10860 301825.392000
19189 19191 1 0.13986 296436.400000
19191 19192 1 0.10860 301825.392000
19191 19193 1 0.13986 296436.400000
19193 19194 1 0.10860 301825.392000
19195 19196 1 0.10860 301825.392000
19196 19197 1 0.13986 296436.400000
19196 19205 1 0.13986 296436.400000
19197 19198 1 0.18850 35430.112000
19197 19199 1 0.13986 296436.400000
19199 19200 1 0.10860 301825.392000
19199 19201 1 0.13986 296436.400000
19201 19202 1 0.10860 301825.392000
19201 19203 1 0.13986 296436.400000
19203 19204 1 0.10860 301825.392000
19203 19205 1 0.13986 296436.400000
19205 19206 1 0.10860 301825.392000
19207 19208 1 0.10860 301825.392000
19208 19209 1 0.13986 296436.400000
19208 19217 1 0.13986 296436.400000
19209 19210 1 0.18850 35430.112000
19209 19211 1 0.13986 296436.400000
19211 19212 1 0.10860 301825.392000
19211 19213 1 0.13986 296436.400000
19213 19214 1 0.10860 301825.392000
19213 19215 1 0.13986 296436.400000
19215 19216 1 0.10860 301825.392000
19215 19217 1 0.13986 296436.400000
19217 19218 1 0.10860 301825.392000
19219 19220 1 0.10860 301825.392000
19220 19221 1 0.13986 296436.400000
19220 19229 1 0.13986 296436.400000
19221 19222 1 0.18850 35430.112000
19221 19223 1 0.13986 296436.400000
19223 19224 1 0.10860 301825.392000
19223 19225 1 0.13986 296436.400000
19225 19226 1 0.10860 301825.392000
19225 19227 1 0.13986 296436.400000
19227 19228 1 0.10860 301825.392000
19227 19229 1 0.13986 296436.400000
19229 19230 1 0.10860 301825.392000
19231 19232 1 0.10860 301825.392000
19232 19233 1 0.13986 296436.400000
19232 19241 1 0.13986 296436.400000
19233 19234 1 0.18850 35430.112000
19233 19235 1 0.13986 296436.400000
19235 19236 1 0.10860 301825.392000
19235 19237 1 0.13986 296436.400000
19237 19238 1 0.10860 301825.392000
19237 19239 1 0.13986 296436.400000
19239 19240 1 0.10860 301825.392000
19239 19241 1 0.13986 296436.400000
19241 19242 1 0.10860 301825.392000
19243 19244 1 0.10860 301825.392000
19244 19245 1 0.13986 296436.400000
19244 19253 1 0.13986 296436.400000
19245 19246 1 0.18850 35430.112000
19245 19247 1 0.13986 296436.400000
19247 19248 1 0.10860 301825.392000
19247 19249 1 0.13986 296436.400000
19249 19250 1 0.10860 301825.392000
19249 19251 1 0.13986 296436.400000
19251 19252 1 0.10860 301825.392000
19251 19253 1 0.13986 296436.400000
19253 19254 1 0.10860 301825.392000
19255 19256 1 0.10860 301825.392000
19256 19257 1 0.13986 296436.400000
19256 19265 1 0.13986 296436.400000
19257 19258 1 0.18850 35430.112000
19257 19259 1 0.13986 296436.400000
19259 19260 1 0.10860 301825.392000
19259 19261 1 0.13986 296436.400000
19261 19262 1 0.10860 301825.392000
19261 19263 1 0.13986 296436.400000
19263 19264 1 0.10860 301825.392000
19263 19265 1 0.13986 296436.400000
19265 19266 1 0.10860 301825.392000
19267 19268 1 0.10860 301825.392000
19268 19269 1 0.13986 296436.400000
19268 19277 1 0.13986 296436.400000
19269 19270 1 0.18850 35430.112000
19269 19271 1 0.13986 296436.400000
19271 19272 1 0.10860 301825.392000
19271 19273 1 0.13986 296436.400000
19273 19274 1 0.10860 301825.392000
19273 19275 1 0.13986 296436.400000
19275 19276 1 0.10860 301825.392000
19275 19277 1 0.13986 296436.400000
19277 19278 1 0.10860 301825.392000
19279 19280 1 0.10860 301825.392000
19280 19281 1 0.13986 296436.400000
19280 19289 1 0.13986 296436.400000
19281 19282 1 0.18850 35430.112000
19281 19283 1 0.13986 296436.400000
19283 19284 1 0.10860 301825.392000
19283 19285 1 0.13986 296436.400000
19285 19286 1 0.10860 301825.392000
19285 19287 1 0.13986 296436.400000
19287 19288 1 0.10860 301825.392000
19287 19289 1 0.13986 296436.400000
19289 19290 1 0.10860 301825.392000
19291 19292 1 0.10860 301825.392000
19292 19293 1 0.13986 296436.400000
19292 19301 1 0.13986 296436.400000
19293 19294 1 0.18850 35430.112000
19293 19295 1 0.13986 296436.400000
19295 19296 1 0.10860 301825.392000
19295 19297 1 0.13986 296436.400000
19297 19298 1 0.10860 301825.392000
19297 19299 1 0.13986 296436.400000
19299 19300 1 0.10860 301825.392000
19299 19301 1 0.13986 296436.400000
19301 19302 1 0.10860 301825.392000
19303 19304 1 0.10860 301825.392000
19304 19305 1 0.13986 296436.400000
19304 19313 1 0.13986 296436.400000
19305 19306 1 0.18850 35430.112000
19305 19307 1 0.13986 296436.400000
19307 19308 1 0.10860 301825.392000
19307 19309 1 0.13986 296436.400000
19309 19310 1 0.10860 301825.392000
19309 19311 1 0.13986 296436.400000
19311 19312 1 0.10860 301825.392000
19311 19313 1 0.13986 296436.400000
19313 19314 1 0.10860 301825.392000
19315 19316 1 0.10860 301825.392000
19316 19317 1 0.13986 296436.400000
19316 19325 1 0.13986 296436.400000
19317 19318 1 0.18850 35430.112000
19317 19319 1 0.13986 296436.400000
19319 19320 1 0.10860 301825.392000
19319 19321 1 0.13986 296436.400000
19321 19322 1 0.10860 301825.392000
19321 19323 1 0.13986 296436.400000
19323 19324 1 0.10860 301825.392000
19323 19325 1 0.13986 296436.400000
19325 19326 1 0.10860 301825.392000
19327 19328 1 0.10860 301825.392000
19328 19329 1 0.13986 296436.400000
19328 19337 1 0.13986 296436.400000
19329 19330 1 0.18850 35430.112000
19329 19331 1 0.13986 296436.400000
19331 19332 1 0.10860 301825.392000
19331 19333 1 0.13986 296436.400000
19333 19334 1 0.10860 301825.392000
19333 19335 1 0.13986 296436.400000
19335 19336 1 0.10860 301825.392000
19335 19337 1 0.13986 296436.400000
19337 19338 1 0.10860 301825.392000
19339 19340 1 0.10860 301825.392000
19340 19341 1 0.13986 296436.400000
19340 19349 1 0.13986 296436.400000
19341 19342 1 0.18850 35430.112000
19341 19343 1 0.13986 296436.400000
19343 19344 1 0.10860 301825.392000
19343 19345 1 0.13986 296436.400000
19345 19346 1 0.10860 301825.392000
19345 19347 1 0.13986 296436.400000
19347 19348 1 0.10860 301825.392000
19347 19349 1 0.13986 296436.400000
19349 19350 1 0.10860 301825.392000
19351 19352 1 0.10860 301825.392000
19352 19353 1 0.13986 296436.400000
19352 19361 1 0.13986 296436.400000
19353 19354 1 0.18850 35430.112000
19353 19355 1 0.13986 296436.400000
19355 19356 1 0.10860 301825.392000
19355 19357 1 0.13986 296436.400000
19357 19358 1 0.10860 301825.392000
19357 19359 1 0.13986 296436.400000
19359 19360 1 0.10860 301825.392000
19359 19361 1 0.13986 296436.400000
19361 19362 1 0.10860 301825.392000
19363 19364 1 0.10860 301825.392000
19364 19365 1 0.13986 296436.400000
19364 19373 1 0.13986 296436.400000
19365 19366 1 0.18850 35430.112000
19365 19367 1 0.13986 296436.400000
19367 19368 1 0.10860 301825.392000
19367 19369 1 0.13986 296436.400000
19369 19370 1 0.10860 301825.392000
19369 19371 1 0.13986 296436.400000
19371 19372 1 0.10860 301825.392000
19371 19373 1 0.13986 296436.400000
19373 19374 1 0.10860 301825.392000
19375 19376 1 0.10860 301825.392000
19376 19377 1 0.13986 296436.400000
19376 19385 1 0.13986 296436.400000
19377 19378 1 0.18850 35430.112000
19377 19379 1 0.13986 296436.400000
19379 19380 1 0.10860 301825.392000
19379 19381 1 0.13986 296436.400000
19381 19382 1 0.10860 301825.392000
19381 19383 1 0.13986 296436.400000
19383 19384 1 0.10860 301825.392000
19383 19385 1 0.13986 296436.400000
19385 19386 1 0.10860 301825.392000
19387 19388 1 0.10860 301825.392000
19388 19389 1 0.13986 296436.400000
19388 19397 1 0.13986 296436.400000
19389 19390 1 0.18850 35430.112000
19389 19391 1 0.13986 296436.400000
19391 19392 1 0.10860 301825.392000
19391 19393 1 0.13986 296436.400000
19393 19394 1 0.10860 301825.392000
19393 19395 1 0.13986 296436.400000
19395 19396 1 0.10860 301825.392000
19395 19397 1 0.13986 296436.400000
19397 19398 1 0.10860 301825.392000
19399 19400 1 0.10860 301825.392000
19400 19401 1 0.13986 296436.400000
19400 19409 1 0.13986 296436.400000
19401 19402 1 0.18850 35430.112000
19401 19403 1 0.13986 296436.400000
19403 19404 1 0.10860 301825.392000
19403 19405 1 0.13986 296436.400000
19405 19406 1 0.10860 301825.392000
19405 19407 1 0.13986 296436.400000
19407 19408 1 0.10860 301825.392000
19407 19409 1 0.13986 296436.400000
19409 19410 1 0.10860 301825.392000
19411 19412 1 0.10860 301825.392000
19412 19413 1 0.13986 296436.400000
19412 19421 1 0.13986 296436.400000
19413 19414 1 0.18850 35430.112000
19413 19415 1 0.13986 296436.400000
19415 19416 1 0.10860 301825.392000
19415 19417 1 0.13986 296436.400000
19417 19418 1 0.10860 301825.392000
19417 19419 1 0.13986 296436.400000
19419 19420 1 0.10860 301825.392000
19419 19421 1 0.13986 296436.400000
19421 19422 1 0.10860 301825.392000
19423 19424 1 0.10860 301825.392000
19424 19425 1 0.13986 296436.400000
19424 19433 1 0.13986 296436.400000
19425 19426 1 0.18850 35430.112000
19425 19427 1 0.13986 296436.400000
19427 19428 1 0.10860 301825.392000
19427 19429 1 0.13986 296436.400000
19429 19430 1 0.10860 301825.392000
19429 19431 1 0.13986 296436.400000
19431 19432 1 0.10860 301825.392000
19431 19433 1 0.13986 296436.400000
19433 19434 1 0.10860 301825.392000
19435 19436 1 0.10860 301825.392000
19436 19437 1 0.13986 296436.400000
19436 19445 1 0.13986 296436.400000
19437 19438 1 0.18850 35430.112000
19437 19439 1 0.13986 296436.400000
19439 19440 1 0.10860 301825.392000
19439 19441 1 0.13986 296436.400000
19441 19442 1 0.10860 301825.392000
19441 19443 1 0.13986 296436.400000
19443 19444 1 0.10860 301825.392000
19443 19445 1 0.13986 296436.400000
19445 19446 1 0.10860 301825.392000
19447 19448 1 0.10860 301825.392000
19448 19449 1 0.13986 296436.400000
19448 19457 1 0.13986 296436.400000
19449 19450 1 0.18850 35430.112000
19449 19451 1 0.13986 296436.400000
19451 19452 1 0.10860 301825.392000
19451 19453 1 0.13986 296436.400000
19453 19454 1 0.10860 301825.392000
19453 19455 1 0.13986 296436.400000
19455 19456 1 0.10860 301825.392000
19455 19457 1 0.13986 296436.400000
19457 19458 1 0.10860 301825.392000
19459 19460 1 0.10860 301825.392000
19460 19461 1 0.13986 296436.400000
19460 19469 1 0.13986 296436.400000
19461 19462 1 0.18850 35430.112000
19461 19463 1 0.13986 296436.400000
19463 19464 1 0.10860 301825.392000
19463 19465 1 0.13986 296436.400000
19465 19466 1 0.10860 301825.392000
19465 19467 1 0.13986 296436.400000
19467 19468 1 0.10860 301825.392000
19467 19469 1 0.13986 296436.400000
19469 19470 1 0.10860 301825.392000
19471 19472 1 0.10860 301825.392000
19472 19473 1 0.13986 296436.400000
19472 19481 1 0.13986 296436.400000
19473 19474 1 0.18850 35430.112000
19473 19475 1 0.13986 296436.400000
19475 19476 1 0.10860 301825.392000
19475 19477 1 0.13986 296436.400000
19477 19478 1 0.10860 301825.392000
19477 19479 1 0.13986 296436.400000
19479 19480 1 0.10860 301825.392000
19479 19481 1 0.13986 296436.400000
19481 19482 1 0.10860 301825.392000
19483 19484 1 0.10860 301825.392000
19484 19485 1 0.13986 296436.400000
19484 19493 1 0.13986 296436.400000
19485 19486 1 0.18850 35430.112000
19485 19487 1 0.13986 296436.400000
19487 19488 1 0.10860 301825.392000
19487 19489 1 0.13986 296436.400000
19489 19490 1 0.10860 301825.392000
19489 19491 1 0.13986 296436.400000
19491 19492 1 0.10860 301825.392000
19491 19493 1 0.13986 296436.400000
19493 19494 1 0.10860 301825.392000
19495 19496 1 0.10860 301825.392000
19496 19497 1 0.13986 296436.400000
19496 19505 1 0.13986 296436.400000
19497 19498 1 0.18850 35430.112000
19497 19499 1 0.13986 296436.400000
19499 19500 1 0.10860 301825.392000
19499 19501 1 0.13986 296436.400000
19501 19502 1 0.10860 301825.392000
19501 19503 1 0.13986 296436.400000
19503 19504 1 0.10860 301825.392000
19503 19505 1 0.13986 296436.400000
19505 19506 1 0.10860 301825.392000
19507 19508 1 0.10860 301825.392000
19508 19509 1 0.13986 296436.400000
19508 19517 1 0.13986 296436.400000
19509 19510 1 0.18850 35430.112000
19509 19511 1 0.13986 296436.400000
19511 19512 1 0.10860 301825.392000
19511 19513 1 0.13986 296436.400000
19513 19514 1 0.10860 301825.392000
19513 19515 1 0.13986 296436.400000
19515 19516 1 0.10860 301825.392000
19515 19517 1 0.13986 296436.400000
19517 19518 1 0.10860 301825.392000
19519 19520 1 0.10860 301825.392000
19520 19521 1 0.13986 296436.400000
19520 19529 1 0.13986 296436.400000
19521 19522 1 0.18850 35430.112000
19521 19523 1 0.13986 296436.400000
19523 19524 1 0.10860 301825.392000
19523 19525 1 0.13986 296436.400000
19525 19526 1 0.10860 301825.392000
19525 19527 1 0.13986 296436.400000
19527 19528 1 0.10860 301825.392000
19527 19529 1 0.13986 296436.400000
19529 19530 1 0.10860 301825.392000
19531 19532 1 0.10860 301825.392000
19532 19533 1 0.13986 296436.400000
19532 19541 1 0.13986 296436.400000
19533 19534 1 0.18850 35430.112000
19533 19535 1 0.13986 296436.400000
19535 19536 1 0.10860 301825.392000
19535 19537 1 0.13986 296436.400000
19537 19538 1 0.10860 301825.392000
19537 19539 1 0.13986 296436.400000
19539 19540 1 0.10860 301825.392000
19539 19541 1 0.13986 296436.400000
19541 19542 1 0.10860 301825.392000
19543 19544 1 0.10860 301825.392000
19544 19545 1 0.13986 296436.400000
19544 19553 1 0.13986 296436.400000
19545 19546 1 0.18850 35430.112000
19545 19547 1 0.13986 296436.400000
19547 19548 1 0.10860 301825.392000
19547 19549 1 0.13986 296436.400000
19549 19550 1 0.10860 301825.392000
19549 19551 1 0.13986 296436.400000
19551 19552 1 0.10860 301825.392000
19551 19553 1 0.13986 296436.400000
19553 19554 1 0.10860 301825.392000
19555 19556 1 0.10860 301825.392000
19556 19557 1 0.13986 296436.400000
19556 19565 1 0.13986 296436.400000
19557 19558 1 0.18850 35430.112000
19557 19559 1 0.13986 296436.400000
19559 19560 1 0.10860 301825.392000
19559 19561 1 0.13986 296436.400000
19561 19562 1 0.10860 301825.392000
19561 19563 1 0.13986 296436.400000
19563 19564 1 0.10860 301825.392000
19563 19565 1 0.13986 296436.400000
19565 19566 1 0.10860 301825.392000
19567 19568 1 0.10860 301825.392000
19568 19569 1 0.13986 296436.400000
19568 19577 1 0.13986 296436.400000
19569 19570 1 0.18850 35430.112000
19569 19571 1 0.13986 296436.400000
19571 19572 1 0.10860 301825.392000
19571 19573 1 0.13986 296436.400000
19573 19574 1 0.10860 301825.392000
19573 19575 1 0.13986 296436.400000
19575 19576 1 0.10860 301825.392000
19575 19577 1 0.13986 296436.400000
19577 19578 1 0.10860 301825.392000
19579 19580 1 0.10860 301825.392000
19580 19581 1 0.13986 296436.400000
19580 19589 1 0.13986 296436.400000
19581 19582 1 0.18850 35430.112000
19581 19583 1 0.13986 296436.400000
19583 19584 1 0.10860 301825.392000
19583 19585 1 0.13986 296436.400000
19585 19586 1 0.10860 301825.392000
19585 19587 1 0.13986 296436.400000
19587 19588 1 0.10860 301825.392000
19587 19589 1 0.13986 296436.400000
19589 19590 1 0.10860 301825.392000
19591 19592 1 0.10860 301825.392000
19592 19593 1 0.13986 296436.400000
19592 19601 1 0.13986 296436.400000
19593 19594 1 0.18850 35430.112000
19593 19595 1 0.13986 296436.400000
19595 19596 1 0.10860 301825.392000
19595 19597 1 0.13986 296436.400000
19597 19598 1 0.10860 301825.392000
19597 19599 1 0.13986 296436.400000
19599 19600 1 0.10860 301825.392000
19599 19601 1 0.13986 296436.400000
19601 19602 1 0.10860 301825.392000
19603 19604 1 0.10860 301825.392000
19604 19605 1 0.13986 296436.400000
19604 19613 1 0.13986 296436.400000
19605 19606 1 0.18850 35430.112000
19605 19607 1 0.13986 296436.400000
19607 19608 1 0.10860 301825.392000
19607 19609 1 0.13986 296436.400000
19609 19610 1 0.10860 301825.392000
19609 19611 1 0.13986 296436.400000
19611 19612 1 0.10860 301825.392000
19611 19613 1 0.13986 296436.400000
19613 19614 1 0.10860 301825.392000
19615 19616 1 0.10860 301825.392000
19616 19617 1 0.13986 296436.400000
19616 19625 1 0.13986 296436.400000
19617 19618 1 0.18850 35430.112000
19617 19619 1 0.13986 296436.400000
19619 19620 1 0.10860 301825.392000
19619 19621 1 0.13986 296436.400000
19621 19622 1 0.10860 301825.392000
19621 19623 1 0.13986 296436.400000
19623 19624 1 0.10860 301825.392000
19623 19625 1 0.13986 296436.400000
19625 19626 1 0.10860 301825.392000
19627 19628 1 0.10860 301825.392000
19628 19629 1 0.13986 296436.400000
19628 19637 1 0.13986 296436.400000
19629 19630 1 0.18850 35430.112000
19629 19631 1 0.13986 296436.400000
19631 19632 1 0.10860 301825.392000
19631 19633 1 0.13986 296436.400000
19633 19634 1 0.10860 301825.392000
19633 19635 1 0.13986 296436.400000
19635 19636 1 0.10860 301825.392000
19635 19637 1 0.13986 296436.400000
19637 19638 1 0.10860 301825.392000
19639 19640 1 0.10860 301825.392000
19640 19641 1 0.13986 296436.400000
19640 19649 1 0.13986 296436.400000
19641 19642 1 0.18850 35430.112000
19641 19643 1 0.13986 296436.400000
19643 19644 1 0.10860 301825.392000
19643 19645 1 0.13986 296436.400000
19645 19646 1 0.10860 301825.392000
19645 19647 1 0.13986 296436.400000
19647 19648 1 0.10860 301825.392000
19647 19649 1 0.13986 296436.400000
19649 19650 1 0.10860 301825.392000
19651 19652 1 0.10860 301825.392000
19652 19653 1 0.13986 296436.400000
19652 19661 1 0.13986 296436.400000
19653 19654 1 0.18850 35430.112000
19653 19655 1 0.13986 296436.400000
19655 19656 1 0.10860 301825.392000
19655 19657 1 0.13986 296436.400000
19657 19658 1 0.10860 301825.392000
19657 19659 1 0.13986 296436.400000
19659 19660 1 0.10860 301825.392000
19659 19661 1 0.13986 296436.400000
19661 19662 1 0.10860 301825.392000
19663 19664 1 0.10860 301825.392000
19664 19665 1 0.13986 296436.400000
19664 19673 1 0.13986 296436.400000
19665 19666 1 0.18850 35430.112000
19665 19667 1 0.13986 296436.400000
19667 19668 1 0.10860 301825.392000
19667 19669 1 0.13986 296436.400000
19669 19670 1 0.10860 301825.392000
19669 19671 1 0.13986 296436.400000
19671 19672 1 0.10860 301825.392000
19671 19673 1 0.13986 296436.400000
19673 19674 1 0.10860 301825.392000
19675 19676 1 0.10860 301825.392000
19676 19677 1 0.13986 296436.400000
19676 19685 1 0.13986 296436.400000
19677 19678 1 0.18850 35430.112000
19677 19679 1 0.13986 296436.400000
19679 19680 1 0.10860 301825.392000
19679 19681 1 0.13986 296436.400000
19681 19682 1 0.10860 301825.392000
19681 19683 1 0.13986 296436.400000
19683 19684 1 0.10860 301825.392000
19683 19685 1 0.13986 296436.400000
19685 19686 1 0.10860 301825.392000
19687 19688 1 0.10860 301825.392000
19688 19689 1 0.13986 296436.400000
19688 19697 1 0.13986 296436.400000
19689 19690 1 0.18850 35430.112000
19689 19691 1 0.13986 296436.400000
19691 19692 1 0.10860 301825.392000
19691 19693 1 0.13986 296436.400000
19693 19694 1 0.10860 301825.392000
19693 19695 1 0.13986 296436.400000
19695 19696 1 0.10860 301825.392000
19695 19697 1 0.13986 296436.400000
19697 19698 1 0.10860 301825.392000
19699 19700 1 0.10860 301825.392000
19700 19701 1 0.13986 296436.400000
19700 19709 1 0.13986 296436.400000
19701 19702 1 0.18850 35430.112000
19701 19703 1 0.13986 296436.400000
19703 19704 1 0.10860 301825.392000
19703 19705 1 0.13986 296436.400000
19705 19706 1 0.10860 301825.392000
19705 19707 1 0.13986 296436.400000
19707 19708 1 0.10860 301825.392000
19707 19709 1 0.13986 296436.400000
19709 19710 1 0.10860 301825.392000
19711 19712 1 0.10860 301825.392000
19712 19713 1 0.13986 296436.400000
19712 19721 1 0.13986 296436.400000
19713 19714 1 0.18850 35430.112000
19713 19715 1 0.13986 296436.400000
19715 19716 1 0.10860 301825.392000
19715 19717 1 0.13986 296436.400000
19717 19718 1 0.10860 301825.392000
19717 19719 1 0.13986 296436.400000
19719 19720 1 0.10860 301825.392000
19719 19721 1 0.13986 296436.400000
19721 19722 1 0.10860 301825.392000
19723 19724 1 0.10860 301825.392000
19724 19725 1 0.13986 296436.400000
19724 19733 1 0.13986 296436.400000
19725 19726 1 0.18850 35430.112000
19725 19727 1 0.13986 296436.400000
19727 19728 1 0.10860 301825.392000
19727 19729 1 0.13986 296436.400000
19729 19730 1 0.10860 301825.392000
19729 19731 1 0.13986 296436.400000
19731 19732 1 0.10860 301825.392000
19731 19733 1 0.13986 296436.400000
19733 19734 1 0.10860 301825.392000
19735 19736 1 0.10860 301825.392000
19736 19737 1 0.13986 296436.400000
19736 19745 1 0.13986 296436.400000
19737 19738 1 0.18850 35430.112000
19737 19739 1 0.13986 296436.400000
19739 19740 1 0.10860 301825.392000
19739 19741 1 0.13986 296436.400000
19741 19742 1 0.10860 301825.392000
19741 19743 1 0.13986 296436.400000
19743 19744 1 0.10860 301825.392000
19743 19745 1 0.13986 296436.400000
19745 19746 1 0.10860 301825.392000
19747 19748 1 0.10860 301825.392000
19748 19749 1 0.13986 296436.400000
19748 19757 1 0.13986 296436.400000
19749 19750 1 0.18850 35430.112000
19749 19751 1 0.13986 296436.400000
19751 19752 1 0.10860 301825.392000
19751 19753 1 0.13986 296436.400000
19753 19754 1 0.10860 301825.392000
19753 19755 1 0.13986 296436.400000
19755 19756 1 0.10860 301825.392000
19755 19757 1 0.13986 296436.400000
19757 19758 1 0.10860 301825.392000
19759 19760 1 0.10860 301825.392000
19760 19761 1 0.13986 296436.400000
19760 19769 1 0.13986 296436.400000
19761 19762 1 0.18850 35430.112000
19761 19763 1 0.13986 296436.400000
19763 19764 1 0.10860 301825.392000
19763 19765 1 0.13986 296436.400000
19765 19766 1 0.10860 301825.392000
19765 19767 1 0.13986 296436.400000
19767 19768 1 0.10860 301825.392000
19767 19769 1 0.13986 296436.400000
19769 19770 1 0.10860 301825.392000
19771 19772 1 0.10860 301825.392000
19772 19773 1 0.13986 296436.400000
19772 19781 1 0.13986 296436.400000
19773 19774 1 0.18850 35430.112000
19773 19775 1 0.13986 296436.400000
19775 19776 1 0.10860 301825.392000
19775 19777 1 0.13986 296436.400000
19777 19778 1 0.10860 301825.392000
19777 19779 1 0.13986 296436.400000
19779 19780 1 0.10860 301825.392000
19779 19781 1 0.13986 296436.400000
19781 19782 1 0.10860 301825.392000
19783 19784 1 0.10860 301825.392000
19784 19785 1 0.13986 296436.400000
19784 19793 1 0.13986 296436.400000
19785 19786 1 0.18850 35430.112000
19785 19787 1 0.13986 296436.400000
19787 19788 1 0.10860 301825.392000
19787 19789 1 0.13986 296436.400000
19789 19790 1 0.10860 301825.392000
19789 19791 1 0.13986 296436.400000
19791 19792 1 0.10860 301825.392000
19791 19793 1 0.13986 296436.400000
19793 19794 1 0.10860 301825.392000
19795 19796 1 0.10860 301825.392000
19796 19797 1 0.13986 296436.400000
19796 19805 1 0.13986 296436.400000
19797 19798 1 0.18850 35430.112000
19797 19799 1 0.13986 296436.400000
19799 19800 1 0.10860 301825.392000
19799 19801 1 0.13986 296436.400000
19801 19802 1 0.10860 301825.392000
19801 19803 1 0.13986 296436.400000
19803 19804 1 0.10860 301825.392000
19803 19805 1 0.13986 296436.400000
19805 19806 1 0.10860 301825.392000
19807 19808 1 0.10860 301825.392000
19808 19809 1 0.13986 296436.400000
19808 19817 1 0.13986 296436.400000
19809 19810 1 0.18850 35430.112000
19809 19811 1 0.13986 296436.400000
19811 19812 1 0.10860 301825.392000
19811 19813 1 0.13986 296436.400000
19813 19814 1 0.10860 301825.392000
19813 19815 1 0.13986 296436.400000
19815 19816 1 0.10860 301825.392000
19815 19817 1 0.13986 296436.400000
19817 19818 1 0.10860 301825.392000
19819 19820 1 0.10860 301825.392000
19820 19821 1 0.13986 296436.400000
19820 19829 1 0.13986 296436.400000
19821 19822 1 0.18850 35430.112000
19821 19823 1 0.13986 296436.400000
19823 19824 1 0.10860 301825.392000
19823 19825 1 0.13986 296436.400000
19825 19826 1 0.10860 301825.392000
19825 19827 1 0.13986 296436.400000
19827 19828 1 0.10860 301825.392000
19827 19829 1 0.13986 296436.400000
19829 19830 1 0.10860 301825.392000
19831 19832 1 0.10860 301825.392000
19832 19833 1 0.13986 296436.400000
19832 19841 1 0.13986 296436.400000
19833 19834 1 0.18850 35430.112000
19833 19835 1 0.13986 296436.400000
19835 19836 1 0.10860 301825.392000
19835 19837 1 0.13986 296436.400000
19837 19838 1 0.10860 301825.392000
19837 19839 1 0.13986 296436.400000
19839 19840 1 0.10860 301825.392000
19839 19841 1 0.13986 296436.400000
19841 19842 1 0.10860 301825.392000
19843 19844 1 0.10860 301825.392000
19844 19845 1 0.13986 296436.400000
19844 19853 1 0.13986 296436.400000
19845 19846 1 0.18850 35430.112000
19845 19847 1 0.13986 296436.400000
19847 19848 1 0.10860 301825.392000
19847 19849 1 0.13986 296436.400000
19849 19850 1 0.10860 301825.392000
19849 19851 1 0.13986 296436.400000
19851 19852 1 0.10860 301825.392000
19851 19853 1 0.13986 296436.400000
19853 19854 1 0.10860 301825.392000
19855 19856 1 0.10860 301825.392000
19856 19857 1 0.13986 296436.400000
19856 19865 1 0.13986 296436.400000
19857 19858 1 0.18850 35430.112000
19857 19859 1 0.13986 296436.400000
19859 19860 1 0.10860 301825.392000
19859 19861 1 0.13986 296436.400000
19861 19862 1 0.10860 301825.392000
19861 19863 1 0.13986 296436.400000
19863 19864 1 0.10860 301825.392000
19863 19865 1 0.13986 296436.400000
19865 19866 1 0.10860 301825.392000
19867 19868 1 0.10860 301825.392000
19868 19869 1 0.13986 296436.400000
19868 19877 1 0.13986 296436.400000
19869 19870 1 0.18850 35430.112000
19869 19871 1 0.13986 296436.400000
19871 19872 1 0.10860 301825.392000
19871 19873 1 0.13986 296436.400000
19873 19874 1 0.10860 301825.392000
19873 19875 1 0.13986 296436.400000
19875 19876 1 0.10860 301825.392000
19875 19877 1 0.13986 296436.400000
19877 19878 1 0.10860 301825.392000
19879 19880 1 0.10860 301825.392000
19880 19881 1 0.13986 296436.400000
19880 19889 1 0.13986 296436.400000
19881 19882 1 0.18850 35430.112000
19881 19883 1 0.13986 296436.400000
19883 19884 1 0.10860 301825.392000
19883 19885 1 0.13986 296436.400000
19885 19886 1 0.10860 301825.392000
19885 19887 1 0.13986 296436.400000
19887 19888 1 0.10860 301825.392000
19887 19889 1 0.13986 296436.400000
19889 19890 1 0.10860 301825.392000
19891 19892 1 0.10860 301825.392000
19892 19893 1 0.13986 296436.400000
19892 19901 1 0.13986 296436.400000
19893 19894 1 0.18850 35430.112000
19893 19895 1 0.13986 296436.400000
19895 19896 1 0.10860 301825.392000
19895 19897 1 0.13986 296436.400000
19897 19898 1 0.10860 301825.392000
19897 19899 1 0.13986 296436.400000
19899 19900 1 0.10860 301825.392000
19899 19901 1 0.13986 296436.400000
19901 19902 1 0.10860 301825.392000
19903 19904 1 0.10860 301825.392000
19904 19905 1 0.13986 296436.400000
19904 19913 1 0.13986 296436.400000
19905 19906 1 0.18850 35430.112000
19905 19907 1 0.13986 296436.400000
19907 19908 1 0.10860 301825.392000
19907 19909 1 0.13986 296436.400000
19909 19910 1 0.10860 301825.392000
19909 19911 1 0.13986 296436.400000
19911 19912 1 0.10860 301825.392000
19911 19913 1 0.13986 296436.400000
19913 19914 1 0.10860 301825.392000
19915 19916 1 0.10860 301825.392000
19916 19917 1 0.13986 296436.400000
19916 19925 1 0.13986 296436.400000
19917 19918 1 0.18850 35430.112000
19917 19919 1 0.13986 296436.400000
19919 19920 1 0.10860 301825.392000
19919 19921 1 0.13986 296436.400000
19921 19922 1 0.10860 301825.392000
19921 19923 1 0.13986 296436.400000
19923 19924 1 0.10860 301825.392000
19923 19925 1 0.13986 296436.400000
19925 19926 1 0.10860 301825.392000
19927 19928 1 0.10860 301825.392000
19928 19929 1 0.13986 296436.400000
19928 19937 1 0.13986 296436.400000
19929 19930 1 0.18850 35430.112000
19929 19931 1 0.13986 296436.400000
19931 19932 1 0.10860 301825.392000
19931 19933 1 0.13986 296436.400000
19933 19934 1 0.10860 301825.392000
19933 19935 1 0.13986 296436.400000
19935 19936 1 0.10860 301825.392000
19935 19937 1 0.13986 296436.400000
19937 19938 1 0.10860 301825.392000
19939 19940 1 0.10860 301825.392000
19940 19941 1 0.13986 296436.400000
19940 19949 1 0.13986 296436.400000
19941 19942 1 0.18850 35430.112000
19941 19943 1 0.13986 296436.400000
19943 19944 1 0.10860 301825.392000
19943 19945 1 0.13986 296436.400000
19945 19946 1 0.10860 301825.392000
19945 19947 1 0.13986 296436.400000
19947 19948 1 0.10860 301825.392000
19947 19949 1 0.13986 296436.400000
19949 19950 1 0.10860 301825.392000
19951 19952 1 0.10860 301825.392000
19952 19953 1 0.13986 296436.400000
19952 19961 1 0.13986 296436.400000
19953 19954 1 0.18850 35430.112000
19953 19955 1 0.13986 296436.400000
19955 19956 1 0.10860 301825.392000
19955 19957 1 0.13986 296436.400000
19957 19958 1 0.10860 301825.392000
19957 19959 1 0.13986 296436.400000
19959 19960 1 0.10860 301825.392000
19959 19961 1 0.13986 296436.400000
19961 19962 1 0.10860 301825.392000
19963 19964 1 0.10860 301825.392000
19964 19965 1 0.13986 296436.400000
19964 19973 1 0.13986 296436.400000
19965 19966 1 0.18850 35430.112000
19965 19967 1 0.13986 296436.400000
19967 19968 1 0.10860 301825.392000
19967 19969 1 0.13986 296436.400000
19969 19970 1 0.10860 301825.392000
19969 19971 1 0.13986 296436.400000
19971 19972 1 0.10860 301825.392000
19971 19973 1 0.13986 296436.400000
19973 19974 1 0.10860 301825.392000
19975 19976 1 0.10860 301825.392000
19976 19977 1 0.13986 296436.400000
19976 19985 1 0.13986 296436.400000
19977 19978 1 0.18850 35430.112000
19977 19979 1 0.13986 296436.400000
19979 19980 1 0.10860 301825.392000
19979 19981 1 0.13986 296436.400000
19981 19982 1 0.10860 301825.392000
19981 19983 1 0.13986 296436.400000
19983 19984 1 0.10860 301825.392000
19983 19985 1 0.13986 296436.400000
19985 19986 1 0.10860 301825.392000
19987 19988 1 0.10860 301825.392000
19988 19989 1 0.13986 296436.400000
19988 19997 1 0.13986 296436.400000
19989 19990 1 0.18850 35430.112000
19989 19991 1 0.13986 296436.400000
19991 19992 1 0.10860 301825.392000
19991 19993 1 0.13986 296436.400000
19993 19994 1 0.10860 301825.392000
19993 19995 1 0.13986 296436.400000
19995 19996 1 0.10860 301825.392000
19995 19997 1 0.13986 296436.400000
19997 19998 1 0.10860 301825.392000
19999 20000 1 0.10860 301825.392000
20000 20001 1 0.13986 296436.400000
20000 20009 1 0.13986 296436.400000
20001 20002 1 0.18850 35430.112000
20001 20003 1 0.13986 296436.400000
20003 20004 1 0.10860 301825.392000
20003 20005 1 0.13986 296436.400000
20005 20006 1 0.10860 301825.392000
20005 20007 1 0.13986 296436.400000
20007 20008 1 0.10860 301825.392000
20007 20009 1 0.13986 296436.400000
20009 20010 1 0.10860 301825.392000
20011 20012 1 0.10860 301825.392000
20012 20013 1 0.13986 296436.400000
20012 20021 1 0.13986 296436.400000
20013 20014 1 0.18850 35430.112000
20013 20015 1 0.13986 296436.400000
20015 20016 1 0.10860 301825.392000
20015 20017 1 0.13986 296436.400000
20017 20018 1 0.10860 301825.392000
20017 20019 1 0.13986 296436.400000
20019 20020 1 0.10860 301825.392000
20019 20021 1 0.13986 296436.400000
20021 20022 1 0.10860 301825.392000
20023 20024 1 0.10860 301825.392000
20024 20025 1 0.13986 296436.400000
20024 20033 1 0.13986 296436.400000
20025 20026 1 0.18850 35430.112000
20025 20027 1 0.13986 296436.400000
20027 20028 1 0.10860 301825.392000
20027 20029 1 0.13986 296436.400000
20029 20030 1 0.10860 301825.392000
20029 20031 1 0.13986 296436.400000
20031 20032 1 0.10860 301825.392000
20031 20033 1 0.13986 296436.400000
20033 20034 1 0.10860 301825.392000
20035 20036 1 0.10860 301825.392000
20036 20037 1 0.13986 296436.400000
20036 20045 1 0.13986 296436.400000
20037 20038 1 0.18850 35430.112000
20037 20039 1 0.13986 296436.400000
20039 20040 1 0.10860 301825.392000
20039 20041 1 0.13986 296436.400000
20041 20042 1 0.10860 301825.392000
20041 20043 1 0.13986 296436.400000
20043 20044 1 0.10860 301825.392000
20043 20045 1 0.13986 296436.400000
20045 20046 1 0.10860 301825.392000
20047 20048 1 0.10860 301825.392000
20048 20049 1 0.13986 296436.400000
20048 20057 1 0.13986 296436.400000
20049 20050 1 0.18850 35430.112000
20049 20051 1 0.13986 296436.400000
20051 20052 1 0.10860 301825.392000
20051 20053 1 0.13986 296436.400000
20053 20054 1 0.10860 301825.392000
20053 20055 1 0.13986 296436.400000
20055 20056 1 0.10860 301825.392000
20055 20057 1 0.13986 296436.400000
20057 20058 1 0.10860 301825.392000
20059 20060 1 0.10860 301825.392000
20060 20061 1 0.13986 296436.400000
20060 20069 1 0.13986 296436.400000
20061 20062 1 0.18850 35430.112000
20061 20063 1 0.13986 296436.400000
20063 20064 1 0.10860 301825.392000
20063 20065 1 0.13986 296436.400000
20065 20066 1 0.10860 301825.392000
20065 20067 1 0.13986 296436.400000
20067 20068 1 0.10860 301825.392000
20067 20069 1 0.13986 296436.400000
20069 20070 1 0.10860 301825.392000
20071 20072 1 0.10860 301825.392000
20072 20073 1 0.13986 296436.400000
20072 20081 1 0.13986 296436.400000
20073 20074 1 0.18850 35430.112000
20073 20075 1 0.13986 296436.400000
20075 20076 1 0.10860 301825.392000
20075 20077 1 0.13986 296436.400000
20077 20078 1 0.10860 301825.392000
20077 20079 1 0.13986 296436.400000
20079 20080 1 0.10860 301825.392000
20079 20081 1 0.13986 296436.400000
20081 20082 1 0.10860 301825.392000
20083 20084 1 0.10860 301825.392000
20084 20085 1 0.13986 296436.400000
20084 20093 1 0.13986 296436.400000
20085 20086 1 0.18850 35430.112000
20085 20087 1 0.13986 296436.400000
20087 20088 1 0.10860 301825.392000
20087 20089 1 0.13986 296436.400000
20089 20090 1 0.10860 301825.392000
20089 20091 1 0.13986 296436.400000
20091 20092 1 0.10860 301825.392000
20091 20093 1 0.13986 296436.400000
20093 20094 1 0.10860 301825.392000
20095 20096 1 0.10860 301825.392000
20096 20097 1 0.13986 296436.400000
20096 20105 1 0.13986 296436.400000
20097 20098 1 0.18850 35430.112000
20097 20099 1 0.13986 296436.400000
20099 20100 1 0.10860 301825.392000
20099 20101 1 0.13986 296436.400000
20101 20102 1 0.10860 301825.392000
20101 20103 1 0.13986 296436.400000
20103 20104 1 0.10860 301825.392000
20103 20105 1 0.13986 296436.400000
20105 20106 1 0.10860 301825.392000
20107 20108 1 0.10860 301825.392000
20108 20109 1 0.13986 296436.400000
20108 20117 1 0.13986 296436.400000
20109 20110 1 0.18850 35430.112000
20109 20111 1 0.13986 296436.400000
20111 20112 1 0.10860 301825.392000
20111 20113 1 0.13986 296436.400000
20113 20114 1 0.10860 301825.392000
20113 20115 1 0.13986 296436.400000
20115 20116 1 0.10860 301825.392000
20115 20117 1 0.13986 296436.400000
20117 20118 1 0.10860 301825.392000
20119 20120 1 0.10860 301825.392000
20120 20121 1 0.13986 296436.400000
20120 20129 1 0.13986 296436.400000
20121 20122 1 0.18850 35430.112000
20121 20123 1 0.13986 296436.400000
20123 20124 1 0.10860 301825.392000
20123 20125 1 0.13986 296436.400000
20125 20126 1 0.10860 301825.392000
20125 20127 1 0.13986 296436.400000
20127 20128 1 0.10860 301825.392000
20127 20129 1 0.13986 296436.400000
20129 20130 1 0.10860 301825.392000
20131 20132 1 0.10860 301825.392000
20132 20133 1 0.13986 296436.400000
20132 20141 1 0.13986 296436.400000
20133 20134 1 0.18850 35430.112000
20133 20135 1 0.13986 296436.400000
20135 20136 1 0.10860 301825.392000
20135 20137 1 0.13986 296436.400000
20137 20138 1 0.10860 301825.392000
20137 20139 1 0.13986 296436.400000
20139 20140 1 0.10860 301825.392000
20139 20141 1 0.13986 296436.400000
20141 20142 1 0.10860 301825.392000
20143 20144 1 0.10860 301825.392000
20144 20145 1 0.13986 296436.400000
20144 20153 1 0.13986 296436.400000
20145 20146 1 0.18850 35430.112000
20145 20147 1 0.13986 296436.400000
20147 20148 1 0.10860 301825.392000
20147 20149 1 0.13986 296436.400000
20149 20150 1 0.10860 301825.392000
20149 20151 1 0.13986 296436.400000
20151 20152 1 0.10860 301825.392000
20151 20153 1 0.13986 296436.400000
20153 20154 1 0.10860 301825.392000
20155 20156 1 0.10860 301825.392000
20156 20157 1 0.13986 296436.400000
20156 20165 1 0.13986 296436.400000
20157 20158 1 0.18850 35430.112000
20157 20159 1 0.13986 296436.400000
20159 20160 1 0.10860 301825.392000
20159 20161 1 0.13986 296436.400000
20161 20162 1 0.10860 301825.392000
20161 20163 1 0.13986 296436.400000
20163 20164 1 0.10860 301825.392000
20163 20165 1 0.13986 296436.400000
20165 20166 1 0.10860 301825.392000
20167 20168 1 0.10860 301825.392000
20168 20169 1 0.13986 296436.400000
20168 20177 1 0.13986 296436.400000
20169 20170 1 0.18850 35430.112000
20169 20171 1 0.13986 296436.400000
20171 20172 1 0.10860 301825.392000
20171 20173 1 0.13986 296436.400000
20173 20174 1 0.10860 301825.392000
20173 20175 1 0.13986 296436.400000
20175 20176 1 0.10860 301825.392000
20175 20177 1 0.13986 296436.400000
20177 20178 1 0.10860 301825.392000
20179 20180 1 0.10860 301825.392000
20180 20181 1 0.13986 296436.400000
20180 20189 1 0.13986 296436.400000
20181 20182 1 0.18850 35430.112000
20181 20183 1 0.13986 296436.400000
20183 20184 1 0.10860 301825.392000
20183 20185 1 0.13986 296436.400000
20185 20186 1 0.10860 301825.392000
20185 20187 1 0.13986 296436.400000
20187 20188 1 0.10860 301825.392000
20187 20189 1 0.13986 296436.400000
20189 20190 1 0.10860 301825.392000
20191 20192 1 0.10860 301825.392000
20192 20193 1 0.13986 296436.400000
20192 20201 1 0.13986 296436.400000
20193 20194 1 0.18850 35430.112000
20193 20195 1 0.13986 296436.400000
20195 20196 1 0.10860 301825.392000
20195 20197 1 0.13986 296436.400000
20197 20198 1 0.10860 301825.392000
20197 20199 1 0.13986 296436.400000
20199 20200 1 0.10860 301825.392000
20199 20201 1 0.13986 296436.400000
20201 20202 1 0.10860 301825.392000
20203 20204 1 0.10860 301825.392000
20204 20205 1 0.13986 296436.400000
20204 20213 1 0.13986 296436.400000
20205 20206 1 0.18850 35430.112000
20205 20207 1 0.13986 296436.400000
20207 20208 1 0.10860 301825.392000
20207 20209 1 0.13986 296436.400000
20209 20210 1 0.10860 301825.392000
20209 20211 1 0.13986 296436.400000
20211 20212 1 0.10860 301825.392000
20211 20213 1 0.13986 296436.400000
20213 20214 1 0.10860 301825.392000
20215 20216 1 0.10860 301825.392000
20216 20217 1 0.13986 296436.400000
20216 20225 1 0.13986 296436.400000
20217 20218 1 0.18850 35430.112000
20217 20219 1 0.13986 296436.400000
20219 20220 1 0.10860 301825.392000
20219 20221 1 0.13986 296436.400000
20221 20222 1 0.10860 301825.392000
20221 20223 1 0.13986 296436.400000
20223 20224 1 0.10860 301825.392000
20223 20225 1 0.13986 296436.400000
20225 20226 1 0.10860 301825.392000
20227 20228 1 0.10860 301825.392000
20228 20229 1 0.13986 296436.400000
20228 20237 1 0.13986 296436.400000
20229 20230 1 0.18850 35430.112000
20229 20231 1 0.13986 296436.400000
20231 20232 1 0.10860 301825.392000
20231 20233 1 0.13986 296436.400000
20233 20234 1 0.10860 301825.392000
20233 20235 1 0.13986 296436.400000
20235 20236 1 0.10860 301825.392000
20235 20237 1 0.13986 296436.400000
20237 20238 1 0.10860 301825.392000
20239 20240 1 0.10860 301825.392000
20240 20241 1 0.13986 296436.400000
20240 20249 1 0.13986 296436.400000
20241 20242 1 0.18850 35430.112000
20241 20243 1 0.13986 296436.400000
20243 20244 1 0.10860 301825.392000
20243 20245 1 0.13986 296436.400000
20245 20246 1 0.10860 301825.392000
20245 20247 1 0.13986 296436.400000
20247 20248 1 0.10860 301825.392000
20247 20249 1 0.13986 296436.400000
20249 20250 1 0.10860 301825.392000
20251 20252 1 0.10860 301825.392000
20252 20253 1 0.13986 296436.400000
20252 20261 1 0.13986 296436.400000
20253 20254 1 0.18850 35430.112000
20253 20255 1 0.13986 296436.400000
20255 20256 1 0.10860 301825.392000
20255 20257 1 0.13986 296436.400000
20257 20258 1 0.10860 301825.392000
20257 20259 1 0.13986 296436.400000
20259 20260 1 0.10860 301825.392000
20259 20261 1 0.13986 296436.400000
20261 20262 1 0.10860 301825.392000
20263 20264 1 0.10860 301825.392000
20264 20265 1 0.13986 296436.400000
20264 20273 1 0.13986 296436.400000
20265 20266 1 0.18850 35430.112000
20265 20267 1 0.13986 296436.400000
20267 20268 1 0.10860 301825.392000
20267 20269 1 0.13986 296436.400000
20269 20270 1 0.10860 301825.392000
20269 20271 1 0.13986 296436.400000
20271 20272 1 0.10860 301825.392000
20271 20273 1 0.13986 296436.400000
20273 20274 1 0.10860 301825.392000
20275 20276 1 0.10860 301825.392000
20276 20277 1 0.13986 296436.400000
20276 20285 1 0.13986 296436.400000
20277 20278 1 0.18850 35430.112000
20277 20279 1 0.13986 296436.400000
20279 20280 1 0.10860 301825.392000
20279 20281 1 0.13986 296436.400000
20281 20282 1 0.10860 301825.392000
20281 20283 1 0.13986 296436.400000
20283 20284 1 0.10860 301825.392000
20283 20285 1 0.13986 296436.400000
20285 20286 1 0.10860 301825.392000
20287 20288 1 0.10860 301825.392000
20288 20289 1 0.13986 296436.400000
20288 20297 1 0.13986 296436.400000
20289 20290 1 0.18850 35430.112000
20289 20291 1 0.13986 296436.400000
20291 20292 1 0.10860 301825.392000
20291 20293 1 0.13986 296436.400000
20293 20294 1 0.10860 301825.392000
20293 20295 1 0.13986 296436.400000
20295 20296 1 0.10860 301825.392000
20295 20297 1 0.13986 296436.400000
20297 20298 1 0.10860 301825.392000
20299 20300 1 0.10860 301825.392000
20300 20301 1 0.13986 296436.400000
20300 20309 1 0.13986 296436.400000
20301 20302 1 0.18850 35430.112000
20301 20303 1 0.13986 296436.400000
20303 20304 1 0.10860 301825.392000
20303 20305 1 0.13986 296436.400000
20305 20306 1 0.10860 301825.392000
20305 20307 1 0.13986 296436.400000
20307 20308 1 0.10860 301825.392000
20307 20309 1 0.13986 296436.400000
20309 20310 1 0.10860 301825.392000
20311 20312 1 0.10860 301825.392000
20312 20313 1 0.13986 296436.400000
20312 20321 1 0.13986 296436.400000
20313 20314 1 0.18850 35430.112000
20313 20315 1 0.13986 296436.400000
20315 20316 1 0.10860 301825.392000
20315 20317 1 0.13986 296436.400000
20317 20318 1 0.10860 301825.392000
20317 20319 1 0.13986 296436.400000
20319 20320 1 0.10860 301825.392000
20319 20321 1 0.13986 296436.400000
20321 20322 1 0.10860 301825.392000
20323 20324 1 0.10860 301825.392000
20324 20325 1 0.13986 296436.400000
20324 20333 1 0.13986 296436.400000
20325 20326 1 0.18850 35430.112000
20325 20327 1 0.13986 296436.400000
20327 20328 1 0.10860 301825.392000
20327 20329 1 0.13986 296436.400000
20329 20330 1 0.10860 301825.392000
20329 20331 1 0.13986 296436.400000
20331 20332 1 0.10860 301825.392000
20331 20333 1 0.13986 296436.400000
20333 20334 1 0.10860 301825.392000
20335 20336 1 0.10860 301825.392000
20336 20337 1 0.13986 296436.400000
20336 20345 1 0.13986 296436.400000
20337 20338 1 0.18850 35430.112000
20337 20339 1 0.13986 296436.400000
20339 20340 1 0.10860 301825.392000
20339 20341 1 0.13986 296436.400000
20341 20342 1 0.10860 301825.392000
20341 20343 1 0.13986 296436.400000
20343 20344 1 0.10860 301825.392000
20343 20345 1 0.13986 296436.400000
20345 20346 1 0.10860 301825.392000
20347 20348 1 0.10860 301825.392000
20348 20349 1 0.13986 296436.400000
20348 20357 1 0.13986 296436.400000
20349 20350 1 0.18850 35430.112000
20349 20351 1 0.13986 296436.400000
20351 20352 1 0.10860 301825.392000
20351 20353 1 0.13986 296436.400000
20353 20354 1 0.10860 301825.392000
20353 20355 1 0.13986 296436.400000
20355 20356 1 0.10860 301825.392000
20355 20357 1 0.13986 296436.400000
20357 20358 1 0.10860 301825.392000
20359 20360 1 0.10860 301825.392000
20360 20361 1 0.13986 296436.400000
20360 20369 1 0.13986 296436.400000
20361 20362 1 0.18850 35430.112000
20361 20363 1 0.13986 296436.400000
20363 20364 1 0.10860 301825.392000
20363 20365 1 0.13986 296436.400000
20365 20366 1 0.10860 301825.392000
20365 20367 1 0.13986 296436.400000
20367 20368 1 0.10860 301825.392000
20367 20369 1 0.13986 296436.400000
20369 20370 1 0.10860 301825.392000
20371 20372 1 0.10860 301825.392000
20372 20373 1 0.13986 296436.400000
20372 20381 1 0.13986 296436.400000
20373 20374 1 0.18850 35430.112000
20373 20375 1 0.13986 296436.400000
20375 20376 1 0.10860 301825.392000
20375 20377 1 0.13986 296436.400000
20377 20378 1 0.10860 301825.392000
20377 20379 1 0.13986 296436.400000
20379 20380 1 0.10860 301825.392000
20379 20381 1 0.13986 296436.400000
20381 20382 1 0.10860 301825.392000
20383 20384 1 0.10860 301825.392000
20384 20385 1 0.13986 296436.400000
20384 20393 1 0.13986 296436.400000
20385 20386 1 0.18850 35430.112000
20385 20387 1 0.13986 296436.400000
20387 20388 1 0.10860 301825.392000
20387 20389 1 0.13986 296436.400000
20389 20390 1 0.10860 301825.392000
20389 20391 1 0.13986 296436.400000
20391 20392 1 0.10860 301825.392000
20391 20393 1 0.13986 296436.400000
20393 20394 1 0.10860 301825.392000
20395 20396 1 0.10860 301825.392000
20396 20397 1 0.13986 296436.400000
20396 20405 1 0.13986 296436.400000
20397 20398 1 0.18850 35430.112000
20397 20399 1 0.13986 296436.400000
20399 20400 1 0.10860 301825.392000
20399 20401 1 0.13986 296436.400000
20401 20402 1 0.10860 301825.392000
20401 20403 1 0.13986 296436.400000
20403 20404 1 0.10860 301825.392000
20403 20405 1 0.13986 296436.400000
20405 20406 1 0.10860 301825.392000
20407 20408 1 0.10860 301825.392000
20408 20409 1 0.13986 296436.400000
20408 20417 1 0.13986 296436.400000
20409 20410 1 0.18850 35430.112000
20409 20411 1 0.13986 296436.400000
20411 20412 1 0.10860 301825.392000
20411 20413 1 0.13986 296436.400000
20413 20414 1 0.10860 301825.392000
20413 20415 1 0.13986 296436.400000
20415 20416 1 0.10860 301825.392000
20415 20417 1 0.13986 296436.400000
20417 20418 1 0.10860 301825.392000
20419 20420 1 0.10860 301825.392000
20420 20421 1 0.13986 296436.400000
20420 20429 1 0.13986 296436.400000
20421 20422 1 0.18850 35430.112000
20421 20423 1 0.13986 296436.400000
20423 20424 1 0.10860 301825.392000
20423 20425 1 0.13986 296436.400000
20425 20426 1 0.10860 301825.392000
20425 20427 1 0.13986 296436.400000
20427 20428 1 0.10860 301825.392000
20427 20429 1 0.13986 296436.400000
20429 20430 1 0.10860 301825.392000
20431 20432 1 0.10860 301825.392000
20432 20433 1 0.13986 296436.400000
20432 20441 1 0.13986 296436.400000
20433 20434 1 0.18850 35430.112000
20433 20435 1 0.13986 296436.400000
20435 20436 1 0.10860 301825.392000
20435 20437 1 0.13986 296436.400000
20437 20438 1 0.10860 301825.392000
20437 20439 1 0.13986 296436.400000
20439 20440 1 0.10860 301825.392000
20439 20441 1 0.13986 296436.400000
20441 20442 1 0.10860 301825.392000
20443 20444 1 0.10860 301825.392000
20444 20445 1 0.13986 296436.400000
20444 20453 1 0.13986 296436.400000
20445 20446 1 0.18850 35430.112000
20445 20447 1 0.13986 296436.400000
20447 20448 1 0.10860 301825.392000
20447 20449 1 0.13986 296436.400000
20449 20450 1 0.10860 301825.392000
20449 20451 1 0.13986 296436.400000
20451 20452 1 0.10860 301825.392000
20451 20453 1 0.13986 296436.400000
20453 20454 1 0.10860 301825.392000
20455 20456 1 0.10860 301825.392000
20456 20457 1 0.13986 296436.400000
20456 20465 1 0.13986 296436.400000
20457 20458 1 0.18850 35430.112000
20457 20459 1 0.13986 296436.400000
20459 20460 1 0.10860 301825.392000
20459 20461 1 0.13986 296436.400000
20461 20462 1 0.10860 301825.392000
20461 20463 1 0.13986 296436.400000
20463 20464 1 0.10860 301825.392000
20463 20465 1 0.13986 296436.400000
20465 20466 1 0.10860 301825.392000
20467 20468 1 0.10860 301825.392000
20468 20469 1 0.13986 296436.400000
20468 20477 1 0.13986 296436.400000
20469 20470 1 0.18850 35430.112000
20469 20471 1 0.13986 296436.400000
20471 20472 1 0.10860 301825.392000
20471 20473 1 0.13986 296436.400000
20473 20474 1 0.10860 301825.392000
20473 20475 1 0.13986 296436.400000
20475 20476 1 0.10860 301825.392000
20475 20477 1 0.13986 296436.400000
20477 20478 1 0.10860 301825.392000
20479 20480 1 0.10860 301825.392000
20480 20481 1 0.13986 296436.400000
20480 20489 1 0.13986 296436.400000
20481 20482 1 0.18850 35430.112000
20481 20483 1 0.13986 296436.400000
20483 20484 1 0.10860 301825.392000
20483 20485 1 0.13986 296436.400000
20485 20486 1 0.10860 301825.392000
20485 20487 1 0.13986 296436.400000
20487 20488 1 0.10860 301825.392000
20487 20489 1 0.13986 296436.400000
20489 20490 1 0.10860 301825.392000
20491 20492 1 0.10860 301825.392000
20492 20493 1 0.13986 296436.400000
20492 20501 1 0.13986 296436.400000
20493 20494 1 0.18850 35430.112000
20493 20495 1 0.13986 296436.400000
20495 20496 1 0.10860 301825.392000
20495 20497 1 0.13986 296436.400000
20497 20498 1 0.10860 301825.392000
20497 20499 1 0.13986 296436.400000
20499 20500 1 0.10860 301825.392000
20499 20501 1 0.13986 296436.400000
20501 20502 1 0.10860 301825.392000
20503 20504 1 0.10860 301825.392000
20504 20505 1 0.13986 296436.400000
20504 20513 1 0.13986 296436.400000
20505 20506 1 0.18850 35430.112000
20505 20507 1 0.13986 296436.400000
20507 20508 1 0.10860 301825.392000
20507 20509 1 0.13986 296436.400000
20509 20510 1 0.10860 301825.392000
20509 20511 1 0.13986 296436.400000
20511 20512 1 0.10860 301825.392000
20511 20513 1 0.13986 296436.400000
20513 20514 1 0.10860 301825.392000
20515 20516 1 0.10860 301825.392000
20516 20517 1 0.13986 296436.400000
20516 20525 1 0.13986 296436.400000
20517 20518 1 0.18850 35430.112000
20517 20519 1 0.13986 296436.400000
20519 20520 1 0.10860 301825.392000
20519 20521 1 0.13986 296436.400000
20521 20522 1 0.10860 301825.392000
20521 20523 1 0.13986 296436.400000
20523 20524 1 0.10860 301825.392000
20523 20525 1 0.13986 296436.400000
20525 20526 1 0.10860 301825.392000
20527 20528 1 0.10860 301825.392000
20528 20529 1 0.13986 296436.400000
20528 20537 1 0.13986 296436.400000
20529 20530 1 0.18850 35430.112000
20529 20531 1 0.13986 296436.400000
20531 20532 1 0.10860 301825.392000
20531 20533 1 0.13986 296436.400000
20533 20534 1 0.10860 301825.392000
20533 20535 1 0.13986 296436.400000
20535 20536 1 0.10860 301825.392000
20535 20537 1 0.13986 296436.400000
20537 20538 1 0.10860 301825.392000
20539 20540 1 0.10860 301825.392000
20540 20541 1 0.13986 296436.400000
20540 20549 1 0.13986 296436.400000
20541 20542 1 0.18850 35430.112000
20541 20543 1 0.13986 296436.400000
20543 20544 1 0.10860 301825.392000
20543 20545 1 0.13986 296436.400000
20545 20546 1 0.10860 301825.392000
20545 20547 1 0.13986 296436.400000
20547 20548 1 0.10860 301825.392000
20547 20549 1 0.13986 296436.400000
20549 20550 1 0.10860 301825.392000
20551 20552 1 0.10860 301825.392000
20552 20553 1 0.13986 296436.400000
20552 20561 1 0.13986 296436.400000
20553 20554 1 0.18850 35430.112000
20553 20555 1 0.13986 296436.400000
20555 20556 1 0.10860 301825.392000
20555 20557 1 0.13986 296436.400000
20557 20558 1 0.10860 301825.392000
20557 20559 1 0.13986 296436.400000
20559 20560 1 0.10860 301825.392000
20559 20561 1 0.13986 296436.400000
20561 20562 1 0.10860 301825.392000
20563 20564 1 0.10860 301825.392000
20564 20565 1 0.13986 296436.400000
20564 20573 1 0.13986 296436.400000
20565 20566 1 0.18850 35430.112000
20565 20567 1 0.13986 296436.400000
20567 20568 1 0.10860 301825.392000
20567 20569 1 0.13986 296436.400000
20569 20570 1 0.10860 301825.392000
20569 20571 1 0.13986 296436.400000
20571 20572 1 0.10860 301825.392000
20571 20573 1 0.13986 296436.400000
20573 20574 1 0.10860 301825.392000
20575 20576 1 0.10860 301825.392000
20576 20577 1 0.13986 296436.400000
20576 20585 1 0.13986 296436.400000
20577 20578 1 0.18850 35430.112000
20577 20579 1 0.13986 296436.400000
20579 20580 1 0.10860 301825.392000
20579 20581 1 0.13986 296436.400000
20581 20582 1 0.10860 301825.392000
20581 20583 1 0.13986 296436.400000
20583 20584 1 0.10860 301825.392000
20583 20585 1 0.13986 296436.400000
20585 20586 1 0.10860 301825.392000
20587 20588 1 0.10860 301825.392000
20588 20589 1 0.13986 296436.400000
20588 20597 1 0.13986 296436.400000
20589 20590 1 0.18850 35430.112000
20589 20591 1 0.13986 296436.400000
20591 20592 1 0.10860 301825.392000
20591 20593 1 0.13986 296436.400000
20593 20594 1 0.10860 301825.392000
20593 20595 1 0.13986 296436.400000
20595 20596 1 0.10860 301825.392000
20595 20597 1 0.13986 296436.400000
20597 20598 1 0.10860 301825.392000
20599 20600 1 0.10860 301825.392000
20600 20601 1 0.13986 296436.400000
20600 20609 1 0.13986 296436.400000
20601 20602 1 0.18850 35430.112000
20601 20603 1 0.13986 296436.400000
20603 20604 1 0.10860 301825.392000
20603 20605 1 0.13986 296436.400000
20605 20606 1 0.10860 301825.392000
20605 20607 1 0.13986 296436.400000
20607 20608 1 0.10860 301825.392000
20607 20609 1 0.13986 296436.400000
20609 20610 1 0.10860 301825.392000
20611 20612 1 0.10860 301825.392000
20612 20613 1 0.13986 296436.400000
20612 20621 1 0.13986 296436.400000
20613 20614 1 0.18850 35430.112000
20613 20615 1 0.13986 296436.400000
20615 20616 1 0.10860 301825.392000
20615 20617 1 0.13986 296436.400000
20617 20618 1 0.10860 301825.392000
20617 20619 1 0.13986 296436.400000
20619 20620 1 0.10860 301825.392000
20619 20621 1 0.13986 296436.400000
20621 20622 1 0.10860 301825.392000
20623 20624 1 0.10860 301825.392000
20624 20625 1 0.13986 296436.400000
20624 20633 1 0.13986 296436.400000
20625 20626 1 0.18850 35430.112000
20625 20627 1 0.13986 296436.400000
20627 20628 1 0.10860 301825.392000
20627 20629 1 0.13986 296436.400000
20629 20630 1 0.10860 301825.392000
20629 20631 1 0.13986 296436.400000
20631 20632 1 0.10860 301825.392000
20631 20633 1 0.13986 296436.400000
20633 20634 1 0.10860 301825.392000
20635 20636 1 0.10860 301825.392000
20636 20637 1 0.13986 296436.400000
20636 20645 1 0.13986 296436.400000
20637 20638 1 0.18850 35430.112000
20637 20639 1 0.13986 296436.400000
20639 20640 1 0.10860 301825.392000
20639 20641 1 0.13986 296436.400000
20641 20642 1 0.10860 301825.392000
20641 20643 1 0.13986 296436.400000
20643 20644 1 0.10860 301825.392000
20643 20645 1 0.13986 296436.400000
20645 20646 1 0.10860 301825.392000
20647 20648 1 0.10860 301825.392000
20648 20649 1 0.13986 296436.400000
20648 20657 1 0.13986 296436.400000
20649 20650 1 0.18850 35430.112000
20649 20651 1 0.13986 296436.400000
20651 20652 1 0.10860 301825.392000
20651 20653 1 0.13986 296436.400000
20653 20654 1 0.10860 301825.392000
20653 20655 1 0.13986 296436.400000
20655 20656 1 0.10860 301825.392000
20655 20657 1 0.13986 296436.400000
20657 20658 1 0.10860 301825.392000
20659 20660 1 0.10860 301825.392000
20660 20661 1 0.13986 296436.400000
20660 20669 1 0.13986 296436.400000
20661 20662 1 0.18850 35430.112000
20661 20663 1 0.13986 296436.400000
20663 20664 1 0.10860 301825.392000
20663 20665 1 0.13986 296436.400000
20665 20666 1 0.10860 301825.392000
20665 20667 1 0.13986 296436.400000
20667 20668 1 0.10860 301825.392000
20667 20669 1 0.13986 296436.400000
20669 20670 1 0.10860 301825.392000
20671 20672 1 0.10860 301825.392000
20672 20673 1 0.13986 296436.400000
20672 20681 1 0.13986 296436.400000
20673 20674 1 0.18850 35430.112000
20673 20675 1 0.13986 296436.400000
20675 20676 1 0.10860 301825.392000
20675 20677 1 0.13986 296436.400000
20677 20678 1 0.10860 301825.392000
20677 20679 1 0.13986 296436.400000
20679 20680 1 0.10860 301825.392000
20679 20681 1 0.13986 296436.400000
20681 20682 1 0.10860 301825.392000
20683 20684 1 0.10860 301825.392000
20684 20685 1 0.13986 296436.400000
20684 20693 1 0.13986 296436.400000
20685 20686 1 0.18850 35430.112000
20685 20687 1 0.13986 296436.400000
20687 20688 1 0.10860 301825.392000
20687 20689 1 0.13986 296436.400000
20689 20690 1 0.10860 301825.392000
20689 20691 1 0.13986 296436.400000
20691 20692 1 0.10860 301825.392000
20691 20693 1 0.13986 296436.400000
20693 20694 1 0.10860 301825.392000
20695 20696 1 0.10860 301825.392000
20696 20697 1 0.13986 296436.400000
20696 20705 1 0.13986 296436.400000
20697 20698 1 0.18850 35430.112000
20697 20699 1 0.13986 296436.400000
20699 20700 1 0.10860 301825.392000
20699 20701 1 0.13986 296436.400000
20701 20702 1 0.10860 301825.392000
20701 20703 1 0.13986 296436.400000
20703 20704 1 0.10860 301825.392000
20703 20705 1 0.13986 296436.400000
20705 20706 1 0.10860 301825.392000
20707 20708 1 0.10860 301825.392000
20708 20709 1 0.13986 296436.400000
20708 20717 1 0.13986 296436.400000
20709 20710 1 0.18850 35430.112000
20709 20711 1 0.13986 296436.400000
20711 20712 1 0.10860 301825.392000
20711 20713 1 0.13986 296436.400000
20713 20714 1 0.10860 301825.392000
20713 20715 1 0.13986 296436.400000
20715 20716 1 0.10860 301825.392000
20715 20717 1 0.13986 296436.400000
20717 20718 1 0.10860 301825.392000
20719 20720 1 0.10860 301825.392000
20720 20721 1 0.13986 296436.400000
20720 20729 1 0.13986 296436.400000
20721 20722 1 0.18850 35430.112000
20721 20723 1 0.13986 296436.400000
20723 20724 1 0.10860 301825.392000
20723 20725 1 0.13986 296436.400000
20725 20726 1 0.10860 301825.392000
20725 20727 1 0.13986 296436.400000
20727 20728 1 0.10860 301825.392000
20727 20729 1 0.13986 296436.400000
20729 20730 1 0.10860 301825.392000
20731 20732 1 0.10860 301825.392000
20732 20733 1 0.13986 296436.400000
20732 20741 1 0.13986 296436.400000
20733 20734 1 0.18850 35430.112000
20733 20735 1 0.13986 296436.400000
20735 20736 1 0.10860 301825.392000
20735 20737 1 0.13986 296436.400000
20737 20738 1 0.10860 301825.392000
20737 20739 1 0.13986 296436.400000
20739 20740 1 0.10860 301825.392000
20739 20741 1 0.13986 296436.400000
20741 20742 1 0.10860 301825.392000
20743 20744 1 0.10860 301825.392000
20744 20745 1 0.13986 296436.400000
20744 20753 1 0.13986 296436.400000
20745 20746 1 0.18850 35430.112000
20745 20747 1 0.13986 296436.400000
20747 20748 1 0.10860 301825.392000
20747 20749 1 0.13986 296436.400000
20749 20750 1 0.10860 301825.392000
20749 20751 1 0.13986 296436.400000
20751 20752 1 0.10860 301825.392000
20751 20753 1 0.13986 296436.400000
20753 20754 1 0.10860 301825.392000
20755 20756 1 0.10860 301825.392000
20756 20757 1 0.13986 296436.400000
20756 20765 1 0.13986 296436.400000
20757 20758 1 0.18850 35430.112000
20757 20759 1 0.13986 296436.400000
20759 20760 1 0.10860 301825.392000
20759 20761 1 0.13986 296436.400000
20761 20762 1 0.10860 301825.392000
20761 20763 1 0.13986 296436.400000
20763 20764 1 0.10860 301825.392000
20763 20765 1 0.13986 296436.400000
20765 20766 1 0.10860 301825.392000
20767 20768 1 0.10860 301825.392000
20768 20769 1 0.13986 296436.400000
20768 20777 1 0.13986 296436.400000
20769 20770 1 0.18850 35430.112000
20769 20771 1 0.13986 296436.400000
20771 20772 1 0.10860 301825.392000
20771 20773 1 0.13986 296436.400000
20773 20774 1 0.10860 301825.392000
20773 20775 1 0.13986 296436.400000
20775 20776 1 0.10860 301825.392000
20775 20777 1 0.13986 296436.400000
20777 20778 1 0.10860 301825.392000
20779 20780 1 0.10860 301825.392000
20780 20781 1 0.13986 296436.400000
20780 20789 1 0.13986 296436.400000
20781 20782 1 0.18850 35430.112000
20781 20783 1 0.13986 296436.400000
20783 20784 1 0.10860 301825.392000
20783 20785 1 0.13986 296436.400000
20785 20786 1 0.10860 301825.392000
20785 20787 1 0.13986 296436.400000
20787 20788 1 0.10860 301825.392000
20787 20789 1 0.13986 296436.400000
20789 20790 1 0.10860 301825.392000
20791 20792 1 0.10860 301825.392000
20792 20793 1 0.13986 296436.400000
20792 20801 1 0.13986 296436.400000
20793 20794 1 0.18850 35430.112000
20793 20795 1 0.13986 296436.400000
20795 20796 1 0.10860 301825.392000
20795 20797 1 0.13986 296436.400000
20797 20798 1 0.10860 301825.392000
20797 20799 1 0.13986 296436.400000
20799 20800 1 0.10860 301825.392000
20799 20801 1 0.13986 296436.400000
20801 20802 1 0.10860 301825.392000
20803 20804 1 0.10860 301825.392000
20804 20805 1 0.13986 296436.400000
20804 20813 1 0.13986 296436.400000
20805 20806 1 0.18850 35430.112000
20805 20807 1 0.13986 296436.400000
20807 20808 1 0.10860 301825.392000
20807 20809 1 0.13986 296436.400000
20809 20810 1 0.10860 301825.392000
20809 20811 1 0.13986 296436.400000
20811 20812 1 0.10860 301825.392000
20811 20813 1 0.13986 296436.400000
20813 20814 1 0.10860 301825.392000
20815 20816 1 0.10860 301825.392000
20816 20817 1 0.13986 296436.400000
20816 20825 1 0.13986 296436.400000
20817 20818 1 0.18850 35430.112000
20817 20819 1 0.13986 296436.400000
20819 20820 1 0.10860 301825.392000
20819 20821 1 0.13986 296436.400000
20821 20822 1 0.10860 301825.392000
20821 20823 1 0.13986 296436.400000
20823 20824 1 0.10860 301825.392000
20823 20825 1 0.13986 296436.400000
20825 20826 1 0.10860 301825.392000
20827 20828 1 0.10860 301825.392000
20828 20829 1 0.13986 296436.400000
20828 20837 1 0.13986 296436.400000
20829 20830 1 0.18850 35430.112000
20829 20831 1 0.13986 296436.400000
20831 20832 1 0.10860 301825.392000
20831 20833 1 0.13986 296436.400000
20833 20834 1 0.10860 301825.392000
20833 20835 1 0.13986 296436.400000
20835 20836 1 0.10860 301825.392000
20835 20837 1 0.13986 296436.400000
20837 20838 1 0.10860 301825.392000
20839 20840 1 0.10860 301825.392000
20840 20841 1 0.13986 296436.400000
20840 20849 1 0.13986 296436.400000
20841 20842 1 0.18850 35430.112000
20841 20843 1 0.13986 296436.400000
20843 20844 1 0.10860 301825.392000
20843 20845 1 0.13986 296436.400000
20845 20846 1 0.10860 301825.392000
20845 20847 1 0.13986 296436.400000
20847 20848 1 0.10860 301825.392000
20847 20849 1 0.13986 296436.400000
20849 20850 1 0.10860 301825.392000
20851 20852 1 0.10860 301825.392000
20852 20853 1 0.13986 296436.400000
20852 20861 1 0.13986 296436.400000
20853 20854 1 0.18850 35430.112000
20853 20855 1 0.13986 296436.400000
20855 20856 1 0.10860 301825.392000
20855 20857 1 0.13986 296436.400000
20857 20858 1 0.10860 301825.392000
20857 20859 1 0.13986 296436.400000
20859 20860 1 0.10860 301825.392000
20859 20861 1 0.13986 296436.400000
20861 20862 1 0.10860 301825.392000
20863 20864 1 0.10860 301825.392000
20864 20865 1 0.13986 296436.400000
20864 20873 1 0.13986 296436.400000
20865 20866 1 0.18850 35430.112000
20865 20867 1 0.13986 296436.400000
20867 20868 1 0.10860 301825.392000
20867 20869 1 0.13986 296436.400000
20869 20870 1 0.10860 301825.392000
20869 20871 1 0.13986 296436.400000
20871 20872 1 0.10860 301825.392000
20871 20873 1 0.13986 296436.400000
20873 20874 1 0.10860 301825.392000
20875 20876 1 0.10860 301825.392000
20876 20877 1 0.13986 296436.400000
20876 20885 1 0.13986 296436.400000
20877 20878 1 0.18850 35430.112000
20877 20879 1 0.13986 296436.400000
20879 20880 1 0.10860 301825.392000
20879 20881 1 0.13986 296436.400000
20881 20882 1 0.10860 301825.392000
20881 20883 1 0.13986 296436.400000
20883 20884 1 0.10860 301825.392000
20883 20885 1 0.13986 296436.400000
20885 20886 1 0.10860 301825.392000
20887 20888 1 0.10860 301825.392000
20888 20889 1 0.13986 296436.400000
20888 20897 1 0.13986 296436.400000
20889 20890 1 0.18850 35430.112000
20889 20891 1 0.13986 296436.400000
20891 20892 1 0.10860 301825.392000
20891 20893 1 0.13986 296436.400000
20893 20894 1 0.10860 301825.392000
20893 20895 1 0.13986 296436.400000
20895 20896 1 0.10860 301825.392000
20895 20897 1 0.13986 296436.400000
20897 20898 1 0.10860 301825.392000
20899 20900 1 0.10860 301825.392000
20900 20901 1 0.13986 296436.400000
20900 20909 1 0.13986 296436.400000
20901 20902 1 0.18850 35430.112000
20901 20903 1 0.13986 296436.400000
20903 20904 1 0.10860 301825.392000
20903 20905 1 0.13986 296436.400000
20905 20906 1 0.10860 301825.392000
20905 20907 1 0.13986 296436.400000
20907 20908 1 0.10860 301825.392000
20907 20909 1 0.13986 296436.400000
20909 20910 1 0.10860 301825.392000
20911 20912 1 0.10860 301825.392000
20912 20913 1 0.13986 296436.400000
20912 20921 1 0.13986 296436.400000
20913 20914 1 0.18850 35430.112000
20913 20915 1 0.13986 296436.400000
20915 20916 1 0.10860 301825.392000
20915 20917 1 0.13986 296436.400000
20917 20918 1 0.10860 301825.392000
20917 20919 1 0.13986 296436.400000
20919 20920 1 0.10860 301825.392000
20919 20921 1 0.13986 296436.400000
20921 20922 1 0.10860 301825.392000
20923 20924 1 0.10860 301825.392000
20924 20925 1 0.13986 296436.400000
20924 20933 1 0.13986 296436.400000
20925 20926 1 0.18850 35430.112000
20925 20927 1 0.13986 296436.400000
20927 20928 1 0.10860 301825.392000
20927 20929 1 0.13986 296436.400000
20929 20930 1 0.10860 301825.392000
20929 20931 1 0.13986 296436.400000
20931 20932 1 0.10860 301825.392000
20931 20933 1 0.13986 296436.400000
20933 20934 1 0.10860 301825.392000
20935 20936 1 0.10860 301825.392000
20936 20937 1 0.13986 296436.400000
20936 20945 1 0.13986 296436.400000
20937 20938 1 0.18850 35430.112000
20937 20939 1 0.13986 296436.400000
20939 20940 1 0.10860 301825.392000
20939 20941 1 0.13986 296436.400000
20941 20942 1 0.10860 301825.392000
20941 20943 1 0.13986 296436.400000
20943 20944 1 0.10860 301825.392000
20943 20945 1 0.13986 296436.400000
20945 20946 1 0.10860 301825.392000
20947 20948 1 0.10860 301825.392000
20948 20949 1 0.13986 296436.400000
20948 20957 1 0.13986 296436.400000
20949 20950 1 0.18850 35430.112000
20949 20951 1 0.13986 296436.400000
20951 20952 1 0.10860 301825.392000
20951 20953 1 0.13986 296436.400000
20953 20954 1 0.10860 301825.392000
20953 20955 1 0.13986 296436.400000
20955 20956 1 0.10860 301825.392000
20955 20957 1 0.13986 296436.400000
20957 20958 1 0.10860 301825.392000
20959 20960 1 0.10860 301825.392000
20960 20961 1 0.13986 296436.400000
20960 20969 1 0.13986 296436.400000
20961 20962 1 0.18850 35430.112000
20961 20963 1 0.13986 296436.400000
20963 20964 1 0.10860 301825.392000
20963 20965 1 0.13986 296436.400000
20965 20966 1 0.10860 301825.392000
20965 20967 1 0.13986 296436.400000
20967 20968 1 0.10860 301825.392000
20967 20969 1 0.13986 296436.400000
20969 20970 1 0.10860 301825.392000
20971 20972 1 0.10860 301825.392000
20972 20973 1 0.13986 296436.400000
20972 20981 1 0.13986 296436.400000
20973 20974 1 0.18850 35430.112000
20973 20975 1 0.13986 296436.400000
20975 20976 1 0.10860 301825.392000
20975 20977 1 0.13986 296436.400000
20977 20978 1 0.10860 301825.392000
20977 20979 1 0.13986 296436.400000
20979 20980 1 0.10860 301825.392000
20979 20981 1 0.13986 296436.400000
20981 20982 1 0.10860 301825.392000
20983 20984 1 0.10860 301825.392000
20984 20985 1 0.13986 296436.400000
20984 20993 1 0.13986 296436.400000
20985 20986 1 0.18850 35430.112000
20985 20987 1 0.13986 296436.400000
20987 20988 1 0.10860 301825.392000
20987 20989 1 0.13986 296436.400000
20989 20990 1 0.10860 301825.392000
20989 20991 1 0.13986 296436.400000
20991 20992 1 0.10860 301825.392000
20991 20993 1 0.13986 296436.400000
20993 20994 1 0.10860 301825.392000
20995 20996 1 0.10860 301825.392000
20996 20997 1 0.13986 296436.400000
20996 21005 1 0.13986 296436.400000
20997 20998 1 0.18850 35430.112000
20997 20999 1 0.13986 296436.400000
20999 21000 1 0.10860 301825.392000
20999 21001 1 0.13986 296436.400000
21001 21002 1 0.10860 301825.392000
21001 21003 1 0.13986 296436.400000
21003 21004 1 0.10860 301825.392000
21003 21005 1 0.13986 296436.400000
21005 21006 1 0.10860 301825.392000
21007 21008 1 0.10860 301825.392000
21008 21009 1 0.13986 296436.400000
21008 21017 1 0.13986 296436.400000
21009 21010 1 0.18850 35430.112000
21009 21011 1 0.13986 296436.400000
21011 21012 1 0.10860 301825.392000
21011 21013 1 0.13986 296436.400000
21013 21014 1 0.10860 301825.392000
21013 21015 1 0.13986 296436.400000
21015 21016 1 0.10860 301825.392000
21015 21017 1 0.13986 296436.400000
21017 21018 1 0.10860 301825.392000
21019 21020 1 0.10860 301825.392000
21020 21021 1 0.13986 296436.400000
21020 21029 1 0.13986 296436.400000
21021 21022 1 0.18850 35430.112000
21021 21023 1 0.13986 296436.400000
21023 21024 1 0.10860 301825.392000
21023 21025 1 0.13986 296436.400000
21025 21026 1 0.10860 301825.392000
21025 21027 1 0.13986 296436.400000
21027 21028 1 0.10860 301825.392000
21027 21029 1 0.13986 296436.400000
21029 21030 1 0.10860 301825.392000
21031 21032 1 0.10860 301825.392000
21032 21033 1 0.13986 296436.400000
21032 21041 1 0.13986 296436.400000
21033 21034 1 0.18850 35430.112000
21033 21035 1 0.13986 296436.400000
21035 21036 1 0.10860 301825.392000
21035 21037 1 0.13986 296436.400000
21037 21038 1 0.10860 301825.392000
21037 21039 1 0.13986 296436.400000
21039 21040 1 0.10860 301825.392000
21039 21041 1 0.13986 296436.400000
21041 21042 1 0.10860 301825.392000
21043 21044 1 0.10860 301825.392000
21044 21045 1 0.13986 296436.400000
21044 21053 1 0.13986 296436.400000
21045 21046 1 0.18850 35430.112000
21045 21047 1 0.13986 296436.400000
21047 21048 1 0.10860 301825.392000
21047 21049 1 0.13986 296436.400000
21049 21050 1 0.10860 301825.392000
21049 21051 1 0.13986 296436.400000
21051 21052 1 0.10860 301825.392000
21051 21053 1 0.13986 296436.400000
21053 21054 1 0.10860 301825.392000
21055 21056 1 0.10860 301825.392000
21056 21057 1 0.13986 296436.400000
21056 21065 1 0.13986 296436.400000
21057 21058 1 0.18850 35430.112000
21057 21059 1 0.13986 296436.400000
21059 21060 1 0.10860 301825.392000
21059 21061 1 0.13986 296436.400000
21061 21062 1 0.10860 301825.392000
21061 21063 1 0.13986 296436.400000
21063 21064 1 0.10860 301825.392000
21063 21065 1 0.13986 296436.400000
21065 21066 1 0.10860 301825.392000
21067 21068 1 0.10860 301825.392000
21068 21069 1 0.13986 296436.400000
21068 21077 1 0.13986 296436.400000
21069 21070 1 0.18850 35430.112000
21069 21071 1 0.13986 296436.400000
21071 21072 1 0.10860 301825.392000
21071 21073 1 0.13986 296436.400000
21073 21074 1 0.10860 301825.392000
21073 21075 1 0.13986 296436.400000
21075 21076 1 0.10860 301825.392000
21075 21077 1 0.13986 296436.400000
21077 21078 1 0.10860 301825.392000
21079 21080 1 0.10860 301825.392000
21080 21081 1 0.13986 296436.400000
21080 21089 1 0.13986 296436.400000
21081 21082 1 0.18850 35430.112000
21081 21083 1 0.13986 296436.400000
21083 21084 1 0.10860 301825.392000
21083 21085 1 0.13986 296436.400000
21085 21086 1 0.10860 301825.392000
21085 21087 1 0.13986 296436.400000
21087 21088 1 0.10860 301825.392000
21087 21089 1 0.13986 296436.400000
21089 21090 1 0.10860 301825.392000
21091 21092 1 0.10860 301825.392000
21092 21093 1 0.13986 296436.400000
21092 21101 1 0.13986 296436.400000
21093 21094 1 0.18850 35430.112000
21093 21095 1 0.13986 296436.400000
21095 21096 1 0.10860 301825.392000
21095 21097 1 0.13986 296436.400000
21097 21098 1 0.10860 301825.392000
21097 21099 1 0.13986 296436.400000
21099 21100 1 0.10860 301825.392000
21099 21101 1 0.13986 296436.400000
21101 21102 1 0.10860 301825.392000
21103 21104 1 0.10860 301825.392000
21104 21105 1 0.13986 296436.400000
21104 21113 1 0.13986 296436.400000
21105 21106 1 0.18850 35430.112000
21105 21107 1 0.13986 296436.400000
21107 21108 1 0.10860 301825.392000
21107 21109 1 0.13986 296436.400000
21109 21110 1 0.10860 301825.392000
21109 21111 1 0.13986 296436.400000
21111 21112 1 0.10860 301825.392000
21111 21113 1 0.13986 296436.400000
21113 21114 1 0.10860 301825.392000
21115 21116 1 0.10860 301825.392000
21116 21117 1 0.13986 296436.400000
21116 21125 1 0.13986 296436.400000
21117 21118 1 0.18850 35430.112000
21117 21119 1 0.13986 296436.400000
21119 21120 1 0.10860 301825.392000
21119 21121 1 0.13986 296436.400000
21121 21122 1 0.10860 301825.392000
21121 21123 1 0.13986 296436.400000
21123 21124 1 0.10860 301825.392000
21123 21125 1 0.13986 296436.400000
21125 21126 1 0.10860 301825.392000
21127 21128 1 0.10860 301825.392000
21128 21129 1 0.13986 296436.400000
21128 21137 1 0.13986 296436.400000
21129 21130 1 0.18850 35430.112000
21129 21131 1 0.13986 296436.400000
21131 21132 1 0.10860 301825.392000
21131 21133 1 0.13986 296436.400000
21133 21134 1 0.10860 301825.392000
21133 21135 1 0.13986 296436.400000
21135 21136 1 0.10860 301825.392000
21135 21137 1 0.13986 296436.400000
21137 21138 1 0.10860 301825.392000
21139 21140 1 0.10860 301825.392000
21140 21141 1 0.13986 296436.400000
21140 21149 1 0.13986 296436.400000
21141 21142 1 0.18850 35430.112000
21141 21143 1 0.13986 296436.400000
21143 21144 1 0.10860 301825.392000
21143 21145 1 0.13986 296436.400000
21145 21146 1 0.10860 301825.392000
21145 21147 1 0.13986 296436.400000
21147 21148 1 0.10860 301825.392000
21147 21149 1 0.13986 296436.400000
21149 21150 1 0.10860 301825.392000
21151 21152 1 0.10860 301825.392000
21152 21153 1 0.13986 296436.400000
21152 21161 1 0.13986 296436.400000
21153 21154 1 0.18850 35430.112000
21153 21155 1 0.13986 296436.400000
21155 21156 1 0.10860 301825.392000
21155 21157 1 0.13986 296436.400000
21157 21158 1 0.10860 301825.392000
21157 21159 1 0.13986 296436.400000
21159 21160 1 0.10860 301825.392000
21159 21161 1 0.13986 296436.400000
21161 21162 1 0.10860 301825.392000
21163 21164 1 0.10860 301825.392000
21164 21165 1 0.13986 296436.400000
21164 21173 1 0.13986 296436.400000
21165 21166 1 0.18850 35430.112000
21165 21167 1 0.13986 296436.400000
21167 21168 1 0.10860 301825.392000
21167 21169 1 0.13986 296436.400000
21169 21170 1 0.10860 301825.392000
21169 21171 1 0.13986 296436.400000
21171 21172 1 0.10860 301825.392000
21171 21173 1 0.13986 296436.400000
21173 21174 1 0.10860 301825.392000
21175 21176 1 0.16500 119244.000000
21176 21177 1 0.09450 207108.000000
21178 21179 1 0.16500 119244.000000
21179 21180 1 0.09450 207108.000000
21181 21182 1 0.16500 119244.000000
21182 21183 1 0.09450 207108.000000
21184 21185 1 0.16500 119244.000000
21185 21186 1 0.09450 207108.000000
21187 21188 1 0.16500 119244.000000
21188 21189 1 0.09450 207108.000000
21190 21191 1 0.16500 119244.000000
21191 21192 1 0.09450 207108.000000
21193 21194 1 0.16500 119244.000000
21194 21195 1 0.09450 207108.000000
21196 21197 1 0.16500 119244.000000
21197 21198 1 0.09450 207108.000000
21199 21200 1 0.16500 119244.000000
21200 21201 1 0.09450 207108.000000
21202 21203 1 0.16500 119244.000000
21203 21204 1 0.09450 207108.000000
21205 21206 1 0.16500 119244.000000
21206 21207 1 0.09450 207108.000000
21208 21209 1 0.16500 119244.000000
21209 21210 1 0.09450 207108.000000
21211 21212 1 0.16500 119244.000000
21212 21213 1 0.09450 207108.000000
21214 21215 1 0.16500 119244.000000
21215 21216 1 0.09450 207108.000000
21217 21218 1 0.16500 119244.000000
21218 21219 1 0.09450 207108.000000
21220 21221 1 0.16500 119244.000000
21221 21222 1 0.09450 207108.000000
21223 21224 1 0.16500 119244.000000
21224 21225 1 0.09450 207108.000000
21226 21227 1 0.16500 119244.000000
21227 21228 1 0.09450 207108.000000
21229 21230 1 0.16500 119244.000000
21230 21231 1 0.09450 207108.000000
21232 21233 1 0.16500 119244.000000
21233 21234 1 0.09450 207108.000000
21235 21236 1 0.16500 119244.000000
21236 21237 1 0.09450 207108.000000
21238 21239 1 0.16500 119244.000000
21239 21240 1 0.09450 207108.000000
21241 21242 1 0.16500 119244.000000
21242 21243 1 0.09450 207108.000000
21244 21245 1 0.16500 119244.000000
21245 21246 1 0.09450 207108.000000
21247 21248 1 0.16500 119244.000000
21248 21249 1 0.09450 207108.000000
21250 21251 1 0.16500 119244.000000
21251 21252 1 0.09450 207108.000000
21253 21254 1 0.16500 119244.000000
21254 21255 1 0.09450 207108.000000
21256 21257 1 0.16500 119244.000000
21257 21258 1 0.09450 207108.000000
21259 21260 1 0.16500 119244.000000
21260 21261 1 0.09450 207108.000000
21262 21263 1 0.16500 119244.000000
21263 21264 1 0.09450 207108.000000
21265 21266 1 0.16500 119244.000000
21266 21267 1 0.09450 207108.000000
21268 21269 1 0.16500 119244.000000
21269 21270 1 0.09450 207108.000000
21271 21272 1 0.16500 119244.000000
21272 21273 1 0.09450 207108.000000
21274 21275 1 0.16500 119244.000000
21275 21276 1 0.09450 207108.000000
21277 21278 1 0.16500 119244.000000
21278 21279 1 0.09450 207108.000000
21280 21281 1 0.16500 119244.000000
21281 21282 1 0.09450 207108.000000
21283 21284 1 0.16500 119244.000000
21284 21285 1 0.09450 207108.000000
21286 21287 1 0.16500 119244.000000
21287 21288 1 0.09450 207108.000000
21289 21290 1 0.16500 119244.000000
21290 21291 1 0.09450 207108.000000
21292 21293 1 0.16500 119244.000000
21293 21294 1 0.09450 207108.000000
21295 21296 1 0.16500 119244.000000
21296 21297 1 0.09450 207108.000000
21298 21299 1 0.16500 119244.000000
21299 21300 1 0.09450 207108.000000
21301 21302 1 0.16500 119244.000000
21302 21303 1 0.09450 207108.000000
21304 21305 1 0.16500 119244.000000
21305 21306 1 0.09450 207108.000000
21307 21308 1 0.16500 119244.000000
21308 21309 1 0.09450 207108.000000
21310 21311 1 0.16500 119244.000000
21311 21312 1 0.09450 207108.000000
21313 21314 1 0.16500 119244.000000
21314 21315 1 0.09450 207108.000000
21316 21317 1 0.16500 119244.000000
21317 21318 1 0.09450 207108.000000
21319 21320 1 0.16500 119244.000000
21320 21321 1 0.09450 207108.000000
21322 21323 1 0.16500 119244.000000
21323 21324 1 0.09450 207108.000000
21325 21326 1 0.16500 119244.000000
21326 21327 1 0.09450 207108.000000
21328 21329 1 0.16500 119244.000000
21329 21330 1 0.09450 207108.000000
21331 21332 1 0.16500 119244.000000
21332 21333 1 0.09450 207108.000000
21334 21335 1 0.16500 119244.000000
21335 21336 1 0.09450 207108.000000
21337 21338 1 0.16500 119244.000000
21338 21339 1 0.09450 207108.000000
21340 21341 1 0.16500 119244.000000
21341 21342 1 0.09450 207108.000000
21343 21344 1 0.16500 119244.000000
21344 21345 1 0.09450 207108.000000
21346 21347 1 0.16500 119244.000000
21347 21348 1 0.09450 207108.000000
21349 21350 1 0.16500 119244.000000
21350 21351 1 0.09450 207108.000000
21352 21353 1 0.16500 119244.000000
21353 21354 1 0.09450 207108.000000
21355 21356 1 0.16500 119244.000000
21356 21357 1 0.09450 207108.000000
21358 21359 1 0.16500 119244.000000
21359 21360 1 0.09450 207108.000000
21361 21362 1 0.16500 119244.000000
21362 21363 1 0.09450 207108.000000
21364 21365 1 0.16500 119244.000000
21365 21366 1 0.09450 207108.000000
21367 21368 1 0.16500 119244.000000
21368 21369 1 0.09450 207108.000000
21370 21371 1 0.16500 119244.000000
21371 21372 1 0.09450 207108.000000
21373 21374 1 0.16500 119244.000000
21374 21375 1 0.09450 207108.000000
21376 21377 1 0.16500 119244.000000
21377 21378 1 0.09450 207108.000000
21379 21380 1 0.16500 119244.000000
21380 21381 1 0.09450 207108.000000
21382 21383 1 0.16500 119244.000000
21383 21384 1 0.09450 207108.000000
21385 21386 1 0.16500 119244.000000
21386 21387 1 0.09450 207108.000000
21388 21389 1 0.16500 119244.000000
21389 21390 1 0.09450 207108.000000
21391 21392 1 0.16500 119244.000000
21392 21393 1 0.09450 207108.000000
21394 21395 1 0.16500 119244.000000
21395 21396 1 0.09450 207108.000000
21397 21398 1 0.16500 119244.000000
21398 21399 1 0.09450 207108.000000
21400 21401 1 0.16500 119244.000000
21401 21402 1 0.09450 207108.000000
21403 21404 1 0.16500 119244.000000
21404 21405 1 0.09450 207108.000000
21406 21407 1 0.16500 119244.000000
21407 21408 1 0.09450 207108.000000
21409 21410 1 0.16500 119244.000000
21410 21411 1 0.09450 207108.000000
21412 21413 1 0.16500 119244.000000
21413 21414 1 0.09450 207108.000000
21415 21416 1 0.16500 119244.000000
21416 21417 1 0.09450 207108.000000
21418 21419 1 0.16500 119244.000000
21419 21420 1 0.09450 207108.000000
21421 21422 1 0.16500 119244.000000
21422 21423 1 0.09450 207108.000000
21424 21425 1 0.16500 119244.000000
21425 21426 1 0.09450 207108.000000
21427 21428 1 0.16500 119244.000000
21428 21429 1 0.09450 207108.000000
21430 21431 1 0.16500 119244.000000
21431 21432 1 0.09450 207108.000000
21433 21434 1 0.16500 119244.000000
21434 21435 1 0.09450 207108.000000
21436 21437 1 0.16500 119244.000000
21437 21438 1 0.09450 207108.000000
21439 21440 1 0.16500 119244.000000
21440 21441 1 0.09450 207108.000000
21442 21443 1 0.16500 119244.000000
21443 21444 1 0.09450 207108.000000
21445 21446 1 0.16500 119244.000000
21446 21447 1 0.09450 207108.000000
21448 21449 1 0.16500 119244.000000
21449 21450 1 0.09450 207108.000000
21451 21452 1 0.16500 119244.000000
21452 21453 1 0.09450 207108.000000
21454 21455 1 0.16500 119244.000000
21455 21456 1 0.09450 207108.000000
21457 21458 1 0.16500 119244.000000
21458 21459 1 0.09450 207108.000000
21460 21461 1 0.16500 119244.000000
21461 21462 1 0.09450 207108.000000
21463 21464 1 0.16500 119244.000000
21464 21465 1 0.09450 207108.000000
21466 21467 1 0.16500 119244.000000
21467 21468 1 0.09450 207108.000000
21469 21470 1 0.16500 119244.000000
21470 21471 1 0.09450 207108.000000
21472 21473 1 0.16500 119244.000000
21473 21474 1 0.09450 207108.000000
21475 21476 1 0.16500 119244.000000
21476 21477 1 0.09450 207108.000000
21478 21479 1 0.16500 119244.000000
21479 21480 1 0.09450 207108.000000
21481 21482 1 0.16500 119244.000000
21482 21483 1 0.09450 207108.000000
21484 21485 1 0.16500 119244.000000
21485 21486 1 0.09450 207108.000000
21487 21488 1 0.16500 119244.000000
21488 21489 1 0.09450 207108.000000
21490 21491 1 0.16500 119244.000000
21491 21492 1 0.09450 207108.000000
21493 21494 1 0.16500 119244.000000
21494 21495 1 0.09450 207108.000000
21496 21497 1 0.16500 119244.000000
21497 21498 1 0.09450 207108.000000
21499 21500 1 0.16500 119244.000000
21500 21501 1 0.09450 207108.000000
21502 21503 1 0.16500 119244.000000
21503 21504 1 0.09450 207108.000000
21505 21506 1 0.16500 119244.000000
21506 21507 1 0.09450 207108.000000
21508 21509 1 0.16500 119244.000000
21509 21510 1 0.09450 207108.000000
21511 21512 1 0.16500 119244.000000
21512 21513 1 0.09450 207108.000000
21514 21515 1 0.16500 119244.000000
21515 21516 1 0.09450 207108.000000
21517 21518 1 0.16500 119244.000000
21518 21519 1 0.09450 207108.000000
21520 21521 1 0.16500 119244.000000
21521 21522 1 0.09450 207108.000000
21523 21524 1 0.16500 119244.000000
21524 21525 1 0.09450 207108.000000
21526 21527 1 0.16500 119244.000000
21527 21528 1 0.09450 207108.000000
21529 21530 1 0.16500 119244.000000
21530 21531 1 0.09450 207108.000000
21532 21533 1 0.16500 119244.000000
21533 21534 1 0.09450 207108.000000
21535 21536 1 0.16500 119244.000000
21536 21537 1 0.09450 207108.000000
21538 21539 1 0.16500 119244.000000
21539 21540 1 0.09450 207108.000000
21541 21542 1 0.16500 119244.000000
21542 21543 1 0.09450 207108.000000
21544 21545 1 0.16500 119244.000000
21545 21546 1 0.09450 207108.000000
21547 21548 1 0.16500 119244.000000
21548 21549 1 0.09450 207108.000000
21550 21551 1 0.16500 119244.000000
21551 21552 1 0.09450 207108.000000
21553 21554 1 0.16500 119244.000000
21554 21555 1 0.09450 207108.000000
21556 21557 1 0.16500 119244.000000
21557 21558 1 0.09450 207108.000000
21559 21560 1 0.16500 119244.000000
21560 21561 1 0.09450 207108.000000
21562 21563 1 0.16500 119244.000000
21563 21564 1 0.09450 207108.000000
21565 21566 1 0.16500 119244.000000
21566 21567 1 0.09450 207108.000000
21568 21569 1 0.16500 119244.000000
21569 21570 1 0.09450 207108.000000
21571 21572 1 0.16500 119244.000000
21572 21573 1 0.09450 207108.000000
21574 21575 1 0.16500 119244.000000
21575 21576 1 0.09450 207108.000000
21577 21578 1 0.16500 119244.000000
21578 21579 1 0.09450 207108.000000
21580 21581 1 0.16500 119244.000000
21581 21582 1 0.09450 207108.000000
21583 21584 1 0.16500 119244.000000
21584 21585 1 0.09450 207108.000000
21586 21587 1 0.16500 119244.000000
21587 21588 1 0.09450 207108.000000
21589 21590 1 0.16500 119244.000000
21590 21591 1 0.09450 207108.000000
21592 21593 1 0.16500 119244.000000
21593 21594 1 0.09450 207108.000000
21595 21596 1 0.16500 119244.000000
21596 21597 1 0.09450 207108.000000
21598 21599 1 0.16500 119244.000000
21599 21600 1 0.09450 207108.000000
21601 21602 1 0.16500 119244.000000
21602 21603 1 0.09450 207108.000000
21604 21605 1 0.16500 119244.000000
21605 21606 1 0.09450 207108.000000
21607 21608 1 0.16500 119244.000000
21608 21609 1 0.09450 207108.000000
21610 21611 1 0.16500 119244.000000
21611 21612 1 0.09450 207108.000000
21613 21614 1 0.16500 119244.000000
21614 21615 1 0.09450 207108.000000
21616 21617 1 0.16500 119244.000000
21617 21618 1 0.09450 207108.000000
21619 21620 1 0.16500 119244.000000
21620 21621 1 0.09450 207108.000000
21622 21623 1 0.16500 119244.000000
21623 21624 1 0.09450 207108.000000
21625 21626 1 0.16500 119244.000000
21626 21627 1 0.09450 207108.000000
21628 21629 1 0.16500 119244.000000
21629 21630 1 0.09450 207108.000000
21631 21632 1 0.16500 119244.000000
21632 21633 1 0.09450 207108.000000
21634 21635 1 0.16500 119244.000000
21635 21636 1 0.09450 207108.000000
21637 21638 1 0.16500 119244.000000
21638 21639 1 0.09450 207108.000000
21640 21641 1 0.16500 119244.000000
21641 21642 1 0.09450 207108.000000
21643 21644 1 0.16500 119244.000000
21644 21645 1 0.09450 207108.000000
21646 21647 1 0.16500 119244.000000
21647 21648 1 0.09450 207108.000000
21649 21650 1 0.16500 119244.000000
21650 21651 1 0.09450 207108.000000
21652 21653 1 0.16500 119244.000000
21653 21654 1 0.09450 207108.000000
21655 21656 1 0.16500 119244.000000
21656 21657 1 0.09450 207108.000000
21658 21659 1 0.16500 119244.000000
21659 21660 1 0.09450 207108.000000
21661 21662 1 0.16500 119244.000000
21662 21663 1 0.09450 207108.000000
21664 21665 1 0.16500 119244.000000
21665 21666 1 0.09450 207108.000000
21667 21668 1 0.16500 119244.000000
21668 21669 1 0.09450 207108.000000
21670 21671 1 0.16500 119244.000000
21671 21672 1 0.09450 207108.000000
21673 21674 1 0.16500 119244.000000
21674 21675 1 0.09450 207108.000000
21676 21677 1 0.16500 119244.000000
21677 21678 1 0.09450 207108.000000
21679 21680 1 0.16500 119244.000000
21680 21681 1 0.09450 207108.000000
21682 21683 1 0.16500 119244.000000
21683 21684 1 0.09450 207108.000000
21685 21686 1 0.16500 119244.000000
21686 21687 1 0.09450 207108.000000
21688 21689 1 0.16500 119244.000000
21689 21690 1 0.09450 207108.000000
21691 21692 1 0.16500 119244.000000
21692 21693 1 0.09450 207108.000000
21694 21695 1 0.16500 119244.000000
21695 21696 1 0.09450 207108.000000
21697 21698 1 0.16500 119244.000000
21698 21699 1 0.09450 207108.000000
21700 21701 1 0.16500 119244.000000
21701 21702 1 0.09450 207108.000000
21703 21704 1 0.16500 119244.000000
21704 21705 1 0.09450 207108.000000
21706 21707 1 0.16500 119244.000000
21707 21708 1 0.09450 207108.000000
21709 21710 1 0.16500 119244.000000
21710 21711 1 0.09450 207108.000000
21712 21713 1 0.16500 119244.000000
21713 21714 1 0.09450 207108.000000
21715 21716 1 0.16500 119244.000000
21716 21717 1 0.09450 207108.000000
21718 21719 1 0.16500 119244.000000
21719 21720 1 0.09450 207108.000000
21721 21722 1 0.16500 119244.000000
21722 21723 1 0.09450 207108.000000
21724 21725 1 0.16500 119244.000000
21725 21726 1 0.09450 207108.000000
21727 21728 1 0.16500 119244.000000
21728 21729 1 0.09450 207108.000000
21730 21731 1 0.16500 119244.000000
21731 21732 1 0.09450 207108.000000
21733 21734 1 0.16500 119244.000000
21734 21735 1 0.09450 207108.000000
21736 21737 1 0.16500 119244.000000
21737 21738 1 0.09450 207108.000000
21739 21740 1 0.16500 119244.000000
21740 21741 1 0.09450 207108.000000
21742 21743 1 0.16500 119244.000000
21743 21744 1 0.09450 207108.000000
21745 21746 1 0.16500 119244.000000
21746 21747 1 0.09450 207108.000000
21748 21749 1 0.16500 119244.000000
21749 21750 1 0.09450 207108.000000
21751 21752 1 0.16500 119244.000000
21752 21753 1 0.09450 207108.000000
21754 21755 1 0.16500 119244.000000
21755 21756 1 0.09450 207108.000000
21757 21758 1 0.16500 119244.000000
21758 21759 1 0.09450 207108.000000
21760 21761 1 0.16500 119244.000000
21761 21762 1 0.09450 207108.000000
21763 21764 1 0.16500 119244.000000
21764 21765 1 0.09450 207108.000000
21766 21767 1 0.16500 119244.000000
21767 21768 1 0.09450 207108.000000
21769 21770 1 0.16500 119244.000000
21770 21771 1 0.09450 207108.000000
21772 21773 1 0.16500 119244.000000
21773 21774 1 0.09450 207108.000000
21775 21776 1 0.16500 119244.000000
21776 21777 1 0.09450 207108.000000
21778 21779 1 0.16500 119244.000000
21779 21780 1 0.09450 207108.000000
21781 21782 1 0.16500 119244.000000
21782 21783 1 0.09450 207108.000000
21784 21785 1 0.16500 119244.000000
21785 21786 1 0.09450 207108.000000
21787 21788 1 0.16500 119244.000000
21788 21789 1 0.09450 207108.000000
21790 21791 1 0.16500 119244.000000
21791 21792 1 0.09450 207108.000000
21793 21794 1 0.16500 119244.000000
21794 21795 1 0.09450 207108.000000
21796 21797 1 0.16500 119244.000000
21797 21798 1 0.09450 207108.000000
21799 21800 1 0.16500 119244.000000
21800 21801 1 0.09450 207108.000000
21802 21803 1 0.16500 119244.000000
21803 21804 1 0.09450 207108.000000
21805 21806 1 0.16500 119244.000000
21806 21807 1 0.09450 207108.000000
21808 21809 1 0.16500 119244.000000
21809 21810 1 0.09450 207108.000000
21811 21812 1 0.16500 119244.000000
21812 21813 1 0.09450 207108.000000
21814 21815 1 0.16500 119244.000000
21815 21816 1 0.09450 207108.000000
21817 21818 1 0.16500 119244.000000
21818 21819 1 0.09450 207108.000000
21820 21821 1 0.16500 119244.000000
21821 21822 1 0.09450 207108.000000
21823 21824 1 0.16500 119244.000000
21824 21825 1 0.09450 207108.000000
21826 21827 1 0.16500 119244.000000
21827 21828 1 0.09450 207108.000000
21829 21830 1 0.16500 119244.000000
21830 21831 1 0.09450 207108.000000
21832 21833 1 0.16500 119244.000000
21833 21834 1 0.09450 207108.000000
21835 21836 1 0.16500 119244.000000
21836 21837 1 0.09450 207108.000000
21838 21839 1 0.16500 119244.000000
21839 21840 1 0.09450 207108.000000
21841 21842 1 0.16500 119244.000000
21842 21843 1 0.09450 207108.000000
21844 21845 1 0.16500 119244.000000
21845 21846 1 0.09450 207108.000000
21847 21848 1 0.16500 119244.000000
21848 21849 1 0.09450 207108.000000
21850 21851 1 0.16500 119244.000000
21851 21852 1 0.09450 207108.000000
21853 21854 1 0.16500 119244.000000
21854 21855 1 0.09450 207108.000000
21856 21857 1 0.16500 119244.000000
21857 21858 1 0.09450 207108.000000
21859 21860 1 0.16500 119244.000000
21860 21861 1 0.09450 207108.000000
21862 21863 1 0.16500 119244.000000
21863 21864 1 0.09450 207108.000000
21865 21866 1 0.16500 119244.000000
21866 21867 1 0.09450 207108.000000
21868 21869 1 0.16500 119244.000000
21869 21870 1 0.09450 207108.000000
21871 21872 1 0.16500 119244.000000
21872 21873 1 0.09450 207108.000000
21874 21875 1 0.16500 119244.000000
21875 21876 1 0.09450 207108.000000
21877 21878 1 0.16500 119244.000000
21878 21879 1 0.09450 207108.000000
21880 21881 1 0.16500 119244.000000
21881 21882 1 0.09450 207108.000000
21883 21884 1 0.16500 119244.000000
21884 21885 1 0.09450 207108.000000
21886 21887 1 0.16500 119244.000000
21887 21888 1 0.09450 207108.000000
21889 21890 1 0.16500 119244.000000
21890 21891 1 0.09450 207108.000000
21892 21893 1 0.16500 119244.000000
21893 21894 1 0.09450 207108.000000
21895 21896 1 0.16500 119244.000000
21896 21897 1 0.09450 207108.000000
21898 21899 1 0.16500 119244.000000
21899 21900 1 0.09450 207108.000000
21901 21902 1 0.16500 119244.000000
21902 21903 1 0.09450 207108.000000
21904 21905 1 0.16500 119244.000000
21905 21906 1 0.09450 207108.000000
21907 21908 1 0.16500 119244.000000
21908 21909 1 0.09450 207108.000000
21910 21911 1 0.16500 119244.000000
21911 21912 1 0.09450 207108.000000
21913 21914 1 0.16500 119244.000000
21914 21915 1 0.09450 207108.000000
21916 21917 1 0.16500 119244.000000
21917 21918 1 0.09450 207108.000000
21919 21920 1 0.16500 119244.000000
21920 21921 1 0.09450 207108.000000
21922 21923 1 0.16500 119244.000000
21923 21924 1 0.09450 207108.000000
21925 21926 1 0.16500 119244.000000
21926 21927 1 0.09450 207108.000000
21928 21929 1 0.16500 119244.000000
21929 21930 1 0.09450 207108.000000
21931 21932 1 0.16500 119244.000000
21932 21933 1 0.09450 207108.000000
21934 21935 1 0.16500 119244.000000
21935 21936 1 0.09450 207108.000000
21937 21938 1 0.16500 119244.000000
21938 21939 1 0.09450 207108.000000
21940 21941 1 0.16500 119244.000000
21941 21942 1 0.09450 207108.000000
21943 21944 1 0.16500 119244.000000
21944 21945 1 0.09450 207108.000000
21946 21947 1 0.16500 119244.000000
21947 21948 1 0.09450 207108.000000
21949 21950 1 0.16500 119244.000000
21949 21952 1 0.16500 119244.000000
21950 21951 1 0.09450 207108.000000
21952 21953 1 0.09450 207108.000000
21954 21955 1 0.16500 119244.000000
21954 21957 1 0.16500 119244.000000
21955 21956 1 0.09450 207108.000000
21957 21958 1 0.09450 207108.000000
21959 21960 1 0.16500 119244.000000
21959 21962 1 0.16500 119244.000000
21960 21961 1 0.09450 207108.000000
21962 21963 1 0.09450 207108.000000
21964 21965 1 0.16500 119244.000000
21964 21967 1 0.16500 119244.000000
21965 21966 1 0.09450 207108.000000
21967 21968 1 0.09450 207108.000000
21969 21970 1 0.16500 119244.000000
21969 21972 1 0.16500 119244.000000
21970 21971 1 0.09450 207108.000000
21972 21973 1 0.09450 207108.000000
21974 21975 1 0.16500 119244.000000
21974 21977 1 0.16500 119244.000000
21975 21976 1 0.09450 207108.000000
21977 21978 1 0.09450 207108.000000
21979 21980 1 0.16500 119244.000000
21979 21982 1 0.16500 119244.000000
21980 21981 1 0.09450 207108.000000
21982 21983 1 0.09450 207108.000000
21984 21985 1 0.16500 119244.000000
21984 21987 1 0.16500 119244.000000
21985 21986 1 0.09450 207108.000000
21987 21988 1 0.09450 207108.000000
21989 21990 1 0.16500 119244.000000
21989 21992 1 0.16500 119244.000000
21990 21991 1 0.09450 207108.000000
21992 21993 1 0.09450 207108.000000
21994 21995 1 0.16500 119244.000000
21994 21997 1 0.16500 119244.000000
21995 21996 1 0.09450 207108.000000
21997 21998 1 0.09450 207108.000000
21999 22000 1 0.16500 119244.000000
21999 22002 1 0.16500 119244.000000
22000 22001 1 0.09450 207108.000000
22002 22003 1 0.09450 207108.000000
22004 22005 1 0.16500 119244.000000
22004 22007 1 0.16500 119244.000000
22005 22006 1 0.09450 207108.000000
22007 22008 1 0.09450 207108.000000
22009 22010 1 0.16500 119244.000000
22009 22012 1 0.16500 119244.000000
22010 22011 1 0.09450 207108.000000
22012 22013 1 0.09450 207108.000000
22014 22015 1 0.16500 119244.000000
22014 22017 1 0.16500 119244.000000
22015 22016 1 0.09450 207108.000000
22017 22018 1 0.09450 207108.000000
22019 22020 1 0.16500 119244.000000
22019 22022 1 0.16500 119244.000000
22020 22021 1 0.09450 207108.000000
22022 22023 1 0.09450 207108.000000
22024 22025 1 0.16500 119244.000000
22024 22027 1 0.16500 119244.000000
22025 22026 1 0.09450 207108.000000
22027 22028 1 0.09450 207108.000000
22029 22030 1 0.16500 119244.000000
22029 22032 1 0.16500 119244.000000
22030 22031 1 0.09450 207108.000000
22032 22033 1 0.09450 207108.000000
22034 22035 1 0.16500 119244.000000
22034 22037 1 0.16500 119244.000000
22035 22036 1 0.09450 207108.000000
22037 22038 1 0.09450 207108.000000
22039 22040 1 0.16500 119244.000000
22039 22042 1 0.16500 119244.000000
22040 22041 1 0.09450 207108.000000
22042 22043 1 0.09450 207108.000000
22044 22045 1 0.16500 119244.000000
22044 22047 1 0.16500 119244.000000
22045 22046 1 0.09450 207108.000000
22047 22048 1 0.09450 207108.000000
22049 22050 1 0.16500 119244.000000
22049 22052 1 0.16500 119244.000000
22050 22051 1 0.09450 207108.000000
22052 22053 1 0.09450 207108.000000

[ pairs ]
; ai aj funct params
16627 16630 1
16627 16631 1
16627 16635 1
16627 16638 1
16628 16632 1
16628 16633 1
16628 16636 1
16629 16634 1
16629 16635 1
16629 16638 1
16630 16632 1
16630 16633 1
16630 16637 1
16631 16636 1
16631 16637 1
16632 16634 1
16632 16635 1
16633 16638 1
16634 16636 1
16634 16637 1
16636 16638 1
16641 16644 1
16641 16645 1
16641 16649 1
16641 16652 1
16642 16646 1
16642 16647 1
16642 16650 1
16643 16648 1
16643 16649 1
16643 16652 1
16644 16646 1
16644 16647 1
16644 16651 1
16645 16650 1
16645 16651 1
16646 16648 1
16646 16649 1
16647 16652 1
16648 16650 1
16648 16651 1
16650 16652 1
16655 16658 1
16655 16659 1
16655 16663 1
16655 16666 1
16656 16660 1
16656 16661 1
16656 16664 1
16657 16662 1
16657 16663 1
16657 16666 1
16658 16660 1
16658 16661 1
16658 16665 1
16659 16664 1
16659 16665 1
16660 16662 1
16660 16663 1
16661 16666 1
16662 16664 1
16662 16665 1
16664 16666 1
16669 16672 1
16669 16673 1
16669 16677 1
16669 16680 1
16670 16674 1
16670 16675 1
16670 16678 1
16671 16676 1
16671 16677 1
16671 16680 1
16672 16674 1
16672 16675 1
16672 16679 1
16673 16678 1
16673 16679 1
16674 16676 1
16674 16677 1
16675 16680 1
16676 16678 1
16676 16679 1
16678 16680 1
16683 16686 1
16683 16687 1
16683 16691 1
16683 16694 1
16684 16688 1
16684 16689 1
16684 16692 1
16685 16690 1
16685 16691 1
16685 16694 1
16686 16688 1
16686 16689 1
16686 16693 1
16687 16692 1
16687 16693 1
16688 16690 1
16688 16691 1
16689 16694 1
16690 16692 1
16690 16693 1
16692 16694 1
16697 16700 1
16697 16701 1
16697 16705 1
16697 16708 1
16698 16702 1
16698 16703 1
16698 16706 1
16699 16704 1
16699 16705 1
16699 16708 1
16700 16702 1
16700 16703 1
16700 16707 1
16701 16706 1
16701 16707 1
16702 16704 1
16702 16705 1
16703 16708 1
16704 16706 1
16704 16707 1
16706 16708 1
16711 16714 1
16711 16715 1
16711 16719 1
16711 16722 1
16712 16716 1
16712 16717 1
16712 16720 1
16713 16718 1
16713 16719 1
16713 16722 1
16714 16716 1
16714 16717 1
16714 16721 1
16715 16720 1
16715 16721 1
16716 16718 1
16716 16719 1
16717 16722 1
16718 16720 1
16718 16721 1
16720 16722 1
16725 16728 1
16725 16729 1
16725 16733 1
16725 16736 1
16726 16730 1
16726 16731 1
16726 16734 1
16727 16732 1
16727 16733 1
16727 16736 1
16728 16730 1
16728 16731 1
16728 16735 1
16729 16734 1
16729 16735 1
16730 16732 1
16730 16733 1
16731 16736 1
16732 16734 1
16732 16735 1
16734 16736 1
16739 16742 1
16739 16743 1
16739 16747 1
16739 16750 1
16740 16744 1
16740 16745 1
16740 16748 1
16741 16746 1
16741 16747 1
16741 16750 1
16742 16744 1
16742 16745 1
16742 16749 1
16743 16748 1
16743 16749 1
16744 16746 1
16744 16747 1
16745 16750 1
16746 16748 1
16746 16749 1
16748 16750 1
16753 16756 1
16753 16757 1
16753 16761 1
16753 16764 1
16754 16758 1
16754 16759 1
16754 16762 1
16755 16760 1
16755 16761 1
16755 16764 1
16756 16758 1
16756 16759 1
16756 16763 1
16757 16762 1
16757 16763 1
16758 16760 1
16758 16761 1
16759 16764 1
16760 16762 1
16760 16763 1
16762 16764 1
16767 16770 1
16767 16771 1
16767 16775 1
16767 16778 1
16768 16772 1
16768 16773 1
16768 16776 1
16769 16774 1
16769 16775 1
16769 16778 1
16770 16772 1
16770 16773 1
16770 16777 1
16771 16776 1
16771 16777 1
16772 16774 1
16772 16775 1
16773 16778 1
16774 16776 1
16774 16777 1
16776 16778 1
16781 16784 1
16781 16785 1
16781 16789 1
16781 16792 1
16782 16786 1
16782 16787 1
16782 16790 1
16783 16788 1
16783 16789 1
16783 16792 1
16784 16786 1
16784 16787 1
16784 16791 1
16785 16790 1
16785 16791 1
16786 16788 1
16786 16789 1
16787 16792 1
16788 16790 1
16788 16791 1
16790 16792 1
16795 16798 1
16795 16799 1
16795 16803 1
16795 16806 1
16796 16800 1
16796 16801 1
16796 16804 1
16797 16802 1
16797 16803 1
16797 16806 1
16798 16800 1
16798 16801 1
16798 16805 1
16799 16804 1
16799 16805 1
16800 16802 1
16800 16803 1
16801 16806 1
16802 16804 1
16802 16805 1
16804 16806 1
16809 16812 1
16809 16813 1
16809 16817 1
16809 16820 1
16810 16814 1
16810 16815 1
16810 16818 1
16811 16816 1
16811 16817 1
16811 16820 1
16812 16814 1
16812 16815 1
16812 16819 1
16813 16818 1
16813 16819 1
16814 16816 1
16814 16817 1
16815 16820 1
16816 16818 1
16816 16819 1
16818 16820 1
16823 16826 1
16823 16827 1
16823 16831 1
16823 16834 1
16824 16828 1
16824 16829 1
16824 16832 1
16825 16830 1
16825 16831 1
16825 16834 1
16826 16828 1
16826 16829 1
16826 16833 1
16827 16832 1
16827 16833 1
16828 16830 1
16828 16831 1
16829 16834 1
16830 16832 1
16830 16833 1
16832 16834 1
16837 16840 1
16837 16841 1
16837 16845 1
16837 16848 1
16838 16842 1
16838 16843 1
16838 16846 1
16839 16844 1
16839 16845 1
16839 16848 1
16840 16842 1
16840 16843 1
16840 16847 1
16841 16846 1
16841 16847 1
16842 16844 1
16842 16845 1
16843 16848 1
16844 16846 1
16844 16847 1
16846 16848 1
16851 16854 1
16851 16855 1
16851 16859 1
16851 16862 1
16852 16856 1
16852 16857 1
16852 16860 1
16853 16858 1
16853 16859 1
16853 16862 1
16854 16856 1
16854 16857 1
16854 16861 1
16855 16860 1
16855 16861 1
16856 16858 1
16856 16859 1
16857 16862 1
16858 16860 1
16858 16861 1
16860 16862 1
16865 16868 1
16865 16869 1
16865 16873 1
16865 16876 1
16866 16870 1
16866 16871 1
16866 16874 1
16867 16872 1
16867 16873 1
16867 16876 1
16868 16870 1
16868 16871 1
16868 16875 1
16869 16874 1
16869 16875 1
16870 16872 1
16870 16873 1
16871 16876 1
16872 16874 1
16872 16875 1
16874 16876 1
16879 16882 1
16879 16883 1
16879 16887 1
16879 16890 1
16880 16884 1
16880 16885 1
16880 16888 1
16881 16886 1
16881 16887 1
16881 16890 1
16882 16884 1
16882 16885 1
16882 16889 1
16883 16888 1
16883 16889 1
16884 16886 1
16884 16887 1
16885 16890 1
16886 16888 1
16886 16889 1
16888 16890 1
16893 16896 1
16893 16897 1
16893 16901 1
16893 16904 1
16894 16898 1
16894 16899 1
16894 16902 1
16895 16900 1
16895 16901 1
16895 16904 1
16896 16898 1
16896 16899 1
16896 16903 1
16897 16902 1
16897 16903 1
16898 16900 1
16898 16901 1
16899 16904 1
16900 16902 1
16900 16903 1
16902 16904 1
16907 16910 1
16907 16911 1
16907 16915 1
16907 16918 1
16908 16912 1
16908 16913 1
16908 16916 1
16909 16914 1
16909 16915 1
16909 16918 1
16910 16912 1
16910 16913 1
16910 16917 1
16911 16916 1
16911 16917 1
16912 16914 1
16912 16915 1
16913 16918 1
16914 16916 1
16914 16917 1
16916 16918 1
16921 16924 1
16921 16925 1
16921 16929 1
16921 16932 1
16922 16926 1
16922 16927 1
16922 16930 1
16923 16928 1
16923 16929 1
16923 16932 1
16924 16926 1
16924 16927 1
16924 16931 1
16925 16930 1
16925 16931 1
16926 16928 1
16926 16929 1
16927 16932 1
16928 16930 1
16928 16931 1
16930 16932 1
16935 16938 1
16935 16939 1
16935 16943 1
16935 16946 1
16936 16940 1
16936 16941 1
16936 16944 1
16937 16942 1
16937 16943 1
16937 16946 1
16938 16940 1
16938 16941 1
16938 16945 1
16939 16944 1
16939 16945 1
16940 16942 1
16940 16943 1
16941 16946 1
16942 16944 1
16942 16945 1
16944 16946 1
16949 16952 1
16949 16953 1
16949 16957 1
16949 16960 1
16950 16954 1
16950 16955 1
16950 16958 1
16951 16956 1
16951 16957 1
16951 16960 1
16952 16954 1
16952 16955 1
16952 16959 1
16953 16958 1
16953 16959 1
16954 16956 1
16954 16957 1
16955 16960 1
16956 16958 1
16956 16959 1
16958 16960 1
16963 16966 1
16963 16967 1
16963 16971 1
16963 16974 1
16964 16968 1
16964 16969 1
16964 16972 1
16965 16970 1
16965 16971 1
16965 16974 1
16966 16968 1
16966 16969 1
16966 16973 1
16967 16972 1
16967 16973 1
16968 16970 1
16968 16971 1
16969 16974 1
16970 16972 1
16970 16973 1
16972 16974 1
16977 16980 1
16977 16981 1
16977 16985 1
16977 16988 1
16978 16982 1
16978 16983 1
16978 16986 1
16979 16984 1
16979 16985 1
16979 16988 1
16980 16982 1
16980 16983 1
16980 16987 1
16981 16986 1
16981 16987 1
16982 16984 1
16982 16985 1
16983 16988 1
16984 16986 1
16984 16987 1
16986 16988 1
16991 16994 1
16991 16995 1
16991 16999 1
16991 17002 1
16992 16996 1
16992 16997 1
16992 17000 1
16993 16998 1
16993 16999 1
16993 17002 1
16994 16996 1
16994 16997 1
16994 17001 1
16995 17000 1
16995 17001 1
16996 16998 1
16996 16999 1
16997 17002 1
16998 17000 1
16998 17001 1
17000 17002 1
17005 17008 1
17005 17009 1
17005 17013 1
17005 17016 1
17006 17010 1
17006 17011 1
17006 17014 1
17007 17012 1
17007 17013 1
17007 17016 1
17008 17010 1
17008 17011 1
17008 17015 1
17009 17014 1
17009 17015 1
17010 17012 1
17010 17013 1
17011 17016 1
17012 17014 1
17012 17015 1
17014 17016 1
17019 17022 1
17019 17023 1
17019 17027 1
17019 17030 1
17020 17024 1
17020 17025 1
17020 17028 1
17021 17026 1
17021 17027 1
17021 17030 1
17022 17024 1
17022 17025 1
17022 17029 1
17023 17028 1
17023 17029 1
17024 17026 1
17024 17027 1
17025 17030 1
17026 17028 1
17026 17029 1
17028 17030 1
17033 17036 1
17033 17037 1
17033 17041 1
17033 17044 1
17034 17038 1
17034 17039 1
17034 17042 1
17035 17040 1
17035 17041 1
17035 17044 1
17036 17038 1
17036 17039 1
17036 17043 1
17037 17042 1
17037 17043 1
17038 17040 1
17038 17041 1
17039 17044 1
17040 17042 1
17040 17043 1
17042 17044 1
17047 17050 1
17047 17051 1
17047 17055 1
17047 17058 1
17048 17052 1
17048 17053 1
17048 17056 1
17049 17054 1
17049 17055 1
17049 17058 1
17050 17052 1
17050 17053 1
17050 17057 1
17051 17056 1
17051 17057 1
17052 17054 1
17052 17055 1
17053 17058 1
17054 17056 1
17054 17057 1
17056 17058 1
17061 17064 1
17061 17065 1
17061 17069 1
17061 17072 1
17062 17066 1
17062 17067 1
17062 17070 1
17063 17068 1
17063 17069 1
17063 17072 1
17064 17066 1
17064 17067 1
17064 17071 1
17065 17070 1
17065 17071 1
17066 17068 1
17066 17069 1
17067 17072 1
17068 17070 1
17068 17071 1
17070 17072 1
17075 17078 1
17075 17079 1
17075 17083 1
17075 17086 1
17076 17080 1
17076 17081 1
17076 17084 1
17077 17082 1
17077 17083 1
17077 17086 1
17078 17080 1
17078 17081 1
17078 17085 1
17079 17084 1
17079 17085 1
17080 17082 1
17080 17083 1
17081 17086 1
17082 17084 1
17082 17085 1
17084 17086 1
17089 17092 1
17089 17093 1
17089 17097 1
17089 17100 1
17090 17094 1
17090 17095 1
17090 17098 1
17091 17096 1
17091 17097 1
17091 17100 1
17092 17094 1
17092 17095 1
17092 17099 1
17093 17098 1
17093 17099 1
17094 17096 1
17094 17097 1
17095 17100 1
17096 17098 1
17096 17099 1
17098 17100 1
17103 17106 1
17103 17107 1
17103 17111 1
17103 17114 1
17104 17108 1
17104 17109 1
17104 17112 1
17105 17110 1
17105 17111 1
17105 17114 1
17106 17108 1
17106 17109 1
17106 17113 1
17107 17112 1
17107 17113 1
17108 17110 1
17108 17111 1
17109 17114 1
17110 17112 1
17110 17113 1
17112 17114 1
17117 17120 1
17117 17121 1
17117 17125 1
17117 17128 1
17118 17122 1
17118 17123 1
17118 17126 1
17119 17124 1
17119 17125 1
17119 17128 1
17120 17122 1
17120 17123 1
17120 17127 1
17121 17126 1
17121 17127 1
17122 17124 1
17122 17125 1
17123 17128 1
17124 17126 1
17124 17127 1
17126 17128 1
17131 17134 1
17131 17135 1
17131 17139 1
17131 17142 1
17132 17136 1
17132 17137 1
17132 17140 1
17133 17138 1
17133 17139 1
17133 17142 1
17134 17136 1
17134 17137 1
17134 17141 1
17135 17140 1
17135 17141 1
17136 17138 1
17136 17139 1
17137 17142 1
17138 17140 1
17138 17141 1
17140 17142 1
17145 17148 1
17145 17149 1
17145 17153 1
17145 17156 1
17146 17150 1
17146 17151 1
17146 17154 1
17147 17152 1
17147 17153 1
17147 17156 1
17148 17150 1
17148 17151 1
17148 17155 1
17149 17154 1
17149 17155 1
17150 17152 1
17150 17153 1
17151 17156 1
17152 17154 1
17152 17155 1
17154 17156 1
17159 17162 1
17159 17163 1
17159 17167 1
17159 17170 1
17160 17164 1
17160 17165 1
17160 17168 1
17161 17166 1
17161 17167 1
17161 17170 1
17162 17164 1
17162 17165 1
17162 17169 1
17163 17168 1
17163 17169 1
17164 17166 1
17164 17167 1
17165 17170 1
17166 17168 1
17166 17169 1
17168 17170 1
17173 17176 1
17173 17177 1
17173 17181 1
17173 17184 1
17174 17178 1
17174 17179 1
17174 17182 1
17175 17180 1
17175 17181 1
17175 17184 1
17176 17178 1
17176 17179 1
17176 17183 1
17177 17182 1
17177 17183 1
17178 17180 1
17178 17181 1
17179 17184 1
17180 17182 1
17180 17183 1
17182 17184 1
17187 17190 1
17187 17191 1
17187 17195 1
17187 17198 1
17188 17192 1
17188 17193 1
17188 17196 1
17189 17194 1
17189 17195 1
17189 17198 1
17190 17192 1
17190 17193 1
17190 17197 1
17191 17196 1
17191 17197 1
17192 17194 1
17192 17195 1
17193 17198 1
17194 17196 1
17194 17197 1
17196 17198 1
17201 17204 1
17201 17205 1
17201 17209 1
17201 17212 1
17202 17206 1
17202 17207 1
17202 17210 1
17203 17208 1
17203 17209 1
17203 17212 1
17204 17206 1
17204 17207 1
17204 17211 1
17205 17210 1
17205 17211 1
17206 17208 1
17206 17209 1
17207 17212 1
17208 17210 1
17208 17211 1
17210 17212 1
17215 17218 1
17215 17219 1
17215 17223 1
17215 17226 1
17216 17220 1
17216 17221 1
17216 17224 1
17217 17222 1
17217 17223 1
17217 17226 1
17218 17220 1
17218 17221 1
17218 17225 1
17219 17224 1
17219 17225 1
17220 17222 1
17220 17223 1
17221 17226 1
17222 17224 1
17222 17225 1
17224 17226 1
17229 17232 1
17229 17233 1
17229 17237 1
17229 17240 1
17230 17234 1
17230 17235 1
17230 17238 1
17231 17236 1
17231 17237 1
17231 17240 1
17232 17234 1
17232 17235 1
17232 17239 1
17233 17238 1
17233 17239 1
17234 17236 1
17234 17237 1
17235 17240 1
17236 17238 1
17236 17239 1
17238 17240 1
17243 17246 1
17243 17247 1
17243 17251 1
17243 17254 1
17244 17248 1
17244 17249 1
17244 17252 1
17245 17250 1
17245 17251 1
17245 17254 1
17246 17248 1
17246 17249 1
17246 17253 1
17247 17252 1
17247 17253 1
17248 17250 1
17248 17251 1
17249 17254 1
17250 17252 1
17250 17253 1
17252 17254 1
17257 17260 1
17257 17261 1
17257 17265 1
17257 17268 1
17258 17262 1
17258 17263 1
17258 17266 1
17259 17264 1
17259 17265 1
17259 17268 1
17260 17262 1
17260 17263 1
17260 17267 1
17261 17266 1
17261 17267 1
17262 17264 1
17262 17265 1
17263 17268 1
17264 17266 1
17264 17267 1
17266 17268 1
17271 17274 1
17271 17275 1
17271 17279 1
17271 17282 1
17272 17276 1
17272 17277 1
17272 17280 1
17273 17278 1
17273 17279 1
17273 17282 1
17274 17276 1
17274 17277 1
17274 17281 1
17275 17280 1
17275 17281 1
17276 17278 1
17276 17279 1
17277 17282 1
17278 17280 1
17278 17281 1
17280 17282 1
17285 17288 1
17285 17289 1
17285 17293 1
17285 17296 1
17286 17290 1
17286 17291 1
17286 17294 1
17287 17292 1
17287 17293 1
17287 17296 1
17288 17290 1
17288 17291 1
17288 17295 1
17289 17294 1
17289 17295 1
17290 17292 1
17290 17293 1
17291 17296 1
17292 17294 1
17292 17295 1
17294 17296 1
17299 17302 1
17299 17303 1
17299 17307 1
17299 17310 1
17300 17304 1
17300 17305 1
17300 17308 1
17301 17306 1
17301 17307 1
17301 17310 1
17302 17304 1
17302 17305 1
17302 17309 1
17303 17308 1
17303 17309 1
17304 17306 1
17304 17307 1
17305 17310 1
17306 17308 1
17306 17309 1
17308 17310 1
17313 17316 1
17313 17317 1
17313 17321 1
17313 17324 1
17314 17318 1
17314 17319 1
17314 17322 1
17315 17320 1
17315 17321 1
17315 17324 1
17316 17318 1
17316 17319 1
17316 17323 1
17317 17322 1
17317 17323 1
17318 17320 1
17318 17321 1
17319 17324 1
17320 17322 1
17320 17323 1
17322 17324 1
17327 17330 1
17327 17331 1
17327 17335 1
17327 17338 1
17328 17332 1
17328 17333 1
17328 17336 1
17329 17334 1
17329 17335 1
17329 17338 1
17330 17332 1
17330 17333 1
17330 17337 1
17331 17336 1
17331 17337 1
17332 17334 1
17332 17335 1
17333 17338 1
17334 17336 1
17334 17337 1
17336 17338 1
17341 17344 1
17341 17345 1
17341 17349 1
17341 17352 1
17342 17346 1
17342 17347 1
17342 17350 1
17343 17348 1
17343 17349 1
17343 17352 1
17344 17346 1
17344 17347 1
17344 17351 1
17345 17350 1
17345 17351 1
17346 17348 1
17346 17349 1
17347 17352 1
17348 17350 1
17348 17351 1
17350 17352 1
17355 17358 1
17355 17359 1
17355 17363 1
17355 17366 1
17356 17360 1
17356 17361 1
17356 17364 1
17357 17362 1
17357 17363 1
17357 17366 1
17358 17360 1
17358 17361 1
17358 17365 1
17359 17364 1
17359 17365 1
17360 17362 1
17360 17363 1
17361 17366 1
17362 17364 1
17362 17365 1
17364 17366 1
17369 17372 1
17369 17373 1
17369 17377 1
17369 17380 1
17370 17374 1
17370 17375 1
17370 17378 1
17371 17376 1
17371 17377 1
17371 17380 1
17372 17374 1
17372 17375 1
17372 17379 1
17373 17378 1
17373 17379 1
17374 17376 1
17374 17377 1
17375 17380 1
17376 17378 1
17376 17379 1
17378 17380 1
17383 17386 1
17383 17387 1
17383 17391 1
17383 17394 1
17384 17388 1
17384 17389 1
17384 17392 1
17385 17390 1
17385 17391 1
17385 17394 1
17386 17388 1
17386 17389 1
17386 17393 1
17387 17392 1
17387 17393 1
17388 17390 1
17388 17391 1
17389 17394 1
17390 17392 1
17390 17393 1
17392 17394 1
17397 17400 1
17397 17401 1
17397 17405 1
17397 17408 1
17398 17402 1
17398 17403 1
17398 17406 1
17399 17404 1
17399 17405 1
17399 17408 1
17400 17402 1
17400 17403 1
17400 17407 1
17401 17406 1
17401 17407 1
17402 17404 1
17402 17405 1
17403 17408 1
17404 17406 1
17404 17407 1
17406 17408 1
17411 17414 1
17411 17415 1
17411 17419 1
17411 17422 1
17412 17416 1
17412 17417 1
17412 17420 1
17413 17418 1
17413 17419 1
17413 17422 1
17414 17416 1
17414 17417 1
17414 17421 1
17415 17420 1
17415 17421 1
17416 17418 1
17416 17419 1
17417 17422 1
17418 17420 1
17418 17421 1
17420 17422 1
17425 17428 1
17425 17429 1
17425 17433 1
17425 17436 1
17426 17430 1
17426 17431 1
17426 17434 1
17427 17432 1
17427 17433 1
17427 17436 1
17428 17430 1
17428 17431 1
17428 17435 1
17429 17434 1
17429 17435 1
17430 17432 1
17430 17433 1
17431 17436 1
17432 17434 1
17432 17435 1
17434 17436 1
17439 17442 1
17439 17443 1
17439 17447 1
17439 17450 1
17440 17444 1
17440 17445 1
17440 17448 1
17441 17446 1
17441 17447 1
17441 17450 1
17442 17444 1
17442 17445 1
17442 17449 1
17443 17448 1
17443 17449 1
17444 17446 1
17444 17447 1
17445 17450 1
17446 17448 1
17446 17449 1
17448 17450 1
17453 17456 1
17453 17457 1
17453 17461 1
17453 17464 1
17454 17458 1
17454 17459 1
17454 17462 1
17455 17460 1
17455 17461 1
17455 17464 1
17456 17458 1
17456 17459 1
17456 17463 1
17457 17462 1
17457 17463 1
17458 17460 1
17458 17461 1
17459 17464 1
17460 17462 1
17460 17463 1
17462 17464 1
17467 17470 1
17467 17471 1
17467 17475 1
17467 17478 1
17468 17472 1
17468 17473 1
17468 17476 1
17469 17474 1
17469 17475 1
17469 17478 1
17470 17472 1
17470 17473 1
17470 17477 1
17471 17476 1
17471 17477 1
17472 17474 1
17472 17475 1
17473 17478 1
17474 17476 1
17474 17477 1
17476 17478 1
17481 17484 1
17481 17485 1
17481 17489 1
17481 17492 1
17482 17486 1
17482 17487 1
17482 17490 1
17483 17488 1
17483 17489 1
17483 17492 1
17484 17486 1
17484 17487 1
17484 17491 1
17485 17490 1
17485 17491 1
17486 17488 1
17486 17489 1
17487 17492 1
17488 17490 1
17488 17491 1
17490 17492 1
17495 17498 1
17495 17499 1
17495 17503 1
17495 17506 1
17496 17500 1
17496 17501 1
17496 17504 1
17497 17502 1
17497 17503 1
17497 17506 1
17498 17500 1
17498 17501 1
17498 17505 1
17499 17504 1
17499 17505 1
17500 17502 1
17500 17503 1
17501 17506 1
17502 17504 1
17502 17505 1
17504 17506 1
17509 17512 1
17509 17513 1
17509 17517 1
17509 17520 1
17510 17514 1
17510 17515 1
17510 17518 1
17511 17516 1
17511 17517 1
17511 17520 1
17512 17514 1
17512 17515 1
17512 17519 1
17513 17518 1
17513 17519 1
17514 17516 1
17514 17517 1
17515 17520 1
17516 17518 1
17516 17519 1
17518 17520 1
17523 17526 1
17523 17527 1
17523 17531 1
17523 17534 1
17524 17528 1
17524 17529 1
17524 17532 1
17525 17530 1
17525 17531 1
17525 17534 1
17526 17528 1
17526 17529 1
17526 17533 1
17527 17532 1
17527 17533 1
17528 17530 1
17528 17531 1
17529 17534 1
17530 17532 1
17530 17533 1
17532 17534 1
17537 17540 1
17537 17541 1
17537 17545 1
17537 17548 1
17538 17542 1
17538 17543 1
17538 17546 1
17539 17544 1
17539 17545 1
17539 17548 1
17540 17542 1
17540 17543 1
17540 17547 1
17541 17546 1
17541 17547 1
17542 17544 1
17542 17545 1
17543 17548 1
17544 17546 1
17544 17547 1
17546 17548 1
17551 17554 1
17551 17555 1
17551 17559 1
17551 17562 1
17552 17556 1
17552 17557 1
17552 17560 1
17553 17558 1
17553 17559 1
17553 17562 1
17554 17556 1
17554 17557 1
17554 17561 1
17555 17560 1
17555 17561 1
17556 17558 1
17556 17559 1
17557 17562 1
17558 17560 1
17558 17561 1
17560 17562 1
17565 17568 1
17565 17569 1
17565 17573 1
17565 17576 1
17566 17570 1
17566 17571 1
17566 17574 1
17567 17572 1
17567 17573 1
17567 17576 1
17568 17570 1
17568 17571 1
17568 17575 1
17569 17574 1
17569 17575 1
17570 17572 1
17570 17573 1
17571 17576 1
17572 17574 1
17572 17575 1
17574 17576 1
17579 17582 1
17579 17583 1
17579 17587 1
17579 17590 1
17580 17584 1
17580 17585 1
17580 17588 1
17581 17586 1
17581 17587 1
17581 17590 1
17582 17584 1
17582 17585 1
17582 17589 1
17583 17588 1
17583 17589 1
17584 17586 1
17584 17587 1
17585 17590 1
17586 17588 1
17586 17589 1
17588 17590 1
17593 17596 1
17593 17597 1
17593 17601 1
17593 17604 1
17594 17598 1
17594 17599 1
17594 17602 1
17595 17600 1
17595 17601 1
17595 17604 1
17596 17598 1
17596 17599 1
17596 17603 1
17597 17602 1
17597 17603 1
17598 17600 1
17598 17601 1
17599 17604 1
17600 17602 1
17600 17603 1
17602 17604 1
17607 17610 1
17607 17611 1
17607 17615 1
17607 17618 1
17608 17612 1
17608 17613 1
17608 17616 1
17609 17614 1
17609 17615 1
17609 17618 1
17610 17612 1
17610 17613 1
17610 17617 1
17611 17616 1
17611 17617 1
17612 17614 1
17612 17615 1
17613 17618 1
17614 17616 1
17614 17617 1
17616 17618 1
17621 17624 1
17621 17625 1
17621 17629 1
17621 17632 1
17622 17626 1
17622 17627 1
17622 17630 1
17623 17628 1
17623 17629 1
17623 17632 1
17624 17626 1
17624 17627 1
17624 17631 1
17625 17630 1
17625 17631 1
17626 17628 1
17626 17629 1
17627 17632 1
17628 17630 1
17628 17631 1
17630 17632 1
17635 17638 1
17635 17639 1
17635 17643 1
17635 17646 1
17636 17640 1
17636 17641 1
17636 17644 1
17637 17642 1
17637 17643 1
17637 17646 1
17638 17640 1
17638 17641 1
17638 17645 1
17639 17644 1
17639 17645 1
17640 17642 1
17640 17643 1
17641 17646 1
17642 17644 1
17642 17645 1
17644 17646 1
17649 17652 1
17649 17653 1
17649 17657 1
17649 17660 1
17650 17654 1
17650 17655 1
17650 17658 1
17651 17656 1
17651 17657 1
17651 17660 1
17652 17654 1
17652 17655 1
17652 17659 1
17653 17658 1
17653 17659 1
17654 17656 1
17654 17657 1
17655 17660 1
17656 17658 1
17656 17659 1
17658 17660 1
17663 17666 1
17663 17667 1
17663 17671 1
17663 17674 1
17664 17668 1
17664 17669 1
17664 17672 1
17665 17670 1
17665 17671 1
17665 17674 1
17666 17668 1
17666 17669 1
17666 17673 1
17667 17672 1
17667 17673 1
17668 17670 1
17668 17671 1
17669 17674 1
17670 17672 1
17670 17673 1
17672 17674 1
17677 17680 1
17677 17681 1
17677 17685 1
17677 17688 1
17678 17682 1
17678 17683 1
17678 17686 1
17679 17684 1
17679 17685 1
17679 17688 1
17680 17682 1
17680 17683 1
17680 17687 1
17681 17686 1
17681 17687 1
17682 17684 1
17682 17685 1
17683 17688 1
17684 17686 1
17684 17687 1
17686 17688 1
17691 17694 1
17691 17695 1
17691 17699 1
17691 17702 1
17692 17696 1
17692 17697 1
17692 17700 1
17693 17698 1
17693 17699 1
17693 17702 1
17694 17696 1
17694 17697 1
17694 17701 1
17695 17700 1
17695 17701 1
17696 17698 1
17696 17699 1
17697 17702 1
17698 17700 1
17698 17701 1
17700 17702 1
17705 17708 1
17705 17709 1
17705 17713 1
17705 17716 1
17706 17710 1
17706 17711 1
17706 17714 1
17707 17712 1
17707 17713 1
17707 17716 1
17708 17710 1
17708 17711 1
17708 17715 1
17709 17714 1
17709 17715 1
17710 17712 1
17710 17713 1
17711 17716 1
17712 17714 1
17712 17715 1
17714 17716 1
17719 17722 1
17719 17723 1
17719 17727 1
17719 17730 1
17720 17724 1
17720 17725 1
17720 17728 1
17721 17726 1
17721 17727 1
17721 17730 1
17722 17724 1
17722 17725 1
17722 17729 1
17723 17728 1
17723 17729 1
17724 17726 1
17724 17727 1
17725 17730 1
17726 17728 1
17726 17729 1
17728 17730 1
17733 17736 1
17733 17737 1
17733 17741 1
17733 17744 1
17734 17738 1
17734 17739 1
17734 17742 1
17735 17740 1
17735 17741 1
17735 17744 1
17736 17738 1
17736 17739 1
17736 17743 1
17737 17742 1
17737 17743 1
17738 17740 1
17738 17741 1
17739 17744 1
17740 17742 1
17740 17743 1
17742 17744 1
17747 17750 1
17747 17751 1
17747 17755 1
17747 17758 1
17748 17752 1
17748 17753 1
17748 17756 1
17749 17754 1
17749 17755 1
17749 17758 1
17750 17752 1
17750 17753 1
17750 17757 1
17751 17756 1
17751 17757 1
17752 17754 1
17752 17755 1
17753 17758 1
17754 17756 1
17754 17757 1
17756 17758 1
17761 17764 1
17761 17765 1
17761 17769 1
17761 17772 1
17762 17766 1
17762 17767 1
17762 17770 1
17763 17768 1
17763 17769 1
17763 17772 1
17764 17766 1
17764 17767 1
17764 17771 1
17765 17770 1
17765 17771 1
17766 17768 1
17766 17769 1
17767 17772 1
17768 17770 1
17768 17771 1
17770 17772 1
17775 17778 1
17775 17779 1
17775 17783 1
17775 17786 1
17776 17780 1
17776 17781 1
17776 17784 1
17777 17782 1
17777 17783 1
17777 17786 1
17778 17780 1
17778 17781 1
17778 17785 1
17779 17784 1
17779 17785 1
17780 17782 1
17780 17783 1
17781 17786 1
17782 17784 1
17782 17785 1
17784 17786 1
17789 17792 1
17789 17793 1
17789 17797 1
17789 17800 1
17790 17794 1
17790 17795 1
17790 17798 1
17791 17796 1
17791 17797 1
17791 17800 1
17792 17794 1
17792 17795 1
17792 17799 1
17793 17798 1
17793 17799 1
17794 17796 1
17794 17797 1
17795 17800 1
17796 17798 1
17796 17799 1
17798 17800 1
17803 17806 1
17803 17807 1
17803 17811 1
17803 17814 1
17804 17808 1
17804 17809 1
17804 17812 1
17805 17810 1
17805 17811 1
17805 17814 1
17806 17808 1
17806 17809 1
17806 17813 1
17807 17812 1
17807 17813 1
17808 17810 1
17808 17811 1
17809 17814 1
17810 17812 1
17810 17813 1
17812 17814 1
17817 17820 1
17817 17821 1
17817 17825 1
17817 17828 1
17818 17822 1
17818 17823 1
17818 17826 1
17819 17824 1
17819 17825 1
17819 17828 1
17820 17822 1
17820 17823 1
17820 17827 1
17821 17826 1
17821 17827 1
17822 17824 1
17822 17825 1
17823 17828 1
17824 17826 1
17824 17827 1
17826 17828 1
17831 17834 1
17831 17835 1
17831 17839 1
17831 17842 1
17832 17836 1
17832 17837 1
17832 17840 1
17833 17838 1
17833 17839 1
17833 17842 1
17834 17836 1
17834 17837 1
17834 17841 1
17835 17840 1
17835 17841 1
17836 17838 1
17836 17839 1
17837 17842 1
17838 17840 1
17838 17841 1
17840 17842 1
17845 17848 1
17845 17849 1
17845 17853 1
17845 17856 1
17846 17850 1
17846 17851 1
17846 17854 1
17847 17852 1
17847 17853 1
17847 17856 1
17848 17850 1
17848 17851 1
17848 17855 1
17849 17854 1
17849 17855 1
17850 17852 1
17850 17853 1
17851 17856 1
17852 17854 1
17852 17855 1
17854 17856 1
17859 17862 1
17859 17863 1
17859 17867 1
17859 17870 1
17860 17864 1
17860 17865 1
17860 17868 1
17861 17866 1
17861 17867 1
17861 17870 1
17862 17864 1
17862 17865 1
17862 17869 1
17863 17868 1
17863 17869 1
17864 17866 1
17864 17867 1
17865 17870 1
17866 17868 1
17866 17869 1
17868 17870 1
17873 17876 1
17873 17877 1
17873 17881 1
17873 17884 1
17874 17878 1
17874 17879 1
17874 17882 1
17875 17880 1
17875 17881 1
17875 17884 1
17876 17878 1
17876 17879 1
17876 17883 1
17877 17882 1
17877 17883 1
17878 17880 1
17878 17881 1
17879 17884 1
17880 17882 1
17880 17883 1
17882 17884 1
17887 17890 1
17887 17891 1
17887 17895 1
17887 17898 1
17888 17892 1
17888 17893 1
17888 17896 1
17889 17894 1
17889 17895 1
17889 17898 1
17890 17892 1
17890 17893 1
17890 17897 1
17891 17896 1
17891 17897 1
17892 17894 1
17892 17895 1
17893 17898 1
17894 17896 1
17894 17897 1
17896 17898 1
17901 17904 1
17901 17905 1
17901 17909 1
17901 17912 1
17902 17906 1
17902 17907 1
17902 17910 1
17903 17908 1
17903 17909 1
17903 17912 1
17904 17906 1
17904 17907 1
17904 17911 1
17905 17910 1
17905 17911 1
17906 17908 1
17906 17909 1
17907 17912 1
17908 17910 1
17908 17911 1
17910 17912 1
17915 17918 1
17915 17919 1
17915 17923 1
17915 17926 1
17916 17920 1
17916 17921 1
17916 17924 1
17917 17922 1
17917 17923 1
17917 17926 1
17918 17920 1
17918 17921 1
17918 17925 1
17919 17924 1
17919 17925 1
17920 17922 1
17920 17923 1
17921 17926 1
17922 17924 1
17922 17925 1
17924 17926 1
17929 17932 1
17929 17933 1
17929 17937 1
17929 17940 1
17930 17934 1
17930 17935 1
17930 17938 1
17931 17936 1
17931 17937 1
17931 17940 1
17932 17934 1
17932 17935 1
17932 17939 1
17933 17938 1
17933 17939 1
17934 17936 1
17934 17937 1
17935 17940 1
17936 17938 1
17936 17939 1
17938 17940 1
17943 17946 1
17943 17947 1
17943 17951 1
17943 17954 1
17944 17948 1
17944 17949 1
17944 17952 1
17945 17950 1
17945 17951 1
17945 17954 1
17946 17948 1
17946 17949 1
17946 17953 1
17947 17952 1
17947 17953 1
17948 17950 1
17948 17951 1
17949 17954 1
17950 17952 1
17950 17953 1
17952 17954 1
17957 17960 1
17957 17961 1
17957 17965 1
17957 17968 1
17958 17962 1
17958 17963 1
17958 17966 1
17959 17964 1
17959 17965 1
17959 17968 1
17960 17962 1
17960 17963 1
17960 17967 1
17961 17966 1
17961 17967 1
17962 17964 1
17962 17965 1
17963 17968 1
17964 17966 1
17964 17967 1
17966 17968 1
17971 17974 1
17971 17975 1
17971 17979 1
17971 17982 1
17972 17976 1
17972 17977 1
17972 17980 1
17973 17978 1
17973 17979 1
17973 17982 1
17974 17976 1
17974 17977 1
17974 17981 1
17975 17980 1
17975 17981 1
17976 17978 1
17976 17979 1
17977 17982 1
17978 17980 1
17978 17981 1
17980 17982 1
17985 17988 1
17985 17989 1
17985 17993 1
17985 17996 1
17986 17990 1
17986 17991 1
17986 17994 1
17987 17992 1
17987 17993 1
17987 17996 1
17988 17990 1
17988 17991 1
17988 17995 1
17989 17994 1
17989 17995 1
17990 17992 1
17990 17993 1
17991 17996 1
17992 17994 1
17992 17995 1
17994 17996 1
17999 18002 1
17999 18003 1
17999 18007 1
17999 18010 1
18000 18004 1
18000 18005 1
18000 18008 1
18001 18006 1
18001 18007 1
18001 18010 1
18002 18004 1
18002 18005 1
18002 18009 1
18003 18008 1
18003 18009 1
18004 18006 1
18004 18007 1
18005 18010 1
18006 18008 1
18006 18009 1
18008 18010 1
18013 18016 1
18013 18017 1
18013 18021 1
18013 18024 1
18014 18018 1
18014 18019 1
18014 18022 1
18015 18020 1
18015 18021 1
18015 18024 1
18016 18018 1
18016 18019 1
18016 18023 1
18017 18022 1
18017 18023 1
18018 18020 1
18018 18021 1
18019 18024 1
18020 18022 1
18020 18023 1
18022 18024 1
18027 18030 1
18027 18031 1
18027 18035 1
18027 18038 1
18028 18032 1
18028 18033 1
18028 18036 1
18029 18034 1
18029 18035 1
18029 18038 1
18030 18032 1
18030 18033 1
18030 18037 1
18031 18036 1
18031 18037 1
18032 18034 1
18032 18035 1
18033 18038 1
18034 18036 1
18034 18037 1
18036 18038 1
18041 18044 1
18041 18045 1
18041 18049 1
18041 18052 1
18042 18046 1
18042 18047 1
18042 18050 1
18043 18048 1
18043 18049 1
18043 18052 1
18044 18046 1
18044 18047 1
18044 18051 1
18045 18050 1
18045 18051 1
18046 18048 1
18046 18049 1
18047 18052 1
18048 18050 1
18048 18051 1
18050 18052 1
18055 18058 1
18055 18059 1
18055 18063 1
18055 18066 1
18056 18060 1
18056 18061 1
18056 18064 1
18057 18062 1
18057 18063 1
18057 18066 1
18058 18060 1
18058 18061 1
18058 18065 1
18059 18064 1
18059 18065 1
18060 18062 1
18060 18063 1
18061 18066 1
18062 18064 1
18062 18065 1
18064 18066 1
18069 18072 1
18069 18073 1
18069 18077 1
18069 18080 1
18070 18074 1
18070 18075 1
18070 18078 1
18071 18076 1
18071 18077 1
18071 18080 1
18072 18074 1
18072 18075 1
18072 18079 1
18073 18078 1
18073 18079 1
18074 18076 1
18074 18077 1
18075 18080 1
18076 18078 1
18076 18079 1
18078 18080 1
18083 18086 1
18083 18087 1
18083 18091 1
18083 18094 1
18084 18088 1
18084 18089 1
18084 18092 1
18085 18090 1
18085 18091 1
18085 18094 1
18086 18088 1
18086 18089 1
18086 18093 1
18087 18092 1
18087 18093 1
18088 18090 1
18088 18091 1
18089 18094 1
18090 18092 1
18090 18093 1
18092 18094 1
18097 18100 1
18097 18101 1
18097 18105 1
18097 18108 1
18098 18102 1
18098 18103 1
18098 18106 1
18099 18104 1
18099 18105 1
18099 18108 1
18100 18102 1
18100 18103 1
18100 18107 1
18101 18106 1
18101 18107 1
18102 18104 1
18102 18105 1
18103 18108 1
18104 18106 1
18104 18107 1
18106 18108 1
18111 18114 1
18111 18115 1
18111 18119 1
18111 18122 1
18112 18116 1
18112 18117 1
18112 18120 1
18113 18118 1
18113 18119 1
18113 18122 1
18114 18116 1
18114 18117 1
18114 18121 1
18115 18120 1
18115 18121 1
18116 18118 1
18116 18119 1
18117 18122 1
18118 18120 1
18118 18121 1
18120 18122 1
18125 18128 1
18125 18129 1
18125 18133 1
18125 18136 1
18126 18130 1
18126 18131 1
18126 18134 1
18127 18132 1
18127 18133 1
18127 18136 1
18128 18130 1
18128 18131 1
18128 18135 1
18129 18134 1
18129 18135 1
18130 18132 1
18130 18133 1
18131 18136 1
18132 18134 1
18132 18135 1
18134 18136 1
18139 18142 1
18139 18143 1
18139 18147 1
18139 18150 1
18140 18144 1
18140 18145 1
18140 18148 1
18141 18146 1
18141 18147 1
18141 18150 1
18142 18144 1
18142 18145 1
18142 18149 1
18143 18148 1
18143 18149 1
18144 18146 1
18144 18147 1
18145 18150 1
18146 18148 1
18146 18149 1
18148 18150 1
18153 18156 1
18153 18157 1
18153 18161 1
18153 18164 1
18154 18158 1
18154 18159 1
18154 18162 1
18155 18160 1
18155 18161 1
18155 18164 1
18156 18158 1
18156 18159 1
18156 18163 1
18157 18162 1
18157 18163 1
18158 18160 1
18158 18161 1
18159 18164 1
18160 18162 1
18160 18163 1
18162 18164 1
18167 18170 1
18167 18171 1
18167 18175 1
18167 18178 1
18168 18172 1
18168 18173 1
18168 18176 1
18169 18174 1
18169 18175 1
18169 18178 1
18170 18172 1
18170 18173 1
18170 18177 1
18171 18176 1
18171 18177 1
18172 18174 1
18172 18175 1
18173 18178 1
18174 18176 1
18174 18177 1
18176 18178 1
18181 18184 1
18181 18185 1
18181 18189 1
18181 18192 1
18182 18186 1
18182 18187 1
18182 18190 1
18183 18188 1
18183 18189 1
18183 18192 1
18184 18186 1
18184 18187 1
18184 18191 1
18185 18190 1
18185 18191 1
18186 18188 1
18186 18189 1
18187 18192 1
18188 18190 1
18188 18191 1
18190 18192 1
18195 18198 1
18195 18199 1
18195 18203 1
18195 18206 1
18196 18200 1
18196 18201 1
18196 18204 1
18197 18202 1
18197 18203 1
18197 18206 1
18198 18200 1
18198 18201 1
18198 18205 1
18199 18204 1
18199 18205 1
18200 18202 1
18200 18203 1
18201 18206 1
18202 18204 1
18202 18205 1
18204 18206 1
18209 18212 1
18209 18213 1
18209 18217 1
18209 18220 1
18210 18214 1
18210 18215 1
18210 18218 1
18211 18216 1
18211 18217 1
18211 18220 1
18212 18214 1
18212 18215 1
18212 18219 1
18213 18218 1
18213 18219 1
18214 18216 1
18214 18217 1
18215 18220 1
18216 18218 1
18216 18219 1
18218 18220 1
18223 18226 1
18223 18227 1
18223 18231 1
18223 18234 1
18224 18228 1
18224 18229 1
18224 18232 1
18225 18230 1
18225 18231 1
18225 18234 1
18226 18228 1
18226 18229 1
18226 18233 1
18227 18232 1
18227 18233 1
18228 18230 1
18228 18231 1
18229 18234 1
18230 18232 1
18230 18233 1
18232 18234 1
18237 18240 1
18237 18241 1
18237 18245 1
18237 18248 1
18238 18242 1
18238 18243 1
18238 18246 1
18239 18244 1
18239 18245 1
18239 18248 1
18240 18242 1
18240 18243 1
18240 18247 1
18241 18246 1
18241 18247 1
18242 18244 1
18242 18245 1
18243 18248 1
18244 18246 1
18244 18247 1
18246 18248 1
18251 18254 1
18251 18255 1
18251 18259 1
18251 18262 1
18252 18256 1
18252 18257 1
18252 18260 1
18253 18258 1
18253 18259 1
18253 18262 1
18254 18256 1
18254 18257 1
18254 18261 1
18255 18260 1
18255 18261 1
18256 18258 1
18256 18259 1
18257 18262 1
18258 18260 1
18258 18261 1
18260 18262 1
18265 18268 1
18265 18269 1
18265 18273 1
18265 18276 1
18266 18270 1
18266 18271 1
18266 18274 1
18267 18272 1
18267 18273 1
18267 18276 1
18268 18270 1
18268 18271 1
18268 18275 1
18269 18274 1
18269 18275 1
18270 18272 1
18270 18273 1
18271 18276 1
18272 18274 1
18272 18275 1
18274 18276 1
18279 18282 1
18279 18283 1
18279 18287 1
18279 18290 1
18280 18284 1
18280 18285 1
18280 18288 1
18281 18286 1
18281 18287 1
18281 18290 1
18282 18284 1
18282 18285 1
18282 18289 1
18283 18288 1
18283 18289 1
18284 18286 1
18284 18287 1
18285 18290 1
18286 18288 1
18286 18289 1
18288 18290 1
18293 18296 1
18293 18297 1
18293 18301 1
18293 18304 1
18294 18298 1
18294 18299 1
18294 18302 1
18295 18300 1
18295 18301 1
18295 18304 1
18296 18298 1
18296 18299 1
18296 18303 1
18297 18302 1
18297 18303 1
18298 18300 1
18298 18301 1
18299 18304 1
18300 18302 1
18300 18303 1
18302 18304 1
18307 18310 1
18307 18311 1
18307 18315 1
18307 18318 1
18308 18312 1
18308 18313 1
18308 18316 1
18309 18314 1
18309 18315 1
18309 18318 1
18310 18312 1
18310 18313 1
18310 18317 1
18311 18316 1
18311 18317 1
18312 18314 1
18312 18315 1
18313 18318 1
18314 18316 1
18314 18317 1
18316 18318 1
18321 18324 1
18321 18325 1
18321 18329 1
18321 18332 1
18322 18326 1
18322 18327 1
18322 18330 1
18323 18328 1
18323 18329 1
18323 18332 1
18324 18326 1
18324 18327 1
18324 18331 1
18325 18330 1
18325 18331 1
18326 18328 1
18326 18329 1
18327 18332 1
18328 18330 1
18328 18331 1
18330 18332 1
18335 18338 1
18335 18339 1
18335 18343 1
18335 18346 1
18336 18340 1
18336 18341 1
18336 18344 1
18337 18342 1
18337 18343 1
18337 18346 1
18338 18340 1
18338 18341 1
18338 18345 1
18339 18344 1
18339 18345 1
18340 18342 1
18340 18343 1
18341 18346 1
18342 18344 1
18342 18345 1
18344 18346 1
18349 18352 1
18349 18353 1
18349 18357 1
18349 18360 1
18350 18354 1
18350 18355 1
18350 18358 1
18351 18356 1
18351 18357 1
18351 18360 1
18352 18354 1
18352 18355 1
18352 18359 1
18353 18358 1
18353 18359 1
18354 18356 1
18354 18357 1
18355 18360 1
18356 18358 1
18356 18359 1
18358 18360 1
18363 18366 1
18363 18367 1
18363 18371 1
18363 18374 1
18364 18368 1
18364 18369 1
18364 18372 1
18365 18370 1
18365 18371 1
18365 18374 1
18366 18368 1
18366 18369 1
18366 18373 1
18367 18372 1
18367 18373 1
18368 18370 1
18368 18371 1
18369 18374 1
18370 18372 1
18370 18373 1
18372 18374 1
18377 18380 1
18377 18381 1
18377 18385 1
18377 18388 1
18378 18382 1
18378 18383 1
18378 18386 1
18379 18384 1
18379 18385 1
18379 18388 1
18380 18382 1
18380 18383 1
18380 18387 1
18381 18386 1
18381 18387 1
18382 18384 1
18382 18385 1
18383 18388 1
18384 18386 1
18384 18387 1
18386 18388 1
18391 18394 1
18391 18395 1
18391 18399 1
18391 18402 1
18392 18396 1
18392 18397 1
18392 18400 1
18393 18398 1
18393 18399 1
18393 18402 1
18394 18396 1
18394 18397 1
18394 18401 1
18395 18400 1
18395 18401 1
18396 18398 1
18396 18399 1
18397 18402 1
18398 18400 1
18398 18401 1
18400 18402 1
18403 18406 1
18403 18407 1
18403 18411 1
18403 18414 1
18404 18408 1
18404 18409 1
18404 18412 1
18405 18410 1
18405 18411 1
18405 18414 1
18406 18408 1
18406 18409 1
18406 18413 1
18407 18412 1
18407 18413 1
18408 18410 1
18408 18411 1
18409 18414 1
18410 18412 1
18410 18413 1
18412 18414 1
18415 18418 1
18415 18419 1
18415 18423 1
18415 18426 1
18416 18420 1
18416 18421 1
18416 18424 1
18417 18422 1
18417 18423 1
18417 18426 1
18418 18420 1
18418 18421 1
18418 18425 1
18419 18424 1
18419 18425 1
18420 18422 1
18420 18423 1
18421 18426 1
18422 18424 1
18422 18425 1
18424 18426 1
18427 18430 1
18427 18431 1
18427 18435 1
18427 18438 1
18428 18432 1
18428 18433 1
18428 18436 1
18429 18434 1
18429 18435 1
18429 18438 1
18430 18432 1
18430 18433 1
18430 18437 1
18431 18436 1
18431 18437 1
18432 18434 1
18432 18435 1
18433 18438 1
18434 18436 1
18434 18437 1
18436 18438 1
18439 18442 1
18439 18443 1
18439 18447 1
18439 18450 1
18440 18444 1
18440 18445 1
18440 18448 1
18441 18446 1
18441 18447 1
18441 18450 1
18442 18444 1
18442 18445 1
18442 18449 1
18443 18448 1
18443 18449 1
18444 18446 1
18444 18447 1
18445 18450 1
18446 18448 1
18446 18449 1
18448 18450 1
18451 18454 1
18451 18455 1
18451 18459 1
18451 18462 1
18452 18456 1
18452 18457 1
18452 18460 1
18453 18458 1
18453 18459 1
18453 18462 1
18454 18456 1
18454 18457 1
18454 18461 1
18455 18460 1
18455 18461 1
18456 18458 1
18456 18459 1
18457 18462 1
18458 18460 1
18458 18461 1
18460 18462 1
18463 18466 1
18463 18467 1
18463 18471 1
18463 18474 1
18464 18468 1
18464 18469 1
18464 18472 1
18465 18470 1
18465 18471 1
18465 18474 1
18466 18468 1
18466 18469 1
18466 18473 1
18467 18472 1
18467 18473 1
18468 18470 1
18468 18471 1
18469 18474 1
18470 18472 1
18470 18473 1
18472 18474 1
18475 18478 1
18475 18479 1
18475 18483 1
18475 18486 1
18476 18480 1
18476 18481 1
18476 18484 1
18477 18482 1
18477 18483 1
18477 18486 1
18478 18480 1
18478 18481 1
18478 18485 1
18479 18484 1
18479 18485 1
18480 18482 1
18480 18483 1
18481 18486 1
18482 18484 1
18482 18485 1
18484 18486 1
18487 18490 1
18487 18491 1
18487 18495 1
18487 18498 1
18488 18492 1
18488 18493 1
18488 18496 1
18489 18494 1
18489 18495 1
18489 18498 1
18490 18492 1
18490 18493 1
18490 18497 1
18491 18496 1
18491 18497 1
18492 18494 1
18492 18495 1
18493 18498 1
18494 18496 1
18494 18497 1
18496 18498 1
18499 18502 1
18499 18503 1
18499 18507 1
18499 18510 1
18500 18504 1
18500 18505 1
18500 18508 1
18501 18506 1
18501 18507 1
18501 18510 1
18502 18504 1
18502 18505 1
18502 18509 1
18503 18508 1
18503 18509 1
18504 18506 1
18504 18507 1
18505 18510 1
18506 18508 1
18506 18509 1
18508 18510 1
18511 18514 1
18511 18515 1
18511 18519 1
18511 18522 1
18512 18516 1
18512 18517 1
18512 18520 1
18513 18518 1
18513 18519 1
18513 18522 1
18514 18516 1
18514 18517 1
18514 18521 1
18515 18520 1
18515 18521 1
18516 18518 1
18516 18519 1
18517 18522 1
18518 18520 1
18518 18521 1
18520 18522 1
18523 18526 1
18523 18527 1
18523 18531 1
18523 18534 1
18524 18528 1
18524 18529 1
18524 18532 1
18525 18530 1
18525 18531 1
18525 18534 1
18526 18528 1
18526 18529 1
18526 18533 1
18527 18532 1
18527 18533 1
18528 18530 1
18528 18531 1
18529 18534 1
18530 18532 1
18530 18533 1
18532 18534 1
18535 18538 1
18535 18539 1
18535 18543 1
18535 18546 1
18536 18540 1
18536 18541 1
18536 18544 1
18537 18542 1
18537 18543 1
18537 18546 1
18538 18540 1
18538 18541 1
18538 18545 1
18539 18544 1
18539 18545 1
18540 18542 1
18540 18543 1
18541 18546 1
18542 18544 1
18542 18545 1
18544 18546 1
18547 18550 1
18547 18551 1
18547 18555 1
18547 18558 1
18548 18552 1
18548 18553 1
18548 18556 1
18549 18554 1
18549 18555 1
18549 18558 1
18550 18552 1
18550 18553 1
18550 18557 1
18551 18556 1
18551 18557 1
18552 18554 1
18552 18555 1
18553 18558 1
18554 18556 1
18554 18557 1
18556 18558 1
18559 18562 1
18559 18563 1
18559 18567 1
18559 18570 1
18560 18564 1
18560 18565 1
18560 18568 1
18561 18566 1
18561 18567 1
18561 18570 1
18562 18564 1
18562 18565 1
18562 18569 1
18563 18568 1
18563 18569 1
18564 18566 1
18564 18567 1
18565 18570 1
18566 18568 1
18566 18569 1
18568 18570 1
18571 18574 1
18571 18575 1
18571 18579 1
18571 18582 1
18572 18576 1
18572 18577 1
18572 18580 1
18573 18578 1
18573 18579 1
18573 18582 1
18574 18576 1
18574 18577 1
18574 18581 1
18575 18580 1
18575 18581 1
18576 18578 1
18576 18579 1
18577 18582 1
18578 18580 1
18578 18581 1
18580 18582 1
18583 18586 1
18583 18587 1
18583 18591 1
18583 18594 1
18584 18588 1
18584 18589 1
18584 18592 1
18585 18590 1
18585 18591 1
18585 18594 1
18586 18588 1
18586 18589 1
18586 18593 1
18587 18592 1
18587 18593 1
18588 18590 1
18588 18591 1
18589 18594 1
18590 18592 1
18590 18593 1
18592 18594 1
18595 18598 1
18595 18599 1
18595 18603 1
18595 18606 1
18596 18600 1
18596 18601 1
18596 18604 1
18597 18602 1
18597 18603 1
18597 18606 1
18598 18600 1
18598 18601 1
18598 18605 1
18599 18604 1
18599 18605 1
18600 18602 1
18600 18603 1
18601 18606 1
18602 18604 1
18602 18605 1
18604 18606 1
18607 18610 1
18607 18611 1
18607 18615 1
18607 18618 1
18608 18612 1
18608 18613 1
18608 18616 1
18609 18614 1
18609 18615 1
18609 18618 1
18610 18612 1
18610 18613 1
18610 18617 1
18611 18616 1
18611 18617 1
18612 18614 1
18612 18615 1
18613 18618 1
18614 18616 1
18614 18617 1
18616 18618 1
18619 18622 1
18619 18623 1
18619 18627 1
18619 18630 1
18620 18624 1
18620 18625 1
18620 18628 1
18621 18626 1
18621 18627 1
18621 18630 1
18622 18624 1
18622 18625 1
18622 18629 1
18623 18628 1
18623 18629 1
18624 18626 1
18624 18627 1
18625 18630 1
18626 18628 1
18626 18629 1
18628 18630 1
18631 18634 1
18631 18635 1
18631 18639 1
18631 18642 1
18632 18636 1
18632 18637 1
18632 18640 1
18633 18638 1
18633 18639 1
18633 18642 1
18634 18636 1
18634 18637 1
18634 18641 1
18635 18640 1
18635 18641 1
18636 18638 1
18636 18639 1
18637 18642 1
18638 18640 1
18638 18641 1
18640 18642 1
18643 18646 1
18643 18647 1
18643 18651 1
18643 18654 1
18644 18648 1
18644 18649 1
18644 18652 1
18645 18650 1
18645 18651 1
18645 18654 1
18646 18648 1
18646 18649 1
18646 18653 1
18647 18652 1
18647 18653 1
18648 18650 1
18648 18651 1
18649 18654 1
18650 18652 1
18650 18653 1
18652 18654 1
18655 18658 1
18655 18659 1
18655 18663 1
18655 18666 1
18656 18660 1
18656 18661 1
18656 18664 1
18657 18662 1
18657 18663 1
18657 18666 1
18658 18660 1
18658 18661 1
18658 18665 1
18659 18664 1
18659 18665 1
18660 18662 1
18660 18663 1
18661 18666 1
18662 18664 1
18662 18665 1
18664 18666 1
18667 18670 1
18667 18671 1
18667 18675 1
18667 18678 1
18668 18672 1
18668 18673 1
18668 18676 1
18669 18674 1
18669 18675 1
18669 18678 1
18670 18672 1
18670 18673 1
18670 18677 1
18671 18676 1
18671 18677 1
18672 18674 1
18672 18675 1
18673 18678 1
18674 18676 1
18674 18677 1
18676 18678 1
18679 18682 1
18679 18683 1
18679 18687 1
18679 18690 1
18680 18684 1
18680 18685 1
18680 18688 1
18681 18686 1
18681 18687 1
18681 18690 1
18682 18684 1
18682 18685 1
18682 18689 1
18683 18688 1
18683 18689 1
18684 18686 1
18684 18687 1
18685 18690 1
18686 18688 1
18686 18689 1
18688 18690 1
18691 18694 1
18691 18695 1
18691 18699 1
18691 18702 1
18692 18696 1
18692 18697 1
18692 18700 1
18693 18698 1
18693 18699 1
18693 18702 1
18694 18696 1
18694 18697 1
18694 18701 1
18695 18700 1
18695 18701 1
18696 18698 1
18696 18699 1
18697 18702 1
18698 18700 1
18698 18701 1
18700 18702 1
18703 18706 1
18703 18707 1
18703 18711 1
18703 18714 1
18704 18708 1
18704 18709 1
18704 18712 1
18705 18710 1
18705 18711 1
18705 18714 1
18706 18708 1
18706 18709 1
18706 18713 1
18707 18712 1
18707 18713 1
18708 18710 1
18708 18711 1
18709 18714 1
18710 18712 1
18710 18713 1
18712 18714 1
18715 18718 1
18715 18719 1
18715 18723 1
18715 18726 1
18716 18720 1
18716 18721 1
18716 18724 1
18717 18722 1
18717 18723 1
18717 18726 1
18718 18720 1
18718 18721 1
18718 18725 1
18719 18724 1
18719 18725 1
18720 18722 1
18720 18723 1
18721 18726 1
18722 18724 1
18722 18725 1
18724 18726 1
18727 18730 1
18727 18731 1
18727 18735 1
18727 18738 1
18728 18732 1
18728 18733 1
18728 18736 1
18729 18734 1
18729 18735 1
18729 18738 1
18730 18732 1
18730 18733 1
18730 18737 1
18731 18736 1
18731 18737 1
18732 18734 1
18732 18735 1
18733 18738 1
18734 18736 1
18734 18737 1
18736 18738 1
18739 18742 1
18739 18743 1
18739 18747 1
18739 18750 1
18740 18744 1
18740 18745 1
18740 18748 1
18741 18746 1
18741 18747 1
18741 18750 1
18742 18744 1
18742 18745 1
18742 18749 1
18743 18748 1
18743 18749 1
18744 18746 1
18744 18747 1
18745 18750 1
18746 18748 1
18746 18749 1
18748 18750 1
18751 18754 1
18751 18755 1
18751 18759 1
18751 18762 1
18752 18756 1
18752 18757 1
18752 18760 1
18753 18758 1
18753 18759 1
18753 18762 1
18754 18756 1
18754 18757 1
18754 18761 1
18755 18760 1
18755 18761 1
18756 18758 1
18756 18759 1
18757 18762 1
18758 18760 1
18758 18761 1
18760 18762 1
18763 18766 1
18763 18767 1
18763 18771 1
18763 18774 1
18764 18768 1
18764 18769 1
18764 18772 1
18765 18770 1
18765 18771 1
18765 18774 1
18766 18768 1
18766 18769 1
18766 18773 1
18767 18772 1
18767 18773 1
18768 18770 1
18768 18771 1
18769 18774 1
18770 18772 1
18770 18773 1
18772 18774 1
18775 18778 1
18775 18779 1
18775 18783 1
18775 18786 1
18776 18780 1
18776 18781 1
18776 18784 1
18777 18782 1
18777 18783 1
18777 18786 1
18778 18780 1
18778 18781 1
18778 18785 1
18779 18784 1
18779 18785 1
18780 18782 1
18780 18783 1
18781 18786 1
18782 18784 1
18782 18785 1
18784 18786 1
18787 18790 1
18787 18791 1
18787 18795 1
18787 18798 1
18788 18792 1
18788 18793 1
18788 18796 1
18789 18794 1
18789 18795 1
18789 18798 1
18790 18792 1
18790 18793 1
18790 18797 1
18791 18796 1
18791 18797 1
18792 18794 1
18792 18795 1
18793 18798 1
18794 18796 1
18794 18797 1
18796 18798 1
18799 18802 1
18799 18803 1
18799 18807 1
18799 18810 1
18800 18804 1
18800 18805 1
18800 18808 1
18801 18806 1
18801 18807 1
18801 18810 1
18802 18804 1
18802 18805 1
18802 18809 1
18803 18808 1
18803 18809 1
18804 18806 1
18804 18807 1
18805 18810 1
18806 18808 1
18806 18809 1
18808 18810 1
18811 18814 1
18811 18815 1
18811 18819 1
18811 18822 1
18812 18816 1
18812 18817 1
18812 18820 1
18813 18818 1
18813 18819 1
18813 18822 1
18814 18816 1
18814 18817 1
18814 18821 1
18815 18820 1
18815 18821 1
18816 18818 1
18816 18819 1
18817 18822 1
18818 18820 1
18818 18821 1
18820 18822 1
18823 18826 1
18823 18827 1
18823 18831 1
18823 18834 1
18824 18828 1
18824 18829 1
18824 18832 1
18825 18830 1
18825 18831 1
18825 18834 1
18826 18828 1
18826 18829 1
18826 18833 1
18827 18832 1
18827 18833 1
18828 18830 1
18828 18831 1
18829 18834 1
18830 18832 1
18830 18833 1
18832 18834 1
18835 18838 1
18835 18839 1
18835 18843 1
18835 18846 1
18836 18840 1
18836 18841 1
18836 18844 1
18837 18842 1
18837 18843 1
18837 18846 1
18838 18840 1
18838 18841 1
18838 18845 1
18839 18844 1
18839 18845 1
18840 18842 1
18840 18843 1
18841 18846 1
18842 18844 1
18842 18845 1
18844 18846 1
18847 18850 1
18847 18851 1
18847 18855 1
18847 18858 1
18848 18852 1
18848 18853 1
18848 18856 1
18849 18854 1
18849 18855 1
18849 18858 1
18850 18852 1
18850 18853 1
18850 18857 1
18851 18856 1
18851 18857 1
18852 18854 1
18852 18855 1
18853 18858 1
18854 18856 1
18854 18857 1
18856 18858 1
18859 18862 1
18859 18863 1
18859 18867 1
18859 18870 1
18860 18864 1
18860 18865 1
18860 18868 1
18861 18866 1
18861 18867 1
18861 18870 1
18862 18864 1
18862 18865 1
18862 18869 1
18863 18868 1
18863 18869 1
18864 18866 1
18864 18867 1
18865 18870 1
18866 18868 1
18866 18869 1
18868 18870 1
18871 18874 1
18871 18875 1
18871 18879 1
18871 18882 1
18872 18876 1
18872 18877 1
18872 18880 1
18873 18878 1
18873 18879 1
18873 18882 1
18874 18876 1
18874 18877 1
18874 18881 1
18875 18880 1
18875 18881 1
18876 18878 1
18876 18879 1
18877 18882 1
18878 18880 1
18878 18881 1
18880 18882 1
18883 18886 1
18883 18887 1
18883 18891 1
18883 18894 1
18884 18888 1
18884 18889 1
18884 18892 1
18885 18890 1
18885 18891 1
18885 18894 1
18886 18888 1
18886 18889 1
18886 18893 1
18887 18892 1
18887 18893 1
18888 18890 1
18888 18891 1
18889 18894 1
18890 18892 1
18890 18893 1
18892 18894 1
18895 18898 1
18895 18899 1
18895 18903 1
18895 18906 1
18896 18900 1
18896 18901 1
18896 18904 1
18897 18902 1
18897 18903 1
18897 18906 1
18898 18900 1
18898 18901 1
18898 18905 1
18899 18904 1
18899 18905 1
18900 18902 1
18900 18903 1
18901 18906 1
18902 18904 1
18902 18905 1
18904 18906 1
18907 18910 1
18907 18911 1
18907 18915 1
18907 18918 1
18908 18912 1
18908 18913 1
18908 18916 1
18909 18914 1
18909 18915 1
18909 18918 1
18910 18912 1
18910 18913 1
18910 18917 1
18911 18916 1
18911 18917 1
18912 18914 1
18912 18915 1
18913 18918 1
18914 18916 1
18914 18917 1
18916 18918 1
18919 18922 1
18919 18923 1
18919 18927 1
18919 18930 1
18920 18924 1
18920 18925 1
18920 18928 1
18921 18926 1
18921 18927 1
18921 18930 1
18922 18924 1
18922 18925 1
18922 18929 1
18923 18928 1
18923 18929 1
18924 18926 1
18924 18927 1
18925 18930 1
18926 18928 1
18926 18929 1
18928 18930 1
18931 18934 1
18931 18935 1
18931 18939 1
18931 18942 1
18932 18936 1
18932 18937 1
18932 18940 1
18933 18938 1
18933 18939 1
18933 18942 1
18934 18936 1
18934 18937 1
18934 18941 1
18935 18940 1
18935 18941 1
18936 18938 1
18936 18939 1
18937 18942 1
18938 18940 1
18938 18941 1
18940 18942 1
18943 18946 1
18943 18947 1
18943 18951 1
18943 18954 1
18944 18948 1
18944 18949 1
18944 18952 1
18945 18950 1
18945 18951 1
18945 18954 1
18946 18948 1
18946 18949 1
18946 18953 1
18947 18952 1
18947 18953 1
18948 18950 1
18948 18951 1
18949 18954 1
18950 18952 1
18950 18953 1
18952 18954 1
18955 18958 1
18955 18959 1
18955 18963 1
18955 18966 1
18956 18960 1
18956 18961 1
18956 18964 1
18957 18962 1
18957 18963 1
18957 18966 1
18958 18960 1
18958 18961 1
18958 18965 1
18959 18964 1
18959 18965 1
18960 18962 1
18960 18963 1
18961 18966 1
18962 18964 1
18962 18965 1
18964 18966 1
18967 18970 1
18967 18971 1
18967 18975 1
18967 18978 1
18968 18972 1
18968 18973 1
18968 18976 1
18969 18974 1
18969 18975 1
18969 18978 1
18970 18972 1
18970 18973 1
18970 18977 1
18971 18976 1
18971 18977 1
18972 18974 1
18972 18975 1
18973 18978 1
18974 18976 1
18974 18977 1
18976 18978 1
18979 18982 1
18979 18983 1
18979 18987 1
18979 18990 1
18980 18984 1
18980 18985 1
18980 18988 1
18981 18986 1
18981 18987 1
18981 18990 1
18982 18984 1
18982 18985 1
18982 18989 1
18983 18988 1
18983 18989 1
18984 18986 1
18984 18987 1
18985 18990 1
18986 18988 1
18986 18989 1
18988 18990 1
18991 18994 1
18991 18995 1
18991 18999 1
18991 19002 1
18992 18996 1
18992 18997 1
18992 19000 1
18993 18998 1
18993 18999 1
18993 19002 1
18994 18996 1
18994 18997 1
18994 19001 1
18995 19000 1
18995 19001 1
18996 18998 1
18996 18999 1
18997 19002 1
18998 19000 1
18998 19001 1
19000 19002 1
19003 19006 1
19003 19007 1
19003 19011 1
19003 19014 1
19004 19008 1
19004 19009 1
19004 19012 1
19005 19010 1
19005 19011 1
19005 19014 1
19006 19008 1
19006 19009 1
19006 19013 1
19007 19012 1
19007 19013 1
19008 19010 1
19008 19011 1
19009 19014 1
19010 19012 1
19010 19013 1
19012 19014 1
19015 19018 1
19015 19019 1
19015 19023 1
19015 19026 1
19016 19020 1
19016 19021 1
19016 19024 1
19017 19022 1
19017 19023 1
19017 19026 1
19018 19020 1
19018 19021 1
19018 19025 1
19019 19024 1
19019 19025 1
19020 19022 1
19020 19023 1
19021 19026 1
19022 19024 1
19022 19025 1
19024 19026 1
19027 19030 1
19027 19031 1
19027 19035 1
19027 19038 1
19028 19032 1
19028 19033 1
19028 19036 1
19029 19034 1
19029 19035 1
19029 19038 1
19030 19032 1
19030 19033 1
19030 19037 1
19031 19036 1
19031 19037 1
19032 19034 1
19032 19035 1
19033 19038 1
19034 19036 1
19034 19037 1
19036 19038 1
19039 19042 1
19039 19043 1
19039 19047 1
19039 19050 1
19040 19044 1
19040 19045 1
19040 19048 1
19041 19046 1
19041 19047 1
19041 19050 1
19042 19044 1
19042 19045 1
19042 19049 1
19043 19048 1
19043 19049 1
19044 19046 1
19044 19047 1
19045 19050 1
19046 19048 1
19046 19049 1
19048 19050 1
19051 19054 1
19051 19055 1
19051 19059 1
19051 19062 1
19052 19056 1
19052 19057 1
19052 19060 1
19053 19058 1
19053 19059 1
19053 19062 1
19054 19056 1
19054 19057 1
19054 19061 1
19055 19060 1
19055 19061 1
19056 19058 1
19056 19059 1
19057 19062 1
19058 19060 1
19058 19061 1
19060 19062 1
19063 19066 1
19063 19067 1
19063 19071 1
19063 19074 1
19064 19068 1
19064 19069 1
19064 19072 1
19065 19070 1
19065 19071 1
19065 19074 1
19066 19068 1
19066 19069 1
19066 19073 1
19067 19072 1
19067 19073 1
19068 19070 1
19068 19071 1
19069 19074 1
19070 19072 1
19070 19073 1
19072 19074 1
19075 19078 1
19075 19079 1
19075 19083 1
19075 19086 1
19076 19080 1
19076 19081 1
19076 19084 1
19077 19082 1
19077 19083 1
19077 19086 1
19078 19080 1
19078 19081 1
19078 19085 1
19079 19084 1
19079 19085 1
19080 19082 1
19080 19083 1
19081 19086 1
19082 19084 1
19082 19085 1
19084 19086 1
19087 19090 1
19087 19091 1
19087 19095 1
19087 19098 1
19088 19092 1
19088 19093 1
19088 19096 1
19089 19094 1
19089 19095 1
19089 19098 1
19090 19092 1
19090 19093 1
19090 19097 1
19091 19096 1
19091 19097 1
19092 19094 1
19092 19095 1
19093 19098 1
19094 19096 1
19094 19097 1
19096 19098 1
19099 19102 1
19099 19103 1
19099 19107 1
19099 19110 1
19100 19104 1
19100 19105 1
19100 19108 1
19101 19106 1
19101 19107 1
19101 19110 1
19102 19104 1
19102 19105 1
19102 19109 1
19103 19108 1
19103 19109 1
19104 19106 1
19104 19107 1
19105 19110 1
19106 19108 1
19106 19109 1
19108 19110 1
19111 19114 1
19111 19115 1
19111 19119 1
19111 19122 1
19112 19116 1
19112 19117 1
19112 19120 1
19113 19118 1
19113 19119 1
19113 19122 1
19114 19116 1
19114 19117 1
19114 19121 1
19115 19120 1
19115 19121 1
19116 19118 1
19116 19119 1
19117 19122 1
19118 19120 1
19118 19121 1
19120 19122 1
19123 19126 1
19123 19127 1
19123 19131 1
19123 19134 1
19124 19128 1
19124 19129 1
19124 19132 1
19125 19130 1
19125 19131 1
19125 19134 1
19126 19128 1
19126 19129 1
19126 19133 1
19127 19132 1
19127 19133 1
19128 19130 1
19128 19131 1
19129 19134 1
19130 19132 1
19130 19133 1
19132 19134 1
19135 19138 1
19135 19139 1
19135 19143 1
19135 19146 1
19136 19140 1
19136 19141 1
19136 19144 1
19137 19142 1
19137 19143 1
19137 19146 1
19138 19140 1
19138 19141 1
19138 19145 1
19139 19144 1
19139 19145 1
19140 19142 1
19140 19143 1
19141 19146 1
19142 19144 1
19142 19145 1
19144 19146 1
19147 19150 1
19147 19151 1
19147 19155 1
19147 19158 1
19148 19152 1
19148 19153 1
19148 19156 1
19149 19154 1
19149 19155 1
19149 19158 1
19150 19152 1
19150 19153 1
19150 19157 1
19151 19156 1
19151 19157 1
19152 19154 1
19152 19155 1
19153 19158 1
19154 19156 1
19154 19157 1
19156 19158 1
19159 19162 1
19159 19163 1
19159 19167 1
19159 19170 1
19160 19164 1
19160 19165 1
19160 19168 1
19161 19166 1
19161 19167 1
19161 19170 1
19162 19164 1
19162 19165 1
19162 19169 1
19163 19168 1
19163 19169 1
19164 19166 1
19164 19167 1
19165 19170 1
19166 19168 1
19166 19169 1
19168 19170 1
19171 19174 1
19171 19175 1
19171 19179 1
19171 19182 1
19172 19176 1
19172 19177 1
19172 19180 1
19173 19178 1
19173 19179 1
19173 19182 1
19174 19176 1
19174 19177 1
19174 19181 1
19175 19180 1
19175 19181 1
19176 19178 1
19176 19179 1
19177 19182 1
19178 19180 1
19178 19181 1
19180 19182 1
19183 19186 1
19183 19187 1
19183 19191 1
19183 19194 1
19184 19188 1
19184 19189 1
19184 19192 1
19185 19190 1
19185 19191 1
19185 19194 1
19186 19188 1
19186 19189 1
19186 19193 1
19187 19192 1
19187 19193 1
19188 19190 1
19188 19191 1
19189 19194 1
19190 19192 1
19190 19193 1
19192 19194 1
19195 19198 1
19195 19199 1
19195 19203 1
19195 19206 1
19196 19200 1
19196 19201 1
19196 19204 1
19197 19202 1
19197 19203 1
19197 19206 1
19198 19200 1
19198 19201 1
19198 19205 1
19199 19204 1
19199 19205 1
19200 19202 1
19200 19203 1
19201 19206 1
19202 19204 1
19202 19205 1
19204 19206 1
19207 19210 1
19207 19211 1
19207 19215 1
19207 19218 1
19208 19212 1
19208 19213 1
19208 19216 1
19209 19214 1
19209 19215 1
19209 19218 1
19210 19212 1
19210 19213 1
19210 19217 1
19211 19216 1
19211 19217 1
19212 19214 1
19212 19215 1
19213 19218 1
19214 19216 1
19214 19217 1
19216 19218 1
19219 19222 1
19219 19223 1
19219 19227 1
19219 19230 1
19220 19224 1
19220 19225 1
19220 19228 1
19221 19226 1
19221 19227 1
19221 19230 1
19222 19224 1
19222 19225 1
19222 19229 1
19223 19228 1
19223 19229 1
19224 19226 1
19224 19227 1
19225 19230 1
19226 19228 1
19226 19229 1
19228 19230 1
19231 19234 1
19231 19235 1
19231 19239 1
19231 19242 1
19232 19236 1
19232 19237 1
19232 19240 1
19233 19238 1
19233 19239 1
19233 19242 1
19234 19236 1
19234 19237 1
19234 19241 1
19235 19240 1
19235 19241 1
19236 19238 1
19236 19239 1
19237 19242 1
19238 19240 1
19238 19241 1
19240 19242 1
19243 19246 1
19243 19247 1
19243 19251 1
19243 19254 1
19244 19248 1
19244 19249 1
19244 19252 1
19245 19250 1
19245 19251 1
19245 19254 1
19246 19248 1
19246 19249 1
19246 19253 1
19247 19252 1
19247 19253 1
19248 19250 1
19248 19251 1
19249 19254 1
19250 19252 1
19250 19253 1
19252 19254 1
19255 19258 1
19255 19259 1
19255 19263 1
19255 19266 1
19256 19260 1
19256 19261 1
19256 19264 1
19257 19262 1
19257 19263 1
19257 19266 1
19258 19260 1
19258 19261 1
19258 19265 1
19259 19264 1
19259 19265 1
19260 19262 1
19260 19263 1
19261 19266 1
19262 19264 1
19262 19265 1
19264 19266 1
19267 19270 1
19267 19271 1
19267 19275 1
19267 19278 1
19268 19272 1
19268 19273 1
19268 19276 1
19269 19274 1
19269 19275 1
19269 19278 1
19270 19272 1
19270 19273 1
19270 19277 1
19271 19276 1
19271 19277 1
19272 19274 1
19272 19275 1
19273 19278 1
19274 19276 1
19274 19277 1
19276 19278 1
19279 19282 1
19279 19283 1
19279 19287 1
19279 19290 1
19280 19284 1
19280 19285 1
19280 19288 1
19281 19286 1
19281 19287 1
19281 19290 1
19282 19284 1
19282 19285 1
19282 19289 1
19283 19288 1
19283 19289 1
19284 19286 1
19284 19287 1
19285 19290 1
19286 19288 1
19286 19289 1
19288 19290 1
19291 19294 1
19291 19295 1
19291 19299 1
19291 19302 1
19292 19296 1
19292 19297 1
19292 19300 1
19293 19298 1
19293 19299 1
19293 19302 1
19294 19296 1
19294 19297 1
19294 19301 1
19295 19300 1
19295 19301 1
19296 19298 1
19296 19299 1
19297 19302 1
19298 19300 1
19298 19301 1
19300 19302 1
19303 19306 1
19303 19307 1
19303 19311 1
19303 19314 1
19304 19308 1
19304 19309 1
19304 19312 1
19305 19310 1
19305 19311 1
19305 19314 1
19306 19308 1
19306 19309 1
19306 19313 1
19307 19312 1
19307 19313 1
19308 19310 1
19308 19311 1
19309 19314 1
19310 19312 1
19310 19313 1
19312 19314 1
19315 19318 1
19315 19319 1
19315 19323 1
19315 19326 1
19316 19320 1
19316 19321 1
19316 19324 1
19317 19322 1
19317 19323 1
19317 19326 1
19318 19320 1
19318 19321 1
19318 19325 1
19319 19324 1
19319 19325 1
19320 19322 1
19320 19323 1
19321 19326 1
19322 19324 1
19322 19325 1
19324 19326 1
19327 19330 1
19327 19331 1
19327 19335 1
19327 19338 1
19328 19332 1
19328 19333 1
19328 19336 1
19329 19334 1
19329 19335 1
19329 19338 1
19330 19332 1
19330 19333 1
19330 19337 1
19331 19336 1
19331 19337 1
19332 19334 1
19332 19335 1
19333 19338 1
19334 19336 1
19334 19337 1
19336 19338 1
19339 19342 1
19339 19343 1
19339 19347 1
19339 19350 1
19340 19344 1
19340 19345 1
19340 19348 1
19341 19346 1
19341 19347 1
19341 19350 1
19342 19344 1
19342 19345 1
19342 19349 1
19343 19348 1
19343 19349 1
19344 19346 1
19344 19347 1
19345 19350 1
19346 19348 1
19346 19349 1
19348 19350 1
19351 19354 1
19351 19355 1
19351 19359 1
19351 19362 1
19352 19356 1
19352 19357 1
19352 19360 1
19353 19358 1
19353 19359 1
19353 19362 1
19354 19356 1
19354 19357 1
19354 19361 1
19355 19360 1
19355 19361 1
19356 19358 1
19356 19359 1
19357 19362 1
19358 19360 1
19358 19361 1
19360 19362 1
19363 19366 1
19363 19367 1
19363 19371 1
19363 19374 1
19364 19368 1
19364 19369 1
19364 19372 1
19365 19370 1
19365 19371 1
19365 19374 1
19366 19368 1
19366 19369 1
19366 19373 1
19367 19372 1
19367 19373 1
19368 19370 1
19368 19371 1
19369 19374 1
19370 19372 1
19370 19373 1
19372 19374 1
19375 19378 1
19375 19379 1
19375 19383 1
19375 19386 1
19376 19380 1
19376 19381 1
19376 19384 1
19377 19382 1
19377 19383 1
19377 19386 1
19378 19380 1
19378 19381 1
19378 19385 1
19379 19384 1
19379 19385 1
19380 19382 1
19380 19383 1
19381 19386 1
19382 19384 1
19382 19385 1
19384 19386 1
19387 19390 1
19387 19391 1
19387 19395 1
19387 19398 1
19388 19392 1
19388 19393 1
19388 19396 1
19389 19394 1
19389 19395 1
19389 19398 1
19390 19392 1
19390 19393 1
19390 19397 1
19391 19396 1
19391 19397 1
19392 19394 1
19392 19395 1
19393 19398 1
19394 19396 1
19394 19397 1
19396 19398 1
19399 19402 1
19399 19403 1
19399 19407 1
19399 19410 1
19400 19404 1
19400 19405 1
19400 19408 1
19401 19406 1
19401 19407 1
19401 19410 1
19402 19404 1
19402 19405 1
19402 19409 1
19403 19408 1
19403 19409 1
19404 19406 1
19404 19407 1
19405 19410 1
19406 19408 1
19406 19409 1
19408 19410 1
19411 19414 1
19411 19415 1
19411 19419 1
19411 19422 1
19412 19416 1
19412 19417 1
19412 19420 1
19413 19418 1
19413 19419 1
19413 19422 1
19414 19416 1
19414 19417 1
19414 19421 1
19415 19420 1
19415 19421 1
19416 19418 1
19416 19419 1
19417 19422 1
19418 19420 1
19418 19421 1
19420 19422 1
19423 19426 1
19423 19427 1
19423 19431 1
19423 19434 1
19424 19428 1
19424 19429 1
19424 19432 1
19425 19430 1
19425 19431 1
19425 19434 1
19426 19428 1
19426 19429 1
19426 19433 1
19427 19432 1
19427 19433 1
19428 19430 1
19428 19431 1
19429 19434 1
19430 19432 1
19430 19433 1
19432 19434 1
19435 19438 1
19435 19439 1
19435 19443 1
19435 19446 1
19436 19440 1
19436 19441 1
19436 19444 1
19437 19442 1
19437 19443 1
19437 19446 1
19438 19440 1
19438 19441 1
19438 19445 1
19439 19444 1
19439 19445 1
19440 19442 1
19440 19443 1
19441 19446 1
19442 19444 1
19442 19445 1
19444 19446 1
19447 19450 1
19447 19451 1
19447 19455 1
19447 19458 1
19448 19452 1
19448 19453 1
19448 19456 1
19449 19454 1
19449 19455 1
19449 19458 1
19450 19452 1
19450 19453 1
19450 19457 1
19451 19456 1
19451 19457 1
19452 19454 1
19452 19455 1
19453 19458 1
19454 19456 1
19454 19457 1
19456 19458 1
19459 19462 1
19459 19463 1
19459 19467 1
19459 19470 1
19460 19464 1
19460 19465 1
19460 19468 1
19461 19466 1
19461 19467 1
19461 19470 1
19462 19464 1
19462 19465 1
19462 19469 1
19463 19468 1
19463 19469 1
19464 19466 1
19464 19467 1
19465 19470 1
19466 19468 1
19466 19469 1
19468 19470 1
19471 19474 1
19471 19475 1
19471 19479 1
19471 19482 1
19472 19476 1
19472 19477 1
19472 19480 1
19473 19478 1
19473 19479 1
19473 19482 1
19474 19476 1
19474 19477 1
19474 19481 1
19475 19480 1
19475 19481 1
19476 19478 1
19476 19479 1
19477 19482 1
19478 19480 1
19478 19481 1
19480 19482 1
19483 19486 1
19483 19487 1
19483 19491 1
19483 19494 1
19484 19488 1
19484 19489 1
19484 19492 1
19485 19490 1
19485 19491 1
19485 19494 1
19486 19488 1
19486 19489 1
19486 19493 1
19487 19492 1
19487 19493 1
19488 19490 1
19488 19491 1
19489 19494 1
19490 19492 1
19490 19493 1
19492 19494 1
19495 19498 1
19495 19499 1
19495 19503 1
19495 19506 1
19496 19500 1
19496 19501 1
19496 19504 1
19497 19502 1
19497 19503 1
19497 19506 1
19498 19500 1
19498 19501 1
19498 19505 1
19499 19504 1
19499 19505 1
19500 19502 1
19500 19503 1
19501 19506 1
19502 19504 1
19502 19505 1
19504 19506 1
19507 19510 1
19507 19511 1
19507 19515 1
19507 19518 1
19508 19512 1
19508 19513 1
19508 19516 1
19509 19514 1
19509 19515 1
19509 19518 1
19510 19512 1
19510 19513 1
19510 19517 1
19511 19516 1
19511 19517 1
19512 19514 1
19512 19515 1
19513 19518 1
19514 19516 1
19514 19517 1
19516 19518 1
19519 19522 1
19519 19523 1
19519 19527 1
19519 19530 1
19520 19524 1
19520 19525 1
19520 19528 1
19521 19526 1
19521 19527 1
19521 19530 1
19522 19524 1
19522 19525 1
19522 19529 1
19523 19528 1
19523 19529 1
19524 19526 1
19524 19527 1
19525 19530 1
19526 19528 1
19526 19529 1
19528 19530 1
19531 19534 1
19531 19535 1
19531 19539 1
19531 19542 1
19532 19536 1
19532 19537 1
19532 19540 1
19533 19538 1
19533 19539 1
19533 19542 1
19534 19536 1
19534 19537 1
19534 19541 1
19535 19540 1
19535 19541 1
19536 19538 1
19536 19539 1
19537 19542 1
19538 19540 1
19538 19541 1
19540 19542 1
19543 19546 1
19543 19547 1
19543 19551 1
19543 19554 1
19544 19548 1
19544 19549 1
19544 19552 1
19545 19550 1
19545 19551 1
19545 19554 1
19546 19548 1
19546 19549 1
19546 19553 1
19547 19552 1
19547 19553 1
19548 19550 1
19548 19551 1
19549 19554 1
19550 19552 1
19550 19553 1
19552 19554 1
19555 19558 1
19555 19559 1
19555 19563 1
19555 19566 1
19556 19560 1
19556 19561 1
19556 19564 1
19557 19562 1
19557 19563 1
19557 19566 1
19558 19560 1
19558 19561 1
19558 19565 1
19559 19564 1
19559 19565 1
19560 19562 1
19560 19563 1
19561 19566 1
19562 19564 1
19562 19565 1
19564 19566 1
19567 19570 1
19567 19571 1
19567 19575 1
19567 19578 1
19568 19572 1
19568 19573 1
19568 19576 1
19569 19574 1
19569 19575 1
19569 19578 1
19570 19572 1
19570 19573 1
19570 19577 1
19571 19576 1
19571 19577 1
19572 19574 1
19572 19575 1
19573 19578 1
19574 19576 1
19574 19577 1
19576 19578 1
19579 19582 1
19579 19583 1
19579 19587 1
19579 19590 1
19580 19584 1
19580 19585 1
19580 19588 1
19581 19586 1
19581 19587 1
19581 19590 1
19582 19584 1
19582 19585 1
19582 19589 1
19583 19588 1
19583 19589 1
19584 19586 1
19584 19587 1
19585 19590 1
19586 19588 1
19586 19589 1
19588 19590 1
19591 19594 1
19591 19595 1
19591 19599 1
19591 19602 1
19592 19596 1
19592 19597 1
19592 19600 1
19593 19598 1
19593 19599 1
19593 19602 1
19594 19596 1
19594 19597 1
19594 19601 1
19595 19600 1
19595 19601 1
19596 19598 1
19596 19599 1
19597 19602 1
19598 19600 1
19598 19601 1
19600 19602 1
19603 19606 1
19603 19607 1
19603 19611 1
19603 19614 1
19604 19608 1
19604 19609 1
19604 19612 1
19605 19610 1
19605 19611 1
19605 19614 1
19606 19608 1
19606 19609 1
19606 19613 1
19607 19612 1
19607 19613 1
19608 19610 1
19608 19611 1
19609 19614 1
19610 19612 1
19610 19613 1
19612 19614 1
19615 19618 1
19615 19619 1
19615 19623 1
19615 19626 1
19616 19620 1
19616 19621 1
19616 19624 1
19617 19622 1
19617 19623 1
19617 19626 1
19618 19620 1
19618 19621 1
19618 19625 1
19619 19624 1
19619 19625 1
19620 19622 1
19620 19623 1
19621 19626 1
19622 19624 1
19622 19625 1
19624 19626 1
19627 19630 1
19627 19631 1
19627 19635 1
19627 19638 1
19628 19632 1
19628 19633 1
19628 19636 1
19629 19634 1
19629 19635 1
19629 19638 1
19630 19632 1
19630 19633 1
19630 19637 1
19631 19636 1
19631 19637 1
19632 19634 1
19632 19635 1
19633 19638 1
19634 19636 1
19634 19637 1
19636 19638 1
19639 19642 1
19639 19643 1
19639 19647 1
19639 19650 1
19640 19644 1
19640 19645 1
19640 19648 1
19641 19646 1
19641 19647 1
19641 19650 1
19642 19644 1
19642 19645 1
19642 19649 1
19643 19648 1
19643 19649 1
19644 19646 1
19644 19647 1
19645 19650 1
19646 19648 1
19646 19649 1
19648 19650 1
19651 19654 1
19651 19655 1
19651 19659 1
19651 19662 1
19652 19656 1
19652 19657 1
19652 19660 1
19653 19658 1
19653 19659 1
19653 19662 1
19654 19656 1
19654 19657 1
19654 19661 1
19655 19660 1
19655 19661 1
19656 19658 1
19656 19659 1
19657 19662 1
19658 19660 1
19658 19661 1
19660 19662 1
19663 19666 1
19663 19667 1
19663 19671 1
19663 19674 1
19664 19668 1
19664 19669 1
19664 19672 1
19665 19670 1
19665 19671 1
19665 19674 1
19666 19668 1
19666 19669 1
19666 19673 1
19667 19672 1
19667 19673 1
19668 19670 1
19668 19671 1
19669 19674 1
19670 19672 1
19670 19673 1
19672 19674 1
19675 19678 1
19675 19679 1
19675 19683 1
19675 19686 1
19676 19680 1
19676 19681 1
19676 19684 1
19677 19682 1
19677 19683 1
19677 19686 1
19678 19680 1
19678 19681 1
19678 19685 1
19679 19684 1
19679 19685 1
19680 19682 1
19680 19683 1
19681 19686 1
19682 19684 1
19682 19685 1
19684 19686 1
19687 19690 1
19687 19691 1
19687 19695 1
19687 19698 1
19688 19692 1
19688 19693 1
19688 19696 1
19689 19694 1
19689 19695 1
19689 19698 1
19690 19692 1
19690 19693 1
19690 19697 1
19691 19696 1
19691 19697 1
19692 19694 1
19692 19695 1
19693 19698 1
19694 19696 1
19694 19697 1
19696 19698 1
19699 19702 1
19699 19703 1
19699 19707 1
19699 19710 1
19700 19704 1
19700 19705 1
19700 19708 1
19701 19706 1
19701 19707 1
19701 19710 1
19702 19704 1
19702 19705 1
19702 19709 1
19703 19708 1
19703 19709 1
19704 19706 1
19704 19707 1
19705 19710 1
19706 19708 1
19706 19709 1
19708 19710 1
19711 19714 1
19711 19715 1
19711 19719 1
19711 19722 1
19712 19716 1
19712 19717 1
19712 19720 1
19713 19718 1
19713 19719 1
19713 19722 1
19714 19716 1
19714 19717 1
19714 19721 1
19715 19720 1
19715 19721 1
19716 19718 1
19716 19719 1
19717 19722 1
19718 19720 1
19718 19721 1
19720 19722 1
19723 19726 1
19723 19727 1
19723 19731 1
19723 19734 1
19724 19728 1
19724 19729 1
19724 19732 1
19725 19730 1
19725 19731 1
19725 19734 1
19726 19728 1
19726 19729 1
19726 19733 1
19727 19732 1
19727 19733 1
19728 19730 1
19728 19731 1
19729 19734 1
19730 19732 1
19730 19733 1
19732 19734 1
19735 19738 1
19735 19739 1
19735 19743 1
19735 19746 1
19736 19740 1
19736 19741 1
19736 19744 1
19737 19742 1
19737 19743 1
19737 19746 1
19738 19740 1
19738 19741 1
19738 19745 1
19739 19744 1
19739 19745 1
19740 19742 1
19740 19743 1
19741 19746 1
19742 19744 1
19742 19745 1
19744 19746 1
19747 19750 1
19747 19751 1
19747 19755 1
19747 19758 1
19748 19752 1
19748 19753 1
19748 19756 1
19749 19754 1
19749 19755 1
19749 19758 1
19750 19752 1
19750 19753 1
19750 19757 1
19751 19756 1
19751 19757 1
19752 19754 1
19752 19755 1
19753 19758 1
19754 19756 1
19754 19757 1
19756 19758 1
19759 19762 1
19759 19763 1
19759 19767 1
19759 19770 1
19760 19764 1
19760 19765 1
19760 19768 1
19761 19766 1
19761 19767 1
19761 19770 1
19762 19764 1
19762 19765 1
19762 19769 1
19763 19768 1
19763 19769 1
19764 19766 1
19764 19767 1
19765 19770 1
19766 19768 1
19766 19769 1
19768 19770 1
19771 19774 1
19771 19775 1
19771 19779 1
19771 19782 1
19772 19776 1
19772 19777 1
19772 19780 1
19773 19778 1
19773 19779 1
19773 19782 1
19774 19776 1
19774 19777 1
19774 19781 1
19775 19780 1
19775 19781 1
19776 19778 1
19776 19779 1
19777 19782 1
19778 19780 1
19778 19781 1
19780 19782 1
19783 19786 1
19783 19787 1
19783 19791 1
19783 19794 1
19784 19788 1
19784 19789 1
19784 19792 1
19785 19790 1
19785 19791 1
19785 19794 1
19786 19788 1
19786 19789 1
19786 19793 1
19787 19792 1
19787 19793 1
19788 19790 1
19788 19791 1
19789 19794 1
19790 19792 1
19790 19793 1
19792 19794 1
19795 19798 1
19795 19799 1
19795 19803 1
19795 19806 1
19796 19800 1
19796 19801 1
19796 19804 1
19797 19802 1
19797 19803 1
19797 19806 1
19798 19800 1
19798 19801 1
19798 19805 1
19799 19804 1
19799 19805 1
19800 19802 1
19800 19803 1
19801 19806 1
19802 19804 1
19802 19805 1
19804 19806 1
19807 19810 1
19807 19811 1
19807 19815 1
19807 19818 1
19808 19812 1
19808 19813 1
19808 19816 1
19809 19814 1
19809 19815 1
19809 19818 1
19810 19812 1
19810 19813 1
19810 19817 1
19811 19816 1
19811 19817 1
19812 19814 1
19812 19815 1
19813 19818 1
19814 19816 1
19814 19817 1
19816 19818 1
19819 19822 1
19819 19823 1
19819 19827 1
19819 19830 1
19820 19824 1
19820 19825 1
19820 19828 1
19821 19826 1
19821 19827 1
19821 19830 1
19822 19824 1
19822 19825 1
19822 19829 1
19823 19828 1
19823 19829 1
19824 19826 1
19824 19827 1
19825 19830 1
19826 19828 1
19826 19829 1
19828 19830 1
19831 19834 1
19831 19835 1
19831 19839 1
19831 19842 1
19832 19836 1
19832 19837 1
19832 19840 1
19833 19838 1
19833 19839 1
19833 19842 1
19834 19836 1
19834 19837 1
19834 19841 1
19835 19840 1
19835 19841 1
19836 19838 1
19836 19839 1
19837 19842 1
19838 19840 1
19838 19841 1
19840 19842 1
19843 19846 1
19843 19847 1
19843 19851 1
19843 19854 1
19844 19848 1
19844 19849 1
19844 19852 1
19845 19850 1
19845 19851 1
19845 19854 1
19846 19848 1
19846 19849 1
19846 19853 1
19847 19852 1
19847 19853 1
19848 19850 1
19848 19851 1
19849 19854 1
19850 19852 1
19850 19853 1
19852 19854 1
19855 19858 1
19855 19859 1
19855 19863 1
19855 19866 1
19856 19860 1
19856 19861 1
19856 19864 1
19857 19862 1
19857 19863 1
19857 19866 1
19858 19860 1
19858 19861 1
19858 19865 1
19859 19864 1
19859 19865 1
19860 19862 1
19860 19863 1
19861 19866 1
19862 19864 1
19862 19865 1
19864 19866 1
19867 19870 1
19867 19871 1
19867 19875 1
19867 19878 1
19868 19872 1
19868 19873 1
19868 19876 1
19869 19874 1
19869 19875 1
19869 19878 1
19870 19872 1
19870 19873 1
19870 19877 1
19871 19876 1
19871 19877 1
19872 19874 1
19872 19875 1
19873 19878 1
19874 19876 1
19874 19877 1
19876 19878 1
19879 19882 1
19879 19883 1
19879 19887 1
19879 19890 1
19880 19884 1
19880 19885 1
19880 19888 1
19881 19886 1
19881 19887 1
19881 19890 1
19882 19884 1
19882 19885 1
19882 19889 1
19883 19888 1
19883 19889 1
19884 19886 1
19884 19887 1
19885 19890 1
19886 19888 1
19886 19889 1
19888 19890 1
19891 19894 1
19891 19895 1
19891 19899 1
19891 19902 1
19892 19896 1
19892 19897 1
19892 19900 1
19893 19898 1
19893 19899 1
19893 19902 1
19894 19896 1
19894 19897 1
19894 19901 1
19895 19900 1
19895 19901 1
19896 19898 1
19896 19899 1
19897 19902 1
19898 19900 1
19898 19901 1
19900 19902 1
19903 19906 1
19903 19907 1
19903 19911 1
19903 19914 1
19904 19908 1
19904 19909 1
19904 19912 1
19905 19910 1
19905 19911 1
19905 19914 1
19906 19908 1
19906 19909 1
19906 19913 1
19907 19912 1
19907 19913 1
19908 19910 1
19908 19911 1
19909 19914 1
19910 19912 1
19910 19913 1
19912 19914 1
19915 19918 1
19915 19919 1
19915 19923 1
19915 19926 1
19916 19920 1
19916 19921 1
19916 19924 1
19917 19922 1
19917 19923 1
19917 19926 1
19918 19920 1
19918 19921 1
19918 19925 1
19919 19924 1
19919 19925 1
19920 19922 1
19920 19923 1
19921 19926 1
19922 19924 1
19922 19925 1
19924 19926 1
19927 19930 1
19927 19931 1
19927 19935 1
19927 19938 1
19928 19932 1
19928 19933 1
19928 19936 1
19929 19934 1
19929 19935 1
19929 19938 1
19930 19932 1
19930 19933 1
19930 19937 1
19931 19936 1
19931 19937 1
19932 19934 1
19932 19935 1
19933 19938 1
19934 19936 1
19934 19937 1
19936 19938 1
19939 19942 1
19939 19943 1
19939 19947 1
19939 19950 1
19940 19944 1
19940 19945 1
19940 19948 1
19941 19946 1
19941 19947 1
19941 19950 1
19942 19944 1
19942 19945 1
19942 19949 1
19943 19948 1
19943 19949 1
19944 19946 1
19944 19947 1
19945 19950 1
19946 19948 1
19946 19949 1
19948 19950 1
19951 19954 1
19951 19955 1
19951 19959 1
19951 19962 1
19952 19956 1
19952 19957 1
19952 19960 1
19953 19958 1
19953 19959 1
19953 19962 1
19954 19956 1
19954 19957 1
19954 19961 1
19955 19960 1
19955 19961 1
19956 19958 1
19956 19959 1
19957 19962 1
19958 19960 1
19958 19961 1
19960 19962 1
19963 19966 1
19963 19967 1
19963 19971 1
19963 19974 1
19964 19968 1
19964 19969 1
19964 19972 1
19965 19970 1
19965 19971 1
19965 19974 1
19966 19968 1
19966 19969 1
19966 19973 1
19967 19972 1
19967 19973 1
19968 19970 1
19968 19971 1
19969 19974 1
19970 19972 1
19970 19973 1
19972 19974 1
19975 19978 1
19975 19979 1
19975 19983 1
19975 19986 1
19976 19980 1
19976 19981 1
19976 19984 1
19977 19982 1
19977 19983 1
19977 19986 1
19978 19980 1
19978 19981 1
19978 19985 1
19979 19984 1
19979 19985 1
19980 19982 1
19980 19983 1
19981 19986 1
19982 19984 1
19982 19985 1
19984 19986 1
19987 19990 1
19987 19991 1
19987 19995 1
19987 19998 1
19988 19992 1
19988 19993 1
19988 19996 1
19989 19994 1
19989 19995 1
19989 19998 1
19990 19992 1
19990 19993 1
19990 19997 1
19991 19996 1
19991 19997 1
19992 19994 1
19992 19995 1
19993 19998 1
19994 19996 1
19994 19997 1
19996 19998 1
19999 20002 1
19999 20003 1
19999 20007 1
19999 20010 1
20000 20004 1
20000 20005 1
20000 20008 1
20001 20006 1
20001 20007 1
20001 20010 1
20002 20004 1
20002 20005 1
20002 20009 1
20003 20008 1
20003 20009 1
20004 20006 1
20004 20007 1
20005 20010 1
20006 20008 1
20006 20009 1
20008 20010 1
20011 20014 1
20011 20015 1
20011 20019 1
20011 20022 1
20012 20016 1
20012 20017 1
20012 20020 1
20013 20018 1
20013 20019 1
20013 20022 1
20014 20016 1
20014 20017 1
20014 20021 1
20015 20020 1
20015 20021 1
20016 20018 1
20016 20019 1
20017 20022 1
20018 20020 1
20018 20021 1
20020 20022 1
20023 20026 1
20023 20027 1
20023 20031 1
20023 20034 1
20024 20028 1
20024 20029 1
20024 20032 1
20025 20030 1
20025 20031 1
20025 20034 1
20026 20028 1
20026 20029 1
20026 20033 1
20027 20032 1
20027 20033 1
20028 20030 1
20028 20031 1
20029 20034 1
20030 20032 1
20030 20033 1
20032 20034 1
20035 20038 1
20035 20039 1
20035 20043 1
20035 20046 1
20036 20040 1
20036 20041 1
20036 20044 1
20037 20042 1
20037 20043 1
20037 20046 1
20038 20040 1
20038 20041 1
20038 20045 1
20039 20044 1
20039 20045 1
20040 20042 1
20040 20043 1
20041 20046 1
20042 20044 1
20042 20045 1
20044 20046 1
20047 20050 1
20047 20051 1
20047 20055 1
20047 20058 1
20048 20052 1
20048 20053 1
20048 20056 1
20049 20054 1
20049 20055 1
20049 20058 1
20050 20052 1
20050 20053 1
20050 20057 1
20051 20056 1
20051 20057 1
20052 20054 1
20052 20055 1
20053 20058 1
20054 20056 1
20054 20057 1
20056 20058 1
20059 20062 1
20059 20063 1
20059 20067 1
20059 20070 1
20060 20064 1
20060 20065 1
20060 20068 1
20061 20066 1
20061 20067 1
20061 20070 1
20062 20064 1
20062 20065 1
20062 20069 1
20063 20068 1
20063 20069 1
20064 20066 1
20064 20067 1
20065 20070 1
20066 20068 1
20066 20069 1
20068 20070 1
20071 20074 1
20071 20075 1
20071 20079 1
20071 20082 1
20072 20076 1
20072 20077 1
20072 20080 1
20073 20078 1
20073 20079 1
20073 20082 1
20074 20076 1
20074 20077 1
20074 20081 1
20075 20080 1
20075 20081 1
20076 20078 1
20076 20079 1
20077 20082 1
20078 20080 1
20078 20081 1
20080 20082 1
20083 20086 1
20083 20087 1
20083 20091 1
20083 20094 1
20084 20088 1
20084 20089 1
20084 20092 1
20085 20090 1
20085 20091 1
20085 20094 1
20086 20088 1
20086 20089 1
20086 20093 1
20087 20092 1
20087 20093 1
20088 20090 1
20088 20091 1
20089 20094 1
20090 20092 1
20090 20093 1
20092 20094 1
20095 20098 1
20095 20099 1
20095 20103 1
20095 20106 1
20096 20100 1
20096 20101 1
20096 20104 1
20097 20102 1
20097 20103 1
20097 20106 1
20098 20100 1
20098 20101 1
20098 20105 1
20099 20104 1
20099 20105 1
20100 20102 1
20100 20103 1
20101 20106 1
20102 20104 1
20102 20105 1
20104 20106 1
20107 20110 1
20107 20111 1
20107 20115 1
20107 20118 1
20108 20112 1
20108 20113 1
20108 20116 1
20109 20114 1
20109 20115 1
20109 20118 1
20110 20112 1
20110 20113 1
20110 20117 1
20111 20116 1
20111 20117 1
20112 20114 1
20112 20115 1
20113 20118 1
20114 20116 1
20114 20117 1
20116 20118 1
20119 20122 1
20119 20123 1
20119 20127 1
20119 20130 1
20120 20124 1
20120 20125 1
20120 20128 1
20121 20126 1
20121 20127 1
20121 20130 1
20122 20124 1
20122 20125 1
20122 20129 1
20123 20128 1
20123 20129 1
20124 20126 1
20124 20127 1
20125 20130 1
20126 20128 1
20126 20129 1
20128 20130 1
20131 20134 1
20131 20135 1
20131 20139 1
20131 20142 1
20132 20136 1
20132 20137 1
20132 20140 1
20133 20138 1
20133 20139 1
20133 20142 1
20134 20136 1
20134 20137 1
20134 20141 1
20135 20140 1
20135 20141 1
20136 20138 1
20136 20139 1
20137 20142 1
20138 20140 1
20138 20141 1
20140 20142 1
20143 20146 1
20143 20147 1
20143 20151 1
20143 20154 1
20144 20148 1
20144 20149 1
20144 20152 1
20145 20150 1
20145 20151 1
20145 20154 1
20146 20148 1
20146 20149 1
20146 20153 1
20147 20152 1
20147 20153 1
20148 20150 1
20148 20151 1
20149 20154 1
20150 20152 1
20150 20153 1
20152 20154 1
20155 20158 1
20155 20159 1
20155 20163 1
20155 20166 1
20156 20160 1
20156 20161 1
20156 20164 1
20157 20162 1
20157 20163 1
20157 20166 1
20158 20160 1
20158 20161 1
20158 20165 1
20159 20164 1
20159 20165 1
20160 20162 1
20160 20163 1
20161 20166 1
20162 20164 1
20162 20165 1
20164 20166 1
20167 20170 1
20167 20171 1
20167 20175 1
20167 20178 1
20168 20172 1
20168 20173 1
20168 20176 1
20169 20174 1
20169 20175 1
20169 20178 1
20170 20172 1
20170 20173 1
20170 20177 1
20171 20176 1
20171 20177 1
20172 20174 1
20172 20175 1
20173 20178 1
20174 20176 1
20174 20177 1
20176 20178 1
20179 20182 1
20179 20183 1
20179 20187 1
20179 20190 1
20180 20184 1
20180 20185 1
20180 20188 1
20181 20186 1
20181 20187 1
20181 20190 1
20182 20184 1
20182 20185 1
20182 20189 1
20183 20188 1
20183 20189 1
20184 20186 1
20184 20187 1
20185 20190 1
20186 20188 1
20186 20189 1
20188 20190 1
20191 20194 1
20191 20195 1
20191 20199 1
20191 20202 1
20192 20196 1
20192 20197 1
20192 20200 1
20193 20198 1
20193 20199 1
20193 20202 1
20194 20196 1
20194 20197 1
20194 20201 1
20195 20200 1
20195 20201 1
20196 20198 1
20196 20199 1
20197 20202 1
20198 20200 1
20198 20201 1
20200 20202 1
20203 20206 1
20203 20207 1
20203 20211 1
20203 20214 1
20204 20208 1
20204 20209 1
20204 20212 1
20205 20210 1
20205 20211 1
20205 20214 1
20206 20208 1
20206 20209 1
20206 20213 1
20207 20212 1
20207 20213 1
20208 20210 1
20208 20211 1
20209 20214 1
20210 20212 1
20210 20213 1
20212 20214 1
20215 20218 1
20215 20219 1
20215 20223 1
20215 20226 1
20216 20220 1
20216 20221 1
20216 20224 1
20217 20222 1
20217 20223 1
20217 20226 1
20218 20220 1
20218 20221 1
20218 20225 1
20219 20224 1
20219 20225 1
20220 20222 1
20220 20223 1
20221 20226 1
20222 20224 1
20222 20225 1
20224 20226 1
20227 20230 1
20227 20231 1
20227 20235 1
20227 20238 1
20228 20232 1
20228 20233 1
20228 20236 1
20229 20234 1
20229 20235 1
20229 20238 1
20230 20232 1
20230 20233 1
20230 20237 1
20231 20236 1
20231 20237 1
20232 20234 1
20232 20235 1
20233 20238 1
20234 20236 1
20234 20237 1
20236 20238 1
20239 20242 1
20239 20243 1
20239 20247 1
20239 20250 1
20240 20244 1
20240 20245 1
20240 20248 1
20241 20246 1
20241 20247 1
20241 20250 1
20242 20244 1
20242 20245 1
20242 20249 1
20243 20248 1
20243 20249 1
20244 20246 1
20244 20247 1
20245 20250 1
20246 20248 1
20246 20249 1
20248 20250 1
20251 20254 1
20251 20255 1
20251 20259 1
20251 20262 1
20252 20256 1
20252 20257 1
20252 20260 1
20253 20258 1
20253 20259 1
20253 20262 1
20254 20256 1
20254 20257 1
20254 20261 1
20255 20260 1
20255 20261 1
20256 20258 1
20256 20259 1
20257 20262 1
20258 20260 1
20258 20261 1
20260 20262 1
20263 20266 1
20263 20267 1
20263 20271 1
20263 20274 1
20264 20268 1
20264 20269 1
20264 20272 1
20265 20270 1
20265 20271 1
20265 20274 1
20266 20268 1
20266 20269 1
20266 20273 1
20267 20272 1
20267 20273 1
20268 20270 1
20268 20271 1
20269 20274 1
20270 20272 1
20270 20273 1
20272 20274 1
20275 20278 1
20275 20279 1
20275 20283 1
20275 20286 1
20276 20280 1
20276 20281 1
20276 20284 1
20277 20282 1
20277 20283 1
20277 20286 1
20278 20280 1
20278 20281 1
20278 20285 1
20279 20284 1
20279 20285 1
20280 20282 1
20280 20283 1
20281 20286 1
20282 20284 1
20282 20285 1
20284 20286 1
20287 20290 1
20287 20291 1
20287 20295 1
20287 20298 1
20288 20292 1
20288 20293 1
20288 20296 1
20289 20294 1
20289 20295 1
20289 20298 1
20290 20292 1
20290 20293 1
20290 20297 1
20291 20296 1
20291 20297 1
20292 20294 1
20292 20295 1
20293 20298 1
20294 20296 1
20294 20297 1
20296 20298 1
20299 20302 1
20299 20303 1
20299 20307 1
20299 20310 1
20300 20304 1
20300 20305 1
20300 20308 1
20301 20306 1
20301 20307 1
20301 20310 1
20302 20304 1
20302 20305 1
20302 20309 1
20303 20308 1
20303 20309 1
20304 20306 1
20304 20307 1
20305 20310 1
20306 20308 1
20306 20309 1
20308 20310 1
20311 20314 1
20311 20315 1
20311 20319 1
20311 20322 1
20312 20316 1
20312 20317 1
20312 20320 1
20313 20318 1
20313 20319 1
20313 20322 1
20314 20316 1
20314 20317 1
20314 20321 1
20315 20320 1
20315 20321 1
20316 20318 1
20316 20319 1
20317 20322 1
20318 20320 1
20318 20321 1
20320 20322 1
20323 20326 1
20323 20327 1
20323 20331 1
20323 20334 1
20324 20328 1
20324 20329 1
20324 20332 1
20325 20330 1
20325 20331 1
20325 20334 1
20326 20328 1
20326 20329 1
20326 20333 1
20327 20332 1
20327 20333 1
20328 20330 1
20328 20331 1
20329 20334 1
20330 20332 1
20330 20333 1
20332 20334 1
20335 20338 1
20335 20339 1
20335 20343 1
20335 20346 1
20336 20340 1
20336 20341 1
20336 20344 1
20337 20342 1
20337 20343 1
20337 20346 1
20338 20340 1
20338 20341 1
20338 20345 1
20339 20344 1
20339 20345 1
20340 20342 1
20340 20343 1
20341 20346 1
20342 20344 1
20342 20345 1
20344 20346 1
20347 20350 1
20347 20351 1
20347 20355 1
20347 20358 1
20348 20352 1
20348 20353 1
20348 20356 1
20349 20354 1
20349 20355 1
20349 20358 1
20350 20352 1
20350 20353 1
20350 20357 1
20351 20356 1
20351 20357 1
20352 20354 1
20352 20355 1
20353 20358 1
20354 20356 1
20354 20357 1
20356 20358 1
20359 20362 1
20359 20363 1
20359 20367 1
20359 20370 1
20360 20364 1
20360 20365 1
20360 20368 1
20361 20366 1
20361 20367 1
20361 20370 1
20362 20364 1
20362 20365 1
20362 20369 1
20363 20368 1
20363 20369 1
20364 20366 1
20364 20367 1
20365 20370 1
20366 20368 1
20366 20369 1
20368 20370 1
20371 20374 1
20371 20375 1
20371 20379 1
20371 20382 1
20372 20376 1
20372 20377 1
20372 20380 1
20373 20378 1
20373 20379 1
20373 20382 1
20374 20376 1
20374 20377 1
20374 20381 1
20375 20380 1
20375 20381 1
20376 20378 1
20376 20379 1
20377 20382 1
20378 20380 1
20378 20381 1
20380 20382 1
20383 20386 1
20383 20387 1
20383 20391 1
20383 20394 1
20384 20388 1
20384 20389 1
20384 20392 1
20385 20390 1
20385 20391 1
20385 20394 1
20386 20388 1
20386 20389 1
20386 20393 1
20387 20392 1
20387 20393 1
20388 20390 1
20388 20391 1
20389 20394 1
20390 20392 1
20390 20393 1
20392 20394 1
20395 20398 1
20395 20399 1
20395 20403 1
20395 20406 1
20396 20400 1
20396 20401 1
20396 20404 1
20397 20402 1
20397 20403 1
20397 20406 1
20398 20400 1
20398 20401 1
20398 20405 1
20399 20404 1
20399 20405 1
20400 20402 1
20400 20403 1
20401 20406 1
20402 20404 1
20402 20405 1
20404 20406 1
20407 20410 1
20407 20411 1
20407 20415 1
20407 20418 1
20408 20412 1
20408 20413 1
20408 20416 1
20409 20414 1
20409 20415 1
20409 20418 1
20410 20412 1
20410 20413 1
20410 20417 1
20411 20416 1
20411 20417 1
20412 20414 1
20412 20415 1
20413 20418 1
20414 20416 1
20414 20417 1
20416 20418 1
20419 20422 1
20419 20423 1
20419 20427 1
20419 20430 1
20420 20424 1
20420 20425 1
20420 20428 1
20421 20426 1
20421 20427 1
20421 20430 1
20422 20424 1
20422 20425 1
20422 20429 1
20423 20428 1
20423 20429 1
20424 20426 1
20424 20427 1
20425 20430 1
20426 20428 1
20426 20429 1
20428 20430 1
20431 20434 1
20431 20435 1
20431 20439 1
20431 20442 1
20432 20436 1
20432 20437 1
20432 20440 1
20433 20438 1
20433 20439 1
20433 20442 1
20434 20436 1
20434 20437 1
20434 20441 1
20435 20440 1
20435 20441 1
20436 20438 1
20436 20439 1
20437 20442 1
20438 20440 1
20438 20441 1
20440 20442 1
20443 20446 1
20443 20447 1
20443 20451 1
20443 20454 1
20444 20448 1
20444 20449 1
20444 20452 1
20445 20450 1
20445 20451 1
20445 20454 1
20446 20448 1
20446 20449 1
20446 20453 1
20447 20452 1
20447 20453 1
20448 20450 1
20448 20451 1
20449 20454 1
20450 20452 1
20450 20453 1
20452 20454 1
20455 20458 1
20455 20459 1
20455 20463 1
20455 20466 1
20456 20460 1
20456 20461 1
20456 20464 1
20457 20462 1
20457 20463 1
20457 20466 1
20458 20460 1
20458 20461 1
20458 20465 1
20459 20464 1
20459 20465 1
20460 20462 1
20460 20463 1
20461 20466 1
20462 20464 1
20462 20465 1
20464 20466 1
20467 20470 1
20467 20471 1
20467 20475 1
20467 20478 1
20468 20472 1
20468 20473 1
20468 20476 1
20469 20474 1
20469 20475 1
20469 20478 1
20470 20472 1
20470 20473 1
20470 20477 1
20471 20476 1
20471 20477 1
20472 20474 1
20472 20475 1
20473 20478 1
20474 20476 1
20474 20477 1
20476 20478 1
20479 20482 1
20479 20483 1
20479 20487 1
20479 20490 1
20480 20484 1
20480 20485 1
20480 20488 1
20481 20486 1
20481 20487 1
20481 20490 1
20482 20484 1
20482 20485 1
20482 20489 1
20483 20488 1
20483 20489 1
20484 20486 1
20484 20487 1
20485 20490 1
20486 20488 1
20486 20489 1
20488 20490 1
20491 20494 1
20491 20495 1
20491 20499 1
20491 20502 1
20492 20496 1
20492 20497 1
20492 20500 1
20493 20498 1
20493 20499 1
20493 20502 1
20494 20496 1
20494 20497 1
20494 20501 1
20495 20500 1
20495 20501 1
20496 20498 1
20496 20499 1
20497 20502 1
20498 20500 1
20498 20501 1
20500 20502 1
20503 20506 1
20503 20507 1
20503 20511 1
20503 20514 1
20504 20508 1
20504 20509 1
20504 20512 1
20505 20510 1
20505 20511 1
20505 20514 1
20506 20508 1
20506 20509 1
20506 20513 1
20507 20512 1
20507 20513 1
20508 20510 1
20508 20511 1
20509 20514 1
20510 20512 1
20510 20513 1
20512 20514 1
20515 20518 1
20515 20519 1
20515 20523 1
20515 20526 1
20516 20520 1
20516 20521 1
20516 20524 1
20517 20522 1
20517 20523 1
20517 20526 1
20518 20520 1
20518 20521 1
20518 20525 1
20519 20524 1
20519 20525 1
20520 20522 1
20520 20523 1
20521 20526 1
20522 20524 1
20522 20525 1
20524 20526 1
20527 20530 1
20527 20531 1
20527 20535 1
20527 20538 1
20528 20532 1
20528 20533 1
20528 20536 1
20529 20534 1
20529 20535 1
20529 20538 1
20530 20532 1
20530 20533 1
20530 20537 1
20531 20536 1
20531 20537 1
20532 20534 1
20532 20535 1
20533 20538 1
20534 20536 1
20534 20537 1
20536 20538 1
20539 20542 1
20539 20543 1
20539 20547 1
20539 20550 1
20540 20544 1
20540 20545 1
20540 20548 1
20541 20546 1
20541 20547 1
20541 20550 1
20542 20544 1
20542 20545 1
20542 20549 1
20543 20548 1
20543 20549 1
20544 20546 1
20544 20547 1
20545 20550 1
20546 20548 1
20546 20549 1
20548 20550 1
20551 20554 1
20551 20555 1
20551 20559 1
20551 20562 1
20552 20556 1
20552 20557 1
20552 20560 1
20553 20558 1
20553 20559 1
20553 20562 1
20554 20556 1
20554 20557 1
20554 20561 1
20555 20560 1
20555 20561 1
20556 20558 1
20556 20559 1
20557 20562 1
20558 20560 1
20558 20561 1
20560 20562 1
20563 20566 1
20563 20567 1
20563 20571 1
20563 20574 1
20564 20568 1
20564 20569 1
20564 20572 1
20565 20570 1
20565 20571 1
20565 20574 1
20566 20568 1
20566 20569 1
20566 20573 1
20567 20572 1
20567 20573 1
20568 20570 1
20568 20571 1
20569 20574 1
20570 20572 1
20570 20573 1
20572 20574 1
20575 20578 1
20575 20579 1
20575 20583 1
20575 20586 1
20576 20580 1
20576 20581 1
20576 20584 1
20577 20582 1
20577 20583 1
20577 20586 1
20578 20580 1
20578 20581 1
20578 20585 1
20579 20584 1
20579 20585 1
20580 20582 1
20580 20583 1
20581 20586 1
20582 20584 1
20582 20585 1
20584 20586 1
20587 20590 1
20587 20591 1
20587 20595 1
20587 20598 1
20588 20592 1
20588 20593 1
20588 20596 1
20589 20594 1
20589 20595 1
20589 20598 1
20590 20592 1
20590 20593 1
20590 20597 1
20591 20596 1
20591 20597 1
20592 20594 1
20592 20595 1
20593 20598 1
20594 20596 1
20594 20597 1
20596 20598 1
20599 20602 1
20599 20603 1
20599 20607 1
20599 20610 1
20600 20604 1
20600 20605 1
20600 20608 1
20601 20606 1
20601 20607 1
20601 20610 1
20602 20604 1
20602 20605 1
20602 20609 1
20603 20608 1
20603 20609 1
20604 20606 1
20604 20607 1
20605 20610 1
20606 20608 1
20606 20609 1
20608 20610 1
20611 20614 1
20611 20615 1
20611 20619 1
20611 20622 1
20612 20616 1
20612 20617 1
20612 20620 1
20613 20618 1
20613 20619 1
20613 20622 1
20614 20616 1
20614 20617 1
20614 20621 1
20615 20620 1
20615 20621 1
20616 20618 1
20616 20619 1
20617 20622 1
20618 20620 1
20618 20621 1
20620 20622 1
20623 20626 1
20623 20627 1
20623 20631 1
20623 20634 1
20624 20628 1
20624 20629 1
20624 20632 1
20625 20630 1
20625 20631 1
20625 20634 1
20626 20628 1
20626 20629 1
20626 20633 1
20627 20632 1
20627 20633 1
20628 20630 1
20628 20631 1
20629 20634 1
20630 20632 1
20630 20633 1
20632 20634 1
20635 20638 1
20635 20639 1
20635 20643 1
20635 20646 1
20636 20640 1
20636 20641 1
20636 20644 1
20637 20642 1
20637 20643 1
20637 20646 1
20638 20640 1
20638 20641 1
20638 20645 1
20639 20644 1
20639 20645 1
20640 20642 1
20640 20643 1
20641 20646 1
20642 20644 1
20642 20645 1
20644 20646 1
20647 20650 1
20647 20651 1
20647 20655 1
20647 20658 1
20648 20652 1
20648 20653 1
20648 20656 1
20649 20654 1
20649 20655 1
20649 20658 1
20650 20652 1
20650 20653 1
20650 20657 1
20651 20656 1
20651 20657 1
20652 20654 1
20652 20655 1
20653 20658 1
20654 20656 1
20654 20657 1
20656 20658 1
20659 20662 1
20659 20663 1
20659 20667 1
20659 20670 1
20660 20664 1
20660 20665 1
20660 20668 1
20661 20666 1
20661 20667 1
20661 20670 1
20662 20664 1
20662 20665 1
20662 20669 1
20663 20668 1
20663 20669 1
20664 20666 1
20664 20667 1
20665 20670 1
20666 20668 1
20666 20669 1
20668 20670 1
20671 20674 1
20671 20675 1
20671 20679 1
20671 20682 1
20672 20676 1
20672 20677 1
20672 20680 1
20673 20678 1
20673 20679 1
20673 20682 1
20674 20676 1
20674 20677 1
20674 20681 1
20675 20680 1
20675 20681 1
20676 20678 1
20676 20679 1
20677 20682 1
20678 20680 1
20678 20681 1
20680 20682 1
20683 20686 1
20683 20687 1
20683 20691 1
20683 20694 1
20684 20688 1
20684 20689 1
20684 20692 1
20685 20690 1
20685 20691 1
20685 20694 1
20686 20688 1
20686 20689 1
20686 20693 1
20687 20692 1
20687 20693 1
20688 20690 1
20688 20691 1
20689 20694 1
20690 20692 1
20690 20693 1
20692 20694 1
20695 20698 1
20695 20699 1
20695 20703 1
20695 20706 1
20696 20700 1
20696 20701 1
20696 20704 1
20697 20702 1
20697 20703 1
20697 20706 1
20698 20700 1
20698 20701 1
20698 20705 1
20699 20704 1
20699 20705 1
20700 20702 1
20700 20703 1
20701 20706 1
20702 20704 1
20702 20705 1
20704 20706 1
20707 20710 1
20707 20711 1
20707 20715 1
20707 20718 1
20708 20712 1
20708 20713 1
20708 20716 1
20709 20714 1
20709 20715 1
20709 20718 1
20710 20712 1
20710 20713 1
20710 20717 1
20711 20716 1
20711 20717 1
20712 20714 1
20712 20715 1
20713 20718 1
20714 20716 1
20714 20717 1
20716 20718 1
20719 20722 1
20719 20723 1
20719 20727 1
20719 20730 1
20720 20724 1
20720 20725 1
20720 20728 1
20721 20726 1
20721 20727 1
20721 20730 1
20722 20724 1
20722 20725 1
20722 20729 1
20723 20728 1
20723 20729 1
20724 20726 1
20724 20727 1
20725 20730 1
20726 20728 1
20726 20729 1
20728 20730 1
20731 20734 1
20731 20735 1
20731 20739 1
20731 20742 1
20732 20736 1
20732 20737 1
20732 20740 1
20733 20738 1
20733 20739 1
20733 20742 1
20734 20736 1
20734 20737 1
20734 20741 1
20735 20740 1
20735 20741 1
20736 20738 1
20736 20739 1
20737 20742 1
20738 20740 1
20738 20741 1
20740 20742 1
20743 20746 1
20743 20747 1
20743 20751 1
20743 20754 1
20744 20748 1
20744 20749 1
20744 20752 1
20745 20750 1
20745 20751 1
20745 20754 1
20746 20748 1
20746 20749 1
20746 20753 1
20747 20752 1
20747 20753 1
20748 20750 1
20748 20751 1
20749 20754 1
20750 20752 1
20750 20753 1
20752 20754 1
20755 20758 1
20755 20759 1
20755 20763 1
20755 20766 1
20756 20760 1
20756 20761 1
20756 20764 1
20757 20762 1
20757 20763 1
20757 20766 1
20758 20760 1
20758 20761 1
20758 20765 1
20759 20764 1
20759 20765 1
20760 20762 1
20760 20763 1
20761 20766 1
20762 20764 1
20762 20765 1
20764 20766 1
20767 20770 1
20767 20771 1
20767 20775 1
20767 20778 1
20768 20772 1
20768 20773 1
20768 20776 1
20769 20774 1
20769 20775 1
20769 20778 1
20770 20772 1
20770 20773 1
20770 20777 1
20771 20776 1
20771 20777 1
20772 20774 1
20772 20775 1
20773 20778 1
20774 20776 1
20774 20777 1
20776 20778 1
20779 20782 1
20779 20783 1
20779 20787 1
20779 20790 1
20780 20784 1
20780 20785 1
20780 20788 1
20781 20786 1
20781 20787 1
20781 20790 1
20782 20784 1
20782 20785 1
20782 20789 1
20783 20788 1
20783 20789 1
20784 20786 1
20784 20787 1
20785 20790 1
20786 20788 1
20786 20789 1
20788 20790 1
20791 20794 1
20791 20795 1
20791 20799 1
20791 20802 1
20792 20796 1
20792 20797 1
20792 20800 1
20793 20798 1
20793 20799 1
20793 20802 1
20794 20796 1
20794 20797 1
20794 20801 1
20795 20800 1
20795 20801 1
20796 20798 1
20796 20799 1
20797 20802 1
20798 20800 1
20798 20801 1
20800 20802 1
20803 20806 1
20803 20807 1
20803 20811 1
20803 20814 1
20804 20808 1
20804 20809 1
20804 20812 1
20805 20810 1
20805 20811 1
20805 20814 1
20806 20808 1
20806 20809 1
20806 20813 1
20807 20812 1
20807 20813 1
20808 20810 1
20808 20811 1
20809 20814 1
20810 20812 1
20810 20813 1
20812 20814 1
20815 20818 1
20815 20819 1
20815 20823 1
20815 20826 1
20816 20820 1
20816 20821 1
20816 20824 1
20817 20822 1
20817 20823 1
20817 20826 1
20818 20820 1
20818 20821 1
20818 20825 1
20819 20824 1
20819 20825 1
20820 20822 1
20820 20823 1
20821 20826 1
20822 20824 1
20822 20825 1
20824 20826 1
20827 20830 1
20827 20831 1
20827 20835 1
20827 20838 1
20828 20832 1
20828 20833 1
20828 20836 1
20829 20834 1
20829 20835 1
20829 20838 1
20830 20832 1
20830 20833 1
20830 20837 1
20831 20836 1
20831 20837 1
20832 20834 1
20832 20835 1
20833 20838 1
20834 20836 1
20834 20837 1
20836 20838 1
20839 20842 1
20839 20843 1
20839 20847 1
20839 20850 1
20840 20844 1
20840 20845 1
20840 20848 1
20841 20846 1
20841 20847 1
20841 20850 1
20842 20844 1
20842 20845 1
20842 20849 1
20843 20848 1
20843 20849 1
20844 20846 1
20844 20847 1
20845 20850 1
20846 20848 1
20846 20849 1
20848 20850 1
20851 20854 1
20851 20855 1
20851 20859 1
20851 20862 1
20852 20856 1
20852 20857 1
20852 20860 1
20853 20858 1
20853 20859 1
20853 20862 1
20854 20856 1
20854 20857 1
20854 20861 1
20855 20860 1
20855 20861 1
20856 20858 1
20856 20859 1
20857 20862 1
20858 20860 1
20858 20861 1
20860 20862 1
20863 20866 1
20863 20867 1
20863 20871 1
20863 20874 1
20864 20868 1
20864 20869 1
20864 20872 1
20865 20870 1
20865 20871 1
20865 20874 1
20866 20868 1
20866 20869 1
20866 20873 1
20867 20872 1
20867 20873 1
20868 20870 1
20868 20871 1
20869 20874 1
20870 20872 1
20870 20873 1
20872 20874 1
20875 20878 1
20875 20879 1
20875 20883 1
20875 20886 1
20876 20880 1
20876 20881 1
20876 20884 1
20877 20882 1
20877 20883 1
20877 20886 1
20878 20880 1
20878 20881 1
20878 20885 1
20879 20884 1
20879 20885 1
20880 20882 1
20880 20883 1
20881 20886 1
20882 20884 1
20882 20885 1
20884 20886 1
20887 20890 1
20887 20891 1
20887 20895 1
20887 20898 1
20888 20892 1
20888 20893 1
20888 20896 1
20889 20894 1
20889 20895 1
20889 20898 1
20890 20892 1
20890 20893 1
20890 20897 1
20891 20896 1
20891 20897 1
20892 20894 1
20892 20895 1
20893 20898 1
20894 20896 1
20894 20897 1
20896 20898 1
20899 20902 1
20899 20903 1
20899 20907 1
20899 20910 1
20900 20904 1
20900 20905 1
20900 20908 1
20901 20906 1
20901 20907 1
20901 20910 1
20902 20904 1
20902 20905 1
20902 20909 1
20903 20908 1
20903 20909 1
20904 20906 1
20904 20907 1
20905 20910 1
20906 20908 1
20906 20909 1
20908 20910 1
20911 20914 1
20911 20915 1
20911 20919 1
20911 20922 1
20912 20916 1
20912 20917 1
20912 20920 1
20913 20918 1
20913 20919 1
20913 20922 1
20914 20916 1
20914 20917 1
20914 20921 1
20915 20920 1
20915 20921 1
20916 20918 1
20916 20919 1
20917 20922 1
20918 20920 1
20918 20921 1
20920 20922 1
20923 20926 1
20923 20927 1
20923 20931 1
20923 20934 1
20924 20928 1
20924 20929 1
20924 20932 1
20925 20930 1
20925 20931 1
20925 20934 1
20926 20928 1
20926 20929 1
20926 20933 1
20927 20932 1
20927 20933 1
20928 20930 1
20928 20931 1
20929 20934 1
20930 20932 1
20930 20933 1
20932 20934 1
20935 20938 1
20935 20939 1
20935 20943 1
20935 20946 1
20936 20940 1
20936 20941 1
20936 20944 1
20937 20942 1
20937 20943 1
20937 20946 1
20938 20940 1
20938 20941 1
20938 20945 1
20939 20944 1
20939 20945 1
20940 20942 1
20940 20943 1
20941 20946 1
20942 20944 1
20942 20945 1
20944 20946 1
20947 20950 1
20947 20951 1
20947 20955 1
20947 20958 1
20948 20952 1
20948 20953 1
20948 20956 1
20949 20954 1
20949 20955 1
20949 20958 1
20950 20952 1
20950 20953 1
20950 20957 1
20951 20956 1
20951 20957 1
20952 20954 1
20952 20955 1
20953 20958 1
20954 20956 1
20954 20957 1
20956 20958 1
20959 20962 1
20959 20963 1
20959 20967 1
20959 20970 1
20960 20964 1
20960 20965 1
20960 20968 1
20961 20966 1
20961 20967 1
20961 20970 1
20962 20964 1
20962 20965 1
20962 20969 1
20963 20968 1
20963 20969 1
20964 20966 1
20964 20967 1
20965 20970 1
20966 20968 1
20966 20969 1
20968 20970 1
20971 20974 1
20971 20975 1
20971 20979 1
20971 20982 1
20972 20976 1
20972 20977 1
20972 20980 1
20973 20978 1
20973 20979 1
20973 20982 1
20974 20976 1
20974 20977 1
20974 20981 1
20975 20980 1
20975 20981 1
20976 20978 1
20976 20979 1
20977 20982 1
20978 20980 1
20978 20981 1
20980 20982 1
20983 20986 1
20983 20987 1
20983 20991 1
20983 20994 1
20984 20988 1
20984 20989 1
20984 20992 1
20985 20990 1
20985 20991 1
20985 20994 1
20986 20988 1
20986 20989 1
20986 20993 1
20987 20992 1
20987 20993 1
20988 20990 1
20988 20991 1
20989 20994 1
20990 20992 1
20990 20993 1
20992 20994 1
20995 20998 1
20995 20999 1
20995 21003 1
20995 21006 1
20996 21000 1
20996 21001 1
20996 21004 1
20997 21002 1
20997 21003 1
20997 21006 1
20998 21000 1
20998 21001 1
20998 21005 1
20999 21004 1
20999 21005 1
21000 21002 1
21000 21003 1
21001 21006 1
21002 21004 1
21002 21005 1
21004 21006 1
21007 21010 1
21007 21011 1
21007 21015 1
21007 21018 1
21008 21012 1
21008 21013 1
21008 21016 1
21009 21014 1
21009 21015 1
21009 21018 1
21010 21012 1
21010 21013 1
21010 21017 1
21011 21016 1
21011 21017 1
21012 21014 1
21012 21015 1
21013 21018 1
21014 21016 1
21014 21017 1
21016 21018 1
21019 21022 1
21019 21023 1
21019 21027 1
21019 21030 1
21020 21024 1
21020 21025 1
21020 21028 1
21021 21026 1
21021 21027 1
21021 21030 1
21022 21024 1
21022 21025 1
21022 21029 1
21023 21028 1
21023 21029 1
21024 21026 1
21024 21027 1
21025 21030 1
21026 21028 1
21026 21029 1
21028 21030 1
21031 21034 1
21031 21035 1
21031 21039 1
21031 21042 1
21032 21036 1
21032 21037 1
21032 21040 1
21033 21038 1
21033 21039 1
21033 21042 1
21034 21036 1
21034 21037 1
21034 21041 1
21035 21040 1
21035 21041 1
21036 21038 1
21036 21039 1
21037 21042 1
21038 21040 1
21038 21041 1
21040 21042 1
21043 21046 1
21043 21047 1
21043 21051 1
21043 21054 1
21044 21048 1
21044 21049 1
21044 21052 1
21045 21050 1
21045 21051 1
21045 21054 1
21046 21048 1
21046 21049 1
21046 21053 1
21047 21052 1
21047 21053 1
21048 21050 1
21048 21051 1
21049 21054 1
21050 21052 1
21050 21053 1
21052 21054 1
21055 21058 1
21055 21059 1
21055 21063 1
21055 21066 1
21056 21060 1
21056 21061 1
21056 21064 1
21057 21062 1
21057 21063 1
21057 21066 1
21058 21060 1
21058 21061 1
21058 21065 1
21059 21064 1
21059 21065 1
21060 21062 1
21060 21063 1
21061 21066 1
21062 21064 1
21062 21065 1
21064 21066 1
21067 21070 1
21067 21071 1
21067 21075 1
21067 21078 1
21068 21072 1
21068 21073 1
21068 21076 1
21069 21074 1
21069 21075 1
21069 21078 1
21070 21072 1
21070 21073 1
21070 21077 1
21071 21076 1
21071 21077 1
21072 21074 1
21072 21075 1
21073 21078 1
21074 21076 1
21074 21077 1
21076 21078 1
21079 21082 1
21079 21083 1
21079 21087 1
21079 21090 1
21080 21084 1
21080 21085 1
21080 21088 1
21081 21086 1
21081 21087 1
21081 21090 1
21082 21084 1
21082 21085 1
21082 21089 1
21083 21088 1
21083 21089 1
21084 21086 1
21084 21087 1
21085 21090 1
21086 21088 1
21086 21089 1
21088 21090 1
21091 21094 1
21091 21095 1
21091 21099 1
21091 21102 1
21092 21096 1
21092 21097 1
21092 21100 1
21093 21098 1
21093 21099 1
21093 21102 1
21094 21096 1
21094 21097 1
21094 21101 1
21095 21100 1
21095 21101 1
21096 21098 1
21096 21099 1
21097 21102 1
21098 21100 1
21098 21101 1
21100 21102 1
21103 21106 1
21103 21107 1
21103 21111 1
21103 21114 1
21104 21108 1
21104 21109 1
21104 21112 1
21105 21110 1
21105 21111 1
21105 21114 1
21106 21108 1
21106 21109 1
21106 21113 1
21107 21112 1
21107 21113 1
21108 21110 1
21108 21111 1
21109 21114 1
21110 21112 1
21110 21113 1
21112 21114 1
21115 21118 1
21115 21119 1
21115 21123 1
21115 21126 1
21116 21120 1
21116 21121 1
21116 21124 1
21117 21122 1
21117 21123 1
21117 21126 1
21118 21120 1
21118 21121 1
21118 21125 1
21119 21124 1
21119 21125 1
21120 21122 1
21120 21123 1
21121 21126 1
21122 21124 1
21122 21125 1
21124 21126 1
21127 21130 1
21127 21131 1
21127 21135 1
21127 21138 1
21128 21132 1
21128 21133 1
21128 21136 1
21129 21134 1
21129 21135 1
21129 21138 1
21130 21132 1
21130 21133 1
21130 21137 1
21131 21136 1
21131 21137 1
21132 21134 1
21132 21135 1
21133 21138 1
21134 21136 1
21134 21137 1
21136 21138 1
21139 21142 1
21139 21143 1
21139 21147 1
21139 21150 1
21140 21144 1
21140 21145 1
21140 21148 1
21141 21146 1
21141 21147 1
21141 21150 1
21142 21144 1
21142 21145 1
21142 21149 1
21143 21148 1
21143 21149 1
21144 21146 1
21144 21147 1
21145 21150 1
21146 21148 1
21146 21149 1
21148 21150 1
21151 21154 1
21151 21155 1
21151 21159 1
21151 21162 1
21152 21156 1
21152 21157 1
21152 21160 1
21153 21158 1
21153 21159 1
21153 21162 1
21154 21156 1
21154 21157 1
21154 21161 1
21155 21160 1
21155 21161 1
21156 21158 1
21156 21159 1
21157 21162 1
21158 21160 1
21158 21161 1
21160 21162 1
21163 21166 1
21163 21167 1
21163 21171 1
21163 21174 1
21164 21168 1
21164 21169 1
21164 21172 1
21165 21170 1
21165 21171 1
21165 21174 1
21166 21168 1
21166 21169 1
21166 21173 1
21167 21172 1
21167 21173 1
21168 21170 1
21168 21171 1
21169 21174 1
21170 21172 1
21170 21173 1
21172 21174 1

[ angles ]
; ai aj ak funct params
11379 1 14916 1 149.00000 418.400000
11379 2 15600 1 149.00000 418.400000
11379 3 15788 1 149.00000 418.400000
11379 4 11719 1 149.00000 418.400000
11504 5 21175 1 149.00000 418.400000
19054 6 21175 1 149.00000 418.400000
11380 7 15710 1 149.00000 418.400000
11380 8 16538 1 149.00000 418.400000
11380 9 11772 1 149.00000 418.400000
11380 10 12437 1 149.00000 418.400000
11381 11 21343 1 149.00000 418.400000
11381 12 12585 1 149.00000 418.400000
11381 13 13600 1 149.00000 418.400000
11382 14 11415 1 149.00000 418.400000
11382 15 13531 1 149.00000 418.400000
11382 16 13792 1 149.00000 418.400000
11382 17 12520 1 149.00000 418.400000
12345 18 21166 1 149.00000 418.400000
11383 19 18466 1 149.00000 418.400000
11383 20 14162 1 149.00000 418.400000
11383 21 17358 1 149.00000 418.400000
11384 22 15175 1 149.00000 418.400000
11384 23 16125 1 149.00000 418.400000
11384 24 16784 1 149.00000 418.400000
11384 25 12818 1 149.00000 418.400000
11385 26 12250 1 149.00000 418.400000
11385 27 13833 1 149.00000 418.400000
11385 28 15020 1 149.00000 418.400000
11385 29 16411 1 149.00000 418.400000
21178 30 21508 1 149.00000 418.400000
15397 31 21178 1 149.00000 418.400000
13860 32 21178 1 149.00000 418.400000
11386 33 14199 1 149.00000 418.400000
11386 34 15516 1 149.00000 418.400000
11386 35 12752 1 149.00000 418.400000
11386 36 15191 1 149.00000 418.400000
11387 37 14147 1 149.00000 418.400000
11387 38 13489 1 149.00000 418.400000
11387 39 12677 1 149.00000 418.400000
11387 40 14036 1 149.00000 418.400000
11388 41 15168 1 149.00000 418.400000
11388 42 14525 1 149.00000 418.400000
11388 43 15834 1 149.00000 418.400000
11388 44 16203 1 149.00000 418.400000
11389 45 15287 1 149.00000 418.400000
11389 46 21613 1 149.00000 418.400000
11389 47 14228 1 149.00000 418.400000
11389 48 15664 1 149.00000 418.400000
11390 49 14511 1 149.00000 418.400000
11390 50 14847 1 149.00000 418.400000
11390 51 13943 1 149.00000 418.400000
11390 52 12191 1 149.00000 418.400000
11391 53 14011 1 149.00000 418.400000
11391 54 12654 1 149.00000 418.400000
11391 55 15772 1 149.00000 418.400000
11391 56 12262 1 149.00000 418.400000
11392 57 14040 1 149.00000 418.400000
11392 58 13868 1 149.00000 418.400000
11392 59 11828 1 149.00000 418.400000
11392 60 15347 1 149.00000 418.400000
11393 61 17274 1 149.00000 418.400000
11393 62 12441 1 149.00000 418.400000
11393 63 11418 1 149.00000 418.400000
11393 64 12170 1 149.00000 418.400000
11564 65 21181 1 149.00000 418.400000
15972 66 21181 1 149.00000 418.400000
16016 67 21181 1 149.00000 418.400000
16567 68 17666 1 149.00000 418.400000
14953 69 17666 1 149.00000 418.400000
11394 70 15234 1 149.00000 418.400000
11394 71 13819 1 149.00000 418.400000
11394 72 16323 1 149.00000 418.400000
11394 73 15905 1 149.00000 418.400000
11395 74 21643 1 149.00000 418.400000
11395 75 21034 1 149.00000 418.400000
11395 76 15763 1 149.00000 418.400000
11395 77 16593 1 149.00000 418.400000
11396 78 12443 1 149.00000 418.400000
11396 79 11785 1 149.00000 418.400000
11396 80 15122 1 149.00000 418.400000
11396 81 14672 1 149.00000 418.400000
11397 82 13791 1 149.00000 418.400000
11397 83 16596 1 149.00000 418.400000
11397 84 14691 1 149.00000 418.400000
11397 85 16446 1 149.00000 418.400000
13549 86 13575 1 149.00000 418.400000
11398 87 13169 1 149.00000 418.400000
11398 88 13575 1 149.00000 418.400000
11398 89 15766 1 149.00000 418.400000
11399 90 15458 1 149.00000 418.400000
11399 91 15869 1 149.00000 418.400000
11399 92 21784 1 149.00000 418.400000
11400 93 13754 1 149.00000 418.400000
11400 94 13508 1 149.00000 418.400000
11400 95 16167 1 149.00000 418.400000
11400 96 12629 1 149.00000 418.400000
11401 97 15498 1 149.00000 418.400000
11401 98 12970 1 149.00000 418.400000
11401 99 13859 1 149.00000 418.400000
11401 100 16033 1 149.00000 418.400000
11402 101 11648 1 149.00000 418.400000
11402 102 13955 1 149.00000 418.400000
11402 103 12409 1 149.00000 418.400000
11402 104 16176 1 149.00000 418.400000
11403 105 12097 1 149.00000 418.400000
11403 106 16545 1 149.00000 418.400000
11403 107 15935 1 149.00000 418.400000
11403 108 16179 1 149.00000 418.400000
11404 109 14660 1 149.00000 418.400000
11404 110 16102 1 149.00000 418.400000
11404 111 13519 1 149.00000 418.400000
11404 112 15810 1 149.00000 418.400000
11405 113 11775 1 149.00000 418.400000
11405 114 12535 1 149.00000 418.400000
11405 115 16088 1 149.00000 418.400000
11405 116 11832 1 149.00000 418.400000
11406 117 14340 1 149.00000 418.400000
11406 118 11829 1 149.00000 418.400000
11406 119 15110 1 149.00000 418.400000
11406 120 12604 1 149.00000 418.400000
16567 121 18430 1 149.00000 418.400000
16510 122 18430 1 149.00000 418.400000
11499 123 21184 1 149.00000 418.400000
16478 124 21184 1 149.00000 418.400000
21184 125 21337 1 149.00000 418.400000
11407 126 11837 1 149.00000 418.400000
11407 127 11409 1 149.00000 418.400000
11407 128 11843 1 149.00000 418.400000
11407 129 11737 1 149.00000 418.400000
11408 130 12840 1 149.00000 418.400000
11408 131 13726 1 149.00000 418.400000
11408 132 13643 1 149.00000 418.400000
11408 133 15555 1 149.00000 418.400000
11409 134 13205 1 149.00000 418.400000
11409 135 13494 1 149.00000 418.400000
11409 136 15222 1 149.00000 418.400000
11410 137 21211 1 149.00000 418.400000
11410 138 15209 1 149.00000 418.400000
11410 139 12210 1 149.00000 418.400000
11411 140 12609 1 149.00000 418.400000
11411 141 13686 1 149.00000 418.400000
11411 142 11953 1 149.00000 418.400000
11411 143 11860 1 149.00000 418.400000
11412 144 15205 1 149.00000 418.400000
11412 145 16756 1 149.00000 418.400000
11412 146 12219 1 149.00000 418.400000
11412 147 17932 1 149.00000 418.400000
13836 148 15027 1 149.00000 418.400000
11413 149 14822 1 149.00000 418.400000
11413 150 15027 1 149.00000 418.400000
11413 151 11660 1 149.00000 418.400000
11414 152 14590 1 149.00000 418.400000
11414 153 11793 1 149.00000 418.400000
11414 154 14704 1 149.00000 418.400000
11414 155 11847 1 149.00000 418.400000
11415 156 12113 1 149.00000 418.400000
11415 157 13440 1 149.00000 418.400000
11415 158 14041 1 149.00000 418.400000
13562 159 13676 1 149.00000 418.400000
11416 160 11690 1 149.00000 418.400000
11416 161 12691 1 149.00000 418.400000
11416 162 15165 1 149.00000 418.400000
11417 163 13202 1 149.00000 418.400000
11417 164 13427 1 149.00000 418.400000
11417 165 16111 1 149.00000 418.400000
11417 166 14653 1 149.00000 418.400000
11418 167 13687 1 149.00000 418.400000
11418 168 18418 1 149.00000 418.400000
11418 169 14109 1 149.00000 418.400000
11419 170 16179 1 149.00000 418.400000
11419 171 12072 1 149.00000 418.400000
11419 172 13418 1 149.00000 418.400000
11419 173 15568 1 149.00000 418.400000
11420 174 21502 1 149.00000 418.400000
11420 175 15075 1 149.00000 418.400000
11420 176 11546 1 149.00000 418.400000
11420 177 16616 1 149.00000 418.400000
17526 178 19258 1 149.00000 418.400000
16141 179 19258 1 149.00000 418.400000
11421 180 12711 1 149.00000 418.400000
11421 181 21577 1 149.00000 418.400000
11421 182 16017 1 149.00000 418.400000
11421 183 16083 1 149.00000 418.400000
11422 184 14461 1 149.00000 418.400000
11422 185 13283 1 149.00000 418.400000
11422 186 12616 1 149.00000 418.400000
11422 187 13763 1 149.00000 418.400000
11423 188 15681 1 149.00000 418.400000
11423 189 13665 1 149.00000 418.400000
11423 190 15364 1 149.00000 418.400000
11423 191 12080 1 149.00000 418.400000
14087 192 21949 1 149.00000 418.400000
11424 193 12991 1 149.00000 418.400000
11424 194 14711 1 149.00000 418.400000
11424 195 14545 1 149.00000 418.400000
11424 196 12468 1 149.00000 418.400000
11425 197 16353 1 149.00000 418.400000
11425 198 13965 1 149.00000 418.400000
11425 199 14250 1 149.00000 418.400000
11425 200 12388 1 149.00000 418.400000
11426 201 15261 1 149.00000 418.400000
11426 202 15052 1 149.00000 418.400000
11426 203 13291 1 149.00000 418.400000
12483 204 15052 1 149.00000 418.400000
21673 205 21999 1 149.00000 418.400000
11427 206 15899 1 149.00000 418.400000
11427 207 21673 1 149.00000 418.400000
11427 208 11769 1 149.00000 418.400000
11428 209 12985 1 149.00000 418.400000
11428 210 16524 1 149.00000 418.400000
11428 211 15720 1 149.00000 418.400000
11428 212 16344 1 149.00000 418.400000
13077 213 16509 1 149.00000 418.400000
11429 214 13077 1 149.00000 418.400000
11429 215 14212 1 149.00000 418.400000
11429 216 13229 1 149.00000 418.400000
11430 217 14228 1 149.00000 418.400000
11430 218 15494 1 149.00000 418.400000
11430 219 12283 1 149.00000 418.400000
11430 220 15668 1 149.00000 418.400000
11431 221 19534 1 149.00000 418.400000
11431 222 13059 1 149.00000 418.400000
11431 223 16357 1 149.00000 418.400000
11432 224 16502 1 149.00000 418.400000
11432 225 13830 1 149.00000 418.400000
11432 226 11773 1 149.00000 418.400000
11432 227 16381 1 149.00000 418.400000
11433 228 13417 1 149.00000 418.400000
11433 229 14013 1 149.00000 418.400000
11433 230 12012 1 149.00000 418.400000
11433 231 16042 1 149.00000 418.400000
20506 232 20962 1 149.00000 418.400000
16131 233 20506 1 149.00000 418.400000
15176 234 20506 1 149.00000 418.400000
14069 235 16258 1 149.00000 418.400000
14069 236 14521 1 149.00000 418.400000
11434 237 14069 1 149.00000 418.400000
13254 238 14069 1 149.00000 418.400000
20770 239 21187 1 149.00000 418.400000
15817 240 21187 1 149.00000 418.400000
19330 241 21187 1 149.00000 418.400000
11435 242 15989 1 149.00000 418.400000
11435 243 13452 1 149.00000 418.400000
11435 244 14866 1 149.00000 418.400000
11436 245 20878 1 149.00000 418.400000
11437 246 12873 1 149.00000 418.400000
11437 247 16461 1 149.00000 418.400000
11437 248 12924 1 149.00000 418.400000
11437 249 11507 1 149.00000 418.400000
11800 250 13623 1 149.00000 418.400000
11438 251 15133 1 149.00000 418.400000
11438 252 14245 1 149.00000 418.400000
11438 253 13623 1 149.00000 418.400000
11896 254 21190 1 149.00000 418.400000
21190 255 21265 1 149.00000 418.400000
11439 256 14003 1 149.00000 418.400000
11439 257 13802 1 149.00000 418.400000
11439 258 14801 1 149.00000 418.400000
11439 259 14068 1 149.00000 418.400000
11440 260 20326 1 149.00000 418.400000
11440 261 12100 1 149.00000 418.400000
11440 262 18742 1 149.00000 418.400000
11440 263 21193 1 149.00000 418.400000
11441 264 15981 1 149.00000 418.400000
11441 265 14463 1 149.00000 418.400000
11441 266 16569 1 149.00000 418.400000
11441 267 12280 1 149.00000 418.400000
11442 268 12833 1 149.00000 418.400000
11442 269 12965 1 149.00000 418.400000
11442 270 15611 1 149.00000 418.400000
11442 271 11477 1 149.00000 418.400000
11443 272 21880 1 149.00000 418.400000
11443 273 14103 1 149.00000 418.400000
11443 274 20818 1 149.00000 418.400000
11444 275 14756 1 149.00000 418.400000
11444 276 15616 1 149.00000 418.400000
11444 277 12169 1 149.00000 418.400000
11444 278 14461 1 149.00000 418.400000
11445 279 13437 1 149.00000 418.400000
11445 280 11997 1 149.00000 418.400000
11445 281 15319 1 149.00000 418.400000
11445 282 13935 1 149.00000 418.400000
14864 283 20230 1 149.00000 418.400000
13080 284 20230 1 149.00000 418.400000
18002 285 20230 1 149.00000 418.400000
11446 286 12298 1 149.00000 418.400000
11446 287 13071 1 149.00000 418.400000
11446 288 14546 1 149.00000 418.400000
11446 289 11454 1 149.00000 418.400000
11447 290 11886 1 149.00000 418.400000
11447 291 12230 1 149.00000 418.400000
11447 292 11528 1 149.00000 418.400000
11886 293 12774 1 149.00000 418.400000
11448 294 14613 1 149.00000 418.400000
11448 295 16000 1 149.00000 418.400000
11448 296 13506 1 149.00000 418.400000
13506 297 13829 1 149.00000 418.400000
11449 298 15403 1 149.00000 418.400000
11449 299 15529 1 149.00000 418.400000
11449 300 12095 1 149.00000 418.400000
11449 301 12078 1 149.00000 418.400000
11450 302 14455 1 149.00000 418.400000
11450 303 12154 1 149.00000 418.400000
11450 304 14276 1 149.00000 418.400000
11450 305 15612 1 149.00000 418.400000
11451 306 17302 1 149.00000 418.400000
11451 307 13092 1 149.00000 418.400000
11451 308 14582 1 149.00000 418.400000
11451 309 16147 1 149.00000 418.400000
11452 310 12568 1 149.00000 418.400000
11452 311 11710 1 149.00000 418.400000
11452 312 15328 1 149.00000 418.400000
11452 313 16533 1 149.00000 418.400000
21193 314 21682 1 149.00000 418.400000
12855 315 21193 1 149.00000 418.400000
11453 316 11676 1 149.00000 418.400000
11453 317 12799 1 149.00000 418.400000
11453 318 14196 1 149.00000 418.400000
11453 319 15782 1 149.00000 418.400000
15914 320 16812 1 149.00000 418.400000
11454 321 15316 1 149.00000 418.400000
11454 322 12080 1 149.00000 418.400000
11454 323 16210 1 149.00000 418.400000
11455 324 15084 1 149.00000 418.400000
11455 325 14227 1 149.00000 418.400000
11455 326 15448 1 149.00000 418.400000
11455 327 13914 1 149.00000 418.400000
11456 328 11786 1 149.00000 418.400000
11456 329 14721 1 149.00000 418.400000
11456 330 16544 1 149.00000 418.400000
11456 331 11618 1 149.00000 418.400000
11457 332 15690 1 149.00000 418.400000
11457 333 12228 1 149.00000 418.400000
11457 334 12115 1 149.00000 418.400000
11457 335 13939 1 149.00000 418.400000
12819 336 15469 1 149.00000 418.400000
15097 337 15469 1 149.00000 418.400000
11458 338 16456 1 149.00000 418.400000
11733 339 15469 1 149.00000 418.400000
11459 340 12681 1 149.00000 418.400000
11459 341 13918 1 149.00000 418.400000
11459 342 12776 1 149.00000 418.400000
11459 343 14579 1 149.00000 418.400000
11460 344 14772 1 149.00000 418.400000
11460 345 11779 1 149.00000 418.400000
11460 346 15106 1 149.00000 418.400000
11460 347 11515 1 149.00000 418.400000
16798 348 21856 1 149.00000 418.400000
14131 349 21856 1 149.00000 418.400000
21196 350 21856 1 149.00000 418.400000
14398 351 21196 1 149.00000 418.400000
11461 352 15924 1 149.00000 418.400000
11461 353 13685 1 149.00000 418.400000
11461 354 14467 1 149.00000 418.400000
11461 355 16347 1 149.00000 418.400000
11462 356 21070 1 149.00000 418.400000
11462 357 15674 1 149.00000 418.400000
11462 358 15124 1 149.00000 418.400000
11462 359 13999 1 149.00000 418.400000
11463 360 12763 1 149.00000 418.400000
11463 361 15901 1 149.00000 418.400000
11463 362 11565 1 149.00000 418.400000
11463 363 12511 1 149.00000 418.400000
11464 364 16465 1 149.00000 418.400000
11464 365 16234 1 149.00000 418.400000
11464 366 12725 1 149.00000 418.400000
11464 367 14386 1 149.00000 418.400000
13861 368 16268 1 149.00000 418.400000
16268 369 19942 1 149.00000 418.400000
12396 370 16268 1 149.00000 418.400000
13144 371 20470 1 149.00000 418.400000
11465 372 13144 1 149.00000 418.400000
13144 373 15534 1 149.00000 418.400000
11465 374 16826 1 149.00000 418.400000
11527 375 11859 1 149.00000 418.400000
11859 376 12751 1 149.00000 418.400000
11466 377 19198 1 149.00000 418.400000
11466 378 11859 1 149.00000 418.400000
11467 379 12664 1 149.00000 418.400000
11467 380 13642 1 149.00000 418.400000
11467 381 14166 1 149.00000 418.400000
11467 382 16457 1 149.00000 418.400000
11468 383 21568 1 149.00000 418.400000
11468 384 15357 1 149.00000 418.400000
11468 385 15865 1 149.00000 418.400000
11468 386 14440 1 149.00000 418.400000
11469 387 15474 1 149.00000 418.400000
11469 388 11535 1 149.00000 418.400000
11469 389 12974 1 149.00000 418.400000
11469 390 11685 1 149.00000 418.400000
11470 391 13387 1 149.00000 418.400000
11470 392 13128 1 149.00000 418.400000
11470 393 11888 1 149.00000 418.400000
11470 394 12593 1 149.00000 418.400000
18212 395 18310 1 149.00000 418.400000
11851 396 18310 1 149.00000 418.400000
11471 397 14242 1 149.00000 418.400000
11633 398 14422 1 149.00000 418.400000
11471 399 12606 1 149.00000 418.400000
11471 400 14422 1 149.00000 418.400000
11472 401 11543 1 149.00000 418.400000
11472 402 14153 1 149.00000 418.400000
11472 403 16548 1 149.00000 418.400000
11472 404 11576 1 149.00000 418.400000
11473 405 15666 1 149.00000 418.400000
11473 406 13058 1 149.00000 418.400000
13610 407 15311 1 149.00000 418.400000
11473 408 15311 1 149.00000 418.400000
11474 409 12456 1 149.00000 418.400000
11474 410 13006 1 149.00000 418.400000
11474 411 14173 1 149.00000 418.400000
11474 412 16290 1 149.00000 418.400000
11475 413 13137 1 149.00000 418.400000
11475 414 16568 1 149.00000 418.400000
11475 415 12594 1 149.00000 418.400000
11475 416 20350 1 149.00000 418.400000
19570 417 21199 1 149.00000 418.400000
13261 418 21199 1 149.00000 418.400000
16425 419 21199 1 149.00000 418.400000
11476 420 13228 1 149.00000 418.400000
11476 421 14077 1 149.00000 418.400000
11476 422 13977 1 149.00000 418.400000
11476 423 13176 1 149.00000 418.400000
11477 424 14297 1 149.00000 418.400000
11477 425 12752 1 149.00000 418.400000
11477 426 11507 1 149.00000 418.400000
11478 427 15864 1 149.00000 418.400000
11478 428 16438 1 149.00000 418.400000
11478 429 14202 1 149.00000 418.400000
11478 430 11581 1 149.00000 418.400000
11479 431 12738 1 149.00000 418.400000
11479 432 12815 1 149.00000 418.400000
11479 433 13455 1 149.00000 418.400000
11479 434 15762 1 149.00000 418.400000
12085 435 14362 1 149.00000 418.400000
11480 436 12085 1 149.00000 418.400000
11480 437 13115 1 149.00000 418.400000
11480 438 13957 1 149.00000 418.400000
11481 439 13483 1 149.00000 418.400000
11481 440 21316 1 149.00000 418.400000
11482 441 19642 1 149.00000 418.400000
11482 442 17414 1 149.00000 418.400000
11482 443 15265 1 149.00000 418.400000
11482 444 15769 1 149.00000 418.400000
11483 445 11532 1 149.00000 418.400000
11483 446 12736 1 149.00000 418.400000
11483 447 14064 1 149.00000 418.400000
11483 448 14760 1 149.00000 418.400000
13130 449 21202 1 149.00000 418.400000
21202 450 21280 1 149.00000 418.400000
11484 451 13519 1 149.00000 418.400000
11484 452 15913 1 149.00000 418.400000
11484 453 14361 1 149.00000 418.400000
11484 454 12834 1 149.00000 418.400000
11485 455 14441 1 149.00000 418.400000
11485 456 11895 1 149.00000 418.400000
11485 457 12392 1 149.00000 418.400000
11485 458 19702 1 149.00000 418.400000
16367 459 17764 1 149.00000 418.400000
17610 460 17764 1 149.00000 418.400000
11486 461 15545 1 149.00000 418.400000
11486 462 13370 1 149.00000 418.400000
11486 463 14879 1 149.00000 418.400000
11486 464 15556 1 149.00000 418.400000
11487 465 16492 1 149.00000 418.400000
11487 466 16287 1 149.00000 418.400000
11487 467 13904 1 149.00000 418.400000
11487 468 13014 1 149.00000 418.400000
11488 469 21730 1 149.00000 418.400000
11488 470 12100 1 149.00000 418.400000
11488 471 15584 1 149.00000 418.400000
11488 472 14451 1 149.00000 418.400000
11489 473 13127 1 149.00000 418.400000
11489 474 14980 1 149.00000 418.400000
11490 475 13894 1 149.00000 418.400000
11490 476 14800 1 149.00000 418.400000
11490 477 14899 1 149.00000 418.400000
11490 478 13348 1 149.00000 418.400000
11491 479 15531 1 149.00000 418.400000
12477 480 14004 1 149.00000 418.400000
16345 481 20758 1 149.00000 418.400000
11491 482 20758 1 149.00000 418.400000
11492 483 12949 1 149.00000 418.400000
11492 484 12870 1 149.00000 418.400000
11492 485 14587 1 149.00000 418.400000
11492 486 14177 1 149.00000 418.400000
11493 487 11981 1 149.00000 418.400000
11493 488 11600 1 149.00000 418.400000
11493 489 16198 1 149.00000 418.400000
11493 490 13247 1 149.00000 418.400000
11494 491 21979 1 149.00000 418.400000
11494 492 14012 1 149.00000 418.400000
11494 493 16568 1 149.00000 418.400000
11494 494 15847 1 149.00000 418.400000
13693 495 16167 1 149.00000 418.400000
11495 496 15617 1 149.00000 418.400000
11495 497 13693 1 149.00000 418.400000
11495 498 15419 1 149.00000 418.400000
14874 499 16966 1 149.00000 418.400000
11496 500 14884 1 149.00000 418.400000
11496 501 11874 1 149.00000 418.400000
11496 502 15170 1 149.00000 418.400000
11496 503 11503 1 149.00000 418.400000
11497 504 15243 1 149.00000 418.400000
11497 505 13240 1 149.00000 418.400000
11497 506 14671 1 149.00000 418.400000
11497 507 12437 1 149.00000 418.400000
11498 508 13496 1 149.00000 418.400000
11498 509 13631 1 149.00000 418.400000
11498 510 13420 1 149.00000 418.400000
11498 511 15569 1 149.00000 418.400000
11499 512 18226 1 149.00000 418.400000
11499 513 12247 1 149.00000 418.400000
11499 514 15410 1 149.00000 418.400000
13183 515 21205 1 149.00000 418.400000
15999 516 21205 1 149.00000 418.400000
14845 517 21205 1 149.00000 418.400000
15936 518 21058 1 149.00000 418.400000
12647 519 21058 1 149.00000 418.400000
16443 520 21058 1 149.00000 418.400000
11500 521 21463 1 149.00000 418.400000
11500 522 15366 1 149.00000 418.400000
12690 523 21463 1 149.00000 418.400000
11500 524 12251 1 149.00000 418.400000
11501 525 16333 1 149.00000 418.400000
11501 526 16542 1 149.00000 418.400000
11501 527 16389 1 149.00000 418.400000
11501 528 11907 1 149.00000 418.400000
11502 529 12580 1 149.00000 418.400000
11502 530 15582 1 149.00000 418.400000
11502 531 11667 1 149.00000 418.400000
11502 532 15722 1 149.00000 418.400000
11503 533 12159 1 149.00000 418.400000
11503 534 15413 1 149.00000 418.400000
11503 535 12998 1 149.00000 418.400000
11504 536 15814 1 149.00000 418.400000
11504 537 12399 1 149.00000 418.400000
11504 538 15907 1 149.00000 418.400000
11505 539 13987 1 149.00000 418.400000
11505 540 15719 1 149.00000 418.400000
11505 541 13571 1 149.00000 418.400000
11505 542 12877 1 149.00000 418.400000
12312 543 12616 1 149.00000 418.400000
12616 544 16310 1 149.00000 418.400000
11506 545 12616 1 149.00000 418.400000
11507 546 12896 1 149.00000 418.400000
11507 547 12478 1 149.00000 418.400000
11508 548 16067 1 149.00000 418.400000
11508 549 14326 1 149.00000 418.400000
11508 550 15601 1 149.00000 418.400000
11508 551 15867 1 149.00000 418.400000
11509 552 13248 1 149.00000 418.400000
11509 553 11655 1 149.00000 418.400000
11509 554 15787 1 149.00000 418.400000
11655 555 13053 1 149.00000 418.400000
16234 556 21208 1 149.00000 418.400000
13466 557 21208 1 149.00000 418.400000
13942 558 21208 1 149.00000 418.400000
11510 559 12517 1 149.00000 418.400000
11510 560 11801 1 149.00000 418.400000
11510 561 12808 1 149.00000 418.400000
11511 562 16525 1 149.00000 418.400000
11511 563 12401 1 149.00000 418.400000
11511 564 15082 1 149.00000 418.400000
11511 565 14079 1 149.00000 418.400000
11512 566 12119 1 149.00000 418.400000
11512 567 14076 1 149.00000 418.400000
11512 568 15010 1 149.00000 418.400000
11512 569 13223 1 149.00000 418.400000
11513 570 11639 1 149.00000 418.400000
11513 571 12548 1 149.00000 418.400000
11513 572 16398 1 149.00000 418.400000
11513 573 13414 1 149.00000 418.400000
11514 574 14767 1 149.00000 418.400000
11514 575 15453 1 149.00000 418.400000
11514 576 13305 1 149.00000 418.400000
11514 577 12426 1 149.00000 418.400000
14609 578 21211 1 149.00000 418.400000
21211 579 21313 1 149.00000 418.400000
11515 580 12114 1 149.00000 418.400000
11515 581 11960 1 149.00000 418.400000
11515 582 13620 1 149.00000 418.400000
14674 583 21954 1 149.00000 418.400000
13337 584 21954 1 149.00000 418.400000
11516 585 16085 1 149.00000 418.400000
11516 586 15456 1 149.00000 418.400000
11516 587 16461 1 149.00000 418.400000
11516 588 12248 1 149.00000 418.400000
11517 589 14619 1 149.00000 418.400000
11517 590 16322 1 149.00000 418.400000
11517 591 12371 1 149.00000 418.400000
11517 592 13114 1 149.00000 418.400000
11518 593 12192 1 149.00000 418.400000
11518 594 14637 1 149.00000 418.400000
11518 595 15633 1 149.00000 418.400000
11518 596 14804 1 149.00000 418.400000
11519 597 14424 1 149.00000 418.400000
11519 598 17190 1 149.00000 418.400000
11519 599 11569 1 149.00000 418.400000
11519 600 13243 1 149.00000 418.400000
11520 601 17456 1 149.00000 418.400000
11520 602 15472 1 149.00000 418.400000
11520 603 21691 1 149.00000 418.400000
11521 604 14474 1 149.00000 418.400000
11521 605 14695 1 149.00000 418.400000
11521 606 11522 1 149.00000 418.400000
11521 607 16124 1 149.00000 418.400000
11522 608 12823 1 149.00000 418.400000
11522 609 11645 1 149.00000 418.400000
11522 610 12720 1 149.00000 418.400000
11523 611 13622 1 149.00000 418.400000
11523 612 12304 1 149.00000 418.400000
11523 613 15743 1 149.00000 418.400000
11523 614 16601 1 149.00000 418.400000
11524 615 14945 1 149.00000 418.400000
11524 616 14442 1 149.00000 418.400000
11524 617 15270 1 149.00000 418.400000
11524 618 14181 1 149.00000 418.400000
11525 619 14914 1 149.00000 418.400000
11525 620 21778 1 149.00000 418.400000
11525 621 14583 1 149.00000 418.400000
11526 622 15554 1 149.00000 418.400000
11526 623 12634 1 149.00000 418.400000
11526 624 13397 1 149.00000 418.400000
11526 625 13805 1 149.00000 418.400000
11527 626 15161 1 149.00000 418.400000
11527 627 15459 1 149.00000 418.400000
11527 628 12025 1 149.00000 418.400000
11528 629 11535 1 149.00000 418.400000
11528 630 13812 1 149.00000 418.400000
11528 631 15689 1 149.00000 418.400000
11529 632 15765 1 149.00000 418.400000
11529 633 13991 1 149.00000 418.400000
11529 634 12418 1 149.00000 418.400000
11529 635 12091 1 149.00000 418.400000
11530 636 15428 1 149.00000 418.400000
11530 637 12157 1 149.00000 418.400000
11530 638 14297 1 149.00000 418.400000
11530 639 15191 1 149.00000 418.400000
11531 640 11819 1 149.00000 418.400000
11531 641 12314 1 149.00000 418.400000
11531 642 14092 1 149.00000 418.400000
11531 643 15169 1 149.00000 418.400000
11532 644 12302 1 149.00000 418.400000
11532 645 16618 1 149.00000 418.400000
11532 646 11791 1 149.00000 418.400000
11533 647 12746 1 149.00000 418.400000
11533 648 14620 1 149.00000 418.400000
11533 649 14155 1 149.00000 418.400000
11533 650 15606 1 149.00000 418.400000
11534 651 13614 1 149.00000 418.400000
11534 652 21910 1 149.00000 418.400000
11534 653 14179 1 149.00000 418.400000
11534 654 21418 1 149.00000 418.400000
11535 655 12124 1 149.00000 418.400000
11535 656 11921 1 149.00000 418.400000
11536 657 13732 1 149.00000 418.400000
11536 658 12515 1 149.00000 418.400000
11536 659 13313 1 149.00000 418.400000
12515 660 16608 1 149.00000 418.400000
11537 661 16075 1 149.00000 418.400000
11537 662 16532 1 149.00000 418.400000
14535 663 16532 1 149.00000 418.400000
11537 664 12542 1 149.00000 418.400000
11538 665 15780 1 149.00000 418.400000
14513 666 15780 1 149.00000 418.400000
11538 667 13242 1 149.00000 418.400000
11538 668 11698 1 149.00000 418.400000
12313 669 20650 1 149.00000 418.400000
15012 670 20650 1 149.00000 418.400000
11539 671 14115 1 149.00000 418.400000
11539 672 15041 1 149.00000 418.400000
12340 673 14115 1 149.00000 418.400000
11539 674 12815 1 149.00000 418.400000
12538 675 21214 1 149.00000 418.400000
21214 676 21754 1 149.00000 418.400000
11865 677 21214 1 149.00000 418.400000
11540 678 11582 1 149.00000 418.400000
11540 679 13911 1 149.00000 418.400000
11540 680 16399 1 149.00000 418.400000
11582 681 15821 1 149.00000 418.400000
11541 682 12873 1 149.00000 418.400000
14071 683 15611 1 149.00000 418.400000
11541 684 13697 1 149.00000 418.400000
11541 685 14071 1 149.00000 418.400000
11542 686 13196 1 149.00000 418.400000
11542 687 11684 1 149.00000 418.400000
11542 688 15808 1 149.00000 418.400000
11542 689 15073 1 149.00000 418.400000
11543 690 12017 1 149.00000 418.400000
11808 691 12991 1 149.00000 418.400000
11543 692 11808 1 149.00000 418.400000
11544 693 13686 1 149.00000 418.400000
11544 694 13961 1 149.00000 418.400000
11544 695 12045 1 149.00000 418.400000
11544 696 11953 1 149.00000 418.400000
11545 697 13698 1 149.00000 418.400000
11545 698 13495 1 149.00000 418.400000
11545 699 12081 1 149.00000 418.400000
11545 700 12772 1 149.00000 418.400000
11546 701 12957 1 149.00000 418.400000
11546 702 14314 1 149.00000 418.400000
11546 703 14560 1 149.00000 418.400000
11547 704 12502 1 149.00000 418.400000
11547 705 14088 1 149.00000 418.400000
11547 706 14165 1 149.00000 418.400000
11547 707 13430 1 149.00000 418.400000
11548 708 16049 1 149.00000 418.400000
11548 709 12725 1 149.00000 418.400000
11548 710 14694 1 149.00000 418.400000
11548 711 13363 1 149.00000 418.400000
11549 712 16595 1 149.00000 418.400000
11549 713 14561 1 149.00000 418.400000
11549 714 14670 1 149.00000 418.400000
14670 715 15108 1 149.00000 418.400000
13351 716 15472 1 149.00000 418.400000
11550 717 15472 1 149.00000 418.400000
11550 718 20746 1 149.00000 418.400000
11551 719 15139 1 149.00000 418.400000
11551 720 12285 1 149.00000 418.400000
11551 721 16215 1 149.00000 418.400000
14345 722 20662 1 149.00000 418.400000
11587 723 14019 1 149.00000 418.400000
14019 724 14345 1 149.00000 418.400000
11552 725 13699 1 149.00000 418.400000
11552 726 13583 1 149.00000 418.400000
11552 727 12399 1 149.00000 418.400000
11552 728 12966 1 149.00000 418.400000
11553 729 12273 1 149.00000 418.400000
11553 730 16025 1 149.00000 418.400000
11553 731 16256 1 149.00000 418.400000
11553 732 12695 1 149.00000 418.400000
11554 733 15602 1 149.00000 418.400000
11554 734 12074 1 149.00000 418.400000
11554 735 16284 1 149.00000 418.400000
11554 736 14804 1 149.00000 418.400000
11555 737 15688 1 149.00000 418.400000
11555 738 12389 1 149.00000 418.400000
11555 739 12384 1 149.00000 418.400000
11555 740 12521 1 149.00000 418.400000
11556 741 21271 1 149.00000 418.400000
11556 742 12906 1 149.00000 418.400000
11556 743 14811 1 149.00000 418.400000
11556 744 21547 1 149.00000 418.400000
11557 745 12294 1 149.00000 418.400000
11557 746 13602 1 149.00000 418.400000
11557 747 14150 1 149.00000 418.400000
11557 748 14901 1 149.00000 418.400000
11558 749 15421 1 149.00000 418.400000
11558 750 14773 1 149.00000 418.400000
11558 751 15300 1 149.00000 418.400000
11558 752 13542 1 149.00000 418.400000
11559 753 12612 1 149.00000 418.400000
11559 754 12595 1 149.00000 418.400000
11559 755 12297 1 149.00000 418.400000
11559 756 12044 1 149.00000 418.400000
11560 757 12534 1 149.00000 418.400000
11560 758 11654 1 149.00000 418.400000
11560 759 12931 1 149.00000 418.400000
11541 760 11560 1 149.00000 418.400000
11561 761 13065 1 149.00000 418.400000
11561 762 13030 1 149.00000 418.400000
11561 763 15013 1 149.00000 418.400000
11561 764 15768 1 149.00000 418.400000
11562 765 13902 1 149.00000 418.400000
11562 766 14511 1 149.00000 418.400000
11562 767 14002 1 149.00000 418.400000
11562 768 14705 1 149.00000 418.400000
11563 769 12045 1 149.00000 418.400000
11458 770 11563 1 149.00000 418.400000
11563 771 14136 1 149.00000 418.400000
11563 772 14684 1 149.00000 418.400000
11564 773 13573 1 149.00000 418.400000
11564 774 15299 1 149.00000 418.400000
11564 775 17148 1 149.00000 418.400000
11565 776 15997 1 149.00000 418.400000
11565 777 13819 1 149.00000 418.400000
13819 778 14423 1 149.00000 418.400000
11566 779 15393 1 149.00000 418.400000
11566 780 13828 1 149.00000 418.400000
11566 781 12472 1 149.00000 418.400000
11566 782 16411 1 149.00000 418.400000
18526 783 21688 1 149.00000 418.400000
12272 784 18526 1 149.00000 418.400000
18526 785 19174 1 149.00000 418.400000
11567 786 14401 1 149.00000 418.400000
11567 787 13244 1 149.00000 418.400000
11567 788 14281 1 149.00000 418.400000
11567 789 16054 1 149.00000 418.400000
11568 790 16351 1 149.00000 418.400000
11568 791 16163 1 149.00000 418.400000
11568 792 20266 1 149.00000 418.400000
14479 793 21751 1 149.00000 418.400000
11569 794 15429 1 149.00000 418.400000
11569 795 15963 1 149.00000 418.400000
11569 796 12583 1 149.00000 418.400000
12663 797 20602 1 149.00000 418.400000
14100 798 20602 1 149.00000 418.400000
14252 799 20602 1 149.00000 418.400000
11570 800 13043 1 149.00000 418.400000
11570 801 21331 1 149.00000 418.400000
11571 802 15711 1 149.00000 418.400000
11571 803 15266 1 149.00000 418.400000
11571 804 12821 1 149.00000 418.400000
11571 805 13654 1 149.00000 418.400000
11572 806 11893 1 149.00000 418.400000
11572 807 16203 1 149.00000 418.400000
11572 808 13199 1 149.00000 418.400000
11893 809 14031 1 149.00000 418.400000
14812 810 15832 1 149.00000 418.400000
11799 811 15832 1 149.00000 418.400000
15832 812 16252 1 149.00000 418.400000
11573 813 15832 1 149.00000 418.400000
11574 814 21784 1 149.00000 418.400000
11574 815 21505 1 149.00000 418.400000
11574 816 13891 1 149.00000 418.400000
11574 817 16367 1 149.00000 418.400000
11575 818 13185 1 149.00000 418.400000
11575 819 16149 1 149.00000 418.400000
11575 820 14851 1 149.00000 418.400000
11575 821 15235 1 149.00000 418.400000
11576 822 12328 1 149.00000 418.400000
11576 823 13525 1 149.00000 418.400000
11576 824 16452 1 149.00000 418.400000
11577 825 16420 1 149.00000 418.400000
15958 826 16420 1 149.00000 418.400000
11577 827 15422 1 149.00000 418.400000
11577 828 12062 1 149.00000 418.400000
11578 829 15085 1 149.00000 418.400000
11578 830 14254 1 149.00000 418.400000
11578 831 14504 1 149.00000 418.400000
11578 832 14140 1 149.00000 418.400000
11579 833 16213 1 149.00000 418.400000
11579 834 16164 1 149.00000 418.400000
11579 835 15719 1 149.00000 418.400000
11579 836 15940 1 149.00000 418.400000
17736 837 19882 1 149.00000 418.400000
19882 838 21511 1 149.00000 418.400000
15782 839 19882 1 149.00000 418.400000
21130 840 21361 1 149.00000 418.400000
11580 841 12687 1 149.00000 418.400000
11580 842 16258 1 149.00000 418.400000
11573 843 11580 1 149.00000 418.400000
11580 844 14728 1 149.00000 418.400000
17512 845 20110 1 149.00000 418.400000
11581 846 14717 1 149.00000 418.400000
11581 847 12024 1 149.00000 418.400000
11581 848 12812 1 149.00000 418.400000
11582 849 14313 1 149.00000 418.400000
11540 850 13138 1 149.00000 418.400000
11582 851 15359 1 149.00000 418.400000
11583 852 16021 1 149.00000 418.400000
11583 853 21814 1 149.00000 418.400000
11583 854 11900 1 149.00000 418.400000
11583 855 12309 1 149.00000 418.400000
11584 856 11636 1 149.00000 418.400000
11584 857 14481 1 149.00000 418.400000
11584 858 12846 1 149.00000 418.400000
11584 859 15846 1 149.00000 418.400000
11585 860 14841 1 149.00000 418.400000
11585 861 12817 1 149.00000 418.400000
11585 862 16339 1 149.00000 418.400000
11585 863 16388 1 149.00000 418.400000
11586 864 21445 1 149.00000 418.400000
11586 865 11616 1 149.00000 418.400000
11616 866 15142 1 149.00000 418.400000
11586 867 16510 1 149.00000 418.400000
11587 868 13521 1 149.00000 418.400000
11587 869 11630 1 149.00000 418.400000
11587 870 13250 1 149.00000 418.400000
11588 871 12846 1 149.00000 418.400000
11588 872 13652 1 149.00000 418.400000
11588 873 15297 1 149.00000 418.400000
11588 874 15735 1 149.00000 418.400000
11589 875 12042 1 149.00000 418.400000
11589 876 12123 1 149.00000 418.400000
11589 877 15558 1 149.00000 418.400000
11589 878 13140 1 149.00000 418.400000
11590 879 16065 1 149.00000 418.400000
11590 880 15349 1 149.00000 418.400000
11590 881 14555 1 149.00000 418.400000
11590 882 12413 1 149.00000 418.400000
11591 883 13467 1 149.00000 418.400000
11591 884 15427 1 149.00000 418.400000
11591 885 15275 1 149.00000 418.400000
11591 886 14508 1 149.00000 418.400000
11592 887 14028 1 149.00000 418.400000
11592 888 14405 1 149.00000 418.400000
11592 889 12690 1 149.00000 418.400000
11593 890 14574 1 149.00000 418.400000
11593 891 13619 1 149.00000 418.400000
11593 892 16186 1 149.00000 418.400000
11593 893 12573 1 149.00000 418.400000
11594 894 11679 1 149.00000 418.400000
12435 895 19246 1 149.00000 418.400000
11679 896 15670 1 149.00000 418.400000
12435 897 14895 1 149.00000 418.400000
11595 898 14062 1 149.00000 418.400000
11595 899 13755 1 149.00000 418.400000
11595 900 12180 1 149.00000 418.400000
11595 901 16040 1 149.00000 418.400000
12138 902 12878 1 149.00000 418.400000
12281 903 12878 1 149.00000 418.400000
11596 904 12878 1 149.00000 418.400000
12878 905 14693 1 149.00000 418.400000
12114 906 14438 1 149.00000 418.400000
11597 907 15501 1 149.00000 418.400000
11597 908 15352 1 149.00000 418.400000
11597 909 14438 1 149.00000 418.400000
11598 910 15460 1 149.00000 418.400000
11598 911 12077 1 149.00000 418.400000
11598 912 16230 1 149.00000 418.400000
11598 913 16122 1 149.00000 418.400000
11599 914 15627 1 149.00000 418.400000
11599 915 13293 1 149.00000 418.400000
11599 916 15362 1 149.00000 418.400000
11599 917 14651 1 149.00000 418.400000
11600 918 12155 1 149.00000 418.400000
11600 919 16080 1 149.00000 418.400000
11600 920 16427 1 149.00000 418.400000
11601 921 15346 1 149.00000 418.400000
11601 922 13975 1 149.00000 418.400000
11601 923 12980 1 149.00000 418.400000
11601 924 11857 1 149.00000 418.400000
11602 925 11611 1 149.00000 418.400000
11602 926 13858 1 149.00000 418.400000
11602 927 11916 1 149.00000 418.400000
11602 928 16294 1 149.00000 418.400000
11603 929 15766 1 149.00000 418.400000
11603 930 15105 1 149.00000 418.400000
11603 931 13721 1 149.00000 418.400000
11603 932 15498 1 149.00000 418.400000
11604 933 13755 1 149.00000 418.400000
11604 934 16363 1 149.00000 418.400000
11604 935 13340 1 149.00000 418.400000
11604 936 14806 1 149.00000 418.400000
11605 937 21817 1 149.00000 418.400000
11605 938 16147 1 149.00000 418.400000
11605 939 13125 1 149.00000 418.400000
11605 940 21964 1 149.00000 418.400000
11606 941 11662 1 149.00000 418.400000
11606 942 15845 1 149.00000 418.400000
11606 943 20998 1 149.00000 418.400000
11606 944 14632 1 149.00000 418.400000
11607 945 15512 1 149.00000 418.400000
11607 946 11774 1 149.00000 418.400000
11607 947 16462 1 149.00000 418.400000
11607 948 16617 1 149.00000 418.400000
11696 949 14792 1 149.00000 418.400000
11608 950 12334 1 149.00000 418.400000
11608 951 14792 1 149.00000 418.400000
11608 952 13663 1 149.00000 418.400000
11609 953 11625 1 149.00000 418.400000
11609 954 13513 1 149.00000 418.400000
11609 955 12678 1 149.00000 418.400000
11609 956 15362 1 149.00000 418.400000
11610 957 11674 1 149.00000 418.400000
11610 958 12355 1 149.00000 418.400000
11674 959 13448 1 149.00000 418.400000
12355 960 12704 1 149.00000 418.400000
11611 961 15544 1 149.00000 418.400000
11611 962 14625 1 149.00000 418.400000
11611 963 14522 1 149.00000 418.400000
16148 964 21217 1 149.00000 418.400000
13267 965 21217 1 149.00000 418.400000
11612 966 12846 1 149.00000 418.400000
11612 967 14171 1 149.00000 418.400000
11612 968 14655 1 149.00000 418.400000
11612 969 16333 1 149.00000 418.400000
11613 970 15824 1 149.00000 418.400000
11613 971 11892 1 149.00000 418.400000
11613 972 12230 1 149.00000 418.400000
11613 973 11804 1 149.00000 418.400000
11614 974 14692 1 149.00000 418.400000
11614 975 14065 1 149.00000 418.400000
11614 976 15931 1 149.00000 418.400000
11614 977 14681 1 149.00000 418.400000
16338 978 19894 1 149.00000 418.400000
15302 979 19894 1 149.00000 418.400000
19894 980 20734 1 149.00000 418.400000
11615 981 14912 1 149.00000 418.400000
12063 982 14912 1 149.00000 418.400000
11615 983 12217 1 149.00000 418.400000
11615 984 11732 1 149.00000 418.400000
11911 985 18086 1 149.00000 418.400000
11586 986 12404 1 149.00000 418.400000
11616 987 12789 1 149.00000 418.400000
11616 988 15701 1 149.00000 418.400000
11617 989 16415 1 149.00000 418.400000
11617 990 16604 1 149.00000 418.400000
11617 991 21757 1 149.00000 418.400000
11617 992 11654 1 149.00000 418.400000
11618 993 13353 1 149.00000 418.400000
11618 994 16434 1 149.00000 418.400000
11618 995 11786 1 149.00000 418.400000
11619 996 16544 1 149.00000 418.400000
11619 997 16396 1 149.00000 418.400000
11619 998 16062 1 149.00000 418.400000
11619 999 12539 1 149.00000 418.400000
11620 1000 13216 1 149.00000 418.400000
11620 1001 16483 1 149.00000 418.400000
11620 1002 16159 1 149.00000 418.400000
11620 1003 15364 1 149.00000 418.400000
11621 1004 12339 1 149.00000 418.400000
11621 1005 12042 1 149.00000 418.400000
11621 1006 14896 1 149.00000 418.400000
11621 1007 14230 1 149.00000 418.400000
11622 1008 11653 1 149.00000 418.400000
11622 1009 15310 1 149.00000 418.400000
14973 1010 15320 1 149.00000 418.400000
11622 1011 14973 1 149.00000 418.400000
11623 1012 14625 1 149.00000 418.400000
11623 1013 15678 1 149.00000 418.400000
11623 1014 16294 1 149.00000 418.400000
11623 1015 12562 1 149.00000 418.400000
11624 1016 11902 1 149.00000 418.400000
11624 1017 15937 1 149.00000 418.400000
11624 1018 14024 1 149.00000 418.400000
11624 1019 12425 1 149.00000 418.400000
11625 1020 13214 1 149.00000 418.400000
11625 1021 21760 1 149.00000 418.400000
11625 1022 21286 1 149.00000 418.400000
11626 1023 15734 1 149.00000 418.400000
11626 1024 16130 1 149.00000 418.400000
11626 1025 13194 1 149.00000 418.400000
11626 1026 16290 1 149.00000 418.400000
11627 1027 12092 1 149.00000 418.400000
11627 1028 12194 1 149.00000 418.400000
11627 1029 15502 1 149.00000 418.400000
11596 1030 11628 1 149.00000 418.400000
11628 1031 15838 1 149.00000 418.400000
11628 1032 14676 1 149.00000 418.400000
11628 1033 15367 1 149.00000 418.400000
19906 1034 20890 1 149.00000 418.400000
14162 1035 20890 1 149.00000 418.400000
15272 1036 20806 1 149.00000 418.400000
15272 1037 21844 1 149.00000 418.400000
13096 1038 15272 1 149.00000 418.400000
11629 1039 15272 1 149.00000 418.400000
11630 1040 20086 1 149.00000 418.400000
11630 1041 15194 1 149.00000 418.400000
11630 1042 11631 1 149.00000 418.400000
11631 1043 14732 1 149.00000 418.400000
11631 1044 16812 1 149.00000 418.400000
11632 1045 15290 1 149.00000 418.400000
11632 1046 15821 1 149.00000 418.400000
11632 1047 11701 1 149.00000 418.400000
11632 1048 15359 1 149.00000 418.400000
11633 1049 15138 1 149.00000 418.400000
11633 1050 15690 1 149.00000 418.400000
11633 1051 14646 1 149.00000 418.400000
11634 1052 11770 1 149.00000 418.400000
11634 1053 15597 1 149.00000 418.400000
11634 1054 15304 1 149.00000 418.400000
11634 1055 12563 1 149.00000 418.400000
11635 1056 11821 1 149.00000 418.400000
11635 1057 15946 1 149.00000 418.400000
11635 1058 14399 1 149.00000 418.400000
11635 1059 15345 1 149.00000 418.400000
11636 1060 15741 1 149.00000 418.400000
11636 1061 15477 1 149.00000 418.400000
12897 1062 15741 1 149.00000 418.400000
13247 1063 13464 1 149.00000 418.400000
11637 1064 13247 1 149.00000 418.400000
13247 1065 14829 1 149.00000 418.400000
11638 1066 13737 1 149.00000 418.400000
11638 1067 14589 1 149.00000 418.400000
11638 1068 14616 1 149.00000 418.400000
11638 1069 12356 1 149.00000 418.400000
11639 1070 15916 1 149.00000 418.400000
11639 1071 16503 1 149.00000 418.400000
11639 1072 15032 1 149.00000 418.400000
11640 1073 20806 1 149.00000 418.400000
11640 1074 16612 1 149.00000 418.400000
11640 1075 15246 1 149.00000 418.400000
11640 1076 14765 1 149.00000 418.400000
11641 1077 13589 1 149.00000 418.400000
11641 1078 13873 1 149.00000 418.400000
11641 1079 16468 1 149.00000 418.400000
11641 1080 15230 1 149.00000 418.400000
11642 1081 15769 1 149.00000 418.400000
11642 1082 12638 1 149.00000 418.400000
11642 1083 21940 1 149.00000 418.400000
11642 1084 14493 1 149.00000 418.400000
11643 1085 13413 1 149.00000 418.400000
11643 1086 12464 1 149.00000 418.400000
11643 1087 14075 1 149.00000 418.400000
11643 1088 13073 1 149.00000 418.400000
11644 1089 14116 1 149.00000 418.400000
11644 1090 14753 1 149.00000 418.400000
11644 1091 13131 1 149.00000 418.400000
11644 1092 16208 1 149.00000 418.400000
11645 1093 13106 1 149.00000 418.400000
11645 1094 14234 1 149.00000 418.400000
11645 1095 16271 1 149.00000 418.400000
11646 1096 14255 1 149.00000 418.400000
11646 1097 13230 1 149.00000 418.400000
11646 1098 14315 1 149.00000 418.400000
11646 1099 12720 1 149.00000 418.400000
11647 1100 13084 1 149.00000 418.400000
11647 1101 13123 1 149.00000 418.400000
11647 1102 15137 1 149.00000 418.400000
11647 1103 16467 1 149.00000 418.400000
11648 1104 15970 1 149.00000 418.400000
11648 1105 14899 1 149.00000 418.400000
11648 1106 16578 1 149.00000 418.400000
11649 1107 12155 1 149.00000 418.400000
12155 1108 16405 1 149.00000 418.400000
12155 1109 13295 1 149.00000 418.400000
21220 1110 21544 1 149.00000 418.400000
13431 1111 21220 1 149.00000 418.400000
21220 1112 21919 1 149.00000 418.400000
11650 1113 16375 1 149.00000 418.400000
14502 1114 16375 1 149.00000 418.400000
11650 1115 15350 1 149.00000 418.400000
11650 1116 11767 1 149.00000 418.400000
11651 1117 13768 1 149.00000 418.400000
11651 1118 12316 1 149.00000 418.400000
11651 1119 15615 1 149.00000 418.400000
11651 1120 20878 1 149.00000 418.400000
11652 1121 13132 1 149.00000 418.400000
11652 1122 15712 1 149.00000 418.400000
11652 1123 12303 1 149.00000 418.400000
11652 1124 15221 1 149.00000 418.400000
11653 1125 15986 1 149.00000 418.400000
11653 1126 15515 1 149.00000 418.400000
11653 1127 16255 1 149.00000 418.400000
11654 1128 11963 1 149.00000 418.400000
11654 1129 12866 1 149.00000 418.400000
11655 1130 15506 1 149.00000 418.400000
11509 1131 15113 1 149.00000 418.400000
11655 1132 15159 1 149.00000 418.400000
11656 1133 13911 1 149.00000 418.400000
11656 1134 12353 1 149.00000 418.400000
11656 1135 13958 1 149.00000 418.400000
11656 1136 13870 1 149.00000 418.400000
15831 1137 21607 1 149.00000 418.400000
11657 1138 15370 1 149.00000 418.400000
11657 1139 12745 1 149.00000 418.400000
11657 1140 15432 1 149.00000 418.400000
11657 1141 11825 1 149.00000 418.400000
11658 1142 12103 1 149.00000 418.400000
11658 1143 11672 1 149.00000 418.400000
11658 1144 13229 1 149.00000 418.400000
11658 1145 13482 1 149.00000 418.400000
11659 1146 16419 1 149.00000 418.400000
11659 1147 12847 1 149.00000 418.400000
11659 1148 21451 1 149.00000 418.400000
11659 1149 15897 1 149.00000 418.400000
11660 1150 13563 1 149.00000 418.400000
13563 1151 14027 1 149.00000 418.400000
11660 1152 12353 1 149.00000 418.400000
11661 1153 16528 1 149.00000 418.400000
11661 1154 20842 1 149.00000 418.400000
11661 1155 14746 1 149.00000 418.400000
11661 1156 14989 1 149.00000 418.400000
11662 1157 16116 1 149.00000 418.400000
11662 1158 11949 1 149.00000 418.400000
11662 1159 14865 1 149.00000 418.400000
13061 1160 15651 1 149.00000 418.400000
11663 1161 12044 1 149.00000 418.400000
11663 1162 13061 1 149.00000 418.400000
13061 1163 13389 1 149.00000 418.400000
11664 1164 14284 1 149.00000 418.400000
11664 1165 16319 1 149.00000 418.400000
11664 1166 13591 1 149.00000 418.400000
11664 1167 13953 1 149.00000 418.400000
11665 1168 16425 1 149.00000 418.400000
11665 1169 15056 1 149.00000 418.400000
11665 1170 20482 1 149.00000 418.400000
11665 1171 21538 1 149.00000 418.400000
11666 1172 13913 1 149.00000 418.400000
11666 1173 14918 1 149.00000 418.400000
11666 1174 12820 1 149.00000 418.400000
11666 1175 14116 1 149.00000 418.400000
11667 1176 15908 1 149.00000 418.400000
11667 1177 14350 1 149.00000 418.400000
11667 1178 15923 1 149.00000 418.400000
16036 1179 19354 1 149.00000 418.400000
17260 1180 19354 1 149.00000 418.400000
11668 1181 15208 1 149.00000 418.400000
11668 1182 14351 1 149.00000 418.400000
11668 1183 16030 1 149.00000 418.400000
11668 1184 15430 1 149.00000 418.400000
11669 1185 13790 1 149.00000 418.400000
11669 1186 12090 1 149.00000 418.400000
11669 1187 11778 1 149.00000 418.400000
11669 1188 16398 1 149.00000 418.400000
11670 1189 13035 1 149.00000 418.400000
11670 1190 16311 1 149.00000 418.400000
11670 1191 14559 1 149.00000 418.400000
13035 1192 14377 1 149.00000 418.400000
11671 1193 13975 1 149.00000 418.400000
11671 1194 13808 1 149.00000 418.400000
11671 1195 11909 1 149.00000 418.400000
11671 1196 12826 1 149.00000 418.400000
11429 1197 11672 1 149.00000 418.400000
11672 1198 16102 1 149.00000 418.400000
13564 1199 14814 1 149.00000 418.400000
11673 1200 14309 1 149.00000 418.400000
11673 1201 13564 1 149.00000 418.400000
11673 1202 14844 1 149.00000 418.400000
11610 1203 12549 1 149.00000 418.400000
11674 1204 12796 1 149.00000 418.400000
11674 1205 12778 1 149.00000 418.400000
11675 1206 12104 1 149.00000 418.400000
11675 1207 14456 1 149.00000 418.400000
11676 1208 15020 1 149.00000 418.400000
11676 1209 13828 1 149.00000 418.400000
11676 1210 13514 1 149.00000 418.400000
11677 1211 13957 1 149.00000 418.400000
11447 1212 11677 1 149.00000 418.400000
11677 1213 15331 1 149.00000 418.400000
11677 1214 12465 1 149.00000 418.400000
11678 1215 16280 1 149.00000 418.400000
11678 1216 12098 1 149.00000 418.400000
11678 1217 14795 1 149.00000 418.400000
11678 1218 11728 1 149.00000 418.400000
11679 1219 14460 1 149.00000 418.400000
11594 1220 15643 1 149.00000 418.400000
11679 1221 15984 1 149.00000 418.400000
11680 1222 15730 1 149.00000 418.400000
11680 1223 12490 1 149.00000 418.400000
11680 1224 19078 1 149.00000 418.400000
11681 1225 11702 1 149.00000 418.400000
11681 1226 15159 1 149.00000 418.400000
11681 1227 16293 1 149.00000 418.400000
11681 1228 13053 1 149.00000 418.400000
11682 1229 13840 1 149.00000 418.400000
11682 1230 16262 1 149.00000 418.400000
11682 1231 16285 1 149.00000 418.400000
11682 1232 13133 1 149.00000 418.400000
11683 1233 14849 1 149.00000 418.400000
11683 1234 15318 1 149.00000 418.400000
11683 1235 13218 1 149.00000 418.400000
11683 1236 14744 1 149.00000 418.400000
19378 1237 21685 1 149.00000 418.400000
15657 1238 19378 1 149.00000 418.400000
13639 1239 19378 1 149.00000 418.400000
11684 1240 21661 1 149.00000 418.400000
11684 1241 13509 1 149.00000 418.400000
11684 1242 12809 1 149.00000 418.400000
11685 1243 15111 1 149.00000 418.400000
11685 1244 15689 1 149.00000 418.400000
11685 1245 16054 1 149.00000 418.400000
11686 1246 13897 1 149.00000 418.400000
11686 1247 11844 1 149.00000 418.400000
11686 1248 15264 1 149.00000 418.400000
11686 1249 14107 1 149.00000 418.400000
11687 1250 15636 1 149.00000 418.400000
11687 1251 12908 1 149.00000 418.400000
11687 1252 12459 1 149.00000 418.400000
11687 1253 14283 1 149.00000 418.400000
11688 1254 14235 1 149.00000 418.400000
11688 1255 14034 1 149.00000 418.400000
11688 1256 11739 1 149.00000 418.400000
11688 1257 16222 1 149.00000 418.400000
11816 1258 12801 1 149.00000 418.400000
11689 1259 20914 1 149.00000 418.400000
11689 1260 16236 1 149.00000 418.400000
11689 1261 13208 1 149.00000 418.400000
11689 1262 16504 1 149.00000 418.400000
11690 1263 16559 1 149.00000 418.400000
11690 1264 15556 1 149.00000 418.400000
11690 1265 12348 1 149.00000 418.400000
11691 1266 13634 1 149.00000 418.400000
11691 1267 15389 1 149.00000 418.400000
11691 1268 13751 1 149.00000 418.400000
11691 1269 14252 1 149.00000 418.400000
11692 1270 14543 1 149.00000 418.400000
11692 1271 16616 1 149.00000 418.400000
11692 1272 13930 1 149.00000 418.400000
11692 1273 12428 1 149.00000 418.400000
11693 1274 16339 1 149.00000 418.400000
11693 1275 13153 1 149.00000 418.400000
11693 1276 13765 1 149.00000 418.400000
11693 1277 13151 1 149.00000 418.400000
11694 1278 12459 1 149.00000 418.400000
11694 1279 12168 1 149.00000 418.400000
11694 1280 14187 1 149.00000 418.400000
11694 1281 15639 1 149.00000 418.400000
11695 1282 14825 1 149.00000 418.400000
11695 1283 14960 1 149.00000 418.400000
12253 1284 16453 1 149.00000 418.400000
11695 1285 16453 1 149.00000 418.400000
14913 1286 21223 1 149.00000 418.400000
14913 1287 16490 1 149.00000 418.400000
12800 1288 21223 1 149.00000 418.400000
11696 1289 13345 1 149.00000 418.400000
11696 1290 14856 1 149.00000 418.400000
11696 1291 21535 1 149.00000 418.400000
11697 1292 15661 1 149.00000 418.400000
11697 1293 16053 1 149.00000 418.400000
11697 1294 15903 1 149.00000 418.400000
11697 1295 16458 1 149.00000 418.400000
11698 1296 15557 1 149.00000 418.400000
11698 1297 15087 1 149.00000 418.400000
11698 1298 12030 1 149.00000 418.400000
11699 1299 11812 1 149.00000 418.400000
11699 1300 16016 1 149.00000 418.400000
11699 1301 12218 1 149.00000 418.400000
11699 1302 12702 1 149.00000 418.400000
11700 1303 15193 1 149.00000 418.400000
14309 1304 16075 1 149.00000 418.400000
11700 1305 14309 1 149.00000 418.400000
11700 1306 15973 1 149.00000 418.400000
11701 1307 14672 1 149.00000 418.400000
11701 1308 11758 1 149.00000 418.400000
11701 1309 12811 1 149.00000 418.400000
11702 1310 16120 1 149.00000 418.400000
11702 1311 14431 1 149.00000 418.400000
11629 1312 11702 1 149.00000 418.400000
11703 1313 12031 1 149.00000 418.400000
11703 1314 16375 1 149.00000 418.400000
11703 1315 13372 1 149.00000 418.400000
11703 1316 12163 1 149.00000 418.400000
11704 1317 12829 1 149.00000 418.400000
11704 1318 14591 1 149.00000 418.400000
11704 1319 16293 1 149.00000 418.400000
11704 1320 14431 1 149.00000 418.400000
11705 1321 14543 1 149.00000 418.400000
11705 1322 14560 1 149.00000 418.400000
11705 1323 16114 1 149.00000 418.400000
11705 1324 12002 1 149.00000 418.400000
11706 1325 21292 1 149.00000 418.400000
11706 1326 14759 1 149.00000 418.400000
11706 1327 17218 1 149.00000 418.400000
11706 1328 14334 1 149.00000 418.400000
11707 1329 12911 1 149.00000 418.400000
12911 1330 21712 1 149.00000 418.400000
11707 1331 12452 1 149.00000 418.400000
11708 1332 15480 1 149.00000 418.400000
11708 1333 15204 1 149.00000 418.400000
11708 1334 14382 1 149.00000 418.400000
11708 1335 13751 1 149.00000 418.400000
11709 1336 14046 1 149.00000 418.400000
11709 1337 15552 1 149.00000 418.400000
11709 1338 12543 1 149.00000 418.400000
11709 1339 14271 1 149.00000 418.400000
11710 1340 15841 1 149.00000 418.400000
11710 1341 13649 1 149.00000 418.400000
11710 1342 16114 1 149.00000 418.400000
11711 1343 11878 1 149.00000 418.400000
11711 1344 11794 1 149.00000 418.400000
11712 1345 12419 1 149.00000 418.400000
11712 1346 11907 1 149.00000 418.400000
11712 1347 14322 1 149.00000 418.400000
11712 1348 16341 1 149.00000 418.400000
13543 1349 15714 1 149.00000 418.400000
13543 1350 15418 1 149.00000 418.400000
11713 1351 13543 1 149.00000 418.400000
15311 1352 15418 1 149.00000 418.400000
11714 1353 14127 1 149.00000 418.400000
15157 1354 15252 1 149.00000 418.400000
11714 1355 16318 1 149.00000 418.400000
11714 1356 15157 1 149.00000 418.400000
12204 1357 15910 1 149.00000 418.400000
11715 1358 15417 1 149.00000 418.400000
12204 1359 14471 1 149.00000 418.400000
11715 1360 12204 1 149.00000 418.400000
11716 1361 16363 1 149.00000 418.400000
11716 1362 15896 1 149.00000 418.400000
11716 1363 13803 1 149.00000 418.400000
11716 1364 11856 1 149.00000 418.400000
11717 1365 14045 1 149.00000 418.400000
11717 1366 12173 1 149.00000 418.400000
11717 1367 15021 1 149.00000 418.400000
11717 1368 13683 1 149.00000 418.400000
11718 1369 13109 1 149.00000 418.400000
11718 1370 14782 1 149.00000 418.400000
11718 1371 14101 1 149.00000 418.400000
11718 1372 11883 1 149.00000 418.400000
11719 1373 12139 1 149.00000 418.400000
11719 1374 13654 1 149.00000 418.400000
11719 1375 15340 1 149.00000 418.400000
11720 1376 12840 1 149.00000 418.400000
11720 1377 15651 1 149.00000 418.400000
11720 1378 14378 1 149.00000 418.400000
11720 1379 12456 1 149.00000 418.400000
14642 1380 18598 1 149.00000 418.400000
18598 1381 19198 1 149.00000 418.400000
17162 1382 18598 1 149.00000 418.400000
11721 1383 15017 1 149.00000 418.400000
11721 1384 16259 1 149.00000 418.400000
11721 1385 15619 1 149.00000 418.400000
11721 1386 14780 1 149.00000 418.400000
12893 1387 21226 1 149.00000 418.400000
14691 1388 21226 1 149.00000 418.400000
15789 1389 21226 1 149.00000 418.400000
11722 1390 15141 1 149.00000 418.400000
11722 1391 13371 1 149.00000 418.400000
11722 1392 13264 1 149.00000 418.400000
11722 1393 12613 1 149.00000 418.400000
11723 1394 15251 1 149.00000 418.400000
11723 1395 13626 1 149.00000 418.400000
11723 1396 12334 1 149.00000 418.400000
11723 1397 14856 1 149.00000 418.400000
11724 1398 14158 1 149.00000 418.400000
11724 1399 12959 1 149.00000 418.400000
11724 1400 14489 1 149.00000 418.400000
11724 1401 13674 1 149.00000 418.400000
11725 1402 15036 1 149.00000 418.400000
14062 1403 16072 1 149.00000 418.400000
11725 1404 13656 1 149.00000 418.400000
11725 1405 14062 1 149.00000 418.400000
12241 1406 21229 1 149.00000 418.400000
18718 1407 21229 1 149.00000 418.400000
15436 1408 21229 1 149.00000 418.400000
12221 1409 15112 1 149.00000 418.400000
11726 1410 15112 1 149.00000 418.400000
11726 1411 15731 1 149.00000 418.400000
11726 1412 15248 1 149.00000 418.400000
11727 1413 14659 1 149.00000 418.400000
11727 1414 16742 1 149.00000 418.400000
11728 1415 16368 1 149.00000 418.400000
11728 1416 11851 1 149.00000 418.400000
11728 1417 14748 1 149.00000 418.400000
11729 1418 15375 1 149.00000 418.400000
11729 1419 15950 1 149.00000 418.400000
11729 1420 13195 1 149.00000 418.400000
11729 1421 13215 1 149.00000 418.400000
11730 1422 13659 1 149.00000 418.400000
11730 1423 12408 1 149.00000 418.400000
11730 1424 12675 1 149.00000 418.400000
11730 1425 15555 1 149.00000 418.400000
11731 1426 12922 1 149.00000 418.400000
11731 1427 12913 1 149.00000 418.400000
11731 1428 16581 1 149.00000 418.400000
11731 1429 14571 1 149.00000 418.400000
11732 1430 15177 1 149.00000 418.400000
11732 1431 14121 1 149.00000 418.400000
11732 1432 15189 1 149.00000 418.400000
11733 1433 13256 1 149.00000 418.400000
11733 1434 12038 1 149.00000 418.400000
11733 1435 15309 1 149.00000 418.400000
11734 1436 15882 1 149.00000 418.400000
11734 1437 13719 1 149.00000 418.400000
11734 1438 15685 1 149.00000 418.400000
11734 1439 12264 1 149.00000 418.400000
11735 1440 13911 1 149.00000 418.400000
11735 1441 15022 1 149.00000 418.400000
11735 1442 16329 1 149.00000 418.400000
15903 1443 21232 1 149.00000 418.400000
21232 1444 21901 1 149.00000 418.400000
11736 1445 14383 1 149.00000 418.400000
11736 1446 16364 1 149.00000 418.400000
11736 1447 16620 1 149.00000 418.400000
11736 1448 12933 1 149.00000 418.400000
16459 1449 21235 1 149.00000 418.400000
18058 1450 21235 1 149.00000 418.400000
11737 1451 12689 1 149.00000 418.400000
11737 1452 15892 1 149.00000 418.400000
11737 1453 14580 1 149.00000 418.400000
11738 1454 14465 1 149.00000 418.400000
11738 1455 17092 1 149.00000 418.400000
11738 1456 15552 1 149.00000 418.400000
11739 1457 13795 1 149.00000 418.400000
11739 1458 16428 1 149.00000 418.400000
11739 1459 16341 1 149.00000 418.400000
12509 1460 15249 1 149.00000 418.400000
11740 1461 14988 1 149.00000 418.400000
11740 1462 15888 1 149.00000 418.400000
13909 1463 15125 1 149.00000 418.400000
11741 1464 14662 1 149.00000 418.400000
11741 1465 14299 1 149.00000 418.400000
11741 1466 14336 1 149.00000 418.400000
11741 1467 15128 1 149.00000 418.400000
12119 1468 16116 1 149.00000 418.400000
12461 1469 14191 1 149.00000 418.400000
12119 1470 20242 1 149.00000 418.400000
12461 1471 20242 1 149.00000 418.400000
11742 1472 12264 1 149.00000 418.400000
11742 1473 13372 1 149.00000 418.400000
11742 1474 12635 1 149.00000 418.400000
11742 1475 13149 1 149.00000 418.400000
17330 1476 21553 1 149.00000 418.400000
14436 1477 17330 1 149.00000 418.400000
11743 1478 15039 1 149.00000 418.400000
11743 1479 15924 1 149.00000 418.400000
11743 1480 15285 1 149.00000 418.400000
11743 1481 17036 1 149.00000 418.400000
11744 1482 14238 1 149.00000 418.400000
11744 1483 15506 1 149.00000 418.400000
11744 1484 12164 1 149.00000 418.400000
11744 1485 15912 1 149.00000 418.400000
11745 1486 14190 1 149.00000 418.400000
11745 1487 15484 1 149.00000 418.400000
11745 1488 16026 1 149.00000 418.400000
11745 1489 15027 1 149.00000 418.400000
11746 1490 13539 1 149.00000 418.400000
11746 1491 13837 1 149.00000 418.400000
11746 1492 12209 1 149.00000 418.400000
11746 1493 14896 1 149.00000 418.400000
11747 1494 12087 1 149.00000 418.400000
11747 1495 13432 1 149.00000 418.400000
11747 1496 12967 1 149.00000 418.400000
11747 1497 12804 1 149.00000 418.400000
11748 1498 15812 1 149.00000 418.400000
12308 1499 13682 1 149.00000 418.400000
11748 1500 12308 1 149.00000 418.400000
11748 1501 11939 1 149.00000 418.400000
11749 1502 12237 1 149.00000 418.400000
11749 1503 12897 1 149.00000 418.400000
11749 1504 14971 1 149.00000 418.400000
11749 1505 14392 1 149.00000 418.400000
11750 1506 14143 1 149.00000 418.400000
11750 1507 13730 1 149.00000 418.400000
11750 1508 14979 1 149.00000 418.400000
11750 1509 16137 1 149.00000 418.400000
11751 1510 13768 1 149.00000 418.400000
11751 1511 14513 1 149.00000 418.400000
11751 1512 15476 1 149.00000 418.400000
11751 1513 15423 1 149.00000 418.400000
11752 1514 12926 1 149.00000 418.400000
11752 1515 15178 1 149.00000 418.400000
11752 1516 14837 1 149.00000 418.400000
11752 1517 14816 1 149.00000 418.400000
11753 1518 14303 1 149.00000 418.400000
11753 1519 14361 1 149.00000 418.400000
11753 1520 12066 1 149.00000 418.400000
11753 1521 16118 1 149.00000 418.400000
11754 1522 14421 1 149.00000 418.400000
11754 1523 14618 1 149.00000 418.400000
11754 1524 13870 1 149.00000 418.400000
11754 1525 15408 1 149.00000 418.400000
11755 1526 17638 1 149.00000 418.400000
11755 1527 14616 1 149.00000 418.400000
11755 1528 15991 1 149.00000 418.400000
11755 1529 13832 1 149.00000 418.400000
11756 1530 15538 1 149.00000 418.400000
11756 1531 16263 1 149.00000 418.400000
11756 1532 14496 1 149.00000 418.400000
11756 1533 13935 1 149.00000 418.400000
11757 1534 14693 1 149.00000 418.400000
11757 1535 14928 1 149.00000 418.400000
11757 1536 14977 1 149.00000 418.400000
11757 1537 15461 1 149.00000 418.400000
11758 1538 16399 1 149.00000 418.400000
11758 1539 12959 1 149.00000 418.400000
11758 1540 14586 1 149.00000 418.400000
13520 1541 20866 1 149.00000 418.400000
14645 1542 20866 1 149.00000 418.400000
11759 1543 16451 1 149.00000 418.400000
11759 1544 12511 1 149.00000 418.400000
11759 1545 14096 1 149.00000 418.400000
11759 1546 13724 1 149.00000 418.400000
11760 1547 12413 1 149.00000 418.400000
11760 1548 11958 1 149.00000 418.400000
11760 1549 15132 1 149.00000 418.400000
11760 1550 13700 1 149.00000 418.400000
11761 1551 15055 1 149.00000 418.400000
11761 1552 13759 1 149.00000 418.400000
11761 1553 15406 1 149.00000 418.400000
11761 1554 14744 1 149.00000 418.400000
11762 1555 12314 1 149.00000 418.400000
11762 1556 14014 1 149.00000 418.400000
11762 1557 14602 1 149.00000 418.400000
11762 1558 14814 1 149.00000 418.400000
11763 1559 15211 1 149.00000 418.400000
11763 1560 15107 1 149.00000 418.400000
11763 1561 15551 1 149.00000 418.400000
11763 1562 16343 1 149.00000 418.400000
11764 1563 21634 1 149.00000 418.400000
11764 1564 14042 1 149.00000 418.400000
11764 1565 12276 1 149.00000 418.400000
11764 1566 21274 1 149.00000 418.400000
11765 1567 11826 1 149.00000 418.400000
12416 1568 16158 1 149.00000 418.400000
11765 1569 12416 1 149.00000 418.400000
11765 1570 13735 1 149.00000 418.400000
11766 1571 12263 1 149.00000 418.400000
11766 1572 15975 1 149.00000 418.400000
11766 1573 15757 1 149.00000 418.400000
11766 1574 12242 1 149.00000 418.400000
11767 1575 15911 1 149.00000 418.400000
11990 1576 15911 1 149.00000 418.400000
11767 1577 16222 1 149.00000 418.400000
11767 1578 14714 1 149.00000 418.400000
11768 1579 13567 1 149.00000 418.400000
11768 1580 14842 1 149.00000 418.400000
11768 1581 13022 1 149.00000 418.400000
11768 1582 14554 1 149.00000 418.400000
11769 1583 12136 1 149.00000 418.400000
11769 1584 13064 1 149.00000 418.400000
11769 1585 13637 1 149.00000 418.400000
11770 1586 12464 1 149.00000 418.400000
11770 1587 16517 1 149.00000 418.400000
12378 1588 16517 1 149.00000 418.400000
11771 1589 15676 1 149.00000 418.400000
11771 1590 13747 1 149.00000 418.400000
11771 1591 15525 1 149.00000 418.400000
11771 1592 15630 1 149.00000 418.400000
11772 1593 15845 1 149.00000 418.400000
11772 1594 13240 1 149.00000 418.400000
11772 1595 14982 1 149.00000 418.400000
11773 1596 16424 1 149.00000 418.400000
11506 1597 11773 1 149.00000 418.400000
11773 1598 15454 1 149.00000 418.400000
11774 1599 14126 1 149.00000 418.400000
11774 1600 13871 1 149.00000 418.400000
11774 1601 11817 1 149.00000 418.400000
11775 1602 12200 1 149.00000 418.400000
11775 1603 13294 1 149.00000 418.400000
11775 1604 13793 1 149.00000 418.400000
11776 1605 13219 1 149.00000 418.400000
11776 1606 14233 1 149.00000 418.400000
11776 1607 14510 1 149.00000 418.400000
11776 1608 12383 1 149.00000 418.400000
11777 1609 13734 1 149.00000 418.400000
11777 1610 14255 1 149.00000 418.400000
11777 1611 12916 1 149.00000 418.400000
13734 1612 15721 1 149.00000 418.400000
11778 1613 12843 1 149.00000 418.400000
11778 1614 16105 1 149.00000 418.400000
11778 1615 16191 1 149.00000 418.400000
11779 1616 12652 1 149.00000 418.400000
11779 1617 12855 1 149.00000 418.400000
11779 1618 13889 1 149.00000 418.400000
11791 1619 13732 1 149.00000 418.400000
11780 1620 13732 1 149.00000 418.400000
11780 1621 14380 1 149.00000 418.400000
11780 1622 14760 1 149.00000 418.400000
11781 1623 16101 1 149.00000 418.400000
11781 1624 13047 1 149.00000 418.400000
11781 1625 11914 1 149.00000 418.400000
11782 1626 13972 1 149.00000 418.400000
11782 1627 12368 1 149.00000 418.400000
11782 1628 13724 1 149.00000 418.400000
11782 1629 14698 1 149.00000 418.400000
11783 1630 15835 1 149.00000 418.400000
11783 1631 16303 1 149.00000 418.400000
11783 1632 15918 1 149.00000 418.400000
13332 1633 16303 1 149.00000 418.400000
15156 1634 20794 1 149.00000 418.400000
19042 1635 20794 1 149.00000 418.400000
13637 1636 20794 1 149.00000 418.400000
11784 1637 16027 1 149.00000 418.400000
11784 1638 14971 1 149.00000 418.400000
11784 1639 14155 1 149.00000 418.400000
11784 1640 15256 1 149.00000 418.400000
11785 1641 13565 1 149.00000 418.400000
11785 1642 12732 1 149.00000 418.400000
11785 1643 12795 1 149.00000 418.400000
21238 1644 21916 1 149.00000 418.400000
21238 1645 21814 1 149.00000 418.400000
14667 1646 21238 1 149.00000 418.400000
11649 1647 14408 1 149.00000 418.400000
12295 1648 13345 1 149.00000 418.400000
11649 1649 12295 1 149.00000 418.400000
13237 1650 21241 1 149.00000 418.400000
16400 1651 21241 1 149.00000 418.400000
19450 1652 21244 1 149.00000 418.400000
12765 1653 19450 1 149.00000 418.400000
11936 1654 19450 1 149.00000 418.400000
13223 1655 21244 1 149.00000 418.400000
11787 1656 16436 1 149.00000 418.400000
11787 1657 13439 1 149.00000 418.400000
11787 1658 14575 1 149.00000 418.400000
11787 1659 12379 1 149.00000 418.400000
11788 1660 12744 1 149.00000 418.400000
11788 1661 16612 1 149.00000 418.400000
11788 1662 15581 1 149.00000 418.400000
11788 1663 13764 1 149.00000 418.400000
11789 1664 13239 1 149.00000 418.400000
11789 1665 12659 1 149.00000 418.400000
11789 1666 12820 1 149.00000 418.400000
11789 1667 15659 1 149.00000 418.400000
11790 1668 15289 1 149.00000 418.400000
11790 1669 15625 1 149.00000 418.400000
11790 1670 16588 1 149.00000 418.400000
11790 1671 12220 1 149.00000 418.400000
11791 1672 13653 1 149.00000 418.400000
11791 1673 13824 1 149.00000 418.400000
11792 1674 15819 1 149.00000 418.400000
11792 1675 14072 1 149.00000 418.400000
11792 1676 14973 1 149.00000 418.400000
11792 1677 12894 1 149.00000 418.400000
11793 1678 15644 1 149.00000 418.400000
11793 1679 12657 1 149.00000 418.400000
11793 1680 14504 1 149.00000 418.400000
11794 1681 14745 1 149.00000 418.400000
11794 1682 14473 1 149.00000 418.400000
11794 1683 16840 1 149.00000 418.400000
18156 1684 21535 1 149.00000 418.400000
13056 1685 21010 1 149.00000 418.400000
13999 1686 22004 1 149.00000 418.400000
13999 1687 20434 1 149.00000 418.400000
13416 1688 20434 1 149.00000 418.400000
12431 1689 21247 1 149.00000 418.400000
14890 1690 21247 1 149.00000 418.400000
15053 1691 21247 1 149.00000 418.400000
11795 1692 13888 1 149.00000 418.400000
11795 1693 13336 1 149.00000 418.400000
11795 1694 15693 1 149.00000 418.400000
11795 1695 14291 1 149.00000 418.400000
12450 1696 16306 1 149.00000 418.400000
11796 1697 12450 1 149.00000 418.400000
11796 1698 11929 1 149.00000 418.400000
11796 1699 21364 1 149.00000 418.400000
11797 1700 16045 1 149.00000 418.400000
11797 1701 19270 1 149.00000 418.400000
11797 1702 13641 1 149.00000 418.400000
11797 1703 12960 1 149.00000 418.400000
11798 1704 15116 1 149.00000 418.400000
11798 1705 13027 1 149.00000 418.400000
11798 1706 16417 1 149.00000 418.400000
11798 1707 14645 1 149.00000 418.400000
11799 1708 12438 1 149.00000 418.400000
11799 1709 15128 1 149.00000 418.400000
11799 1710 15057 1 149.00000 418.400000
11800 1711 19186 1 149.00000 418.400000
15133 1712 19186 1 149.00000 418.400000
11800 1713 15745 1 149.00000 418.400000
11800 1714 14679 1 149.00000 418.400000
11801 1715 21763 1 149.00000 418.400000
11801 1716 13227 1 149.00000 418.400000
11801 1717 16910 1 149.00000 418.400000
13120 1718 16826 1 149.00000 418.400000
11802 1719 14693 1 149.00000 418.400000
12869 1720 16213 1 149.00000 418.400000
12869 1721 16127 1 149.00000 418.400000
11802 1722 12869 1 149.00000 418.400000
11803 1723 13405 1 149.00000 418.400000
11803 1724 15599 1 149.00000 418.400000
11803 1725 15608 1 149.00000 418.400000
11803 1726 16409 1 149.00000 418.400000
20806 1727 21877 1 149.00000 418.400000
11804 1728 16044 1 149.00000 418.400000
11804 1729 14301 1 149.00000 418.400000
11804 1730 12157 1 149.00000 418.400000
11805 1731 15073 1 149.00000 418.400000
11805 1732 15981 1 149.00000 418.400000
11805 1733 13303 1 149.00000 418.400000
11805 1734 13195 1 149.00000 418.400000
14848 1735 21250 1 149.00000 418.400000
21250 1736 21796 1 149.00000 418.400000
14032 1737 21250 1 149.00000 418.400000
11806 1738 15840 1 149.00000 418.400000
11806 1739 16591 1 149.00000 418.400000
14293 1740 15840 1 149.00000 418.400000
12405 1741 16591 1 149.00000 418.400000
17008 1742 17778 1 149.00000 418.400000
11807 1743 12288 1 149.00000 418.400000
11807 1744 12321 1 149.00000 418.400000
11807 1745 14701 1 149.00000 418.400000
11807 1746 15586 1 149.00000 418.400000
11808 1747 12983 1 149.00000 418.400000
11808 1748 15440 1 149.00000 418.400000
11543 1749 15050 1 149.00000 418.400000
12701 1750 16288 1 149.00000 418.400000
11809 1751 19222 1 149.00000 418.400000
11809 1752 14006 1 149.00000 418.400000
11809 1753 14269 1 149.00000 418.400000
11810 1754 15771 1 149.00000 418.400000
11810 1755 18802 1 149.00000 418.400000
11810 1756 14791 1 149.00000 418.400000
11810 1757 13157 1 149.00000 418.400000
11811 1758 16232 1 149.00000 418.400000
11811 1759 14269 1 149.00000 418.400000
11811 1760 15786 1 149.00000 418.400000
11812 1761 13018 1 149.00000 418.400000
11812 1762 15585 1 149.00000 418.400000
11812 1763 12096 1 149.00000 418.400000
11813 1764 12220 1 149.00000 418.400000
11813 1765 13786 1 149.00000 418.400000
11813 1766 12317 1 149.00000 418.400000
11813 1767 12384 1 149.00000 418.400000
11814 1768 14241 1 149.00000 418.400000
11814 1769 12833 1 149.00000 418.400000
11814 1770 12770 1 149.00000 418.400000
11814 1771 14126 1 149.00000 418.400000
11815 1772 18198 1 149.00000 418.400000
11815 1773 12429 1 149.00000 418.400000
11815 1774 20122 1 149.00000 418.400000
11815 1775 14398 1 149.00000 418.400000
11816 1776 16610 1 149.00000 418.400000
11816 1777 12714 1 149.00000 418.400000
11817 1778 14563 1 149.00000 418.400000
11817 1779 12884 1 149.00000 418.400000
11817 1780 16340 1 149.00000 418.400000
11818 1781 20338 1 149.00000 418.400000
11818 1782 12796 1 149.00000 418.400000
11818 1783 13879 1 149.00000 418.400000
11818 1784 16043 1 149.00000 418.400000
11819 1785 14038 1 149.00000 418.400000
11819 1786 15087 1 149.00000 418.400000
11819 1787 14923 1 149.00000 418.400000
11820 1788 14987 1 149.00000 418.400000
11820 1789 14530 1 149.00000 418.400000
11820 1790 14751 1 149.00000 418.400000
11820 1791 12883 1 149.00000 418.400000
11821 1792 12828 1 149.00000 418.400000
11821 1793 12932 1 149.00000 418.400000
11821 1794 14010 1 149.00000 418.400000
11822 1795 13602 1 149.00000 418.400000
11822 1796 14926 1 149.00000 418.400000
11822 1797 16254 1 149.00000 418.400000
11822 1798 14156 1 149.00000 418.400000
11823 1799 14074 1 149.00000 418.400000
11823 1800 13286 1 149.00000 418.400000
11823 1801 12618 1 149.00000 418.400000
11823 1802 12327 1 149.00000 418.400000
11824 1803 12089 1 149.00000 418.400000
11824 1804 14560 1 149.00000 418.400000
11824 1805 16616 1 149.00000 418.400000
11824 1806 14656 1 149.00000 418.400000
15060 1807 21253 1 149.00000 418.400000
13277 1808 21253 1 149.00000 418.400000
11825 1809 12466 1 149.00000 418.400000
11825 1810 12112 1 149.00000 418.400000
11825 1811 13478 1 149.00000 418.400000
11826 1812 13692 1 149.00000 418.400000
11826 1813 11891 1 149.00000 418.400000
11826 1814 14170 1 149.00000 418.400000
11827 1815 12652 1 149.00000 418.400000
11827 1816 12943 1 149.00000 418.400000
11827 1817 14265 1 149.00000 418.400000
11827 1818 16394 1 149.00000 418.400000
11828 1819 12070 1 149.00000 418.400000
11828 1820 13044 1 149.00000 418.400000
11828 1821 15540 1 149.00000 418.400000
11829 1822 13424 1 149.00000 418.400000
11829 1823 14790 1 149.00000 418.400000
11829 1824 16620 1 149.00000 418.400000
11830 1825 15388 1 149.00000 418.400000
11830 1826 15942 1 149.00000 418.400000
11830 1827 14003 1 149.00000 418.400000
11830 1828 15890 1 149.00000 418.400000
13403 1829 19594 1 149.00000 418.400000
19594 1830 21568 1 149.00000 418.400000
13968 1831 19594 1 149.00000 418.400000
11831 1832 14148 1 149.00000 418.400000
11831 1833 12557 1 149.00000 418.400000
11831 1834 15329 1 149.00000 418.400000
11831 1835 15555 1 149.00000 418.400000
11832 1836 13715 1 149.00000 418.400000
11832 1837 12940 1 149.00000 418.400000
11832 1838 15721 1 149.00000 418.400000
11833 1839 14467 1 149.00000 418.400000
11833 1840 13305 1 149.00000 418.400000
11833 1841 12426 1 149.00000 418.400000
11833 1842 14482 1 149.00000 418.400000
11834 1843 16281 1 149.00000 418.400000
11834 1844 15884 1 149.00000 418.400000
11834 1845 12331 1 149.00000 418.400000
11834 1846 15389 1 149.00000 418.400000
11835 1847 12615 1 149.00000 418.400000
11835 1848 12504 1 149.00000 418.400000
11835 1849 12729 1 149.00000 418.400000
11835 1850 14199 1 149.00000 418.400000
11836 1851 14477 1 149.00000 418.400000
11836 1852 12997 1 149.00000 418.400000
11836 1853 16113 1 149.00000 418.400000
11836 1854 11901 1 149.00000 418.400000
11837 1855 14895 1 149.00000 418.400000
11837 1856 15335 1 149.00000 418.400000
11837 1857 15643 1 149.00000 418.400000
13516 1858 21949 1 149.00000 418.400000
11838 1859 15255 1 149.00000 418.400000
11838 1860 15420 1 149.00000 418.400000
11838 1861 12554 1 149.00000 418.400000
11838 1862 13031 1 149.00000 418.400000
12903 1863 19006 1 149.00000 418.400000
19006 1864 19954 1 149.00000 418.400000
14961 1865 19006 1 149.00000 418.400000
16564 1866 16952 1 149.00000 418.400000
15564 1867 16952 1 149.00000 418.400000
11839 1868 14254 1 149.00000 418.400000
11839 1869 16560 1 149.00000 418.400000
11839 1870 15883 1 149.00000 418.400000
11839 1871 16100 1 149.00000 418.400000
11840 1872 13232 1 149.00000 418.400000
11840 1873 11875 1 149.00000 418.400000
11840 1874 13772 1 149.00000 418.400000
11840 1875 16344 1 149.00000 418.400000
11841 1876 15863 1 149.00000 418.400000
11841 1877 15628 1 149.00000 418.400000
11841 1878 16589 1 149.00000 418.400000
11842 1879 14200 1 149.00000 418.400000
11842 1880 16067 1 149.00000 418.400000
11842 1881 13045 1 149.00000 418.400000
11842 1882 12474 1 149.00000 418.400000
11843 1883 14089 1 149.00000 418.400000
11843 1884 13021 1 149.00000 418.400000
11843 1885 14122 1 149.00000 418.400000
11844 1886 12290 1 149.00000 418.400000
11844 1887 14641 1 149.00000 418.400000
11844 1888 13366 1 149.00000 418.400000
18994 1889 21256 1 149.00000 418.400000
16468 1890 21256 1 149.00000 418.400000
13135 1891 21256 1 149.00000 418.400000
11845 1892 14014 1 149.00000 418.400000
11845 1893 14946 1 149.00000 418.400000
14014 1894 15699 1 149.00000 418.400000
11845 1895 15716 1 149.00000 418.400000
21259 1896 21496 1 149.00000 418.400000
16490 1897 21259 1 149.00000 418.400000
11846 1898 12021 1 149.00000 418.400000
11846 1899 14594 1 149.00000 418.400000
11846 1900 14500 1 149.00000 418.400000
11846 1901 16269 1 149.00000 418.400000
14432 1902 16608 1 149.00000 418.400000
11847 1903 12950 1 149.00000 418.400000
15531 1904 15904 1 149.00000 418.400000
11847 1905 14432 1 149.00000 418.400000
11848 1906 15379 1 149.00000 418.400000
11848 1907 14542 1 149.00000 418.400000
11848 1908 16130 1 149.00000 418.400000
11848 1909 12178 1 149.00000 418.400000
11849 1910 13001 1 149.00000 418.400000
11849 1911 14110 1 149.00000 418.400000
14110 1912 14927 1 149.00000 418.400000
11849 1913 13761 1 149.00000 418.400000
11850 1914 16339 1 149.00000 418.400000
11850 1915 16155 1 149.00000 418.400000
11850 1916 13152 1 149.00000 418.400000
11850 1917 12161 1 149.00000 418.400000
11851 1918 15039 1 149.00000 418.400000
11851 1919 13507 1 149.00000 418.400000
11852 1920 16365 1 149.00000 418.400000
11852 1921 21754 1 149.00000 418.400000
11852 1922 18478 1 149.00000 418.400000
11852 1923 13439 1 149.00000 418.400000
15352 1924 16164 1 149.00000 418.400000
11853 1925 15352 1 149.00000 418.400000
11853 1926 14803 1 149.00000 418.400000
14766 1927 14803 1 149.00000 418.400000
12953 1928 16350 1 149.00000 418.400000
11854 1929 12402 1 149.00000 418.400000
11966 1930 16096 1 149.00000 418.400000
11854 1931 12953 1 149.00000 418.400000
11855 1932 16109 1 149.00000 418.400000
11855 1933 16146 1 149.00000 418.400000
11855 1934 14876 1 149.00000 418.400000
11855 1935 14993 1 149.00000 418.400000
11856 1936 14002 1 149.00000 418.400000
11856 1937 12108 1 149.00000 418.400000
11856 1938 13558 1 149.00000 418.400000
12311 1939 19462 1 149.00000 418.400000
11857 1940 11909 1 149.00000 418.400000
11857 1941 13517 1 149.00000 418.400000
11857 1942 15758 1 149.00000 418.400000
11858 1943 12714 1 149.00000 418.400000
11858 1944 21999 1 149.00000 418.400000
11858 1945 13253 1 149.00000 418.400000
11466 1946 12606 1 149.00000 418.400000
11859 1947 15181 1 149.00000 418.400000
11466 1948 14080 1 149.00000 418.400000
11860 1949 15143 1 149.00000 418.400000
11860 1950 13172 1 149.00000 418.400000
11860 1951 21823 1 149.00000 418.400000
11861 1952 13728 1 149.00000 418.400000
11861 1953 14123 1 149.00000 418.400000
11861 1954 14213 1 149.00000 418.400000
11861 1955 13044 1 149.00000 418.400000
11862 1956 12166 1 149.00000 418.400000
11862 1957 12408 1 149.00000 418.400000
11862 1958 13344 1 149.00000 418.400000
11862 1959 13028 1 149.00000 418.400000
11863 1960 17288 1 149.00000 418.400000
11863 1961 13885 1 149.00000 418.400000
11863 1962 20626 1 149.00000 418.400000
11863 1963 12823 1 149.00000 418.400000
11864 1964 12016 1 149.00000 418.400000
11864 1965 14487 1 149.00000 418.400000
11864 1966 16430 1 149.00000 418.400000
11864 1967 16066 1 149.00000 418.400000
11865 1968 16552 1 149.00000 418.400000
11865 1969 17134 1 149.00000 418.400000
11865 1970 18874 1 149.00000 418.400000
11866 1971 15438 1 149.00000 418.400000
11866 1972 21412 1 149.00000 418.400000
11866 1973 15759 1 149.00000 418.400000
13545 1974 15759 1 149.00000 418.400000
14701 1975 15906 1 149.00000 418.400000
11867 1976 14924 1 149.00000 418.400000
11867 1977 15906 1 149.00000 418.400000
11867 1978 12777 1 149.00000 418.400000
11868 1979 11896 1 149.00000 418.400000
11868 1980 12234 1 149.00000 418.400000
11868 1981 13357 1 149.00000 418.400000
11868 1982 15354 1 149.00000 418.400000
11869 1983 12978 1 149.00000 418.400000
11869 1984 19654 1 149.00000 418.400000
11869 1985 13998 1 149.00000 418.400000
11869 1986 11890 1 149.00000 418.400000
11870 1987 19954 1 149.00000 418.400000
11870 1988 11928 1 149.00000 418.400000
15942 1989 15971 1 149.00000 418.400000
11870 1990 15971 1 149.00000 418.400000
11871 1991 13942 1 149.00000 418.400000
11871 1992 16234 1 149.00000 418.400000
11871 1993 18550 1 149.00000 418.400000
11871 1994 12090 1 149.00000 418.400000
11872 1995 13765 1 149.00000 418.400000
11872 1996 13161 1 149.00000 418.400000
11872 1997 14464 1 149.00000 418.400000
11872 1998 15537 1 149.00000 418.400000
11873 1999 14758 1 149.00000 418.400000
11873 2000 13079 1 149.00000 418.400000
11873 2001 14409 1 149.00000 418.400000
11873 2002 15074 1 149.00000 418.400000
11874 2003 12122 1 149.00000 418.400000
11874 2004 13925 1 149.00000 418.400000
11874 2005 15636 1 149.00000 418.400000
11875 2006 16071 1 149.00000 418.400000
11875 2007 14843 1 149.00000 418.400000
11875 2008 14652 1 149.00000 418.400000
14188 2009 21868 1 149.00000 418.400000
11876 2010 14848 1 149.00000 418.400000
11876 2011 12963 1 149.00000 418.400000
11876 2012 13048 1 149.00000 418.400000
11876 2013 13260 1 149.00000 418.400000
11877 2014 17582 1 149.00000 418.400000
11877 2015 13383 1 149.00000 418.400000
11877 2016 15713 1 149.00000 418.400000
11877 2017 13172 1 149.00000 418.400000
13651 2018 21262 1 149.00000 418.400000
14943 2019 21262 1 149.00000 418.400000
11878 2020 15117 1 149.00000 418.400000
11878 2021 12665 1 149.00000 418.400000
11878 2022 12197 1 149.00000 418.400000
11879 2023 12793 1 149.00000 418.400000
11879 2024 15066 1 149.00000 418.400000
11879 2025 21427 1 149.00000 418.400000
11879 2026 22044 1 149.00000 418.400000
12150 2027 21265 1 149.00000 418.400000
15891 2028 21265 1 149.00000 418.400000
11880 2029 13382 1 149.00000 418.400000
11880 2030 15144 1 149.00000 418.400000
11880 2031 15136 1 149.00000 418.400000
11880 2032 12442 1 149.00000 418.400000
11881 2033 13920 1 149.00000 418.400000
11881 2034 16417 1 149.00000 418.400000
11881 2035 15417 1 149.00000 418.400000
11881 2036 19918 1 149.00000 418.400000
11882 2037 14889 1 149.00000 418.400000
11882 2038 15037 1 149.00000 418.400000
11882 2039 14946 1 149.00000 418.400000
11882 2040 12105 1 149.00000 418.400000
11883 2041 16458 1 149.00000 418.400000
11883 2042 19822 1 149.00000 418.400000
11884 2043 13419 1 149.00000 418.400000
11884 2044 15223 1 149.00000 418.400000
11884 2045 18898 1 149.00000 418.400000
13385 2046 21268 1 149.00000 418.400000
21268 2047 21700 1 149.00000 418.400000
15265 2048 21268 1 149.00000 418.400000
11885 2049 13101 1 149.00000 418.400000
11885 2050 15382 1 149.00000 418.400000
11885 2051 13481 1 149.00000 418.400000
11885 2052 13174 1 149.00000 418.400000
11886 2053 11892 1 149.00000 418.400000
11886 2054 13129 1 149.00000 418.400000
11887 2055 12163 1 149.00000 418.400000
11887 2056 16006 1 149.00000 418.400000
11887 2057 16150 1 149.00000 418.400000
11887 2058 12082 1 149.00000 418.400000
11888 2059 13294 1 149.00000 418.400000
11888 2060 12165 1 149.00000 418.400000
11888 2061 14183 1 149.00000 418.400000
11889 2062 15935 1 149.00000 418.400000
11889 2063 15096 1 149.00000 418.400000
11889 2064 12341 1 149.00000 418.400000
11889 2065 15656 1 149.00000 418.400000
11890 2066 21463 1 149.00000 418.400000
11891 2067 13544 1 149.00000 418.400000
11891 2068 15336 1 149.00000 418.400000
11891 2069 12970 1 149.00000 418.400000
11892 2070 11945 1 149.00000 418.400000
11892 2071 14426 1 149.00000 418.400000
11893 2072 13886 1 149.00000 418.400000
11893 2073 14983 1 149.00000 418.400000
11572 2074 15834 1 149.00000 418.400000
11894 2075 12424 1 149.00000 418.400000
11894 2076 14385 1 149.00000 418.400000
11894 2077 15187 1 149.00000 418.400000
11894 2078 16523 1 149.00000 418.400000
11895 2079 14129 1 149.00000 418.400000
11895 2080 14848 1 149.00000 418.400000
11895 2081 12902 1 149.00000 418.400000
11896 2082 12329 1 149.00000 418.400000
11896 2083 16197 1 149.00000 418.400000
11897 2084 14437 1 149.00000 418.400000
11897 2085 14789 1 149.00000 418.400000
11897 2086 16099 1 149.00000 418.400000
11897 2087 12839 1 149.00000 418.400000
11898 2088 12330 1 149.00000 418.400000
11898 2089 13657 1 149.00000 418.400000
11898 2090 13085 1 149.00000 418.400000
11898 2091 13875 1 149.00000 418.400000
11899 2092 15831 1 149.00000 418.400000
11899 2093 13672 1 149.00000 418.400000
11899 2094 14815 1 149.00000 418.400000
11899 2095 12344 1 149.00000 418.400000
14454 2096 21271 1 149.00000 418.400000
21271 2097 21358 1 149.00000 418.400000
11900 2098 16431 1 149.00000 418.400000
15058 2099 16431 1 149.00000 418.400000
11900 2100 19606 1 149.00000 418.400000
11901 2101 11922 1 149.00000 418.400000
11901 2102 15856 1 149.00000 418.400000
11901 2103 15855 1 149.00000 418.400000
11902 2104 16315 1 149.00000 418.400000
11902 2105 13439 1 149.00000 418.400000
11902 2106 16107 1 149.00000 418.400000
17246 2107 21490 1 149.00000 418.400000
16448 2108 17246 1 149.00000 418.400000
11903 2109 12766 1 149.00000 418.400000
11903 2110 19282 1 149.00000 418.400000
11903 2111 14586 1 149.00000 418.400000
11903 2112 21718 1 149.00000 418.400000
11904 2113 16019 1 149.00000 418.400000
11904 2114 12971 1 149.00000 418.400000
11904 2115 13480 1 149.00000 418.400000
11904 2116 15251 1 149.00000 418.400000
12144 2117 13816 1 149.00000 418.400000
11905 2118 13816 1 149.00000 418.400000
11905 2119 16005 1 149.00000 418.400000
11905 2120 14033 1 149.00000 418.400000
11906 2121 13967 1 149.00000 418.400000
11906 2122 13437 1 149.00000 418.400000
11906 2123 12733 1 149.00000 418.400000
11906 2124 16482 1 149.00000 418.400000
11907 2125 16526 1 149.00000 418.400000
11907 2126 13165 1 149.00000 418.400000
11908 2127 12297 1 149.00000 418.400000
11908 2128 12595 1 149.00000 418.400000
11908 2129 16136 1 149.00000 418.400000
11908 2130 15510 1 149.00000 418.400000
11909 2131 14862 1 149.00000 418.400000
11909 2132 14323 1 149.00000 418.400000
11910 2133 11965 1 149.00000 418.400000
11910 2134 13327 1 149.00000 418.400000
11910 2135 15258 1 149.00000 418.400000
11910 2136 13663 1 149.00000 418.400000
11911 2137 14139 1 149.00000 418.400000
11911 2138 15619 1 149.00000 418.400000
11911 2139 21310 1 149.00000 418.400000
11912 2140 13846 1 149.00000 418.400000
11912 2141 13075 1 149.00000 418.400000
11912 2142 12750 1 149.00000 418.400000
11912 2143 15149 1 149.00000 418.400000
11913 2144 16306 1 149.00000 418.400000
11913 2145 13070 1 149.00000 418.400000
11913 2146 13527 1 149.00000 418.400000
11913 2147 13098 1 149.00000 418.400000
18016 2148 20194 1 149.00000 418.400000
11914 2149 13453 1 149.00000 418.400000
11914 2150 16403 1 149.00000 418.400000
11914 2151 14996 1 149.00000 418.400000
11915 2152 15822 1 149.00000 418.400000
11915 2153 16085 1 149.00000 418.400000
11915 2154 15150 1 149.00000 418.400000
11915 2155 16326 1 149.00000 418.400000
11916 2156 15889 1 149.00000 418.400000
11916 2157 16316 1 149.00000 418.400000
11916 2158 13804 1 149.00000 418.400000
14416 2159 21274 1 149.00000 418.400000
12574 2160 21274 1 149.00000 418.400000
12751 2161 21277 1 149.00000 418.400000
16501 2162 21277 1 149.00000 418.400000
13066 2163 14397 1 149.00000 418.400000
13066 2164 21277 1 149.00000 418.400000
11917 2165 19462 1 149.00000 418.400000
11917 2166 13929 1 149.00000 418.400000
11918 2167 15360 1 149.00000 418.400000
11918 2168 14444 1 149.00000 418.400000
11918 2169 15414 1 149.00000 418.400000
11918 2170 14579 1 149.00000 418.400000
11919 2171 13352 1 149.00000 418.400000
11919 2172 14671 1 149.00000 418.400000
11919 2173 16460 1 149.00000 418.400000
11919 2174 15448 1 149.00000 418.400000
11920 2175 12761 1 149.00000 418.400000
16443 2176 20686 1 149.00000 418.400000
11920 2177 19294 1 149.00000 418.400000
11920 2178 16443 1 149.00000 418.400000
11921 2179 15331 1 149.00000 418.400000
11921 2180 14401 1 149.00000 418.400000
11922 2181 15787 1 149.00000 418.400000
11922 2182 14037 1 149.00000 418.400000
11922 2183 13869 1 149.00000 418.400000
11923 2184 12560 1 149.00000 418.400000
11923 2185 14652 1 149.00000 418.400000
11923 2186 16566 1 149.00000 418.400000
11923 2187 14198 1 149.00000 418.400000
11924 2188 12785 1 149.00000 418.400000
11924 2189 16159 1 149.00000 418.400000
11924 2190 12355 1 149.00000 418.400000
11924 2191 13854 1 149.00000 418.400000
11925 2192 16558 1 149.00000 418.400000
11925 2193 16349 1 149.00000 418.400000
15401 2194 16371 1 149.00000 418.400000
11925 2195 16371 1 149.00000 418.400000
11926 2196 15815 1 149.00000 418.400000
11926 2197 15605 1 149.00000 418.400000
11926 2198 16050 1 149.00000 418.400000
11926 2199 15155 1 149.00000 418.400000
15287 2200 20002 1 149.00000 418.400000
14950 2201 20002 1 149.00000 418.400000
11927 2202 12729 1 149.00000 418.400000
11927 2203 12704 1 149.00000 418.400000
11927 2204 16085 1 149.00000 418.400000
11927 2205 13818 1 149.00000 418.400000
11928 2206 15949 1 149.00000 418.400000
11928 2207 13055 1 149.00000 418.400000
11928 2208 11934 1 149.00000 418.400000
11929 2209 15148 1 149.00000 418.400000
11929 2210 12938 1 149.00000 418.400000
11929 2211 12877 1 149.00000 418.400000
11930 2212 13089 1 149.00000 418.400000
11930 2213 15323 1 149.00000 418.400000
11930 2214 12581 1 149.00000 418.400000
11930 2215 16550 1 149.00000 418.400000
12326 2216 21280 1 149.00000 418.400000
16658 2217 21280 1 149.00000 418.400000
11931 2218 15320 1 149.00000 418.400000
11931 2219 12600 1 149.00000 418.400000
11931 2220 15553 1 149.00000 418.400000
11931 2221 15788 1 149.00000 418.400000
11932 2222 13185 1 149.00000 418.400000
11932 2223 15228 1 149.00000 418.400000
11932 2224 13767 1 149.00000 418.400000
11932 2225 14537 1 149.00000 418.400000
11933 2226 13398 1 149.00000 418.400000
11933 2227 15695 1 149.00000 418.400000
11933 2228 15477 1 149.00000 418.400000
11933 2229 13389 1 149.00000 418.400000
11934 2230 15066 1 149.00000 418.400000
11934 2231 15890 1 149.00000 418.400000
11934 2232 12903 1 149.00000 418.400000
12451 2233 16896 1 149.00000 418.400000
12857 2234 16896 1 149.00000 418.400000
11935 2235 13880 1 149.00000 418.400000
11935 2236 12885 1 149.00000 418.400000
11935 2237 14814 1 149.00000 418.400000
11935 2238 13387 1 149.00000 418.400000
11936 2239 15010 1 149.00000 418.400000
11936 2240 17918 1 149.00000 418.400000
11936 2241 12480 1 149.00000 418.400000
11937 2242 16068 1 149.00000 418.400000
11937 2243 13741 1 149.00000 418.400000
11937 2244 12901 1 149.00000 418.400000
11937 2245 15867 1 149.00000 418.400000
11938 2246 14272 1 149.00000 418.400000
11938 2247 16538 1 149.00000 418.400000
11938 2248 13101 1 149.00000 418.400000
11938 2249 14982 1 149.00000 418.400000
11939 2250 14561 1 149.00000 418.400000
11939 2251 12972 1 149.00000 418.400000
11939 2252 15571 1 149.00000 418.400000
11940 2253 21706 1 149.00000 418.400000
11940 2254 13554 1 149.00000 418.400000
11940 2255 13624 1 149.00000 418.400000
11940 2256 13959 1 149.00000 418.400000
11941 2257 12910 1 149.00000 418.400000
11941 2258 14600 1 149.00000 418.400000
11941 2259 16048 1 149.00000 418.400000
11941 2260 13446 1 149.00000 418.400000
11942 2261 14755 1 149.00000 418.400000
11942 2262 16129 1 149.00000 418.400000
11942 2263 13034 1 149.00000 418.400000
11942 2264 15015 1 149.00000 418.400000
11943 2265 14639 1 149.00000 418.400000
11943 2266 13233 1 149.00000 418.400000
11943 2267 13739 1 149.00000 418.400000
11943 2268 12361 1 149.00000 418.400000
12128 2269 16493 1 149.00000 418.400000
11944 2270 16493 1 149.00000 418.400000
11944 2271 16354 1 149.00000 418.400000
11944 2272 12171 1 149.00000 418.400000
11945 2273 12634 1 149.00000 418.400000
11945 2274 14920 1 149.00000 418.400000
11945 2275 15182 1 149.00000 418.400000
11946 2276 14350 1 149.00000 418.400000
11946 2277 12923 1 149.00000 418.400000
11946 2278 13390 1 149.00000 418.400000
11946 2279 16282 1 149.00000 418.400000
11947 2280 15317 1 149.00000 418.400000
11947 2281 13803 1 149.00000 418.400000
11947 2282 15463 1 149.00000 418.400000
11947 2283 15620 1 149.00000 418.400000
11948 2284 13514 1 149.00000 418.400000
11948 2285 13529 1 149.00000 418.400000
11948 2286 12250 1 149.00000 418.400000
11948 2287 14919 1 149.00000 418.400000
11949 2288 14342 1 149.00000 418.400000
11949 2289 12589 1 149.00000 418.400000
11949 2290 14850 1 149.00000 418.400000
11950 2291 16484 1 149.00000 418.400000
11950 2292 14541 1 149.00000 418.400000
11950 2293 14650 1 149.00000 418.400000
11950 2294 12182 1 149.00000 418.400000
15385 2295 19198 1 149.00000 418.400000
11951 2296 12716 1 149.00000 418.400000
11951 2297 21400 1 149.00000 418.400000
11951 2298 18670 1 149.00000 418.400000
13796 2299 17512 1 149.00000 418.400000
11952 2300 16289 1 149.00000 418.400000
11952 2301 14978 1 149.00000 418.400000
11952 2302 12164 1 149.00000 418.400000
11952 2303 13882 1 149.00000 418.400000
11953 2304 13770 1 149.00000 418.400000
11954 2305 16188 1 149.00000 418.400000
11954 2306 14097 1 149.00000 418.400000
11954 2307 13136 1 149.00000 418.400000
11954 2308 15815 1 149.00000 418.400000
11955 2309 12475 1 149.00000 418.400000
11955 2310 15554 1 149.00000 418.400000
11955 2311 15182 1 149.00000 418.400000
11955 2312 15646 1 149.00000 418.400000
11956 2313 16338 1 149.00000 418.400000
11956 2314 13399 1 149.00000 418.400000
11956 2315 13749 1 149.00000 418.400000
11956 2316 15233 1 149.00000 418.400000
11957 2317 16210 1 149.00000 418.400000
11957 2318 16238 1 149.00000 418.400000
11957 2319 13426 1 149.00000 418.400000
11957 2320 12686 1 149.00000 418.400000
11958 2321 14187 1 149.00000 418.400000
11958 2322 14784 1 149.00000 418.400000
11958 2323 15330 1 149.00000 418.400000
21283 2324 21397 1 149.00000 418.400000
14931 2325 21283 1 149.00000 418.400000
11959 2326 13477 1 149.00000 418.400000
11959 2327 13143 1 149.00000 418.400000
11959 2328 12011 1 149.00000 418.400000
11959 2329 13940 1 149.00000 418.400000
11960 2330 14599 1 149.00000 418.400000
11960 2331 16478 1 149.00000 418.400000
13794 2332 14599 1 149.00000 418.400000
11961 2333 12383 1 149.00000 418.400000
11961 2334 12217 1 149.00000 418.400000
11961 2335 14351 1 149.00000 418.400000
11961 2336 14775 1 149.00000 418.400000
14967 2337 15396 1 149.00000 418.400000
11780 2338 11962 1 149.00000 418.400000
15396 2339 16197 1 149.00000 418.400000
11962 2340 15396 1 149.00000 418.400000
11963 2341 15152 1 149.00000 418.400000
12451 2342 14601 1 149.00000 418.400000
11963 2343 14601 1 149.00000 418.400000
11964 2344 12580 1 149.00000 418.400000
11964 2345 13262 1 149.00000 418.400000
11964 2346 16145 1 149.00000 418.400000
11964 2347 15153 1 149.00000 418.400000
11965 2348 13457 1 149.00000 418.400000
11965 2349 15984 1 149.00000 418.400000
11966 2350 12953 1 149.00000 418.400000
11966 2351 14339 1 149.00000 418.400000
12953 2352 15483 1 149.00000 418.400000
11966 2353 15377 1 149.00000 418.400000
11967 2354 16057 1 149.00000 418.400000
11967 2355 16227 1 149.00000 418.400000
11967 2356 12879 1 149.00000 418.400000
11967 2357 13685 1 149.00000 418.400000
11968 2358 13095 1 149.00000 418.400000
11968 2359 14106 1 149.00000 418.400000
11968 2360 14267 1 149.00000 418.400000
11968 2361 14720 1 149.00000 418.400000
11969 2362 13399 1 149.00000 418.400000
11969 2363 14762 1 149.00000 418.400000
11969 2364 14819 1 149.00000 418.400000
11969 2365 12269 1 149.00000 418.400000
11970 2366 13561 1 149.00000 418.400000
11970 2367 15302 1 149.00000 418.400000
11970 2368 13658 1 149.00000 418.400000
11970 2369 13399 1 149.00000 418.400000
11971 2370 14889 1 149.00000 418.400000
11971 2371 14487 1 149.00000 418.400000
11971 2372 13274 1 149.00000 418.400000
11971 2373 15859 1 149.00000 418.400000
11972 2374 14851 1 149.00000 418.400000
11972 2375 12553 1 149.00000 418.400000
11972 2376 14854 1 149.00000 418.400000
11972 2377 13767 1 149.00000 418.400000
11973 2378 11977 1 149.00000 418.400000
11973 2379 14293 1 149.00000 418.400000
11973 2380 13258 1 149.00000 418.400000
11973 2381 13309 1 149.00000 418.400000
11974 2382 14732 1 149.00000 418.400000
11974 2383 14345 1 149.00000 418.400000
11974 2384 16314 1 149.00000 418.400000
11974 2385 13039 1 149.00000 418.400000
11975 2386 14948 1 149.00000 418.400000
11975 2387 14137 1 149.00000 418.400000
11975 2388 12861 1 149.00000 418.400000
11975 2389 16600 1 149.00000 418.400000
11976 2390 15699 1 149.00000 418.400000
11976 2391 14182 1 149.00000 418.400000
11976 2392 15169 1 149.00000 418.400000
11976 2393 14889 1 149.00000 418.400000
11977 2394 13069 1 149.00000 418.400000
11977 2395 16464 1 149.00000 418.400000
11977 2396 12184 1 149.00000 418.400000
15901 2397 16464 1 149.00000 418.400000
11978 2398 15973 1 149.00000 418.400000
11978 2399 15232 1 149.00000 418.400000
11978 2400 12019 1 149.00000 418.400000
14063 2401 15973 1 149.00000 418.400000
11979 2402 16062 1 149.00000 418.400000
11979 2403 14843 1 149.00000 418.400000
11979 2404 12186 1 149.00000 418.400000
11979 2405 12724 1 149.00000 418.400000
11980 2406 16446 1 149.00000 418.400000
11980 2407 15820 1 149.00000 418.400000
11980 2408 13310 1 149.00000 418.400000
11980 2409 16037 1 149.00000 418.400000
11981 2410 13464 1 149.00000 418.400000
11981 2411 15855 1 149.00000 418.400000
11981 2412 13921 1 149.00000 418.400000
11982 2413 16546 1 149.00000 418.400000
11982 2414 15303 1 149.00000 418.400000
11982 2415 15157 1 149.00000 418.400000
11982 2416 14877 1 149.00000 418.400000
11983 2417 12966 1 149.00000 418.400000
11983 2418 15473 1 149.00000 418.400000
11983 2419 18634 1 149.00000 418.400000
11983 2420 20254 1 149.00000 418.400000
11984 2421 14975 1 149.00000 418.400000
11984 2422 13971 1 149.00000 418.400000
11984 2423 14130 1 149.00000 418.400000
11984 2424 15583 1 149.00000 418.400000
11985 2425 14593 1 149.00000 418.400000
11985 2426 12694 1 149.00000 418.400000
11985 2427 15653 1 149.00000 418.400000
11985 2428 12056 1 149.00000 418.400000
11707 2429 21286 1 149.00000 418.400000
16087 2430 21286 1 149.00000 418.400000
17960 2431 20326 1 149.00000 418.400000
11465 2432 16938 1 149.00000 418.400000
16938 2433 20326 1 149.00000 418.400000
11986 2434 14557 1 149.00000 418.400000
11986 2435 16316 1 149.00000 418.400000
11986 2436 12318 1 149.00000 418.400000
11986 2437 16246 1 149.00000 418.400000
11987 2438 14327 1 149.00000 418.400000
11987 2439 15247 1 149.00000 418.400000
11987 2440 14916 1 149.00000 418.400000
11987 2441 13907 1 149.00000 418.400000
11427 2442 11988 1 149.00000 418.400000
11988 2443 12780 1 149.00000 418.400000
11988 2444 13252 1 149.00000 418.400000
11988 2445 14065 1 149.00000 418.400000
11989 2446 12301 1 149.00000 418.400000
11989 2447 12683 1 149.00000 418.400000
11989 2448 14522 1 149.00000 418.400000
11989 2449 13858 1 149.00000 418.400000
14681 2450 18562 1 149.00000 418.400000
18562 2451 21445 1 149.00000 418.400000
18562 2452 19342 1 149.00000 418.400000
11990 2453 12471 1 149.00000 418.400000
11990 2454 12601 1 149.00000 418.400000
11990 2455 19138 1 149.00000 418.400000
11991 2456 16178 1 149.00000 418.400000
11991 2457 16245 1 149.00000 418.400000
11992 2458 14718 1 149.00000 418.400000
11992 2459 15291 1 149.00000 418.400000
11992 2460 12267 1 149.00000 418.400000
11992 2461 16305 1 149.00000 418.400000
16304 2462 20218 1 149.00000 418.400000
12483 2463 20218 1 149.00000 418.400000
11993 2464 13545 1 149.00000 418.400000
11993 2465 13867 1 149.00000 418.400000
11993 2466 16462 1 149.00000 418.400000
11993 2467 13638 1 149.00000 418.400000
11994 2468 12010 1 149.00000 418.400000
11994 2469 21697 1 149.00000 418.400000
11994 2470 13411 1 149.00000 418.400000
11994 2471 14982 1 149.00000 418.400000
11995 2472 15267 1 149.00000 418.400000
11995 2473 14465 1 149.00000 418.400000
11995 2474 15187 1 149.00000 418.400000
11995 2475 12909 1 149.00000 418.400000
11996 2476 15660 1 149.00000 418.400000
11996 2477 16472 1 149.00000 418.400000
11996 2478 15437 1 149.00000 418.400000
12370 2479 16472 1 149.00000 418.400000
11997 2480 12992 1 149.00000 418.400000
11997 2481 16263 1 149.00000 418.400000
11997 2482 12657 1 149.00000 418.400000
11998 2483 12561 1 149.00000 418.400000
11998 2484 13898 1 149.00000 418.400000
11998 2485 14629 1 149.00000 418.400000
11999 2486 15566 1 149.00000 418.400000
11999 2487 12564 1 149.00000 418.400000
11999 2488 12138 1 149.00000 418.400000
11999 2489 14388 1 149.00000 418.400000
12536 2490 21841 1 149.00000 418.400000
15064 2491 15788 1 149.00000 418.400000
12536 2492 15064 1 149.00000 418.400000
12000 2493 15729 1 149.00000 418.400000
12000 2494 14015 1 149.00000 418.400000
12000 2495 13278 1 149.00000 418.400000
12001 2496 12034 1 149.00000 418.400000
12001 2497 12639 1 149.00000 418.400000
12001 2498 17568 1 149.00000 418.400000
12001 2499 14861 1 149.00000 418.400000
16223 2500 16700 1 149.00000 418.400000
13630 2501 16700 1 149.00000 418.400000
12002 2502 14921 1 149.00000 418.400000
12002 2503 14448 1 149.00000 418.400000
12002 2504 12142 1 149.00000 418.400000
14393 2505 21289 1 149.00000 418.400000
21289 2506 21304 1 149.00000 418.400000
14393 2507 15800 1 149.00000 418.400000
12003 2508 14550 1 149.00000 418.400000
12003 2509 15652 1 149.00000 418.400000
12003 2510 13404 1 149.00000 418.400000
12003 2511 16388 1 149.00000 418.400000
12004 2512 14086 1 149.00000 418.400000
12004 2513 12259 1 149.00000 418.400000
12004 2514 12843 1 149.00000 418.400000
12004 2515 13250 1 149.00000 418.400000
12005 2516 15737 1 149.00000 418.400000
12005 2517 18170 1 149.00000 418.400000
12005 2518 16058 1 149.00000 418.400000
12005 2519 15961 1 149.00000 418.400000
12006 2520 16390 1 149.00000 418.400000
12006 2521 14000 1 149.00000 418.400000
12006 2522 16217 1 149.00000 418.400000
12006 2523 15875 1 149.00000 418.400000
12007 2524 12352 1 149.00000 418.400000
12007 2525 14380 1 149.00000 418.400000
12007 2526 12412 1 149.00000 418.400000
12007 2527 12867 1 149.00000 418.400000
12008 2528 15193 1 149.00000 418.400000
12008 2529 12542 1 149.00000 418.400000
12008 2530 14094 1 149.00000 418.400000
12008 2531 12432 1 149.00000 418.400000
12009 2532 15149 1 149.00000 418.400000
12009 2533 14515 1 149.00000 418.400000
12009 2534 14260 1 149.00000 418.400000
12009 2535 15137 1 149.00000 418.400000
12010 2536 16043 1 149.00000 418.400000
12010 2537 15696 1 149.00000 418.400000
12010 2538 16429 1 149.00000 418.400000
12011 2539 16132 1 149.00000 418.400000
12011 2540 20494 1 149.00000 418.400000
12011 2541 13615 1 149.00000 418.400000
12012 2542 12610 1 149.00000 418.400000
12012 2543 15326 1 149.00000 418.400000
12012 2544 15402 1 149.00000 418.400000
12013 2545 14409 1 149.00000 418.400000
12013 2546 15883 1 149.00000 418.400000
12013 2547 13603 1 149.00000 418.400000
12013 2548 15756 1 149.00000 418.400000
12014 2549 14822 1 149.00000 418.400000
12014 2550 12101 1 149.00000 418.400000
12014 2551 13445 1 149.00000 418.400000
12014 2552 15070 1 149.00000 418.400000
12015 2553 13325 1 149.00000 418.400000
12015 2554 13374 1 149.00000 418.400000
12015 2555 15003 1 149.00000 418.400000
12015 2556 16534 1 149.00000 418.400000
13168 2557 16376 1 149.00000 418.400000
15669 2558 19090 1 149.00000 418.400000
12107 2559 19090 1 149.00000 418.400000
13168 2560 19090 1 149.00000 418.400000
12016 2561 12622 1 149.00000 418.400000
12016 2562 13606 1 149.00000 418.400000
12016 2563 13274 1 149.00000 418.400000
12017 2564 16196 1 149.00000 418.400000
12017 2565 12650 1 149.00000 418.400000
12017 2566 14927 1 149.00000 418.400000
12018 2567 13542 1 149.00000 418.400000
12018 2568 21772 1 149.00000 418.400000
12018 2569 20518 1 149.00000 418.400000
12018 2570 14584 1 149.00000 418.400000
12019 2571 15654 1 149.00000 418.400000
12019 2572 12351 1 149.00000 418.400000
12351 2573 15089 1 149.00000 418.400000
11565 2574 12020 1 149.00000 418.400000
12020 2575 13361 1 149.00000 418.400000
12020 2576 13780 1 149.00000 418.400000
12020 2577 12914 1 149.00000 418.400000
12021 2578 15211 1 149.00000 418.400000
12021 2579 14286 1 149.00000 418.400000
12021 2580 13633 1 149.00000 418.400000
13863 2581 21292 1 149.00000 418.400000
15080 2582 21292 1 149.00000 418.400000
12054 2583 15285 1 149.00000 418.400000
12022 2584 20986 1 149.00000 418.400000
12022 2585 15285 1 149.00000 418.400000
12022 2586 13045 1 149.00000 418.400000
21295 2587 21592 1 149.00000 418.400000
15490 2588 21295 1 149.00000 418.400000
12023 2589 13600 1 149.00000 418.400000
12023 2590 12482 1 149.00000 418.400000
12023 2591 14975 1 149.00000 418.400000
12024 2592 12787 1 149.00000 418.400000
12024 2593 14475 1 149.00000 418.400000
12024 2594 12641 1 149.00000 418.400000
12025 2595 16501 1 149.00000 418.400000
12025 2596 14769 1 149.00000 418.400000
12025 2597 12148 1 149.00000 418.400000
12026 2598 16515 1 149.00000 418.400000
12026 2599 16064 1 149.00000 418.400000
12026 2600 13361 1 149.00000 418.400000
12026 2601 12742 1 149.00000 418.400000
15984 2602 19246 1 149.00000 418.400000
14789 2603 19246 1 149.00000 418.400000
12027 2604 21307 1 149.00000 418.400000
21307 2605 21625 1 149.00000 418.400000
12028 2606 16564 1 149.00000 418.400000
14799 2607 16564 1 149.00000 418.400000
12028 2608 16480 1 149.00000 418.400000
12028 2609 15720 1 149.00000 418.400000
12029 2610 16274 1 149.00000 418.400000
12029 2611 13007 1 149.00000 418.400000
12029 2612 13854 1 149.00000 418.400000
12030 2613 12629 1 149.00000 418.400000
12030 2614 12591 1 149.00000 418.400000
12030 2615 13193 1 149.00000 418.400000
12031 2616 13149 1 149.00000 418.400000
12031 2617 13416 1 149.00000 418.400000
12031 2618 14505 1 149.00000 418.400000
12032 2619 16437 1 149.00000 418.400000
12032 2620 13103 1 149.00000 418.400000
12032 2621 16111 1 149.00000 418.400000
12032 2622 14167 1 149.00000 418.400000
12119 2623 21959 1 149.00000 418.400000
17680 2624 21959 1 149.00000 418.400000
12885 2625 13328 1 149.00000 418.400000
12033 2626 15232 1 149.00000 418.400000
12033 2627 13328 1 149.00000 418.400000
12033 2628 13292 1 149.00000 418.400000
12034 2629 15929 1 149.00000 418.400000
12034 2630 15205 1 149.00000 418.400000
12034 2631 13079 1 149.00000 418.400000
12035 2632 15975 1 149.00000 418.400000
12035 2633 21400 1 149.00000 418.400000
12035 2634 16474 1 149.00000 418.400000
12035 2635 15725 1 149.00000 418.400000
12036 2636 15799 1 149.00000 418.400000
12036 2637 13401 1 149.00000 418.400000
12036 2638 15326 1 149.00000 418.400000
12036 2639 15993 1 149.00000 418.400000
12037 2640 13351 1 149.00000 418.400000
12037 2641 15789 1 149.00000 418.400000
12037 2642 13791 1 149.00000 418.400000
12037 2643 13311 1 149.00000 418.400000
12038 2644 16611 1 149.00000 418.400000
12038 2645 13393 1 149.00000 418.400000
12038 2646 12659 1 149.00000 418.400000
12039 2647 13435 1 149.00000 418.400000
12039 2648 16419 1 149.00000 418.400000
15751 2649 16419 1 149.00000 418.400000
12039 2650 14296 1 149.00000 418.400000
12040 2651 21544 1 149.00000 418.400000
12040 2652 21943 1 149.00000 418.400000
12040 2653 16558 1 149.00000 418.400000
12041 2654 13559 1 149.00000 418.400000
12041 2655 14172 1 149.00000 418.400000
12041 2656 14843 1 149.00000 418.400000
12041 2657 16511 1 149.00000 418.400000
12042 2658 14906 1 149.00000 418.400000
12042 2659 12175 1 149.00000 418.400000
12043 2660 13421 1 149.00000 418.400000
12043 2661 13389 1 149.00000 418.400000
12043 2662 13690 1 149.00000 418.400000
12043 2663 16607 1 149.00000 418.400000
12044 2664 14485 1 149.00000 418.400000
12044 2665 13881 1 149.00000 418.400000
12045 2666 14308 1 149.00000 418.400000
12045 2667 20710 1 149.00000 418.400000
12046 2668 14550 1 149.00000 418.400000
12046 2669 14464 1 149.00000 418.400000
12046 2670 12876 1 149.00000 418.400000
12046 2671 12262 1 149.00000 418.400000
12047 2672 13242 1 149.00000 418.400000
12047 2673 13418 1 149.00000 418.400000
12047 2674 14180 1 149.00000 418.400000
12047 2675 12162 1 149.00000 418.400000
12048 2676 12695 1 149.00000 418.400000
12048 2677 15099 1 149.00000 418.400000
12048 2678 16292 1 149.00000 418.400000
12048 2679 13958 1 149.00000 418.400000
12049 2680 13437 1 149.00000 418.400000
12049 2681 13522 1 149.00000 418.400000
12049 2682 15785 1 149.00000 418.400000
14695 2683 15785 1 149.00000 418.400000
12050 2684 16644 1 149.00000 418.400000
12050 2685 12631 1 149.00000 418.400000
12050 2686 13234 1 149.00000 418.400000
12050 2687 16172 1 149.00000 418.400000
12051 2688 15749 1 149.00000 418.400000
12051 2689 15784 1 149.00000 418.400000
12051 2690 21544 1 149.00000 418.400000
12051 2691 13908 1 149.00000 418.400000
12052 2692 15356 1 149.00000 418.400000
12052 2693 14263 1 149.00000 418.400000
12052 2694 16337 1 149.00000 418.400000
12052 2695 12856 1 149.00000 418.400000
12053 2696 13266 1 149.00000 418.400000
12053 2697 12341 1 149.00000 418.400000
12053 2698 14953 1 149.00000 418.400000
12054 2699 15470 1 149.00000 418.400000
12054 2700 15024 1 149.00000 418.400000
12054 2701 13580 1 149.00000 418.400000
12055 2702 15748 1 149.00000 418.400000
12055 2703 14337 1 149.00000 418.400000
12055 2704 13561 1 149.00000 418.400000
12055 2705 14287 1 149.00000 418.400000
12056 2706 13269 1 149.00000 418.400000
12056 2707 12213 1 149.00000 418.400000
12056 2708 16245 1 149.00000 418.400000
12057 2709 13244 1 149.00000 418.400000
12057 2710 16366 1 149.00000 418.400000
12057 2711 16397 1 149.00000 418.400000
12057 2712 13122 1 149.00000 418.400000
12058 2713 13822 1 149.00000 418.400000
12058 2714 13582 1 149.00000 418.400000
12058 2715 12448 1 149.00000 418.400000
12058 2716 12911 1 149.00000 418.400000
12059 2717 16509 1 149.00000 418.400000
12059 2718 14671 1 149.00000 418.400000
12059 2719 13174 1 149.00000 418.400000
12059 2720 14958 1 149.00000 418.400000
12060 2721 16618 1 149.00000 418.400000
12060 2722 14536 1 149.00000 418.400000
12060 2723 12374 1 149.00000 418.400000
12060 2724 16123 1 149.00000 418.400000
12061 2725 16543 1 149.00000 418.400000
12061 2726 13673 1 149.00000 418.400000
12061 2727 15323 1 149.00000 418.400000
12061 2728 13410 1 149.00000 418.400000
15627 2729 21298 1 149.00000 418.400000
13186 2730 21298 1 149.00000 418.400000
13214 2731 21298 1 149.00000 418.400000
12062 2732 12668 1 149.00000 418.400000
12062 2733 14085 1 149.00000 418.400000
12062 2734 14649 1 149.00000 418.400000
12063 2735 13166 1 149.00000 418.400000
12063 2736 13557 1 149.00000 418.400000
12063 2737 16011 1 149.00000 418.400000
12064 2738 12272 1 149.00000 418.400000
12064 2739 13668 1 149.00000 418.400000
12064 2740 14862 1 149.00000 418.400000
12064 2741 14826 1 149.00000 418.400000
12065 2742 16089 1 149.00000 418.400000
12065 2743 16575 1 149.00000 418.400000
12065 2744 15737 1 149.00000 418.400000
12065 2745 12622 1 149.00000 418.400000
12066 2746 13617 1 149.00000 418.400000
12066 2747 21733 1 149.00000 418.400000
12066 2748 16561 1 149.00000 418.400000
12067 2749 13029 1 149.00000 418.400000
12067 2750 14434 1 149.00000 418.400000
12067 2751 15798 1 149.00000 418.400000
12067 2752 12687 1 149.00000 418.400000
12068 2753 14120 1 149.00000 418.400000
14634 2754 15717 1 149.00000 418.400000
12068 2755 14680 1 149.00000 418.400000
12068 2756 14634 1 149.00000 418.400000
12069 2757 12465 1 149.00000 418.400000
12069 2758 13129 1 149.00000 418.400000
12069 2759 13646 1 149.00000 418.400000
12069 2760 13414 1 149.00000 418.400000
12070 2761 15259 1 149.00000 418.400000
12070 2762 14611 1 149.00000 418.400000
12070 2763 14206 1 149.00000 418.400000
12071 2764 12827 1 149.00000 418.400000
12071 2765 15496 1 149.00000 418.400000
12071 2766 14044 1 149.00000 418.400000
12071 2767 14517 1 149.00000 418.400000
12072 2768 15935 1 149.00000 418.400000
12072 2769 15860 1 149.00000 418.400000
12072 2770 12116 1 149.00000 418.400000
12073 2771 16552 1 149.00000 418.400000
13712 2772 14185 1 149.00000 418.400000
12073 2773 13712 1 149.00000 418.400000
12073 2774 15030 1 149.00000 418.400000
15018 2775 21301 1 149.00000 418.400000
15552 2776 21301 1 149.00000 418.400000
12074 2777 15548 1 149.00000 418.400000
12074 2778 12546 1 149.00000 418.400000
12074 2779 15746 1 149.00000 418.400000
12075 2780 20530 1 149.00000 418.400000
12075 2781 13369 1 149.00000 418.400000
12075 2782 14429 1 149.00000 418.400000
12075 2783 14524 1 149.00000 418.400000
12076 2784 15683 1 149.00000 418.400000
12076 2785 14291 1 149.00000 418.400000
12076 2786 14201 1 149.00000 418.400000
12076 2787 13289 1 149.00000 418.400000
12077 2788 13983 1 149.00000 418.400000
12077 2789 12816 1 149.00000 418.400000
12077 2790 15851 1 149.00000 418.400000
12078 2791 12670 1 149.00000 418.400000
12078 2792 14031 1 149.00000 418.400000
12670 2793 12999 1 149.00000 418.400000
12079 2794 16620 1 149.00000 418.400000
12079 2795 15522 1 149.00000 418.400000
12079 2796 14973 1 149.00000 418.400000
14001 2797 15522 1 149.00000 418.400000
12080 2798 16230 1 149.00000 418.400000
12080 2799 15851 1 149.00000 418.400000
12081 2800 14305 1 149.00000 418.400000
12081 2801 15025 1 149.00000 418.400000
12981 2802 14305 1 149.00000 418.400000
12082 2803 14535 1 149.00000 418.400000
12082 2804 14844 1 149.00000 418.400000
12082 2805 14505 1 149.00000 418.400000
12083 2806 12764 1 149.00000 418.400000
12083 2807 14258 1 149.00000 418.400000
12083 2808 15768 1 149.00000 418.400000
12083 2809 13091 1 149.00000 418.400000
12084 2810 14134 1 149.00000 418.400000
12084 2811 14344 1 149.00000 418.400000
12084 2812 15500 1 149.00000 418.400000
12084 2813 15069 1 149.00000 418.400000
12085 2814 14887 1 149.00000 418.400000
13812 2815 13872 1 149.00000 418.400000
12085 2816 15947 1 149.00000 418.400000
11480 2817 13812 1 149.00000 418.400000
12086 2818 12355 1 149.00000 418.400000
12086 2819 13956 1 149.00000 418.400000
12086 2820 16085 1 149.00000 418.400000
12086 2821 13607 1 149.00000 418.400000
12087 2822 15934 1 149.00000 418.400000
12087 2823 16605 1 149.00000 418.400000
12087 2824 16158 1 149.00000 418.400000
12088 2825 15648 1 149.00000 418.400000
12088 2826 16513 1 149.00000 418.400000
12088 2827 14384 1 149.00000 418.400000
12088 2828 16475 1 149.00000 418.400000
12089 2829 16290 1 149.00000 418.400000
12089 2830 16114 1 149.00000 418.400000
12089 2831 13985 1 149.00000 418.400000
12090 2832 12259 1 149.00000 418.400000
12090 2833 12635 1 149.00000 418.400000
12091 2834 12118 1 149.00000 418.400000
12091 2835 14640 1 149.00000 418.400000
12091 2836 12519 1 149.00000 418.400000
12092 2837 15465 1 149.00000 418.400000
12092 2838 15621 1 149.00000 418.400000
12092 2839 15447 1 149.00000 418.400000
12093 2840 13001 1 149.00000 418.400000
12093 2841 14714 1 149.00000 418.400000
12093 2842 12991 1 149.00000 418.400000
12093 2843 12601 1 149.00000 418.400000
12094 2844 14172 1 149.00000 418.400000
12094 2845 12319 1 149.00000 418.400000
12094 2846 14652 1 149.00000 418.400000
12094 2847 13534 1 149.00000 418.400000
12095 2848 13906 1 149.00000 418.400000
12095 2849 15242 1 149.00000 418.400000
12095 2850 12290 1 149.00000 418.400000
12096 2851 12845 1 149.00000 418.400000
12096 2852 12783 1 149.00000 418.400000
12096 2853 14139 1 149.00000 418.400000
12097 2854 15958 1 149.00000 418.400000
12097 2855 13856 1 149.00000 418.400000
12097 2856 14142 1 149.00000 418.400000
12098 2857 12329 1 149.00000 418.400000
12099 2858 13702 1 149.00000 418.400000
12099 2859 13473 1 149.00000 418.400000
12099 2860 15365 1 149.00000 418.400000
13702 2861 15252 1 149.00000 418.400000
12100 2862 13667 1 149.00000 418.400000
12100 2863 16394 1 149.00000 418.400000
12101 2864 12603 1 149.00000 418.400000
12101 2865 12684 1 149.00000 418.400000
12684 2866 15560 1 149.00000 418.400000
12102 2867 15267 1 149.00000 418.400000
12102 2868 16317 1 149.00000 418.400000
12102 2869 14398 1 149.00000 418.400000
12102 2870 13456 1 149.00000 418.400000
12103 2871 15810 1 149.00000 418.400000
12103 2872 12901 1 149.00000 418.400000
12103 2873 14244 1 149.00000 418.400000
12104 2874 14163 1 149.00000 418.400000
12104 2875 13670 1 149.00000 418.400000
12104 2876 14294 1 149.00000 418.400000
12105 2877 13833 1 149.00000 418.400000
12105 2878 12171 1 149.00000 418.400000
12105 2879 12576 1 149.00000 418.400000
12106 2880 12199 1 149.00000 418.400000
12106 2881 14387 1 149.00000 418.400000
12106 2882 12948 1 149.00000 418.400000
12106 2883 12735 1 149.00000 418.400000
12107 2884 15686 1 149.00000 418.400000
12107 2885 13502 1 149.00000 418.400000
12108 2886 15620 1 149.00000 418.400000
12108 2887 16580 1 149.00000 418.400000
12108 2888 13943 1 149.00000 418.400000
12109 2889 14552 1 149.00000 418.400000
12109 2890 21724 1 149.00000 418.400000
12109 2891 14759 1 149.00000 418.400000
12110 2892 13217 1 149.00000 418.400000
12110 2893 21913 1 149.00000 418.400000
12399 2894 14607 1 149.00000 418.400000
12110 2895 14607 1 149.00000 418.400000
12111 2896 13101 1 149.00000 418.400000
12111 2897 13137 1 149.00000 418.400000
12111 2898 14998 1 149.00000 418.400000
12111 2899 18502 1 149.00000 418.400000
12112 2900 15059 1 149.00000 418.400000
12112 2901 13522 1 149.00000 418.400000
12112 2902 14883 1 149.00000 418.400000
12113 2903 13058 1 149.00000 418.400000
12113 2904 16110 1 149.00000 418.400000
12113 2905 15683 1 149.00000 418.400000
12114 2906 13794 1 149.00000 418.400000
13413 2907 16168 1 149.00000 418.400000
12114 2908 16168 1 149.00000 418.400000
12115 2909 15138 1 149.00000 418.400000
12115 2910 14410 1 149.00000 418.400000
12115 2911 14422 1 149.00000 418.400000
12116 2912 15096 1 149.00000 418.400000
12116 2913 14953 1 149.00000 418.400000
12116 2914 21931 1 149.00000 418.400000
12117 2915 16160 1 149.00000 418.400000
12117 2916 15695 1 149.00000 418.400000
12117 2917 12595 1 149.00000 418.400000
12118 2918 15078 1 149.00000 418.400000
12118 2919 12238 1 149.00000 418.400000
12118 2920 16581 1 149.00000 418.400000
16223 2921 21304 1 149.00000 418.400000
14673 2922 21304 1 149.00000 418.400000
12120 2923 16609 1 149.00000 418.400000
12120 2924 15655 1 149.00000 418.400000
12120 2925 16405 1 149.00000 418.400000
12120 2926 16080 1 149.00000 418.400000
12121 2927 15833 1 149.00000 418.400000
12121 2928 16376 1 149.00000 418.400000
12121 2929 16183 1 149.00000 418.400000
12121 2930 15602 1 149.00000 418.400000
12122 2931 14135 1 149.00000 418.400000
12122 2932 12980 1 149.00000 418.400000
12122 2933 13668 1 149.00000 418.400000
12123 2934 16435 1 149.00000 418.400000
12123 2935 12175 1 149.00000 418.400000
12123 2936 14168 1 149.00000 418.400000
12124 2937 12774 1 149.00000 418.400000
12124 2938 15042 1 149.00000 418.400000
12124 2939 15019 1 149.00000 418.400000
12125 2940 16442 1 149.00000 418.400000
12125 2941 12446 1 149.00000 418.400000
11629 2942 12125 1 149.00000 418.400000
12446 2943 14143 1 149.00000 418.400000
13934 2944 19474 1 149.00000 418.400000
14805 2945 19474 1 149.00000 418.400000
16087 2946 19474 1 149.00000 418.400000
12126 2947 15576 1 149.00000 418.400000
12126 2948 13330 1 149.00000 418.400000
12126 2949 15738 1 149.00000 418.400000
12126 2950 16336 1 149.00000 418.400000
16406 2951 16495 1 149.00000 418.400000
16406 2952 19846 1 149.00000 418.400000
12127 2953 16406 1 149.00000 418.400000
14288 2954 16406 1 149.00000 418.400000
12128 2955 15009 1 149.00000 418.400000
12128 2956 16303 1 149.00000 418.400000
12128 2957 13903 1 149.00000 418.400000
12129 2958 15248 1 149.00000 418.400000
12129 2959 15633 1 149.00000 418.400000
12129 2960 14637 1 149.00000 418.400000
12129 2961 15926 1 149.00000 418.400000
12130 2962 13260 1 149.00000 418.400000
12130 2963 20134 1 149.00000 418.400000
12130 2964 13143 1 149.00000 418.400000
12130 2965 21796 1 149.00000 418.400000
12131 2966 13705 1 149.00000 418.400000
12131 2967 13181 1 149.00000 418.400000
12131 2968 14569 1 149.00000 418.400000
12131 2969 15849 1 149.00000 418.400000
12132 2970 15763 1 149.00000 418.400000
12132 2971 12666 1 149.00000 418.400000
12359 2972 12666 1 149.00000 418.400000
12132 2973 14050 1 149.00000 418.400000
12133 2974 12372 1 149.00000 418.400000
12133 2975 13305 1 149.00000 418.400000
12133 2976 13685 1 149.00000 418.400000
12133 2977 14420 1 149.00000 418.400000
12134 2978 14476 1 149.00000 418.400000
12134 2979 13074 1 149.00000 418.400000
12134 2980 16471 1 149.00000 418.400000
12134 2981 16409 1 149.00000 418.400000
12135 2982 13847 1 149.00000 418.400000
12135 2983 13107 1 149.00000 418.400000
12135 2984 13352 1 149.00000 418.400000
12135 2985 12777 1 149.00000 418.400000
14628 2986 21106 1 149.00000 418.400000
15038 2987 21106 1 149.00000 418.400000
14782 2988 21106 1 149.00000 418.400000
12027 2989 16499 1 149.00000 418.400000
12027 2990 17260 1 149.00000 418.400000
21307 2991 21661 1 149.00000 418.400000
15190 2992 15740 1 149.00000 418.400000
12401 2993 15740 1 149.00000 418.400000
12779 2994 15740 1 149.00000 418.400000
15740 2995 21310 1 149.00000 418.400000
12136 2996 21766 1 149.00000 418.400000
12136 2997 12758 1 149.00000 418.400000
12137 2998 14956 1 149.00000 418.400000
12137 2999 16506 1 149.00000 418.400000
12137 3000 15187 1 149.00000 418.400000
12137 3001 12662 1 149.00000 418.400000
12138 3002 12296 1 149.00000 418.400000
12138 3003 14811 1 149.00000 418.400000
12139 3004 13848 1 149.00000 418.400000
12139 3005 13013 1 149.00000 418.400000
12139 3006 14203 1 149.00000 418.400000
12140 3007 16231 1 149.00000 418.400000
13713 3008 13892 1 149.00000 418.400000
12140 3009 14461 1 149.00000 418.400000
12140 3010 13892 1 149.00000 418.400000
12141 3011 16610 1 149.00000 418.400000
12141 3012 13375 1 149.00000 418.400000
12141 3013 16590 1 149.00000 418.400000
12141 3014 15931 1 149.00000 418.400000
12142 3015 12687 1 149.00000 418.400000
12142 3016 16533 1 149.00000 418.400000
12142 3017 14336 1 149.00000 418.400000
12143 3018 14413 1 149.00000 418.400000
12143 3019 14963 1 149.00000 418.400000
12143 3020 14232 1 149.00000 418.400000
12143 3021 16076 1 149.00000 418.400000
12144 3022 14128 1 149.00000 418.400000
12144 3023 12256 1 149.00000 418.400000
12144 3024 15329 1 149.00000 418.400000
12145 3025 13912 1 149.00000 418.400000
12145 3026 12439 1 149.00000 418.400000
12145 3027 16412 1 149.00000 418.400000
12145 3028 13904 1 149.00000 418.400000
12146 3029 15847 1 149.00000 418.400000
12146 3030 15586 1 149.00000 418.400000
12146 3031 12594 1 149.00000 418.400000
12146 3032 12322 1 149.00000 418.400000
12147 3033 16009 1 149.00000 418.400000
12147 3034 12836 1 149.00000 418.400000
12147 3035 21046 1 149.00000 418.400000
12148 3036 15618 1 149.00000 418.400000
12148 3037 12864 1 149.00000 418.400000
12148 3038 12240 1 149.00000 418.400000
12149 3039 17134 1 149.00000 418.400000
12149 3040 14910 1 149.00000 418.400000
12149 3041 15852 1 149.00000 418.400000
12150 3042 14566 1 149.00000 418.400000
12151 3043 15893 1 149.00000 418.400000
12151 3044 15118 1 149.00000 418.400000
12151 3045 12964 1 149.00000 418.400000
15274 3046 15893 1 149.00000 418.400000
12152 3047 16527 1 149.00000 418.400000
12152 3048 16565 1 149.00000 418.400000
12153 3049 14258 1 149.00000 418.400000
12153 3050 15767 1 149.00000 418.400000
12153 3051 13023 1 149.00000 418.400000
12153 3052 16291 1 149.00000 418.400000
12154 3053 15629 1 149.00000 418.400000
11413 3054 12154 1 149.00000 418.400000
12154 3055 15126 1 149.00000 418.400000
11786 3056 12912 1 149.00000 418.400000
11649 3057 15201 1 149.00000 418.400000
12156 3058 14303 1 149.00000 418.400000
12156 3059 16131 1 149.00000 418.400000
12156 3060 15862 1 149.00000 418.400000
12157 3061 13268 1 149.00000 418.400000
12157 3062 16432 1 149.00000 418.400000
12158 3063 12376 1 149.00000 418.400000
12158 3064 13876 1 149.00000 418.400000
12158 3065 13715 1 149.00000 418.400000
12158 3066 16331 1 149.00000 418.400000
12159 3067 14204 1 149.00000 418.400000
12159 3068 14646 1 149.00000 418.400000
12159 3069 16581 1 149.00000 418.400000
12160 3070 14492 1 149.00000 418.400000
12160 3071 21790 1 149.00000 418.400000
12160 3072 21730 1 149.00000 418.400000
12160 3073 16394 1 149.00000 418.400000
12161 3074 12997 1 149.00000 418.400000
12161 3075 15945 1 149.00000 418.400000
12161 3076 14066 1 149.00000 418.400000
12162 3077 13503 1 149.00000 418.400000
12162 3078 16179 1 149.00000 418.400000
12162 3079 15557 1 149.00000 418.400000
12163 3080 16023 1 149.00000 418.400000
12163 3081 16472 1 149.00000 418.400000
12164 3082 16192 1 149.00000 418.400000
12164 3083 16293 1 149.00000 418.400000
13515 3084 14811 1 149.00000 418.400000
12165 3085 16018 1 149.00000 418.400000
12165 3086 13515 1 149.00000 418.400000
12166 3087 13643 1 149.00000 418.400000
12166 3088 12537 1 149.00000 418.400000
12166 3089 14674 1 149.00000 418.400000
12167 3090 13177 1 149.00000 418.400000
12167 3091 12944 1 149.00000 418.400000
12167 3092 14129 1 149.00000 418.400000
12167 3093 12207 1 149.00000 418.400000
12168 3094 14727 1 149.00000 418.400000
12168 3095 12782 1 149.00000 418.400000
12168 3096 14828 1 149.00000 418.400000
12169 3097 13708 1 149.00000 418.400000
12169 3098 13799 1 149.00000 418.400000
12169 3099 15806 1 149.00000 418.400000
12170 3100 16058 1 149.00000 418.400000
12170 3101 14466 1 149.00000 418.400000
12171 3102 14487 1 149.00000 418.400000
12171 3103 12947 1 149.00000 418.400000
12172 3104 14730 1 149.00000 418.400000
12172 3105 20782 1 149.00000 418.400000
12172 3106 18814 1 149.00000 418.400000
15383 3107 16237 1 149.00000 418.400000
12507 3108 15383 1 149.00000 418.400000
16882 3109 21316 1 149.00000 418.400000
12173 3110 16379 1 149.00000 418.400000
12173 3111 13473 1 149.00000 418.400000
12173 3112 14248 1 149.00000 418.400000
12174 3113 14161 1 149.00000 418.400000
12174 3114 16502 1 149.00000 418.400000
12174 3115 12879 1 149.00000 418.400000
12174 3116 16424 1 149.00000 418.400000
12175 3117 13176 1 149.00000 418.400000
12175 3118 14164 1 149.00000 418.400000
21319 3119 21688 1 149.00000 418.400000
14824 3120 21319 1 149.00000 418.400000
15385 3121 21319 1 149.00000 418.400000
12176 3122 14797 1 149.00000 418.400000
12176 3123 14939 1 149.00000 418.400000
12176 3124 15305 1 149.00000 418.400000
12176 3125 15404 1 149.00000 418.400000
12177 3126 14576 1 149.00000 418.400000
12177 3127 15662 1 149.00000 418.400000
12177 3128 16437 1 149.00000 418.400000
12177 3129 16519 1 149.00000 418.400000
12178 3130 14495 1 149.00000 418.400000
12178 3131 13568 1 149.00000 418.400000
12178 3132 12256 1 149.00000 418.400000
14058 3133 20770 1 149.00000 418.400000
12179 3134 14058 1 149.00000 418.400000
14058 3135 15139 1 149.00000 418.400000
12179 3136 15572 1 149.00000 418.400000
12180 3137 15957 1 149.00000 418.400000
12180 3138 15177 1 149.00000 418.400000
12180 3139 13491 1 149.00000 418.400000
12181 3140 16161 1 149.00000 418.400000
12181 3141 15360 1 149.00000 418.400000
12181 3142 13095 1 149.00000 418.400000
12181 3143 13918 1 149.00000 418.400000
12182 3144 14067 1 149.00000 418.400000
12182 3145 14823 1 149.00000 418.400000
12182 3146 13348 1 149.00000 418.400000
15657 3147 21322 1 149.00000 418.400000
17988 3148 18586 1 149.00000 418.400000
15861 3149 17988 1 149.00000 418.400000
12183 3150 13903 1 149.00000 418.400000
12183 3151 13338 1 149.00000 418.400000
12183 3152 12229 1 149.00000 418.400000
12183 3153 13017 1 149.00000 418.400000
12184 3154 15634 1 149.00000 418.400000
12184 3155 16120 1 149.00000 418.400000
12184 3156 13258 1 149.00000 418.400000
12185 3157 13866 1 149.00000 418.400000
12185 3158 15811 1 149.00000 418.400000
12185 3159 16135 1 149.00000 418.400000
12185 3160 15061 1 149.00000 418.400000
16579 3161 16882 1 149.00000 418.400000
12186 3162 16380 1 149.00000 418.400000
12186 3163 15014 1 149.00000 418.400000
12186 3164 12516 1 149.00000 418.400000
12187 3165 13823 1 149.00000 418.400000
12187 3166 13792 1 149.00000 418.400000
12187 3167 12223 1 149.00000 418.400000
12187 3168 12467 1 149.00000 418.400000
12188 3169 14757 1 149.00000 418.400000
12188 3170 14970 1 149.00000 418.400000
12188 3171 12976 1 149.00000 418.400000
12188 3172 12986 1 149.00000 418.400000
12189 3173 13667 1 149.00000 418.400000
12189 3174 14301 1 149.00000 418.400000
12189 3175 12965 1 149.00000 418.400000
12189 3176 12896 1 149.00000 418.400000
12190 3177 13494 1 149.00000 418.400000
12190 3178 14917 1 149.00000 418.400000
12190 3179 13861 1 149.00000 418.400000
12190 3180 12771 1 149.00000 418.400000
12191 3181 13378 1 149.00000 418.400000
12191 3182 13571 1 149.00000 418.400000
12191 3183 15439 1 149.00000 418.400000
16980 3184 21175 1 149.00000 418.400000
12192 3185 16284 1 149.00000 418.400000
12192 3186 12918 1 149.00000 418.400000
12192 3187 14425 1 149.00000 418.400000
14674 3188 21325 1 149.00000 418.400000
19762 3189 21325 1 149.00000 418.400000
12193 3190 14309 1 149.00000 418.400000
12193 3191 13776 1 149.00000 418.400000
12193 3192 15914 1 149.00000 418.400000
12193 3193 12445 1 149.00000 418.400000
12194 3194 16181 1 149.00000 418.400000
12194 3195 19654 1 149.00000 418.400000
12365 3196 16181 1 149.00000 418.400000
12194 3197 13983 1 149.00000 418.400000
12195 3198 16418 1 149.00000 418.400000
12195 3199 13367 1 149.00000 418.400000
12195 3200 13552 1 149.00000 418.400000
12195 3201 16620 1 149.00000 418.400000
12196 3202 13826 1 149.00000 418.400000
12196 3203 13491 1 149.00000 418.400000
12196 3204 14954 1 149.00000 418.400000
12196 3205 14376 1 149.00000 418.400000
12197 3206 15947 1 149.00000 418.400000
12197 3207 18100 1 149.00000 418.400000
12197 3208 14120 1 149.00000 418.400000
12198 3209 15147 1 149.00000 418.400000
12198 3210 14226 1 149.00000 418.400000
12198 3211 15805 1 149.00000 418.400000
12198 3212 15165 1 149.00000 418.400000
12199 3213 12250 1 149.00000 418.400000
12279 3214 14946 1 149.00000 418.400000
12199 3215 12279 1 149.00000 418.400000
12200 3216 13025 1 149.00000 418.400000
12200 3217 12213 1 149.00000 418.400000
12200 3218 14593 1 149.00000 418.400000
12201 3219 21388 1 149.00000 418.400000
12201 3220 14468 1 149.00000 418.400000
12201 3221 21910 1 149.00000 418.400000
12201 3222 12213 1 149.00000 418.400000
16672 3223 20722 1 149.00000 418.400000
15978 3224 16672 1 149.00000 418.400000
12202 3225 16282 1 149.00000 418.400000
12202 3226 14132 1 149.00000 418.400000
12202 3227 13199 1 149.00000 418.400000
12202 3228 13546 1 149.00000 418.400000
12203 3229 15475 1 149.00000 418.400000
12203 3230 13580 1 149.00000 418.400000
12203 3231 12586 1 149.00000 418.400000
12203 3232 12474 1 149.00000 418.400000
12204 3233 13026 1 149.00000 418.400000
11715 3234 12485 1 149.00000 418.400000
11715 3235 13897 1 149.00000 418.400000
12205 3236 13123 1 149.00000 418.400000
12205 3237 15170 1 149.00000 418.400000
12205 3238 16624 1 149.00000 418.400000
12205 3239 13203 1 149.00000 418.400000
12206 3240 13888 1 149.00000 418.400000
12206 3241 15046 1 149.00000 418.400000
12206 3242 15996 1 149.00000 418.400000
12207 3243 15579 1 149.00000 418.400000
12207 3244 13460 1 149.00000 418.400000
12207 3245 12863 1 149.00000 418.400000
12208 3246 12986 1 149.00000 418.400000
12208 3247 13643 1 149.00000 418.400000
12208 3248 21325 1 149.00000 418.400000
12208 3249 12408 1 149.00000 418.400000
12209 3250 12390 1 149.00000 418.400000
12209 3251 14256 1 149.00000 418.400000
12209 3252 13835 1 149.00000 418.400000
12210 3253 12958 1 149.00000 418.400000
12210 3254 15761 1 149.00000 418.400000
12210 3255 13034 1 149.00000 418.400000
12211 3256 16246 1 149.00000 418.400000
12211 3257 14233 1 149.00000 418.400000
12211 3258 15505 1 149.00000 418.400000
12211 3259 12318 1 149.00000 418.400000
12212 3260 13797 1 149.00000 418.400000
12212 3261 13706 1 149.00000 418.400000
12212 3262 13580 1 149.00000 418.400000
12212 3263 13909 1 149.00000 418.400000
12213 3264 14179 1 149.00000 418.400000
12214 3265 13095 1 149.00000 418.400000
12214 3266 12575 1 149.00000 418.400000
12214 3267 12975 1 149.00000 418.400000
12214 3268 13420 1 149.00000 418.400000
12215 3269 15608 1 149.00000 418.400000
12215 3270 13625 1 149.00000 418.400000
12215 3271 12566 1 149.00000 418.400000
12215 3272 14480 1 149.00000 418.400000
12216 3273 13367 1 149.00000 418.400000
12216 3274 12327 1 149.00000 418.400000
12216 3275 16594 1 149.00000 418.400000
12216 3276 15726 1 149.00000 418.400000
12217 3277 15471 1 149.00000 418.400000
12217 3278 14954 1 149.00000 418.400000
12218 3279 12407 1 149.00000 418.400000
12218 3280 15390 1 149.00000 418.400000
12218 3281 13546 1 149.00000 418.400000
12219 3282 16516 1 149.00000 418.400000
12219 3283 16605 1 149.00000 418.400000
12482 3284 17120 1 149.00000 418.400000
14882 3285 17120 1 149.00000 418.400000
12220 3286 13155 1 149.00000 418.400000
12220 3287 15770 1 149.00000 418.400000
12221 3288 13585 1 149.00000 418.400000
12221 3289 13360 1 149.00000 418.400000
12221 3290 13210 1 149.00000 418.400000
12905 3291 13489 1 149.00000 418.400000
12222 3292 13468 1 149.00000 418.400000
12222 3293 12905 1 149.00000 418.400000
12222 3294 13334 1 149.00000 418.400000
12223 3295 13513 1 149.00000 418.400000
12223 3296 14940 1 149.00000 418.400000
12223 3297 13978 1 149.00000 418.400000
13224 3298 13806 1 149.00000 418.400000
12224 3299 12716 1 149.00000 418.400000
12224 3300 13224 1 149.00000 418.400000
12224 3301 12850 1 149.00000 418.400000
20038 3302 21328 1 149.00000 418.400000
18184 3303 21328 1 149.00000 418.400000
15417 3304 21328 1 149.00000 418.400000
12225 3305 15375 1 149.00000 418.400000
12225 3306 14250 1 149.00000 418.400000
12225 3307 15109 1 149.00000 418.400000
12225 3308 12434 1 149.00000 418.400000
12049 3309 12226 1 149.00000 418.400000
12226 3310 12733 1 149.00000 418.400000
12226 3311 13688 1 149.00000 418.400000
12226 3312 16196 1 149.00000 418.400000
12227 3313 15891 1 149.00000 418.400000
12227 3314 16014 1 149.00000 418.400000
12227 3315 12352 1 149.00000 418.400000
12227 3316 16197 1 149.00000 418.400000
12228 3317 14339 1 149.00000 418.400000
12228 3318 15922 1 149.00000 418.400000
12228 3319 14430 1 149.00000 418.400000
12229 3320 15598 1 149.00000 418.400000
12229 3321 16184 1 149.00000 418.400000
12229 3322 13651 1 149.00000 418.400000
12230 3323 14735 1 149.00000 418.400000
12230 3324 13115 1 149.00000 418.400000
12231 3325 13387 1 149.00000 418.400000
12231 3326 14381 1 149.00000 418.400000
12231 3327 13548 1 149.00000 418.400000
13098 3328 14381 1 149.00000 418.400000
12232 3329 13670 1 149.00000 418.400000
12232 3330 13380 1 149.00000 418.400000
12232 3331 12830 1 149.00000 418.400000
12232 3332 14456 1 149.00000 418.400000
12233 3333 19390 1 149.00000 418.400000
12233 3334 14053 1 149.00000 418.400000
12233 3335 14016 1 149.00000 418.400000
12234 3336 15422 1 149.00000 418.400000
12234 3337 12668 1 149.00000 418.400000
15628 3338 21331 1 149.00000 418.400000
15999 3339 21331 1 149.00000 418.400000
12235 3340 13613 1 149.00000 418.400000
12235 3341 13221 1 149.00000 418.400000
12235 3342 13324 1 149.00000 418.400000
12235 3343 15833 1 149.00000 418.400000
12236 3344 13778 1 149.00000 418.400000
12236 3345 18442 1 149.00000 418.400000
12236 3346 12600 1 149.00000 418.400000
12236 3347 21874 1 149.00000 418.400000
12237 3348 14747 1 149.00000 418.400000
12237 3349 14495 1 149.00000 418.400000
12237 3350 12565 1 149.00000 418.400000
13815 3351 21334 1 149.00000 418.400000
15213 3352 21334 1 149.00000 418.400000
19774 3353 21334 1 149.00000 418.400000
12238 3354 14605 1 149.00000 418.400000
12238 3355 16193 1 149.00000 418.400000
12238 3356 14646 1 149.00000 418.400000
14050 3357 16616 1 149.00000 418.400000
12239 3358 18922 1 149.00000 418.400000
12239 3359 14050 1 149.00000 418.400000
12239 3360 12453 1 149.00000 418.400000
12240 3361 14548 1 149.00000 418.400000
12240 3362 16324 1 149.00000 418.400000
12240 3363 13028 1 149.00000 418.400000
12241 3364 12485 1 149.00000 418.400000
12241 3365 18184 1 149.00000 418.400000
13520 3366 16417 1 149.00000 418.400000
12241 3367 13520 1 149.00000 418.400000
12242 3368 13159 1 149.00000 418.400000
12242 3369 13170 1 149.00000 418.400000
12242 3370 15771 1 149.00000 418.400000
13373 3371 21337 1 149.00000 418.400000
12243 3372 13521 1 149.00000 418.400000
12243 3373 13149 1 149.00000 418.400000
12243 3374 12259 1 149.00000 418.400000
12243 3375 15398 1 149.00000 418.400000
14596 3376 18694 1 149.00000 418.400000
15363 3377 18694 1 149.00000 418.400000
15322 3378 18694 1 149.00000 418.400000
13358 3379 18072 1 149.00000 418.400000
15458 3380 18072 1 149.00000 418.400000
12244 3381 14773 1 149.00000 418.400000
12244 3382 14658 1 149.00000 418.400000
12244 3383 12728 1 149.00000 418.400000
12244 3384 14022 1 149.00000 418.400000
14965 3385 19858 1 149.00000 418.400000
12779 3386 19858 1 149.00000 418.400000
13452 3387 19858 1 149.00000 418.400000
12245 3388 15917 1 149.00000 418.400000
12245 3389 13085 1 149.00000 418.400000
12245 3390 14413 1 149.00000 418.400000
12245 3391 13657 1 149.00000 418.400000
12246 3392 14251 1 149.00000 418.400000
12246 3393 12873 1 149.00000 418.400000
12246 3394 16543 1 149.00000 418.400000
12246 3395 13629 1 149.00000 418.400000
12247 3396 12512 1 149.00000 418.400000
12247 3397 14178 1 149.00000 418.400000
12247 3398 16498 1 149.00000 418.400000
12248 3399 16045 1 149.00000 418.400000
12248 3400 13448 1 149.00000 418.400000
12248 3401 13860 1 149.00000 418.400000
12249 3402 14778 1 149.00000 418.400000
12249 3403 13727 1 149.00000 418.400000
12249 3404 15278 1 149.00000 418.400000
12249 3405 14181 1 149.00000 418.400000
12250 3406 16207 1 149.00000 418.400000
12551 3407 14891 1 149.00000 418.400000
12251 3408 12551 1 149.00000 418.400000
12251 3409 15237 1 149.00000 418.400000
12252 3410 16265 1 149.00000 418.400000
12252 3411 16441 1 149.00000 418.400000
12252 3412 14446 1 149.00000 418.400000
12252 3413 16346 1 149.00000 418.400000
12253 3414 13031 1 149.00000 418.400000
13031 3415 14059 1 149.00000 418.400000
12253 3416 12842 1 149.00000 418.400000
14661 3417 21340 1 149.00000 418.400000
16285 3418 21340 1 149.00000 418.400000
21340 3419 21514 1 149.00000 418.400000
12254 3420 14624 1 149.00000 418.400000
12254 3421 15073 1 149.00000 418.400000
12254 3422 15632 1 149.00000 418.400000
12254 3423 15668 1 149.00000 418.400000
15616 3424 21343 1 149.00000 418.400000
13774 3425 21343 1 149.00000 418.400000
12255 3426 15477 1 149.00000 418.400000
12255 3427 13988 1 149.00000 418.400000
12255 3428 15988 1 149.00000 418.400000
12255 3429 14655 1 149.00000 418.400000
15299 3430 21346 1 149.00000 418.400000
14395 3431 21346 1 149.00000 418.400000
12117 3432 12256 1 149.00000 418.400000
12256 3433 14052 1 149.00000 418.400000
12269 3434 21313 1 149.00000 418.400000
12257 3435 14685 1 149.00000 418.400000
12257 3436 12297 1 149.00000 418.400000
12257 3437 14876 1 149.00000 418.400000
12257 3438 14620 1 149.00000 418.400000
12258 3439 12873 1 149.00000 418.400000
12258 3440 12931 1 149.00000 418.400000
12258 3441 16415 1 149.00000 418.400000
12258 3442 15456 1 149.00000 418.400000
12259 3443 18406 1 149.00000 418.400000
12260 3444 13009 1 149.00000 418.400000
12260 3445 13417 1 149.00000 418.400000
12260 3446 13675 1 149.00000 418.400000
12260 3447 13478 1 149.00000 418.400000
12261 3448 12889 1 149.00000 418.400000
12261 3449 14523 1 149.00000 418.400000
12199 3450 12261 1 149.00000 418.400000
12261 3451 15658 1 149.00000 418.400000
12262 3452 14547 1 149.00000 418.400000
12262 3453 13223 1 149.00000 418.400000
12263 3454 14666 1 149.00000 418.400000
12263 3455 12294 1 149.00000 418.400000
12263 3456 15725 1 149.00000 418.400000
12264 3457 16191 1 149.00000 418.400000
14689 3458 16551 1 149.00000 418.400000
12264 3459 12843 1 149.00000 418.400000
12265 3460 15622 1 149.00000 418.400000
12265 3461 14229 1 149.00000 418.400000
12265 3462 15830 1 149.00000 418.400000
12265 3463 19174 1 149.00000 418.400000
11550 3464 12266 1 149.00000 418.400000
12266 3465 14737 1 149.00000 418.400000
12266 3466 15114 1 149.00000 418.400000
12266 3467 15979 1 149.00000 418.400000
12267 3468 15903 1 149.00000 418.400000
12267 3469 14044 1 149.00000 418.400000
12267 3470 21904 1 149.00000 418.400000
12268 3471 13532 1 149.00000 418.400000
12268 3472 14926 1 149.00000 418.400000
12268 3473 14921 1 149.00000 418.400000
12268 3474 13341 1 149.00000 418.400000
12269 3475 15594 1 149.00000 418.400000
12269 3476 14285 1 149.00000 418.400000
12270 3477 12348 1 149.00000 418.400000
12270 3478 14138 1 149.00000 418.400000
12270 3479 18766 1 149.00000 418.400000
12271 3480 13345 1 149.00000 418.400000
12271 3481 15912 1 149.00000 418.400000
12271 3482 14157 1 149.00000 418.400000
12271 3483 13869 1 149.00000 418.400000
12272 3484 14884 1 149.00000 418.400000
12272 3485 16615 1 149.00000 418.400000
15436 3486 19558 1 149.00000 418.400000
13339 3487 19558 1 149.00000 418.400000
14788 3488 19558 1 149.00000 418.400000
12273 3489 16447 1 149.00000 418.400000
12273 3490 17974 1 149.00000 418.400000
12273 3491 13127 1 149.00000 418.400000
13408 3492 15206 1 149.00000 418.400000
13408 3493 18874 1 149.00000 418.400000
14274 3494 16157 1 149.00000 418.400000
12274 3495 13640 1 149.00000 418.400000
12274 3496 15086 1 149.00000 418.400000
12274 3497 15814 1 149.00000 418.400000
12274 3498 14872 1 149.00000 418.400000
12275 3499 16280 1 149.00000 418.400000
12275 3500 12477 1 149.00000 418.400000
12275 3501 13841 1 149.00000 418.400000
12275 3502 14836 1 149.00000 418.400000
12276 3503 13466 1 149.00000 418.400000
12276 3504 21984 1 149.00000 418.400000
12276 3505 16111 1 149.00000 418.400000
12277 3506 14259 1 149.00000 418.400000
12277 3507 15023 1 149.00000 418.400000
12277 3508 14868 1 149.00000 418.400000
12277 3509 15876 1 149.00000 418.400000
12278 3510 13797 1 149.00000 418.400000
12278 3511 13810 1 149.00000 418.400000
12278 3512 15029 1 149.00000 418.400000
12278 3513 16347 1 149.00000 418.400000
12279 3514 14919 1 149.00000 418.400000
12279 3515 15900 1 149.00000 418.400000
12280 3516 15375 1 149.00000 418.400000
12280 3517 12597 1 149.00000 418.400000
12281 3518 21622 1 149.00000 418.400000
12281 3519 21547 1 149.00000 418.400000
12281 3520 12994 1 149.00000 418.400000
12282 3521 15843 1 149.00000 418.400000
12282 3522 13340 1 149.00000 418.400000
12282 3523 15957 1 149.00000 418.400000
12282 3524 15951 1 149.00000 418.400000
20638 3525 20938 1 149.00000 418.400000
15426 3526 20938 1 149.00000 418.400000
19738 3527 20938 1 149.00000 418.400000
12283 3528 16482 1 149.00000 418.400000
12283 3529 16205 1 149.00000 418.400000
12283 3530 15664 1 149.00000 418.400000
12284 3531 13885 1 149.00000 418.400000
12284 3532 13230 1 149.00000 418.400000
12284 3533 13688 1 149.00000 418.400000
12284 3534 15785 1 149.00000 418.400000
12285 3535 12747 1 149.00000 418.400000
12285 3536 16615 1 149.00000 418.400000
12285 3537 19726 1 149.00000 418.400000
12286 3538 16540 1 149.00000 418.400000
12286 3539 12893 1 149.00000 418.400000
12286 3540 14414 1 149.00000 418.400000
12286 3541 14124 1 149.00000 418.400000
12287 3542 12471 1 149.00000 418.400000
12287 3543 19498 1 149.00000 418.400000
12287 3544 14333 1 149.00000 418.400000
12287 3545 14540 1 149.00000 418.400000
12288 3546 15990 1 149.00000 418.400000
12288 3547 12649 1 149.00000 418.400000
12288 3548 14767 1 149.00000 418.400000
12289 3549 20974 1 149.00000 418.400000
12289 3550 14694 1 149.00000 418.400000
12289 3551 14820 1 149.00000 418.400000
12289 3552 15486 1 149.00000 418.400000
12290 3553 14276 1 149.00000 418.400000
12290 3554 13757 1 149.00000 418.400000
12291 3555 16340 1 149.00000 418.400000
12291 3556 12526 1 149.00000 418.400000
12291 3557 16386 1 149.00000 418.400000
12291 3558 15054 1 149.00000 418.400000
21349 3559 21742 1 149.00000 418.400000
21349 3560 22019 1 149.00000 418.400000
13778 3561 21349 1 149.00000 418.400000
15905 3562 16541 1 149.00000 418.400000
12292 3563 12384 1 149.00000 418.400000
12292 3564 15905 1 149.00000 418.400000
12914 3565 15905 1 149.00000 418.400000
13621 3566 21352 1 149.00000 418.400000
21352 3567 21829 1 149.00000 418.400000
15136 3568 21352 1 149.00000 418.400000
17890 3569 21355 1 149.00000 418.400000
15879 3570 21355 1 149.00000 418.400000
12293 3571 14621 1 149.00000 418.400000
12293 3572 13337 1 149.00000 418.400000
12293 3573 14462 1 149.00000 418.400000
12293 3574 12537 1 149.00000 418.400000
12294 3575 12891 1 149.00000 418.400000
12294 3576 16325 1 149.00000 418.400000
11786 3577 13345 1 149.00000 418.400000
12295 3578 13464 1 149.00000 418.400000
12295 3579 14157 1 149.00000 418.400000
12296 3580 16278 1 149.00000 418.400000
12296 3581 15705 1 149.00000 418.400000
12296 3582 15461 1 149.00000 418.400000
12297 3583 14392 1 149.00000 418.400000
12298 3584 15227 1 149.00000 418.400000
12298 3585 15650 1 149.00000 418.400000
12298 3586 13007 1 149.00000 418.400000
13139 3587 16352 1 149.00000 418.400000
12299 3588 13139 1 149.00000 418.400000
12299 3589 16448 1 149.00000 418.400000
12299 3590 13254 1 149.00000 418.400000
12300 3591 15583 1 149.00000 418.400000
12300 3592 12633 1 149.00000 418.400000
12300 3593 12995 1 149.00000 418.400000
12300 3594 15234 1 149.00000 418.400000
12301 3595 13827 1 149.00000 418.400000
12301 3596 15999 1 149.00000 418.400000
12301 3597 14428 1 149.00000 418.400000
12302 3598 14981 1 149.00000 418.400000
12302 3599 12486 1 149.00000 418.400000
12302 3600 12395 1 149.00000 418.400000
12303 3601 14793 1 149.00000 418.400000
12304 3602 14648 1 149.00000 418.400000
12304 3603 20050 1 149.00000 418.400000
12304 3604 18706 1 149.00000 418.400000
12305 3605 14365 1 149.00000 418.400000
12305 3606 13995 1 149.00000 418.400000
12305 3607 14401 1 149.00000 418.400000
12305 3608 14281 1 149.00000 418.400000
12306 3609 15183 1 149.00000 418.400000
12306 3610 14209 1 149.00000 418.400000
12306 3611 16109 1 149.00000 418.400000
12306 3612 15364 1 149.00000 418.400000
12307 3613 14888 1 149.00000 418.400000
12307 3614 12724 1 149.00000 418.400000
12307 3615 15007 1 149.00000 418.400000
12307 3616 13299 1 149.00000 418.400000
11748 3617 15108 1 149.00000 418.400000
12308 3618 13706 1 149.00000 418.400000
12308 3619 12972 1 149.00000 418.400000
12309 3620 15268 1 149.00000 418.400000
12309 3621 14507 1 149.00000 418.400000
12309 3622 15700 1 149.00000 418.400000
12310 3623 12619 1 149.00000 418.400000
12310 3624 15744 1 149.00000 418.400000
15744 3625 21424 1 149.00000 418.400000
12310 3626 16403 1 149.00000 418.400000
12311 3627 21403 1 149.00000 418.400000
20110 3628 21448 1 149.00000 418.400000
12312 3629 13756 1 149.00000 418.400000
13756 3630 15609 1 149.00000 418.400000
12312 3631 15240 1 149.00000 418.400000
12313 3632 12807 1 149.00000 418.400000
12313 3633 18366 1 149.00000 418.400000
12313 3634 13701 1 149.00000 418.400000
18366 3635 22014 1 149.00000 418.400000
12314 3636 16006 1 149.00000 418.400000
12314 3637 14038 1 149.00000 418.400000
12315 3638 15693 1 149.00000 418.400000
12315 3639 15714 1 149.00000 418.400000
12315 3640 16253 1 149.00000 418.400000
12315 3641 14169 1 149.00000 418.400000
12316 3642 15565 1 149.00000 418.400000
12316 3643 15043 1 149.00000 418.400000
17036 3644 20986 1 149.00000 418.400000
20986 3645 21454 1 149.00000 418.400000
12317 3646 14257 1 149.00000 418.400000
12317 3647 13438 1 149.00000 418.400000
12317 3648 12914 1 149.00000 418.400000
12318 3649 13219 1 149.00000 418.400000
12318 3650 15248 1 149.00000 418.400000
12319 3651 15856 1 149.00000 418.400000
12319 3652 12446 1 149.00000 418.400000
12319 3653 16293 1 149.00000 418.400000
12320 3654 13151 1 149.00000 418.400000
11905 3655 13834 1 149.00000 418.400000
12320 3656 14008 1 149.00000 418.400000
12320 3657 13834 1 149.00000 418.400000
12321 3658 16302 1 149.00000 418.400000
12321 3659 15033 1 149.00000 418.400000
12321 3660 15115 1 149.00000 418.400000
12322 3661 14818 1 149.00000 418.400000
12322 3662 15700 1 149.00000 418.400000
12322 3663 15033 1 149.00000 418.400000
12323 3664 12539 1 149.00000 418.400000
12323 3665 13299 1 149.00000 418.400000
12323 3666 13826 1 149.00000 418.400000
12323 3667 14036 1 149.00000 418.400000
12324 3668 14781 1 149.00000 418.400000
12324 3669 14649 1 149.00000 418.400000
12324 3670 12412 1 149.00000 418.400000
12324 3671 16119 1 149.00000 418.400000
12325 3672 13126 1 149.00000 418.400000
12325 3673 14455 1 149.00000 418.400000
12325 3674 14190 1 149.00000 418.400000
12325 3675 14506 1 149.00000 418.400000
16383 3676 20926 1 149.00000 418.400000
14838 3677 20926 1 149.00000 418.400000
12326 3678 15494 1 149.00000 418.400000
12326 3679 12717 1 149.00000 418.400000
12326 3680 15632 1 149.00000 418.400000
12327 3681 15572 1 149.00000 418.400000
12327 3682 13829 1 149.00000 418.400000
12328 3683 15960 1 149.00000 418.400000
12328 3684 16196 1 149.00000 418.400000
12328 3685 15528 1 149.00000 418.400000
12329 3686 12775 1 149.00000 418.400000
12329 3687 12509 1 149.00000 418.400000
12330 3688 12779 1 149.00000 418.400000
12330 3689 15708 1 149.00000 418.400000
12330 3690 15989 1 149.00000 418.400000
12331 3691 14382 1 149.00000 418.400000
12331 3692 15355 1 149.00000 418.400000
12331 3693 13107 1 149.00000 418.400000
12332 3694 16402 1 149.00000 418.400000
11538 3695 12332 1 149.00000 418.400000
12332 3696 14785 1 149.00000 418.400000
12332 3697 16421 1 149.00000 418.400000
12333 3698 13729 1 149.00000 418.400000
12333 3699 13673 1 149.00000 418.400000
12333 3700 15151 1 149.00000 418.400000
12333 3701 12581 1 149.00000 418.400000
12334 3702 13327 1 149.00000 418.400000
12334 3703 13869 1 149.00000 418.400000
12335 3704 14885 1 149.00000 418.400000
12335 3705 15908 1 149.00000 418.400000
12335 3706 12400 1 149.00000 418.400000
12335 3707 13610 1 149.00000 418.400000
13089 3708 14060 1 149.00000 418.400000
12336 3709 13089 1 149.00000 418.400000
12336 3710 16563 1 149.00000 418.400000
12336 3711 16050 1 149.00000 418.400000
12337 3712 13331 1 149.00000 418.400000
12337 3713 12735 1 149.00000 418.400000
13331 3714 14039 1 149.00000 418.400000
12337 3715 15132 1 149.00000 418.400000
12338 3716 15933 1 149.00000 418.400000
12338 3717 12801 1 149.00000 418.400000
12338 3718 16184 1 149.00000 418.400000
12338 3719 13375 1 149.00000 418.400000
12339 3720 13577 1 149.00000 418.400000
12339 3721 12557 1 149.00000 418.400000
12339 3722 14005 1 149.00000 418.400000
12340 3723 14262 1 149.00000 418.400000
12340 3724 13953 1 149.00000 418.400000
12340 3725 12672 1 149.00000 418.400000
12341 3726 15489 1 149.00000 418.400000
12341 3727 21781 1 149.00000 418.400000
12342 3728 13404 1 149.00000 418.400000
13236 3729 13404 1 149.00000 418.400000
12342 3730 15316 1 149.00000 418.400000
12342 3731 16238 1 149.00000 418.400000
12343 3732 16481 1 149.00000 418.400000
12343 3733 12932 1 149.00000 418.400000
12343 3734 14359 1 149.00000 418.400000
12343 3735 16522 1 149.00000 418.400000
12344 3736 20458 1 149.00000 418.400000
12344 3737 15930 1 149.00000 418.400000
12345 3738 16577 1 149.00000 418.400000
12239 3739 12345 1 149.00000 418.400000
12345 3740 21142 1 149.00000 418.400000
12346 3741 14326 1 149.00000 418.400000
12346 3742 16104 1 149.00000 418.400000
12346 3743 12881 1 149.00000 418.400000
12346 3744 15551 1 149.00000 418.400000
12347 3745 14905 1 149.00000 418.400000
12347 3746 16568 1 149.00000 418.400000
12347 3747 13050 1 149.00000 418.400000
12347 3748 16508 1 149.00000 418.400000
12348 3749 12909 1 149.00000 418.400000
12348 3750 16523 1 149.00000 418.400000
12349 3751 20314 1 149.00000 418.400000
12349 3752 16458 1 149.00000 418.400000
12349 3753 12738 1 149.00000 418.400000
12349 3754 12396 1 149.00000 418.400000
12350 3755 13631 1 149.00000 418.400000
12350 3756 14240 1 149.00000 418.400000
12350 3757 16195 1 149.00000 418.400000
12350 3758 12624 1 149.00000 418.400000
12019 3759 12587 1 149.00000 418.400000
12351 3760 14897 1 149.00000 418.400000
12351 3761 16322 1 149.00000 418.400000
12352 3762 13357 1 149.00000 418.400000
12352 3763 16119 1 149.00000 418.400000
12353 3764 14176 1 149.00000 418.400000
12353 3765 16026 1 149.00000 418.400000
12354 3766 13695 1 149.00000 418.400000
12354 3767 13927 1 149.00000 418.400000
12354 3768 15146 1 149.00000 418.400000
12354 3769 14697 1 149.00000 418.400000
11610 3770 15642 1 149.00000 418.400000
19702 3771 21550 1 149.00000 418.400000
14311 3772 19702 1 149.00000 418.400000
12356 3773 21610 1 149.00000 418.400000
12356 3774 13638 1 149.00000 418.400000
12356 3775 21928 1 149.00000 418.400000
12357 3776 19582 1 149.00000 418.400000
12357 3777 12778 1 149.00000 418.400000
12357 3778 12796 1 149.00000 418.400000
12357 3779 21508 1 149.00000 418.400000
12358 3780 15516 1 149.00000 418.400000
12358 3781 14251 1 149.00000 418.400000
12358 3782 15605 1 149.00000 418.400000
12358 3783 12615 1 149.00000 418.400000
12359 3784 16307 1 149.00000 418.400000
12359 3785 16002 1 149.00000 418.400000
12359 3786 13510 1 149.00000 418.400000
12360 3787 13270 1 149.00000 418.400000
12360 3788 12365 1 149.00000 418.400000
12360 3789 12978 1 149.00000 418.400000
12361 3790 13074 1 149.00000 418.400000
12361 3791 15132 1 149.00000 418.400000
12361 3792 14553 1 149.00000 418.400000
12362 3793 14635 1 149.00000 418.400000
12362 3794 12835 1 149.00000 418.400000
12362 3795 16047 1 149.00000 418.400000
11725 3796 12362 1 149.00000 418.400000
12363 3797 13371 1 149.00000 418.400000
12363 3798 12552 1 149.00000 418.400000
12363 3799 13219 1 149.00000 418.400000
12363 3800 16316 1 149.00000 418.400000
12364 3801 15919 1 149.00000 418.400000
12364 3802 12999 1 149.00000 418.400000
12364 3803 13650 1 149.00000 418.400000
12364 3804 13670 1 149.00000 418.400000
12360 3805 12385 1 149.00000 418.400000
12365 3806 12849 1 149.00000 418.400000
12365 3807 15104 1 149.00000 418.400000
12366 3808 15090 1 149.00000 418.400000
12366 3809 14779 1 149.00000 418.400000
12366 3810 12688 1 149.00000 418.400000
12366 3811 14064 1 149.00000 418.400000
14526 3812 16575 1 149.00000 418.400000
12367 3813 13198 1 149.00000 418.400000
12367 3814 16430 1 149.00000 418.400000
12367 3815 14526 1 149.00000 418.400000
12368 3816 14437 1 149.00000 418.400000
12368 3817 13766 1 149.00000 418.400000
12368 3818 13309 1 149.00000 418.400000
12369 3819 13967 1 149.00000 418.400000
12369 3820 14624 1 149.00000 418.400000
12369 3821 13935 1 149.00000 418.400000
12369 3822 15026 1 149.00000 418.400000
12370 3823 15124 1 149.00000 418.400000
12370 3824 14513 1 149.00000 418.400000
12370 3825 14711 1 149.00000 418.400000
12371 3826 15900 1 149.00000 418.400000
12371 3827 13970 1 149.00000 418.400000
12371 3828 12948 1 149.00000 418.400000
12372 3829 16347 1 149.00000 418.400000
12372 3830 15109 1 149.00000 418.400000
12372 3831 14723 1 149.00000 418.400000
12373 3832 21259 1 149.00000 418.400000
14151 3833 16490 1 149.00000 418.400000
12373 3834 21727 1 149.00000 418.400000
12374 3835 15632 1 149.00000 418.400000
12374 3836 13981 1 149.00000 418.400000
12374 3837 16445 1 149.00000 418.400000
12375 3838 14218 1 149.00000 418.400000
12375 3839 13652 1 149.00000 418.400000
12375 3840 13948 1 149.00000 418.400000
12375 3841 16233 1 149.00000 418.400000
12376 3842 12940 1 149.00000 418.400000
12376 3843 14811 1 149.00000 418.400000
12376 3844 15925 1 149.00000 418.400000
12377 3845 21631 1 149.00000 418.400000
12377 3846 15352 1 149.00000 418.400000
12377 3847 12915 1 149.00000 418.400000
12377 3848 16213 1 149.00000 418.400000
12378 3849 13642 1 149.00000 418.400000
12378 3850 12708 1 149.00000 418.400000
12378 3851 13012 1 149.00000 418.400000
12379 3852 13395 1 149.00000 418.400000
12379 3853 14983 1 149.00000 418.400000
12379 3854 16275 1 149.00000 418.400000
12380 3855 15948 1 149.00000 418.400000
12380 3856 14482 1 149.00000 418.400000
12380 3857 16067 1 149.00000 418.400000
12380 3858 13682 1 149.00000 418.400000
12381 3859 13352 1 149.00000 418.400000
12381 3860 16319 1 149.00000 418.400000
12381 3861 16142 1 149.00000 418.400000
12381 3862 13952 1 149.00000 418.400000
12382 3863 14121 1 149.00000 418.400000
12382 3864 15579 1 149.00000 418.400000
12382 3865 16486 1 149.00000 418.400000
12382 3866 15599 1 149.00000 418.400000
12383 3867 13371 1 149.00000 418.400000
12383 3868 15430 1 149.00000 418.400000
12384 3869 15675 1 149.00000 418.400000
12385 3870 16136 1 149.00000 418.400000
12385 3871 13356 1 149.00000 418.400000
12385 3872 13051 1 149.00000 418.400000
12386 3873 13341 1 149.00000 418.400000
12386 3874 14615 1 149.00000 418.400000
12386 3875 15131 1 149.00000 418.400000
12386 3876 12891 1 149.00000 418.400000
12994 3877 21358 1 149.00000 418.400000
15532 3878 21358 1 149.00000 418.400000
18646 3879 20158 1 149.00000 418.400000
18646 3880 20578 1 149.00000 418.400000
15434 3881 18646 1 149.00000 418.400000
12387 3882 14867 1 149.00000 418.400000
12387 3883 14025 1 149.00000 418.400000
12387 3884 13337 1 149.00000 418.400000
12387 3885 20290 1 149.00000 418.400000
12388 3886 14818 1 149.00000 418.400000
12388 3887 15586 1 149.00000 418.400000
12388 3888 15990 1 149.00000 418.400000
12389 3889 15878 1 149.00000 418.400000
12389 3890 13370 1 149.00000 418.400000
12389 3891 14327 1 149.00000 418.400000
12390 3892 13472 1 149.00000 418.400000
12390 3893 12507 1 149.00000 418.400000
12390 3894 15535 1 149.00000 418.400000
12391 3895 15765 1 149.00000 418.400000
12391 3896 14588 1 149.00000 418.400000
12391 3897 14605 1 149.00000 418.400000
12391 3898 15459 1 149.00000 418.400000
12392 3899 21796 1 149.00000 418.400000
12392 3900 13308 1 149.00000 418.400000
12392 3901 16555 1 149.00000 418.400000
12393 3902 14328 1 149.00000 418.400000
12393 3903 13846 1 149.00000 418.400000
12393 3904 21397 1 149.00000 418.400000
12393 3905 12420 1 149.00000 418.400000
12394 3906 14869 1 149.00000 418.400000
12394 3907 13474 1 149.00000 418.400000
12394 3908 15217 1 149.00000 418.400000
12394 3909 12683 1 149.00000 418.400000
12395 3910 15344 1 149.00000 418.400000
12395 3911 14400 1 149.00000 418.400000
12395 3912 12680 1 149.00000 418.400000
12396 3913 14688 1 149.00000 418.400000
12396 3914 14061 1 149.00000 418.400000
12397 3915 14500 1 149.00000 418.400000
12397 3916 15384 1 149.00000 418.400000
12397 3917 12931 1 149.00000 418.400000
12397 3918 16604 1 149.00000 418.400000
13930 3919 14458 1 149.00000 418.400000
12398 3920 13930 1 149.00000 418.400000
12398 3921 16539 1 149.00000 418.400000
18634 3922 19426 1 149.00000 418.400000
12399 3923 19426 1 149.00000 418.400000
12400 3924 15411 1 149.00000 418.400000
12400 3925 15245 1 149.00000 418.400000
12400 3926 14106 1 149.00000 418.400000
12401 3927 20854 1 149.00000 418.400000
12401 3928 14644 1 149.00000 418.400000
12402 3929 13312 1 149.00000 418.400000
12402 3930 19390 1 149.00000 418.400000
12403 3931 14561 1 149.00000 418.400000
12403 3932 15569 1 149.00000 418.400000
12403 3933 14612 1 149.00000 418.400000
12403 3934 13918 1 149.00000 418.400000
13302 3935 15206 1 149.00000 418.400000
12404 3936 13302 1 149.00000 418.400000
12405 3937 13360 1 149.00000 418.400000
12405 3938 13784 1 149.00000 418.400000
12406 3939 14964 1 149.00000 418.400000
12406 3940 13048 1 149.00000 418.400000
12406 3941 14029 1 149.00000 418.400000
12406 3942 15658 1 149.00000 418.400000
12407 3943 13762 1 149.00000 418.400000
12407 3944 13192 1 149.00000 418.400000
12407 3945 15292 1 149.00000 418.400000
12408 3946 15445 1 149.00000 418.400000
12409 3947 13894 1 149.00000 418.400000
12409 3948 13496 1 149.00000 418.400000
12409 3949 14823 1 149.00000 418.400000
12410 3950 12785 1 149.00000 418.400000
12410 3951 14724 1 149.00000 418.400000
12410 3952 13136 1 149.00000 418.400000
12410 3953 13738 1 149.00000 418.400000
12411 3954 13578 1 149.00000 418.400000
12411 3955 14039 1 149.00000 418.400000
13578 3956 17792 1 149.00000 418.400000
12411 3957 13331 1 149.00000 418.400000
12412 3958 14545 1 149.00000 418.400000
12412 3959 14711 1 149.00000 418.400000
12413 3960 14387 1 149.00000 418.400000
12413 3961 12576 1 149.00000 418.400000
12414 3962 13771 1 149.00000 418.400000
12414 3963 14774 1 149.00000 418.400000
12414 3964 13153 1 149.00000 418.400000
12414 3965 15104 1 149.00000 418.400000
12415 3966 14259 1 149.00000 418.400000
12415 3967 15351 1 149.00000 418.400000
12415 3968 14352 1 149.00000 418.400000
12415 3969 13735 1 149.00000 418.400000
12416 3970 15449 1 149.00000 418.400000
12416 3971 12429 1 149.00000 418.400000
11765 3972 13562 1 149.00000 418.400000
12417 3973 13105 1 149.00000 418.400000
12417 3974 16300 1 149.00000 418.400000
12417 3975 14957 1 149.00000 418.400000
12417 3976 15410 1 149.00000 418.400000
12418 3977 14588 1 149.00000 418.400000
12418 3978 15546 1 149.00000 418.400000
12419 3979 13995 1 149.00000 418.400000
12419 3980 13244 1 149.00000 418.400000
12419 3981 14647 1 149.00000 418.400000
12420 3982 16480 1 149.00000 418.400000
12420 3983 14321 1 149.00000 418.400000
12420 3984 13772 1 149.00000 418.400000
12421 3985 14483 1 149.00000 418.400000
12421 3986 16611 1 149.00000 418.400000
12421 3987 15953 1 149.00000 418.400000
12421 3988 14798 1 149.00000 418.400000
12422 3989 15538 1 149.00000 418.400000
12422 3990 13303 1 149.00000 418.400000
12422 3991 14254 1 149.00000 418.400000
12422 3992 14608 1 149.00000 418.400000
12423 3993 17400 1 149.00000 418.400000
12423 3994 13180 1 149.00000 418.400000
12423 3995 21739 1 149.00000 418.400000
12423 3996 13102 1 149.00000 418.400000
12424 3997 16506 1 149.00000 418.400000
12424 3998 14271 1 149.00000 418.400000
12424 3999 14158 1 149.00000 418.400000
12425 4000 14603 1 149.00000 418.400000
12425 4001 14609 1 149.00000 418.400000
12425 4002 15578 1 149.00000 418.400000
12426 4003 15867 1 149.00000 418.400000
12426 4004 16227 1 149.00000 418.400000
12427 4005 13669 1 149.00000 418.400000
12427 4006 15851 1 149.00000 418.400000
12427 4007 14546 1 149.00000 418.400000
12427 4008 14573 1 149.00000 418.400000
12428 4009 15539 1 149.00000 418.400000
12132 4010 12428 1 149.00000 418.400000
12428 4011 14077 1 149.00000 418.400000
12429 4012 13692 1 149.00000 418.400000
12429 4013 12967 1 149.00000 418.400000
12430 4014 17792 1 149.00000 418.400000
12430 4015 13220 1 149.00000 418.400000
12430 4016 13485 1 149.00000 418.400000
12431 4017 14809 1 149.00000 418.400000
12431 4018 19630 1 149.00000 418.400000
12432 4019 14689 1 149.00000 418.400000
12432 4020 14972 1 149.00000 418.400000
12432 4021 16361 1 149.00000 418.400000
12786 4022 16139 1 149.00000 418.400000
12433 4023 19318 1 149.00000 418.400000
12433 4024 12841 1 149.00000 418.400000
12433 4025 16139 1 149.00000 418.400000
12434 4026 13215 1 149.00000 418.400000
13215 4027 16362 1 149.00000 418.400000
13311 4028 20746 1 149.00000 418.400000
16283 4029 20746 1 149.00000 418.400000
11594 4030 14895 1 149.00000 418.400000
12435 4031 15885 1 149.00000 418.400000
12435 4032 16924 1 149.00000 418.400000
21361 4033 21772 1 149.00000 418.400000
13940 4034 21361 1 149.00000 418.400000
12436 4035 14506 1 149.00000 418.400000
13415 4036 15589 1 149.00000 418.400000
12436 4037 16572 1 149.00000 418.400000
12436 4038 15589 1 149.00000 418.400000
12437 4039 15254 1 149.00000 418.400000
12437 4040 14227 1 149.00000 418.400000
20482 4041 21862 1 149.00000 418.400000
15615 4042 20482 1 149.00000 418.400000
12438 4043 15455 1 149.00000 418.400000
12438 4044 12457 1 149.00000 418.400000
12438 4045 16249 1 149.00000 418.400000
12439 4046 12620 1 149.00000 418.400000
12439 4047 13162 1 149.00000 418.400000
12439 4048 13747 1 149.00000 418.400000
12440 4049 15096 1 149.00000 418.400000
12440 4050 17428 1 149.00000 418.400000
12440 4051 18778 1 149.00000 418.400000
12440 4052 14750 1 149.00000 418.400000
12441 4053 14965 1 149.00000 418.400000
12441 4054 13512 1 149.00000 418.400000
12441 4055 14780 1 149.00000 418.400000
12442 4056 13864 1 149.00000 418.400000
12442 4057 15294 1 149.00000 418.400000
12442 4058 15543 1 149.00000 418.400000
12443 4059 13695 1 149.00000 418.400000
12443 4060 14628 1 149.00000 418.400000
12443 4061 12766 1 149.00000 418.400000
12444 4062 15562 1 149.00000 418.400000
12444 4063 15680 1 149.00000 418.400000
12444 4064 13860 1 149.00000 418.400000
12444 4065 12487 1 149.00000 418.400000
12445 4066 15777 1 149.00000 418.400000
11978 4067 15777 1 149.00000 418.400000
12445 4068 14675 1 149.00000 418.400000
12446 4069 14198 1 149.00000 418.400000
12447 4070 15312 1 149.00000 418.400000
12447 4071 15395 1 149.00000 418.400000
12447 4072 12662 1 149.00000 418.400000
12447 4073 14790 1 149.00000 418.400000
12448 4074 16225 1 149.00000 418.400000
12448 4075 21367 1 149.00000 418.400000
12448 4076 21685 1 149.00000 418.400000
12449 4077 15260 1 149.00000 418.400000
12449 4078 15637 1 149.00000 418.400000
12449 4079 12920 1 149.00000 418.400000
12449 4080 15978 1 149.00000 418.400000
11796 4081 14730 1 149.00000 418.400000
12450 4082 19630 1 149.00000 418.400000
12450 4083 12641 1 149.00000 418.400000
12451 4084 13822 1 149.00000 418.400000
12451 4085 12882 1 149.00000 418.400000
12452 4086 15257 1 149.00000 418.400000
12452 4087 17204 1 149.00000 418.400000
12452 4088 14667 1 149.00000 418.400000
12453 4089 12540 1 149.00000 418.400000
12453 4090 13865 1 149.00000 418.400000
12453 4091 13605 1 149.00000 418.400000
12454 4092 13928 1 149.00000 418.400000
12454 4093 13434 1 149.00000 418.400000
12454 4094 13091 1 149.00000 418.400000
12454 4095 15013 1 149.00000 418.400000
12455 4096 13456 1 149.00000 418.400000
12455 4097 15271 1 149.00000 418.400000
12455 4098 13556 1 149.00000 418.400000
12455 4099 15386 1 149.00000 418.400000
12456 4100 13398 1 149.00000 418.400000
13398 4101 16130 1 149.00000 418.400000
18418 4102 20026 1 149.00000 418.400000
13235 4103 18418 1 149.00000 418.400000
12457 4104 13342 1 149.00000 418.400000
12457 4105 16454 1 149.00000 418.400000
12457 4106 16218 1 149.00000 418.400000
13004 4107 16463 1 149.00000 418.400000
12458 4108 13004 1 149.00000 418.400000
12458 4109 16568 1 149.00000 418.400000
12458 4110 15425 1 149.00000 418.400000
13117 4111 20614 1 149.00000 418.400000
12459 4112 12651 1 149.00000 418.400000
12459 4113 14135 1 149.00000 418.400000
12460 4114 14602 1 149.00000 418.400000
12460 4115 14844 1 149.00000 418.400000
12460 4116 16425 1 149.00000 418.400000
12460 4117 16150 1 149.00000 418.400000
12461 4118 15136 1 149.00000 418.400000
12461 4119 16494 1 149.00000 418.400000
12462 4120 16475 1 149.00000 418.400000
12462 4121 14739 1 149.00000 418.400000
12462 4122 15457 1 149.00000 418.400000
12462 4123 14277 1 149.00000 418.400000
12463 4124 15553 1 149.00000 418.400000
12463 4125 16360 1 149.00000 418.400000
12463 4126 13852 1 149.00000 418.400000
12463 4127 15986 1 149.00000 418.400000
12464 4128 13321 1 149.00000 418.400000
12464 4129 15694 1 149.00000 418.400000
12465 4130 15541 1 149.00000 418.400000
12465 4131 13158 1 149.00000 418.400000
12466 4132 14812 1 149.00000 418.400000
12466 4133 12657 1 149.00000 418.400000
12466 4134 14742 1 149.00000 418.400000
12467 4135 13822 1 149.00000 418.400000
12467 4136 13851 1 149.00000 418.400000
12467 4137 12520 1 149.00000 418.400000
12468 4138 14502 1 149.00000 418.400000
12468 4139 15941 1 149.00000 418.400000
12468 4140 14714 1 149.00000 418.400000
12469 4141 15088 1 149.00000 418.400000
12469 4142 15437 1 149.00000 418.400000
12469 4143 12535 1 149.00000 418.400000
12469 4144 12650 1 149.00000 418.400000
12470 4145 16362 1 149.00000 418.400000
12470 4146 13505 1 149.00000 418.400000
12470 4147 15375 1 149.00000 418.400000
12470 4148 14903 1 149.00000 418.400000
12471 4149 15596 1 149.00000 418.400000
12471 4150 21838 1 149.00000 418.400000
12472 4151 15040 1 149.00000 418.400000
12472 4152 13338 1 149.00000 418.400000
12472 4153 13651 1 149.00000 418.400000
12473 4154 14182 1 149.00000 418.400000
12473 4155 15859 1 149.00000 418.400000
12473 4156 13503 1 149.00000 418.400000
12473 4157 14196 1 149.00000 418.400000
12474 4158 15812 1 149.00000 418.400000
12474 4159 15776 1 149.00000 418.400000
12475 4160 16270 1 149.00000 418.400000
12475 4161 15255 1 149.00000 418.400000
12475 4162 15093 1 149.00000 418.400000
12476 4163 14898 1 149.00000 418.400000
12476 4164 14183 1 149.00000 418.400000
12476 4165 16088 1 149.00000 418.400000
12476 4166 13719 1 149.00000 418.400000
11491 4167 12477 1 149.00000 418.400000
11491 4168 18454 1 149.00000 418.400000
12478 4169 14559 1 149.00000 418.400000
12478 4170 15428 1 149.00000 418.400000
12478 4171 13818 1 149.00000 418.400000
16644 4172 21628 1 149.00000 418.400000
12479 4173 14509 1 149.00000 418.400000
12479 4174 14954 1 149.00000 418.400000
12479 4175 12484 1 149.00000 418.400000
12480 4176 16108 1 149.00000 418.400000
12480 4177 14743 1 149.00000 418.400000
12480 4178 13621 1 149.00000 418.400000
12481 4179 12612 1 149.00000 418.400000
12481 4180 15542 1 149.00000 418.400000
12481 4181 13581 1 149.00000 418.400000
12482 4182 12743 1 149.00000 418.400000
12482 4183 15583 1 149.00000 418.400000
12483 4184 21436 1 149.00000 418.400000
12483 4185 15262 1 149.00000 418.400000
12484 4186 15177 1 149.00000 418.400000
12484 4187 15025 1 149.00000 418.400000
12484 4188 15471 1 149.00000 418.400000
12485 4189 13339 1 149.00000 418.400000
12485 4190 16031 1 149.00000 418.400000
12486 4191 12736 1 149.00000 418.400000
12486 4192 14240 1 149.00000 418.400000
12486 4193 12776 1 149.00000 418.400000
12487 4194 12704 1 149.00000 418.400000
12487 4195 16374 1 149.00000 418.400000
12487 4196 13705 1 149.00000 418.400000
12488 4197 13726 1 149.00000 418.400000
12488 4198 15734 1 149.00000 418.400000
12488 4199 13649 1 149.00000 418.400000
12488 4200 15841 1 149.00000 418.400000
12489 4201 14303 1 149.00000 418.400000
12489 4202 15650 1 149.00000 418.400000
12489 4203 15176 1 149.00000 418.400000
12489 4204 16274 1 149.00000 418.400000
12490 4205 16433 1 149.00000 418.400000
12490 4206 13285 1 149.00000 418.400000
12490 4207 21574 1 149.00000 418.400000
16276 4208 19162 1 149.00000 418.400000
19162 4209 20446 1 149.00000 418.400000
12491 4210 12823 1 149.00000 418.400000
12491 4211 13132 1 149.00000 418.400000
12491 4212 14078 1 149.00000 418.400000
12492 4213 13782 1 149.00000 418.400000
12492 4214 14345 1 149.00000 418.400000
12492 4215 16270 1 149.00000 418.400000
12492 4216 21583 1 149.00000 418.400000
12493 4217 16032 1 149.00000 418.400000
12493 4218 16557 1 149.00000 418.400000
12493 4219 14372 1 149.00000 418.400000
12493 4220 13951 1 149.00000 418.400000
12494 4221 21895 1 149.00000 418.400000
12494 4222 12753 1 149.00000 418.400000
12494 4223 13171 1 149.00000 418.400000
12494 4224 20734 1 149.00000 418.400000
12495 4225 13653 1 149.00000 418.400000
12495 4226 14064 1 149.00000 418.400000
12495 4227 13525 1 149.00000 418.400000
12495 4228 13362 1 149.00000 418.400000
12496 4229 13606 1 149.00000 418.400000
12496 4230 14890 1 149.00000 418.400000
12496 4231 13687 1 149.00000 418.400000
12497 4232 12727 1 149.00000 418.400000
12497 4233 14558 1 149.00000 418.400000
12497 4234 15099 1 149.00000 418.400000
12497 4235 15629 1 149.00000 418.400000
13883 4236 21364 1 149.00000 418.400000
12498 4237 13273 1 149.00000 418.400000
12498 4238 19078 1 149.00000 418.400000
12498 4239 13285 1 149.00000 418.400000
12498 4240 15897 1 149.00000 418.400000
12499 4241 14986 1 149.00000 418.400000
12499 4242 14013 1 149.00000 418.400000
12499 4243 15969 1 149.00000 418.400000
12500 4244 12719 1 149.00000 418.400000
12500 4245 12547 1 149.00000 418.400000
12500 4246 15487 1 149.00000 418.400000
12500 4247 14835 1 149.00000 418.400000
12501 4248 15387 1 149.00000 418.400000
12501 4249 14159 1 149.00000 418.400000
12501 4250 13879 1 149.00000 418.400000
12501 4251 16374 1 149.00000 418.400000
12502 4252 15290 1 149.00000 418.400000
12502 4253 13091 1 149.00000 418.400000
12502 4254 13415 1 149.00000 418.400000
12503 4255 15131 1 149.00000 418.400000
12503 4256 14270 1 149.00000 418.400000
12503 4257 16325 1 149.00000 418.400000
12503 4258 16033 1 149.00000 418.400000
12504 4259 13590 1 149.00000 418.400000
12504 4260 13738 1 149.00000 418.400000
12504 4261 14736 1 149.00000 418.400000
12505 4262 12637 1 149.00000 418.400000
12505 4263 14969 1 149.00000 418.400000
12505 4264 16582 1 149.00000 418.400000
12505 4265 15952 1 149.00000 418.400000
12506 4266 14313 1 149.00000 418.400000
12506 4267 13291 1 149.00000 418.400000
12506 4268 15340 1 149.00000 418.400000
12506 4269 15022 1 149.00000 418.400000
12507 4270 17008 1 149.00000 418.400000
12507 4271 13837 1 149.00000 418.400000
12508 4272 12513 1 149.00000 418.400000
12508 4273 15460 1 149.00000 418.400000
12508 4274 15239 1 149.00000 418.400000
12508 4275 15316 1 149.00000 418.400000
12509 4276 14967 1 149.00000 418.400000
12509 4277 16496 1 149.00000 418.400000
12510 4278 21469 1 149.00000 418.400000
12510 4279 15881 1 149.00000 418.400000
12510 4280 13801 1 149.00000 418.400000
12510 4281 21616 1 149.00000 418.400000
12511 4282 15464 1 149.00000 418.400000
12511 4283 16464 1 149.00000 418.400000
12512 4284 14959 1 149.00000 418.400000
12563 4285 14959 1 149.00000 418.400000
12512 4286 13105 1 149.00000 418.400000
12513 4287 14935 1 149.00000 418.400000
12513 4288 12655 1 149.00000 418.400000
12513 4289 14554 1 149.00000 418.400000
12514 4290 16615 1 149.00000 418.400000
12514 4291 12998 1 149.00000 418.400000
12514 4292 16215 1 149.00000 418.400000
12514 4293 13112 1 149.00000 418.400000
12515 4294 13967 1 149.00000 418.400000
11536 4295 13824 1 149.00000 418.400000
12515 4296 14538 1 149.00000 418.400000
13354 4297 21367 1 149.00000 418.400000
16087 4298 21367 1 149.00000 418.400000
12516 4299 14410 1 149.00000 418.400000
12516 4300 16485 1 149.00000 418.400000
12516 4301 14962 1 149.00000 418.400000
12517 4302 12592 1 149.00000 418.400000
12592 4303 14908 1 149.00000 418.400000
12517 4304 21625 1 149.00000 418.400000
12518 4305 15185 1 149.00000 418.400000
12518 4306 13546 1 149.00000 418.400000
12518 4307 13595 1 149.00000 418.400000
12518 4308 15713 1 149.00000 418.400000
12519 4309 12553 1 149.00000 418.400000
12519 4310 14537 1 149.00000 418.400000
12519 4311 15580 1 149.00000 418.400000
12520 4312 13036 1 149.00000 418.400000
12520 4313 16225 1 149.00000 418.400000
12521 4314 15340 1 149.00000 418.400000
12521 4315 14018 1 149.00000 418.400000
12521 4316 16138 1 149.00000 418.400000
12522 4317 16141 1 149.00000 418.400000
12522 4318 21664 1 149.00000 418.400000
12522 4319 13730 1 149.00000 418.400000
13730 4320 16442 1 149.00000 418.400000
12523 4321 13567 1 149.00000 418.400000
12523 4322 12663 1 149.00000 418.400000
12523 4323 14763 1 149.00000 418.400000
12523 4324 13751 1 149.00000 418.400000
14061 4325 21370 1 149.00000 418.400000
16458 4326 21370 1 149.00000 418.400000
12524 4327 12830 1 149.00000 418.400000
12524 4328 15015 1 149.00000 418.400000
12524 4329 14755 1 149.00000 418.400000
12524 4330 18610 1 149.00000 418.400000
12525 4331 15002 1 149.00000 418.400000
12320 4332 12525 1 149.00000 418.400000
12525 4333 15818 1 149.00000 418.400000
12525 4334 15144 1 149.00000 418.400000
12526 4335 14433 1 149.00000 418.400000
12526 4336 13611 1 149.00000 418.400000
12526 4337 16243 1 149.00000 418.400000
17316 4338 21373 1 149.00000 418.400000
16028 4339 21373 1 149.00000 418.400000
21373 4340 21631 1 149.00000 418.400000
12527 4341 15235 1 149.00000 418.400000
12527 4342 16539 1 149.00000 418.400000
12527 4343 14833 1 149.00000 418.400000
12527 4344 14577 1 149.00000 418.400000
12528 4345 14916 1 149.00000 418.400000
12528 4346 14001 1 149.00000 418.400000
12528 4347 14243 1 149.00000 418.400000
12528 4348 15431 1 149.00000 418.400000
12529 4349 13090 1 149.00000 418.400000
12529 4350 14473 1 149.00000 418.400000
12529 4351 15446 1 149.00000 418.400000
12529 4352 15117 1 149.00000 418.400000
12530 4353 13502 1 149.00000 418.400000
12530 4354 12918 1 149.00000 418.400000
12530 4355 14788 1 149.00000 418.400000
12530 4356 14324 1 149.00000 418.400000
12531 4357 16072 1 149.00000 418.400000
12531 4358 15407 1 149.00000 418.400000
12531 4359 13378 1 149.00000 418.400000
12531 4360 16040 1 149.00000 418.400000
12532 4361 15941 1 149.00000 418.400000
12532 4362 13717 1 149.00000 418.400000
12532 4363 18254 1 149.00000 418.400000
12532 4364 12601 1 149.00000 418.400000
12533 4365 16352 1 149.00000 418.400000
12533 4366 13449 1 149.00000 418.400000
12533 4367 15559 1 149.00000 418.400000
12533 4368 13003 1 149.00000 418.400000
12534 4369 15231 1 149.00000 418.400000
12534 4370 15309 1 149.00000 418.400000
12534 4371 12584 1 149.00000 418.400000
12535 4372 15721 1 149.00000 418.400000
12535 4373 16199 1 149.00000 418.400000
12536 4374 13291 1 149.00000 418.400000
12537 4375 14378 1 149.00000 418.400000
12537 4376 13726 1 149.00000 418.400000
12538 4377 14910 1 149.00000 418.400000
12538 4378 19906 1 149.00000 418.400000
12538 4379 15778 1 149.00000 418.400000
12539 4380 16029 1 149.00000 418.400000
12539 4381 12724 1 149.00000 418.400000
12540 4382 13630 1 149.00000 418.400000
12540 4383 13593 1 149.00000 418.400000
12540 4384 16577 1 149.00000 418.400000
12541 4385 16259 1 149.00000 418.400000
12541 4386 16066 1 149.00000 418.400000
12541 4387 15009 1 149.00000 418.400000
12541 4388 15298 1 149.00000 418.400000
12542 4389 15882 1 149.00000 418.400000
12542 4390 14689 1 149.00000 418.400000
12543 4391 18682 1 149.00000 418.400000
12682 4392 18682 1 149.00000 418.400000
12543 4393 13281 1 149.00000 418.400000
12544 4394 15566 1 149.00000 418.400000
12544 4395 14094 1 149.00000 418.400000
12544 4396 14797 1 149.00000 418.400000
12544 4397 14194 1 149.00000 418.400000
12545 4398 16037 1 149.00000 418.400000
12545 4399 14124 1 149.00000 418.400000
12545 4400 14691 1 149.00000 418.400000
12546 4401 14948 1 149.00000 418.400000
12546 4402 14051 1 149.00000 418.400000
12546 4403 15833 1 149.00000 418.400000
12547 4404 16308 1 149.00000 418.400000
12547 4405 14863 1 149.00000 418.400000
12547 4406 13933 1 149.00000 418.400000
12548 4407 13646 1 149.00000 418.400000
12548 4408 14664 1 149.00000 418.400000
12548 4409 14972 1 149.00000 418.400000
12549 4410 16043 1 149.00000 418.400000
12549 4411 13216 1 149.00000 418.400000
12549 4412 13426 1 149.00000 418.400000
12550 4413 16508 1 149.00000 418.400000
12550 4414 16439 1 149.00000 418.400000
12550 4415 14846 1 149.00000 418.400000
12550 4416 16059 1 149.00000 418.400000
12551 4417 13589 1 149.00000 418.400000
12551 4418 12611 1 149.00000 418.400000
12251 4419 17624 1 149.00000 418.400000
12552 4420 12613 1 149.00000 418.400000
12552 4421 14449 1 149.00000 418.400000
12552 4422 12626 1 149.00000 418.400000
12553 4423 16177 1 149.00000 418.400000
12553 4424 15235 1 149.00000 418.400000
12554 4425 21667 1 149.00000 418.400000
12554 4426 15173 1 149.00000 418.400000
12554 4427 21433 1 149.00000 418.400000
12555 4428 14368 1 149.00000 418.400000
12555 4429 12980 1 149.00000 418.400000
12555 4430 13201 1 149.00000 418.400000
12555 4431 16624 1 149.00000 418.400000
16300 4432 21376 1 149.00000 418.400000
13400 4433 21376 1 149.00000 418.400000
14407 4434 21376 1 149.00000 418.400000
13196 4435 16658 1 149.00000 418.400000
12556 4436 14131 1 149.00000 418.400000
12556 4437 21886 1 149.00000 418.400000
12556 4438 15395 1 149.00000 418.400000
12556 4439 15492 1 149.00000 418.400000
12557 4440 14542 1 149.00000 418.400000
12557 4441 13142 1 149.00000 418.400000
12558 4442 14073 1 149.00000 418.400000
12558 4443 13102 1 149.00000 418.400000
11471 4444 12558 1 149.00000 418.400000
12558 4445 16485 1 149.00000 418.400000
12559 4446 15246 1 149.00000 418.400000
12559 4447 15295 1 149.00000 418.400000
12559 4448 16612 1 149.00000 418.400000
12559 4449 12988 1 149.00000 418.400000
12560 4450 15736 1 149.00000 418.400000
12560 4451 15325 1 149.00000 418.400000
12560 4452 16416 1 149.00000 418.400000
12561 4453 14083 1 149.00000 418.400000
12561 4454 12713 1 149.00000 418.400000
12561 4455 13500 1 149.00000 418.400000
12562 4456 15171 1 149.00000 418.400000
12562 4457 13032 1 149.00000 418.400000
12562 4458 12703 1 149.00000 418.400000
12563 4459 12887 1 149.00000 418.400000
12563 4460 13594 1 149.00000 418.400000
12564 4461 14194 1 149.00000 418.400000
12564 4462 12593 1 149.00000 418.400000
11596 4463 12564 1 149.00000 418.400000
12565 4464 13051 1 149.00000 418.400000
12565 4465 16136 1 149.00000 418.400000
12566 4466 13074 1 149.00000 418.400000
12566 4467 14406 1 149.00000 418.400000
12566 4468 13255 1 149.00000 418.400000
12567 4469 16132 1 149.00000 418.400000
12567 4470 14328 1 149.00000 418.400000
12567 4471 15391 1 149.00000 418.400000
12567 4472 14515 1 149.00000 418.400000
12568 4473 14548 1 149.00000 418.400000
12568 4474 14867 1 149.00000 418.400000
12568 4475 14462 1 149.00000 418.400000
15434 4476 21379 1 149.00000 418.400000
16585 4477 21379 1 149.00000 418.400000
16131 4478 21379 1 149.00000 418.400000
15445 4479 21382 1 149.00000 418.400000
14397 4480 16173 1 149.00000 418.400000
16173 4481 21382 1 149.00000 418.400000
12569 4482 13632 1 149.00000 418.400000
12569 4483 13779 1 149.00000 418.400000
12569 4484 14353 1 149.00000 418.400000
12569 4485 16396 1 149.00000 418.400000
12570 4486 15487 1 149.00000 418.400000
12570 4487 15163 1 149.00000 418.400000
12570 4488 13636 1 149.00000 418.400000
12570 4489 16536 1 149.00000 418.400000
12571 4490 14136 1 149.00000 418.400000
12571 4491 16163 1 149.00000 418.400000
12571 4492 13036 1 149.00000 418.400000
12571 4493 14601 1 149.00000 418.400000
12572 4494 19618 1 149.00000 418.400000
14604 4495 15978 1 149.00000 418.400000
12572 4496 14604 1 149.00000 418.400000
12572 4497 15779 1 149.00000 418.400000
12573 4498 13441 1 149.00000 418.400000
12573 4499 13121 1 149.00000 418.400000
12573 4500 15561 1 149.00000 418.400000
12574 4501 15752 1 149.00000 418.400000
12574 4502 16526 1 149.00000 418.400000
12574 4503 16465 1 149.00000 418.400000
12575 4504 15994 1 149.00000 418.400000
12575 4505 16140 1 149.00000 418.400000
12575 4506 15005 1 149.00000 418.400000
12576 4507 16212 1 149.00000 418.400000
12576 4508 16438 1 149.00000 418.400000
12577 4509 14719 1 149.00000 418.400000
12577 4510 15626 1 149.00000 418.400000
12578 4511 20038 1 149.00000 418.400000
12578 4512 14020 1 149.00000 418.400000
12578 4513 21478 1 149.00000 418.400000
13465 4514 13483 1 149.00000 418.400000
20146 4515 20554 1 149.00000 418.400000
13947 4516 20554 1 149.00000 418.400000
16236 4517 20554 1 149.00000 418.400000
12579 4518 15673 1 149.00000 418.400000
12579 4519 16300 1 149.00000 418.400000
12579 4520 16488 1 149.00000 418.400000
12579 4521 12807 1 149.00000 418.400000
12580 4522 14985 1 149.00000 418.400000
12580 4523 15242 1 149.00000 418.400000
12581 4524 15444 1 149.00000 418.400000
12581 4525 14241 1 149.00000 418.400000
12582 4526 13372 1 149.00000 418.400000
12582 4527 15754 1 149.00000 418.400000
11650 4528 12582 1 149.00000 418.400000
12582 4529 15866 1 149.00000 418.400000
12583 4530 16338 1 149.00000 418.400000
12584 4531 16387 1 149.00000 418.400000
12584 4532 16456 1 149.00000 418.400000
11963 4533 12584 1 149.00000 418.400000
18466 4534 21385 1 149.00000 418.400000
14335 4535 21385 1 149.00000 418.400000
12585 4536 15179 1 149.00000 418.400000
12585 4537 15060 1 149.00000 418.400000
12585 4538 16166 1 149.00000 418.400000
14861 4539 17932 1 149.00000 418.400000
12586 4540 14614 1 149.00000 418.400000
12586 4541 15865 1 149.00000 418.400000
12586 4542 15108 1 149.00000 418.400000
12587 4543 13970 1 149.00000 418.400000
12587 4544 14029 1 149.00000 418.400000
12587 4545 12748 1 149.00000 418.400000
12588 4546 14293 1 149.00000 418.400000
12588 4547 13258 1 149.00000 418.400000
12588 4548 14238 1 149.00000 418.400000
12588 4549 16401 1 149.00000 418.400000
12589 4550 15670 1 149.00000 418.400000
12589 4551 14460 1 149.00000 418.400000
12589 4552 15258 1 149.00000 418.400000
19270 4553 19978 1 149.00000 418.400000
12590 4554 13147 1 149.00000 418.400000
12590 4555 16415 1 149.00000 418.400000
12590 4556 19978 1 149.00000 418.400000
12591 4557 12645 1 149.00000 418.400000
12591 4558 16167 1 149.00000 418.400000
12591 4559 13890 1 149.00000 418.400000
12517 4560 16499 1 149.00000 418.400000
12592 4561 16516 1 149.00000 418.400000
12592 4562 14801 1 149.00000 418.400000
12593 4563 14186 1 149.00000 418.400000
12593 4564 13292 1 149.00000 418.400000
12594 4565 21814 1 149.00000 418.400000
12594 4566 15478 1 149.00000 418.400000
12595 4567 15542 1 149.00000 418.400000
12596 4568 14278 1 149.00000 418.400000
12596 4569 13329 1 149.00000 418.400000
12596 4570 16570 1 149.00000 418.400000
12596 4571 12740 1 149.00000 418.400000
12597 4572 15029 1 149.00000 418.400000
12597 4573 15739 1 149.00000 418.400000
12597 4574 15109 1 149.00000 418.400000
12598 4575 15237 1 149.00000 418.400000
12598 4576 13465 1 149.00000 418.400000
12598 4577 17624 1 149.00000 418.400000
12598 4578 13135 1 149.00000 418.400000
12599 4579 13573 1 149.00000 418.400000
12599 4580 15348 1 149.00000 418.400000
12599 4581 14669 1 149.00000 418.400000
12599 4582 15481 1 149.00000 418.400000
12600 4583 13300 1 149.00000 418.400000
13300 4584 21766 1 149.00000 418.400000
12601 4585 16086 1 149.00000 418.400000
14706 4586 19714 1 149.00000 418.400000
19714 4587 20530 1 149.00000 418.400000
14440 4588 19714 1 149.00000 418.400000
15381 4589 18862 1 149.00000 418.400000
13063 4590 15381 1 149.00000 418.400000
12602 4591 15381 1 149.00000 418.400000
13736 4592 15381 1 149.00000 418.400000
14692 4593 15142 1 149.00000 418.400000
12603 4594 14983 1 149.00000 418.400000
12603 4595 15142 1 149.00000 418.400000
12604 4596 12933 1 149.00000 418.400000
12604 4597 15600 1 149.00000 418.400000
12604 4598 15522 1 149.00000 418.400000
12605 4599 13884 1 149.00000 418.400000
12605 4600 12722 1 149.00000 418.400000
12605 4601 15237 1 149.00000 418.400000
12605 4602 15214 1 149.00000 418.400000
16245 4603 21388 1 149.00000 418.400000
19222 4604 21388 1 149.00000 418.400000
12606 4605 15985 1 149.00000 418.400000
12606 4606 12658 1 149.00000 418.400000
13855 4607 16296 1 149.00000 418.400000
13855 4608 15520 1 149.00000 418.400000
12607 4609 13388 1 149.00000 418.400000
12607 4610 15426 1 149.00000 418.400000
12607 4611 15711 1 149.00000 418.400000
12607 4612 15753 1 149.00000 418.400000
12608 4613 15980 1 149.00000 418.400000
12608 4614 14233 1 149.00000 418.400000
12608 4615 14933 1 149.00000 418.400000
12608 4616 15430 1 149.00000 418.400000
12609 4617 19114 1 149.00000 418.400000
12609 4618 14911 1 149.00000 418.400000
12609 4619 15481 1 149.00000 418.400000
12610 4620 15799 1 149.00000 418.400000
12610 4621 13478 1 149.00000 418.400000
12610 4622 14443 1 149.00000 418.400000
12611 4623 15180 1 149.00000 418.400000
11500 4624 12611 1 149.00000 418.400000
12481 4625 14391 1 149.00000 418.400000
12612 4626 14794 1 149.00000 418.400000
12612 4627 13076 1 149.00000 418.400000
12613 4628 15282 1 149.00000 418.400000
12613 4629 13804 1 149.00000 418.400000
12614 4630 13422 1 149.00000 418.400000
12614 4631 15263 1 149.00000 418.400000
12614 4632 13125 1 149.00000 418.400000
12614 4633 14611 1 149.00000 418.400000
12615 4634 13809 1 149.00000 418.400000
12615 4635 15815 1 149.00000 418.400000
20590 4636 21940 1 149.00000 418.400000
13495 4637 20590 1 149.00000 418.400000
12981 4638 20590 1 149.00000 418.400000
11506 4639 16381 1 149.00000 418.400000
11506 4640 13892 1 149.00000 418.400000
12617 4641 16145 1 149.00000 418.400000
12617 4642 15369 1 149.00000 418.400000
12617 4643 14985 1 149.00000 418.400000
12617 4644 13537 1 149.00000 418.400000
12618 4645 14207 1 149.00000 418.400000
12618 4646 15989 1 149.00000 418.400000
12618 4647 16594 1 149.00000 418.400000
12619 4648 12636 1 149.00000 418.400000
12619 4649 12633 1 149.00000 418.400000
12619 4650 16728 1 149.00000 418.400000
12620 4651 16169 1 149.00000 418.400000
12620 4652 16442 1 149.00000 418.400000
12620 4653 13053 1 149.00000 418.400000
12621 4654 12828 1 149.00000 418.400000
12621 4655 14047 1 149.00000 418.400000
12621 4656 13282 1 149.00000 418.400000
12621 4657 15766 1 149.00000 418.400000
12622 4658 13687 1 149.00000 418.400000
12622 4659 15167 1 149.00000 418.400000
12623 4660 16571 1 149.00000 418.400000
12623 4661 16614 1 149.00000 418.400000
12623 4662 15899 1 149.00000 418.400000
12623 4663 13064 1 149.00000 418.400000
12624 4664 13856 1 149.00000 418.400000
12624 4665 15656 1 149.00000 418.400000
12624 4666 15415 1 149.00000 418.400000
12625 4667 16530 1 149.00000 418.400000
12625 4668 16286 1 149.00000 418.400000
12625 4669 15446 1 149.00000 418.400000
12625 4670 12996 1 149.00000 418.400000
12626 4671 14872 1 149.00000 418.400000
12626 4672 14355 1 149.00000 418.400000
12626 4673 15731 1 149.00000 418.400000
12627 4674 14253 1 149.00000 418.400000
12627 4675 13597 1 149.00000 418.400000
13929 4676 15334 1 149.00000 418.400000
12627 4677 15334 1 149.00000 418.400000
12628 4678 12854 1 149.00000 418.400000
12628 4679 13582 1 149.00000 418.400000
12628 4680 16225 1 149.00000 418.400000
12628 4681 16217 1 149.00000 418.400000
12629 4682 16327 1 149.00000 418.400000
12629 4683 16402 1 149.00000 418.400000
12630 4684 14222 1 149.00000 418.400000
12630 4685 13114 1 149.00000 418.400000
12630 4686 14381 1 149.00000 418.400000
12630 4687 13070 1 149.00000 418.400000
12631 4688 14922 1 149.00000 418.400000
12631 4689 14765 1 149.00000 418.400000
12631 4690 12744 1 149.00000 418.400000
12632 4691 14415 1 149.00000 418.400000
12632 4692 21553 1 149.00000 418.400000
12632 4693 15003 1 149.00000 418.400000
12633 4694 15826 1 149.00000 418.400000
12633 4695 16143 1 149.00000 418.400000
12634 4696 13268 1 149.00000 418.400000
12634 4697 15854 1 149.00000 418.400000
12635 4698 15196 1 149.00000 418.400000
12635 4699 15486 1 149.00000 418.400000
12636 4700 13971 1 149.00000 418.400000
12636 4701 17106 1 149.00000 418.400000
12637 4702 15560 1 149.00000 418.400000
12637 4703 13287 1 149.00000 418.400000
12637 4704 14181 1 149.00000 418.400000
12638 4705 13803 1 149.00000 418.400000
12638 4706 15197 1 149.00000 418.400000
12638 4707 21595 1 149.00000 418.400000
12639 4708 13811 1 149.00000 418.400000
12639 4709 20302 1 149.00000 418.400000
12639 4710 15074 1 149.00000 418.400000
12640 4711 14629 1 149.00000 418.400000
12640 4712 14083 1 149.00000 418.400000
12640 4713 12656 1 149.00000 418.400000
12640 4714 15047 1 149.00000 418.400000
12641 4715 13070 1 149.00000 418.400000
12641 4716 14453 1 149.00000 418.400000
12642 4717 13176 1 149.00000 418.400000
12642 4718 16328 1 149.00000 418.400000
12642 4719 15618 1 149.00000 418.400000
12642 4720 13838 1 149.00000 418.400000
12643 4721 13482 1 149.00000 418.400000
12643 4722 12692 1 149.00000 418.400000
12643 4723 12653 1 149.00000 418.400000
12643 4724 13633 1 149.00000 418.400000
12644 4725 16152 1 149.00000 418.400000
12644 4726 16489 1 149.00000 418.400000
12644 4727 15940 1 149.00000 418.400000
12644 4728 14847 1 149.00000 418.400000
12645 4729 13274 1 149.00000 418.400000
12645 4730 13198 1 149.00000 418.400000
12645 4731 14182 1 149.00000 418.400000
12646 4732 14304 1 149.00000 418.400000
12646 4733 21946 1 149.00000 418.400000
12646 4734 12761 1 149.00000 418.400000
12646 4735 20206 1 149.00000 418.400000
12647 4736 14100 1 149.00000 418.400000
12647 4737 19294 1 149.00000 418.400000
12648 4738 21694 1 149.00000 418.400000
12648 4739 15676 1 149.00000 418.400000
12648 4740 16172 1 149.00000 418.400000
12648 4741 13234 1 149.00000 418.400000
12649 4742 14161 1 149.00000 418.400000
12649 4743 13917 1 149.00000 418.400000
12649 4744 12709 1 149.00000 418.400000
12650 4745 16187 1 149.00000 418.400000
12650 4746 13108 1 149.00000 418.400000
12651 4747 14472 1 149.00000 418.400000
12651 4748 16220 1 149.00000 418.400000
12651 4749 15485 1 149.00000 418.400000
12652 4750 12887 1 149.00000 418.400000
12652 4751 13667 1 149.00000 418.400000
12653 4752 13661 1 149.00000 418.400000
12653 4753 15155 1 149.00000 418.400000
12653 4754 16102 1 149.00000 418.400000
13956 4755 16102 1 149.00000 418.400000
12654 4756 12876 1 149.00000 418.400000
12654 4757 16043 1 149.00000 418.400000
12654 4758 14632 1 149.00000 418.400000
12655 4759 16009 1 149.00000 418.400000
13887 4760 14354 1 149.00000 418.400000
12655 4761 14354 1 149.00000 418.400000
12656 4762 13683 1 149.00000 418.400000
12656 4763 16144 1 149.00000 418.400000
12656 4764 12936 1 149.00000 418.400000
12657 4765 15059 1 149.00000 418.400000
12658 4766 15161 1 149.00000 418.400000
12658 4767 15385 1 149.00000 418.400000
12658 4768 15413 1 149.00000 418.400000
12659 4769 14116 1 149.00000 418.400000
12659 4770 14337 1 149.00000 418.400000
18128 4771 21571 1 149.00000 418.400000
13997 4772 18128 1 149.00000 418.400000
12660 4773 14791 1 149.00000 418.400000
12660 4774 12900 1 149.00000 418.400000
12660 4775 13139 1 149.00000 418.400000
12660 4776 14821 1 149.00000 418.400000
12661 4777 21487 1 149.00000 418.400000
12661 4778 13320 1 149.00000 418.400000
12661 4779 21922 1 149.00000 418.400000
12661 4780 12715 1 149.00000 418.400000
12662 4781 15727 1 149.00000 418.400000
12662 4782 15267 1 149.00000 418.400000
13759 4783 15727 1 149.00000 418.400000
12663 4784 16148 1 149.00000 418.400000
12663 4785 13617 1 149.00000 418.400000
12664 4786 16386 1 149.00000 418.400000
12664 4787 12942 1 149.00000 418.400000
12664 4788 14433 1 149.00000 418.400000
12373 4789 12665 1 149.00000 418.400000
16077 4790 21391 1 149.00000 418.400000
13615 4791 21391 1 149.00000 418.400000
21391 4792 21397 1 149.00000 418.400000
12666 4793 13865 1 149.00000 418.400000
12666 4794 13228 1 149.00000 418.400000
13093 4795 17736 1 149.00000 418.400000
12667 4796 15045 1 149.00000 418.400000
12667 4797 13744 1 149.00000 418.400000
12667 4798 15372 1 149.00000 418.400000
12667 4799 14900 1 149.00000 418.400000
12668 4800 16119 1 149.00000 418.400000
12669 4801 13108 1 149.00000 418.400000
13108 4802 16271 1 149.00000 418.400000
12669 4803 15045 1 149.00000 418.400000
12670 4804 15919 1 149.00000 418.400000
12670 4805 14830 1 149.00000 418.400000
12078 4806 13019 1 149.00000 418.400000
12671 4807 13596 1 149.00000 418.400000
12671 4808 14699 1 149.00000 418.400000
12671 4809 20854 1 149.00000 418.400000
13931 4810 21394 1 149.00000 418.400000
13931 4811 17554 1 149.00000 418.400000
15425 4812 21394 1 149.00000 418.400000
14761 4813 20818 1 149.00000 418.400000
13419 4814 20818 1 149.00000 418.400000
15288 4815 18380 1 149.00000 418.400000
14789 4816 18380 1 149.00000 418.400000
16924 4817 21604 1 149.00000 418.400000
12672 4818 15959 1 149.00000 418.400000
12672 4819 13499 1 149.00000 418.400000
12672 4820 15400 1 149.00000 418.400000
12673 4821 12788 1 149.00000 418.400000
12673 4822 13960 1 149.00000 418.400000
12673 4823 14055 1 149.00000 418.400000
12673 4824 15030 1 149.00000 418.400000
12674 4825 15871 1 149.00000 418.400000
12674 4826 15836 1 149.00000 418.400000
12674 4827 14418 1 149.00000 418.400000
12675 4828 14030 1 149.00000 418.400000
12675 4829 12986 1 149.00000 418.400000
12675 4830 15543 1 149.00000 418.400000
12676 4831 16349 1 149.00000 418.400000
12676 4832 14846 1 149.00000 418.400000
12676 4833 15749 1 149.00000 418.400000
12676 4834 13010 1 149.00000 418.400000
12677 4835 14978 1 149.00000 418.400000
12677 4836 16584 1 149.00000 418.400000
12677 4837 13299 1 149.00000 418.400000
12678 4838 13926 1 149.00000 418.400000
12678 4839 13293 1 149.00000 418.400000
12678 4840 14903 1 149.00000 418.400000
12679 4841 13884 1 149.00000 418.400000
12679 4842 14896 1 149.00000 418.400000
12679 4843 14542 1 149.00000 418.400000
12679 4844 13194 1 149.00000 418.400000
12680 4845 13088 1 149.00000 418.400000
12680 4846 13732 1 149.00000 418.400000
12680 4847 14810 1 149.00000 418.400000
15773 4848 15934 1 149.00000 418.400000
15934 4849 16756 1 149.00000 418.400000
12681 4850 14612 1 149.00000 418.400000
12681 4851 14009 1 149.00000 418.400000
12681 4852 16051 1 149.00000 418.400000
12682 4853 21886 1 149.00000 418.400000
12682 4854 14465 1 149.00000 418.400000
12682 4855 14956 1 149.00000 418.400000
12683 4856 15983 1 149.00000 418.400000
12683 4857 15889 1 149.00000 418.400000
12684 4858 16203 1 149.00000 418.400000
12684 4859 13364 1 149.00000 418.400000
12101 4860 14830 1 149.00000 418.400000
13284 4861 16854 1 149.00000 418.400000
13196 4862 16854 1 149.00000 418.400000
12685 4863 16001 1 149.00000 418.400000
12685 4864 16292 1 149.00000 418.400000
12685 4865 14644 1 149.00000 418.400000
12685 4866 16623 1 149.00000 418.400000
12686 4867 14958 1 149.00000 418.400000
12686 4868 15243 1 149.00000 418.400000
12686 4869 15227 1 149.00000 418.400000
17708 4870 21529 1 149.00000 418.400000
14914 4871 17708 1 149.00000 418.400000
12687 4872 15057 1 149.00000 418.400000
12688 4873 13754 1 149.00000 418.400000
12688 4874 15062 1 149.00000 418.400000
12688 4875 14334 1 149.00000 418.400000
12689 4876 12742 1 149.00000 418.400000
12689 4877 15610 1 149.00000 418.400000
12689 4878 13455 1 149.00000 418.400000
12690 4879 15800 1 149.00000 418.400000
12691 4880 13592 1 149.00000 418.400000
12691 4881 16317 1 149.00000 418.400000
12691 4882 13562 1 149.00000 418.400000
12692 4883 13750 1 149.00000 418.400000
12692 4884 13843 1 149.00000 418.400000
12692 4885 14660 1 149.00000 418.400000
14994 4886 17610 1 149.00000 418.400000
12693 4887 16589 1 149.00000 418.400000
12693 4888 13043 1 149.00000 418.400000
12693 4889 15983 1 149.00000 418.400000
12693 4890 14915 1 149.00000 418.400000
12694 4891 12874 1 149.00000 418.400000
12694 4892 14453 1 149.00000 418.400000
12694 4893 14381 1 149.00000 418.400000
14246 4894 18170 1 149.00000 418.400000
13381 4895 18268 1 149.00000 418.400000
18268 4896 21607 1 149.00000 418.400000
12695 4897 15495 1 149.00000 418.400000
12695 4898 13870 1 149.00000 418.400000
14219 4899 16061 1 149.00000 418.400000
14219 4900 19870 1 149.00000 418.400000
12837 4901 19870 1 149.00000 418.400000
12696 4902 13201 1 149.00000 418.400000
12696 4903 15036 1 149.00000 418.400000
12696 4904 14357 1 149.00000 418.400000
12696 4905 13275 1 149.00000 418.400000
12697 4906 14092 1 149.00000 418.400000
12697 4907 13793 1 149.00000 418.400000
12697 4908 13193 1 149.00000 418.400000
12697 4909 15419 1 149.00000 418.400000
12698 4910 16381 1 149.00000 418.400000
12698 4911 16342 1 149.00000 418.400000
12698 4912 13402 1 149.00000 418.400000
12698 4913 14846 1 149.00000 418.400000
12699 4914 15109 1 149.00000 418.400000
12699 4915 13647 1 149.00000 418.400000
12699 4916 16378 1 149.00000 418.400000
12699 4917 15491 1 149.00000 418.400000
12700 4918 14259 1 149.00000 418.400000
12700 4919 15336 1 149.00000 418.400000
12700 4920 13549 1 149.00000 418.400000
12700 4921 15561 1 149.00000 418.400000
12701 4922 13403 1 149.00000 418.400000
12702 4923 15168 1 149.00000 418.400000
12702 4924 12845 1 149.00000 418.400000
12702 4925 14541 1 149.00000 418.400000
12703 4926 13746 1 149.00000 418.400000
12703 4927 12917 1 149.00000 418.400000
12703 4928 12958 1 149.00000 418.400000
19114 4929 19750 1 149.00000 418.400000
19114 4930 21469 1 149.00000 418.400000
12704 4931 16483 1 149.00000 418.400000
14210 4932 21400 1 149.00000 418.400000
12705 4933 13733 1 149.00000 418.400000
12705 4934 14827 1 149.00000 418.400000
12705 4935 14532 1 149.00000 418.400000
12705 4936 15973 1 149.00000 418.400000
13238 4937 15012 1 149.00000 418.400000
12706 4938 21523 1 149.00000 418.400000
12706 4939 15012 1 149.00000 418.400000
15949 4940 16248 1 149.00000 418.400000
12707 4941 13086 1 149.00000 418.400000
12707 4942 16248 1 149.00000 418.400000
12707 4943 14751 1 149.00000 418.400000
12708 4944 15694 1 149.00000 418.400000
12708 4945 14137 1 149.00000 418.400000
12708 4946 14959 1 149.00000 418.400000
12709 4947 13050 1 149.00000 418.400000
12709 4948 16342 1 149.00000 418.400000
12709 4949 13347 1 149.00000 418.400000
12710 4950 15592 1 149.00000 418.400000
12710 4951 15553 1 149.00000 418.400000
12710 4952 18442 1 149.00000 418.400000
12710 4953 15363 1 149.00000 418.400000
12711 4954 15175 1 149.00000 418.400000
12711 4955 15944 1 149.00000 418.400000
12711 4956 12836 1 149.00000 418.400000
12712 4957 15583 1 149.00000 418.400000
12712 4958 15134 1 149.00000 418.400000
12712 4959 13612 1 149.00000 418.400000
12712 4960 14266 1 149.00000 418.400000
12713 4961 16171 1 149.00000 418.400000
12714 4962 14503 1 149.00000 418.400000
12714 4963 21673 1 149.00000 418.400000
12715 4964 14218 1 149.00000 418.400000
12715 4965 15969 1 149.00000 418.400000
12715 4966 15044 1 149.00000 418.400000
12716 4967 15975 1 149.00000 418.400000
12716 4968 15771 1 149.00000 418.400000
12717 4969 16260 1 149.00000 418.400000
12717 4970 16123 1 149.00000 418.400000
12717 4971 16742 1 149.00000 418.400000
12718 4972 15331 1 149.00000 418.400000
12718 4973 13158 1 149.00000 418.400000
12718 4974 14281 1 149.00000 418.400000
12718 4975 15199 1 149.00000 418.400000
12719 4976 16397 1 149.00000 418.400000
12719 4977 16512 1 149.00000 418.400000
12719 4978 16366 1 149.00000 418.400000
12720 4979 15785 1 149.00000 418.400000
12720 4980 14234 1 149.00000 418.400000
12721 4981 13432 1 149.00000 418.400000
12721 4982 13490 1 149.00000 418.400000
12722 4983 14886 1 149.00000 418.400000
12722 4984 14128 1 149.00000 418.400000
12722 4985 13568 1 149.00000 418.400000
12723 4986 13498 1 149.00000 418.400000
12723 4987 13546 1 149.00000 418.400000
12723 4988 16203 1 149.00000 418.400000
12724 4989 14353 1 149.00000 418.400000
16047 4990 21403 1 149.00000 418.400000
20398 4991 21403 1 149.00000 418.400000
12725 4992 16341 1 149.00000 418.400000
12725 4993 14034 1 149.00000 418.400000
15024 4994 21406 1 149.00000 418.400000
13358 4995 21406 1 149.00000 418.400000
14582 4996 21409 1 149.00000 418.400000
12758 4997 21409 1 149.00000 418.400000
12726 4998 13969 1 149.00000 418.400000
12726 4999 14411 1 149.00000 418.400000
12726 5000 16714 1 149.00000 418.400000
12726 5001 19606 1 149.00000 418.400000
12727 5002 13757 1 149.00000 418.400000
12727 5003 15292 1 149.00000 418.400000
12727 5004 13498 1 149.00000 418.400000
12728 5005 14204 1 149.00000 418.400000
12728 5006 13925 1 149.00000 418.400000
12728 5007 13203 1 149.00000 418.400000
12729 5008 12785 1 149.00000 418.400000
12729 5009 14592 1 149.00000 418.400000
12730 5010 13731 1 149.00000 418.400000
13731 5011 15297 1 149.00000 418.400000
16334 5012 16428 1 149.00000 418.400000
12730 5013 16334 1 149.00000 418.400000
12731 5014 14270 1 149.00000 418.400000
12731 5015 16440 1 149.00000 418.400000
12731 5016 15271 1 149.00000 418.400000
12731 5017 14995 1 149.00000 418.400000
12732 5018 13046 1 149.00000 418.400000
12732 5019 17442 1 149.00000 418.400000
12732 5020 21721 1 149.00000 418.400000
12733 5021 15050 1 149.00000 418.400000
12734 5022 15382 1 149.00000 418.400000
12734 5023 13825 1 149.00000 418.400000
12734 5024 16538 1 149.00000 418.400000
12734 5025 13205 1 149.00000 418.400000
12735 5026 14523 1 149.00000 418.400000
12735 5027 13197 1 149.00000 418.400000
13696 5028 14145 1 149.00000 418.400000
12736 5029 13696 1 149.00000 418.400000
18044 5030 21412 1 149.00000 418.400000
13638 5031 21412 1 149.00000 418.400000
12737 5032 14920 1 149.00000 418.400000
12737 5033 13620 1 149.00000 418.400000
12737 5034 13946 1 149.00000 418.400000
12737 5035 14426 1 149.00000 418.400000
12738 5036 15661 1 149.00000 418.400000
12738 5037 14344 1 149.00000 418.400000
15143 5038 17582 1 149.00000 418.400000
12739 5039 13469 1 149.00000 418.400000
12739 5040 14054 1 149.00000 418.400000
12739 5041 20674 1 149.00000 418.400000
12739 5042 14375 1 149.00000 418.400000
20134 5043 21415 1 149.00000 418.400000
14992 5044 21415 1 149.00000 418.400000
12740 5045 16308 1 149.00000 418.400000
12740 5046 13988 1 149.00000 418.400000
12740 5047 13690 1 149.00000 418.400000
12741 5048 15547 1 149.00000 418.400000
15868 5049 16573 1 149.00000 418.400000
12741 5050 16573 1 149.00000 418.400000
12741 5051 13333 1 149.00000 418.400000
12742 5052 13780 1 149.00000 418.400000
12742 5053 14257 1 149.00000 418.400000
14280 5054 21418 1 149.00000 418.400000
13601 5055 21418 1 149.00000 418.400000
12743 5056 13533 1 149.00000 418.400000
12743 5057 16355 1 149.00000 418.400000
12743 5058 16055 1 149.00000 418.400000
15356 5059 16356 1 149.00000 418.400000
12744 5060 15511 1 149.00000 418.400000
12744 5061 15356 1 149.00000 418.400000
12745 5062 13009 1 149.00000 418.400000
12745 5063 12927 1 149.00000 418.400000
12745 5064 16252 1 149.00000 418.400000
12746 5065 14653 1 149.00000 418.400000
12746 5066 14042 1 149.00000 418.400000
12746 5067 13202 1 149.00000 418.400000
12747 5068 14058 1 149.00000 418.400000
12747 5069 21652 1 149.00000 418.400000
12747 5070 14232 1 149.00000 418.400000
12748 5071 16626 1 149.00000 418.400000
12748 5072 15900 1 149.00000 418.400000
12748 5073 13462 1 149.00000 418.400000
12749 5074 13957 1 149.00000 418.400000
12749 5075 15541 1 149.00000 418.400000
12749 5076 14426 1 149.00000 418.400000
12749 5077 15534 1 149.00000 418.400000
12750 5078 14339 1 149.00000 418.400000
12750 5079 14584 1 149.00000 418.400000
12750 5080 16060 1 149.00000 418.400000
12751 5081 16609 1 149.00000 418.400000
12751 5082 15755 1 149.00000 418.400000
12752 5083 14251 1 149.00000 418.400000
12752 5084 14241 1 149.00000 418.400000
12753 5085 15512 1 149.00000 418.400000
12753 5086 13658 1 149.00000 418.400000
12753 5087 15004 1 149.00000 418.400000
12754 5088 13418 1 149.00000 418.400000
12754 5089 15958 1 149.00000 418.400000
12754 5090 15565 1 149.00000 418.400000
12754 5091 21931 1 149.00000 418.400000
12755 5092 20446 1 149.00000 418.400000
12755 5093 21520 1 149.00000 418.400000
12755 5094 13808 1 149.00000 418.400000
12755 5095 18814 1 149.00000 418.400000
12756 5096 16065 1 149.00000 418.400000
12756 5097 14384 1 149.00000 418.400000
12756 5098 14445 1 149.00000 418.400000
12756 5099 14727 1 149.00000 418.400000
12757 5100 16064 1 149.00000 418.400000
12757 5101 14089 1 149.00000 418.400000
12757 5102 14716 1 149.00000 418.400000
12757 5103 16408 1 149.00000 418.400000
13206 5104 20302 1 149.00000 418.400000
12973 5105 20302 1 149.00000 418.400000
12758 5106 16614 1 149.00000 418.400000
11858 5107 12758 1 149.00000 418.400000
12759 5108 15435 1 149.00000 418.400000
12759 5109 15046 1 149.00000 418.400000
12759 5110 14175 1 149.00000 418.400000
12759 5111 15549 1 149.00000 418.400000
12760 5112 13061 1 149.00000 418.400000
12760 5113 13175 1 149.00000 418.400000
12760 5114 13636 1 149.00000 418.400000
13175 5115 13690 1 149.00000 418.400000
12761 5116 16247 1 149.00000 418.400000
12761 5117 16602 1 149.00000 418.400000
12762 5118 15257 1 149.00000 418.400000
12762 5119 15162 1 149.00000 418.400000
12762 5120 13822 1 149.00000 418.400000
12762 5121 13752 1 149.00000 418.400000
12763 5122 14565 1 149.00000 418.400000
12763 5123 12764 1 149.00000 418.400000
12763 5124 12856 1 149.00000 418.400000
12764 5125 14439 1 149.00000 418.400000
12764 5126 16323 1 149.00000 418.400000
12765 5127 14547 1 149.00000 418.400000
12765 5128 15497 1 149.00000 418.400000
12765 5129 16048 1 149.00000 418.400000
20290 5130 21421 1 149.00000 418.400000
14025 5131 21421 1 149.00000 418.400000
13279 5132 21421 1 149.00000 418.400000
12766 5133 21637 1 149.00000 418.400000
12766 5134 12795 1 149.00000 418.400000
12767 5135 14674 1 149.00000 418.400000
12767 5136 13454 1 149.00000 418.400000
12768 5137 15204 1 149.00000 418.400000
11920 5138 12768 1 149.00000 418.400000
12768 5139 15573 1 149.00000 418.400000
12768 5140 13817 1 149.00000 418.400000
17414 5141 19414 1 149.00000 418.400000
19414 5142 21940 1 149.00000 418.400000
15306 5143 19414 1 149.00000 418.400000
12769 5144 13763 1 149.00000 418.400000
12769 5145 15665 1 149.00000 418.400000
12769 5146 13500 1 149.00000 418.400000
12769 5147 15047 1 149.00000 418.400000
12770 5148 15244 1 149.00000 418.400000
12770 5149 13871 1 149.00000 418.400000
12770 5150 14297 1 149.00000 418.400000
12771 5151 13931 1 149.00000 418.400000
12771 5152 14703 1 149.00000 418.400000
12771 5153 15733 1 149.00000 418.400000
12772 5154 14261 1 149.00000 418.400000
12772 5155 12837 1 149.00000 418.400000
12772 5156 12895 1 149.00000 418.400000
11398 5157 12773 1 149.00000 418.400000
12773 5158 12828 1 149.00000 418.400000
12773 5159 13121 1 149.00000 418.400000
12773 5160 14248 1 149.00000 418.400000
11670 5161 16432 1 149.00000 418.400000
12774 5162 16432 1 149.00000 418.400000
12775 5163 13403 1 149.00000 418.400000
12775 5164 14988 1 149.00000 418.400000
12776 5165 15569 1 149.00000 418.400000
12776 5166 13164 1 149.00000 418.400000
12777 5167 16302 1 149.00000 418.400000
12777 5168 16509 1 149.00000 418.400000
12778 5169 14578 1 149.00000 418.400000
12778 5170 15696 1 149.00000 418.400000
12779 5171 19510 1 149.00000 418.400000
12780 5172 12898 1 149.00000 418.400000
17820 5173 17946 1 149.00000 418.400000
15412 5174 17820 1 149.00000 418.400000
12781 5175 21532 1 149.00000 418.400000
12781 5176 15714 1 149.00000 418.400000
12781 5177 15963 1 149.00000 418.400000
12781 5178 20890 1 149.00000 418.400000
12782 5179 14976 1 149.00000 418.400000
12782 5180 15280 1 149.00000 418.400000
12782 5181 12848 1 149.00000 418.400000
12783 5182 14223 1 149.00000 418.400000
12783 5183 21592 1 149.00000 418.400000
12783 5184 15299 1 149.00000 418.400000
12784 5185 15498 1 149.00000 418.400000
12784 5186 16254 1 149.00000 418.400000
12784 5187 13549 1 149.00000 418.400000
20314 5188 21919 1 149.00000 418.400000
15276 5189 20314 1 149.00000 418.400000
12785 5190 15822 1 149.00000 418.400000
12786 5191 13959 1 149.00000 418.400000
12786 5192 14097 1 149.00000 418.400000
12786 5193 13738 1 149.00000 418.400000
12787 5194 14890 1 149.00000 418.400000
12787 5195 16200 1 149.00000 418.400000
12787 5196 13945 1 149.00000 418.400000
11713 5197 12788 1 149.00000 418.400000
12788 5198 16436 1 149.00000 418.400000
12788 5199 13707 1 149.00000 418.400000
12789 5200 16578 1 149.00000 418.400000
12789 5201 13395 1 149.00000 418.400000
12789 5202 13364 1 149.00000 418.400000
12790 5203 14147 1 149.00000 418.400000
11726 5204 12790 1 149.00000 418.400000
12790 5205 12951 1 149.00000 418.400000
12791 5206 14216 1 149.00000 418.400000
13510 5207 14216 1 149.00000 418.400000
12791 5208 14239 1 149.00000 418.400000
12791 5209 15763 1 149.00000 418.400000
12792 5210 13785 1 149.00000 418.400000
12792 5211 14778 1 149.00000 418.400000
12792 5212 14205 1 149.00000 418.400000
12792 5213 16259 1 149.00000 418.400000
12793 5214 12956 1 149.00000 418.400000
12793 5215 16454 1 149.00000 418.400000
12793 5216 21646 1 149.00000 418.400000
12794 5217 13018 1 149.00000 418.400000
12794 5218 13160 1 149.00000 418.400000
12794 5219 13192 1 149.00000 418.400000
12794 5220 15972 1 149.00000 418.400000
12795 5221 19282 1 149.00000 418.400000
12796 5222 16374 1 149.00000 418.400000
14022 5223 14854 1 149.00000 418.400000
12797 5224 14022 1 149.00000 418.400000
12797 5225 16193 1 149.00000 418.400000
12797 5226 16177 1 149.00000 418.400000
12798 5227 16183 1 149.00000 418.400000
12798 5228 14948 1 149.00000 418.400000
12798 5229 13346 1 149.00000 418.400000
12798 5230 21700 1 149.00000 418.400000
15468 5231 15568 1 149.00000 418.400000
12799 5232 13332 1 149.00000 418.400000
12799 5233 15468 1 149.00000 418.400000
12800 5234 19534 1 149.00000 418.400000
12800 5235 14564 1 149.00000 418.400000
12801 5236 13651 1 149.00000 418.400000
12801 5237 15880 1 149.00000 418.400000
12802 5238 16011 1 149.00000 418.400000
14775 5239 16011 1 149.00000 418.400000
12802 5240 14954 1 149.00000 418.400000
12802 5241 14531 1 149.00000 418.400000
12803 5242 13684 1 149.00000 418.400000
12803 5243 15026 1 149.00000 418.400000
12803 5244 16038 1 149.00000 418.400000
12803 5245 13303 1 149.00000 418.400000
12804 5246 13490 1 149.00000 418.400000
12804 5247 13692 1 149.00000 418.400000
12804 5248 13544 1 149.00000 418.400000
12805 5249 14118 1 149.00000 418.400000
12805 5250 14049 1 149.00000 418.400000
12805 5251 21487 1 149.00000 418.400000
15732 5252 15874 1 149.00000 418.400000
12806 5253 15874 1 149.00000 418.400000
12806 5254 15182 1 149.00000 418.400000
12806 5255 15916 1 149.00000 418.400000
14274 5256 21424 1 149.00000 418.400000
21424 5257 22009 1 149.00000 418.400000
12807 5258 17050 1 149.00000 418.400000
12807 5259 15140 1 149.00000 418.400000
15941 5260 21070 1 149.00000 418.400000
13689 5261 21070 1 149.00000 418.400000
12808 5262 16499 1 149.00000 418.400000
12808 5263 16036 1 149.00000 418.400000
12808 5264 15338 1 149.00000 418.400000
12809 5265 14496 1 149.00000 418.400000
12809 5266 16499 1 149.00000 418.400000
12810 5267 13867 1 149.00000 418.400000
12810 5268 18044 1 149.00000 418.400000
12810 5269 21928 1 149.00000 418.400000
12810 5270 21895 1 149.00000 418.400000
12811 5271 14421 1 149.00000 418.400000
12811 5272 15269 1 149.00000 418.400000
12811 5273 13565 1 149.00000 418.400000
12812 5274 15001 1 149.00000 418.400000
12812 5275 14222 1 149.00000 418.400000
12812 5276 12853 1 149.00000 418.400000
12813 5277 13605 1 149.00000 418.400000
12813 5278 16290 1 149.00000 418.400000
12813 5279 15588 1 149.00000 418.400000
12813 5280 14656 1 149.00000 418.400000
12814 5281 14166 1 149.00000 418.400000
12814 5282 16251 1 149.00000 418.400000
12814 5283 13012 1 149.00000 418.400000
12814 5284 14197 1 149.00000 418.400000
12815 5285 16588 1 149.00000 418.400000
12815 5286 15625 1 149.00000 418.400000
19510 5287 20854 1 149.00000 418.400000
19510 5288 21556 1 149.00000 418.400000
12816 5289 16034 1 149.00000 418.400000
12816 5290 13270 1 149.00000 418.400000
12816 5291 13665 1 149.00000 418.400000
12817 5292 13912 1 149.00000 418.400000
12817 5293 13152 1 149.00000 418.400000
12817 5294 14997 1 149.00000 418.400000
12818 5295 14631 1 149.00000 418.400000
12818 5296 13589 1 149.00000 418.400000
12818 5297 15180 1 149.00000 418.400000
13471 5298 20386 1 149.00000 418.400000
20386 5299 21598 1 149.00000 418.400000
11458 5300 12819 1 149.00000 418.400000
12819 5301 15339 1 149.00000 418.400000
12819 5302 14885 1 149.00000 418.400000
12820 5303 13701 1 149.00000 418.400000
12820 5304 14152 1 149.00000 418.400000
12821 5305 14203 1 149.00000 418.400000
12821 5306 15358 1 149.00000 418.400000
12821 5307 20638 1 149.00000 418.400000
12822 5308 12832 1 149.00000 418.400000
12822 5309 14030 1 149.00000 418.400000
12822 5310 14008 1 149.00000 418.400000
12822 5311 13816 1 149.00000 418.400000
12823 5312 13230 1 149.00000 418.400000
12824 5313 13848 1 149.00000 418.400000
12824 5314 14130 1 149.00000 418.400000
12824 5315 14225 1 149.00000 418.400000
12824 5316 16138 1 149.00000 418.400000
12825 5317 12955 1 149.00000 418.400000
12825 5318 12868 1 149.00000 418.400000
12825 5319 13301 1 149.00000 418.400000
12825 5320 15744 1 149.00000 418.400000
12826 5321 14826 1 149.00000 418.400000
12826 5322 21520 1 149.00000 418.400000
12826 5323 14232 1 149.00000 418.400000
16391 5324 19438 1 149.00000 418.400000
19438 5325 20758 1 149.00000 418.400000
12827 5326 14296 1 149.00000 418.400000
12827 5327 15291 1 149.00000 418.400000
12827 5328 13724 1 149.00000 418.400000
12828 5329 14359 1 149.00000 418.400000
12829 5330 13882 1 149.00000 418.400000
12829 5331 14607 1 149.00000 418.400000
12829 5332 16395 1 149.00000 418.400000
12830 5333 18754 1 149.00000 418.400000
12830 5334 15209 1 149.00000 418.400000
13788 5335 15527 1 149.00000 418.400000
12831 5336 14037 1 149.00000 418.400000
14037 5337 15527 1 149.00000 418.400000
14220 5338 15527 1 149.00000 418.400000
12832 5339 16108 1 149.00000 418.400000
12832 5340 13182 1 149.00000 418.400000
12832 5341 15542 1 149.00000 418.400000
12833 5342 15667 1 149.00000 418.400000
12833 5343 15691 1 149.00000 418.400000
14330 5344 17442 1 149.00000 418.400000
12834 5345 13584 1 149.00000 418.400000
12834 5346 13007 1 149.00000 418.400000
12834 5347 14958 1 149.00000 418.400000
12835 5348 20110 1 149.00000 418.400000
12835 5349 15843 1 149.00000 418.400000
12835 5350 13656 1 149.00000 418.400000
13337 5351 21427 1 149.00000 418.400000
21589 5352 21964 1 149.00000 418.400000
12836 5353 15966 1 149.00000 418.400000
12837 5354 15306 1 149.00000 418.400000
12837 5355 13495 1 149.00000 418.400000
17638 5356 19018 1 149.00000 418.400000
12838 5357 12890 1 149.00000 418.400000
12838 5358 16529 1 149.00000 418.400000
11847 5359 12838 1 149.00000 418.400000
12838 5360 13841 1 149.00000 418.400000
12839 5361 21484 1 149.00000 418.400000
12839 5362 16022 1 149.00000 418.400000
12839 5363 14296 1 149.00000 418.400000
12840 5364 15379 1 149.00000 418.400000
12840 5365 15734 1 149.00000 418.400000
12841 5366 16069 1 149.00000 418.400000
12841 5367 13669 1 149.00000 418.400000
12841 5368 15738 1 149.00000 418.400000
12842 5369 13821 1 149.00000 418.400000
12842 5370 12859 1 149.00000 418.400000
12842 5371 15574 1 149.00000 418.400000
12843 5372 14689 1 149.00000 418.400000
15951 5373 17750 1 149.00000 418.400000
17750 5374 21595 1 149.00000 418.400000
13470 5375 14419 1 149.00000 418.400000
13470 5376 16251 1 149.00000 418.400000
12844 5377 15574 1 149.00000 418.400000
12844 5378 15273 1 149.00000 418.400000
12845 5379 15703 1 149.00000 418.400000
12151 5380 12845 1 149.00000 418.400000
12846 5381 15898 1 149.00000 418.400000
12847 5382 14296 1 149.00000 418.400000
12847 5383 13766 1 149.00000 418.400000
12847 5384 12971 1 149.00000 418.400000
12848 5385 15979 1 149.00000 418.400000
12848 5386 13422 1 149.00000 418.400000
12848 5387 13791 1 149.00000 418.400000
12849 5388 13998 1 149.00000 418.400000
12849 5389 13540 1 149.00000 418.400000
12849 5390 13319 1 149.00000 418.400000
12850 5391 15322 1 149.00000 418.400000
12850 5392 19738 1 149.00000 418.400000
12299 5393 21430 1 149.00000 418.400000
15977 5394 21430 1 149.00000 418.400000
12851 5395 13034 1 149.00000 418.400000
12851 5396 12952 1 149.00000 418.400000
12851 5397 13288 1 149.00000 418.400000
12851 5398 14603 1 149.00000 418.400000
12852 5399 16495 1 149.00000 418.400000
12852 5400 16419 1 149.00000 418.400000
12852 5401 13273 1 149.00000 418.400000
12852 5402 13857 1 149.00000 418.400000
12853 5403 13606 1 149.00000 418.400000
12853 5404 12874 1 149.00000 418.400000
12853 5405 15195 1 149.00000 418.400000
12854 5406 13934 1 149.00000 418.400000
12854 5407 13354 1 149.00000 418.400000
12854 5408 13365 1 149.00000 418.400000
12855 5409 15804 1 149.00000 418.400000
11960 5410 12855 1 149.00000 418.400000
12856 5411 15826 1 149.00000 418.400000
12856 5412 15234 1 149.00000 418.400000
12857 5413 16163 1 149.00000 418.400000
12857 5414 21685 1 149.00000 418.400000
12858 5415 16554 1 149.00000 418.400000
12858 5416 13775 1 149.00000 418.400000
12859 5417 16298 1 149.00000 418.400000
12859 5418 16504 1 149.00000 418.400000
12844 5419 12859 1 149.00000 418.400000
12860 5420 15145 1 149.00000 418.400000
12860 5421 14137 1 149.00000 418.400000
12860 5422 13409 1 149.00000 418.400000
12860 5423 16386 1 149.00000 418.400000
12861 5424 13278 1 149.00000 418.400000
12861 5425 14957 1 149.00000 418.400000
12861 5426 15523 1 149.00000 418.400000
19990 5427 21433 1 149.00000 418.400000
15438 5428 21433 1 149.00000 418.400000
12862 5429 13699 1 149.00000 418.400000
12862 5430 14872 1 149.00000 418.400000
12863 5431 13378 1 149.00000 418.400000
12863 5432 14511 1 149.00000 418.400000
12863 5433 13394 1 149.00000 418.400000
12864 5434 14397 1 149.00000 418.400000
12864 5435 16466 1 149.00000 418.400000
12864 5436 16609 1 149.00000 418.400000
12865 5437 21709 1 149.00000 418.400000
12865 5438 14393 1 149.00000 418.400000
12865 5439 12897 1 149.00000 418.400000
14093 5440 21289 1 149.00000 418.400000
12866 5441 21757 1 149.00000 418.400000
12866 5442 20266 1 149.00000 418.400000
12866 5443 13444 1 149.00000 418.400000
14465 5444 16798 1 149.00000 418.400000
14102 5445 16421 1 149.00000 418.400000
12867 5446 14102 1 149.00000 418.400000
12867 5447 15780 1 149.00000 418.400000
12868 5448 22009 1 149.00000 418.400000
12868 5449 16157 1 149.00000 418.400000
11597 5450 12869 1 149.00000 418.400000
11802 5451 14928 1 149.00000 418.400000
11802 5452 14939 1 149.00000 418.400000
12870 5453 14892 1 149.00000 418.400000
12870 5454 15974 1 149.00000 418.400000
12870 5455 15645 1 149.00000 418.400000
12871 5456 16571 1 149.00000 418.400000
12871 5457 15648 1 149.00000 418.400000
12871 5458 15310 1 149.00000 418.400000
12871 5459 13954 1 149.00000 418.400000
12872 5460 21550 1 149.00000 418.400000
12872 5461 15441 1 149.00000 418.400000
12872 5462 16994 1 149.00000 418.400000
12872 5463 13980 1 149.00000 418.400000
13110 5464 13274 1 149.00000 418.400000
12874 5465 13579 1 149.00000 418.400000
12874 5466 13110 1 149.00000 418.400000
12875 5467 21769 1 149.00000 418.400000
12875 5468 18514 1 149.00000 418.400000
12875 5469 13032 1 149.00000 418.400000
12876 5470 14534 1 149.00000 418.400000
12876 5471 15652 1 149.00000 418.400000
18240 5472 18862 1 149.00000 418.400000
18862 5473 19666 1 149.00000 418.400000
12877 5474 15279 1 149.00000 418.400000
12877 5475 13527 1 149.00000 418.400000
11596 5476 16018 1 149.00000 418.400000
12879 5477 16281 1 149.00000 418.400000
12879 5478 14767 1 149.00000 418.400000
12880 5479 15922 1 149.00000 418.400000
12880 5480 15558 1 149.00000 418.400000
12880 5481 16380 1 149.00000 418.400000
12880 5482 14410 1 149.00000 418.400000
12881 5483 16174 1 149.00000 418.400000
12881 5484 13843 1 149.00000 418.400000
12881 5485 13412 1 149.00000 418.400000
12882 5486 13752 1 149.00000 418.400000
12882 5487 16604 1 149.00000 418.400000
12883 5488 14598 1 149.00000 418.400000
12883 5489 14995 1 149.00000 418.400000
12883 5490 13815 1 149.00000 418.400000
12884 5491 14249 1 149.00000 418.400000
12884 5492 14197 1 149.00000 418.400000
12884 5493 15512 1 149.00000 418.400000
12885 5494 14535 1 149.00000 418.400000
12885 5495 14186 1 149.00000 418.400000
12886 5496 16426 1 149.00000 418.400000
12886 5497 15499 1 149.00000 418.400000
12886 5498 20374 1 149.00000 418.400000
12887 5499 15120 1 149.00000 418.400000
12887 5500 16410 1 149.00000 418.400000
12888 5501 18814 1 149.00000 418.400000
12888 5502 14771 1 149.00000 418.400000
12888 5503 16200 1 149.00000 418.400000
12889 5504 21658 1 149.00000 418.400000
12889 5505 15915 1 149.00000 418.400000
12889 5506 18730 1 149.00000 418.400000
12890 5507 15946 1 149.00000 418.400000
12890 5508 15085 1 149.00000 418.400000
12890 5509 15644 1 149.00000 418.400000
12891 5510 13185 1 149.00000 418.400000
12891 5511 14486 1 149.00000 418.400000
12892 5512 16231 1 149.00000 418.400000
12892 5513 16602 1 149.00000 418.400000
12892 5514 14284 1 149.00000 418.400000
12892 5515 15400 1 149.00000 418.400000
12893 5516 15792 1 149.00000 418.400000
12894 5517 16571 1 149.00000 418.400000
12894 5518 13743 1 149.00000 418.400000
12894 5519 13213 1 149.00000 418.400000
12895 5520 15371 1 149.00000 418.400000
12895 5521 12951 1 149.00000 418.400000
12895 5522 15313 1 149.00000 418.400000
12896 5523 14492 1 149.00000 418.400000
12896 5524 14451 1 149.00000 418.400000
12897 5525 16333 1 149.00000 418.400000
12898 5526 14114 1 149.00000 418.400000
12898 5527 13054 1 149.00000 418.400000
12899 5528 13799 1 149.00000 418.400000
12899 5529 15008 1 149.00000 418.400000
12899 5530 13438 1 149.00000 418.400000
12899 5531 14417 1 149.00000 418.400000
12900 5532 13100 1 149.00000 418.400000
12900 5533 13169 1 149.00000 418.400000
12900 5534 13170 1 149.00000 418.400000
12901 5535 13750 1 149.00000 418.400000
12901 5536 16239 1 149.00000 418.400000
12902 5537 16486 1 149.00000 418.400000
12902 5538 13308 1 149.00000 418.400000
12902 5539 15493 1 149.00000 418.400000
17876 5540 19102 1 149.00000 418.400000
14091 5541 17876 1 149.00000 418.400000
12903 5542 22044 1 149.00000 418.400000
12903 5543 15324 1 149.00000 418.400000
12904 5544 16214 1 149.00000 418.400000
14151 5545 15943 1 149.00000 418.400000
12904 5546 14363 1 149.00000 418.400000
12904 5547 15943 1 149.00000 418.400000
12905 5548 16029 1 149.00000 418.400000
12905 5549 14036 1 149.00000 418.400000
12222 5550 15886 1 149.00000 418.400000
12906 5551 16331 1 149.00000 418.400000
12906 5552 14006 1 149.00000 418.400000
12907 5553 16018 1 149.00000 418.400000
12907 5554 15367 1 149.00000 418.400000
12907 5555 14320 1 149.00000 418.400000
12907 5556 13128 1 149.00000 418.400000
12908 5557 15353 1 149.00000 418.400000
12908 5558 14571 1 149.00000 418.400000
12908 5559 14329 1 149.00000 418.400000
12909 5560 16317 1 149.00000 418.400000
12909 5561 20182 1 149.00000 418.400000
12910 5562 14391 1 149.00000 418.400000
12910 5563 14794 1 149.00000 418.400000
12910 5564 14366 1 149.00000 418.400000
12912 5565 15692 1 149.00000 418.400000
12912 5566 18156 1 149.00000 418.400000
12912 5567 15927 1 149.00000 418.400000
12913 5568 14099 1 149.00000 418.400000
12913 5569 14537 1 149.00000 418.400000
12913 5570 12928 1 149.00000 418.400000
12914 5571 13612 1 149.00000 418.400000
12915 5572 14188 1 149.00000 418.400000
12915 5573 16127 1 149.00000 418.400000
12916 5574 15960 1 149.00000 418.400000
12916 5575 13709 1 149.00000 418.400000
12916 5576 16199 1 149.00000 418.400000
12068 5577 15584 1 149.00000 418.400000
15584 5578 17960 1 149.00000 418.400000
13529 5579 18730 1 149.00000 418.400000
14878 5580 16207 1 149.00000 418.400000
14878 5581 18730 1 149.00000 418.400000
12917 5582 13314 1 149.00000 418.400000
12917 5583 15594 1 149.00000 418.400000
12917 5584 14412 1 149.00000 418.400000
12918 5585 15910 1 149.00000 418.400000
12918 5586 13569 1 149.00000 418.400000
12919 5587 14107 1 149.00000 418.400000
12919 5588 15102 1 149.00000 418.400000
12919 5589 13450 1 149.00000 418.400000
12919 5590 16572 1 149.00000 418.400000
12920 5591 16619 1 149.00000 418.400000
12920 5592 19486 1 149.00000 418.400000
12920 5593 13815 1 149.00000 418.400000
12921 5594 14499 1 149.00000 418.400000
12921 5595 13081 1 149.00000 418.400000
12921 5596 15578 1 149.00000 418.400000
12921 5597 16107 1 149.00000 418.400000
12922 5598 15636 1 149.00000 418.400000
12922 5599 12998 1 149.00000 418.400000
12923 5600 15722 1 149.00000 418.400000
12923 5601 13686 1 149.00000 418.400000
12924 5602 14346 1 149.00000 418.400000
12924 5603 14492 1 149.00000 418.400000
12924 5604 13781 1 149.00000 418.400000
12925 5605 14389 1 149.00000 418.400000
12925 5606 14715 1 149.00000 418.400000
12925 5607 14202 1 149.00000 418.400000
12925 5608 13517 1 149.00000 418.400000
12926 5609 14256 1 149.00000 418.400000
12926 5610 15079 1 149.00000 418.400000
12926 5611 16579 1 149.00000 418.400000
12927 5612 15519 1 149.00000 418.400000
12927 5613 15370 1 149.00000 418.400000
12927 5614 16249 1 149.00000 418.400000
12928 5615 14214 1 149.00000 418.400000
12928 5616 15637 1 149.00000 418.400000
12928 5617 15078 1 149.00000 418.400000
12929 5618 15717 1 149.00000 418.400000
12929 5619 14377 1 149.00000 418.400000
12929 5620 14120 1 149.00000 418.400000
12929 5621 13662 1 149.00000 418.400000
12930 5622 15174 1 149.00000 418.400000
12930 5623 16487 1 149.00000 418.400000
12930 5624 14307 1 149.00000 418.400000
12930 5625 14377 1 149.00000 418.400000
12931 5626 16269 1 149.00000 418.400000
12932 5627 21898 1 149.00000 418.400000
12932 5628 14583 1 149.00000 418.400000
12933 5629 14243 1 149.00000 418.400000
13778 5630 21436 1 149.00000 418.400000
12934 5631 14208 1 149.00000 418.400000
15253 5632 16070 1 149.00000 418.400000
12934 5633 16070 1 149.00000 418.400000
12934 5634 13484 1 149.00000 418.400000
12935 5635 16134 1 149.00000 418.400000
12935 5636 16036 1 149.00000 418.400000
12935 5637 13005 1 149.00000 418.400000
12935 5638 13627 1 149.00000 418.400000
12936 5639 15307 1 149.00000 418.400000
12936 5640 13283 1 149.00000 418.400000
12936 5641 15526 1 149.00000 418.400000
12937 5642 14783 1 149.00000 418.400000
12937 5643 16336 1 149.00000 418.400000
12937 5644 13678 1 149.00000 418.400000
12937 5645 14653 1 149.00000 418.400000
12938 5646 13655 1 149.00000 418.400000
12938 5647 15427 1 149.00000 418.400000
12938 5648 14715 1 149.00000 418.400000
12939 5649 16518 1 149.00000 418.400000
12939 5650 14184 1 149.00000 418.400000
12939 5651 15188 1 149.00000 418.400000
12939 5652 16541 1 149.00000 418.400000
13984 5653 14900 1 149.00000 418.400000
12940 5654 13984 1 149.00000 418.400000
12940 5655 14388 1 149.00000 418.400000
12941 5656 13680 1 149.00000 418.400000
12941 5657 13893 1 149.00000 418.400000
12941 5658 15373 1 149.00000 418.400000
12941 5659 15917 1 149.00000 418.400000
15761 5660 21313 1 149.00000 418.400000
12942 5661 13190 1 149.00000 418.400000
12942 5662 15548 1 149.00000 418.400000
12942 5663 14051 1 149.00000 418.400000
12943 5664 13889 1 149.00000 418.400000
12943 5665 13105 1 149.00000 418.400000
12943 5666 13400 1 149.00000 418.400000
12944 5667 14912 1 149.00000 418.400000
12944 5668 16486 1 149.00000 418.400000
12944 5669 14441 1 149.00000 418.400000
12945 5670 14214 1 149.00000 418.400000
12945 5671 19678 1 149.00000 418.400000
12945 5672 13112 1 149.00000 418.400000
12945 5673 15779 1 149.00000 418.400000
12946 5674 14208 1 149.00000 418.400000
12946 5675 13164 1 149.00000 418.400000
12946 5676 13496 1 149.00000 418.400000
12946 5677 12984 1 149.00000 418.400000
12947 5678 15349 1 149.00000 418.400000
12947 5679 13680 1 149.00000 418.400000
12947 5680 16202 1 149.00000 418.400000
12948 5681 16438 1 149.00000 418.400000
12948 5682 14553 1 149.00000 418.400000
12949 5683 14796 1 149.00000 418.400000
12949 5684 14425 1 149.00000 418.400000
12949 5685 15544 1 149.00000 418.400000
12950 5686 15799 1 149.00000 418.400000
12950 5687 14443 1 149.00000 418.400000
12950 5688 14004 1 149.00000 418.400000
12951 5689 14510 1 149.00000 418.400000
12951 5690 14832 1 149.00000 418.400000
12952 5691 16250 1 149.00000 418.400000
12952 5692 13853 1 149.00000 418.400000
12952 5693 14892 1 149.00000 418.400000
11854 5694 13312 1 149.00000 418.400000
13312 5695 16082 1 149.00000 418.400000
12954 5696 15274 1 149.00000 418.400000
12954 5697 15270 1 149.00000 418.400000
12954 5698 15835 1 149.00000 418.400000
12954 5699 16079 1 149.00000 418.400000
12955 5700 13183 1 149.00000 418.400000
12955 5701 16244 1 149.00000 418.400000
12955 5702 16115 1 149.00000 418.400000
12956 5703 15226 1 149.00000 418.400000
12956 5704 13227 1 149.00000 418.400000
12956 5705 15890 1 149.00000 418.400000
13003 5706 13930 1 149.00000 418.400000
12957 5707 14754 1 149.00000 418.400000
12957 5708 13003 1 149.00000 418.400000
12958 5709 19402 1 149.00000 418.400000
12958 5710 13423 1 149.00000 418.400000
12959 5711 13695 1 149.00000 418.400000
12959 5712 13714 1 149.00000 418.400000
12960 5713 14411 1 149.00000 418.400000
12960 5714 21508 1 149.00000 418.400000
12961 5715 14528 1 149.00000 418.400000
12961 5716 13391 1 149.00000 418.400000
12961 5717 13936 1 149.00000 418.400000
12962 5718 14933 1 149.00000 418.400000
12962 5719 13923 1 149.00000 418.400000
12962 5720 16294 1 149.00000 418.400000
12962 5721 16316 1 149.00000 418.400000
12963 5722 14813 1 149.00000 418.400000
12963 5723 14639 1 149.00000 418.400000
12963 5724 15493 1 149.00000 418.400000
16069 5725 21439 1 149.00000 418.400000
13959 5726 21439 1 149.00000 418.400000
19318 5727 21439 1 149.00000 418.400000
12964 5728 14726 1 149.00000 418.400000
12964 5729 14048 1 149.00000 418.400000
12964 5730 15091 1 149.00000 418.400000
12965 5731 15120 1 149.00000 418.400000
12965 5732 14265 1 149.00000 418.400000
12966 5733 13264 1 149.00000 418.400000
12966 5734 13315 1 149.00000 418.400000
12967 5735 15773 1 149.00000 418.400000
12967 5736 13535 1 149.00000 418.400000
16232 5737 17316 1 149.00000 418.400000
12968 5738 15828 1 149.00000 418.400000
12968 5739 13380 1 149.00000 418.400000
12968 5740 15612 1 149.00000 418.400000
12968 5741 14942 1 149.00000 418.400000
12969 5742 16144 1 149.00000 418.400000
12969 5743 13038 1 149.00000 418.400000
15021 5744 16144 1 149.00000 418.400000
12784 5745 12970 1 149.00000 418.400000
12970 5746 14270 1 149.00000 418.400000
12971 5747 15288 1 149.00000 418.400000
12971 5748 14437 1 149.00000 418.400000
12972 5749 14612 1 149.00000 418.400000
12972 5750 14000 1 149.00000 418.400000
12973 5751 14012 1 149.00000 418.400000
12973 5752 14090 1 149.00000 418.400000
12974 5753 13609 1 149.00000 418.400000
12974 5754 13244 1 149.00000 418.400000
12974 5755 16090 1 149.00000 418.400000
12975 5756 14561 1 149.00000 418.400000
12975 5757 14452 1 149.00000 418.400000
12975 5758 14084 1 149.00000 418.400000
12976 5759 14743 1 149.00000 418.400000
14743 5760 16459 1 149.00000 418.400000
12977 5761 14987 1 149.00000 418.400000
12977 5762 21974 1 149.00000 418.400000
12977 5763 21802 1 149.00000 418.400000
14668 5764 14987 1 149.00000 418.400000
12978 5765 13319 1 149.00000 418.400000
12978 5766 16027 1 149.00000 418.400000
12979 5767 15739 1 149.00000 418.400000
12979 5768 14478 1 149.00000 418.400000
12979 5769 15491 1 149.00000 418.400000
12979 5770 14000 1 149.00000 418.400000
12980 5771 14862 1 149.00000 418.400000
12981 5772 15951 1 149.00000 418.400000
12981 5773 15197 1 149.00000 418.400000
12982 5774 13752 1 149.00000 418.400000
12982 5775 13641 1 149.00000 418.400000
12982 5776 16431 1 149.00000 418.400000
12983 5777 13001 1 149.00000 418.400000
12983 5778 13522 1 149.00000 418.400000
12983 5779 14927 1 149.00000 418.400000
12984 5780 13760 1 149.00000 418.400000
12984 5781 14145 1 149.00000 418.400000
12984 5782 13631 1 149.00000 418.400000
12985 5783 15014 1 149.00000 418.400000
12985 5784 13232 1 149.00000 418.400000
12985 5785 15149 1 149.00000 418.400000
12986 5786 19210 1 149.00000 418.400000
12987 5787 13654 1 149.00000 418.400000
12987 5788 15590 1 149.00000 418.400000
12987 5789 14018 1 149.00000 418.400000
12987 5790 16166 1 149.00000 418.400000
15327 5791 15581 1 149.00000 418.400000
12988 5792 15327 1 149.00000 418.400000
12988 5793 15086 1 149.00000 418.400000
13316 5794 13973 1 149.00000 418.400000
12989 5795 14358 1 149.00000 418.400000
12989 5796 14127 1 149.00000 418.400000
12989 5797 13973 1 149.00000 418.400000
12990 5798 13701 1 149.00000 418.400000
11458 5799 12990 1 149.00000 418.400000
12990 5800 14308 1 149.00000 418.400000
12990 5801 13913 1 149.00000 418.400000
12991 5802 13407 1 149.00000 418.400000
12992 5803 15432 1 149.00000 418.400000
12992 5804 15338 1 149.00000 418.400000
12992 5805 16134 1 149.00000 418.400000
12993 5806 15590 1 149.00000 418.400000
12993 5807 15318 1 149.00000 418.400000
12993 5808 14947 1 149.00000 418.400000
12993 5809 15526 1 149.00000 418.400000
12994 5810 15705 1 149.00000 418.400000
12994 5811 14977 1 149.00000 418.400000
12995 5812 13150 1 149.00000 418.400000
12995 5813 14225 1 149.00000 418.400000
12995 5814 13049 1 149.00000 418.400000
12996 5815 16459 1 149.00000 418.400000
12996 5816 15995 1 149.00000 418.400000
12996 5817 13581 1 149.00000 418.400000
12997 5818 16137 1 149.00000 418.400000
12997 5819 16392 1 149.00000 418.400000
12922 5820 13813 1 149.00000 418.400000
12998 5821 14214 1 149.00000 418.400000
12999 5822 14575 1 149.00000 418.400000
12999 5823 16315 1 149.00000 418.400000
13349 5824 15368 1 149.00000 418.400000
13000 5825 15368 1 149.00000 418.400000
13000 5826 15338 1 149.00000 418.400000
13000 5827 13989 1 149.00000 418.400000
14285 5828 14335 1 149.00000 418.400000
14335 5829 20734 1 149.00000 418.400000
13243 5830 20614 1 149.00000 418.400000
13001 5831 15200 1 149.00000 418.400000
15325 5832 21442 1 149.00000 418.400000
14321 5833 21442 1 149.00000 418.400000
21442 5834 21559 1 149.00000 418.400000
13002 5835 14122 1 149.00000 418.400000
13002 5836 14712 1 149.00000 418.400000
14460 5837 14712 1 149.00000 418.400000
14342 5838 14712 1 149.00000 418.400000
16413 5839 21445 1 149.00000 418.400000
14787 5840 16413 1 149.00000 418.400000
16413 5841 18478 1 149.00000 418.400000
16275 5842 16413 1 149.00000 418.400000
13003 5843 15075 1 149.00000 418.400000
12957 5844 16448 1 149.00000 418.400000
13004 5845 21989 1 149.00000 418.400000
13004 5846 21979 1 149.00000 418.400000
13005 5847 13885 1 149.00000 418.400000
13005 5848 21613 1 149.00000 418.400000
13005 5849 14968 1 149.00000 418.400000
13006 5850 16015 1 149.00000 418.400000
13006 5851 14299 1 149.00000 418.400000
13006 5852 14990 1 149.00000 418.400000
13007 5853 16210 1 149.00000 418.400000
13008 5854 19234 1 149.00000 418.400000
13008 5855 13950 1 149.00000 418.400000
13008 5856 15458 1 149.00000 418.400000
13008 5857 15776 1 149.00000 418.400000
12730 5858 13009 1 149.00000 418.400000
13009 5859 13461 1 149.00000 418.400000
15622 5860 21448 1 149.00000 418.400000
15210 5861 15622 1 149.00000 418.400000
13010 5862 15929 1 149.00000 418.400000
14312 5863 15147 1 149.00000 418.400000
13010 5864 15147 1 149.00000 418.400000
13011 5865 15417 1 149.00000 418.400000
13011 5866 21523 1 149.00000 418.400000
13011 5867 16103 1 149.00000 418.400000
13012 5868 14563 1 149.00000 418.400000
13012 5869 16386 1 149.00000 418.400000
13013 5870 15266 1 149.00000 418.400000
13013 5871 13778 1 149.00000 418.400000
13013 5872 15788 1 149.00000 418.400000
13014 5873 13154 1 149.00000 418.400000
13014 5874 15239 1 149.00000 418.400000
13014 5875 13628 1 149.00000 418.400000
13015 5876 13459 1 149.00000 418.400000
13015 5877 13902 1 149.00000 418.400000
13015 5878 13394 1 149.00000 418.400000
11615 5879 13015 1 149.00000 418.400000
13016 5880 13864 1 149.00000 418.400000
13016 5881 13748 1 149.00000 418.400000
13016 5882 13834 1 149.00000 418.400000
13016 5883 15543 1 149.00000 418.400000
13017 5884 15040 1 149.00000 418.400000
13017 5885 13493 1 149.00000 418.400000
13017 5886 16013 1 149.00000 418.400000
13018 5887 16623 1 149.00000 418.400000
13018 5888 15490 1 149.00000 418.400000
13019 5889 13498 1 149.00000 418.400000
13019 5890 14276 1 149.00000 418.400000
13019 5891 15126 1 149.00000 418.400000
13020 5892 13462 1 149.00000 418.400000
12445 5893 13020 1 149.00000 418.400000
13020 5894 14964 1 149.00000 418.400000
13021 5895 14551 1 149.00000 418.400000
13021 5896 15643 1 149.00000 418.400000
13021 5897 14698 1 149.00000 418.400000
13022 5898 16148 1 149.00000 418.400000
13022 5899 15650 1 149.00000 418.400000
13022 5900 14935 1 149.00000 418.400000
13023 5901 14355 1 149.00000 418.400000
13023 5902 13249 1 149.00000 418.400000
13023 5903 13784 1 149.00000 418.400000
13024 5904 13518 1 149.00000 418.400000
13024 5905 14738 1 149.00000 418.400000
13024 5906 16225 1 149.00000 418.400000
13024 5907 13639 1 149.00000 418.400000
13025 5908 15653 1 149.00000 418.400000
12165 5909 13025 1 149.00000 418.400000
13025 5910 13294 1 149.00000 418.400000
13026 5911 14425 1 149.00000 418.400000
13026 5912 13569 1 149.00000 418.400000
13026 5913 15166 1 149.00000 418.400000
13027 5914 15158 1 149.00000 418.400000
13027 5915 15264 1 149.00000 418.400000
13027 5916 13322 1 149.00000 418.400000
13028 5917 13335 1 149.00000 418.400000
13028 5918 13726 1 149.00000 418.400000
16370 5919 16728 1 149.00000 418.400000
11573 5920 13029 1 149.00000 418.400000
13029 5921 15368 1 149.00000 418.400000
13029 5922 13377 1 149.00000 418.400000
13030 5923 16003 1 149.00000 418.400000
13030 5924 15767 1 149.00000 418.400000
13030 5925 13249 1 149.00000 418.400000
13031 5926 14319 1 149.00000 418.400000
12253 5927 13541 1 149.00000 418.400000
13032 5928 16153 1 149.00000 418.400000
13032 5929 15081 1 149.00000 418.400000
13033 5930 13856 1 149.00000 418.400000
13033 5931 16421 1 149.00000 418.400000
13033 5932 14145 1 149.00000 418.400000
13033 5933 14240 1 149.00000 418.400000
13034 5934 13746 1 149.00000 418.400000
13035 5935 14735 1 149.00000 418.400000
13035 5936 14307 1 149.00000 418.400000
13036 5937 14041 1 149.00000 418.400000
13036 5938 13518 1 149.00000 418.400000
13037 5939 14532 1 149.00000 418.400000
13037 5940 13560 1 149.00000 418.400000
13037 5941 14848 1 149.00000 418.400000
13037 5942 14371 1 149.00000 418.400000
15876 5943 16273 1 149.00000 418.400000
14045 5944 15876 1 149.00000 418.400000
13038 5945 15876 1 149.00000 418.400000
13039 5946 15194 1 149.00000 418.400000
13039 5947 15193 1 149.00000 418.400000
13039 5948 13250 1 149.00000 418.400000
13040 5949 16453 1 149.00000 418.400000
13040 5950 13899 1 149.00000 418.400000
13040 5951 13177 1 149.00000 418.400000
13040 5952 13541 1 149.00000 418.400000
13041 5953 13977 1 149.00000 418.400000
13041 5954 15539 1 149.00000 418.400000
12791 5955 13041 1 149.00000 418.400000
13041 5956 16177 1 149.00000 418.400000
13042 5957 14234 1 149.00000 418.400000
13042 5958 13761 1 149.00000 418.400000
13042 5959 13522 1 149.00000 418.400000
13042 5960 15370 1 149.00000 418.400000
13043 5961 13488 1 149.00000 418.400000
13043 5962 13694 1 149.00000 418.400000
14415 5963 15141 1 149.00000 418.400000
13374 5964 20254 1 149.00000 418.400000
14415 5965 20254 1 149.00000 418.400000
13044 5966 15515 1 149.00000 418.400000
13044 5967 15308 1 149.00000 418.400000
13045 5968 13994 1 149.00000 418.400000
13045 5969 21406 1 149.00000 418.400000
13046 5970 14288 1 149.00000 418.400000
13046 5971 14275 1 149.00000 418.400000
13046 5972 13565 1 149.00000 418.400000
13434 5973 14288 1 149.00000 418.400000
16577 5974 18922 1 149.00000 418.400000
18922 5975 21517 1 149.00000 418.400000
13047 5976 13694 1 149.00000 418.400000
13047 5977 15327 1 149.00000 418.400000
13533 5978 14263 1 149.00000 418.400000
14922 5979 20842 1 149.00000 418.400000
13533 5980 20842 1 149.00000 418.400000
13533 5981 14882 1 149.00000 418.400000
13048 5982 14032 1 149.00000 418.400000
13048 5983 13233 1 149.00000 418.400000
13049 5984 15591 1 149.00000 418.400000
13049 5985 14165 1 149.00000 418.400000
13049 5986 13323 1 149.00000 418.400000
13050 5987 16439 1 149.00000 418.400000
13050 5988 15586 1 149.00000 418.400000
13051 5989 16027 1 149.00000 418.400000
13051 5990 14685 1 149.00000 418.400000
18706 5991 21775 1 149.00000 418.400000
13209 5992 18706 1 149.00000 418.400000
13052 5993 15283 1 149.00000 418.400000
13052 5994 13574 1 149.00000 418.400000
13052 5995 16372 1 149.00000 418.400000
13052 5996 14948 1 149.00000 418.400000
17022 5997 20050 1 149.00000 418.400000
20050 5998 21601 1 149.00000 418.400000
13053 5999 15856 1 149.00000 418.400000
13054 6000 15156 1 149.00000 418.400000
13054 6001 16527 1 149.00000 418.400000
13055 6002 15388 1 149.00000 418.400000
13055 6003 13787 1 149.00000 418.400000
13055 6004 13086 1 149.00000 418.400000
13056 6005 16434 1 149.00000 418.400000
13056 6006 15409 1 149.00000 418.400000
13057 6007 15545 1 149.00000 418.400000
13057 6008 13155 1 149.00000 418.400000
13057 6009 15526 1 149.00000 418.400000
13057 6010 13756 1 149.00000 418.400000
13058 6011 15567 1 149.00000 418.400000
13058 6012 15994 1 149.00000 418.400000
13059 6013 13132 1 149.00000 418.400000
13059 6014 14793 1 149.00000 418.400000
13059 6015 15164 1 149.00000 418.400000
13060 6016 16528 1 149.00000 418.400000
13060 6017 14690 1 149.00000 418.400000
13060 6018 15008 1 149.00000 418.400000
13060 6019 16355 1 149.00000 418.400000
11663 6020 13368 1 149.00000 418.400000
11663 6021 16308 1 149.00000 418.400000
13062 6022 15457 1 149.00000 418.400000
13062 6023 13727 1 149.00000 418.400000
13062 6024 13743 1 149.00000 418.400000
13062 6025 14852 1 149.00000 418.400000
21451 6026 21484 1 149.00000 418.400000
15288 6027 21451 1 149.00000 418.400000
13063 6028 13718 1 149.00000 418.400000
13063 6029 15259 1 149.00000 418.400000
13063 6030 16149 1 149.00000 418.400000
16128 6031 18002 1 149.00000 418.400000
16128 6032 21454 1 149.00000 418.400000
13064 6033 13664 1 149.00000 418.400000
13064 6034 14497 1 149.00000 418.400000
13065 6035 13585 1 149.00000 418.400000
13065 6036 16591 1 149.00000 418.400000
13065 6037 13857 1 149.00000 418.400000
13066 6038 13113 1 149.00000 418.400000
13067 6039 13997 1 149.00000 418.400000
13067 6040 16218 1 149.00000 418.400000
13067 6041 13636 1 149.00000 418.400000
13067 6042 15702 1 149.00000 418.400000
13068 6043 16325 1 149.00000 418.400000
13068 6044 14450 1 149.00000 418.400000
13068 6045 15793 1 149.00000 418.400000
13068 6046 16261 1 149.00000 418.400000
13069 6047 15895 1 149.00000 418.400000
13069 6048 14195 1 149.00000 418.400000
13069 6049 15511 1 149.00000 418.400000
13070 6050 16535 1 149.00000 418.400000
13718 6051 18240 1 149.00000 418.400000
13071 6052 14935 1 149.00000 418.400000
13071 6053 15621 1 149.00000 418.400000
13071 6054 14786 1 149.00000 418.400000
13072 6055 14970 1 149.00000 418.400000
13072 6056 21586 1 149.00000 418.400000
13072 6057 19762 1 149.00000 418.400000
13073 6058 14825 1 149.00000 418.400000
13073 6059 16204 1 149.00000 418.400000
13073 6060 16032 1 149.00000 418.400000
13074 6061 16473 1 149.00000 418.400000
13075 6062 13232 1 149.00000 418.400000
13075 6063 14816 1 149.00000 418.400000
13075 6064 15922 1 149.00000 418.400000
13076 6065 13446 1 149.00000 418.400000
13076 6066 16530 1 149.00000 418.400000
13076 6067 15550 1 149.00000 418.400000
13077 6068 15913 1 149.00000 418.400000
13077 6069 13584 1 149.00000 418.400000
13078 6070 15692 1 149.00000 418.400000
13078 6071 21739 1 149.00000 418.400000
13078 6072 16405 1 149.00000 418.400000
13078 6073 21649 1 149.00000 418.400000
13079 6074 14318 1 149.00000 418.400000
13079 6075 14312 1 149.00000 418.400000
13080 6076 16598 1 149.00000 418.400000
13080 6077 14855 1 149.00000 418.400000
13080 6078 16057 1 149.00000 418.400000
13992 6079 21457 1 149.00000 418.400000
15473 6080 21457 1 149.00000 418.400000
13081 6081 14798 1 149.00000 418.400000
13081 6082 15233 1 149.00000 418.400000
13081 6083 14483 1 149.00000 418.400000
13082 6084 13760 1 149.00000 418.400000
13082 6085 14490 1 149.00000 418.400000
13082 6086 13484 1 149.00000 418.400000
13082 6087 14823 1 149.00000 418.400000
16593 6088 21460 1 149.00000 418.400000
21142 6089 21460 1 149.00000 418.400000
13083 6090 15360 1 149.00000 418.400000
13083 6091 16056 1 149.00000 418.400000
13083 6092 14208 1 149.00000 418.400000
13083 6093 13938 1 149.00000 418.400000
13084 6094 15160 1 149.00000 418.400000
13084 6095 16295 1 149.00000 418.400000
13084 6096 13406 1 149.00000 418.400000
13085 6097 13452 1 149.00000 418.400000
13085 6098 13512 1 149.00000 418.400000
14481 6099 21466 1 149.00000 418.400000
21466 6100 21922 1 149.00000 418.400000
14118 6101 21466 1 149.00000 418.400000
13086 6102 14921 1 149.00000 418.400000
13086 6103 16533 1 149.00000 418.400000
13087 6104 16003 1 149.00000 418.400000
13087 6105 13569 1 149.00000 418.400000
13087 6106 14324 1 149.00000 418.400000
13087 6107 14637 1 149.00000 418.400000
15902 6108 18982 1 149.00000 418.400000
15881 6109 18982 1 149.00000 418.400000
15348 6110 18982 1 149.00000 418.400000
13088 6111 14538 1 149.00000 418.400000
14967 6112 15249 1 149.00000 418.400000
13088 6113 14967 1 149.00000 418.400000
15996 6114 16050 1 149.00000 418.400000
13089 6115 15605 1 149.00000 418.400000
12665 6116 13090 1 149.00000 418.400000
13090 6117 16286 1 149.00000 418.400000
13091 6118 16112 1 149.00000 418.400000
13092 6119 15820 1 149.00000 418.400000
13092 6120 13125 1 149.00000 418.400000
13092 6121 13783 1 149.00000 418.400000
13093 6122 15880 1 149.00000 418.400000
13093 6123 13828 1 149.00000 418.400000
13094 6124 14607 1 149.00000 418.400000
13094 6125 15907 1 149.00000 418.400000
13094 6126 16980 1 149.00000 418.400000
13094 6127 13276 1 149.00000 418.400000
13095 6128 13496 1 149.00000 418.400000
12125 6129 13096 1 149.00000 418.400000
13096 6130 17526 1 149.00000 418.400000
13096 6131 14236 1 149.00000 418.400000
13097 6132 13098 1 149.00000 418.400000
13097 6133 13292 1 149.00000 418.400000
13097 6134 15451 1 149.00000 418.400000
13527 6135 15367 1 149.00000 418.400000
13098 6136 13128 1 149.00000 418.400000
13099 6137 14896 1 149.00000 418.400000
13099 6138 13593 1 149.00000 418.400000
13099 6139 13865 1 149.00000 418.400000
13099 6140 16002 1 149.00000 418.400000
13100 6141 13254 1 149.00000 418.400000
13100 6142 15921 1 149.00000 418.400000
13100 6143 14156 1 149.00000 418.400000
13101 6144 16039 1 149.00000 418.400000
14080 6145 14642 1 149.00000 418.400000
13102 6146 14080 1 149.00000 418.400000
14080 6147 15755 1 149.00000 418.400000
13103 6148 21984 1 149.00000 418.400000
13103 6149 15524 1 149.00000 418.400000
13104 6150 16257 1 149.00000 418.400000
13104 6151 16613 1 149.00000 418.400000
13104 6152 15607 1 149.00000 418.400000
13104 6153 15479 1 149.00000 418.400000
13105 6154 14119 1 149.00000 418.400000
13106 6155 14111 1 149.00000 418.400000
13106 6156 14278 1 149.00000 418.400000
13106 6157 13944 1 149.00000 418.400000
13107 6158 15848 1 149.00000 418.400000
13107 6159 13917 1 149.00000 418.400000
13108 6160 14315 1 149.00000 418.400000
12669 6161 13598 1 149.00000 418.400000
13598 6162 15721 1 149.00000 418.400000
13109 6163 13553 1 149.00000 418.400000
13109 6164 13666 1 149.00000 418.400000
13110 6165 14360 1 149.00000 418.400000
13110 6166 13890 1 149.00000 418.400000
14239 6167 16350 1 149.00000 418.400000
13111 6168 15871 1 149.00000 418.400000
13111 6169 15483 1 149.00000 418.400000
13111 6170 14239 1 149.00000 418.400000
13112 6171 15413 1 149.00000 418.400000
13112 6172 21688 1 149.00000 418.400000
13113 6173 21649 1 149.00000 418.400000
13113 6174 14370 1 149.00000 418.400000
15900 6175 16626 1 149.00000 418.400000
13114 6176 13548 1 149.00000 418.400000
13114 6177 16272 1 149.00000 418.400000
11845 6178 16626 1 149.00000 418.400000
13115 6179 14929 1 149.00000 418.400000
13115 6180 13144 1 149.00000 418.400000
13116 6181 15688 1 149.00000 418.400000
13116 6182 16312 1 149.00000 418.400000
13116 6183 14158 1 149.00000 418.400000
13116 6184 14327 1 149.00000 418.400000
13117 6185 14427 1 149.00000 418.400000
13117 6186 21532 1 149.00000 418.400000
13117 6187 15852 1 149.00000 418.400000
13118 6188 13361 1 149.00000 418.400000
13118 6189 16355 1 149.00000 418.400000
13118 6190 14263 1 149.00000 418.400000
13118 6191 13612 1 149.00000 418.400000
14454 6192 19534 1 149.00000 418.400000
13119 6193 14507 1 149.00000 418.400000
13119 6194 13681 1 149.00000 418.400000
13119 6195 14871 1 149.00000 418.400000
13119 6196 14212 1 149.00000 418.400000
15902 6197 18898 1 149.00000 418.400000
15080 6198 18898 1 149.00000 418.400000
14407 6199 17050 1 149.00000 418.400000
13120 6200 15870 1 149.00000 418.400000
13120 6201 14599 1 149.00000 418.400000
13120 6202 13386 1 149.00000 418.400000
13121 6203 13523 1 149.00000 418.400000
13121 6204 13473 1 149.00000 418.400000
13122 6205 14279 1 149.00000 418.400000
13122 6206 16090 1 149.00000 418.400000
13122 6207 14863 1 149.00000 418.400000
13123 6208 14430 1 149.00000 418.400000
13123 6209 14422 1 149.00000 418.400000
13124 6210 14905 1 149.00000 418.400000
13124 6211 15959 1 149.00000 418.400000
13124 6212 14512 1 149.00000 418.400000
13124 6213 16342 1 149.00000 418.400000
13125 6214 13350 1 149.00000 418.400000
13126 6215 13703 1 149.00000 418.400000
13126 6216 13301 1 149.00000 418.400000
13126 6217 13976 1 149.00000 418.400000
13127 6218 15158 1 149.00000 418.400000
13127 6219 19966 1 149.00000 418.400000
13128 6220 15653 1 149.00000 418.400000
13129 6221 16503 1 149.00000 418.400000
12806 6222 13129 1 149.00000 418.400000
13130 6223 15715 1 149.00000 418.400000
13130 6224 20902 1 149.00000 418.400000
13130 6225 21880 1 149.00000 418.400000
13131 6226 14729 1 149.00000 418.400000
13131 6227 16145 1 149.00000 418.400000
13131 6228 14112 1 149.00000 418.400000
15343 6229 20374 1 149.00000 418.400000
16585 6230 18790 1 149.00000 418.400000
14097 6231 18790 1 149.00000 418.400000
18790 6232 20962 1 149.00000 418.400000
21322 6233 21469 1 149.00000 418.400000
12491 6234 14007 1 149.00000 418.400000
13132 6235 22024 1 149.00000 418.400000
13133 6236 14334 1 149.00000 418.400000
13133 6237 13536 1 149.00000 418.400000
13133 6238 15100 1 149.00000 418.400000
13134 6239 15995 1 149.00000 418.400000
13134 6240 13933 1 149.00000 418.400000
13134 6241 16477 1 149.00000 418.400000
13134 6242 16536 1 149.00000 418.400000
13135 6243 13837 1 149.00000 418.400000
13135 6244 15214 1 149.00000 418.400000
13136 6245 16274 1 149.00000 418.400000
13137 6246 15127 1 149.00000 418.400000
13137 6247 15906 1 149.00000 418.400000
13138 6248 15688 1 149.00000 418.400000
13138 6249 14489 1 149.00000 418.400000
13138 6250 13272 1 149.00000 418.400000
13139 6251 21907 1 149.00000 418.400000
13140 6252 16002 1 149.00000 418.400000
13140 6253 14402 1 149.00000 418.400000
13140 6254 14256 1 149.00000 418.400000
13141 6255 14429 1 149.00000 418.400000
14316 6256 15005 1 149.00000 418.400000
13141 6257 13420 1 149.00000 418.400000
13141 6258 14316 1 149.00000 418.400000
13142 6259 14230 1 149.00000 418.400000
13142 6260 16328 1 149.00000 418.400000
13142 6261 15734 1 149.00000 418.400000
18478 6262 21472 1 149.00000 418.400000
18874 6263 21472 1 149.00000 418.400000
14185 6264 21472 1 149.00000 418.400000
13143 6265 13485 1 149.00000 418.400000
11465 6266 15804 1 149.00000 418.400000
16714 6267 21787 1 149.00000 418.400000
13145 6268 16423 1 149.00000 418.400000
13145 6269 15663 1 149.00000 418.400000
13145 6270 14748 1 149.00000 418.400000
13145 6271 16038 1 149.00000 418.400000
13146 6272 15724 1 149.00000 418.400000
13146 6273 15546 1 149.00000 418.400000
13146 6274 14668 1 149.00000 418.400000
13991 6275 14668 1 149.00000 418.400000
13147 6276 13860 1 149.00000 418.400000
13147 6277 13781 1 149.00000 418.400000
13148 6278 16470 1 149.00000 418.400000
13148 6279 14945 1 149.00000 418.400000
13148 6280 16259 1 149.00000 418.400000
13148 6281 15118 1 149.00000 418.400000
13149 6282 16532 1 149.00000 418.400000
12292 6283 13150 1 149.00000 418.400000
13150 6284 16138 1 149.00000 418.400000
13150 6285 15134 1 149.00000 418.400000
13151 6286 15818 1 149.00000 418.400000
13151 6287 15998 1 149.00000 418.400000
13152 6288 16412 1 149.00000 418.400000
13152 6289 16113 1 149.00000 418.400000
13153 6290 16422 1 149.00000 418.400000
13153 6291 16155 1 149.00000 418.400000
13154 6292 14554 1 149.00000 418.400000
13154 6293 15084 1 149.00000 418.400000
13154 6294 13986 1 149.00000 418.400000
13155 6295 15878 1 149.00000 418.400000
13155 6296 15829 1 149.00000 418.400000
13156 6297 15867 1 149.00000 418.400000
13156 6298 15948 1 149.00000 418.400000
13156 6299 15453 1 149.00000 418.400000
13156 6300 15551 1 149.00000 418.400000
13157 6301 14488 1 149.00000 418.400000
13157 6302 16229 1 149.00000 418.400000
13157 6303 22039 1 149.00000 418.400000
13158 6304 16154 1 149.00000 418.400000
13158 6305 16105 1 149.00000 418.400000
13159 6306 14210 1 149.00000 418.400000
13159 6307 14791 1 149.00000 418.400000
13159 6308 16352 1 149.00000 418.400000
13160 6309 14980 1 149.00000 418.400000
13160 6310 14289 1 149.00000 418.400000
13161 6311 13771 1 149.00000 418.400000
13161 6312 14366 1 149.00000 418.400000
13161 6313 13182 1 149.00000 418.400000
21475 6314 21703 1 149.00000 418.400000
15465 6315 21475 1 149.00000 418.400000
13162 6316 16113 1 149.00000 418.400000
13162 6317 15909 1 149.00000 418.400000
13162 6318 13912 1 149.00000 418.400000
13163 6319 14962 1 149.00000 418.400000
13163 6320 14581 1 149.00000 418.400000
13102 6321 13163 1 149.00000 418.400000
13163 6322 16405 1 149.00000 418.400000
13164 6323 13696 1 149.00000 418.400000
13164 6324 15360 1 149.00000 418.400000
13165 6325 16465 1 149.00000 418.400000
13165 6326 14042 1 149.00000 418.400000
13165 6327 13609 1 149.00000 418.400000
13166 6328 16469 1 149.00000 418.400000
13166 6329 16534 1 149.00000 418.400000
13166 6330 15853 1 149.00000 418.400000
13167 6331 14647 1 149.00000 418.400000
13167 6332 16366 1 149.00000 418.400000
13167 6333 15372 1 149.00000 418.400000
13167 6334 13944 1 149.00000 418.400000
13168 6335 21655 1 149.00000 418.400000
13169 6336 14359 1 149.00000 418.400000
14359 6337 15921 1 149.00000 418.400000
13170 6338 13679 1 149.00000 418.400000
13170 6339 16254 1 149.00000 418.400000
13171 6340 16617 1 149.00000 418.400000
13171 6341 21118 1 149.00000 418.400000
13171 6342 15302 1 149.00000 418.400000
13172 6343 15635 1 149.00000 418.400000
15635 6344 15722 1 149.00000 418.400000
13172 6345 16282 1 149.00000 418.400000
13173 6346 13493 1 149.00000 418.400000
13173 6347 15349 1 149.00000 418.400000
13173 6348 16540 1 149.00000 418.400000
13173 6349 13338 1 149.00000 418.400000
20698 6350 21969 1 149.00000 418.400000
16477 6351 21969 1 149.00000 418.400000
13174 6352 16429 1 149.00000 418.400000
13174 6353 16235 1 149.00000 418.400000
13175 6354 13342 1 149.00000 418.400000
13175 6355 16607 1 149.00000 418.400000
12760 6356 15702 1 149.00000 418.400000
13176 6357 14230 1 149.00000 418.400000
13177 6358 13902 1 149.00000 418.400000
13177 6359 15202 1 149.00000 418.400000
13178 6360 15722 1 149.00000 418.400000
13961 6361 15520 1 149.00000 418.400000
13178 6362 14985 1 149.00000 418.400000
13178 6363 13961 1 149.00000 418.400000
13179 6364 21565 1 149.00000 418.400000
13179 6365 14343 1 149.00000 418.400000
13179 6366 20074 1 149.00000 418.400000
13179 6367 14703 1 149.00000 418.400000
13180 6368 13381 1 149.00000 418.400000
12627 6369 13180 1 149.00000 418.400000
13180 6370 14082 1 149.00000 418.400000
13181 6371 15183 1 149.00000 418.400000
13181 6372 14600 1 149.00000 418.400000
13181 6373 15387 1 149.00000 418.400000
13182 6374 16422 1 149.00000 418.400000
13182 6375 15510 1 149.00000 418.400000
13183 6376 14996 1 149.00000 418.400000
13183 6377 15217 1 149.00000 418.400000
13184 6378 15995 1 149.00000 418.400000
13184 6379 18324 1 149.00000 418.400000
13184 6380 20698 1 149.00000 418.400000
13185 6381 16261 1 149.00000 418.400000
15324 6382 21974 1 149.00000 418.400000
17596 6383 21478 1 149.00000 418.400000
21478 6384 21655 1 149.00000 418.400000
13186 6385 14090 1 149.00000 418.400000
13186 6386 21916 1 149.00000 418.400000
13187 6387 13852 1 149.00000 418.400000
13187 6388 14340 1 149.00000 418.400000
13187 6389 14744 1 149.00000 418.400000
13187 6390 15955 1 149.00000 418.400000
13188 6391 15783 1 149.00000 418.400000
13188 6392 13193 1 149.00000 418.400000
13188 6393 16327 1 149.00000 418.400000
13188 6394 16452 1 149.00000 418.400000
13189 6395 13449 1 149.00000 418.400000
13189 6396 15559 1 149.00000 418.400000
13189 6397 14458 1 149.00000 418.400000
13190 6398 13326 1 149.00000 418.400000
13190 6399 15746 1 149.00000 418.400000
13326 6400 14859 1 149.00000 418.400000
14944 6401 16214 1 149.00000 418.400000
13191 6402 13814 1 149.00000 418.400000
13191 6403 14913 1 149.00000 418.400000
16477 6404 21481 1 149.00000 418.400000
15163 6405 21481 1 149.00000 418.400000
13204 6406 21481 1 149.00000 418.400000
13192 6407 13595 1 149.00000 418.400000
13192 6408 16016 1 149.00000 418.400000
13193 6409 14923 1 149.00000 418.400000
13194 6410 13605 1 149.00000 418.400000
13194 6411 15813 1 149.00000 418.400000
14608 6412 15808 1 149.00000 418.400000
14585 6413 15808 1 149.00000 418.400000
13195 6414 15808 1 149.00000 418.400000
13196 6415 14955 1 149.00000 418.400000
13197 6416 16207 1 149.00000 418.400000
15792 6417 21811 1 149.00000 418.400000
13197 6418 15792 1 149.00000 418.400000
13198 6419 13503 1 149.00000 418.400000
13198 6420 16135 1 149.00000 418.400000
13199 6421 14350 1 149.00000 418.400000
13199 6422 15582 1 149.00000 418.400000
13339 6423 20038 1 149.00000 418.400000
13200 6424 14087 1 149.00000 418.400000
13200 6425 20566 1 149.00000 418.400000
13200 6426 14248 1 149.00000 418.400000
13200 6427 13516 1 149.00000 418.400000
13201 6428 15758 1 149.00000 418.400000
13201 6429 14476 1 149.00000 418.400000
13202 6430 15474 1 149.00000 418.400000
13202 6431 13609 1 149.00000 418.400000
13203 6432 16041 1 149.00000 418.400000
13203 6433 13625 1 149.00000 418.400000
13204 6434 14835 1 149.00000 418.400000
13204 6435 15284 1 149.00000 418.400000
13204 6436 15130 1 149.00000 418.400000
15284 6437 16357 1 149.00000 418.400000
13205 6438 13952 1 149.00000 418.400000
13205 6439 14227 1 149.00000 418.400000
13206 6440 21745 1 149.00000 418.400000
13206 6441 21871 1 149.00000 418.400000
13206 6442 15530 1 149.00000 418.400000
13207 6443 13710 1 149.00000 418.400000
13207 6444 13492 1 149.00000 418.400000
13207 6445 13568 1 149.00000 418.400000
13207 6446 13884 1 149.00000 418.400000
13208 6447 13616 1 149.00000 418.400000
13208 6448 13947 1 149.00000 418.400000
13208 6449 13966 1 149.00000 418.400000
13209 6450 13622 1 149.00000 418.400000
13209 6451 14855 1 149.00000 418.400000
13209 6452 21805 1 149.00000 418.400000
13210 6453 14519 1 149.00000 418.400000
13210 6454 15521 1 149.00000 418.400000
13210 6455 15747 1 149.00000 418.400000
13211 6456 13862 1 149.00000 418.400000
13211 6457 13287 1 149.00000 418.400000
13211 6458 14193 1 149.00000 418.400000
13211 6459 15933 1 149.00000 418.400000
13212 6460 14469 1 149.00000 418.400000
13212 6461 13813 1 149.00000 418.400000
13212 6462 14099 1 149.00000 418.400000
13212 6463 15260 1 149.00000 418.400000
13213 6464 14497 1 149.00000 418.400000
13213 6465 15320 1 149.00000 418.400000
13213 6466 15819 1 149.00000 418.400000
13214 6467 15362 1 149.00000 418.400000
12434 6468 13965 1 149.00000 418.400000
13215 6469 13850 1 149.00000 418.400000
12434 6470 14723 1 149.00000 418.400000
13216 6471 14011 1 149.00000 418.400000
13216 6472 14534 1 149.00000 418.400000
13217 6473 15671 1 149.00000 418.400000
13217 6474 15325 1 149.00000 418.400000
13217 6475 15760 1 149.00000 418.400000
13218 6476 13384 1 149.00000 418.400000
13218 6477 14879 1 149.00000 418.400000
13218 6478 15526 1 149.00000 418.400000
12790 6479 13219 1 149.00000 418.400000
13220 6480 15850 1 149.00000 418.400000
13220 6481 13940 1 149.00000 418.400000
13220 6482 15065 1 149.00000 418.400000
13221 6483 14907 1 149.00000 418.400000
13221 6484 15548 1 149.00000 418.400000
13221 6485 14338 1 149.00000 418.400000
13222 6486 21994 1 149.00000 418.400000
13222 6487 14371 1 149.00000 418.400000
14311 6488 14371 1 149.00000 418.400000
13223 6489 14713 1 149.00000 418.400000
13224 6490 13990 1 149.00000 418.400000
13224 6491 15426 1 149.00000 418.400000
12224 6492 18538 1 149.00000 418.400000
13225 6493 14467 1 149.00000 418.400000
13225 6494 16128 1 149.00000 418.400000
13225 6495 15601 1 149.00000 418.400000
12022 6496 13225 1 149.00000 418.400000
13226 6497 13929 1 149.00000 418.400000
13226 6498 14824 1 149.00000 418.400000
13226 6499 14364 1 149.00000 418.400000
13226 6500 19174 1 149.00000 418.400000
13227 6501 14860 1 149.00000 418.400000
13227 6502 13349 1 149.00000 418.400000
13228 6503 14216 1 149.00000 418.400000
13228 6504 16002 1 149.00000 418.400000
13229 6505 16302 1 149.00000 418.400000
13229 6506 13547 1 149.00000 418.400000
13230 6507 15712 1 149.00000 418.400000
13231 6508 15091 1 149.00000 418.400000
13231 6509 15061 1 149.00000 418.400000
13231 6510 13484 1 149.00000 418.400000
13231 6511 14650 1 149.00000 418.400000
13232 6512 16380 1 149.00000 418.400000
13233 6513 15658 1 149.00000 418.400000
13233 6514 14992 1 149.00000 418.400000
13234 6515 21577 1 149.00000 418.400000
13234 6516 15630 1 149.00000 418.400000
13235 6517 21826 1 149.00000 418.400000
13235 6518 13512 1 149.00000 418.400000
14880 6519 21826 1 149.00000 418.400000
13236 6520 16230 1 149.00000 418.400000
13236 6521 14209 1 149.00000 418.400000
13237 6522 13316 1 149.00000 418.400000
13237 6523 15345 1 149.00000 418.400000
13237 6524 14010 1 149.00000 418.400000
13238 6525 16296 1 149.00000 418.400000
14013 6526 21487 1 149.00000 418.400000
13239 6527 13409 1 149.00000 418.400000
13239 6528 14152 1 149.00000 418.400000
13239 6529 16500 1 149.00000 418.400000
13240 6530 16429 1 149.00000 418.400000
13240 6531 15992 1 149.00000 418.400000
13241 6532 13993 1 149.00000 418.400000
13241 6533 14708 1 149.00000 418.400000
13241 6534 13509 1 149.00000 418.400000
13241 6535 13284 1 149.00000 418.400000
13242 6536 14142 1 149.00000 418.400000
13242 6537 13769 1 149.00000 418.400000
13243 6538 19066 1 149.00000 418.400000
13243 6539 14516 1 149.00000 418.400000
13245 6540 15431 1 149.00000 418.400000
13245 6541 15593 1 149.00000 418.400000
13245 6542 14489 1 149.00000 418.400000
13245 6543 16399 1 149.00000 418.400000
13246 6544 13369 1 149.00000 418.400000
13246 6545 13960 1 149.00000 418.400000
13960 6546 14491 1 149.00000 418.400000
11637 6547 13775 1 149.00000 418.400000
11637 6548 15692 1 149.00000 418.400000
11637 6549 15655 1 149.00000 418.400000
13248 6550 14195 1 149.00000 418.400000
13248 6551 13747 1 149.00000 418.400000
13747 6552 15895 1 149.00000 418.400000
13249 6553 13585 1 149.00000 418.400000
13249 6554 15277 1 149.00000 418.400000
11537 6555 13250 1 149.00000 418.400000
15969 6556 21490 1 149.00000 418.400000
21490 6557 21502 1 149.00000 418.400000
16966 6558 21676 1 149.00000 418.400000
13251 6559 16333 1 149.00000 418.400000
13251 6560 21499 1 149.00000 418.400000
13251 6561 14416 1 149.00000 418.400000
13251 6562 16526 1 149.00000 418.400000
13252 6563 15070 1 149.00000 418.400000
13252 6564 16004 1 149.00000 418.400000
13252 6565 14969 1 149.00000 418.400000
16025 6566 20170 1 149.00000 418.400000
20170 6567 21925 1 149.00000 418.400000
14289 6568 20170 1 149.00000 418.400000
13253 6569 14943 1 149.00000 418.400000
13253 6570 16117 1 149.00000 418.400000
13254 6571 16201 1 149.00000 418.400000
19798 6572 21493 1 149.00000 418.400000
15317 6573 21493 1 149.00000 418.400000
13691 6574 19798 1 149.00000 418.400000
13255 6575 16373 1 149.00000 418.400000
13255 6576 15132 1 149.00000 418.400000
13255 6577 15330 1 149.00000 418.400000
13256 6578 16387 1 149.00000 418.400000
13256 6579 15186 1 149.00000 418.400000
13256 6580 13701 1 149.00000 418.400000
15837 6581 21496 1 149.00000 418.400000
13257 6582 15164 1 149.00000 418.400000
13257 6583 13744 1 149.00000 418.400000
13257 6584 15925 1 149.00000 418.400000
13257 6585 14944 1 149.00000 418.400000
13258 6586 15159 1 149.00000 418.400000
15159 6587 15895 1 149.00000 418.400000
13986 6588 14842 1 149.00000 418.400000
13259 6589 14842 1 149.00000 418.400000
13259 6590 14752 1 149.00000 418.400000
13259 6591 13887 1 149.00000 418.400000
13260 6592 13739 1 149.00000 418.400000
13260 6593 13308 1 149.00000 418.400000
13261 6594 15615 1 149.00000 418.400000
13261 6595 15674 1 149.00000 418.400000
13261 6596 15452 1 149.00000 418.400000
13262 6597 15923 1 149.00000 418.400000
13262 6598 14622 1 149.00000 418.400000
13262 6599 13900 1 149.00000 418.400000
14154 6600 21499 1 149.00000 418.400000
14838 6601 21499 1 149.00000 418.400000
13263 6602 14938 1 149.00000 418.400000
13263 6603 15515 1 149.00000 418.400000
13263 6604 14817 1 149.00000 418.400000
13263 6605 15728 1 149.00000 418.400000
13264 6606 14449 1 149.00000 418.400000
13264 6607 14775 1 149.00000 418.400000
13265 6608 14570 1 149.00000 418.400000
13265 6609 14283 1 149.00000 418.400000
13265 6610 15286 1 149.00000 418.400000
13265 6611 13813 1 149.00000 418.400000
13266 6612 15376 1 149.00000 418.400000
13266 6613 14764 1 149.00000 418.400000
13266 6614 15701 1 149.00000 418.400000
13267 6615 21703 1 149.00000 418.400000
13259 6616 13267 1 149.00000 418.400000
13267 6617 16126 1 149.00000 418.400000
13268 6618 14853 1 149.00000 418.400000
13268 6619 15874 1 149.00000 418.400000
13269 6620 14360 1 149.00000 418.400000
13269 6621 16178 1 149.00000 418.400000
13693 6622 14360 1 149.00000 418.400000
13270 6623 15332 1 149.00000 418.400000
13270 6624 14993 1 149.00000 418.400000
13271 6625 15570 1 149.00000 418.400000
13271 6626 14940 1 149.00000 418.400000
13271 6627 15700 1 149.00000 418.400000
13271 6628 15399 1 149.00000 418.400000
13272 6629 15340 1 149.00000 418.400000
13272 6630 14916 1 149.00000 418.400000
13273 6631 14519 1 149.00000 418.400000
13273 6632 15807 1 149.00000 418.400000
13275 6633 14323 1 149.00000 418.400000
13275 6634 15210 1 149.00000 418.400000
13275 6635 14508 1 149.00000 418.400000
13276 6636 14236 1 149.00000 418.400000
13276 6637 14431 1 149.00000 418.400000
13276 6638 21877 1 149.00000 418.400000
13587 6639 18226 1 149.00000 418.400000
13277 6640 16166 1 149.00000 418.400000
13277 6641 14203 1 149.00000 418.400000
13277 6642 18394 1 149.00000 418.400000
13278 6643 21700 1 149.00000 418.400000
13279 6644 16012 1 149.00000 418.400000
13146 6645 13279 1 149.00000 418.400000
13279 6646 17498 1 149.00000 418.400000
15044 6647 21502 1 149.00000 418.400000
16449 6648 18826 1 149.00000 418.400000
14643 6649 18826 1 149.00000 418.400000
18826 6650 21196 1 149.00000 418.400000
13280 6651 13664 1 149.00000 418.400000
13280 6652 13743 1 149.00000 418.400000
13280 6653 15135 1 149.00000 418.400000
13280 6654 15952 1 149.00000 418.400000
13281 6655 13392 1 149.00000 418.400000
13281 6656 13596 1 149.00000 418.400000
13281 6657 13932 1 149.00000 418.400000
14627 6658 17596 1 149.00000 418.400000
13282 6659 16100 1 149.00000 418.400000
13282 6660 13523 1 149.00000 418.400000
13282 6661 14399 1 149.00000 418.400000
13283 6662 13756 1 149.00000 418.400000
13283 6663 14756 1 149.00000 418.400000
13284 6664 21745 1 149.00000 418.400000
13284 6665 14585 1 149.00000 418.400000
13285 6666 21598 1 149.00000 418.400000
13285 6667 15521 1 149.00000 418.400000
13286 6668 13657 1 149.00000 418.400000
13286 6669 14613 1 149.00000 418.400000
13286 6670 15708 1 149.00000 418.400000
13287 6671 14692 1 149.00000 418.400000
13287 6672 14969 1 149.00000 418.400000
13288 6673 16497 1 149.00000 418.400000
13288 6674 15761 1 149.00000 418.400000
13288 6675 14609 1 149.00000 418.400000
13289 6676 13412 1 149.00000 418.400000
13289 6677 16606 1 149.00000 418.400000
13289 6678 13440 1 149.00000 418.400000
13290 6679 15930 1 149.00000 418.400000
13290 6680 16046 1 149.00000 418.400000
13290 6681 15603 1 149.00000 418.400000
13290 6682 15031 1 149.00000 418.400000
13291 6683 13848 1 149.00000 418.400000
13292 6684 15791 1 149.00000 418.400000
13293 6685 15570 1 149.00000 418.400000
13293 6686 14250 1 149.00000 418.400000
13294 6687 13604 1 149.00000 418.400000
13295 6688 16511 1 149.00000 418.400000
13295 6689 14408 1 149.00000 418.400000
13295 6690 14962 1 149.00000 418.400000
13296 6691 13416 1 149.00000 418.400000
13296 6692 15486 1 149.00000 418.400000
13296 6693 16375 1 149.00000 418.400000
13296 6694 14820 1 149.00000 418.400000
13297 6695 18610 1 149.00000 418.400000
13297 6696 13703 1 149.00000 418.400000
13297 6697 13380 1 149.00000 418.400000
13297 6698 16393 1 149.00000 418.400000
13298 6699 15037 1 149.00000 418.400000
13298 6700 15699 1 149.00000 418.400000
13298 6701 14196 1 149.00000 418.400000
13298 6702 13874 1 149.00000 418.400000
13299 6703 14531 1 149.00000 418.400000
14531 6704 16524 1 149.00000 418.400000
13300 6705 15592 1 149.00000 418.400000
13300 6706 13599 1 149.00000 418.400000
13301 6707 14088 1 149.00000 418.400000
13301 6708 14369 1 149.00000 418.400000
13302 6709 14185 1 149.00000 418.400000
13302 6710 15489 1 149.00000 418.400000
13303 6711 15950 1 149.00000 418.400000
13304 6712 15414 1 149.00000 418.400000
13304 6713 14579 1 149.00000 418.400000
13304 6714 16618 1 149.00000 418.400000
12736 6715 13304 1 149.00000 418.400000
13305 6716 13647 1 149.00000 418.400000
13306 6717 14728 1 149.00000 418.400000
13306 6718 16042 1 149.00000 418.400000
13306 6719 14218 1 149.00000 418.400000
13306 6720 13924 1 149.00000 418.400000
13307 6721 14061 1 149.00000 418.400000
13307 6722 16022 1 149.00000 418.400000
13307 6723 14044 1 149.00000 418.400000
13308 6724 15954 1 149.00000 418.400000
14473 6725 18058 1 149.00000 418.400000
14568 6726 20398 1 149.00000 418.400000
13309 6727 15113 1 149.00000 418.400000
13309 6728 15321 1 149.00000 418.400000
13310 6729 15648 1 149.00000 418.400000
13310 6730 15051 1 149.00000 418.400000
13310 6731 16446 1 149.00000 418.400000
13311 6732 13422 1 149.00000 418.400000
13311 6733 21817 1 149.00000 418.400000
20338 6734 21697 1 149.00000 418.400000
19582 6735 20338 1 149.00000 418.400000
13312 6736 14584 1 149.00000 418.400000
11854 6737 17176 1 149.00000 418.400000
13313 6738 15440 1 149.00000 418.400000
13313 6739 14153 1 149.00000 418.400000
13313 6740 15050 1 149.00000 418.400000
13314 6741 19402 1 149.00000 418.400000
13314 6742 13966 1 149.00000 418.400000
13315 6743 14799 1 149.00000 418.400000
13315 6744 15760 1 149.00000 418.400000
13315 6745 15718 1 149.00000 418.400000
13316 6746 14951 1 149.00000 418.400000
13316 6747 13507 1 149.00000 418.400000
13317 6748 16321 1 149.00000 418.400000
13317 6749 13476 1 149.00000 418.400000
13317 6750 13789 1 149.00000 418.400000
13317 6751 16504 1 149.00000 418.400000
13318 6752 16611 1 149.00000 418.400000
13318 6753 13749 1 149.00000 418.400000
13318 6754 13561 1 149.00000 418.400000
13318 6755 13673 1 149.00000 418.400000
14679 6756 21505 1 149.00000 418.400000
14516 6757 21505 1 149.00000 418.400000
13319 6758 15366 1 149.00000 418.400000
13320 6759 14118 1 149.00000 418.400000
13320 6760 15846 1 149.00000 418.400000
13320 6761 13652 1 149.00000 418.400000
13558 6762 15463 1 149.00000 418.400000
15443 6763 15463 1 149.00000 418.400000
13321 6764 16573 1 149.00000 418.400000
13595 6765 15292 1 149.00000 418.400000
13322 6766 16256 1 149.00000 418.400000
13322 6767 15292 1 149.00000 418.400000
12310 6768 13323 1 149.00000 418.400000
13323 6769 14088 1 149.00000 418.400000
13323 6770 14439 1 149.00000 418.400000
13324 6771 15374 1 149.00000 418.400000
13324 6772 15769 1 149.00000 418.400000
13324 6773 15443 1 149.00000 418.400000
13325 6774 14351 1 149.00000 418.400000
13325 6775 16321 1 149.00000 418.400000
13325 6776 16385 1 149.00000 418.400000
13326 6777 14433 1 149.00000 418.400000
13190 6778 16450 1 149.00000 418.400000
13326 6779 14527 1 149.00000 418.400000
14220 6780 15787 1 149.00000 418.400000
13327 6781 14220 1 149.00000 418.400000
13327 6782 16297 1 149.00000 418.400000
15860 6783 21511 1 149.00000 418.400000
15880 6784 21511 1 149.00000 418.400000
12033 6785 15654 1 149.00000 418.400000
13328 6786 14814 1 149.00000 418.400000
15654 6787 16626 1 149.00000 418.400000
13329 6788 13795 1 149.00000 418.400000
13329 6789 13731 1 149.00000 418.400000
13329 6790 14655 1 149.00000 418.400000
13330 6791 13572 1 149.00000 418.400000
13330 6792 15174 1 149.00000 418.400000
13330 6793 14347 1 149.00000 418.400000
12337 6794 14784 1 149.00000 418.400000
13331 6795 15792 1 149.00000 418.400000
13332 6796 16493 1 149.00000 418.400000
13332 6797 14435 1 149.00000 418.400000
13333 6798 14839 1 149.00000 418.400000
13333 6799 16030 1 149.00000 418.400000
13333 6800 13821 1 149.00000 418.400000
13334 6801 16309 1 149.00000 418.400000
13334 6802 13353 1 149.00000 418.400000
13334 6803 15912 1 149.00000 418.400000
13335 6804 16466 1 149.00000 418.400000
13335 6805 16328 1 149.00000 418.400000
13335 6806 15555 1 149.00000 418.400000
13336 6807 15683 1 149.00000 418.400000
13336 6808 13896 1 149.00000 418.400000
13336 6809 16574 1 149.00000 418.400000
13454 6810 21427 1 149.00000 418.400000
13338 6811 16354 1 149.00000 418.400000
13339 6812 15910 1 149.00000 418.400000
13340 6813 14528 1 149.00000 418.400000
13340 6814 15197 1 149.00000 418.400000
12707 6815 13341 1 149.00000 418.400000
13341 6816 15580 1 149.00000 418.400000
13342 6817 15128 1 149.00000 418.400000
13342 6818 15519 1 149.00000 418.400000
13343 6819 14934 1 149.00000 418.400000
13002 6820 13343 1 149.00000 418.400000
13343 6821 16287 1 149.00000 418.400000
13248 6822 13343 1 149.00000 418.400000
13344 6823 16324 1 149.00000 418.400000
13344 6824 16173 1 149.00000 418.400000
13346 6825 14627 1 149.00000 418.400000
13346 6826 15707 1 149.00000 418.400000
13346 6827 14015 1 149.00000 418.400000
13347 6828 15990 1 149.00000 418.400000
13347 6829 16502 1 149.00000 418.400000
13347 6830 15488 1 149.00000 418.400000
13348 6831 13390 1 149.00000 418.400000
13348 6832 14132 1 149.00000 418.400000
13349 6833 15798 1 149.00000 418.400000
13349 6834 14003 1 149.00000 418.400000
13350 6835 21820 1 149.00000 418.400000
14596 6836 20830 1 149.00000 418.400000
13350 6837 14596 1 149.00000 418.400000
13351 6838 16576 1 149.00000 418.400000
13351 6839 14737 1 149.00000 418.400000
13352 6840 14924 1 149.00000 418.400000
13353 6841 14870 1 149.00000 418.400000
13353 6842 14856 1 149.00000 418.400000
13354 6843 21799 1 149.00000 418.400000
13354 6844 13639 1 149.00000 418.400000
13355 6845 14869 1 149.00000 418.400000
13355 6846 14522 1 149.00000 418.400000
13355 6847 15645 1 149.00000 418.400000
13355 6848 16074 1 149.00000 418.400000
13356 6849 15510 1 149.00000 418.400000
13356 6850 14993 1 149.00000 418.400000
13356 6851 13771 1 149.00000 418.400000
11577 6852 13357 1 149.00000 418.400000
11962 6853 13357 1 149.00000 418.400000
13358 6854 21784 1 149.00000 418.400000
13358 6855 15776 1 149.00000 418.400000
13359 6856 15793 1 149.00000 418.400000
13359 6857 14457 1 149.00000 418.400000
13359 6858 15406 1 149.00000 418.400000
13359 6859 15672 1 149.00000 418.400000
13360 6860 15731 1 149.00000 418.400000
12405 6861 16401 1 149.00000 418.400000
13360 6862 14633 1 149.00000 418.400000
13361 6863 16209 1 149.00000 418.400000
13362 6864 15960 1 149.00000 418.400000
13362 6865 15090 1 149.00000 418.400000
13362 6866 16327 1 149.00000 418.400000
14171 6867 16526 1 149.00000 418.400000
13363 6868 14838 1 149.00000 418.400000
13363 6869 14171 1 149.00000 418.400000
13364 6870 14983 1 149.00000 418.400000
13364 6871 14768 1 149.00000 418.400000
13365 6872 15875 1 149.00000 418.400000
13365 6873 14738 1 149.00000 418.400000
13365 6874 16161 1 149.00000 418.400000
13366 6875 14349 1 149.00000 418.400000
13366 6876 14107 1 149.00000 418.400000
13366 6877 15974 1 149.00000 418.400000
13367 6878 14938 1 149.00000 418.400000
13367 6879 15687 1 149.00000 418.400000
13368 6880 16536 1 149.00000 418.400000
13368 6881 14970 1 149.00000 418.400000
13368 6882 13933 1 149.00000 418.400000
12073 6883 13369 1 149.00000 418.400000
13369 6884 14316 1 149.00000 418.400000
13370 6885 15770 1 149.00000 418.400000
13370 6886 16312 1 149.00000 418.400000
13371 6887 13923 1 149.00000 418.400000
13372 6888 13719 1 149.00000 418.400000
13373 6889 21682 1 149.00000 418.400000
13373 6890 13889 1 149.00000 418.400000
13374 6891 15853 1 149.00000 418.400000
13374 6892 15049 1 149.00000 418.400000
13375 6893 14193 1 149.00000 418.400000
13375 6894 14764 1 149.00000 418.400000
13376 6895 14640 1 149.00000 418.400000
13376 6896 15341 1 149.00000 418.400000
15341 6897 15539 1 149.00000 418.400000
13376 6898 15580 1 149.00000 418.400000
14125 6899 21514 1 149.00000 418.400000
15682 6900 21514 1 149.00000 418.400000
20494 6901 21808 1 149.00000 418.400000
13377 6902 14770 1 149.00000 418.400000
13377 6903 14070 1 149.00000 418.400000
13377 6904 15105 1 149.00000 418.400000
13378 6905 13831 1 149.00000 418.400000
13379 6906 13550 1 149.00000 418.400000
13379 6907 15817 1 149.00000 418.400000
13379 6908 15726 1 149.00000 418.400000
13379 6909 15492 1 149.00000 418.400000
13380 6910 14163 1 149.00000 418.400000
13381 6911 15098 1 149.00000 418.400000
13381 6912 13597 1 149.00000 418.400000
13382 6913 15809 1 149.00000 418.400000
13382 6914 14829 1 149.00000 418.400000
13382 6915 16494 1 149.00000 418.400000
13383 6916 13595 1 149.00000 418.400000
13383 6917 14645 1 149.00000 418.400000
13384 6918 14352 1 149.00000 418.400000
13384 6919 15055 1 149.00000 418.400000
13384 6920 15165 1 149.00000 418.400000
13385 6921 16376 1 149.00000 418.400000
13386 6922 13901 1 149.00000 418.400000
13386 6923 14438 1 149.00000 418.400000
14188 6924 14438 1 149.00000 418.400000
13387 6925 13604 1 149.00000 418.400000
14961 6926 16910 1 149.00000 418.400000
13388 6927 15129 1 149.00000 418.400000
13388 6928 19738 1 149.00000 418.400000
13388 6929 15363 1 149.00000 418.400000
13389 6930 13988 1 149.00000 418.400000
16241 6931 19846 1 149.00000 418.400000
14189 6932 19846 1 149.00000 418.400000
13390 6933 14106 1 149.00000 418.400000
13390 6934 15481 1 149.00000 418.400000
13391 6935 14146 1 149.00000 418.400000
13391 6936 15101 1 149.00000 418.400000
13391 6937 15439 1 149.00000 418.400000
13392 6938 15442 1 149.00000 418.400000
13392 6939 21865 1 149.00000 418.400000
13392 6940 14046 1 149.00000 418.400000
13393 6941 15748 1 149.00000 418.400000
13393 6942 15691 1 149.00000 418.400000
13393 6943 13673 1 149.00000 418.400000
13394 6944 16040 1 149.00000 418.400000
13394 6945 14806 1 149.00000 418.400000
13395 6946 14185 1 149.00000 418.400000
13395 6947 15970 1 149.00000 418.400000
14474 6948 14952 1 149.00000 418.400000
14952 6949 15130 1 149.00000 418.400000
14952 6950 20626 1 149.00000 418.400000
13396 6951 15647 1 149.00000 418.400000
13396 6952 13638 1 149.00000 418.400000
13396 6953 15732 1 149.00000 418.400000
13396 6954 15646 1 149.00000 418.400000
13397 6955 16462 1 149.00000 418.400000
13397 6956 14853 1 149.00000 418.400000
13397 6957 13737 1 149.00000 418.400000
13398 6958 16015 1 149.00000 418.400000
12456 6959 16607 1 149.00000 418.400000
13399 6960 14335 1 149.00000 418.400000
13373 6961 13400 1 149.00000 418.400000
13401 6962 14770 1 149.00000 418.400000
13401 6963 13722 1 149.00000 418.400000
13722 6964 14521 1 149.00000 418.400000
13635 6965 15240 1 149.00000 418.400000
13402 6966 15041 1 149.00000 418.400000
13402 6967 15240 1 149.00000 418.400000
13403 6968 14893 1 149.00000 418.400000
14893 6969 15354 1 149.00000 418.400000
13404 6970 14841 1 149.00000 418.400000
12342 6971 13628 1 149.00000 418.400000
13405 6972 14515 1 149.00000 418.400000
13405 6973 14317 1 149.00000 418.400000
13405 6974 15954 1 149.00000 418.400000
13406 6975 15334 1 149.00000 418.400000
13406 6976 14635 1 149.00000 418.400000
13406 6977 13632 1 149.00000 418.400000
14743 6978 17918 1 149.00000 418.400000
13407 6979 16014 1 149.00000 418.400000
13407 6980 14514 1 149.00000 418.400000
13407 6981 15440 1 149.00000 418.400000
13409 6982 15054 1 149.00000 418.400000
13409 6983 15283 1 149.00000 418.400000
13410 6984 14562 1 149.00000 418.400000
13410 6985 15309 1 149.00000 418.400000
13410 6986 13745 1 149.00000 418.400000
13411 6987 16039 1 149.00000 418.400000
13411 6988 21787 1 149.00000 418.400000
13412 6989 13633 1 149.00000 418.400000
13412 6990 15046 1 149.00000 418.400000
13413 6991 15620 1 149.00000 418.400000
13413 6992 16264 1 149.00000 418.400000
13414 6993 16105 1 149.00000 418.400000
13414 6994 16361 1 149.00000 418.400000
13415 6995 13928 1 149.00000 418.400000
13415 6996 14518 1 149.00000 418.400000
13416 6997 20950 1 149.00000 418.400000
13417 6998 14049 1 149.00000 418.400000
13417 6999 13652 1 149.00000 418.400000
13418 7000 15782 1 149.00000 418.400000
13419 7001 13863 1 149.00000 418.400000
11549 7002 13420 1 149.00000 418.400000
13421 7003 15735 1 149.00000 418.400000
13421 7004 16233 1 149.00000 418.400000
13421 7005 15477 1 149.00000 418.400000
13422 7006 15514 1 149.00000 418.400000
13423 7007 15171 1 149.00000 418.400000
13423 7008 18622 1 149.00000 418.400000
13423 7009 14755 1 149.00000 418.400000
13424 7010 14383 1 149.00000 418.400000
13424 7011 15687 1 149.00000 418.400000
13424 7012 14956 1 149.00000 418.400000
13425 7013 15085 1 149.00000 418.400000
13425 7014 14399 1 149.00000 418.400000
13425 7015 16100 1 149.00000 418.400000
13425 7016 15663 1 149.00000 418.400000
13426 7017 15642 1 149.00000 418.400000
13426 7018 16429 1 149.00000 418.400000
14673 7019 21517 1 149.00000 418.400000
20362 7020 21517 1 149.00000 418.400000
13427 7021 15982 1 149.00000 418.400000
13427 7022 13572 1 149.00000 418.400000
13427 7023 16437 1 149.00000 418.400000
13428 7024 15764 1 149.00000 418.400000
13428 7025 14163 1 149.00000 418.400000
13428 7026 15612 1 149.00000 418.400000
13428 7027 15919 1 149.00000 418.400000
13429 7028 13923 1 149.00000 418.400000
13429 7029 15081 1 149.00000 418.400000
13429 7030 16385 1 149.00000 418.400000
13429 7031 13476 1 149.00000 418.400000
13430 7032 15821 1 149.00000 418.400000
13430 7033 15962 1 149.00000 418.400000
13430 7034 14506 1 149.00000 418.400000
13431 7035 14134 1 149.00000 418.400000
13431 7036 15276 1 149.00000 418.400000
13431 7037 21943 1 149.00000 418.400000
13433 7038 16214 1 149.00000 418.400000
13433 7039 15199 1 149.00000 418.400000
13433 7040 14447 1 149.00000 418.400000
13433 7041 16278 1 149.00000 418.400000
13434 7042 15380 1 149.00000 418.400000
13434 7043 15269 1 149.00000 418.400000
13435 7044 14459 1 149.00000 418.400000
13435 7045 14332 1 149.00000 418.400000
13435 7046 15291 1 149.00000 418.400000
13436 7047 16035 1 149.00000 418.400000
13436 7048 13830 1 149.00000 418.400000
13436 7049 14312 1 149.00000 418.400000
13436 7050 14846 1 149.00000 418.400000
13437 7051 15059 1 149.00000 418.400000
16076 7052 21520 1 149.00000 418.400000
13438 7053 14266 1 149.00000 418.400000
13438 7054 13708 1 149.00000 418.400000
13439 7055 16552 1 149.00000 418.400000
13440 7056 16574 1 149.00000 418.400000
13440 7057 14286 1 149.00000 418.400000
13441 7058 14045 1 149.00000 418.400000
13441 7059 14259 1 149.00000 418.400000
13441 7060 16092 1 149.00000 418.400000
13442 7061 14348 1 149.00000 418.400000
13442 7062 15261 1 149.00000 418.400000
14348 7063 15744 1 149.00000 418.400000
13442 7064 17106 1 149.00000 418.400000
15494 7065 18142 1 149.00000 418.400000
17064 7066 18142 1 149.00000 418.400000
13443 7067 14533 1 149.00000 418.400000
13443 7068 15784 1 149.00000 418.400000
13443 7069 15041 1 149.00000 418.400000
13443 7070 14344 1 149.00000 418.400000
13444 7071 15861 1 149.00000 418.400000
13444 7072 16387 1 149.00000 418.400000
13444 7073 22014 1 149.00000 418.400000
13445 7074 15027 1 149.00000 418.400000
13445 7075 14081 1 149.00000 418.400000
13445 7076 15764 1 149.00000 418.400000
13446 7077 14873 1 149.00000 418.400000
13446 7078 15446 1 149.00000 418.400000
13447 7079 15953 1 149.00000 418.400000
13447 7080 14622 1 149.00000 418.400000
13447 7081 15339 1 149.00000 418.400000
14622 7082 16145 1 149.00000 418.400000
13448 7083 14578 1 149.00000 418.400000
13448 7084 13607 1 149.00000 418.400000
12398 7085 13449 1 149.00000 418.400000
13449 7086 14901 1 149.00000 418.400000
13450 7087 14618 1 149.00000 418.400000
13450 7088 14176 1 149.00000 418.400000
13450 7089 14455 1 149.00000 418.400000
13451 7090 16031 1 149.00000 418.400000
13569 7091 16078 1 149.00000 418.400000
13451 7092 16078 1 149.00000 418.400000
13451 7093 13588 1 149.00000 418.400000
13452 7094 21826 1 149.00000 418.400000
13453 7095 16185 1 149.00000 418.400000
13453 7096 15826 1 149.00000 418.400000
13453 7097 16337 1 149.00000 418.400000
14627 7098 21523 1 149.00000 418.400000
13454 7099 21571 1 149.00000 418.400000
13454 7100 14621 1 149.00000 418.400000
13455 7101 14917 1 149.00000 418.400000
13455 7102 14688 1 149.00000 418.400000
13456 7103 13759 1 149.00000 418.400000
13456 7104 14170 1 149.00000 418.400000
13457 7105 16297 1 149.00000 418.400000
13457 7106 14437 1 149.00000 418.400000
13457 7107 15251 1 149.00000 418.400000
13458 7108 16084 1 149.00000 418.400000
13458 7109 14950 1 149.00000 418.400000
13458 7110 15121 1 149.00000 418.400000
13458 7111 16205 1 149.00000 418.400000
16598 7112 21526 1 149.00000 418.400000
21526 7113 21859 1 149.00000 418.400000
14951 7114 21526 1 149.00000 418.400000
13459 7115 15208 1 149.00000 418.400000
13459 7116 15896 1 149.00000 418.400000
13459 7117 15471 1 149.00000 418.400000
13460 7118 14705 1 149.00000 418.400000
13460 7119 15184 1 149.00000 418.400000
13460 7120 14984 1 149.00000 418.400000
13461 7121 15735 1 149.00000 418.400000
13461 7122 13948 1 149.00000 418.400000
13461 7123 13497 1 149.00000 418.400000
13462 7124 14675 1 149.00000 418.400000
13462 7125 15915 1 149.00000 418.400000
14675 7126 14702 1 149.00000 418.400000
13463 7127 21853 1 149.00000 418.400000
13463 7128 13648 1 149.00000 418.400000
13463 7129 13541 1 149.00000 418.400000
13463 7130 16133 1 149.00000 418.400000
13464 7131 15927 1 149.00000 418.400000
14792 7132 15927 1 149.00000 418.400000
13466 7133 14731 1 149.00000 418.400000
13466 7134 16465 1 149.00000 418.400000
13467 7135 13656 1 149.00000 418.400000
13467 7136 13796 1 149.00000 418.400000
13467 7137 15407 1 149.00000 418.400000
13468 7138 14870 1 149.00000 418.400000
13468 7139 14710 1 149.00000 418.400000
13468 7140 16046 1 149.00000 418.400000
13469 7141 21763 1 149.00000 418.400000
13469 7142 21646 1 149.00000 418.400000
13470 7143 13616 1 149.00000 418.400000
12844 7144 14419 1 149.00000 418.400000
13470 7145 15092 1 149.00000 418.400000
13471 7146 14710 1 149.00000 418.400000
13471 7147 15897 1 149.00000 418.400000
13471 7148 16019 1 149.00000 418.400000
13472 7149 14979 1 149.00000 418.400000
13472 7150 16468 1 149.00000 418.400000
13472 7151 13539 1 149.00000 418.400000
13473 7152 15119 1 149.00000 418.400000
14013 7153 21529 1 149.00000 418.400000
16391 7154 21529 1 149.00000 418.400000
13474 7155 16074 1 149.00000 418.400000
13474 7156 15277 1 149.00000 418.400000
13474 7157 15767 1 149.00000 418.400000
13475 7158 14496 1 149.00000 418.400000
13475 7159 14228 1 149.00000 418.400000
13475 7160 16036 1 149.00000 418.400000
13475 7161 15319 1 149.00000 418.400000
13476 7162 13773 1 149.00000 418.400000
13476 7163 16030 1 149.00000 418.400000
13477 7164 15954 1 149.00000 418.400000
13477 7165 14480 1 149.00000 418.400000
13477 7166 14406 1 149.00000 418.400000
13478 7167 14941 1 149.00000 418.400000
13479 7168 14636 1 149.00000 418.400000
13479 7169 13741 1 149.00000 418.400000
13479 7170 20158 1 149.00000 418.400000
15497 7171 16840 1 149.00000 418.400000
13480 7172 15462 1 149.00000 418.400000
13480 7173 13766 1 149.00000 418.400000
13480 7174 15840 1 149.00000 418.400000
13481 7175 16509 1 149.00000 418.400000
13481 7176 14871 1 149.00000 418.400000
11867 7177 13481 1 149.00000 418.400000
13482 7178 13750 1 149.00000 418.400000
13482 7179 15551 1 149.00000 418.400000
17092 7180 18682 1 149.00000 418.400000
13483 7181 13593 1 149.00000 418.400000
13483 7182 13837 1 149.00000 418.400000
13484 7183 15811 1 149.00000 418.400000
13485 7184 14992 1 149.00000 418.400000
13485 7185 14039 1 149.00000 418.400000
13486 7186 13748 1 149.00000 418.400000
13486 7187 15655 1 149.00000 418.400000
13486 7188 13864 1 149.00000 418.400000
13486 7189 13659 1 149.00000 418.400000
13487 7190 16217 1 149.00000 418.400000
13487 7191 13926 1 149.00000 418.400000
13487 7192 16335 1 149.00000 418.400000
13487 7193 13513 1 149.00000 418.400000
12988 7194 13488 1 149.00000 418.400000
13488 7195 15814 1 149.00000 418.400000
13489 7196 14633 1 149.00000 418.400000
13489 7197 16289 1 149.00000 418.400000
21010 7198 21535 1 149.00000 418.400000
13490 7199 15971 1 149.00000 418.400000
13490 7200 14610 1 149.00000 418.400000
13491 7201 13779 1 149.00000 418.400000
13491 7202 14367 1 149.00000 418.400000
13492 7203 15588 1 149.00000 418.400000
13492 7204 14673 1 149.00000 418.400000
13493 7205 15051 1 149.00000 418.400000
13493 7206 14384 1 149.00000 418.400000
13494 7207 15631 1 149.00000 418.400000
13494 7208 13825 1 149.00000 418.400000
13495 7209 21562 1 149.00000 418.400000
13497 7210 15519 1 149.00000 418.400000
13497 7211 16124 1 149.00000 418.400000
13497 7212 13690 1 149.00000 418.400000
13498 7213 13906 1 149.00000 418.400000
13499 7214 14262 1 149.00000 418.400000
13499 7215 14161 1 149.00000 418.400000
14262 7216 16342 1 149.00000 418.400000
13500 7217 21601 1 149.00000 418.400000
13501 7218 14217 1 149.00000 418.400000
13501 7219 21604 1 149.00000 418.400000
13501 7220 15670 1 149.00000 418.400000
13501 7221 15710 1 149.00000 418.400000
15915 7222 21538 1 149.00000 418.400000
13529 7223 21538 1 149.00000 418.400000
14219 7224 14302 1 149.00000 418.400000
13502 7225 14302 1 149.00000 418.400000
13502 7226 16433 1 149.00000 418.400000
13503 7227 14435 1 149.00000 418.400000
13504 7228 15932 1 149.00000 418.400000
13504 7229 16313 1 149.00000 418.400000
13504 7230 14827 1 149.00000 418.400000
13504 7231 13541 1 149.00000 418.400000
13505 7232 14955 1 149.00000 418.400000
13195 7233 13505 1 149.00000 418.400000
13505 7234 14585 1 149.00000 418.400000
13506 7235 14445 1 149.00000 418.400000
13506 7236 14828 1 149.00000 418.400000
14976 7237 16000 1 149.00000 418.400000
13507 7238 14748 1 149.00000 418.400000
13507 7239 13810 1 149.00000 418.400000
16135 7240 16556 1 149.00000 418.400000
13508 7241 16135 1 149.00000 418.400000
13508 7242 16587 1 149.00000 418.400000
13509 7243 14608 1 149.00000 418.400000
13509 7244 16266 1 149.00000 418.400000
13510 7245 16350 1 149.00000 418.400000
13510 7246 14402 1 149.00000 418.400000
13511 7247 13565 1 149.00000 418.400000
13511 7248 15229 1 149.00000 418.400000
13511 7249 13588 1 149.00000 418.400000
13511 7250 21721 1 149.00000 418.400000
13512 7251 14109 1 149.00000 418.400000
13893 7252 14109 1 149.00000 418.400000
13513 7253 13582 1 149.00000 418.400000
13514 7254 13874 1 149.00000 418.400000
13515 7255 14006 1 149.00000 418.400000
13515 7256 13715 1 149.00000 418.400000
13516 7257 21898 1 149.00000 418.400000
13517 7258 16514 1 149.00000 418.400000
13517 7259 15864 1 149.00000 418.400000
13518 7260 14684 1 149.00000 418.400000
13518 7261 15411 1 149.00000 418.400000
14789 7262 21541 1 149.00000 418.400000
16022 7263 21541 1 149.00000 418.400000
15885 7264 21541 1 149.00000 418.400000
12029 7265 13519 1 149.00000 418.400000
13519 7266 14303 1 149.00000 418.400000
13520 7267 15158 1 149.00000 418.400000
13521 7268 13528 1 149.00000 418.400000
14358 7269 15252 1 149.00000 418.400000
13523 7270 15252 1 149.00000 418.400000
13524 7271 13607 1 149.00000 418.400000
13524 7272 15384 1 149.00000 418.400000
13524 7273 14594 1 149.00000 418.400000
13524 7274 15456 1 149.00000 418.400000
13525 7275 14380 1 149.00000 418.400000
13525 7276 15783 1 149.00000 418.400000
14514 7277 16086 1 149.00000 418.400000
13526 7278 21676 1 149.00000 418.400000
13526 7279 16086 1 149.00000 418.400000
13526 7280 16345 1 149.00000 418.400000
13527 7281 15451 1 149.00000 418.400000
15089 7282 15451 1 149.00000 418.400000
13097 7283 13548 1 149.00000 418.400000
13528 7284 13555 1 149.00000 418.400000
13528 7285 20086 1 149.00000 418.400000
13528 7286 16868 1 149.00000 418.400000
13529 7287 21835 1 149.00000 418.400000
14298 7288 21835 1 149.00000 418.400000
13530 7289 15750 1 149.00000 418.400000
13530 7290 15161 1 149.00000 418.400000
15750 7291 19678 1 149.00000 418.400000
13531 7292 14452 1 149.00000 418.400000
13531 7293 15571 1 149.00000 418.400000
13531 7294 16110 1 149.00000 418.400000
13532 7295 14543 1 149.00000 418.400000
13532 7296 14754 1 149.00000 418.400000
13532 7297 14150 1 149.00000 418.400000
13534 7298 14057 1 149.00000 418.400000
13534 7299 14843 1 149.00000 418.400000
13534 7300 16192 1 149.00000 418.400000
13535 7301 14610 1 149.00000 418.400000
13535 7302 18198 1 149.00000 418.400000
13536 7303 15253 1 149.00000 418.400000
13536 7304 16556 1 149.00000 418.400000
13536 7305 15062 1 149.00000 418.400000
13537 7306 15339 1 149.00000 418.400000
13537 7307 13913 1 149.00000 418.400000
13178 7308 13537 1 149.00000 418.400000
13538 7309 15773 1 149.00000 418.400000
13538 7310 13592 1 149.00000 418.400000
13538 7311 20410 1 149.00000 418.400000
13538 7312 15449 1 149.00000 418.400000
13539 7313 15214 1 149.00000 418.400000
13539 7314 15224 1 149.00000 418.400000
13540 7315 14891 1 149.00000 418.400000
13540 7316 15366 1 149.00000 418.400000
13542 7317 13940 1 149.00000 418.400000
13542 7318 16060 1 149.00000 418.400000
11713 7319 16107 1 149.00000 418.400000
11713 7320 14491 1 149.00000 418.400000
13544 7321 13910 1 149.00000 418.400000
13544 7322 16440 1 149.00000 418.400000
13545 7323 15563 1 149.00000 418.400000
13545 7324 15554 1 149.00000 418.400000
14249 7325 15563 1 149.00000 418.400000
13740 7326 15399 1 149.00000 418.400000
13547 7327 14507 1 149.00000 418.400000
13547 7328 13740 1 149.00000 418.400000
13548 7329 15654 1 149.00000 418.400000
13549 7330 15023 1 149.00000 418.400000
13550 7331 16619 1 149.00000 418.400000
13550 7332 14570 1 149.00000 418.400000
13550 7333 14469 1 149.00000 418.400000
13551 7334 14391 1 149.00000 418.400000
13551 7335 16048 1 149.00000 418.400000
13551 7336 16459 1 149.00000 418.400000
13551 7337 15446 1 149.00000 418.400000
13552 7338 16332 1 149.00000 418.400000
13552 7339 14494 1 149.00000 418.400000
13552 7340 15082 1 149.00000 418.400000
16559 7341 18766 1 149.00000 418.400000
13553 7342 18766 1 149.00000 418.400000
13553 7343 19822 1 149.00000 418.400000
13553 7344 15500 1 149.00000 418.400000
13554 7345 15982 1 149.00000 418.400000
13554 7346 14736 1 149.00000 418.400000
13554 7347 16519 1 149.00000 418.400000
13555 7348 16583 1 149.00000 418.400000
13555 7349 16532 1 149.00000 418.400000
13555 7350 16075 1 149.00000 418.400000
13556 7351 13660 1 149.00000 418.400000
13556 7352 14450 1 149.00000 418.400000
13556 7353 16562 1 149.00000 418.400000
13557 7354 15189 1 149.00000 418.400000
13557 7355 15720 1 149.00000 418.400000
13557 7356 14317 1 149.00000 418.400000
13558 7357 16194 1 149.00000 418.400000
13321 7358 14825 1 149.00000 418.400000
13321 7359 13558 1 149.00000 418.400000
13559 7360 16380 1 149.00000 418.400000
13559 7361 14837 1 149.00000 418.400000
13559 7362 16071 1 149.00000 418.400000
13560 7363 21994 1 149.00000 418.400000
13560 7364 13905 1 149.00000 418.400000
13560 7365 15154 1 149.00000 418.400000
13561 7366 15614 1 149.00000 418.400000
13562 7367 13735 1 149.00000 418.400000
11416 7368 16371 1 149.00000 418.400000
14269 7369 21547 1 149.00000 418.400000
13563 7370 13958 1 149.00000 418.400000
11660 7371 14558 1 149.00000 418.400000
13563 7372 15952 1 149.00000 418.400000
11673 7373 13328 1 149.00000 418.400000
13564 7374 14675 1 149.00000 418.400000
14346 7375 18586 1 149.00000 418.400000
18586 7376 21790 1 149.00000 418.400000
13566 7377 15517 1 149.00000 418.400000
13566 7378 16489 1 149.00000 418.400000
13566 7379 13922 1 149.00000 418.400000
13566 7380 15305 1 149.00000 418.400000
13567 7381 14361 1 149.00000 418.400000
13567 7382 16460 1 149.00000 418.400000
13568 7383 15640 1 149.00000 418.400000
13570 7384 14558 1 149.00000 418.400000
13570 7385 15296 1 149.00000 418.400000
13570 7386 13762 1 149.00000 418.400000
13570 7387 15709 1 149.00000 418.400000
13571 7388 16152 1 149.00000 418.400000
13571 7389 13895 1 149.00000 418.400000
13572 7390 15987 1 149.00000 418.400000
13572 7391 15042 1 149.00000 418.400000
13573 7392 14470 1 149.00000 418.400000
13573 7393 14541 1 149.00000 418.400000
13574 7394 14152 1 149.00000 418.400000
13574 7395 14918 1 149.00000 418.400000
13574 7396 15707 1 149.00000 418.400000
13575 7397 14045 1 149.00000 418.400000
13575 7398 13679 1 149.00000 418.400000
14663 7399 21022 1 149.00000 418.400000
16586 7400 21022 1 149.00000 418.400000
13576 7401 14818 1 149.00000 418.400000
13576 7402 14250 1 149.00000 418.400000
13576 7403 13647 1 149.00000 418.400000
13576 7404 15570 1 149.00000 418.400000
13577 7405 16175 1 149.00000 418.400000
13577 7406 14148 1 149.00000 418.400000
13577 7407 15872 1 149.00000 418.400000
13578 7408 15789 1 149.00000 418.400000
12411 7409 13586 1 149.00000 418.400000
14520 7410 15789 1 149.00000 418.400000
13579 7411 16095 1 149.00000 418.400000
13579 7412 14222 1 149.00000 418.400000
13579 7413 14889 1 149.00000 418.400000
13580 7414 14200 1 149.00000 418.400000
13581 7415 14485 1 149.00000 418.400000
13581 7416 14757 1 149.00000 418.400000
13582 7417 16087 1 149.00000 418.400000
12862 7418 13583 1 149.00000 418.400000
13583 7419 13882 1 149.00000 418.400000
13583 7420 14390 1 149.00000 418.400000
13584 7421 15642 1 149.00000 418.400000
13584 7422 13854 1 149.00000 418.400000
13585 7423 15926 1 149.00000 418.400000
13586 7424 15065 1 149.00000 418.400000
13586 7425 16576 1 149.00000 418.400000
13586 7426 13800 1 149.00000 418.400000
13587 7427 19642 1 149.00000 418.400000
13587 7428 14021 1 149.00000 418.400000
13587 7429 15523 1 149.00000 418.400000
13588 7430 15436 1 149.00000 418.400000
12127 7431 15380 1 149.00000 418.400000
13588 7432 15380 1 149.00000 418.400000
13589 7433 18994 1 149.00000 418.400000
13590 7434 15516 1 149.00000 418.400000
13590 7435 15894 1 149.00000 418.400000
13590 7436 13624 1 149.00000 418.400000
13591 7437 15610 1 149.00000 418.400000
13591 7438 15222 1 149.00000 418.400000
13591 7439 16515 1 149.00000 418.400000
13592 7440 14138 1 149.00000 418.400000
13592 7441 20122 1 149.00000 418.400000
13593 7442 16307 1 149.00000 418.400000
13594 7443 15145 1 149.00000 418.400000
13594 7444 14595 1 149.00000 418.400000
13594 7445 14563 1 149.00000 418.400000
13322 7446 14980 1 149.00000 418.400000
13596 7447 16525 1 149.00000 418.400000
13596 7448 14494 1 149.00000 418.400000
13597 7449 19462 1 149.00000 418.400000
13597 7450 14224 1 149.00000 418.400000
12669 7451 13984 1 149.00000 418.400000
13598 7452 13876 1 149.00000 418.400000
13598 7453 13744 1 149.00000 418.400000
13599 7454 16614 1 149.00000 418.400000
13599 7455 15310 1 149.00000 418.400000
13599 7456 14582 1 149.00000 418.400000
13600 7457 15626 1 149.00000 418.400000
13600 7458 15806 1 149.00000 418.400000
13601 7459 15682 1 149.00000 418.400000
13601 7460 14661 1 149.00000 418.400000
13601 7461 15797 1 149.00000 418.400000
13602 7462 14754 1 149.00000 418.400000
13602 7463 16352 1 149.00000 418.400000
13603 7464 16266 1 149.00000 418.400000
13603 7465 13993 1 149.00000 418.400000
13603 7466 15205 1 149.00000 418.400000
13604 7467 14092 1 149.00000 418.400000
13604 7468 14593 1 149.00000 418.400000
13492 7469 13605 1 149.00000 418.400000
14228 7470 17064 1 149.00000 418.400000
13606 7471 16242 1 149.00000 418.400000
16097 7472 21553 1 149.00000 418.400000
13607 7473 16091 1 149.00000 418.400000
13608 7474 14809 1 149.00000 418.400000
13608 7475 15195 1 149.00000 418.400000
13608 7476 15053 1 149.00000 418.400000
13269 7477 13608 1 149.00000 418.400000
13609 7478 15238 1 149.00000 418.400000
13610 7479 13707 1 149.00000 418.400000
13610 7480 14055 1 149.00000 418.400000
13611 7481 14412 1 149.00000 418.400000
13611 7482 15594 1 149.00000 418.400000
13611 7483 13644 1 149.00000 418.400000
13612 7484 15234 1 149.00000 418.400000
14699 7485 21556 1 149.00000 418.400000
15989 7486 21556 1 149.00000 418.400000
13613 7487 14261 1 149.00000 418.400000
13613 7488 15306 1 149.00000 418.400000
13613 7489 14840 1 149.00000 418.400000
13614 7490 14663 1 149.00000 418.400000
13614 7491 13709 1 149.00000 418.400000
13614 7492 13742 1 149.00000 418.400000
13615 7493 21772 1 149.00000 418.400000
13615 7494 15391 1 149.00000 418.400000
13616 7495 14403 1 149.00000 418.400000
13616 7496 14192 1 149.00000 418.400000
13617 7497 13634 1 149.00000 418.400000
13618 7498 14368 1 149.00000 418.400000
13618 7499 15639 1 149.00000 418.400000
13618 7500 13925 1 149.00000 418.400000
13618 7501 14135 1 149.00000 418.400000
13619 7502 15351 1 149.00000 418.400000
13619 7503 14318 1 149.00000 418.400000
13619 7504 14312 1 149.00000 418.400000
13620 7505 15870 1 149.00000 418.400000
13386 7506 13620 1 149.00000 418.400000
14556 7507 15144 1 149.00000 418.400000
13621 7508 14556 1 149.00000 418.400000
13621 7509 15010 1 149.00000 418.400000
18946 7510 21559 1 149.00000 418.400000
13622 7511 14174 1 149.00000 418.400000
12099 7512 13622 1 149.00000 418.400000
14175 7513 15996 1 149.00000 418.400000
13843 7514 14175 1 149.00000 418.400000
13623 7515 14994 1 149.00000 418.400000
13624 7516 13809 1 149.00000 418.400000
13624 7517 15991 1 149.00000 418.400000
13625 7518 14368 1 149.00000 418.400000
13625 7519 15421 1 149.00000 418.400000
13626 7520 15506 1 149.00000 418.400000
13626 7521 15462 1 149.00000 418.400000
15462 7522 16309 1 149.00000 418.400000
13627 7523 16455 1 149.00000 418.400000
13627 7524 14860 1 149.00000 418.400000
13627 7525 14054 1 149.00000 418.400000
13628 7526 16190 1 149.00000 418.400000
13628 7527 15084 1 149.00000 418.400000
12976 7528 17540 1 149.00000 418.400000
17540 7529 21586 1 149.00000 418.400000
13629 7530 14881 1 149.00000 418.400000
13629 7531 16326 1 149.00000 418.400000
13629 7532 15435 1 149.00000 418.400000
13630 7533 13884 1 149.00000 418.400000
13630 7534 14673 1 149.00000 418.400000
13631 7535 16537 1 149.00000 418.400000
13632 7536 16228 1 149.00000 418.400000
13632 7537 16467 1 149.00000 418.400000
13633 7538 15549 1 149.00000 418.400000
13634 7539 16426 1 149.00000 418.400000
13634 7540 15301 1 149.00000 418.400000
13635 7541 16035 1 149.00000 418.400000
13635 7542 15609 1 149.00000 418.400000
13635 7543 14226 1 149.00000 418.400000
13636 7544 15842 1 149.00000 418.400000
13637 7545 16004 1 149.00000 418.400000
13637 7546 14966 1 149.00000 418.400000
13639 7547 13801 1 149.00000 418.400000
13640 7548 14221 1 149.00000 418.400000
13640 7549 13882 1 149.00000 418.400000
13640 7550 15295 1 149.00000 418.400000
13641 7551 16330 1 149.00000 418.400000
13641 7552 16604 1 149.00000 418.400000
13642 7553 14907 1 149.00000 418.400000
13642 7554 16573 1 149.00000 418.400000
13643 7555 14211 1 149.00000 418.400000
13644 7556 15004 1 149.00000 418.400000
13644 7557 14819 1 149.00000 418.400000
13644 7558 14287 1 149.00000 418.400000
13908 7559 21989 1 149.00000 418.400000
13645 7560 15578 1 149.00000 418.400000
13645 7561 16497 1 149.00000 418.400000
13645 7562 14753 1 149.00000 418.400000
13645 7563 13853 1 149.00000 418.400000
13646 7564 15182 1 149.00000 418.400000
13646 7565 13758 1 149.00000 418.400000
13647 7566 15948 1 149.00000 418.400000
13648 7567 14597 1 149.00000 418.400000
14597 7568 16298 1 149.00000 418.400000
13648 7569 14026 1 149.00000 418.400000
14173 7570 14662 1 149.00000 418.400000
13649 7571 14173 1 149.00000 418.400000
13649 7572 14462 1 149.00000 418.400000
13650 7573 14603 1 149.00000 418.400000
13650 7574 15333 1 149.00000 418.400000
13650 7575 16024 1 149.00000 418.400000
13653 7576 14273 1 149.00000 418.400000
13653 7577 15528 1 149.00000 418.400000
13654 7578 14947 1 149.00000 418.400000
13655 7579 14730 1 149.00000 418.400000
13655 7580 21580 1 149.00000 418.400000
13655 7581 15275 1 149.00000 418.400000
13656 7582 15210 1 149.00000 418.400000
13657 7583 16384 1 149.00000 418.400000
13658 7584 14287 1 149.00000 418.400000
13658 7585 15151 1 149.00000 418.400000
13659 7586 16093 1 149.00000 418.400000
13659 7587 16466 1 149.00000 418.400000
13660 7588 15793 1 149.00000 418.400000
13660 7589 14123 1 149.00000 418.400000
13660 7590 13759 1 149.00000 418.400000
13661 7591 14594 1 149.00000 418.400000
13661 7592 16326 1 149.00000 418.400000
13661 7593 15549 1 149.00000 418.400000
13662 7594 15117 1 149.00000 418.400000
13662 7595 14600 1 149.00000 418.400000
13662 7596 14745 1 149.00000 418.400000
13663 7597 13878 1 149.00000 418.400000
13663 7598 17232 1 149.00000 418.400000
13664 7599 16004 1 149.00000 418.400000
13664 7600 14027 1 149.00000 418.400000
13665 7601 13669 1 149.00000 418.400000
13665 7602 15576 1 149.00000 418.400000
14158 7603 15218 1 149.00000 418.400000
13666 7604 15146 1 149.00000 418.400000
13666 7605 15218 1 149.00000 418.400000
13666 7606 15038 1 149.00000 418.400000
13667 7607 15824 1 149.00000 418.400000
13668 7608 14472 1 149.00000 418.400000
13668 7609 15215 1 149.00000 418.400000
13669 7610 15479 1 149.00000 418.400000
13670 7611 14024 1 149.00000 418.400000
14141 7612 21841 1 149.00000 418.400000
13671 7613 21841 1 149.00000 418.400000
13671 7614 21436 1 149.00000 418.400000
13672 7615 15886 1 149.00000 418.400000
13672 7616 16599 1 149.00000 418.400000
13672 7617 15031 1 149.00000 418.400000
13674 7618 14046 1 149.00000 418.400000
13674 7619 13932 1 149.00000 418.400000
13674 7620 14586 1 149.00000 418.400000
13675 7621 16334 1 149.00000 418.400000
13675 7622 14540 1 149.00000 418.400000
13675 7623 15200 1 149.00000 418.400000
14880 7624 18658 1 149.00000 418.400000
18658 7625 21652 1 149.00000 418.400000
14866 7626 18658 1 149.00000 418.400000
20458 7627 21562 1 149.00000 418.400000
14722 7628 21562 1 149.00000 418.400000
13676 7629 15055 1 149.00000 418.400000
13676 7630 15504 1 149.00000 418.400000
13676 7631 16317 1 149.00000 418.400000
13677 7632 14709 1 149.00000 418.400000
13677 7633 15158 1 149.00000 418.400000
13677 7634 16031 1 149.00000 418.400000
13677 7635 15229 1 149.00000 418.400000
15502 7636 21046 1 149.00000 418.400000
13678 7637 14056 1 149.00000 418.400000
13678 7638 16257 1 149.00000 418.400000
13678 7639 16121 1 149.00000 418.400000
13679 7640 14544 1 149.00000 418.400000
13679 7641 14488 1 149.00000 418.400000
13680 7642 16065 1 149.00000 418.400000
13680 7643 16212 1 149.00000 418.400000
14411 7644 15801 1 149.00000 418.400000
13681 7645 15801 1 149.00000 418.400000
11900 7646 13681 1 149.00000 418.400000
13682 7647 15491 1 149.00000 418.400000
13682 7648 13919 1 149.00000 418.400000
13683 7649 16092 1 149.00000 418.400000
13683 7650 13763 1 149.00000 418.400000
13684 7651 14538 1 149.00000 418.400000
13684 7652 15342 1 149.00000 418.400000
13684 7653 14268 1 149.00000 418.400000
13685 7654 16491 1 149.00000 418.400000
12923 7655 15908 1 149.00000 418.400000
13686 7656 15245 1 149.00000 418.400000
13687 7657 14466 1 149.00000 418.400000
12496 7658 15053 1 149.00000 418.400000
13688 7659 14725 1 149.00000 418.400000
13688 7660 15664 1 149.00000 418.400000
18970 7661 19834 1 149.00000 418.400000
13794 7662 19834 1 149.00000 418.400000
11853 7663 18970 1 149.00000 418.400000
13689 7664 14566 1 149.00000 418.400000
13691 7665 14528 1 149.00000 418.400000
13691 7666 21595 1 149.00000 418.400000
13692 7667 15271 1 149.00000 418.400000
13693 7668 15682 1 149.00000 418.400000
11495 7669 14179 1 149.00000 418.400000
13047 7670 16185 1 149.00000 418.400000
13694 7671 16291 1 149.00000 418.400000
14996 7672 16291 1 149.00000 418.400000
13695 7673 15038 1 149.00000 418.400000
12934 7674 13696 1 149.00000 418.400000
13697 7675 15309 1 149.00000 418.400000
13697 7676 15691 1 149.00000 418.400000
13697 7677 15186 1 149.00000 418.400000
13698 7678 14832 1 149.00000 418.400000
13698 7679 15930 1 149.00000 418.400000
13698 7680 14815 1 149.00000 418.400000
13699 7681 15282 1 149.00000 418.400000
13699 7682 14449 1 149.00000 418.400000
13700 7683 14553 1 149.00000 418.400000
13700 7684 16473 1 149.00000 418.400000
13700 7685 15864 1 149.00000 418.400000
14749 7686 18324 1 149.00000 418.400000
13997 7687 20674 1 149.00000 418.400000
15394 7688 20674 1 149.00000 418.400000
13702 7689 15454 1 149.00000 418.400000
13702 7690 16318 1 149.00000 418.400000
13703 7691 15828 1 149.00000 418.400000
13703 7692 16244 1 149.00000 418.400000
14757 7693 15542 1 149.00000 418.400000
13704 7694 14030 1 149.00000 418.400000
13704 7695 14757 1 149.00000 418.400000
13704 7696 16160 1 149.00000 418.400000
13705 7697 16553 1 149.00000 418.400000
13705 7698 14569 1 149.00000 418.400000
14377 7699 16553 1 149.00000 418.400000
13706 7700 16378 1 149.00000 418.400000
13706 7701 15739 1 149.00000 418.400000
13707 7702 15923 1 149.00000 418.400000
13707 7703 14499 1 149.00000 418.400000
13708 7704 15289 1 149.00000 418.400000
13708 7705 15829 1 149.00000 418.400000
13709 7706 14160 1 149.00000 418.400000
13709 7707 14733 1 149.00000 418.400000
13710 7708 16223 1 149.00000 418.400000
13710 7709 15640 1 149.00000 418.400000
13710 7710 15237 1 149.00000 418.400000
13711 7711 15809 1 149.00000 418.400000
13711 7712 14370 1 149.00000 418.400000
13712 7713 15508 1 149.00000 418.400000
13408 7714 13712 1 149.00000 418.400000
13713 7715 16424 1 149.00000 418.400000
13713 7716 16165 1 149.00000 418.400000
13713 7717 14657 1 149.00000 418.400000
13714 7718 16518 1 149.00000 418.400000
13714 7719 15359 1 149.00000 418.400000
13714 7720 15688 1 149.00000 418.400000
13715 7721 14733 1 149.00000 418.400000
13716 7722 13962 1 149.00000 418.400000
13716 7723 16100 1 149.00000 418.400000
13716 7724 14374 1 149.00000 418.400000
13716 7725 15157 1 149.00000 418.400000
13717 7726 14566 1 149.00000 418.400000
13717 7727 15891 1 149.00000 418.400000
13717 7728 14545 1 149.00000 418.400000
13718 7729 16474 1 149.00000 418.400000
13718 7730 15048 1 149.00000 418.400000
13719 7731 14535 1 149.00000 418.400000
13720 7732 14777 1 149.00000 418.400000
13720 7733 15965 1 149.00000 418.400000
13720 7734 15647 1 149.00000 418.400000
13721 7735 15921 1 149.00000 418.400000
13721 7736 14770 1 149.00000 418.400000
13721 7737 14047 1 149.00000 418.400000
13722 7738 14941 1 149.00000 418.400000
13401 7739 14742 1 149.00000 418.400000
11573 7740 13722 1 149.00000 418.400000
13723 7741 21886 1 149.00000 418.400000
13723 7742 19306 1 149.00000 418.400000
13723 7743 14494 1 149.00000 418.400000
13723 7744 15687 1 149.00000 418.400000
13724 7745 15997 1 149.00000 418.400000
13725 7746 15347 1 149.00000 418.400000
13725 7747 14611 1 149.00000 418.400000
13725 7748 14394 1 149.00000 418.400000
13725 7749 15515 1 149.00000 418.400000
13727 7750 15952 1 149.00000 418.400000
13727 7751 15296 1 149.00000 418.400000
13728 7752 16010 1 149.00000 418.400000
13728 7753 15672 1 149.00000 418.400000
13728 7754 15955 1 149.00000 418.400000
13729 7755 16550 1 149.00000 418.400000
13729 7756 15302 1 149.00000 418.400000
13729 7757 16521 1 149.00000 418.400000
13730 7758 15967 1 149.00000 418.400000
12522 7759 16468 1 149.00000 418.400000
13731 7760 15735 1 149.00000 418.400000
12730 7761 16180 1 149.00000 418.400000
13733 7762 13905 1 149.00000 418.400000
13905 7763 19150 1 149.00000 418.400000
13733 7764 15914 1 149.00000 418.400000
11777 7765 16586 1 149.00000 418.400000
13734 7766 15221 1 149.00000 418.400000
13734 7767 14733 1 149.00000 418.400000
13735 7768 14868 1 149.00000 418.400000
14998 7769 21565 1 149.00000 418.400000
14272 7770 21565 1 149.00000 418.400000
13736 7771 16283 1 149.00000 418.400000
13736 7772 21691 1 149.00000 418.400000
11550 7773 13736 1 149.00000 418.400000
14576 7774 15732 1 149.00000 418.400000
13737 7775 14853 1 149.00000 418.400000
13737 7776 15732 1 149.00000 418.400000
13738 7777 13809 1 149.00000 418.400000
13739 7778 16409 1 149.00000 418.400000
13739 7779 14406 1 149.00000 418.400000
13740 7780 15211 1 149.00000 418.400000
13547 7781 14999 1 149.00000 418.400000
13740 7782 16414 1 149.00000 418.400000
13222 7783 19150 1 149.00000 418.400000
14539 7784 16313 1 149.00000 418.400000
14539 7785 19150 1 149.00000 418.400000
13741 7786 14373 1 149.00000 418.400000
13741 7787 15601 1 149.00000 418.400000
13742 7788 14802 1 149.00000 418.400000
13742 7789 16084 1 149.00000 418.400000
13742 7790 16586 1 149.00000 418.400000
13743 7791 15236 1 149.00000 418.400000
13744 7792 15587 1 149.00000 418.400000
13745 7793 15231 1 149.00000 418.400000
13745 7794 16574 1 149.00000 418.400000
13745 7795 14881 1 149.00000 418.400000
13746 7796 16250 1 149.00000 418.400000
13746 7797 14177 1 149.00000 418.400000
13748 7798 16198 1 149.00000 418.400000
13748 7799 14148 1 149.00000 418.400000
19234 7800 21568 1 149.00000 418.400000
13749 7801 15429 1 149.00000 418.400000
13749 7802 16219 1 149.00000 418.400000
13750 7803 14326 1 149.00000 418.400000
13751 7804 15355 1 149.00000 418.400000
18934 7805 20974 1 149.00000 418.400000
16049 7806 20974 1 149.00000 418.400000
13752 7807 21712 1 149.00000 418.400000
13753 7808 15035 1 149.00000 418.400000
13753 7809 13975 1 149.00000 418.400000
13753 7810 14963 1 149.00000 418.400000
13753 7811 15679 1 149.00000 418.400000
14024 7812 16770 1 149.00000 418.400000
16770 7813 17806 1 149.00000 418.400000
13754 7814 15797 1 149.00000 418.400000
13754 7815 13840 1 149.00000 418.400000
13755 7816 15843 1 149.00000 418.400000
13755 7817 15407 1 149.00000 418.400000
19054 7818 21877 1 149.00000 418.400000
15907 7819 19054 1 149.00000 418.400000
12312 7820 15289 1 149.00000 418.400000
13757 7821 15629 1 149.00000 418.400000
13757 7822 15264 1 149.00000 418.400000
13758 7823 14105 1 149.00000 418.400000
13758 7824 16557 1 149.00000 418.400000
13758 7825 15928 1 149.00000 418.400000
13760 7826 16176 1 149.00000 418.400000
13760 7827 16545 1 149.00000 418.400000
13761 7828 16334 1 149.00000 418.400000
13761 7829 16180 1 149.00000 418.400000
13762 7830 16623 1 149.00000 418.400000
13762 7831 15099 1 149.00000 418.400000
16379 7832 16601 1 149.00000 418.400000
13763 7833 16601 1 149.00000 418.400000
13764 7834 14904 1 149.00000 418.400000
13764 7835 15095 1 149.00000 418.400000
13764 7836 14765 1 149.00000 418.400000
13765 7837 14550 1 149.00000 418.400000
13765 7838 14774 1 149.00000 418.400000
13766 7839 14096 1 149.00000 418.400000
13767 7840 14571 1 149.00000 418.400000
13767 7841 13868 1 149.00000 418.400000
21571 7842 21646 1 149.00000 418.400000
19126 7843 21850 1 149.00000 418.400000
13794 7844 19126 1 149.00000 418.400000
16264 7845 19126 1 149.00000 418.400000
13768 7846 14781 1 149.00000 418.400000
13768 7847 13769 1 149.00000 418.400000
13769 7848 14649 1 149.00000 418.400000
13769 7849 15565 1 149.00000 418.400000
13770 7850 14684 1 149.00000 418.400000
15657 7851 20710 1 149.00000 418.400000
13770 7852 15657 1 149.00000 418.400000
13771 7853 16034 1 149.00000 418.400000
13772 7854 15325 1 149.00000 418.400000
13772 7855 13798 1 149.00000 418.400000
13773 7856 15678 1 149.00000 418.400000
13773 7857 14403 1 149.00000 418.400000
13773 7858 16153 1 149.00000 418.400000
13774 7859 13898 1 149.00000 418.400000
13775 7860 13937 1 149.00000 418.400000
13775 7861 15809 1 149.00000 418.400000
13776 7862 14702 1 149.00000 418.400000
13776 7863 16301 1 149.00000 418.400000
13776 7864 16583 1 149.00000 418.400000
13197 7865 13777 1 149.00000 418.400000
13777 7866 14555 1 149.00000 418.400000
13777 7867 14387 1 149.00000 418.400000
13777 7868 16540 1 149.00000 418.400000
13779 7869 16182 1 149.00000 418.400000
13779 7870 13826 1 149.00000 418.400000
13780 7871 15405 1 149.00000 418.400000
13780 7872 14517 1 149.00000 418.400000
13781 7873 15562 1 149.00000 418.400000
13781 7874 16106 1 149.00000 418.400000
13782 7875 14664 1 149.00000 418.400000
13782 7876 14086 1 149.00000 418.400000
13782 7877 15965 1 149.00000 418.400000
13350 7878 13783 1 149.00000 418.400000
13783 7879 15592 1 149.00000 418.400000
13783 7880 16255 1 149.00000 418.400000
13784 7881 15976 1 149.00000 418.400000
13784 7882 16277 1 149.00000 418.400000
13785 7883 15190 1 149.00000 418.400000
13785 7884 15619 1 149.00000 418.400000
13785 7885 13875 1 149.00000 418.400000
13786 7886 15829 1 149.00000 418.400000
13786 7887 15878 1 149.00000 418.400000
13786 7888 15134 1 149.00000 418.400000
13787 7889 16440 1 149.00000 418.400000
13787 7890 16033 1 149.00000 418.400000
13787 7891 14751 1 149.00000 418.400000
13788 7892 14237 1 149.00000 418.400000
13788 7893 15219 1 149.00000 418.400000
13788 7894 13807 1 149.00000 418.400000
13789 7895 16097 1 149.00000 418.400000
13789 7896 16153 1 149.00000 418.400000
13789 7897 20194 1 149.00000 418.400000
13790 7898 14386 1 149.00000 418.400000
13790 7899 14731 1 149.00000 418.400000
13790 7900 15613 1 149.00000 418.400000
13791 7901 14520 1 149.00000 418.400000
13792 7902 16343 1 149.00000 418.400000
13792 7903 14286 1 149.00000 418.400000
13793 7904 16199 1 149.00000 418.400000
13793 7905 14160 1 149.00000 418.400000
13795 7906 14647 1 149.00000 418.400000
13795 7907 14111 1 149.00000 418.400000
18634 7908 19366 1 149.00000 418.400000
13796 7909 16358 1 149.00000 418.400000
13796 7910 13936 1 149.00000 418.400000
13797 7911 16368 1 149.00000 418.400000
13797 7912 15039 1 149.00000 418.400000
13798 7913 14016 1 149.00000 418.400000
13798 7914 14816 1 149.00000 418.400000
13798 7915 16071 1 149.00000 418.400000
13799 7916 16231 1 149.00000 418.400000
13799 7917 16020 1 149.00000 418.400000
13800 7918 15330 1 149.00000 418.400000
13800 7919 14520 1 149.00000 418.400000
13800 7920 15639 1 149.00000 418.400000
13801 7921 14911 1 149.00000 418.400000
13801 7922 14267 1 149.00000 418.400000
13802 7923 15105 1 149.00000 418.400000
13802 7924 16094 1 149.00000 418.400000
13802 7925 13859 1 149.00000 418.400000
13803 7926 15507 1 149.00000 418.400000
13804 7927 16589 1 149.00000 418.400000
13804 7928 14341 1 149.00000 418.400000
13805 7929 16410 1 149.00000 418.400000
13805 7930 15304 1 149.00000 418.400000
13805 7931 13871 1 149.00000 418.400000
16021 7932 18502 1 149.00000 418.400000
18502 7933 20350 1 149.00000 418.400000
13806 7934 16273 1 149.00000 418.400000
13806 7935 15753 1 149.00000 418.400000
13806 7936 14331 1 149.00000 418.400000
13807 7937 15818 1 149.00000 418.400000
13807 7938 14191 1 149.00000 418.400000
13807 7939 14865 1 149.00000 418.400000
13808 7940 16514 1 149.00000 418.400000
13808 7941 14771 1 149.00000 418.400000
13809 7942 15314 1 149.00000 418.400000
13810 7943 14127 1 149.00000 418.400000
13810 7944 15924 1 149.00000 418.400000
14722 7945 21574 1 149.00000 418.400000
13811 7946 14409 1 149.00000 418.400000
13811 7947 15530 1 149.00000 418.400000
13811 7948 13993 1 149.00000 418.400000
13812 7949 15943 1 149.00000 418.400000
13813 7950 15139 1 149.00000 418.400000
13814 7951 16348 1 149.00000 418.400000
13814 7952 15203 1 149.00000 418.400000
12904 7953 13814 1 149.00000 418.400000
13815 7954 16449 1 149.00000 418.400000
13816 7955 16422 1 149.00000 418.400000
21577 7956 21844 1 149.00000 418.400000
13817 7957 16346 1 149.00000 418.400000
13817 7958 14284 1 149.00000 418.400000
13817 7959 15480 1 149.00000 418.400000
13818 7960 15150 1 149.00000 418.400000
13818 7961 16461 1 149.00000 418.400000
13819 7962 16541 1 149.00000 418.400000
13820 7963 15895 1 149.00000 418.400000
13820 7964 15630 1 149.00000 418.400000
13820 7965 16120 1 149.00000 418.400000
13820 7966 15511 1 149.00000 418.400000
13821 7967 15547 1 149.00000 418.400000
13821 7968 14026 1 149.00000 418.400000
13823 7969 15162 1 149.00000 418.400000
13823 7970 15211 1 149.00000 418.400000
13823 7971 14940 1 149.00000 418.400000
16445 7972 16482 1 149.00000 418.400000
14624 7973 16445 1 149.00000 418.400000
13824 7974 16445 1 149.00000 418.400000
13825 7975 15877 1 149.00000 418.400000
13825 7976 14703 1 149.00000 418.400000
13826 7977 14509 1 149.00000 418.400000
13827 7978 18622 1 149.00000 418.400000
13827 7979 15628 1 149.00000 418.400000
13827 7980 18030 1 149.00000 418.400000
13828 7981 19030 1 149.00000 418.400000
13829 7982 16216 1 149.00000 418.400000
13829 7983 15728 1 149.00000 418.400000
13830 7984 16546 1 149.00000 418.400000
13830 7985 14758 1 149.00000 418.400000
13831 7986 14984 1 149.00000 418.400000
13831 7987 15579 1 149.00000 418.400000
13831 7988 16505 1 149.00000 418.400000
13832 7989 14295 1 149.00000 418.400000
13832 7990 21118 1 149.00000 418.400000
13832 7991 21928 1 149.00000 418.400000
13833 7992 15349 1 149.00000 418.400000
13833 7993 14387 1 149.00000 418.400000
13834 7994 15945 1 149.00000 418.400000
13835 7995 14906 1 149.00000 418.400000
13835 7996 14837 1 149.00000 418.400000
13835 7997 15774 1 149.00000 418.400000
13836 7998 16004 1 149.00000 418.400000
13836 7999 14081 1 149.00000 418.400000
13836 8000 14776 1 149.00000 418.400000
13838 8001 14548 1 149.00000 418.400000
13838 8002 14588 1 149.00000 418.400000
13838 8003 15841 1 149.00000 418.400000
13839 8004 14962 1 149.00000 418.400000
13839 8005 15201 1 149.00000 418.400000
13839 8006 16062 1 149.00000 418.400000
13839 8007 14082 1 149.00000 418.400000
13840 8008 15682 1 149.00000 418.400000
13840 8009 14630 1 149.00000 418.400000
13841 8010 14004 1 149.00000 418.400000
13841 8011 20014 1 149.00000 418.400000
13842 8012 15839 1 149.00000 418.400000
13842 8013 16331 1 149.00000 418.400000
13623 8014 13843 1 149.00000 418.400000
13844 8015 16266 1 149.00000 418.400000
13844 8016 14310 1 149.00000 418.400000
13844 8017 16560 1 149.00000 418.400000
13844 8018 14801 1 149.00000 418.400000
13845 8019 15508 1 149.00000 418.400000
13845 8020 16537 1 149.00000 418.400000
13845 8021 14440 1 149.00000 418.400000
13141 8022 13845 1 149.00000 418.400000
13846 8023 15391 1 149.00000 418.400000
13846 8024 14931 1 149.00000 418.400000
13847 8025 16460 1 149.00000 418.400000
13847 8026 15913 1 149.00000 418.400000
13847 8027 15355 1 149.00000 418.400000
13848 8028 16304 1 149.00000 418.400000
13849 8029 13976 1 149.00000 418.400000
13849 8030 16565 1 149.00000 418.400000
13849 8031 14190 1 149.00000 418.400000
13849 8032 15823 1 149.00000 418.400000
13850 8033 14374 1 149.00000 418.400000
13850 8034 14409 1 149.00000 418.400000
13850 8035 14877 1 149.00000 418.400000
13851 8036 14500 1 149.00000 418.400000
13851 8037 15152 1 149.00000 418.400000
13852 8038 15711 1 149.00000 418.400000
13852 8039 15600 1 149.00000 418.400000
13853 8040 15333 1 149.00000 418.400000
13853 8041 14112 1 149.00000 418.400000
13854 8042 13956 1 149.00000 418.400000
17498 8043 19618 1 149.00000 418.400000
19618 8044 21802 1 149.00000 418.400000
13855 8045 18352 1 149.00000 418.400000
13856 8046 16420 1 149.00000 418.400000
13857 8047 15747 1 149.00000 418.400000
13857 8048 15751 1 149.00000 418.400000
13858 8049 15171 1 149.00000 418.400000
13858 8050 15863 1 149.00000 418.400000
13859 8051 14434 1 149.00000 418.400000
13859 8052 13910 1 149.00000 418.400000
13861 8053 15335 1 149.00000 418.400000
13861 8054 20074 1 149.00000 418.400000
13862 8055 15028 1 149.00000 418.400000
13862 8056 14442 1 149.00000 418.400000
11783 8057 13862 1 149.00000 418.400000
19990 8058 21583 1 149.00000 418.400000
15420 8059 21583 1 149.00000 418.400000
13863 8060 15414 1 149.00000 418.400000
13863 8061 14659 1 149.00000 418.400000
13864 8062 14829 1 149.00000 418.400000
13865 8063 15813 1 149.00000 418.400000
13866 8064 16079 1 149.00000 418.400000
13866 8065 16179 1 149.00000 418.400000
13866 8066 14435 1 149.00000 418.400000
15944 8067 16784 1 149.00000 418.400000
13867 8068 14104 1 149.00000 418.400000
13867 8069 15512 1 149.00000 418.400000
13868 8070 15114 1 149.00000 418.400000
13868 8071 14329 1 149.00000 418.400000
13869 8072 15506 1 149.00000 418.400000
13870 8073 16399 1 149.00000 418.400000
13871 8074 15120 1 149.00000 418.400000
13872 8075 14264 1 149.00000 418.400000
13872 8076 15006 1 149.00000 418.400000
13872 8077 15689 1 149.00000 418.400000
13873 8078 14066 1 149.00000 418.400000
13873 8079 15214 1 149.00000 418.400000
13873 8080 14891 1 149.00000 418.400000
16613 8081 19318 1 149.00000 418.400000
13874 8082 15467 1 149.00000 418.400000
13874 8083 15056 1 149.00000 418.400000
13514 8084 14298 1 149.00000 418.400000
13875 8085 15298 1 149.00000 418.400000
13875 8086 14739 1 149.00000 418.400000
13876 8087 15221 1 149.00000 418.400000
13876 8088 15164 1 149.00000 418.400000
13877 8089 14497 1 149.00000 418.400000
12600 8090 13877 1 149.00000 418.400000
19138 8091 19522 1 149.00000 418.400000
14820 8092 19522 1 149.00000 418.400000
19522 8093 22004 1 149.00000 418.400000
13878 8094 14237 1 149.00000 418.400000
13878 8095 17834 1 149.00000 418.400000
13879 8096 15772 1 149.00000 418.400000
13879 8097 17890 1 149.00000 418.400000
13880 8098 16088 1 149.00000 418.400000
15660 8099 16006 1 149.00000 418.400000
13880 8100 14092 1 149.00000 418.400000
13880 8101 16006 1 149.00000 418.400000
13881 8102 14863 1 149.00000 418.400000
13881 8103 15988 1 149.00000 418.400000
13881 8104 13988 1 149.00000 418.400000
14404 8105 15786 1 149.00000 418.400000
13883 8106 14404 1 149.00000 418.400000
13885 8107 15698 1 149.00000 418.400000
13886 8108 14800 1 149.00000 418.400000
13886 8109 15970 1 149.00000 418.400000
13886 8110 16436 1 149.00000 418.400000
13887 8111 21703 1 149.00000 418.400000
13887 8112 15966 1 149.00000 418.400000
13888 8113 15429 1 149.00000 418.400000
13888 8114 13896 1 149.00000 418.400000
12206 8115 15323 1 149.00000 418.400000
13889 8116 16478 1 149.00000 418.400000
13890 8117 15169 1 149.00000 418.400000
13890 8118 15419 1 149.00000 418.400000
13891 8119 16174 1 149.00000 418.400000
13891 8120 15844 1 149.00000 418.400000
13891 8121 16104 1 149.00000 418.400000
13499 8122 13892 1 149.00000 418.400000
13893 8123 16066 1 149.00000 418.400000
13893 8124 16242 1 149.00000 418.400000
13894 8125 14106 1 149.00000 418.400000
13894 8126 16140 1 149.00000 418.400000
13895 8127 16505 1 149.00000 418.400000
13895 8128 15427 1 149.00000 418.400000
13895 8129 14300 1 149.00000 418.400000
13896 8130 16219 1 149.00000 418.400000
13896 8131 14562 1 149.00000 418.400000
13897 8132 14641 1 149.00000 418.400000
13897 8133 16417 1 149.00000 418.400000
13898 8134 15060 1 149.00000 418.400000
13898 8135 15047 1 149.00000 418.400000
13899 8136 13922 1 149.00000 418.400000
13899 8137 14705 1 149.00000 418.400000
13899 8138 15706 1 149.00000 418.400000
13900 8139 16315 1 149.00000 418.400000
13900 8140 15578 1 149.00000 418.400000
13900 8141 15403 1 149.00000 418.400000
15995 8142 21586 1 149.00000 418.400000
13901 8143 14949 1 149.00000 418.400000
13901 8144 14977 1 149.00000 418.400000
13902 8145 16194 1 149.00000 418.400000
13903 8146 14937 1 149.00000 418.400000
13903 8147 16202 1 149.00000 418.400000
14354 8148 16017 1 149.00000 418.400000
13904 8149 16017 1 149.00000 418.400000
13733 8150 15777 1 149.00000 418.400000
13906 8151 14031 1 149.00000 418.400000
13906 8152 15582 1 149.00000 418.400000
14909 8153 19294 1 149.00000 418.400000
13907 8154 15110 1 149.00000 418.400000
13907 8155 15247 1 149.00000 418.400000
15110 8156 15575 1 149.00000 418.400000
13907 8157 14385 1 149.00000 418.400000
13908 8158 14834 1 149.00000 418.400000
13908 8159 16463 1 149.00000 418.400000
13909 8160 16622 1 149.00000 418.400000
11740 8161 14614 1 149.00000 418.400000
11740 8162 13909 1 149.00000 418.400000
13910 8163 14068 1 149.00000 418.400000
13910 8164 15942 1 149.00000 418.400000
13911 8165 15431 1 149.00000 418.400000
11735 8166 16267 1 149.00000 418.400000
13912 8167 16287 1 149.00000 418.400000
13913 8168 14484 1 149.00000 418.400000
13914 8169 14934 1 149.00000 418.400000
13914 8170 16265 1 149.00000 418.400000
13914 8171 14089 1 149.00000 418.400000
15288 8172 20062 1 149.00000 418.400000
17078 8173 20062 1 149.00000 418.400000
15697 8174 20062 1 149.00000 418.400000
13915 8175 14192 1 149.00000 418.400000
13915 8176 15092 1 149.00000 418.400000
13915 8177 15004 1 149.00000 418.400000
13915 8178 14925 1 149.00000 418.400000
13916 8179 15726 1 149.00000 418.400000
13916 8180 14938 1 149.00000 418.400000
13916 8181 14682 1 149.00000 418.400000
13916 8182 15312 1 149.00000 418.400000
13917 8183 15959 1 149.00000 418.400000
13917 8184 14701 1 149.00000 418.400000
13918 8185 15875 1 149.00000 418.400000
13919 8186 13978 1 149.00000 418.400000
13919 8187 16343 1 149.00000 418.400000
13919 8188 15571 1 149.00000 418.400000
13920 8189 15116 1 149.00000 418.400000
13920 8190 14932 1 149.00000 418.400000
13920 8191 15068 1 149.00000 418.400000
13921 8192 14477 1 149.00000 418.400000
13921 8193 14037 1 149.00000 418.400000
13921 8194 15002 1 149.00000 418.400000
13922 8195 14960 1 149.00000 418.400000
13922 8196 14319 1 149.00000 418.400000
13923 8197 15430 1 149.00000 418.400000
20122 8198 20182 1 149.00000 418.400000
13924 8199 13948 1 149.00000 418.400000
13924 8200 15128 1 149.00000 418.400000
13924 8201 16252 1 149.00000 418.400000
13925 8202 15353 1 149.00000 418.400000
13926 8203 14529 1 149.00000 418.400000
13926 8204 14478 1 149.00000 418.400000
13927 8205 16305 1 149.00000 418.400000
13927 8206 16518 1 149.00000 418.400000
13927 8207 15675 1 149.00000 418.400000
13928 8208 16078 1 149.00000 418.400000
13928 8209 16003 1 149.00000 418.400000
13929 8210 16507 1 149.00000 418.400000
12398 8211 14150 1 149.00000 418.400000
19942 8212 21394 1 149.00000 418.400000
13931 8213 20074 1 149.00000 418.400000
13932 8214 15593 1 149.00000 418.400000
13932 8215 14677 1 149.00000 418.400000
14485 8216 16530 1 149.00000 418.400000
13933 8217 14485 1 149.00000 418.400000
13934 8218 16390 1 149.00000 418.400000
13934 8219 14761 1 149.00000 418.400000
13935 8220 15668 1 149.00000 418.400000
13936 8221 15843 1 149.00000 418.400000
13937 8222 15692 1 149.00000 418.400000
13938 8223 15684 1 149.00000 418.400000
13938 8224 15223 1 149.00000 418.400000
13938 8225 16603 1 149.00000 418.400000
13939 8226 16193 1 149.00000 418.400000
13939 8227 14168 1 149.00000 418.400000
13939 8228 16226 1 149.00000 418.400000
13941 8229 15386 1 149.00000 418.400000
13941 8230 16562 1 149.00000 418.400000
13941 8231 14131 1 149.00000 418.400000
13941 8232 14643 1 149.00000 418.400000
13942 8233 15968 1 149.00000 418.400000
13942 8234 15704 1 149.00000 418.400000
13943 8235 14766 1 149.00000 418.400000
13943 8236 16164 1 149.00000 418.400000
20830 8237 21589 1 149.00000 418.400000
13944 8238 16512 1 149.00000 418.400000
13944 8239 15587 1 149.00000 418.400000
14717 8240 16404 1 149.00000 418.400000
13945 8241 15001 1 149.00000 418.400000
13945 8242 16404 1 149.00000 418.400000
13946 8243 14928 1 149.00000 418.400000
13946 8244 14105 1 149.00000 418.400000
13946 8245 15541 1 149.00000 418.400000
13947 8246 14925 1 149.00000 418.400000
15475 8247 19234 1 149.00000 418.400000
13948 8248 14299 1 149.00000 418.400000
13949 8249 15424 1 149.00000 418.400000
13949 8250 16122 1 149.00000 418.400000
13949 8251 14997 1 149.00000 418.400000
13949 8252 14325 1 149.00000 418.400000
13950 8253 15865 1 149.00000 418.400000
13950 8254 14429 1 149.00000 418.400000
13950 8255 16595 1 149.00000 418.400000
13951 8256 15554 1 149.00000 418.400000
13951 8257 14059 1 149.00000 418.400000
13951 8258 14396 1 149.00000 418.400000
15649 8259 17778 1 149.00000 418.400000
13952 8260 15448 1 149.00000 418.400000
13952 8261 15222 1 149.00000 418.400000
15972 8262 21592 1 149.00000 418.400000
13953 8263 14417 1 149.00000 418.400000
13953 8264 15610 1 149.00000 418.400000
15348 8265 17148 1 149.00000 418.400000
13954 8266 16013 1 149.00000 418.400000
13954 8267 16117 1 149.00000 418.400000
13954 8268 16614 1 149.00000 418.400000
13955 8269 15030 1 149.00000 418.400000
13955 8270 16140 1 149.00000 418.400000
13955 8271 14316 1 149.00000 418.400000
13956 8272 15822 1 149.00000 418.400000
13957 8273 16625 1 149.00000 418.400000
13958 8274 16081 1 149.00000 418.400000
13959 8275 19930 1 149.00000 418.400000
16012 8276 17484 1 149.00000 418.400000
13246 8277 14524 1 149.00000 418.400000
13960 8278 15311 1 149.00000 418.400000
13246 8279 15005 1 149.00000 418.400000
13961 8280 16296 1 149.00000 418.400000
13962 8281 16186 1 149.00000 418.400000
13962 8282 14318 1 149.00000 418.400000
14318 8283 14758 1 149.00000 418.400000
13963 8284 15793 1 149.00000 418.400000
13963 8285 14270 1 149.00000 418.400000
13963 8286 15023 1 149.00000 418.400000
13963 8287 14170 1 149.00000 418.400000
15101 8288 17652 1 149.00000 418.400000
17652 8289 18114 1 149.00000 418.400000
13964 8290 20410 1 149.00000 418.400000
13964 8291 16558 1 149.00000 418.400000
13965 8292 15488 1 149.00000 418.400000
13965 8293 14420 1 149.00000 418.400000
21166 8294 21460 1 149.00000 418.400000
13966 8295 16153 1 149.00000 418.400000
13966 8296 18016 1 149.00000 418.400000
13967 8297 14590 1 149.00000 418.400000
19690 8298 21598 1 149.00000 418.400000
13968 8299 14988 1 149.00000 418.400000
13968 8300 14614 1 149.00000 418.400000
13968 8301 15475 1 149.00000 418.400000
13969 8302 14871 1 149.00000 418.400000
13969 8303 16235 1 149.00000 418.400000
13969 8304 16039 1 149.00000 418.400000
13970 8305 15658 1 149.00000 418.400000
13970 8306 14639 1 149.00000 418.400000
13971 8307 14225 1 149.00000 418.400000
13971 8308 16304 1 149.00000 418.400000
13972 8309 15321 1 149.00000 418.400000
13972 8310 16464 1 149.00000 418.400000
13972 8311 16320 1 149.00000 418.400000
13973 8312 16598 1 149.00000 418.400000
13973 8313 15392 1 149.00000 418.400000
12989 8314 16318 1 149.00000 418.400000
14855 8315 15392 1 149.00000 418.400000
13974 8316 15791 1 149.00000 418.400000
13974 8317 15232 1 149.00000 418.400000
13974 8318 14094 1 149.00000 418.400000
13974 8319 16489 1 149.00000 418.400000
13975 8320 14472 1 149.00000 418.400000
13976 8321 16157 1 149.00000 418.400000
13976 8322 14369 1 149.00000 418.400000
13977 8323 14640 1 149.00000 418.400000
13977 8324 14605 1 149.00000 418.400000
13978 8325 15107 1 149.00000 418.400000
13978 8326 16335 1 149.00000 418.400000
13979 8327 14788 1 149.00000 418.400000
13979 8328 15807 1 149.00000 418.400000
13979 8329 15433 1 149.00000 418.400000
12127 8330 13979 1 149.00000 418.400000
13980 8331 15049 1 149.00000 418.400000
13980 8332 16469 1 149.00000 418.400000
13981 8333 16205 1 149.00000 418.400000
13981 8334 14273 1 149.00000 418.400000
13981 8335 16260 1 149.00000 418.400000
13982 8336 16595 1 149.00000 418.400000
13982 8337 15577 1 149.00000 418.400000
13982 8338 14084 1 149.00000 418.400000
13982 8339 15005 1 149.00000 418.400000
13983 8340 14573 1 149.00000 418.400000
13983 8341 15479 1 149.00000 418.400000
13984 8342 14898 1 149.00000 418.400000
13985 8343 14077 1 149.00000 418.400000
13985 8344 15813 1 149.00000 418.400000
13985 8345 15841 1 149.00000 418.400000
13986 8346 16265 1 149.00000 418.400000
13986 8347 16492 1 149.00000 418.400000
13987 8348 15427 1 149.00000 418.400000
13987 8349 15148 1 149.00000 418.400000
13987 8350 15439 1 149.00000 418.400000
13989 8351 15192 1 149.00000 418.400000
13989 8352 16263 1 149.00000 418.400000
13989 8353 14070 1 149.00000 418.400000
15450 8354 21601 1 149.00000 418.400000
13990 8355 15021 1 149.00000 418.400000
13990 8356 14544 1 149.00000 418.400000
13991 8357 14530 1 149.00000 418.400000
13991 8358 16248 1 149.00000 418.400000
13992 8359 15141 1 149.00000 418.400000
13992 8360 14341 1 149.00000 418.400000
13992 8361 18514 1 149.00000 418.400000
13993 8362 14861 1 149.00000 418.400000
13994 8363 17372 1 149.00000 418.400000
13994 8364 15601 1 149.00000 418.400000
13994 8365 16367 1 149.00000 418.400000
13995 8366 14386 1 149.00000 418.400000
13995 8367 14023 1 149.00000 418.400000
13996 8368 20098 1 149.00000 418.400000
13996 8369 14028 1 149.00000 418.400000
13996 8370 14416 1 149.00000 418.400000
14217 8371 20998 1 149.00000 418.400000
13997 8372 21154 1 149.00000 418.400000
16283 8373 21589 1 149.00000 418.400000
13998 8374 16181 1 149.00000 418.400000
13998 8375 15180 1 149.00000 418.400000
16023 8376 20434 1 149.00000 418.400000
13999 8377 14502 1 149.00000 418.400000
14000 8378 16051 1 149.00000 418.400000
14001 8379 15819 1 149.00000 418.400000
14001 8380 16364 1 149.00000 418.400000
14343 8381 21604 1 149.00000 418.400000
14002 8382 16580 1 149.00000 418.400000
11695 8383 14002 1 149.00000 418.400000
14003 8384 14908 1 149.00000 418.400000
14004 8385 14306 1 149.00000 418.400000
14005 8386 14128 1 149.00000 418.400000
14005 8387 16005 1 149.00000 418.400000
14005 8388 15224 1 149.00000 418.400000
14006 8389 14468 1 149.00000 418.400000
14007 8390 15130 1 149.00000 418.400000
14007 8391 15284 1 149.00000 418.400000
14008 8392 14556 1 149.00000 418.400000
14008 8393 15543 1 149.00000 418.400000
14009 8394 16569 1 149.00000 418.400000
14009 8395 14400 1 149.00000 418.400000
14009 8396 14981 1 149.00000 418.400000
14010 8397 14358 1 149.00000 418.400000
14010 8398 16400 1 149.00000 418.400000
14011 8399 15849 1 149.00000 418.400000
14011 8400 15183 1 149.00000 418.400000
14012 8401 16439 1 149.00000 418.400000
14012 8402 16059 1 149.00000 418.400000
14014 8403 16095 1 149.00000 418.400000
14694 8404 18934 1 149.00000 418.400000
18934 8405 21838 1 149.00000 418.400000
14016 8406 16579 1 149.00000 418.400000
14016 8407 18946 1 149.00000 418.400000
14017 8408 15364 1 149.00000 418.400000
14017 8409 15174 1 149.00000 418.400000
14017 8410 14569 1 149.00000 418.400000
14018 8411 15878 1 149.00000 418.400000
17344 8412 20662 1 149.00000 418.400000
14019 8413 18406 1 149.00000 418.400000
14019 8414 14086 1 149.00000 418.400000
14020 8415 15077 1 149.00000 418.400000
14020 8416 15669 1 149.00000 418.400000
14020 8417 15910 1 149.00000 418.400000
14021 8418 15317 1 149.00000 418.400000
14021 8419 14178 1 149.00000 418.400000
14021 8420 16264 1 149.00000 418.400000
12797 8421 15377 1 149.00000 418.400000
14022 8422 14658 1 149.00000 418.400000
14023 8423 15754 1 149.00000 418.400000
14023 8424 14365 1 149.00000 418.400000
14023 8425 15372 1 149.00000 418.400000
14787 8426 16365 1 149.00000 418.400000
14024 8427 16365 1 149.00000 418.400000
14575 8428 16365 1 149.00000 418.400000
16052 8429 16324 1 149.00000 418.400000
14025 8430 14769 1 149.00000 418.400000
14025 8431 16324 1 149.00000 418.400000
14026 8432 16321 1 149.00000 418.400000
14026 8433 15202 1 149.00000 418.400000
14027 8434 16267 1 149.00000 418.400000
14027 8435 15236 1 149.00000 418.400000
15378 8436 16267 1 149.00000 418.400000
14971 8437 15623 1 149.00000 418.400000
14028 8438 21709 1 149.00000 418.400000
14028 8439 15623 1 149.00000 418.400000
14029 8440 15777 1 149.00000 418.400000
14029 8441 14532 1 149.00000 418.400000
14030 8442 15329 1 149.00000 418.400000
14031 8443 14807 1 149.00000 418.400000
14032 8444 20134 1 149.00000 418.400000
14033 8445 14066 1 149.00000 418.400000
14033 8446 16155 1 149.00000 418.400000
14033 8447 14886 1 149.00000 418.400000
14034 8448 15196 1 149.00000 418.400000
14034 8449 15790 1 149.00000 418.400000
15790 8450 15911 1 149.00000 418.400000
14035 8451 16158 1 149.00000 418.400000
14035 8452 14501 1 149.00000 418.400000
14035 8453 15351 1 149.00000 418.400000
16158 8454 16211 1 149.00000 418.400000
14036 8455 15031 1 149.00000 418.400000
11608 8456 15527 1 149.00000 418.400000
14038 8457 15699 1 149.00000 418.400000
14038 8458 15198 1 149.00000 418.400000
15794 8459 17456 1 149.00000 418.400000
14039 8460 16373 1 149.00000 418.400000
14406 8461 16373 1 149.00000 418.400000
14040 8462 15286 1 149.00000 418.400000
14040 8463 14682 1 149.00000 418.400000
14040 8464 15228 1 149.00000 418.400000
14041 8465 14707 1 149.00000 418.400000
14041 8466 15567 1 149.00000 418.400000
14042 8467 16542 1 149.00000 418.400000
14043 8468 15202 1 149.00000 418.400000
13648 8469 14043 1 149.00000 418.400000
14043 8470 16133 1 149.00000 418.400000
14043 8471 15441 1 149.00000 418.400000
14044 8472 16053 1 149.00000 418.400000
16276 8473 18574 1 149.00000 418.400000
15210 8474 18574 1 149.00000 418.400000
14046 8475 15018 1 149.00000 418.400000
14047 8476 14140 1 149.00000 418.400000
14047 8477 15946 1 149.00000 418.400000
14048 8478 15061 1 149.00000 418.400000
14048 8479 16575 1 149.00000 418.400000
14048 8480 16556 1 149.00000 418.400000
14049 8481 14540 1 149.00000 418.400000
14049 8482 15412 1 149.00000 418.400000
14050 8483 21679 1 149.00000 418.400000
14051 8484 14137 1 149.00000 418.400000
14051 8485 14907 1 149.00000 418.400000
14052 8486 16136 1 149.00000 418.400000
14052 8487 14886 1 149.00000 418.400000
14052 8488 16422 1 149.00000 418.400000
14053 8489 14931 1 149.00000 418.400000
14053 8490 16082 1 149.00000 418.400000
14053 8491 14816 1 149.00000 418.400000
15956 8492 21607 1 149.00000 418.400000
14054 8493 21763 1 149.00000 418.400000
14054 8494 14968 1 149.00000 418.400000
14055 8495 16140 1 149.00000 418.400000
14055 8496 14800 1 149.00000 418.400000
15256 8497 21832 1 149.00000 418.400000
14056 8498 15607 1 149.00000 418.400000
14405 8499 15256 1 149.00000 418.400000
14056 8500 15256 1 149.00000 418.400000
14428 8501 18030 1 149.00000 418.400000
14057 8502 14721 1 149.00000 418.400000
14057 8503 14408 1 149.00000 418.400000
14057 8504 14157 1 149.00000 418.400000
12179 8505 15485 1 149.00000 418.400000
12179 8506 14074 1 149.00000 418.400000
14059 8507 15273 1 149.00000 418.400000
14060 8508 15516 1 149.00000 418.400000
14060 8509 15991 1 149.00000 418.400000
14060 8510 15444 1 149.00000 418.400000
21610 8511 21937 1 149.00000 418.400000
15647 8512 21610 1 149.00000 418.400000
14062 8513 15172 1 149.00000 418.400000
14063 8514 15706 1 149.00000 418.400000
14063 8515 14897 1 149.00000 418.400000
14063 8516 16489 1 149.00000 418.400000
14064 8517 16402 1 149.00000 418.400000
14065 8518 16610 1 149.00000 418.400000
14066 8519 15224 1 149.00000 418.400000
16330 8520 19270 1 149.00000 418.400000
14067 8521 14669 1 149.00000 418.400000
14067 8522 16056 1 149.00000 418.400000
14068 8523 14908 1 149.00000 418.400000
14068 8524 16605 1 149.00000 418.400000
11434 8525 14448 1 149.00000 418.400000
11434 8526 14728 1 149.00000 418.400000
11434 8527 14314 1 149.00000 418.400000
14070 8528 14140 1 149.00000 418.400000
14070 8529 14742 1 149.00000 418.400000
14071 8530 14346 1 149.00000 418.400000
14071 8531 15861 1 149.00000 418.400000
14072 8532 16332 1 149.00000 418.400000
14072 8533 15457 1 149.00000 418.400000
14072 8534 16418 1 149.00000 418.400000
14073 8535 15985 1 149.00000 418.400000
14073 8536 15334 1 149.00000 418.400000
14073 8537 16295 1 149.00000 418.400000
14074 8538 16220 1 149.00000 418.400000
14074 8539 14413 1 149.00000 418.400000
14075 8540 16168 1 149.00000 418.400000
14075 8541 15597 1 149.00000 418.400000
14075 8542 16498 1 149.00000 418.400000
14076 8543 14865 1 149.00000 418.400000
14076 8544 15998 1 149.00000 418.400000
14076 8545 14191 1 149.00000 418.400000
14077 8546 15341 1 149.00000 418.400000
14078 8547 15164 1 149.00000 418.400000
14078 8548 15587 1 149.00000 418.400000
14078 8549 14315 1 149.00000 418.400000
15937 8550 17358 1 149.00000 418.400000
14079 8551 14852 1 149.00000 418.400000
14079 8552 15190 1 149.00000 418.400000
14079 8553 14739 1 149.00000 418.400000
14081 8554 16527 1 149.00000 418.400000
14081 8555 14114 1 149.00000 418.400000
14082 8556 16396 1 149.00000 418.400000
14082 8557 16485 1 149.00000 418.400000
14083 8558 15021 1 149.00000 418.400000
14083 8559 16379 1 149.00000 418.400000
14084 8560 15994 1 149.00000 418.400000
14084 8561 16110 1 149.00000 418.400000
14085 8562 15565 1 149.00000 418.400000
14086 8563 16398 1 149.00000 418.400000
14087 8564 16400 1 149.00000 418.400000
14087 8565 15365 1 149.00000 418.400000
14088 8566 16115 1 149.00000 418.400000
14089 8567 15222 1 149.00000 418.400000
14090 8568 14651 1 149.00000 418.400000
14090 8569 21871 1 149.00000 418.400000
14091 8570 15282 1 149.00000 418.400000
14091 8571 16589 1 149.00000 418.400000
14091 8572 15814 1 149.00000 418.400000
14093 8573 14481 1 149.00000 418.400000
14093 8574 16063 1 149.00000 418.400000
14094 8575 15305 1 149.00000 418.400000
14095 8576 16392 1 149.00000 418.400000
14095 8577 15855 1 149.00000 418.400000
14095 8578 16427 1 149.00000 418.400000
14095 8579 14172 1 149.00000 418.400000
14096 8580 15751 1 149.00000 418.400000
11806 8581 14096 1 149.00000 418.400000
14097 8582 15314 1 149.00000 418.400000
14098 8583 16063 1 149.00000 418.400000
14098 8584 15588 1 149.00000 418.400000
11636 8585 14098 1 149.00000 418.400000
14099 8586 15083 1 149.00000 418.400000
14099 8587 15286 1 149.00000 418.400000
14100 8588 16126 1 149.00000 418.400000
14100 8589 15573 1 149.00000 418.400000
14101 8590 15661 1 149.00000 418.400000
14101 8591 15146 1 149.00000 418.400000
14101 8592 15500 1 149.00000 418.400000
12867 8593 14649 1 149.00000 418.400000
14102 8594 14142 1 149.00000 418.400000
14102 8595 16420 1 149.00000 418.400000
14103 8596 15715 1 149.00000 418.400000
14103 8597 15796 1 149.00000 418.400000
14103 8598 16123 1 149.00000 418.400000
14104 8599 15092 1 149.00000 418.400000
14104 8600 15563 1 149.00000 418.400000
14104 8601 20146 1 149.00000 418.400000
14105 8602 14797 1 149.00000 418.400000
14105 8603 16361 1 149.00000 418.400000
14107 8604 15166 1 149.00000 418.400000
14108 8605 16407 1 149.00000 418.400000
14108 8606 16195 1 149.00000 418.400000
14108 8607 16496 1 149.00000 418.400000
14108 8608 15888 1 149.00000 418.400000
13945 8609 14109 1 149.00000 418.400000
14110 8610 16187 1 149.00000 418.400000
14110 8611 15920 1 149.00000 418.400000
11849 8612 16222 1 149.00000 418.400000
14111 8613 16180 1 149.00000 418.400000
14111 8614 15920 1 149.00000 418.400000
14112 8615 15153 1 149.00000 418.400000
14112 8616 14587 1 149.00000 418.400000
14113 8617 18754 1 149.00000 418.400000
14113 8618 14755 1 149.00000 418.400000
14114 8619 19342 1 149.00000 418.400000
14114 8620 15070 1 149.00000 418.400000
21616 8621 21799 1 149.00000 418.400000
11539 8622 14917 1 149.00000 418.400000
14115 8623 14512 1 149.00000 418.400000
14115 8624 15631 1 149.00000 418.400000
14116 8625 15953 1 149.00000 418.400000
14117 8626 15105 1 149.00000 418.400000
14117 8627 16560 1 149.00000 418.400000
14117 8628 14140 1 149.00000 418.400000
14117 8629 15192 1 149.00000 418.400000
14118 8630 15898 1 149.00000 418.400000
14119 8631 14265 1 149.00000 418.400000
14119 8632 14595 1 149.00000 418.400000
14119 8633 15673 1 149.00000 418.400000
21619 8634 21820 1 149.00000 418.400000
17302 8635 21619 1 149.00000 418.400000
15592 8636 21619 1 149.00000 418.400000
14929 8637 15006 1 149.00000 418.400000
14735 8638 15006 1 149.00000 418.400000
14120 8639 15006 1 149.00000 418.400000
14121 8640 16040 1 149.00000 418.400000
14122 8641 15509 1 149.00000 418.400000
14122 8642 14227 1 149.00000 418.400000
14123 8643 15312 1 149.00000 418.400000
14123 8644 15540 1 149.00000 418.400000
14124 8645 15040 1 149.00000 418.400000
14124 8646 15051 1 149.00000 418.400000
14125 8647 16151 1 149.00000 418.400000
14125 8648 16178 1 149.00000 418.400000
14126 8649 15151 1 149.00000 418.400000
14126 8650 15748 1 149.00000 418.400000
14127 8651 15663 1 149.00000 418.400000
14128 8652 14542 1 149.00000 418.400000
14129 8653 15932 1 149.00000 418.400000
14129 8654 15184 1 149.00000 418.400000
14130 8655 15134 1 149.00000 418.400000
14130 8656 16166 1 149.00000 418.400000
14955 8657 20902 1 149.00000 418.400000
20902 8658 21670 1 149.00000 418.400000
14131 8659 15267 1 149.00000 418.400000
14132 8660 14541 1 149.00000 418.400000
14132 8661 15834 1 149.00000 418.400000
14133 8662 15077 1 149.00000 418.400000
14133 8663 16372 1 149.00000 418.400000
13011 8664 14133 1 149.00000 418.400000
14133 8665 14627 1 149.00000 418.400000
14226 8666 16349 1 149.00000 418.400000
14226 8667 15067 1 149.00000 418.400000
14134 8668 15401 1 149.00000 418.400000
14135 8669 15346 1 149.00000 418.400000
14136 8670 16456 1 149.00000 418.400000
14136 8671 16351 1 149.00000 418.400000
14138 8672 16559 1 149.00000 418.400000
14139 8673 15017 1 149.00000 418.400000
14139 8674 14205 1 149.00000 418.400000
11426 8675 14141 1 149.00000 418.400000
14141 8676 16329 1 149.00000 418.400000
14141 8677 15484 1 149.00000 418.400000
14142 8678 14785 1 149.00000 418.400000
15216 8679 15816 1 149.00000 418.400000
14143 8680 15816 1 149.00000 418.400000
14144 8681 15168 1 149.00000 418.400000
14144 8682 15270 1 149.00000 418.400000
14144 8683 15893 1 149.00000 418.400000
14144 8684 14650 1 149.00000 418.400000
14145 8685 15072 1 149.00000 418.400000
14146 8686 14766 1 149.00000 418.400000
14146 8687 16363 1 149.00000 418.400000
14147 8688 16584 1 149.00000 418.400000
14147 8689 15731 1 149.00000 418.400000
14148 8690 16005 1 149.00000 418.400000
14149 8691 16195 1 149.00000 418.400000
14149 8692 14670 1 149.00000 418.400000
14149 8693 16407 1 149.00000 418.400000
14149 8694 15569 1 149.00000 418.400000
14150 8695 14486 1 149.00000 418.400000
14151 8696 14887 1 149.00000 418.400000
14152 8697 16488 1 149.00000 418.400000
14153 8698 16014 1 149.00000 418.400000
14153 8699 14380 1 149.00000 418.400000
14154 8700 15898 1 149.00000 418.400000
14154 8701 14481 1 149.00000 418.400000
14155 8702 14783 1 149.00000 418.400000
14155 8703 14685 1 149.00000 418.400000
14156 8704 15536 1 149.00000 418.400000
14156 8705 15498 1 149.00000 418.400000
14157 8706 15855 1 149.00000 418.400000
14159 8707 15680 1 149.00000 418.400000
14159 8708 15717 1 149.00000 418.400000
14159 8709 15879 1 149.00000 418.400000
14160 8710 15617 1 149.00000 418.400000
14160 8711 14179 1 149.00000 418.400000
14161 8712 16165 1 149.00000 418.400000
14162 8713 15778 1 149.00000 418.400000
14162 8714 15233 1 149.00000 418.400000
14163 8715 16565 1 149.00000 418.400000
14164 8716 15872 1 149.00000 418.400000
14164 8717 15123 1 149.00000 418.400000
14164 8718 15618 1 149.00000 418.400000
14165 8719 15188 1 149.00000 418.400000
14165 8720 16323 1 149.00000 418.400000
14166 8721 14403 1 149.00000 418.400000
14166 8722 15250 1 149.00000 418.400000
14167 8723 15803 1 149.00000 418.400000
14167 8724 15032 1 149.00000 418.400000
14167 8725 14777 1 149.00000 418.400000
14168 8726 14605 1 149.00000 418.400000
14168 8727 15138 1 149.00000 418.400000
14169 8728 15683 1 149.00000 418.400000
11473 8729 14169 1 149.00000 418.400000
14169 8730 15577 1 149.00000 418.400000
16232 8731 21622 1 149.00000 418.400000
16127 8732 21622 1 149.00000 418.400000
14170 8733 14868 1 149.00000 418.400000
14171 8734 16341 1 149.00000 418.400000
13363 8735 16479 1 149.00000 418.400000
14172 8736 15774 1 149.00000 418.400000
14173 8737 14378 1 149.00000 418.400000
14174 8738 16424 1 149.00000 418.400000
14174 8739 16491 1 149.00000 418.400000
14174 8740 15964 1 149.00000 418.400000
14175 8741 15155 1 149.00000 418.400000
14176 8742 15629 1 149.00000 418.400000
14176 8743 15408 1 149.00000 418.400000
14177 8744 14625 1 149.00000 418.400000
14177 8745 16129 1 149.00000 418.400000
14178 8746 15694 1 149.00000 418.400000
14180 8747 14196 1 149.00000 418.400000
14180 8748 15087 1 149.00000 418.400000
14180 8749 15467 1 149.00000 418.400000
14181 8750 15709 1 149.00000 418.400000
14182 8751 15087 1 149.00000 418.400000
14183 8752 14186 1 149.00000 418.400000
14183 8753 14388 1 149.00000 418.400000
14184 8754 15290 1 149.00000 418.400000
14184 8755 14275 1 149.00000 418.400000
14184 8756 16112 1 149.00000 418.400000
14186 8757 15882 1 149.00000 418.400000
14187 8758 15346 1 149.00000 418.400000
14187 8759 15035 1 149.00000 418.400000
14189 8760 19078 1 149.00000 418.400000
14189 8761 15807 1 149.00000 418.400000
14190 8762 15612 1 149.00000 418.400000
14191 8763 15144 1 149.00000 418.400000
14192 8764 14197 1 149.00000 418.400000
14192 8765 14412 1 149.00000 418.400000
14193 8766 14617 1 149.00000 418.400000
14193 8767 15918 1 149.00000 418.400000
14194 8768 14693 1 149.00000 418.400000
14194 8769 15838 1 149.00000 418.400000
14195 8770 15321 1 149.00000 418.400000
14195 8771 15525 1 149.00000 418.400000
14197 8772 16340 1 149.00000 418.400000
14198 8773 16141 1 149.00000 418.400000
14198 8774 14591 1 149.00000 418.400000
14199 8775 15428 1 149.00000 418.400000
14199 8776 15150 1 149.00000 418.400000
14428 8777 18610 1 149.00000 418.400000
14200 8778 15285 1 149.00000 418.400000
14200 8779 14482 1 149.00000 418.400000
14201 8780 15844 1 149.00000 418.400000
14201 8781 15577 1 149.00000 418.400000
14201 8782 14974 1 149.00000 418.400000
14202 8783 16535 1 149.00000 418.400000
14202 8784 14619 1 149.00000 418.400000
14203 8785 22019 1 149.00000 418.400000
14204 8786 15170 1 149.00000 418.400000
14204 8787 15690 1 149.00000 418.400000
14205 8788 14945 1 149.00000 418.400000
14205 8789 15585 1 149.00000 418.400000
14206 8790 14831 1 149.00000 418.400000
14206 8791 15308 1 149.00000 418.400000
14206 8792 14666 1 149.00000 418.400000
14207 8793 14866 1 149.00000 418.400000
14207 8794 20770 1 149.00000 418.400000
14208 8795 14823 1 149.00000 418.400000
14209 8796 14464 1 149.00000 418.400000
14209 8797 14534 1 149.00000 418.400000
14210 8798 14901 1 149.00000 418.400000
14210 8799 15873 1 149.00000 418.400000
14211 8800 15651 1 149.00000 418.400000
13704 8801 14211 1 149.00000 418.400000
14211 8802 14970 1 149.00000 418.400000
14212 8803 16091 1 149.00000 418.400000
14212 8804 14215 1 149.00000 418.400000
14213 8805 14790 1 149.00000 418.400000
14213 8806 14340 1 149.00000 418.400000
14213 8807 15986 1 149.00000 418.400000
14214 8808 15260 1 149.00000 418.400000
14215 8809 16235 1 149.00000 418.400000
14215 8810 14578 1 149.00000 418.400000
14215 8811 15642 1 149.00000 418.400000
14216 8812 16226 1 149.00000 418.400000
14217 8813 14982 1 149.00000 418.400000
14218 8814 14990 1 149.00000 418.400000
19870 8815 21883 1 149.00000 418.400000
14219 8816 14840 1 149.00000 418.400000
14220 8817 16240 1 149.00000 418.400000
14221 8818 15976 1 149.00000 418.400000
14221 8819 16401 1 149.00000 418.400000
14222 8820 16272 1 149.00000 418.400000
14223 8821 15961 1 149.00000 418.400000
16868 8822 20950 1 149.00000 418.400000
14224 8823 14635 1 149.00000 418.400000
14224 8824 16047 1 149.00000 418.400000
14225 8825 15261 1 149.00000 418.400000
15784 8826 16349 1 149.00000 418.400000
14229 8827 14323 1 149.00000 418.400000
14229 8828 14875 1 149.00000 418.400000
14229 8829 18574 1 149.00000 418.400000
14230 8830 15813 1 149.00000 418.400000
14231 8831 15950 1 149.00000 418.400000
14231 8832 15663 1 149.00000 418.400000
14231 8833 15029 1 149.00000 418.400000
14231 8834 14723 1 149.00000 418.400000
14232 8835 14472 1 149.00000 418.400000
14233 8836 15518 1 149.00000 418.400000
14234 8837 14927 1 149.00000 418.400000
14235 8838 15045 1 149.00000 418.400000
14235 8839 15372 1 149.00000 418.400000
14235 8840 15920 1 149.00000 418.400000
14236 8841 17386 1 149.00000 418.400000
14236 8842 14591 1 149.00000 418.400000
14237 8843 16116 1 149.00000 418.400000
14237 8844 15258 1 149.00000 418.400000
14238 8845 16309 1 149.00000 418.400000
14238 8846 16289 1 149.00000 418.400000
14239 8847 15377 1 149.00000 418.400000
13111 8848 14833 1 149.00000 418.400000
14240 8849 15344 1 149.00000 418.400000
14241 8850 16543 1 149.00000 418.400000
18352 8851 21823 1 149.00000 418.400000
14242 8852 14936 1 149.00000 418.400000
14242 8853 15170 1 149.00000 418.400000
14242 8854 16295 1 149.00000 418.400000
12933 8855 16506 1 149.00000 418.400000
14243 8856 14677 1 149.00000 418.400000
14243 8857 14489 1 149.00000 418.400000
14244 8858 15848 1 149.00000 418.400000
14244 8859 15453 1 149.00000 418.400000
14244 8860 16302 1 149.00000 418.400000
14245 8861 16188 1 149.00000 418.400000
14245 8862 14660 1 149.00000 418.400000
14245 8863 15155 1 149.00000 418.400000
14246 8864 16262 1 149.00000 418.400000
14246 8865 16630 1 149.00000 418.400000
14247 8866 14908 1 149.00000 418.400000
14247 8867 16359 1 149.00000 418.400000
14248 8868 14488 1 149.00000 418.400000
15850 8869 21130 1 149.00000 418.400000
14249 8870 16251 1 149.00000 418.400000
14249 8871 14396 1 149.00000 418.400000
14251 8872 15150 1 149.00000 418.400000
14949 8873 19786 1 149.00000 418.400000
15532 8874 19786 1 149.00000 418.400000
19786 8875 20470 1 149.00000 418.400000
14252 8876 14909 1 149.00000 418.400000
15129 8877 20638 1 149.00000 418.400000
14253 8878 14642 1 149.00000 418.400000
14253 8879 17400 1 149.00000 418.400000
14254 8880 15192 1 149.00000 418.400000
14255 8881 15121 1 149.00000 418.400000
14255 8882 16196 1 149.00000 418.400000
14256 8883 15383 1 149.00000 418.400000
14257 8884 15762 1 149.00000 418.400000
14257 8885 15625 1 149.00000 418.400000
14258 8886 14565 1 149.00000 418.400000
14258 8887 15825 1 149.00000 418.400000
14260 8888 16060 1 149.00000 418.400000
14260 8889 16041 1 149.00000 418.400000
14260 8890 14480 1 149.00000 418.400000
14261 8891 14493 1 149.00000 418.400000
14261 8892 15518 1 149.00000 418.400000
13402 8893 14262 1 149.00000 418.400000
12140 8894 16020 1 149.00000 418.400000
14263 8895 16356 1 149.00000 418.400000
14264 8896 14873 1 149.00000 418.400000
14264 8897 14887 1 149.00000 418.400000
14264 8898 15117 1 149.00000 418.400000
14265 8899 14638 1 149.00000 418.400000
14266 8900 16355 1 149.00000 418.400000
14266 8901 15806 1 149.00000 418.400000
14267 8902 16056 1 149.00000 418.400000
14267 8903 16161 1 149.00000 418.400000
14268 8904 16423 1 149.00000 418.400000
14268 8905 16569 1 149.00000 418.400000
14268 8906 15125 1 149.00000 418.400000
14269 8907 16018 1 149.00000 418.400000
15048 8908 20830 1 149.00000 418.400000
14271 8909 14956 1 149.00000 418.400000
14271 8910 14677 1 149.00000 418.400000
14273 8911 15857 1 149.00000 418.400000
14273 8912 14779 1 149.00000 418.400000
14274 8913 14348 1 149.00000 418.400000
14275 8914 14672 1 149.00000 418.400000
14275 8915 14718 1 149.00000 418.400000
13235 8916 17274 1 149.00000 418.400000
14276 8917 15529 1 149.00000 418.400000
14277 8918 14937 1 149.00000 418.400000
14277 8919 14778 1 149.00000 418.400000
14277 8920 15298 1 149.00000 418.400000
14278 8921 16124 1 149.00000 418.400000
14278 8922 16162 1 149.00000 418.400000
19102 8923 19426 1 149.00000 418.400000
14279 8924 15203 1 149.00000 418.400000
14279 8925 16530 1 149.00000 418.400000
14279 8926 15111 1 149.00000 418.400000
16416 8927 18946 1 149.00000 418.400000
14280 8928 15011 1 149.00000 418.400000
14281 8929 16348 1 149.00000 418.400000
14282 8930 16549 1 149.00000 418.400000
14282 8931 16390 1 149.00000 418.400000
14282 8932 15796 1 149.00000 418.400000
14282 8933 16051 1 149.00000 418.400000
14283 8934 16216 1 149.00000 418.400000
14283 8935 15485 1 149.00000 418.400000
14284 8936 15008 1 149.00000 418.400000
14285 8937 15004 1 149.00000 418.400000
14285 8938 22029 1 149.00000 418.400000
13851 8939 14286 1 149.00000 418.400000
14287 8940 16340 1 149.00000 418.400000
14288 8941 14332 1 149.00000 418.400000
14289 8942 18296 1 149.00000 418.400000
14290 8943 16081 1 149.00000 418.400000
14290 8944 14852 1 149.00000 418.400000
14290 8945 16292 1 149.00000 418.400000
14290 8946 16525 1 149.00000 418.400000
14291 8947 16174 1 149.00000 418.400000
14291 8948 14516 1 149.00000 418.400000
14292 8949 16513 1 149.00000 418.400000
14292 8950 15278 1 149.00000 418.400000
14292 8951 15457 1 149.00000 418.400000
14292 8952 16571 1 149.00000 418.400000
14293 8953 15462 1 149.00000 418.400000
14294 8954 19342 1 149.00000 418.400000
14294 8955 15063 1 149.00000 418.400000
14294 8956 14787 1 149.00000 418.400000
14295 8957 14589 1 149.00000 418.400000
14295 8958 16617 1 149.00000 418.400000
14295 8959 15444 1 149.00000 418.400000
14297 8960 14301 1 149.00000 418.400000
14298 8961 21862 1 149.00000 418.400000
17862 8962 21757 1 149.00000 418.400000
14299 8963 16607 1 149.00000 418.400000
14300 8964 15451 1 149.00000 418.400000
14300 8965 16535 1 149.00000 418.400000
14300 8966 16322 1 149.00000 418.400000
14301 8967 15854 1 149.00000 418.400000
14302 8968 15669 1 149.00000 418.400000
14302 8969 15633 1 149.00000 418.400000
12156 8970 16188 1 149.00000 418.400000
14304 8971 16602 1 149.00000 418.400000
14304 8972 15389 1 149.00000 418.400000
14304 8973 14657 1 149.00000 418.400000
14746 8974 21628 1 149.00000 418.400000
16237 8975 19390 1 149.00000 418.400000
12081 8976 14509 1 149.00000 418.400000
14305 8977 15957 1 149.00000 418.400000
14305 8978 14991 1 149.00000 418.400000
14306 8979 16391 1 149.00000 418.400000
14306 8980 14914 1 149.00000 418.400000
14306 8981 15326 1 149.00000 418.400000
14307 8982 15689 1 149.00000 418.400000
14307 8983 15042 1 149.00000 418.400000
14308 8984 16351 1 149.00000 418.400000
14308 8985 18886 1 149.00000 418.400000
11700 8986 15232 1 149.00000 418.400000
14310 8987 16605 1 149.00000 418.400000
14310 8988 16094 1 149.00000 418.400000
14310 8989 14501 1 149.00000 418.400000
14311 8990 16133 1 149.00000 418.400000
14313 8991 15591 1 149.00000 418.400000
14313 8992 16138 1 149.00000 418.400000
14314 8993 15969 1 149.00000 418.400000
14314 8994 16448 1 149.00000 418.400000
14315 8995 15221 1 149.00000 418.400000
14317 8996 16486 1 149.00000 418.400000
14317 8997 14683 1 149.00000 418.400000
13962 8998 15756 1 149.00000 418.400000
14319 8999 15093 1 149.00000 418.400000
14319 9000 14654 1 149.00000 418.400000
11917 9001 16507 1 149.00000 418.400000
14320 9002 16306 1 149.00000 418.400000
14320 9003 15638 1 149.00000 418.400000
14320 9004 15786 1 149.00000 418.400000
14321 9005 15564 1 149.00000 418.400000
14322 9006 14655 1 149.00000 418.400000
14322 9007 16570 1 149.00000 418.400000
14322 9008 16389 1 149.00000 418.400000
14323 9009 16276 1 149.00000 418.400000
11853 9010 21631 1 149.00000 418.400000
21034 9011 21166 1 149.00000 418.400000
14458 9012 21034 1 149.00000 418.400000
14324 9013 15926 1 149.00000 418.400000
14324 9014 15433 1 149.00000 418.400000
14325 9015 14631 1 149.00000 418.400000
14631 9016 15230 1 149.00000 418.400000
14325 9017 16412 1 149.00000 418.400000
14326 9018 15745 1 149.00000 418.400000
14327 9019 14385 1 149.00000 418.400000
12028 9020 14328 1 149.00000 418.400000
14328 9021 16077 1 149.00000 418.400000
14329 9022 15280 1 149.00000 418.400000
14329 9023 15979 1 149.00000 418.400000
14330 9024 15122 1 149.00000 418.400000
14330 9025 21901 1 149.00000 418.400000
14331 9026 15975 1 149.00000 418.400000
14331 9027 15672 1 149.00000 418.400000
14331 9028 15503 1 149.00000 418.400000
14332 9029 18910 1 149.00000 418.400000
14332 9030 14718 1 149.00000 418.400000
14333 9031 15412 1 149.00000 418.400000
14333 9032 17946 1 149.00000 418.400000
13526 9033 14333 1 149.00000 418.400000
14334 9034 14661 1 149.00000 418.400000
15148 9035 18114 1 149.00000 418.400000
14336 9036 16114 1 149.00000 418.400000
14336 9037 14734 1 149.00000 418.400000
14337 9038 15614 1 149.00000 418.400000
14337 9039 15054 1 149.00000 418.400000
14338 9040 15374 1 149.00000 418.400000
15208 9041 15868 1 149.00000 418.400000
14338 9042 15868 1 149.00000 418.400000
14338 9043 15518 1 149.00000 418.400000
14339 9044 14773 1 149.00000 418.400000
14340 9045 15727 1 149.00000 418.400000
14341 9046 15081 1 149.00000 418.400000
14341 9047 15863 1 149.00000 418.400000
15704 9048 18406 1 149.00000 418.400000
14342 9049 15254 1 149.00000 418.400000
14342 9050 16190 1 149.00000 418.400000
14343 9051 14895 1 149.00000 418.400000
14343 9052 16538 1 149.00000 418.400000
14344 9053 15276 1 149.00000 418.400000
20098 9054 21634 1 149.00000 418.400000
16121 9055 21634 1 149.00000 418.400000
12590 9056 14346 1 149.00000 418.400000
14347 9057 14592 1 149.00000 418.400000
14347 9058 16311 1 149.00000 418.400000
14347 9059 14736 1 149.00000 418.400000
14348 9060 14369 1 149.00000 418.400000
13442 9061 15052 1 149.00000 418.400000
12436 9062 14349 1 149.00000 418.400000
14349 9063 14455 1 149.00000 418.400000
14349 9064 16221 1 149.00000 418.400000
14350 9065 14800 1 149.00000 418.400000
14351 9066 15939 1 149.00000 418.400000
15018 9067 21637 1 149.00000 418.400000
14352 9068 15307 1 149.00000 418.400000
14849 9069 15307 1 149.00000 418.400000
14353 9070 16524 1 149.00000 418.400000
14353 9071 15014 1 149.00000 418.400000
14354 9072 15424 1 149.00000 418.400000
12655 9073 15239 1 149.00000 418.400000
14355 9074 15889 1 149.00000 418.400000
14355 9075 14915 1 149.00000 418.400000
14356 9076 15376 1 149.00000 418.400000
14356 9077 15489 1 149.00000 418.400000
14356 9078 16578 1 149.00000 418.400000
14356 9079 16176 1 149.00000 418.400000
14357 9080 16624 1 149.00000 418.400000
14357 9081 14364 1 149.00000 418.400000
14884 9082 15830 1 149.00000 418.400000
14357 9083 15830 1 149.00000 418.400000
14358 9084 14399 1 149.00000 418.400000
13169 9085 14488 1 149.00000 418.400000
14360 9086 15167 1 149.00000 418.400000
14361 9087 15650 1 149.00000 418.400000
16474 9088 21640 1 149.00000 418.400000
15322 9089 21640 1 149.00000 418.400000
18670 9090 21640 1 149.00000 418.400000
14362 9091 20470 1 149.00000 418.400000
14362 9092 21727 1 149.00000 418.400000
14362 9093 14363 1 149.00000 418.400000
14363 9094 14564 1 149.00000 418.400000
14363 9095 16625 1 149.00000 418.400000
14364 9096 16295 1 149.00000 418.400000
14364 9097 15016 1 149.00000 418.400000
11965 9098 17078 1 149.00000 418.400000
14365 9099 16191 1 149.00000 418.400000
14365 9100 16369 1 149.00000 418.400000
14366 9101 16109 1 149.00000 418.400000
14366 9102 14572 1 149.00000 418.400000
15871 9103 21643 1 149.00000 418.400000
19666 9104 21643 1 149.00000 418.400000
14367 9105 15189 1 149.00000 418.400000
14367 9106 16228 1 149.00000 418.400000
14367 9107 14376 1 149.00000 418.400000
14368 9108 16098 1 149.00000 418.400000
14369 9109 15962 1 149.00000 418.400000
14370 9110 14397 1 149.00000 418.400000
13711 9111 16093 1 149.00000 418.400000
14370 9112 15655 1 149.00000 418.400000
14371 9113 15932 1 149.00000 418.400000
14372 9114 15093 1 149.00000 418.400000
14372 9115 14960 1 149.00000 418.400000
14372 9116 15404 1 149.00000 418.400000
14373 9117 16227 1 149.00000 418.400000
14373 9118 15343 1 149.00000 418.400000
14864 9119 15343 1 149.00000 418.400000
14373 9120 16068 1 149.00000 418.400000
14374 9121 15950 1 149.00000 418.400000
14374 9122 15883 1 149.00000 418.400000
14375 9123 16455 1 149.00000 418.400000
14375 9124 15394 1 149.00000 418.400000
14375 9125 16218 1 149.00000 418.400000
15842 9126 16218 1 149.00000 418.400000
14376 9127 16524 1 149.00000 418.400000
12802 9128 14376 1 149.00000 418.400000
14378 9129 14808 1 149.00000 418.400000
13451 9130 14379 1 149.00000 418.400000
14379 9131 14709 1 149.00000 418.400000
14379 9132 15269 1 149.00000 418.400000
14379 9133 16572 1 149.00000 418.400000
12231 9134 16095 1 149.00000 418.400000
14382 9135 16319 1 149.00000 418.400000
14382 9136 15400 1 149.00000 418.400000
14383 9137 14677 1 149.00000 418.400000
14383 9138 14494 1 149.00000 418.400000
16224 9139 20722 1 149.00000 418.400000
14686 9140 20722 1 149.00000 418.400000
14384 9141 16202 1 149.00000 418.400000
14385 9142 14879 1 149.00000 418.400000
20578 9143 21733 1 149.00000 418.400000
14636 9144 20578 1 149.00000 418.400000
14386 9145 15196 1 149.00000 418.400000
15685 9146 16369 1 149.00000 418.400000
14898 9147 15685 1 149.00000 418.400000
14388 9148 15685 1 149.00000 418.400000
14389 9149 16471 1 149.00000 418.400000
14389 9150 15758 1 149.00000 418.400000
14389 9151 14508 1 149.00000 418.400000
14390 9152 14978 1 149.00000 418.400000
14390 9153 15671 1 149.00000 418.400000
14390 9154 15718 1 149.00000 418.400000
14391 9155 16108 1 149.00000 418.400000
14392 9156 15695 1 149.00000 418.400000
14392 9157 15988 1 149.00000 418.400000
14393 9158 15741 1 149.00000 418.400000
12865 9159 14747 1 149.00000 418.400000
14394 9160 16000 1 149.00000 418.400000
14394 9161 15820 1 149.00000 418.400000
14394 9162 15514 1 149.00000 418.400000
14395 9163 14726 1 149.00000 418.400000
14395 9164 16630 1 149.00000 418.400000
14395 9165 16621 1 149.00000 418.400000
14396 9166 16517 1 149.00000 418.400000
14396 9167 15304 1 149.00000 418.400000
15755 9168 21649 1 149.00000 418.400000
14398 9169 15386 1 149.00000 418.400000
14400 9170 15249 1 149.00000 418.400000
14400 9171 16407 1 149.00000 418.400000
12543 9172 21865 1 149.00000 418.400000
14401 9173 15613 1 149.00000 418.400000
11921 9174 16503 1 149.00000 418.400000
15238 9175 15613 1 149.00000 418.400000
14402 9176 15079 1 149.00000 418.400000
14402 9177 16096 1 149.00000 418.400000
14403 9178 14839 1 149.00000 418.400000
14404 9179 15367 1 149.00000 418.400000
13883 9180 15279 1 149.00000 418.400000
14404 9181 16306 1 149.00000 418.400000
14405 9182 16027 1 149.00000 418.400000
14407 9183 21790 1 149.00000 418.400000
14407 9184 14638 1 149.00000 418.400000
14408 9185 16062 1 149.00000 418.400000
14410 9186 16435 1 149.00000 418.400000
14411 9187 14578 1 149.00000 418.400000
14412 9188 15250 1 149.00000 418.400000
16686 9189 18958 1 149.00000 418.400000
15133 9190 18958 1 149.00000 418.400000
18838 9191 18958 1 149.00000 418.400000
14413 9192 14866 1 149.00000 418.400000
14414 9193 15393 1 149.00000 418.400000
12583 9194 17190 1 149.00000 418.400000
14416 9195 16542 1 149.00000 418.400000
14417 9196 16020 1 149.00000 418.400000
14417 9197 15625 1 149.00000 418.400000
14418 9198 15472 1 149.00000 418.400000
14418 9199 16007 1 149.00000 418.400000
14418 9200 16008 1 149.00000 418.400000
14419 9201 15173 1 149.00000 418.400000
14419 9202 16236 1 149.00000 418.400000
14420 9203 15990 1 149.00000 418.400000
14420 9204 15303 1 149.00000 418.400000
14421 9205 16447 1 149.00000 418.400000
14421 9206 14709 1 149.00000 418.400000
14423 9207 16451 1 149.00000 418.400000
14423 9208 16112 1 149.00000 418.400000
14423 9209 15291 1 149.00000 418.400000
14424 9210 15604 1 149.00000 418.400000
14424 9211 16550 1 149.00000 418.400000
14424 9212 15513 1 149.00000 418.400000
14425 9213 14471 1 149.00000 418.400000
14426 9214 15106 1 149.00000 418.400000
14427 9215 15693 1 149.00000 418.400000
14516 9216 15869 1 149.00000 418.400000
14845 9217 16244 1 149.00000 418.400000
14428 9218 14845 1 149.00000 418.400000
14429 9219 14440 1 149.00000 418.400000
14430 9220 15149 1 149.00000 418.400000
14430 9221 16041 1 149.00000 418.400000
14431 9222 15295 1 149.00000 418.400000
14432 9223 14704 1 149.00000 418.400000
14432 9224 14795 1 149.00000 418.400000
14433 9225 15250 1 149.00000 418.400000
14434 9226 15388 1 149.00000 418.400000
14434 9227 14567 1 149.00000 418.400000
12367 9228 14435 1 149.00000 418.400000
14436 9229 15003 1 149.00000 418.400000
14436 9230 14597 1 149.00000 418.400000
14436 9231 16321 1 149.00000 418.400000
14439 9232 15826 1 149.00000 418.400000
14439 9233 15825 1 149.00000 418.400000
14441 9234 15441 1 149.00000 418.400000
14441 9235 14683 1 149.00000 418.400000
14442 9236 15835 1 149.00000 418.400000
14442 9237 14778 1 149.00000 418.400000
14443 9238 16345 1 149.00000 418.400000
14443 9239 14883 1 149.00000 418.400000
14444 9240 15223 1 149.00000 418.400000
14444 9241 14761 1 149.00000 418.400000
14444 9242 16161 1 149.00000 418.400000
14445 9243 16384 1 149.00000 418.400000
14445 9244 14498 1 149.00000 418.400000
14446 9245 15573 1 149.00000 418.400000
14446 9246 14752 1 149.00000 418.400000
14446 9247 15936 1 149.00000 418.400000
14447 9248 15705 1 149.00000 418.400000
14447 9249 14454 1 149.00000 418.400000
14447 9250 14564 1 149.00000 418.400000
14448 9251 14754 1 149.00000 418.400000
14448 9252 15536 1 149.00000 418.400000
14449 9253 16584 1 149.00000 418.400000
16286 9254 20698 1 149.00000 418.400000
14450 9255 14995 1 149.00000 418.400000
14450 9256 14598 1 149.00000 418.400000
14451 9257 16044 1 149.00000 418.400000
14451 9258 15742 1 149.00000 418.400000
14452 9259 15875 1 149.00000 418.400000
14452 9260 14738 1 149.00000 418.400000
14453 9261 14809 1 149.00000 418.400000
14453 9262 15195 1 149.00000 418.400000
15951 9263 17470 1 149.00000 418.400000
14991 9264 17470 1 149.00000 418.400000
14454 9265 15925 1 149.00000 418.400000
14457 9266 15757 1 149.00000 418.400000
14457 9267 15023 1 149.00000 418.400000
14457 9268 16273 1 149.00000 418.400000
18994 9269 21736 1 149.00000 418.400000
14458 9270 21679 1 149.00000 418.400000
15075 9271 21679 1 149.00000 418.400000
14459 9272 15751 1 149.00000 418.400000
14459 9273 15013 1 149.00000 418.400000
14459 9274 16451 1 149.00000 418.400000
14460 9275 15509 1 149.00000 418.400000
20146 9276 21847 1 149.00000 418.400000
14461 9277 15743 1 149.00000 418.400000
14462 9278 16592 1 149.00000 418.400000
14463 9279 16051 1 149.00000 418.400000
14463 9280 14478 1 149.00000 418.400000
14463 9281 16549 1 149.00000 418.400000
14464 9282 14572 1 149.00000 418.400000
12170 9283 15737 1 149.00000 418.400000
14466 9284 20278 1 149.00000 418.400000
14467 9285 16227 1 149.00000 418.400000
14468 9286 15839 1 149.00000 418.400000
14469 9287 15139 1 149.00000 418.400000
14469 9288 14686 1 149.00000 418.400000
14470 9289 15143 1 149.00000 418.400000
14470 9290 15713 1 149.00000 418.400000
14470 9291 16282 1 149.00000 418.400000
14471 9292 15241 1 149.00000 418.400000
14471 9293 16547 1 149.00000 418.400000
14473 9294 16048 1 149.00000 418.400000
14474 9295 16162 1 149.00000 418.400000
14474 9296 15842 1 149.00000 418.400000
14475 9297 16514 1 149.00000 418.400000
14475 9298 14730 1 149.00000 418.400000
14475 9299 14715 1 149.00000 418.400000
14476 9300 15887 1 149.00000 418.400000
14476 9301 15608 1 149.00000 418.400000
14477 9302 15945 1 149.00000 418.400000
14477 9303 15416 1 149.00000 418.400000
12280 9304 14478 1 149.00000 418.400000
14479 9305 15499 1 149.00000 418.400000
14479 9306 15723 1 149.00000 418.400000
14479 9307 14864 1 149.00000 418.400000
14480 9308 15421 1 149.00000 418.400000
14482 9309 16378 1 149.00000 418.400000
14483 9310 14753 1 149.00000 418.400000
14483 9311 15614 1 149.00000 418.400000
14484 9312 15369 1 149.00000 418.400000
14484 9313 16296 1 149.00000 418.400000
14484 9314 15012 1 149.00000 418.400000
14486 9315 15580 1 149.00000 418.400000
14486 9316 15235 1 149.00000 418.400000
14487 9317 16242 1 149.00000 418.400000
14490 9318 14650 1 149.00000 418.400000
14490 9319 16520 1 149.00000 418.400000
14490 9320 14899 1 149.00000 418.400000
14491 9321 14910 1 149.00000 418.400000
14491 9322 16552 1 149.00000 418.400000
14492 9323 15611 1 149.00000 418.400000
14493 9324 15595 1 149.00000 418.400000
14493 9325 15374 1 149.00000 418.400000
14495 9326 15695 1 149.00000 418.400000
14495 9327 15741 1 149.00000 418.400000
14496 9328 15668 1 149.00000 418.400000
12027 9329 12809 1 149.00000 418.400000
14497 9330 15378 1 149.00000 418.400000
14498 9331 15035 1 149.00000 418.400000
14498 9332 16220 1 149.00000 418.400000
14498 9333 15917 1 149.00000 418.400000
14499 9334 15418 1 149.00000 418.400000
13447 9335 14499 1 149.00000 418.400000
14500 9336 15162 1 149.00000 418.400000
14501 9337 15756 1 149.00000 418.400000
14501 9338 15205 1 149.00000 418.400000
14502 9339 16472 1 149.00000 418.400000
14503 9340 15598 1 149.00000 418.400000
14503 9341 15933 1 149.00000 418.400000
14504 9342 16263 1 149.00000 418.400000
14504 9343 15026 1 149.00000 418.400000
14505 9344 19570 1 149.00000 418.400000
14505 9345 16023 1 149.00000 418.400000
14506 9346 15315 1 149.00000 418.400000
14507 9347 15033 1 149.00000 418.400000
20098 9348 21832 1 149.00000 418.400000
14508 9349 15887 1 149.00000 418.400000
14509 9350 14832 1 149.00000 418.400000
14510 9351 14741 1 149.00000 418.400000
12479 9352 14510 1 149.00000 418.400000
16183 9353 21655 1 149.00000 418.400000
14511 9354 16363 1 149.00000 418.400000
14512 9355 15000 1 149.00000 418.400000
14512 9356 15733 1 149.00000 418.400000
14513 9357 14923 1 149.00000 418.400000
14514 9358 15904 1 149.00000 418.400000
14874 9359 15891 1 149.00000 418.400000
14514 9360 14874 1 149.00000 418.400000
14515 9361 15720 1 149.00000 418.400000
14427 9362 15869 1 149.00000 418.400000
14517 9363 15997 1 149.00000 418.400000
14517 9364 14580 1 149.00000 418.400000
14518 9365 15767 1 149.00000 418.400000
14518 9366 15094 1 149.00000 418.400000
14518 9367 16115 1 149.00000 418.400000
14519 9368 16433 1 149.00000 418.400000
14519 9369 15926 1 149.00000 418.400000
14520 9370 14784 1 149.00000 418.400000
14521 9371 14986 1 149.00000 418.400000
14521 9372 16042 1 149.00000 418.400000
14522 9373 16129 1 149.00000 418.400000
14523 9374 14992 1 149.00000 418.400000
16200 9375 20026 1 149.00000 418.400000
14524 9376 16253 1 149.00000 418.400000
14524 9377 15577 1 149.00000 418.400000
14525 9378 15560 1 149.00000 418.400000
14525 9379 14768 1 149.00000 418.400000
14526 9380 15274 1 149.00000 418.400000
14526 9381 16470 1 149.00000 418.400000
14527 9382 16250 1 149.00000 418.400000
14527 9383 14587 1 149.00000 418.400000
14146 9384 14528 1 149.00000 418.400000
14529 9385 16549 1 149.00000 418.400000
14529 9386 14805 1 149.00000 418.400000
14529 9387 16390 1 149.00000 418.400000
16139 9388 20962 1 149.00000 418.400000
14530 9389 15637 1 149.00000 418.400000
14530 9390 14615 1 149.00000 418.400000
14531 9391 15718 1 149.00000 418.400000
14532 9392 14813 1 149.00000 418.400000
14533 9393 14834 1 149.00000 418.400000
14533 9394 19942 1 149.00000 418.400000
14533 9395 21919 1 149.00000 418.400000
14534 9396 16238 1 149.00000 418.400000
14536 9397 15796 1 149.00000 418.400000
14536 9398 14981 1 149.00000 418.400000
14536 9399 16299 1 149.00000 418.400000
14537 9400 14615 1 149.00000 418.400000
14538 9401 14704 1 149.00000 418.400000
14539 9402 17722 1 149.00000 418.400000
14539 9403 14732 1 149.00000 418.400000
14540 9404 15297 1 149.00000 418.400000
17176 9405 18850 1 149.00000 418.400000
14543 9406 15341 1 149.00000 418.400000
14544 9407 15771 1 149.00000 418.400000
14544 9408 16273 1 149.00000 418.400000
14545 9409 16014 1 149.00000 418.400000
14546 9410 15681 1 149.00000 418.400000
14546 9411 16274 1 149.00000 418.400000
14547 9412 14572 1 149.00000 418.400000
14547 9413 15537 1 149.00000 418.400000
14548 9414 15546 1 149.00000 418.400000
14549 9415 14949 1 149.00000 418.400000
14549 9416 15705 1 149.00000 418.400000
14549 9417 15281 1 149.00000 418.400000
14549 9418 16625 1 149.00000 418.400000
14550 9419 14865 1 149.00000 418.400000
14551 9420 16297 1 149.00000 418.400000
13002 9421 14551 1 149.00000 418.400000
14551 9422 15321 1 149.00000 418.400000
14552 9423 14902 1 149.00000 418.400000
14552 9424 15011 1 149.00000 418.400000
14552 9425 15857 1 149.00000 418.400000
14553 9426 14619 1 149.00000 418.400000
14554 9427 15227 1 149.00000 418.400000
14555 9428 14784 1 149.00000 418.400000
14555 9429 16596 1 149.00000 418.400000
14964 9430 21658 1 149.00000 418.400000
14556 9431 15998 1 149.00000 418.400000
14557 9432 14637 1 149.00000 418.400000
14557 9433 15277 1 149.00000 418.400000
14558 9434 16582 1 149.00000 418.400000
14559 9435 16044 1 149.00000 418.400000
14559 9436 16553 1 149.00000 418.400000
14560 9437 14734 1 149.00000 418.400000
14562 9438 15097 1 149.00000 418.400000
14562 9439 16611 1 149.00000 418.400000
14563 9440 15304 1 149.00000 418.400000
14564 9441 15532 1 149.00000 418.400000
14565 9442 15464 1 149.00000 418.400000
14565 9443 16185 1 149.00000 418.400000
14566 9444 16119 1 149.00000 418.400000
14567 9445 14926 1 149.00000 418.400000
14567 9446 15536 1 149.00000 418.400000
14567 9447 14921 1 149.00000 418.400000
14568 9448 15831 1 149.00000 418.400000
14568 9449 14991 1 149.00000 418.400000
14568 9450 16182 1 149.00000 418.400000
14569 9451 16483 1 149.00000 418.400000
14017 9452 14592 1 149.00000 418.400000
14570 9453 15572 1 149.00000 418.400000
14570 9454 14682 1 149.00000 418.400000
14571 9455 15286 1 149.00000 418.400000
16501 9456 18338 1 149.00000 418.400000
14572 9457 15183 1 149.00000 418.400000
14708 9458 21661 1 149.00000 418.400000
14573 9459 15621 1 149.00000 418.400000
14573 9460 18490 1 149.00000 418.400000
14574 9461 16310 1 149.00000 418.400000
14574 9462 16092 1 149.00000 418.400000
14574 9463 15119 1 149.00000 418.400000
14998 9464 17554 1 149.00000 418.400000
12868 9465 14845 1 149.00000 418.400000
14575 9466 15063 1 149.00000 418.400000
14576 9467 15803 1 149.00000 418.400000
14576 9468 14930 1 149.00000 418.400000
12602 9469 14577 1 149.00000 418.400000
14577 9470 16149 1 149.00000 418.400000
14577 9471 19666 1 149.00000 418.400000
14579 9472 15796 1 149.00000 418.400000
14580 9473 14698 1 149.00000 418.400000
14580 9474 16320 1 149.00000 418.400000
14581 9475 16609 1 149.00000 418.400000
14581 9476 15181 1 149.00000 418.400000
14581 9477 15123 1 149.00000 418.400000
14582 9478 16117 1 149.00000 418.400000
14583 9479 20014 1 149.00000 418.400000
14583 9480 15993 1 149.00000 418.400000
14584 9481 14931 1 149.00000 418.400000
14585 9482 15530 1 149.00000 418.400000
14586 9483 15495 1 149.00000 418.400000
14587 9484 16547 1 149.00000 418.400000
14527 9485 14859 1 149.00000 418.400000
12418 9486 15328 1 149.00000 418.400000
14588 9487 14640 1 149.00000 418.400000
14589 9488 16462 1 149.00000 418.400000
14589 9489 15244 1 149.00000 418.400000
14590 9490 15059 1 149.00000 418.400000
14590 9491 14857 1 149.00000 418.400000
21664 9492 21736 1 149.00000 418.400000
14591 9493 15736 1 149.00000 418.400000
14592 9494 14724 1 149.00000 418.400000
14593 9495 15419 1 149.00000 418.400000
14594 9496 14999 1 149.00000 418.400000
14595 9497 15667 1 149.00000 418.400000
14595 9498 15120 1 149.00000 418.400000
14596 9499 15624 1 149.00000 418.400000
16055 9500 20686 1 149.00000 418.400000
14598 9501 14615 1 149.00000 418.400000
14598 9502 15083 1 149.00000 418.400000
14600 9503 16487 1 149.00000 418.400000
14601 9504 20266 1 149.00000 418.400000
16298 9505 21853 1 149.00000 418.400000
21667 9506 21853 1 149.00000 418.400000
14602 9507 15716 1 149.00000 418.400000
13564 9508 14602 1 149.00000 418.400000
14603 9509 15209 1 149.00000 418.400000
12572 9510 15750 1 149.00000 418.400000
14604 9511 14668 1 149.00000 418.400000
14604 9512 15637 1 149.00000 418.400000
14606 9513 14641 1 149.00000 418.400000
14606 9514 15153 1 149.00000 418.400000
14606 9515 15068 1 149.00000 418.400000
14606 9516 16547 1 149.00000 418.400000
12110 9517 15736 1 149.00000 418.400000
14608 9518 15883 1 149.00000 418.400000
14609 9519 14762 1 149.00000 418.400000
14610 9520 15213 1 149.00000 418.400000
14611 9521 14696 1 149.00000 418.400000
14612 9522 16622 1 149.00000 418.400000
14613 9523 16475 1 149.00000 418.400000
14613 9524 16418 1 149.00000 418.400000
14614 9525 15888 1 149.00000 418.400000
15345 9526 20014 1 149.00000 418.400000
14616 9527 15662 1 149.00000 418.400000
14616 9528 15894 1 149.00000 418.400000
14617 9529 14692 1 149.00000 418.400000
14617 9530 14768 1 149.00000 418.400000
14617 9531 15701 1 149.00000 418.400000
15315 9532 15821 1 149.00000 418.400000
14618 9533 15315 1 149.00000 418.400000
14618 9534 16572 1 149.00000 418.400000
14619 9535 15103 1 149.00000 418.400000
14620 9536 16090 1 149.00000 418.400000
14620 9537 15550 1 149.00000 418.400000
14621 9538 14808 1 149.00000 418.400000
14621 9539 16454 1 149.00000 418.400000
14622 9540 14753 1 149.00000 418.400000
14623 9541 21922 1 149.00000 418.400000
14623 9542 20362 1 149.00000 418.400000
14623 9543 16063 1 149.00000 418.400000
14623 9544 15044 1 149.00000 418.400000
14624 9545 15342 1 149.00000 418.400000
14625 9546 16450 1 149.00000 418.400000
14626 9547 15076 1 149.00000 418.400000
14626 9548 14749 1 149.00000 418.400000
21094 9549 21580 1 149.00000 418.400000
14629 9550 15358 1 149.00000 418.400000
14629 9551 15426 1 149.00000 418.400000
14630 9552 16167 1 149.00000 418.400000
14630 9553 16089 1 149.00000 418.400000
14630 9554 15167 1 149.00000 418.400000
14631 9555 15677 1 149.00000 418.400000
14632 9556 14713 1 149.00000 418.400000
14632 9557 21697 1 149.00000 418.400000
17372 9558 21454 1 149.00000 418.400000
14633 9559 15112 1 149.00000 418.400000
14633 9560 15775 1 149.00000 418.400000
14634 9561 18100 1 149.00000 418.400000
14634 9562 21748 1 149.00000 418.400000
15003 9563 16994 1 149.00000 418.400000
14635 9564 15016 1 149.00000 418.400000
14636 9565 16426 1 149.00000 418.400000
14636 9566 16239 1 149.00000 418.400000
14557 9567 15544 1 149.00000 418.400000
13964 9568 17568 1 149.00000 418.400000
14638 9569 15611 1 149.00000 418.400000
14638 9570 15140 1 149.00000 418.400000
14639 9571 15103 1 149.00000 418.400000
14641 9572 15242 1 149.00000 418.400000
14642 9573 15985 1 149.00000 418.400000
14643 9574 15492 1 149.00000 418.400000
14643 9575 19486 1 149.00000 418.400000
14644 9576 21925 1 149.00000 418.400000
14644 9577 16525 1 149.00000 418.400000
14645 9578 19918 1 149.00000 418.400000
14646 9579 15161 1 149.00000 418.400000
14647 9580 16570 1 149.00000 418.400000
14648 9581 21805 1 149.00000 418.400000
14648 9582 15858 1 149.00000 418.400000
14648 9583 22049 1 149.00000 418.400000
14651 9584 16353 1 149.00000 418.400000
14651 9585 15847 1 149.00000 418.400000
14652 9586 16395 1 149.00000 418.400000
14653 9587 16121 1 149.00000 418.400000
14654 9588 16314 1 149.00000 418.400000
14654 9589 16313 1 149.00000 418.400000
14654 9590 15517 1 149.00000 418.400000
14656 9591 14990 1 149.00000 418.400000
14656 9592 15044 1 149.00000 418.400000
14657 9593 15858 1 149.00000 418.400000
14657 9594 15723 1 149.00000 418.400000
14658 9595 16007 1 149.00000 418.400000
14658 9596 14737 1 149.00000 418.400000
15300 9597 16007 1 149.00000 418.400000
14659 9598 14759 1 149.00000 418.400000
14659 9599 16123 1 149.00000 418.400000
14660 9600 15862 1 149.00000 418.400000
14903 9601 21670 1 149.00000 418.400000
21670 9602 21760 1 149.00000 418.400000
14661 9603 21724 1 149.00000 418.400000
14662 9604 16073 1 149.00000 418.400000
14662 9605 14808 1 149.00000 418.400000
14663 9606 15839 1 149.00000 418.400000
14664 9607 15646 1 149.00000 418.400000
14664 9608 15916 1 149.00000 418.400000
14665 9609 16175 1 149.00000 418.400000
16175 9610 16198 1 149.00000 418.400000
16080 9611 16175 1 149.00000 418.400000
14666 9612 16261 1 149.00000 418.400000
14666 9613 15672 1 149.00000 418.400000
14667 9614 15362 1 149.00000 418.400000
14667 9615 15700 1 149.00000 418.400000
14669 9616 15684 1 149.00000 418.400000
14669 9617 16484 1 149.00000 418.400000
14670 9618 15865 1 149.00000 418.400000
14671 9619 15382 1 149.00000 418.400000
14672 9620 16518 1 149.00000 418.400000
12767 9621 15076 1 149.00000 418.400000
17288 9622 22024 1 149.00000 418.400000
14676 9623 16232 1 149.00000 418.400000
14676 9624 16213 1 149.00000 418.400000
14676 9625 16028 1 149.00000 418.400000
14678 9626 16265 1 149.00000 418.400000
14678 9627 15448 1 149.00000 418.400000
14678 9628 15480 1 149.00000 418.400000
14678 9629 14763 1 149.00000 418.400000
14679 9630 16174 1 149.00000 418.400000
14679 9631 14994 1 149.00000 418.400000
14680 9632 15742 1 149.00000 418.400000
15562 9633 15742 1 149.00000 418.400000
14680 9634 16553 1 149.00000 418.400000
14681 9635 15070 1 149.00000 418.400000
14681 9636 15142 1 149.00000 418.400000
14682 9637 15728 1 149.00000 418.400000
14683 9638 16469 1 149.00000 418.400000
14683 9639 16555 1 149.00000 418.400000
14684 9640 15245 1 149.00000 418.400000
14685 9641 14993 1 149.00000 418.400000
14686 9642 19486 1 149.00000 418.400000
14686 9643 19330 1 149.00000 418.400000
14687 9644 16370 1 149.00000 418.400000
14687 9645 16101 1 149.00000 418.400000
14688 9646 16053 1 149.00000 418.400000
14688 9647 15892 1 149.00000 418.400000
18254 9648 21676 1 149.00000 418.400000
14690 9649 15806 1 149.00000 418.400000
14690 9650 16055 1 149.00000 418.400000
14690 9651 16247 1 149.00000 418.400000
14691 9652 21817 1 149.00000 418.400000
15324 9653 20290 1 149.00000 418.400000
15941 9654 19138 1 149.00000 418.400000
15596 9655 15790 1 149.00000 418.400000
14694 9656 15790 1 149.00000 418.400000
14695 9657 15370 1 149.00000 418.400000
14696 9658 15624 1 149.00000 418.400000
14696 9659 15308 1 149.00000 418.400000
14696 9660 16255 1 149.00000 418.400000
14697 9661 15903 1 149.00000 418.400000
14697 9662 15122 1 149.00000 418.400000
14697 9663 14782 1 149.00000 418.400000
14698 9664 16099 1 149.00000 418.400000
14699 9665 19306 1 149.00000 418.400000
14699 9666 15082 1 149.00000 418.400000
14700 9667 16019 1 149.00000 418.400000
14700 9668 16189 1 149.00000 418.400000
14700 9669 14856 1 149.00000 418.400000
14700 9670 15697 1 149.00000 418.400000
14701 9671 14905 1 149.00000 418.400000
17862 9672 19978 1 149.00000 418.400000
14702 9673 16425 1 149.00000 418.400000
14703 9674 14998 1 149.00000 418.400000
14704 9675 16038 1 149.00000 418.400000
14705 9676 14847 1 149.00000 418.400000
14706 9677 15508 1 149.00000 418.400000
14706 9678 15206 1 149.00000 418.400000
14706 9679 21781 1 149.00000 418.400000
14707 9680 16456 1 149.00000 418.400000
14707 9681 15097 1 149.00000 418.400000
14707 9682 15231 1 149.00000 418.400000
14708 9683 16516 1 149.00000 418.400000
14709 9684 15102 1 149.00000 418.400000
14710 9685 15775 1 149.00000 418.400000
14710 9686 15521 1 149.00000 418.400000
15783 9687 16548 1 149.00000 418.400000
14711 9688 16548 1 149.00000 418.400000
14712 9689 16240 1 149.00000 418.400000
18742 9690 21682 1 149.00000 418.400000
14713 9691 18282 1 149.00000 418.400000
14714 9692 16187 1 149.00000 418.400000
14715 9693 16535 1 149.00000 418.400000
14716 9694 14934 1 149.00000 418.400000
14716 9695 15525 1 149.00000 418.400000
14717 9696 16514 1 149.00000 418.400000
14717 9697 15679 1 149.00000 418.400000
14718 9698 15122 1 149.00000 418.400000
14719 9699 15616 1 149.00000 418.400000
14719 9700 16247 1 149.00000 418.400000
14719 9701 20206 1 149.00000 418.400000
14720 9702 14738 1 149.00000 418.400000
14720 9703 15411 1 149.00000 418.400000
14720 9704 15994 1 149.00000 418.400000
14721 9705 16029 1 149.00000 418.400000
14721 9706 15912 1 149.00000 418.400000
14888 9707 16029 1 149.00000 418.400000
14722 9708 15930 1 149.00000 418.400000
11714 9709 14723 1 149.00000 418.400000
14724 9710 15738 1 149.00000 418.400000
14724 9711 15681 1 149.00000 418.400000
14725 9712 15121 1 149.00000 418.400000
14725 9713 15287 1 149.00000 418.400000
14726 9714 15961 1 149.00000 418.400000
14726 9715 15703 1 149.00000 418.400000
14727 9716 16596 1 149.00000 418.400000
14727 9717 14976 1 149.00000 418.400000
14728 9718 14734 1 149.00000 418.400000
14729 9719 15827 1 149.00000 418.400000
14729 9720 15283 1 149.00000 418.400000
14729 9721 14918 1 149.00000 418.400000
14731 9722 15238 1 149.00000 418.400000
14731 9723 15968 1 149.00000 418.400000
14733 9724 15839 1 149.00000 418.400000
14734 9725 14990 1 149.00000 418.400000
14735 9726 16044 1 149.00000 418.400000
11866 9727 19990 1 149.00000 418.400000
14736 9728 15738 1 149.00000 418.400000
15353 9729 15641 1 149.00000 418.400000
14737 9730 15641 1 149.00000 418.400000
14739 9731 15708 1 149.00000 418.400000
14740 9732 15533 1 149.00000 418.400000
14740 9733 16083 1 149.00000 418.400000
14740 9734 21844 1 149.00000 418.400000
14740 9735 16442 1 149.00000 418.400000
14741 9736 15025 1 149.00000 418.400000
14741 9737 15471 1 149.00000 418.400000
14741 9738 15518 1 149.00000 418.400000
14742 9739 15644 1 149.00000 418.400000
12976 9740 19210 1 149.00000 418.400000
14744 9741 15575 1 149.00000 418.400000
14745 9742 15387 1 149.00000 418.400000
14745 9743 15879 1 149.00000 418.400000
14746 9744 15936 1 149.00000 418.400000
14746 9745 16172 1 149.00000 418.400000
14747 9746 15623 1 149.00000 418.400000
14747 9747 15800 1 149.00000 418.400000
14748 9748 16529 1 149.00000 418.400000
14749 9749 16536 1 149.00000 418.400000
14749 9750 21154 1 149.00000 418.400000
14750 9751 21781 1 149.00000 418.400000
14750 9752 15656 1 149.00000 418.400000
14750 9753 15415 1 149.00000 418.400000
14751 9754 15131 1 149.00000 418.400000
14752 9755 21694 1 149.00000 418.400000
14752 9756 16126 1 149.00000 418.400000
14756 9757 15179 1 149.00000 418.400000
14756 9758 15047 1 149.00000 418.400000
14877 9759 15488 1 149.00000 418.400000
14758 9760 14877 1 149.00000 418.400000
14759 9761 14779 1 149.00000 418.400000
14760 9762 16421 1 149.00000 418.400000
14760 9763 15344 1 149.00000 418.400000
14786 9764 17904 1 149.00000 418.400000
15447 9765 17904 1 149.00000 418.400000
14761 9766 21799 1 149.00000 418.400000
14762 9767 15233 1 149.00000 418.400000
14762 9768 18466 1 149.00000 418.400000
14763 9769 14842 1 149.00000 418.400000
14763 9770 15573 1 149.00000 418.400000
14764 9771 16567 1 149.00000 418.400000
14764 9772 15860 1 149.00000 418.400000
14766 9773 15507 1 149.00000 418.400000
15966 9774 21694 1 149.00000 418.400000
14767 9775 15848 1 149.00000 418.400000
14768 9776 16520 1 149.00000 418.400000
14525 9777 15270 1 149.00000 418.400000
14769 9778 16012 1 149.00000 418.400000
14769 9779 15546 1 149.00000 418.400000
14770 9780 16258 1 149.00000 418.400000
14771 9781 16076 1 149.00000 418.400000
14771 9782 16404 1 149.00000 418.400000
14772 9783 16410 1 149.00000 418.400000
14772 9784 14920 1 149.00000 418.400000
14772 9785 15597 1 149.00000 418.400000
14773 9786 16041 1 149.00000 418.400000
14774 9787 14841 1 149.00000 418.400000
13236 9788 14774 1 149.00000 418.400000
14775 9789 15853 1 149.00000 418.400000
14776 9790 16267 1 149.00000 418.400000
14776 9791 15484 1 149.00000 418.400000
14776 9792 14966 1 149.00000 418.400000
14779 9793 16618 1 149.00000 418.400000
14780 9794 16066 1 149.00000 418.400000
14780 9795 15737 1 149.00000 418.400000
14781 9796 15124 1 149.00000 418.400000
11436 9797 14781 1 149.00000 418.400000
14783 9798 15332 1 149.00000 418.400000
14783 9799 15576 1 149.00000 418.400000
14785 9800 15072 1 149.00000 418.400000
14785 9801 15557 1 149.00000 418.400000
14786 9802 15176 1 149.00000 418.400000
14786 9803 15337 1 149.00000 418.400000
14788 9804 15686 1 149.00000 418.400000
14790 9805 14938 1 149.00000 418.400000
16594 9806 19306 1 149.00000 418.400000
14792 9807 16554 1 149.00000 418.400000
14793 9808 16331 1 149.00000 418.400000
14794 9809 14876 1 149.00000 418.400000
14794 9810 15510 1 149.00000 418.400000
14795 9811 14836 1 149.00000 418.400000
14795 9812 16531 1 149.00000 418.400000
14796 9813 14804 1 149.00000 418.400000
14796 9814 16450 1 149.00000 418.400000
14796 9815 15746 1 149.00000 418.400000
14797 9816 14928 1 149.00000 418.400000
13543 9817 14798 1 149.00000 418.400000
14798 9818 16219 1 149.00000 418.400000
14799 9819 15853 1 149.00000 418.400000
14799 9820 16011 1 149.00000 418.400000
14801 9821 15192 1 149.00000 418.400000
14802 9822 14950 1 149.00000 418.400000
14802 9823 15011 1 149.00000 418.400000
14803 9824 15101 1 149.00000 418.400000
16280 9825 18212 1 149.00000 418.400000
14804 9826 16246 1 149.00000 418.400000
14805 9827 21880 1 149.00000 418.400000
14805 9828 21760 1 149.00000 418.400000
14806 9829 15896 1 149.00000 418.400000
14806 9830 15177 1 149.00000 418.400000
14807 9831 16315 1 149.00000 418.400000
14807 9832 15923 1 149.00000 418.400000
14807 9833 16436 1 149.00000 418.400000
14808 9834 15702 1 149.00000 418.400000
14809 9835 20542 1 149.00000 418.400000
14810 9836 14981 1 149.00000 418.400000
13824 9837 14810 1 149.00000 418.400000
14810 9838 15342 1 149.00000 418.400000
13000 9839 14812 1 149.00000 418.400000
14812 9840 15432 1 149.00000 418.400000
14813 9841 15184 1 149.00000 418.400000
14813 9842 14897 1 149.00000 418.400000
14815 9843 14991 1 149.00000 418.400000
14815 9844 20458 1 149.00000 418.400000
14817 9845 16418 1 149.00000 418.400000
11622 9846 14817 1 149.00000 418.400000
11448 9847 14817 1 149.00000 418.400000
14818 9848 15115 1 149.00000 418.400000
14819 9849 15614 1 149.00000 418.400000
14819 9850 16497 1 149.00000 418.400000
14820 9851 15911 1 149.00000 418.400000
14821 9852 22039 1 149.00000 418.400000
14821 9853 16522 1 149.00000 418.400000
14822 9854 16582 1 149.00000 418.400000
14824 9855 15985 1 149.00000 418.400000
14824 9856 14936 1 149.00000 418.400000
14825 9857 16279 1 149.00000 418.400000
14826 9858 14875 1 149.00000 418.400000
14826 9859 19726 1 149.00000 418.400000
14827 9860 15706 1 149.00000 418.400000
14827 9861 15517 1 149.00000 418.400000
14828 9862 16216 1 149.00000 418.400000
14828 9863 16220 1 149.00000 418.400000
14829 9864 15002 1 149.00000 418.400000
14830 9865 15063 1 149.00000 418.400000
14830 9866 15764 1 149.00000 418.400000
14831 9867 15503 1 149.00000 418.400000
14831 9868 16474 1 149.00000 418.400000
14831 9869 15624 1 149.00000 418.400000
14832 9870 15031 1 149.00000 418.400000
14833 9871 16008 1 149.00000 418.400000
14833 9872 16177 1 149.00000 418.400000
14834 9873 15425 1 149.00000 418.400000
14834 9874 15000 1 149.00000 418.400000
14835 9875 16477 1 149.00000 418.400000
14835 9876 15795 1 149.00000 418.400000
14836 9877 18454 1 149.00000 418.400000
14836 9878 15531 1 149.00000 418.400000
14837 9879 15558 1 149.00000 418.400000
14839 9880 16504 1 149.00000 418.400000
14839 9881 15574 1 149.00000 418.400000
14840 9882 15602 1 149.00000 418.400000
14840 9883 15505 1 149.00000 418.400000
14841 9884 14997 1 149.00000 418.400000
14844 9885 16583 1 149.00000 418.400000
14847 9886 16580 1 149.00000 418.400000
13038 9887 15406 1 149.00000 418.400000
14849 9888 16144 1 149.00000 418.400000
13038 9889 14849 1 149.00000 418.400000
14850 9890 16240 1 149.00000 418.400000
14850 9891 16388 1 149.00000 418.400000
12831 9892 14850 1 149.00000 418.400000
14851 9893 15114 1 149.00000 418.400000
14851 9894 16008 1 149.00000 418.400000
14852 9895 16332 1 149.00000 418.400000
14853 9896 15244 1 149.00000 418.400000
14854 9897 16581 1 149.00000 418.400000
14854 9898 15353 1 149.00000 418.400000
14855 9899 21859 1 149.00000 418.400000
14857 9900 15440 1 149.00000 418.400000
14857 9901 15904 1 149.00000 418.400000
14857 9902 14883 1 149.00000 418.400000
14858 9903 21082 1 149.00000 418.400000
14858 9904 15156 1 149.00000 418.400000
14858 9905 15823 1 149.00000 418.400000
14859 9906 15283 1 149.00000 418.400000
14859 9907 16208 1 149.00000 418.400000
14860 9908 15338 1 149.00000 418.400000
14860 9909 15455 1 149.00000 418.400000
15163 9910 21154 1 149.00000 418.400000
14862 9911 15830 1 149.00000 418.400000
14863 9912 16397 1 149.00000 418.400000
14864 9913 16057 1 149.00000 418.400000
14867 9914 15724 1 149.00000 418.400000
14867 9915 15066 1 149.00000 418.400000
14868 9916 15055 1 149.00000 418.400000
14869 9917 16244 1 149.00000 418.400000
14869 9918 15094 1 149.00000 418.400000
14870 9919 15409 1 149.00000 418.400000
14870 9920 16019 1 149.00000 418.400000
14871 9921 16021 1 149.00000 418.400000
14221 9922 14872 1 149.00000 418.400000
12862 9923 16584 1 149.00000 418.400000
14873 9924 16487 1 149.00000 418.400000
14873 9925 15111 1 149.00000 418.400000
14874 9926 15531 1 149.00000 418.400000
14875 9927 20446 1 149.00000 418.400000
14876 9928 16156 1 149.00000 418.400000
14879 9929 15504 1 149.00000 418.400000
14880 9930 16076 1 149.00000 418.400000
14881 9931 16269 1 149.00000 418.400000
14881 9932 15549 1 149.00000 418.400000
14882 9933 16143 1 149.00000 418.400000
14883 9934 15200 1 149.00000 418.400000
14884 9935 14936 1 149.00000 418.400000
14885 9936 15666 1 149.00000 418.400000
14885 9937 15567 1 149.00000 418.400000
13540 9938 14886 1 149.00000 418.400000
12373 9939 14887 1 149.00000 418.400000
14151 9940 15203 1 149.00000 418.400000
14888 9941 16192 1 149.00000 418.400000
14888 9942 14978 1 149.00000 418.400000
14890 9943 15195 1 149.00000 418.400000
14891 9944 15677 1 149.00000 418.400000
14892 9945 16024 1 149.00000 418.400000
14892 9946 15333 1 149.00000 418.400000
14893 9947 15888 1 149.00000 418.400000
14893 9948 15357 1 149.00000 418.400000
15662 9949 21706 1 149.00000 418.400000
19018 9950 21706 1 149.00000 418.400000
14894 9951 15770 1 149.00000 418.400000
14894 9952 15675 1 149.00000 418.400000
14894 9953 15661 1 149.00000 418.400000
14894 9954 15762 1 149.00000 418.400000
11594 9955 15509 1 149.00000 418.400000
14897 9956 14984 1 149.00000 418.400000
14898 9957 15866 1 149.00000 418.400000
14899 9958 15834 1 149.00000 418.400000
14900 9959 16278 1 149.00000 418.400000
14900 9960 16369 1 149.00000 418.400000
14901 9961 15725 1 149.00000 418.400000
14902 9962 16260 1 149.00000 418.400000
14902 9963 14950 1 149.00000 418.400000
14903 9964 15627 1 149.00000 418.400000
14904 9965 14922 1 149.00000 418.400000
14904 9966 16337 1 149.00000 418.400000
14905 9967 15127 1 149.00000 418.400000
14906 9968 15207 1 149.00000 418.400000
14665 9969 14906 1 149.00000 418.400000
14907 9970 15443 1 149.00000 418.400000
14909 9971 21946 1 149.00000 418.400000
14909 9972 15204 1 149.00000 418.400000
14910 9973 15714 1 149.00000 418.400000
13770 9974 14911 1 149.00000 418.400000
14911 9975 15245 1 149.00000 418.400000
14912 9976 15939 1 149.00000 418.400000
14913 9977 15795 1 149.00000 418.400000
16357 9978 21223 1 149.00000 418.400000
13694 9979 14915 1 149.00000 418.400000
14915 9980 15086 1 149.00000 418.400000
13272 9981 15022 1 149.00000 418.400000
14917 9982 16268 1 149.00000 418.400000
14918 9983 15369 1 149.00000 418.400000
14919 9984 15716 1 149.00000 418.400000
14919 9985 15915 1 149.00000 418.400000
14920 9986 16557 1 149.00000 418.400000
14923 9987 15660 1 149.00000 418.400000
14924 9988 15382 1 149.00000 418.400000
14924 9989 15877 1 149.00000 418.400000
19030 9990 21835 1 149.00000 418.400000
14925 9991 22029 1 149.00000 418.400000
14925 9992 21847 1 149.00000 418.400000
18850 9993 20518 1 149.00000 418.400000
15483 9994 15836 1 149.00000 418.400000
15836 9995 18850 1 149.00000 418.400000
14926 9996 16033 1 149.00000 418.400000
14929 9997 15584 1 149.00000 418.400000
14929 9998 15947 1 149.00000 418.400000
12774 9999 14930 1 149.00000 418.400000
14930 10000 15019 1 149.00000 418.400000
14930 10001 15874 1 149.00000 418.400000
14932 10002 15520 1 149.00000 418.400000
14932 10003 15635 1 149.00000 418.400000
14932 10004 19918 1 149.00000 418.400000
14933 10005 16246 1 149.00000 418.400000
14933 10006 15361 1 149.00000 418.400000
14934 10007 16492 1 149.00000 418.400000
14935 10008 15465 1 149.00000 418.400000
14936 10009 15413 1 149.00000 418.400000
14937 10010 15028 1 149.00000 418.400000
14937 10011 16513 1 149.00000 418.400000
15058 10012 21712 1 149.00000 418.400000
14939 10013 15940 1 149.00000 418.400000
14939 10014 15501 1 149.00000 418.400000
14940 10015 15257 1 149.00000 418.400000
14941 10016 16042 1 149.00000 418.400000
14941 10017 16252 1 149.00000 418.400000
14942 10018 16024 1 149.00000 418.400000
14942 10019 15529 1 149.00000 418.400000
14942 10020 15974 1 149.00000 418.400000
14943 10021 15040 1 149.00000 418.400000
13191 10022 14944 1 149.00000 418.400000
14944 10023 16357 1 149.00000 418.400000
13191 10024 16512 1 149.00000 418.400000
14945 10025 15893 1 149.00000 418.400000
14946 10026 16272 1 149.00000 418.400000
14947 10027 15247 1 149.00000 418.400000
14018 10028 14947 1 149.00000 418.400000
14949 10029 15534 1 149.00000 418.400000
14951 10030 16206 1 149.00000 418.400000
14952 10031 15163 1 149.00000 418.400000
15394 10032 20626 1 149.00000 418.400000
14953 10033 17428 1 149.00000 418.400000
21715 10034 21751 1 149.00000 418.400000
15499 10035 21715 1 149.00000 418.400000
21715 10036 21946 1 149.00000 418.400000
14957 10037 16600 1 149.00000 418.400000
12512 10038 14957 1 149.00000 418.400000
14958 10039 16460 1 149.00000 418.400000
14959 10040 15145 1 149.00000 418.400000
14960 10041 16204 1 149.00000 418.400000
14961 10042 15890 1 149.00000 418.400000
14961 10043 16359 1 149.00000 418.400000
14963 10044 16404 1 149.00000 418.400000
14963 10045 15917 1 149.00000 418.400000
18910 10046 21904 1 149.00000 418.400000
16241 10047 18910 1 149.00000 418.400000
14964 10048 15154 1 149.00000 418.400000
14965 10049 21889 1 149.00000 418.400000
14965 10050 15619 1 149.00000 418.400000
14966 10051 15378 1 149.00000 418.400000
13088 10052 16531 1 149.00000 418.400000
14968 10053 19546 1 149.00000 418.400000
14969 10054 15135 1 149.00000 418.400000
13072 10055 15076 1 149.00000 418.400000
14971 10056 16542 1 149.00000 418.400000
14972 10057 16270 1 149.00000 418.400000
14972 10058 15928 1 149.00000 418.400000
14974 10059 16606 1 149.00000 418.400000
14974 10060 15812 1 149.00000 418.400000
14974 10061 16110 1 149.00000 418.400000
15514 10062 16446 1 149.00000 418.400000
13901 10063 21868 1 149.00000 418.400000
14977 10064 16127 1 149.00000 418.400000
14979 10065 16392 1 149.00000 418.400000
14979 10066 15774 1 149.00000 418.400000
14980 10067 16025 1 149.00000 418.400000
15442 10068 21718 1 149.00000 418.400000
17974 10069 21718 1 149.00000 418.400000
14984 10070 16152 1 149.00000 418.400000
14985 10071 15068 1 149.00000 418.400000
14986 10072 15326 1 149.00000 418.400000
14986 10073 16201 1 149.00000 418.400000
14987 10074 15949 1 149.00000 418.400000
12977 10075 19774 1 149.00000 418.400000
14988 10076 15470 1 149.00000 418.400000
14989 10077 16356 1 149.00000 418.400000
14989 10078 16408 1 149.00000 418.400000
14989 10079 16441 1 149.00000 418.400000
21493 10080 21850 1 149.00000 418.400000
15507 10081 19798 1 149.00000 418.400000
14523 10082 21811 1 149.00000 418.400000
16554 10083 17834 1 149.00000 418.400000
12858 10084 15927 1 149.00000 418.400000
16151 10085 20278 1 149.00000 418.400000
15212 10086 20278 1 149.00000 418.400000
14994 10087 19066 1 149.00000 418.400000
14995 10088 15131 1 149.00000 418.400000
14996 10089 15825 1 149.00000 418.400000
14997 10090 15239 1 149.00000 418.400000
14999 10091 16091 1 149.00000 418.400000
11672 10092 14999 1 149.00000 418.400000
15000 10093 16508 1 149.00000 418.400000
15000 10094 15041 1 149.00000 418.400000
15001 10095 16212 1 149.00000 418.400000
15001 10096 16242 1 149.00000 418.400000
15002 10097 15219 1 149.00000 418.400000
15007 10098 16344 1 149.00000 418.400000
15007 10099 15671 1 149.00000 418.400000
15007 10100 15718 1 149.00000 418.400000
15008 10101 16515 1 149.00000 418.400000
15009 10102 16470 1 149.00000 418.400000
15009 10103 16430 1 149.00000 418.400000
18442 10104 21742 1 149.00000 418.400000
12706 10105 15707 1 149.00000 418.400000
15013 10106 16495 1 149.00000 418.400000
15014 10107 16467 1 149.00000 418.400000
15015 10108 15645 1 149.00000 418.400000
15015 10109 16024 1 149.00000 418.400000
15016 10110 15036 1 149.00000 418.400000
15016 10111 15622 1 149.00000 418.400000
15017 10112 15118 1 149.00000 418.400000
15017 10113 15961 1 149.00000 418.400000
15018 10114 15038 1 149.00000 418.400000
15019 10115 16503 1 149.00000 418.400000
15019 10116 15071 1 149.00000 418.400000
15020 10117 16354 1 149.00000 418.400000
15020 10118 15037 1 149.00000 418.400000
13990 10119 16171 1 149.00000 418.400000
15022 10120 15064 1 149.00000 418.400000
15024 10121 15475 1 149.00000 418.400000
15025 10122 15595 1 149.00000 418.400000
15026 10123 15538 1 149.00000 418.400000
20422 10124 21721 1 149.00000 418.400000
15028 10125 15278 1 149.00000 418.400000
15028 10126 15598 1 149.00000 418.400000
15029 10127 16423 1 149.00000 418.400000
15030 10128 15970 1 149.00000 418.400000
15032 10129 15071 1 149.00000 418.400000
15032 10130 15968 1 149.00000 418.400000
15033 10131 15478 1 149.00000 418.400000
15034 10132 15599 1 149.00000 418.400000
15034 10133 15172 1 149.00000 418.400000
14121 10134 15034 1 149.00000 418.400000
15034 10135 15189 1 149.00000 418.400000
15035 10136 16065 1 149.00000 418.400000
15036 10137 15160 1 149.00000 418.400000
15037 10138 15859 1 149.00000 418.400000
15039 10139 15470 1 149.00000 418.400000
17218 10140 21724 1 149.00000 418.400000
15947 10141 21727 1 149.00000 418.400000
15042 10142 15474 1 149.00000 418.400000
16116 10143 17680 1 149.00000 418.400000
16106 10144 21730 1 149.00000 418.400000
15043 10145 15782 1 149.00000 418.400000
15043 10146 21862 1 149.00000 418.400000
15043 10147 15467 1 149.00000 418.400000
16613 10148 18490 1 149.00000 418.400000
15337 10149 18490 1 149.00000 418.400000
15350 10150 15866 1 149.00000 418.400000
15045 10151 15866 1 149.00000 418.400000
15046 10152 16574 1 149.00000 418.400000
15048 10153 15263 1 149.00000 418.400000
15048 10154 15624 1 149.00000 418.400000
15050 10155 15528 1 149.00000 418.400000
12733 10156 16482 1 149.00000 418.400000
15051 10157 16596 1 149.00000 418.400000
15052 10158 21082 1 149.00000 418.400000
15053 10159 15212 1 149.00000 418.400000
15054 10160 16208 1 149.00000 418.400000
15056 10161 15716 1 149.00000 418.400000
15056 10162 15198 1 149.00000 418.400000
15057 10163 16073 1 149.00000 418.400000
15057 10164 15226 1 149.00000 418.400000
15058 10165 17204 1 149.00000 418.400000
15060 10166 15358 1 149.00000 418.400000
15061 10167 15274 1 149.00000 418.400000
15062 10168 16587 1 149.00000 418.400000
15062 10169 16070 1 149.00000 418.400000
15063 10170 16275 1 149.00000 418.400000
15064 10171 15378 1 149.00000 418.400000
15065 10172 16373 1 149.00000 418.400000
15065 10173 15421 1 149.00000 418.400000
15066 10174 16592 1 149.00000 418.400000
15067 10175 15545 1 149.00000 418.400000
15067 10176 15165 1 149.00000 418.400000
15068 10177 16103 1 149.00000 418.400000
15069 10178 15770 1 149.00000 418.400000
15069 10179 15545 1 149.00000 418.400000
15069 10180 16588 1 149.00000 418.400000
15071 10181 15238 1 149.00000 418.400000
15071 10182 16111 1 149.00000 418.400000
15072 10183 16587 1 149.00000 418.400000
15072 10184 15811 1 149.00000 418.400000
16131 10185 21733 1 149.00000 418.400000
15073 10186 15538 1 149.00000 418.400000
15074 10187 16059 1 149.00000 418.400000
15074 10188 15466 1 149.00000 418.400000
15076 10189 15702 1 149.00000 418.400000
15077 10190 16183 1 149.00000 418.400000
15077 10191 16284 1 149.00000 418.400000
15078 10192 15765 1 149.00000 418.400000
13530 10193 15078 1 149.00000 418.400000
15079 10194 16237 1 149.00000 418.400000
16237 10195 21316 1 149.00000 418.400000
15080 10196 16603 1 149.00000 418.400000
15080 10197 15100 1 149.00000 418.400000
15081 10198 16294 1 149.00000 418.400000
16125 10199 21736 1 149.00000 418.400000
15082 10200 15708 1 149.00000 418.400000
15083 10201 15228 1 149.00000 418.400000
15083 10202 16619 1 149.00000 418.400000
15084 10203 15243 1 149.00000 418.400000
15085 10204 16038 1 149.00000 418.400000
15086 10205 15976 1 149.00000 418.400000
11996 10206 15088 1 149.00000 418.400000
15088 10207 15350 1 149.00000 418.400000
15088 10208 16088 1 149.00000 418.400000
15089 10209 15791 1 149.00000 418.400000
15089 10210 16152 1 149.00000 418.400000
15090 10211 15857 1 149.00000 418.400000
15090 10212 15797 1 149.00000 418.400000
18970 10213 21850 1 149.00000 418.400000
15091 10214 15253 1 149.00000 418.400000
15091 10215 16484 1 149.00000 418.400000
15092 10216 16251 1 149.00000 418.400000
15093 10217 15928 1 149.00000 418.400000
15094 10218 15589 1 149.00000 418.400000
15094 10219 15938 1 149.00000 418.400000
15095 10220 15327 1 149.00000 418.400000
15095 10221 15246 1 149.00000 418.400000
15095 10222 21934 1 149.00000 418.400000
15096 10223 15958 1 149.00000 418.400000
15097 10224 15666 1 149.00000 418.400000
15098 10225 16396 1 149.00000 418.400000
15098 10226 16599 1 149.00000 418.400000
15098 10227 16182 1 149.00000 418.400000
15099 10228 16256 1 149.00000 418.400000
15100 10229 16621 1 149.00000 418.400000
16163 10230 20710 1 149.00000 418.400000
15101 10231 15719 1 149.00000 418.400000
15102 10232 15264 1 149.00000 418.400000
15102 10233 15408 1 149.00000 418.400000
15103 10234 16505 1 149.00000 418.400000
15103 10235 16322 1 149.00000 418.400000
15104 10236 16122 1 149.00000 418.400000
15104 10237 15677 1 149.00000 418.400000
13238 10238 18886 1 149.00000 418.400000
18886 10239 20650 1 149.00000 418.400000
15106 10240 15824 1 149.00000 418.400000
15106 10241 15804 1 149.00000 418.400000
15107 10242 15948 1 149.00000 418.400000
15107 10243 15399 1 149.00000 418.400000
15108 10244 16622 1 149.00000 418.400000
15110 10245 16506 1 149.00000 418.400000
15111 10246 15550 1 149.00000 418.400000
15112 10247 15603 1 149.00000 418.400000
13626 10248 15113 1 149.00000 418.400000
15113 10249 16297 1 149.00000 418.400000
15114 10250 15259 1 149.00000 418.400000
15115 10251 15453 1 149.00000 418.400000
15115 10252 15399 1 149.00000 418.400000
15116 10253 15185 1 149.00000 418.400000
15116 10254 15242 1 149.00000 418.400000
15118 10255 16575 1 149.00000 418.400000
15119 10256 16601 1 149.00000 418.400000
15119 10257 15454 1 149.00000 418.400000
15121 10258 16586 1 149.00000 418.400000
14725 10259 15712 1 149.00000 418.400000
15123 10260 16080 1 149.00000 418.400000
15123 10261 16435 1 149.00000 418.400000
15124 10262 15423 1 149.00000 418.400000
15125 10263 15249 1 149.00000 418.400000
15125 10264 16368 1 149.00000 418.400000
15201 10265 21739 1 149.00000 418.400000
14822 10266 15126 1 149.00000 418.400000
15126 10267 15764 1 149.00000 418.400000
15127 10268 15733 1 149.00000 418.400000
15127 10269 15877 1 149.00000 418.400000
15129 10270 21742 1 149.00000 418.400000
15129 10271 15266 1 149.00000 418.400000
14007 10272 16512 1 149.00000 418.400000
15130 10273 16162 1 149.00000 418.400000
15133 10274 16585 1 149.00000 418.400000
11438 10275 16050 1 149.00000 418.400000
15490 10276 18296 1 149.00000 418.400000
15135 10277 15899 1 149.00000 418.400000
15135 10278 15278 1 149.00000 418.400000
15137 10279 16228 1 149.00000 418.400000
15137 10280 16597 1 149.00000 418.400000
15138 10281 15181 1 149.00000 418.400000
15140 10282 15861 1 149.00000 418.400000
15140 10283 15186 1 149.00000 418.400000
15141 10284 16385 1 149.00000 418.400000
12603 10285 16275 1 149.00000 418.400000
15143 10286 19750 1 149.00000 418.400000
15145 10287 16500 1 149.00000 418.400000
15146 10288 16312 1 149.00000 418.400000
15147 10289 15351 1 149.00000 418.400000
11925 10290 13010 1 149.00000 418.400000
15148 10291 15279 1 149.00000 418.400000
15151 10292 16617 1 149.00000 418.400000
15152 10293 15231 1 149.00000 418.400000
15152 10294 16269 1 149.00000 418.400000
15153 10295 15403 1 149.00000 418.400000
14032 10296 15154 1 149.00000 418.400000
15160 10297 16624 1 149.00000 418.400000
15160 10298 16597 1 149.00000 418.400000
15162 10299 16414 1 149.00000 418.400000
15166 10300 15781 1 149.00000 418.400000
15166 10301 16078 1 149.00000 418.400000
15589 10302 15781 1 149.00000 418.400000
15167 10303 16151 1 149.00000 418.400000
15168 10304 15390 1 149.00000 418.400000
15169 10305 16095 1 149.00000 418.400000
16171 10306 18802 1 149.00000 418.400000
18538 10307 18802 1 149.00000 418.400000
15171 10308 16129 1 149.00000 418.400000
15172 10309 16597 1 149.00000 418.400000
15172 10310 16228 1 149.00000 418.400000
15173 10311 15273 1 149.00000 418.400000
15173 10312 15438 1 149.00000 418.400000
15174 10313 16146 1 149.00000 418.400000
15422 10314 18778 1 149.00000 418.400000
14325 10315 15175 1 149.00000 418.400000
15175 10316 15424 1 149.00000 418.400000
15176 10317 16561 1 149.00000 418.400000
15178 10318 16096 1 149.00000 418.400000
15178 10319 16082 1 149.00000 418.400000
15178 10320 15922 1 149.00000 418.400000
15179 10321 15829 1 149.00000 418.400000
15179 10322 15590 1 149.00000 418.400000
15181 10323 15459 1 149.00000 418.400000
15184 10324 15706 1 149.00000 418.400000
15185 10325 15582 1 149.00000 418.400000
15185 10326 15635 1 149.00000 418.400000
15186 10327 15659 1 149.00000 418.400000
15187 10328 15504 1 149.00000 418.400000
18718 10329 19966 1 149.00000 418.400000
16304 10330 18394 1 149.00000 418.400000
15188 10331 15359 1 149.00000 418.400000
12292 10332 15188 1 149.00000 418.400000
15190 10333 16001 1 149.00000 418.400000
15191 10334 15894 1 149.00000 418.400000
15191 10335 15244 1 149.00000 418.400000
15193 10336 15517 1 149.00000 418.400000
15194 10337 15914 1 149.00000 418.400000
15194 10338 16075 1 149.00000 418.400000
15754 10339 16191 1 149.00000 418.400000
15196 10340 15754 1 149.00000 418.400000
15197 10341 15595 1 149.00000 418.400000
15198 10342 15476 1 149.00000 418.400000
15198 10343 16150 1 149.00000 418.400000
15199 10344 16625 1 149.00000 418.400000
15199 10345 15281 1 149.00000 418.400000
15200 10346 16086 1 149.00000 418.400000
15201 10347 16544 1 149.00000 418.400000
15202 10348 15939 1 149.00000 418.400000
15203 10349 15795 1 149.00000 418.400000
15204 10350 16602 1 149.00000 418.400000
15207 10351 16435 1 149.00000 418.400000
15207 10352 15558 1 149.00000 418.400000
15207 10353 16511 1 149.00000 418.400000
15208 10354 16194 1 149.00000 418.400000
15209 10355 17806 1 149.00000 418.400000
16507 10356 21448 1 149.00000 418.400000
15212 10357 16178 1 149.00000 418.400000
15213 10358 15271 1 149.00000 418.400000
15213 10359 16449 1 149.00000 418.400000
15215 10360 16615 1 149.00000 418.400000
15215 10361 15485 1 149.00000 418.400000
15215 10362 15636 1 149.00000 418.400000
15216 10363 16412 1 149.00000 418.400000
15216 10364 16083 1 149.00000 418.400000
15216 10365 15967 1 149.00000 418.400000
15217 10366 16291 1 149.00000 418.400000
15217 10367 15983 1 149.00000 418.400000
15218 10368 16523 1 149.00000 418.400000
15218 10369 15552 1 149.00000 418.400000
13878 10370 15219 1 149.00000 418.400000
15219 10371 16494 1 149.00000 418.400000
15220 10372 16079 1 149.00000 418.400000
15220 10373 15376 1 149.00000 418.400000
15220 10374 16545 1 149.00000 418.400000
15220 10375 16520 1 149.00000 418.400000
15223 10376 15881 1 149.00000 418.400000
15224 10377 16444 1 149.00000 418.400000
15225 10378 16168 1 149.00000 418.400000
15225 10379 16204 1 149.00000 418.400000
15225 10380 15404 1 149.00000 418.400000
15226 10381 15798 1 149.00000 418.400000
15226 10382 15455 1 149.00000 418.400000
15227 10383 15316 1 149.00000 418.400000
15228 10384 15540 1 149.00000 418.400000
15229 10385 18718 1 149.00000 418.400000
15229 10386 16447 1 149.00000 418.400000
15230 10387 16137 1 149.00000 418.400000
15230 10388 15967 1 149.00000 418.400000
15236 10389 16170 1 149.00000 418.400000
15236 10390 15819 1 149.00000 418.400000
15240 10391 16588 1 149.00000 418.400000
15241 10392 15746 1 149.00000 418.400000
15241 10393 16284 1 149.00000 418.400000
15241 10394 16372 1 149.00000 418.400000
15243 10395 15992 1 149.00000 418.400000
15247 10396 15600 1 149.00000 418.400000
17484 10397 18338 1 149.00000 418.400000
15248 10398 15371 1 149.00000 418.400000
15250 10399 15678 1 149.00000 418.400000
15251 10400 15697 1 149.00000 418.400000
13523 10401 16186 1 149.00000 418.400000
15253 10402 16621 1 149.00000 418.400000
15254 10403 15845 1 149.00000 418.400000
15254 10404 15710 1 149.00000 418.400000
15255 10405 15759 1 149.00000 418.400000
14059 10406 15255 1 149.00000 418.400000
14056 10407 15332 1 149.00000 418.400000
15257 10408 15268 1 149.00000 418.400000
15258 10409 21793 1 149.00000 418.400000
15259 10410 15263 1 149.00000 418.400000
15260 10411 16224 1 149.00000 418.400000
15261 10412 15591 1 149.00000 418.400000
15262 10413 21082 1 149.00000 418.400000
13671 10414 15262 1 149.00000 418.400000
15263 10415 16283 1 149.00000 418.400000
15265 10416 15833 1 149.00000 418.400000
15265 10417 15523 1 149.00000 418.400000
15266 10418 15553 1 149.00000 418.400000
15268 10419 16431 1 149.00000 418.400000
15268 10420 16414 1 149.00000 418.400000
15269 10421 15290 1 149.00000 418.400000
11629 10422 16169 1 149.00000 418.400000
15273 10423 15563 1 149.00000 418.400000
15275 10424 16276 1 149.00000 418.400000
15276 10425 19822 1 149.00000 418.400000
15277 10426 15889 1 149.00000 418.400000
15279 10427 16028 1 149.00000 418.400000
15280 10428 15347 1 149.00000 418.400000
15280 10429 16216 1 149.00000 418.400000
15281 10430 15461 1 149.00000 418.400000
15281 10431 15541 1 149.00000 418.400000
15282 10432 15473 1 149.00000 418.400000
15287 10433 17694 1 149.00000 418.400000
15289 10434 16020 1 149.00000 418.400000
16059 10435 19810 1 149.00000 418.400000
16463 10436 19810 1 149.00000 418.400000
15293 10437 15802 1 149.00000 418.400000
15293 10438 15314 1 149.00000 418.400000
15293 10439 19930 1 149.00000 418.400000
15293 10440 16686 1 149.00000 418.400000
15294 10441 21829 1 149.00000 418.400000
15294 10442 16093 1 149.00000 418.400000
15295 10443 15907 1 149.00000 418.400000
15296 10444 16001 1 149.00000 418.400000
15296 10445 16292 1 149.00000 418.400000
15297 10446 16479 1 149.00000 418.400000
15298 10447 15373 1 149.00000 418.400000
15299 10448 15703 1 149.00000 418.400000
15300 10449 16576 1 149.00000 418.400000
15300 10450 20518 1 149.00000 418.400000
15301 10451 15355 1 149.00000 418.400000
15301 10452 16118 1 149.00000 418.400000
15301 10453 15884 1 149.00000 418.400000
15303 10454 16491 1 149.00000 418.400000
15303 10455 16502 1 149.00000 418.400000
15305 10456 15928 1 149.00000 418.400000
15306 10457 21883 1 149.00000 418.400000
15307 10458 16092 1 149.00000 418.400000
14352 10459 15805 1 149.00000 418.400000
15308 10460 16010 1 149.00000 418.400000
15680 10461 21748 1 149.00000 418.400000
16106 10462 21748 1 149.00000 418.400000
21751 10463 22049 1 149.00000 418.400000
15310 10464 15820 1 149.00000 418.400000
15312 10465 16562 1 149.00000 418.400000
15313 10466 16061 1 149.00000 418.400000
14722 10467 15313 1 149.00000 418.400000
12336 10468 15314 1 149.00000 418.400000
15315 10469 16026 1 149.00000 418.400000
15317 10470 15769 1 149.00000 418.400000
12969 10471 15318 1 149.00000 418.400000
15318 10472 15711 1 149.00000 418.400000
15319 10473 16134 1 149.00000 418.400000
15319 10474 15664 1 149.00000 418.400000
15937 10475 21754 1 149.00000 418.400000
15320 10476 15522 1 149.00000 418.400000
15322 10477 15503 1 149.00000 418.400000
15323 10478 15435 1 149.00000 418.400000
15324 10479 15724 1 149.00000 418.400000
13376 10480 15328 1 149.00000 418.400000
15328 10481 16248 1 149.00000 418.400000
15329 10482 15379 1 149.00000 418.400000
15330 10483 16098 1 149.00000 418.400000
15331 10484 16054 1 149.00000 418.400000
15332 10485 15479 1 149.00000 418.400000
15333 10486 15403 1 149.00000 418.400000
15335 10487 15892 1 149.00000 418.400000
15335 10488 15885 1 149.00000 418.400000
14035 10489 15336 1 149.00000 418.400000
15336 10490 16094 1 149.00000 418.400000
15745 10491 20158 1 149.00000 418.400000
12433 10492 15337 1 149.00000 418.400000
15339 10493 15908 1 149.00000 418.400000
15342 10494 15981 1 149.00000 418.400000
15343 10495 16128 1 149.00000 418.400000
11962 10496 15344 1 149.00000 418.400000
15345 10497 16529 1 149.00000 418.400000
15346 10498 16098 1 149.00000 418.400000
15347 10499 15728 1 149.00000 418.400000
15348 10500 19750 1 149.00000 418.400000
15350 10501 16187 1 149.00000 418.400000
15354 10502 16288 1 149.00000 418.400000
15354 10503 16496 1 149.00000 418.400000
15356 10504 15901 1 149.00000 418.400000
15357 10505 16195 1 149.00000 418.400000
15357 10506 15415 1 149.00000 418.400000
15358 10507 15590 1 149.00000 418.400000
15434 10508 19186 1 149.00000 418.400000
15361 10509 16457 1 149.00000 418.400000
15361 10510 16450 1 149.00000 418.400000
15361 10511 15548 1 149.00000 418.400000
15363 10512 16360 1 149.00000 418.400000
13671 10513 19042 1 149.00000 418.400000
13877 10514 19042 1 149.00000 418.400000
15365 10515 21775 1 149.00000 418.400000
15365 10516 15392 1 149.00000 418.400000
15366 10517 15640 1 149.00000 418.400000
12565 10518 13319 1 149.00000 418.400000
15368 10519 15455 1 149.00000 418.400000
15369 10520 16103 1 149.00000 418.400000
14695 10521 15698 1 149.00000 418.400000
15371 10522 15505 1 149.00000 418.400000
15371 10523 16061 1 149.00000 418.400000
15373 10524 16202 1 149.00000 418.400000
15373 10525 16384 1 149.00000 418.400000
15374 10526 15463 1 149.00000 418.400000
15376 10527 15935 1 149.00000 418.400000
15377 10528 16226 1 149.00000 418.400000
15379 10529 16160 1 149.00000 418.400000
15380 10530 15433 1 149.00000 418.400000
12602 10531 16008 1 149.00000 418.400000
12602 10532 15871 1 149.00000 418.400000
15383 10533 16307 1 149.00000 418.400000
15384 10534 15801 1 149.00000 418.400000
15384 10535 16045 1 149.00000 418.400000
15385 10536 19678 1 149.00000 418.400000
15386 10537 16449 1 149.00000 418.400000
15387 10538 15497 1 149.00000 418.400000
15388 10539 15798 1 149.00000 418.400000
15389 10540 15499 1 149.00000 418.400000
15390 10541 15709 1 149.00000 418.400000
15390 10542 16382 1 149.00000 418.400000
15391 10543 16060 1 149.00000 418.400000
15392 10544 16206 1 149.00000 418.400000
15394 10545 19546 1 149.00000 418.400000
15395 10546 15726 1 149.00000 418.400000
15395 10547 15687 1 149.00000 418.400000
15396 10548 16496 1 149.00000 418.400000
15397 10549 15680 1 149.00000 418.400000
15398 10550 18550 1 149.00000 418.400000
15398 10551 20950 1 149.00000 418.400000
15398 10552 15486 1 149.00000 418.400000
15400 10553 16165 1 149.00000 418.400000
15401 10554 16559 1 149.00000 418.400000
15401 10555 21943 1 149.00000 418.400000
15402 10556 16391 1 149.00000 418.400000
15402 10557 16345 1 149.00000 418.400000
15402 10558 15412 1 149.00000 418.400000
15404 10559 16557 1 149.00000 418.400000
19630 10560 20782 1 149.00000 418.400000
16200 10561 20782 1 149.00000 418.400000
15405 10562 16305 1 149.00000 418.400000
15405 10563 16053 1 149.00000 418.400000
15405 10564 15762 1 149.00000 418.400000
15406 10565 15955 1 149.00000 418.400000
15407 10566 15439 1 149.00000 418.400000
21766 10567 21874 1 149.00000 418.400000
15408 10568 16256 1 149.00000 418.400000
15409 10569 16189 1 149.00000 418.400000
15409 10570 19690 1 149.00000 418.400000
15411 10571 15567 1 149.00000 418.400000
16307 10572 21142 1 149.00000 418.400000
15414 10573 16603 1 149.00000 418.400000
15415 10574 16288 1 149.00000 418.400000
15416 10575 15818 1 149.00000 418.400000
12831 10576 15416 1 149.00000 418.400000
15416 10577 16339 1 149.00000 418.400000
15418 10578 15666 1 149.00000 418.400000
15420 10579 16476 1 149.00000 418.400000
15420 10580 16314 1 149.00000 418.400000
15863 10581 21769 1 149.00000 418.400000
18622 10582 21769 1 149.00000 418.400000
15422 10583 16288 1 149.00000 418.400000
15423 10584 15660 1 149.00000 418.400000
15423 10585 15452 1 149.00000 418.400000
15424 10586 15502 1 149.00000 418.400000
16301 10587 20086 1 149.00000 418.400000
15425 10588 15733 1 149.00000 418.400000
15428 10589 16311 1 149.00000 418.400000
15429 10590 16550 1 149.00000 418.400000
15450 10591 21775 1 149.00000 418.400000
15977 10592 21778 1 149.00000 418.400000
16522 10593 21778 1 149.00000 418.400000
15431 10594 16170 1 149.00000 418.400000
15432 10595 16249 1 149.00000 418.400000
15433 10596 16495 1 149.00000 418.400000
15434 10597 15862 1 149.00000 418.400000
15435 10598 15605 1 149.00000 418.400000
15436 10599 16031 1 149.00000 418.400000
15437 10600 16548 1 149.00000 418.400000
15437 10601 16452 1 149.00000 418.400000
15441 10602 16534 1 149.00000 418.400000
15442 10603 21925 1 149.00000 418.400000
15442 10604 15495 1 149.00000 418.400000
15443 10605 15694 1 149.00000 418.400000
15444 10606 16521 1 149.00000 418.400000
15445 10607 16093 1 149.00000 418.400000
15449 10608 16211 1 149.00000 418.400000
15449 10609 16371 1 149.00000 418.400000
15450 10610 16379 1 149.00000 418.400000
15450 10611 20566 1 149.00000 418.400000
15452 10612 16023 1 149.00000 418.400000
15452 10613 16150 1 149.00000 418.400000
15454 10614 16546 1 149.00000 418.400000
15456 10615 16326 1 149.00000 418.400000
15459 10616 15618 1 149.00000 418.400000
15460 10617 15851 1 149.00000 418.400000
15460 10618 15621 1 149.00000 418.400000
15461 10619 16154 1 149.00000 418.400000
15464 10620 16277 1 149.00000 418.400000
15464 10621 15634 1 149.00000 418.400000
15465 10622 16009 1 149.00000 418.400000
15466 10623 16353 1 149.00000 418.400000
15466 10624 16439 1 149.00000 418.400000
13411 10625 15696 1 149.00000 418.400000
19582 10626 21787 1 149.00000 418.400000
15467 10627 15476 1 149.00000 418.400000
12799 10628 16354 1 149.00000 418.400000
15468 10629 15880 1 149.00000 418.400000
15468 10630 16184 1 149.00000 418.400000
15469 10631 15953 1 149.00000 418.400000
15473 10632 19102 1 149.00000 418.400000
15474 10633 15606 1 149.00000 418.400000
15476 10634 15615 1 149.00000 418.400000
15478 10635 16021 1 149.00000 418.400000
15478 10636 15906 1 149.00000 418.400000
15480 10637 16319 1 149.00000 418.400000
14067 10638 15481 1 149.00000 418.400000
15482 10639 16444 1 149.00000 418.400000
15482 10640 15945 1 149.00000 418.400000
15482 10641 16005 1 149.00000 418.400000
15482 10642 16198 1 149.00000 418.400000
15483 10643 16007 1 149.00000 418.400000
15484 10644 15823 1 149.00000 418.400000
15487 10645 16162 1 149.00000 418.400000
15487 10646 16308 1 149.00000 418.400000
15466 10647 15488 1 149.00000 418.400000
15489 10648 15508 1 149.00000 418.400000
15490 10649 21310 1 149.00000 418.400000
15491 10650 16335 1 149.00000 418.400000
15493 10651 16409 1 149.00000 418.400000
15493 10652 15579 1 149.00000 418.400000
15494 10653 16260 1 149.00000 418.400000
15495 10654 15593 1 149.00000 418.400000
15496 10655 16099 1 149.00000 418.400000
15496 10656 16022 1 149.00000 418.400000
15496 10657 15892 1 149.00000 418.400000
15497 10658 15772 1 149.00000 418.400000
15500 10659 15556 1 149.00000 418.400000
15501 10660 16164 1 149.00000 418.400000
15225 10661 15501 1 149.00000 418.400000
15502 10662 16009 1 149.00000 418.400000
15503 10663 16010 1 149.00000 418.400000
15504 10664 15575 1 149.00000 418.400000
15505 10665 15633 1 149.00000 418.400000
15507 10666 15620 1 149.00000 418.400000
15509 10667 15710 1 149.00000 418.400000
15511 10668 15525 1 149.00000 418.400000
15513 10669 15996 1 149.00000 418.400000
15513 10670 19066 1 149.00000 418.400000
15513 10671 18838 1 149.00000 418.400000
14976 10672 15514 1 149.00000 418.400000
15519 10673 15842 1 149.00000 418.400000
15520 10674 21823 1 149.00000 418.400000
15521 10675 15603 1 149.00000 418.400000
12079 10676 15986 1 149.00000 418.400000
14178 10677 15523 1 149.00000 418.400000
15524 10678 21892 1 149.00000 418.400000
15524 10679 16121 1 149.00000 418.400000
14716 10680 16441 1 149.00000 418.400000
12831 10681 15909 1 149.00000 418.400000
15528 10682 16205 1 149.00000 418.400000
15529 10683 15919 1 149.00000 418.400000
15530 10684 16362 1 149.00000 418.400000
15533 10685 16125 1 149.00000 418.400000
15533 10686 15944 1 149.00000 418.400000
15534 10687 15870 1 149.00000 418.400000
15535 10688 16579 1 149.00000 418.400000
15535 10689 16566 1 149.00000 418.400000
15535 10690 15649 1 149.00000 418.400000
15536 10691 16258 1 149.00000 418.400000
15537 10692 15998 1 149.00000 418.400000
15537 10693 16108 1 149.00000 418.400000
15984 10694 21793 1 149.00000 418.400000
15539 10695 16539 1 149.00000 418.400000
15540 10696 16261 1 149.00000 418.400000
15544 10697 16074 1 149.00000 418.400000
15067 10698 15805 1 149.00000 418.400000
15547 10699 16453 1 149.00000 418.400000
15547 10700 16194 1 149.00000 418.400000
15755 10701 17162 1 149.00000 418.400000
15550 10702 16156 1 149.00000 418.400000
15556 10703 16523 1 149.00000 418.400000
13508 10704 15557 1 149.00000 418.400000
15559 10705 15873 1 149.00000 418.400000
15560 10706 16382 1 149.00000 418.400000
15561 10707 16377 1 149.00000 418.400000
15561 10708 15766 1 149.00000 418.400000
15562 10709 16461 1 149.00000 418.400000
15564 10710 15760 1 149.00000 418.400000
15564 10711 19366 1 149.00000 418.400000
15566 10712 15882 1 149.00000 418.400000
15566 10713 16551 1 149.00000 418.400000
15568 10714 15860 1 149.00000 418.400000
15568 10715 15918 1 149.00000 418.400000
15570 10716 16335 1 149.00000 418.400000
15571 10717 16217 1 149.00000 418.400000
15572 10718 15817 1 149.00000 418.400000
15574 10719 16279 1 149.00000 418.400000
15575 10720 15727 1 149.00000 418.400000
15576 10721 16146 1 149.00000 418.400000
15581 10722 16185 1 149.00000 418.400000
15581 10723 15634 1 149.00000 418.400000
15585 10724 16001 1 149.00000 418.400000
15585 10725 15709 1 149.00000 418.400000
15587 10726 16271 1 149.00000 418.400000
14098 10727 16015 1 149.00000 418.400000
15588 10728 16130 1 149.00000 418.400000
15591 10729 15962 1 149.00000 418.400000
15593 10730 16081 1 149.00000 418.400000
15594 10731 15761 1 149.00000 418.400000
15595 10732 15896 1 149.00000 418.400000
15596 10733 16479 1 149.00000 418.400000
15596 10734 16428 1 149.00000 418.400000
15597 10735 16032 1 149.00000 418.400000
15978 10736 21802 1 149.00000 418.400000
14503 10737 15899 1 149.00000 418.400000
15598 10738 16013 1 149.00000 418.400000
15599 10739 16072 1 149.00000 418.400000
15602 10740 15669 1 149.00000 418.400000
15313 10741 15603 1 149.00000 418.400000
15604 10742 16521 1 149.00000 418.400000
15604 10743 16563 1 149.00000 418.400000
15964 10744 21805 1 149.00000 418.400000
15606 10745 16156 1 149.00000 418.400000
15606 10746 16146 1 149.00000 418.400000
15607 10747 19654 1 149.00000 418.400000
15608 10748 16597 1 149.00000 418.400000
15609 10749 15805 1 149.00000 418.400000
15610 10750 15631 1 149.00000 418.400000
15613 10751 16105 1 149.00000 418.400000
15616 10752 15665 1 149.00000 418.400000
15617 10753 15797 1 149.00000 418.400000
15617 10754 16327 1 149.00000 418.400000
14405 10755 15623 1 149.00000 418.400000
16077 10756 21808 1 149.00000 418.400000
16555 10757 21808 1 149.00000 418.400000
15626 10758 16055 1 149.00000 418.400000
15627 10759 21871 1 149.00000 418.400000
15630 10760 16169 1 149.00000 418.400000
15631 10761 16142 1 149.00000 418.400000
15632 10762 16299 1 149.00000 418.400000
15634 10763 15976 1 149.00000 418.400000
15638 10764 19222 1 149.00000 418.400000
15638 10765 15653 1 149.00000 418.400000
15638 10766 20542 1 149.00000 418.400000
15639 10767 15641 1 149.00000 418.400000
15640 10768 15800 1 149.00000 418.400000
15641 10769 15979 1 149.00000 418.400000
15643 10770 16099 1 149.00000 418.400000
15644 10771 15799 1 149.00000 418.400000
15645 10772 15828 1 149.00000 418.400000
15646 10773 15759 1 149.00000 418.400000
15647 10774 15803 1 149.00000 418.400000
15648 10775 16000 1 149.00000 418.400000
15649 10776 16416 1 149.00000 418.400000
15649 10777 16141 1 149.00000 418.400000
15651 10778 16160 1 149.00000 418.400000
15652 10779 15845 1 149.00000 418.400000
15652 10780 15992 1 149.00000 418.400000
15656 10781 16537 1 149.00000 418.400000
15659 10782 15667 1 149.00000 418.400000
15659 10783 15673 1 149.00000 418.400000
15662 10784 21937 1 149.00000 418.400000
15665 10785 15743 1 149.00000 418.400000
15665 10786 17022 1 149.00000 418.400000
15667 10787 15748 1 149.00000 418.400000
15671 10788 16395 1 149.00000 418.400000
15673 10789 16500 1 149.00000 418.400000
15674 10790 20878 1 149.00000 418.400000
15675 10791 16312 1 149.00000 418.400000
15676 10792 16492 1 149.00000 418.400000
13904 10793 15676 1 149.00000 418.400000
15677 10794 16155 1 149.00000 418.400000
16298 10795 20914 1 149.00000 418.400000
15678 10796 16457 1 149.00000 418.400000
15679 10797 15864 1 149.00000 418.400000
15679 10798 16212 1 149.00000 418.400000
15681 10799 16159 1 149.00000 418.400000
15684 10800 16621 1 149.00000 418.400000
15684 10801 15902 1 149.00000 418.400000
15686 10802 15730 1 149.00000 418.400000
15690 10803 16193 1 149.00000 418.400000
16583 10804 19570 1 149.00000 418.400000
15691 10805 16543 1 149.00000 418.400000
15693 10806 15963 1 149.00000 418.400000
15696 10807 16235 1 149.00000 418.400000
15697 10808 17232 1 149.00000 418.400000
15698 10809 16455 1 149.00000 418.400000
15698 10810 16134 1 149.00000 418.400000
15701 10811 15931 1 149.00000 418.400000
15703 10812 16484 1 149.00000 418.400000
15707 10813 15729 1 149.00000 418.400000
19210 10814 21829 1 149.00000 418.400000
15712 10815 17694 1 149.00000 418.400000
15713 10816 16016 1 149.00000 418.400000
15715 10817 16549 1 149.00000 418.400000
15715 10818 16299 1 149.00000 418.400000
14680 10819 15717 1 149.00000 418.400000
15719 10820 16028 1 149.00000 418.400000
16358 10821 21094 1 149.00000 418.400000
15275 10822 21094 1 149.00000 418.400000
15723 10823 16281 1 149.00000 418.400000
15723 10824 15964 1 149.00000 418.400000
15724 10825 15949 1 149.00000 418.400000
15725 10826 16149 1 149.00000 418.400000
15729 10827 16488 1 149.00000 418.400000
15730 10828 15807 1 149.00000 418.400000
15736 10829 17848 1 149.00000 418.400000
15739 10830 16569 1 149.00000 418.400000
15742 10831 16106 1 149.00000 418.400000
15743 10832 15858 1 149.00000 418.400000
15745 10833 16367 1 149.00000 418.400000
15747 10834 15897 1 149.00000 418.400000
11806 10835 15747 1 149.00000 418.400000
15749 10836 19810 1 149.00000 418.400000
15749 10837 16558 1 149.00000 418.400000
15750 10838 16012 1 149.00000 418.400000
13530 10839 15765 1 149.00000 418.400000
15752 10840 16234 1 149.00000 418.400000
15752 10841 16049 1 149.00000 418.400000
15753 10842 15955 1 149.00000 418.400000
12969 10843 15753 1 149.00000 418.400000
15756 10844 16377 1 149.00000 418.400000
15757 10845 16325 1 149.00000 418.400000
15757 10846 16254 1 149.00000 418.400000
15758 10847 16473 1 149.00000 418.400000
15760 10848 16480 1 149.00000 418.400000
15763 10849 16539 1 149.00000 418.400000
15768 10850 16451 1 149.00000 418.400000
15768 10851 16277 1 149.00000 418.400000
15772 10852 18282 1 149.00000 418.400000
15774 10853 16566 1 149.00000 418.400000
15775 10854 15840 1 149.00000 418.400000
15776 10855 15844 1 149.00000 418.400000
15778 10856 16107 1 149.00000 418.400000
15778 10857 15937 1 149.00000 418.400000
15779 10858 16224 1 149.00000 418.400000
15780 10859 15783 1 149.00000 418.400000
15781 10860 15938 1 149.00000 418.400000
15781 10861 16221 1 149.00000 418.400000
14134 10862 15784 1 149.00000 418.400000
15787 10863 15909 1 149.00000 418.400000
13578 10864 15794 1 149.00000 418.400000
15791 10865 15838 1 149.00000 418.400000
21847 10866 21895 1 149.00000 418.400000
15794 10867 15850 1 149.00000 418.400000
15836 10868 22034 1 149.00000 418.400000
16593 10869 22034 1 149.00000 418.400000
15795 10870 15837 1 149.00000 418.400000
15801 10871 16091 1 149.00000 418.400000
13681 10872 16414 1 149.00000 418.400000
15802 10873 16563 1 149.00000 418.400000
15802 10874 15991 1 149.00000 418.400000
15803 10875 15916 1 149.00000 418.400000
15804 10876 15870 1 149.00000 418.400000
15609 10877 16310 1 149.00000 418.400000
15810 10878 15913 1 149.00000 418.400000
15810 10879 16118 1 149.00000 418.400000
15811 10880 16545 1 149.00000 418.400000
15812 10881 16595 1 149.00000 418.400000
15815 10882 15822 1 149.00000 418.400000
15816 10883 16113 1 149.00000 418.400000
14143 10884 15856 1 149.00000 418.400000
15816 10885 16137 1 149.00000 418.400000
15817 10886 16594 1 149.00000 418.400000
16476 10887 21667 1 149.00000 418.400000
15823 10888 16527 1 149.00000 418.400000
15824 10889 15854 1 149.00000 418.400000
15825 10890 16115 1 149.00000 418.400000
16394 10891 18742 1 149.00000 418.400000
15827 10892 16372 1 149.00000 418.400000
15827 10893 16103 1 149.00000 418.400000
15827 10894 16547 1 149.00000 418.400000
15828 10895 16221 1 149.00000 418.400000
15831 10896 16599 1 149.00000 418.400000
15835 10897 16470 1 149.00000 418.400000
15837 10898 16286 1 149.00000 418.400000
15837 10899 16490 1 149.00000 418.400000
15838 10900 15940 1 149.00000 418.400000
15775 10901 16309 1 149.00000 418.400000
16189 10902 21010 1 149.00000 418.400000
15844 10903 15869 1 149.00000 418.400000
15846 10904 16233 1 149.00000 418.400000
15846 10905 16063 1 149.00000 418.400000
15847 10906 21916 1 149.00000 418.400000
16447 10907 19282 1 149.00000 418.400000
15848 10908 15884 1 149.00000 418.400000
15849 10909 16483 1 149.00000 418.400000
15849 10910 16374 1 149.00000 418.400000
19018 10911 19930 1 149.00000 418.400000
15850 10912 16576 1 149.00000 418.400000
12149 10913 16253 1 149.00000 418.400000
15854 10914 16410 1 149.00000 418.400000
15857 10915 16084 1 149.00000 418.400000
15858 10916 20206 1 149.00000 418.400000
11944 10917 15859 1 149.00000 418.400000
15862 10918 16239 1 149.00000 418.400000
15868 10919 15980 1 149.00000 418.400000
14427 10920 16253 1 149.00000 418.400000
15872 10921 16466 1 149.00000 418.400000
15872 10922 16328 1 149.00000 418.400000
15873 10923 21907 1 149.00000 418.400000
15877 10924 16142 1 149.00000 418.400000
15881 10925 16056 1 149.00000 418.400000
16046 10926 19690 1 149.00000 418.400000
15884 10927 16068 1 149.00000 418.400000
15886 10928 16046 1 149.00000 418.400000
15886 10929 16434 1 149.00000 418.400000
15887 10930 16072 1 149.00000 418.400000
15894 10931 16519 1 149.00000 418.400000
15898 10932 16383 1 149.00000 418.400000
15901 10933 16209 1 149.00000 418.400000
15904 10934 16608 1 149.00000 418.400000
15909 10935 16240 1 149.00000 418.400000
15918 10936 16079 1 149.00000 418.400000
15920 10937 16271 1 149.00000 418.400000
15921 10938 16481 1 149.00000 418.400000
15924 10939 16598 1 149.00000 418.400000
15965 10940 17344 1 149.00000 418.400000
15925 10941 16278 1 149.00000 418.400000
16376 10942 21883 1 149.00000 418.400000
15929 10943 16211 1 149.00000 418.400000
13964 10944 15929 1 149.00000 418.400000
15931 10945 16510 1 149.00000 418.400000
15932 10946 16133 1 149.00000 418.400000
15933 10947 16610 1 149.00000 418.400000
15934 10948 16211 1 149.00000 418.400000
18086 10949 21889 1 149.00000 418.400000
16058 10950 21889 1 149.00000 418.400000
15938 10951 16003 1 149.00000 418.400000
15938 10952 16074 1 149.00000 418.400000
15939 10953 16534 1 149.00000 418.400000
15942 10954 16359 1 149.00000 418.400000
15943 10955 16054 1 149.00000 418.400000
15946 10956 15993 1 149.00000 418.400000
17386 10957 17848 1 149.00000 418.400000
15954 10958 16132 1 149.00000 418.400000
15956 10959 16544 1 149.00000 418.400000
15956 10960 16434 1 149.00000 418.400000
15956 10961 16599 1 149.00000 418.400000
15957 10962 16047 1 149.00000 418.400000
15959 10963 16142 1 149.00000 418.400000
15982 10964 21892 1 149.00000 418.400000
16437 10965 21892 1 149.00000 418.400000
15960 10966 16084 1 149.00000 418.400000
15962 10967 16329 1 149.00000 418.400000
15963 10968 16219 1 149.00000 418.400000
15964 10969 16057 1 149.00000 418.400000
15966 10970 16017 1 149.00000 418.400000
15967 10971 16125 1 149.00000 418.400000
15968 10972 16398 1 149.00000 418.400000
15971 10973 16440 1 149.00000 418.400000
11870 10974 19774 1 149.00000 418.400000
15974 10975 16221 1 149.00000 418.400000
15977 10976 16201 1 149.00000 418.400000
15980 10977 16030 1 149.00000 418.400000
15980 10978 16457 1 149.00000 418.400000
15981 10979 16299 1 149.00000 418.400000
16069 10980 16336 1 149.00000 418.400000
15982 10981 16336 1 149.00000 418.400000
15983 10982 15999 1 149.00000 418.400000
15987 10983 16311 1 149.00000 418.400000
15987 10984 16432 1 149.00000 418.400000
15987 10985 16519 1 149.00000 418.400000
15988 10986 16389 1 149.00000 418.400000
15992 10987 16238 1 149.00000 418.400000
16563 10988 18838 1 149.00000 418.400000
15993 10989 16481 1 149.00000 418.400000
15997 10990 16320 1 149.00000 418.400000
16522 10991 21898 1 149.00000 418.400000
16010 10992 16360 1 149.00000 418.400000
16013 10993 16513 1 149.00000 418.400000
16015 10994 16233 1 149.00000 418.400000
21901 10995 21904 1 149.00000 418.400000
16025 10996 16623 1 149.00000 418.400000
16026 10997 16329 1 149.00000 418.400000
11770 10998 16032 1 149.00000 418.400000
16034 10999 16109 1 149.00000 418.400000
16034 11000 16230 1 149.00000 418.400000
16035 11001 16381 1 149.00000 418.400000
16035 11002 16310 1 149.00000 418.400000
16037 11003 16147 1 149.00000 418.400000
16037 11004 16117 1 149.00000 418.400000
16045 11005 16415 1 149.00000 418.400000
14224 11006 16182 1 149.00000 418.400000
16052 11007 16501 1 149.00000 418.400000
16052 11008 16173 1 149.00000 418.400000
16229 11009 20566 1 149.00000 418.400000
16061 11010 16433 1 149.00000 418.400000
16064 11011 16320 1 149.00000 418.400000
16067 11012 16104 1 149.00000 418.400000
16068 11013 16426 1 149.00000 418.400000
16069 11014 16257 1 149.00000 418.400000
16070 11015 16603 1 149.00000 418.400000
16071 11016 16566 1 149.00000 418.400000
15887 11017 16471 1 149.00000 418.400000
16073 11018 16454 1 149.00000 418.400000
16073 11019 16592 1 149.00000 418.400000
16081 11020 16170 1 149.00000 418.400000
16170 11021 16364 1 149.00000 418.400000
15079 11022 16082 1 149.00000 418.400000
16083 11023 16169 1 149.00000 418.400000
16089 11024 16556 1 149.00000 418.400000
16089 11025 16262 1 149.00000 418.400000
16090 11026 16389 1 149.00000 418.400000
16094 11027 16377 1 149.00000 418.400000
16096 11028 16226 1 149.00000 418.400000
16097 11029 18514 1 149.00000 418.400000
16097 11030 16385 1 149.00000 418.400000
16098 11031 16473 1 149.00000 418.400000
16101 11032 21934 1 149.00000 418.400000
16104 11033 16606 1 149.00000 418.400000
16112 11034 16323 1 149.00000 418.400000
16118 11035 16239 1 149.00000 418.400000
16120 11036 16612 1 149.00000 418.400000
16122 11037 16181 1 149.00000 418.400000
16124 11038 16180 1 149.00000 418.400000
16132 11039 16555 1 149.00000 418.400000
13136 11040 16139 1 149.00000 418.400000
16143 11041 16337 1 149.00000 418.400000
16143 11042 16370 1 149.00000 418.400000
16148 11043 16561 1 149.00000 418.400000
19366 11044 21913 1 149.00000 418.400000
16151 11045 16262 1 149.00000 418.400000
16154 11046 16369 1 149.00000 418.400000
16154 11047 16551 1 149.00000 418.400000
16156 11048 16487 1 149.00000 418.400000
16157 11049 16393 1 149.00000 418.400000
16159 11050 16210 1 149.00000 418.400000
16165 11051 16281 1 149.00000 418.400000
16171 11052 16229 1 149.00000 418.400000
16172 11053 16441 1 149.00000 418.400000
14665 11054 16444 1 149.00000 418.400000
14665 11055 16427 1 149.00000 418.400000
16176 11056 16537 1 149.00000 418.400000
16184 11057 16303 1 149.00000 418.400000
16186 11058 16546 1 149.00000 418.400000
16188 11059 16585 1 149.00000 418.400000
16190 11060 16388 1 149.00000 418.400000
16190 11061 16287 1 149.00000 418.400000
12127 11062 20422 1 149.00000 418.400000
16192 11063 16395 1 149.00000 418.400000
16197 11064 16531 1 149.00000 418.400000
16199 11065 16452 1 149.00000 418.400000
16201 11066 16481 1 149.00000 418.400000
12723 11067 16382 1 149.00000 418.400000
16204 11068 16580 1 149.00000 418.400000
16206 11069 16400 1 149.00000 418.400000
16207 11070 16411 1 149.00000 418.400000
16208 11071 16243 1 149.00000 418.400000
16064 11072 16209 1 149.00000 418.400000
16209 11073 16356 1 149.00000 418.400000
16214 11074 16348 1 149.00000 418.400000
16215 11075 16224 1 149.00000 418.400000
16222 11076 16428 1 149.00000 418.400000
16231 11077 16247 1 149.00000 418.400000
12039 11078 16241 1 149.00000 418.400000
16243 11079 16497 1 149.00000 418.400000
16243 11080 16250 1 149.00000 418.400000
16245 11081 20542 1 149.00000 418.400000
16249 11082 16455 1 149.00000 418.400000
16255 11083 16360 1 149.00000 418.400000
16264 11084 16498 1 149.00000 418.400000
16266 11085 16516 1 149.00000 418.400000
16270 11086 16314 1 149.00000 418.400000
16272 11087 16438 1 149.00000 418.400000
16277 11088 16591 1 149.00000 418.400000
16279 11089 16517 1 149.00000 418.400000
12741 11090 16279 1 149.00000 418.400000
16280 11091 16529 1 149.00000 418.400000
16383 11092 19498 1 149.00000 418.400000
16289 11093 16401 1 149.00000 418.400000
16305 11094 16541 1 149.00000 418.400000
16313 11095 16476 1 149.00000 418.400000
16318 11096 16491 1 149.00000 418.400000
16476 11097 17722 1 149.00000 418.400000
16332 11098 16364 1 149.00000 418.400000
16343 11099 16606 1 149.00000 418.400000
16344 11100 16480 1 149.00000 418.400000
16346 11101 16528 1 149.00000 418.400000
16346 11102 16408 1 149.00000 418.400000
16347 11103 16378 1 149.00000 418.400000
16348 11104 16366 1 149.00000 418.400000
16350 11105 16593 1 149.00000 418.400000
16351 11106 16387 1 149.00000 418.400000
16353 11107 16362 1 149.00000 418.400000
16361 11108 16551 1 149.00000 418.400000
16368 11109 16423 1 149.00000 418.400000
16370 11110 16403 1 149.00000 418.400000
16377 11111 16560 1 149.00000 418.400000
16382 11112 16582 1 149.00000 418.400000
16383 11113 16479 1 149.00000 418.400000
16384 11114 16475 1 149.00000 418.400000
16392 11115 16444 1 149.00000 418.400000
16393 11116 16565 1 149.00000 418.400000
16397 11117 16570 1 149.00000 418.400000
16402 11118 16587 1 149.00000 418.400000
16407 11119 16622 1 149.00000 418.400000
16408 11120 16515 1 149.00000 418.400000
16411 11121 16540 1 149.00000 418.400000
16427 11122 16511 1 149.00000 418.400000
16430 11123 16493 1 149.00000 418.400000
16443 11124 16528 1 149.00000 418.400000
16521 11125 21118 1 149.00000 418.400000
16463 11126 16508 1 149.00000 418.400000
16467 11127 16485 1 149.00000 418.400000
16469 11128 16564 1 149.00000 418.400000
16471 11129 16505 1 149.00000 418.400000
16478 11130 16498 1 149.00000 418.400000
16488 11131 16600 1 149.00000 418.400000
16500 11132 16600 1 149.00000 418.400000
16520 11133 16578 1 149.00000 418.400000
16531 11134 16608 1 149.00000 418.400000
16533 11135 16592 1 149.00000 418.400000
16562 11136 16619 1 149.00000 418.400000
16567 11137 16590 1 149.00000 418.400000
12098 11138 12775 1 149.00000 418.400000
11381 11139 12577 1 149.00000 418.400000
12893 11140 14414 1 149.00000 418.400000
13488 11141 21934 1 149.00000 418.400000
13720 11142 21937 1 149.00000 418.400000
14223 11143 16058 1 149.00000 418.400000
14217 11144 14272 1 149.00000 418.400000
12636 11145 14975 1 149.00000 418.400000
13996 11146 21832 1 149.00000 418.400000
11436 11147 15674 1 149.00000 418.400000
12882 11148 16330 1 149.00000 418.400000
13307 11149 21370 1 149.00000 418.400000
12674 11150 21691 1 149.00000 418.400000
14298 11151 19030 1 149.00000 418.400000
15786 11152 21364 1 149.00000 418.400000
13883 11153 21580 1 149.00000 418.400000
15180 11154 21046 1 149.00000 418.400000
12219 11155 14247 1 149.00000 418.400000
12671 11156 21865 1 149.00000 418.400000
14415 11157 15049 1 149.00000 418.400000
13113 11158 13937 1 149.00000 418.400000
13500 11159 13774 1 149.00000 418.400000
12477 11160 18454 1 149.00000 418.400000
16147 11161 21820 1 149.00000 418.400000
14138 11162 20182 1 149.00000 418.400000
12316 11163 14085 1 149.00000 418.400000
14610 11164 19954 1 149.00000 418.400000
15492 11165 19330 1 149.00000 418.400000
13168 11166 13385 1 149.00000 418.400000
11890 11167 12690 1 149.00000 418.400000
12805 11168 19498 1 149.00000 418.400000
14154 11169 20926 1 149.00000 418.400000
12850 11170 18670 1 149.00000 418.400000
15100 11171 16285 1 149.00000 418.400000
12767 11172 14626 1 149.00000 418.400000
13842 11173 14468 1 149.00000 418.400000
12915 11174 21868 1 149.00000 418.400000
11883 11175 21232 1 149.00000 418.400000
16338 11176 21385 1 149.00000 418.400000
14414 11177 14878 1 149.00000 418.400000
14875 11178 19162 1 149.00000 418.400000
11592 11179 21709 1 149.00000 418.400000
12303 11180 13842 1 149.00000 418.400000
12402 11181 21283 1 149.00000 418.400000
14189 11182 20422 1 149.00000 418.400000
12404 11183 13408 1 149.00000 418.400000
13093 11184 15393 1 149.00000 418.400000
13385 11185 19642 1 149.00000 418.400000
12136 11186 21874 1 149.00000 418.400000
15458 11187 20530 1 149.00000 418.400000
12234 11188 12701 1 149.00000 418.400000
15533 11189 21664 1 149.00000 418.400000
14878 11190 21811 1 149.00000 418.400000
11443 11191 11727 1 149.00000 418.400000
14085 11192 21931 1 149.00000 418.400000
12780 11193 14065 1 149.00000 418.400000
13147 11194 15397 1 149.00000 418.400000
14687 11195 14882 1 149.00000 418.400000
14321 11196 21913 1 149.00000 418.400000
11489 11197 13160 1 149.00000 418.400000
11399 11198 15852 1 149.00000 418.400000
15852 11199 21532 1 149.00000 418.400000
13465 11200 16223 1 149.00000 418.400000
13143 11201 21415 1 149.00000 418.400000
11675 11202 14787 1 149.00000 418.400000
13090 11203 21496 1 149.00000 418.400000
14093 11204 20362 1 149.00000 418.400000
12430 11205 21130 1 149.00000 418.400000
12583 11206 20614 1 149.00000 418.400000
15670 11207 21793 1 149.00000 418.400000
16561 11208 21217 1 149.00000 418.400000
12458 11209 20350 1 149.00000 418.400000
13432 11210 14247 1 149.00000 418.400000
12875 11211 20194 1 149.00000 418.400000
13980 11212 21550 1 149.00000 418.400000
12795 11213 21637 1 149.00000 418.400000
14791 11214 21907 1 149.00000 418.400000
11410 11215 14113 1 149.00000 418.400000
14975 11216 18394 1 149.00000 418.400000
13774 11217 21253 1 149.00000 418.400000
13400 11218 15410 1 149.00000 418.400000
12982 11219 19606 1 149.00000 418.400000
12150 11220 12668 1 149.00000 418.400000
16049 11221 21838 1 149.00000 418.400000
14597 11222 20914 1 149.00000 418.400000
12431 11223 20026 1 149.00000 418.400000
15337 11224 15447 1 149.00000 418.400000
16416 11225 19258 1 149.00000 418.400000
11680 11226 21574 1 149.00000 418.400000
14951 11227 21859 1 149.00000 418.400000
16052 11228 21382 1 149.00000 418.400000
14330 11229 14628 1 149.00000 418.400000
12311 11230 16507 1 149.00000 418.400000
12152 11231 12898 1 149.00000 418.400000
13469 11232 19546 1 149.00000 418.400000
15393 11233 21262 1 149.00000 418.400000
14207 11234 21652 1 149.00000 418.400000
11711 11235 12665 1 149.00000 418.400000
11383 11236 19906 1 149.00000 418.400000
12961 11237 16358 1 149.00000 418.400000
11953 11238 21322 1 149.00000 418.400000
14280 11239 14663 1 149.00000 418.400000
14955 11240 21202 1 149.00000 418.400000
11631 11241 16301 1 149.00000 418.400000
11816 11242 16590 1 149.00000 418.400000
16206 11243 21241 1 149.00000 418.400000
12150 11244 13689 1 149.00000 418.400000
13253 11245 21409 1 149.00000 418.400000
14713 11246 20998 1 149.00000 418.400000
14708 11247 21625 1 149.00000 418.400000
13479 11248 20374 1 149.00000 418.400000
14968 11249 21613 1 149.00000 418.400000
12303 11250 21022 1 149.00000 418.400000
14626 11251 19762 1 149.00000 418.400000
14456 11252 16393 1 149.00000 418.400000
14223 11253 21295 1 149.00000 418.400000
11510 11254 19354 1 149.00000 418.400000
12721 11255 13535 1 149.00000 418.400000
12311 11256 20398 1 149.00000 418.400000
11951 11257 18538 1 149.00000 418.400000
11551 11258 19726 1 149.00000 418.400000
11481 11259 16577 1 149.00000 418.400000
16189 11260 20386 1 149.00000 418.400000
15262 11261 20218 1 149.00000 418.400000
14456 11262 18754 1 149.00000 418.400000
11489 11263 19966 1 149.00000 418.400000
15902 11264 21346 1 149.00000 418.400000
12701 11265 18778 1 149.00000 418.400000
11570 11266 11781 1 149.00000 418.400000
14188 11267 19834 1 149.00000 418.400000
12233 11268 21559 1 149.00000 418.400000
12040 11269 20410 1 149.00000 418.400000
13383 11270 20866 1 149.00000 418.400000
11841 11271 21457 1 149.00000 418.400000
14599 11272 21337 1 149.00000 418.400000
13521 11273 18550 1 149.00000 418.400000
14914 11274 19438 1 149.00000 418.400000
12147 11275 21475 1 149.00000 418.400000
13020 11276 21658 1 149.00000 418.400000
15010 11277 21244 1 149.00000 418.400000
14732 11278 20662 1 149.00000 418.400000
14113 11279 19402 1 149.00000 418.400000
15704 11280 15965 1 149.00000 418.400000
14861 11281 21745 1 149.00000 418.400000
12499 11282 21430 1 149.00000 418.400000
13103 11283 14777 1 149.00000 418.400000
11998 11284 12713 1 149.00000 418.400000
11991 11285 14125 1 149.00000 418.400000
14015 11286 15729 1 149.00000 418.400000
15136 11287 20242 1 149.00000 418.400000
15397 11288 21355 1 149.00000 418.400000
11738 11289 21301 1 149.00000 418.400000
16077 11290 20494 1 149.00000 418.400000
11884 11291 21616 1 149.00000 418.400000
16241 11292 21484 1 149.00000 418.400000
11991 11293 21910 1 149.00000 418.400000
13184 11294 21235 1 149.00000 418.400000
12404 11295 18430 1 149.00000 418.400000
14802 11296 20002 1 149.00000 418.400000
12577 11297 20686 1 149.00000 418.400000
14922 11298 21628 1 149.00000 418.400000
12098 11299 21190 1 149.00000 418.400000
13278 11300 15410 1 149.00000 418.400000
14902 11301 15011 1 149.00000 418.400000
14628 11302 14782 1 149.00000 418.400000
13189 11303 15873 1 149.00000 418.400000
12721 11304 16359 1 149.00000 418.400000
13066 11305 13711 1 149.00000 418.400000
14702 11306 16301 1 149.00000 418.400000
15936 11307 16126 1 149.00000 418.400000
12911 11308 15058 1 149.00000 418.400000
12270 11309 13109 1 149.00000 418.400000
11809 11310 11811 1 149.00000 418.400000
15524 11311 16257 1 149.00000 418.400000
15607 11312 16613 1 149.00000 418.400000
11917 11313 14253 1 149.00000 418.400000
12647 11314 14252 1 149.00000 418.400000
12800 11315 15532 1 149.00000 418.400000
13222 11316 14311 1 149.00000 418.400000
12960 11317 16330 1 149.00000 418.400000
11890 11318 12611 1 149.00000 418.400000
13936 11319 16358 1 149.00000 418.400000
15024 11320 15470 1 149.00000 418.400000
12172 11321 12888 1 149.00000 418.400000
16101 11322 16403 1 149.00000 418.400000
11675 11323 12152 1 149.00000 418.400000
15438 11324 16236 1 149.00000 418.400000
12836 11325 15944 1 149.00000 418.400000
13516 11326 14821 1 149.00000 418.400000
12713 11327 16229 1 149.00000 418.400000
12536 11328 13877 1 149.00000 418.400000
11520 11329 15794 1 149.00000 418.400000
12973 11330 13186 1 149.00000 418.400000
14246 11331 16285 1 149.00000 418.400000
12000 11332 16300 1 149.00000 418.400000
13238 11333 13855 1 149.00000 418.400000
14466 11334 15212 1 149.00000 418.400000
11707 11335 13214 1 149.00000 418.400000
14838 11336 15752 1 149.00000 418.400000
15294 11337 15809 1 149.00000 418.400000
12578 11338 15686 1 149.00000 418.400000
14272 11339 16039 1 149.00000 418.400000
15779 11340 16215 1 149.00000 418.400000
13432 11341 15773 1 149.00000 418.400000
11481 11342 13465 1 149.00000 418.400000
12780 11343 13054 1 149.00000 418.400000
14274 11344 14858 1 149.00000 418.400000
14966 11345 15156 1 149.00000 418.400000
16510 11346 16590 1 149.00000 418.400000
13691 11347 14803 1 149.00000 418.400000
12545 11348 14943 1 149.00000 418.400000
14289 11349 15972 1 149.00000 418.400000
11435 11350 14880 1 149.00000 418.400000
12053 11351 15206 1 149.00000 418.400000
16494 11352 16554 1 149.00000 418.400000
13905 11353 15154 1 149.00000 418.400000
14777 11354 15704 1 149.00000 418.400000
11627 11355 15447 1 149.00000 418.400000
14061 11356 15885 1 149.00000 418.400000
12858 11357 13937 1 149.00000 418.400000
12109 11358 14280 1 149.00000 418.400000
13344 11359 15445 1 149.00000 418.400000
15075 11360 15559 1 149.00000 418.400000
12632 11361 15049 1 149.00000 418.400000
11436 11362 13689 1 149.00000 418.400000
12023 11363 15626 1 149.00000 418.400000
13314 11364 13947 1 149.00000 418.400000
14687 11365 14904 1 149.00000 418.400000
11711 11366 15879 1 149.00000 418.400000
11727 11367 13419 1 149.00000 418.400000
12107 11368 15730 1 149.00000 418.400000
12706 11369 14015 1 149.00000 418.400000
12886 11370 13617 1 149.00000 418.400000
14765 11371 15246 1 149.00000 418.400000
11525 11372 15977 1 149.00000 418.400000
11570 11373 15628 1 149.00000 418.400000
12344 11374 13056 1 149.00000 418.400000
11568 11375 12857 1 149.00000 418.400000
11431 11376 15284 1 149.00000 418.400000
12906 11377 14793 1 149.00000 418.400000
15604 11378 15802 1 149.00000 418.400000
1 11379 2 1 109.50000 418.400000
1 11379 3 1 109.50000 418.400000
1 11379 4 1 109.50000 418.400000
2 11379 3 1 109.50000 418.400000
2 11379 4 1 109.50000 418.400000
3 11379 4 1 109.50000 418.400000
7 11380 8 1 109.50000 418.400000
7 11380 9 1 109.50000 418.400000
7 11380 10 1 109.50000 418.400000
8 11380 9 1 109.50000 418.400000
8 11380 10 1 109.50000 418.400000
9 11380 10 1 109.50000 418.400000
11 11381 12 1 109.50000 418.400000
11 11381 13 1 109.50000 418.400000
11 11381 11139 1 109.50000 418.400000
12 11381 13 1 109.50000 418.400000
12 11381 11139 1 109.50000 418.400000
13 11381 11139 1 109.50000 418.400000
14 11382 15 1 109.50000 418.400000
14 11382 16 1 109.50000 418.400000
14 11382 17 1 109.50000 418.400000
15 11382 16 1 109.50000 418.400000
15 11382 17 1 109.50000 418.400000
16 11382 17 1 109.50000 418.400000
19 11383 20 1 109.50000 418.400000
19 11383 21 1 109.50000 418.400000
19 11383 11236 1 109.50000 418.400000
20 11383 21 1 109.50000 418.400000
20 11383 11236 1 109.50000 418.400000
21 11383 11236 1 109.50000 418.400000
22 11384 23 1 109.50000 418.400000
22 11384 24 1 109.50000 418.400000
22 11384 25 1 109.50000 418.400000
23 11384 24 1 109.50000 418.400000
23 11384 25 1 109.50000 418.400000
24 11384 25 1 109.50000 418.400000
26 11385 27 1 109.50000 418.400000
26 11385 28 1 109.50000 418.400000
26 11385 29 1 109.50000 418.400000
27 11385 28 1 109.50000 418.400000
27 11385 29 1 109.50000 418.400000
28 11385 29 1 109.50000 418.400000
33 11386 34 1 109.50000 418.400000
33 11386 35 1 109.50000 418.400000
33 11386 36 1 109.50000 418.400000
34 11386 35 1 109.50000 418.400000
34 11386 36 1 109.50000 418.400000
35 11386 36 1 109.50000 418.400000
37 11387 38 1 109.50000 418.400000
37 11387 39 1 109.50000 418.400000
37 11387 40 1 109.50000 418.400000
38 11387 39 1 109.50000 418.400000
38 11387 40 1 109.50000 418.400000
39 11387 40 1 109.50000 418.400000
41 11388 42 1 109.50000 418.400000
41 11388 43 1 109.50000 418.400000
41 11388 44 1 109.50000 418.400000
42 11388 43 1 109.50000 418.400000
42 11388 44 1 109.50000 418.400000
43 11388 44 1 109.50000 418.400000
45 11389 46 1 109.50000 418.400000
45 11389 47 1 109.50000 418.400000
45 11389 48 1 109.50000 418.400000
46 11389 47 1 109.50000 418.400000
46 11389 48 1 109.50000 418.400000
47 11389 48 1 109.50000 418.400000
49 11390 50 1 109.50000 418.400000
49 11390 51 1 109.50000 418.400000
49 11390 52 1 109.50000 418.400000
50 11390 51 1 109.50000 418.400000
50 11390 52 1 109.50000 418.400000
51 11390 52 1 109.50000 418.400000
53 11391 54 1 109.50000 418.400000
53 11391 55 1 109.50000 418.400000
53 11391 56 1 109.50000 418.400000
54 11391 55 1 109.50000 418.400000
54 11391 56 1 109.50000 418.400000
55 11391 56 1 109.50000 418.400000
57 11392 58 1 109.50000 418.400000
57 11392 59 1 109.50000 418.400000
57 11392 60 1 109.50000 418.400000
58 11392 59 1 109.50000 418.400000
58 11392 60 1 109.50000 418.400000
59 11392 60 1 109.50000 418.400000
61 11393 62 1 109.50000 418.400000
61 11393 63 1 109.50000 418.400000
61 11393 64 1 109.50000 418.400000
62 11393 63 1 109.50000 418.400000
62 11393 64 1 109.50000 418.400000
63 11393 64 1 109.50000 418.400000
70 11394 71 1 109.50000 418.400000
70 11394 72 1 109.50000 418.400000
70 11394 73 1 109.50000 418.400000
71 11394 72 1 109.50000 418.400000
71 11394 73 1 109.50000 418.400000
72 11394 73 1 109.50000 418.400000
74 11395 75 1 109.50000 418.400000
74 11395 76 1 109.50000 418.400000
74 11395 77 1 109.50000 418.400000
75 11395 76 1 109.50000 418.400000
75 11395 77 1 109.50000 418.400000
76 11395 77 1 109.50000 418.400000
78 11396 79 1 109.50000 418.400000
78 11396 80 1 109.50000 418.400000
78 11396 81 1 109.50000 418.400000
79 11396 80 1 109.50000 418.400000
79 11396 81 1 109.50000 418.400000
80 11396 81 1 109.50000 418.400000
82 11397 83 1 109.50000 418.400000
82 11397 84 1 109.50000 418.400000
82 11397 85 1 109.50000 418.400000
83 11397 84 1 109.50000 418.400000
83 11397 85 1 109.50000 418.400000
84 11397 85 1 109.50000 418.400000
87 11398 88 1 109.50000 418.400000
87 11398 89 1 109.50000 418.400000
87 11398 5157 1 109.50000 418.400000
88 11398 89 1 109.50000 418.400000
88 11398 5157 1 109.50000 418.400000
89 11398 5157 1 109.50000 418.400000
90 11399 91 1 109.50000 418.400000
90 11399 92 1 109.50000 418.400000
90 11399 11198 1 109.50000 418.400000
91 11399 92 1 109.50000 418.400000
91 11399 11198 1 109.50000 418.400000
92 11399 11198 1 109.50000 418.400000
93 11400 94 1 109.50000 418.400000
93 11400 95 1 109.50000 418.400000
93 11400 96 1 109.50000 418.400000
94 11400 95 1 109.50000 418.400000
94 11400 96 1 109.50000 418.400000
95 11400 96 1 109.50000 418.400000
97 11401 98 1 109.50000 418.400000
97 11401 99 1 109.50000 418.400000
97 11401 100 1 109.50000 418.400000
98 11401 99 1 109.50000 418.400000
98 11401 100 1 109.50000 418.400000
99 11401 100 1 109.50000 418.400000
101 11402 102 1 109.50000 418.400000
101 11402 103 1 109.50000 418.400000
101 11402 104 1 109.50000 418.400000
102 11402 103 1 109.50000 418.400000
102 11402 104 1 109.50000 418.400000
103 11402 104 1 109.50000 418.400000
105 11403 106 1 109.50000 418.400000
105 11403 107 1 109.50000 418.400000
105 11403 108 1 109.50000 418.400000
106 11403 107 1 109.50000 418.400000
106 11403 108 1 109.50000 418.400000
107 11403 108 1 109.50000 418.400000
109 11404 110 1 109.50000 418.400000
109 11404 111 1 109.50000 418.400000
109 11404 112 1 109.50000 418.400000
110 11404 111 1 109.50000 418.400000
110 11404 112 1 109.50000 418.400000
111 11404 112 1 109.50000 418.400000
113 11405 114 1 109.50000 418.400000
113 11405 115 1 109.50000 418.400000
113 11405 116 1 109.50000 418.400000
114 11405 115 1 109.50000 418.400000
114 11405 116 1 109.50000 418.400000
115 11405 116 1 109.50000 418.400000
117 11406 118 1 109.50000 418.400000
117 11406 119 1 109.50000 418.400000
117 11406 120 1 109.50000 418.400000
118 11406 119 1 109.50000 418.400000
118 11406 120 1 109.50000 418.400000
119 11406 120 1 109.50000 418.400000
126 11407 127 1 109.50000 418.400000
126 11407 128 1 109.50000 418.400000
126 11407 129 1 109.50000 418.400000
127 11407 128 1 109.50000 418.400000
127 11407 129 1 109.50000 418.400000
128 11407 129 1 109.50000 418.400000
130 11408 131 1 109.50000 418.400000
130 11408 132 1 109.50000 418.400000
130 11408 133 1 109.50000 418.400000
131 11408 132 1 109.50000 418.400000
131 11408 133 1 109.50000 418.400000
132 11408 133 1 109.50000 418.400000
127 11409 134 1 109.50000 418.400000
127 11409 135 1 109.50000 418.400000
127 11409 136 1 109.50000 418.400000
134 11409 135 1 109.50000 418.400000
134 11409 136 1 109.50000 418.400000
135 11409 136 1 109.50000 418.400000
137 11410 138 1 109.50000 418.400000
137 11410 139 1 109.50000 418.400000
137 11410 11215 1 109.50000 418.400000
138 11410 139 1 109.50000 418.400000
138 11410 11215 1 109.50000 418.400000
139 11410 11215 1 109.50000 418.400000
140 11411 141 1 109.50000 418.400000
140 11411 142 1 109.50000 418.400000
140 11411 143 1 109.50000 418.400000
141 11411 142 1 109.50000 418.400000
141 11411 143 1 109.50000 418.400000
142 11411 143 1 109.50000 418.400000
144 11412 145 1 109.50000 418.400000
144 11412 146 1 109.50000 418.400000
144 11412 147 1 109.50000 418.400000
145 11412 146 1 109.50000 418.400000
145 11412 147 1 109.50000 418.400000
146 11412 147 1 109.50000 418.400000
149 11413 150 1 109.50000 418.400000
149 11413 151 1 109.50000 418.400000
149 11413 3054 1 109.50000 418.400000
150 11413 151 1 109.50000 418.400000
150 11413 3054 1 109.50000 418.400000
151 11413 3054 1 109.50000 418.400000
152 11414 153 1 109.50000 418.400000
152 11414 154 1 109.50000 418.400000
152 11414 155 1 109.50000 418.400000
153 11414 154 1 109.50000 418.400000
153 11414 155 1 109.50000 418.400000
154 11414 155 1 109.50000 418.400000
14 11415 156 1 109.50000 418.400000
14 11415 157 1 109.50000 418.400000
14 11415 158 1 109.50000 418.400000
156 11415 157 1 109.50000 418.400000
156 11415 158 1 109.50000 418.400000
157 11415 158 1 109.50000 418.400000
160 11416 161 1 109.50000 418.400000
160 11416 162 1 109.50000 418.400000
160 11416 7368 1 109.50000 418.400000
161 11416 162 1 109.50000 418.400000
161 11416 7368 1 109.50000 418.400000
162 11416 7368 1 109.50000 418.400000
163 11417 164 1 109.50000 418.400000
163 11417 165 1 109.50000 418.400000
163 11417 166 1 109.50000 418.400000
164 11417 165 1 109.50000 418.400000
164 11417 166 1 109.50000 418.400000
165 11417 166 1 109.50000 418.400000
63 11418 167 1 109.50000 418.400000
63 11418 168 1 109.50000 418.400000
63 11418 169 1 109.50000 418.400000
167 11418 168 1 109.50000 418.400000
167 11418 169 1 109.50000 418.400000
168 11418 169 1 109.50000 418.400000
170 11419 171 1 109.50000 418.400000
170 11419 172 1 109.50000 418.400000
170 11419 173 1 109.50000 418.400000
171 11419 172 1 109.50000 418.400000
171 11419 173 1 109.50000 418.400000
172 11419 173 1 109.50000 418.400000
174 11420 175 1 109.50000 418.400000
174 11420 176 1 109.50000 418.400000
174 11420 177 1 109.50000 418.400000
175 11420 176 1 109.50000 418.400000
175 11420 177 1 109.50000 418.400000
176 11420 177 1 109.50000 418.400000
180 11421 181 1 109.50000 418.400000
180 11421 182 1 109.50000 418.400000
180 11421 183 1 109.50000 418.400000
181 11421 182 1 109.50000 418.400000
181 11421 183 1 109.50000 418.400000
182 11421 183 1 109.50000 418.400000
184 11422 185 1 109.50000 418.400000
184 11422 186 1 109.50000 418.400000
184 11422 187 1 109.50000 418.400000
185 11422 186 1 109.50000 418.400000
185 11422 187 1 109.50000 418.400000
186 11422 187 1 109.50000 418.400000
188 11423 189 1 109.50000 418.400000
188 11423 190 1 109.50000 418.400000
188 11423 191 1 109.50000 418.400000
189 11423 190 1 109.50000 418.400000
189 11423 191 1 109.50000 418.400000
190 11423 191 1 109.50000 418.400000
193 11424 194 1 109.50000 418.400000
193 11424 195 1 109.50000 418.400000
193 11424 196 1 109.50000 418.400000
194 11424 195 1 109.50000 418.400000
194 11424 196 1 109.50000 418.400000
195 11424 196 1 109.50000 418.400000
197 11425 198 1 109.50000 418.400000
197 11425 199 1 109.50000 418.400000
197 11425 200 1 109.50000 418.400000
198 11425 199 1 109.50000 418.400000
198 11425 200 1 109.50000 418.400000
199 11425 200 1 109.50000 418.400000
201 11426 202 1 109.50000 418.400000
201 11426 203 1 109.50000 418.400000
201 11426 8675 1 109.50000 418.400000
202 11426 203 1 109.50000 418.400000
202 11426 8675 1 109.50000 418.400000
203 11426 8675 1 109.50000 418.400000
206 11427 207 1 109.50000 418.400000
206 11427 208 1 109.50000 418.400000
206 11427 2442 1 109.50000 418.400000
207 11427 208 1 109.50000 418.400000
207 11427 2442 1 109.50000 418.400000
208 11427 2442 1 109.50000 418.400000
209 11428 210 1 109.50000 418.400000
209 11428 211 1 109.50000 418.400000
209 11428 212 1 109.50000 418.400000
210 11428 211 1 109.50000 418.400000
210 11428 212 1 109.50000 418.400000
211 11428 212 1 109.50000 418.400000
214 11429 215 1 109.50000 418.400000
214 11429 216 1 109.50000 418.400000
214 11429 1197 1 109.50000 418.400000
215 11429 216 1 109.50000 418.400000
215 11429 1197 1 109.50000 418.400000
216 11429 1197 1 109.50000 418.400000
217 11430 218 1 109.50000 418.400000
217 11430 219 1 109.50000 418.400000
217 11430 220 1 109.50000 418.400000
218 11430 219 1 109.50000 418.400000
218 11430 220 1 109.50000 418.400000
219 11430 220 1 109.50000 418.400000
221 11431 222 1 109.50000 418.400000
221 11431 223 1 109.50000 418.400000
221 11431 11376 1 109.50000 418.400000
222 11431 223 1 109.50000 418.400000
222 11431 11376 1 109.50000 418.400000
223 11431 11376 1 109.50000 418.400000
224 11432 225 1 109.50000 418.400000
224 11432 226 1 109.50000 418.400000
224 11432 227 1 109.50000 418.400000
225 11432 226 1 109.50000 418.400000
225 11432 227 1 109.50000 418.400000
226 11432 227 1 109.50000 418.400000
228 11433 229 1 109.50000 418.400000
228 11433 230 1 109.50000 418.400000
228 11433 231 1 109.50000 418.400000
229 11433 230 1 109.50000 418.400000
229 11433 231 1 109.50000 418.400000
230 11433 231 1 109.50000 418.400000
237 11434 8525 1 109.50000 418.400000
237 11434 8526 1 109.50000 418.400000
237 11434 8527 1 109.50000 418.400000
8525 11434 8526 1 109.50000 418.400000
8525 11434 8527 1 109.50000 418.400000
8526 11434 8527 1 109.50000 418.400000
242 11435 243 1 109.50000 418.400000
242 11435 244 1 109.50000 418.400000
242 11435 11350 1 109.50000 418.400000
243 11435 244 1 109.50000 418.400000
243 11435 11350 1 109.50000 418.400000
244 11435 11350 1 109.50000 418.400000
245 11436 9797 1 109.50000 418.400000
245 11436 11147 1 109.50000 418.400000
245 11436 11362 1 109.50000 418.400000
9797 11436 11147 1 109.50000 418.400000
9797 11436 11362 1 109.50000 418.400000
11147 11436 11362 1 109.50000 418.400000
246 11437 247 1 109.50000 418.400000
246 11437 248 1 109.50000 418.400000
246 11437 249 1 109.50000 418.400000
247 11437 248 1 109.50000 418.400000
247 11437 249 1 109.50000 418.400000
248 11437 249 1 109.50000 418.400000
251 11438 252 1 109.50000 418.400000
251 11438 253 1 109.50000 418.400000
251 11438 10275 1 109.50000 418.400000
252 11438 253 1 109.50000 418.400000
252 11438 10275 1 109.50000 418.400000
253 11438 10275 1 109.50000 418.400000
256 11439 257 1 109.50000 418.400000
256 11439 258 1 109.50000 418.400000
256 11439 259 1 109.50000 418.400000
257 11439 258 1 109.50000 418.400000
257 11439 259 1 109.50000 418.400000
258 11439 259 1 109.50000 418.400000
260 11440 261 1 109.50000 418.400000
260 11440 262 1 109.50000 418.400000
260 11440 263 1 109.50000 418.400000
261 11440 262 1 109.50000 418.400000
261 11440 263 1 109.50000 418.400000
262 11440 263 1 109.50000 418.400000
264 11441 265 1 109.50000 418.400000
264 11441 266 1 109.50000 418.400000
264 11441 267 1 109.50000 418.400000
265 11441 266 1 109.50000 418.400000
265 11441 267 1 109.50000 418.400000
266 11441 267 1 109.50000 418.400000
268 11442 269 1 109.50000 418.400000
268 11442 270 1 109.50000 418.400000
268 11442 271 1 109.50000 418.400000
269 11442 270 1 109.50000 418.400000
269 11442 271 1 109.50000 418.400000
270 11442 271 1 109.50000 418.400000
272 11443 273 1 109.50000 418.400000
272 11443 274 1 109.50000 418.400000
272 11443 11191 1 109.50000 418.400000
273 11443 274 1 109.50000 418.400000
273 11443 11191 1 109.50000 418.400000
274 11443 11191 1 109.50000 418.400000
275 11444 276 1 109.50000 418.400000
275 11444 277 1 109.50000 418.400000
275 11444 278 1 109.50000 418.400000
276 11444 277 1 109.50000 418.400000
276 11444 278 1 109.50000 418.400000
277 11444 278 1 109.50000 418.400000
279 11445 280 1 109.50000 418.400000
279 11445 281 1 109.50000 418.400000
279 11445 282 1 109.50000 418.400000
280 11445 281 1 109.50000 418.400000
280 11445 282 1 109.50000 418.400000
281 11445 282 1 109.50000 418.400000
286 11446 287 1 109.50000 418.400000
286 11446 288 1 109.50000 418.400000
286 11446 289 1 109.50000 418.400000
287 11446 288 1 109.50000 418.400000
287 11446 289 1 109.50000 418.400000
288 11446 289 1 109.50000 418.400000
290 11447 291 1 109.50000 418.400000
290 11447 292 1 109.50000 418.400000
290 11447 1212 1 109.50000 418.400000
291 11447 292 1 109.50000 418.400000
291 11447 1212 1 109.50000 418.400000
292 11447 1212 1 109.50000 418.400000
294 11448 295 1 109.50000 418.400000
294 11448 296 1 109.50000 418.400000
294 11448 9847 1 109.50000 418.400000
295 11448 296 1 109.50000 418.400000
295 11448 9847 1 109.50000 418.400000
296 11448 9847 1 109.50000 418.400000
298 11449 299 1 109.50000 418.400000
298 11449 300 1 109.50000 418.400000
298 11449 301 1 109.50000 418.400000
299 11449 300 1 109.50000 418.400000
299 11449 301 1 109.50000 418.400000
300 11449 301 1 109.50000 418.400000
302 11450 303 1 109.50000 418.400000
302 11450 304 1 109.50000 418.400000
302 11450 305 1 109.50000 418.400000
303 11450 304 1 109.50000 418.400000
303 11450 305 1 109.50000 418.400000
304 11450 305 1 109.50000 418.400000
306 11451 307 1 109.50000 418.400000
306 11451 308 1 109.50000 418.400000
306 11451 309 1 109.50000 418.400000
307 11451 308 1 109.50000 418.400000
307 11451 309 1 109.50000 418.400000
308 11451 309 1 109.50000 418.400000
310 11452 311 1 109.50000 418.400000
310 11452 312 1 109.50000 418.400000
310 11452 313 1 109.50000 418.400000
311 11452 312 1 109.50000 418.400000
311 11452 313 1 109.50000 418.400000
312 11452 313 1 109.50000 418.400000
316 11453 317 1 109.50000 418.400000
316 11453 318 1 109.50000 418.400000
316 11453 319 1 109.50000 418.400000
317 11453 318 1 109.50000 418.400000
317 11453 319 1 109.50000 418.400000
318 11453 319 1 109.50000 418.400000
289 11454 321 1 109.50000 418.400000
289 11454 322 1 109.50000 418.400000
289 11454 323 1 109.50000 418.400000
321 11454 322 1 109.50000 418.400000
321 11454 323 1 109.50000 418.400000
322 11454 323 1 109.50000 418.400000
324 11455 325 1 109.50000 418.400000
324 11455 326 1 109.50000 418.400000
324 11455 327 1 109.50000 418.400000
325 11455 326 1 109.50000 418.400000
325 11455 327 1 109.50000 418.400000
326 11455 327 1 109.50000 418.400000
328 11456 329 1 109.50000 418.400000
328 11456 330 1 109.50000 418.400000
328 11456 331 1 109.50000 418.400000
329 11456 330 1 109.50000 418.400000
329 11456 331 1 109.50000 418.400000
330 11456 331 1 109.50000 418.400000
332 11457 333 1 109.50000 418.400000
332 11457 334 1 109.50000 418.400000
332 11457 335 1 109.50000 418.400000
333 11457 334 1 109.50000 418.400000
333 11457 335 1 109.50000 418.400000
334 11457 335 1 109.50000 418.400000
338 11458 770 1 109.50000 418.400000
338 11458 5300 1 109.50000 418.400000
338 11458 5799 1 109.50000 418.400000
770 11458 5300 1 109.50000 418.400000
770 11458 5799 1 109.50000 418.400000
5300 11458 5799 1 109.50000 418.400000
340 11459 341 1 109.50000 418.400000
340 11459 342 1 109.50000 418.400000
340 11459 343 1 109.50000 418.400000
341 11459 342 1 109.50000 418.400000
341 11459 343 1 109.50000 418.400000
342 11459 343 1 109.50000 418.400000
344 11460 345 1 109.50000 418.400000
344 11460 346 1 109.50000 418.400000
344 11460 347 1 109.50000 418.400000
345 11460 346 1 109.50000 418.400000
345 11460 347 1 109.50000 418.400000
346 11460 347 1 109.50000 418.400000
352 11461 353 1 109.50000 418.400000
352 11461 354 1 109.50000 418.400000
352 11461 355 1 109.50000 418.400000
353 11461 354 1 109.50000 418.400000
353 11461 355 1 109.50000 418.400000
354 11461 355 1 109.50000 418.400000
356 11462 357 1 109.50000 418.400000
356 11462 358 1 109.50000 418.400000
356 11462 359 1 109.50000 418.400000
357 11462 358 1 109.50000 418.400000
357 11462 359 1 109.50000 418.400000
358 11462 359 1 109.50000 418.400000
360 11463 361 1 109.50000 418.400000
360 11463 362 1 109.50000 418.400000
360 11463 363 1 109.50000 418.400000
361 11463 362 1 109.50000 418.400000
361 11463 363 1 109.50000 418.400000
362 11463 363 1 109.50000 418.400000
364 11464 365 1 109.50000 418.400000
364 11464 366 1 109.50000 418.400000
364 11464 367 1 109.50000 418.400000
365 11464 366 1 109.50000 418.400000
365 11464 367 1 109.50000 418.400000
366 11464 367 1 109.50000 418.400000
372 11465 374 1 109.50000 418.400000
372 11465 2432 1 109.50000 418.400000
372 11465 6266 1 109.50000 418.400000
374 11465 2432 1 109.50000 418.400000
374 11465 6266 1 109.50000 418.400000
2432 11465 6266 1 109.50000 418.400000
377 11466 378 1 109.50000 418.400000
377 11466 1946 1 109.50000 418.400000
377 11466 1948 1 109.50000 418.400000
378 11466 1946 1 109.50000 418.400000
378 11466 1948 1 109.50000 418.400000
1946 11466 1948 1 109.50000 418.400000
379 11467 380 1 109.50000 418.400000
379 11467 381 1 109.50000 418.400000
379 11467 382 1 109.50000 418.400000
380 11467 381 1 109.50000 418.400000
380 11467 382 1 109.50000 418.400000
381 11467 382 1 109.50000 418.400000
383 11468 384 1 109.50000 418.400000
383 11468 385 1 109.50000 418.400000
383 11468 386 1 109.50000 418.400000
384 11468 385 1 109.50000 418.400000
384 11468 386 1 109.50000 418.400000
385 11468 386 1 109.50000 418.400000
387 11469 388 1 109.50000 418.400000
387 11469 389 1 109.50000 418.400000
387 11469 390 1 109.50000 418.400000
388 11469 389 1 109.50000 418.400000
388 11469 390 1 109.50000 418.400000
389 11469 390 1 109.50000 418.400000
391 11470 392 1 109.50000 418.400000
391 11470 393 1 109.50000 418.400000
391 11470 394 1 109.50000 418.400000
392 11470 393 1 109.50000 418.400000
392 11470 394 1 109.50000 418.400000
393 11470 394 1 109.50000 418.400000
397 11471 399 1 109.50000 418.400000
397 11471 400 1 109.50000 418.400000
397 11471 4444 1 109.50000 418.400000
399 11471 400 1 109.50000 418.400000
399 11471 4444 1 109.50000 418.400000
400 11471 4444 1 109.50000 418.400000
401 11472 402 1 109.50000 418.400000
401 11472 403 1 109.50000 418.400000
401 11472 404 1 109.50000 418.400000
402 11472 403 1 109.50000 418.400000
402 11472 404 1 109.50000 418.400000
403 11472 404 1 109.50000 418.400000
405 11473 406 1 109.50000 418.400000
405 11473 408 1 109.50000 418.400000
405 11473 8729 1 109.50000 418.400000
406 11473 408 1 109.50000 418.400000
406 11473 8729 1 109.50000 418.400000
408 11473 8729 1 109.50000 418.400000
409 11474 410 1 109.50000 418.400000
409 11474 411 1 109.50000 418.400000
409 11474 412 1 109.50000 418.400000
410 11474 411 1 109.50000 418.400000
410 11474 412 1 109.50000 418.400000
411 11474 412 1 109.50000 418.400000
413 11475 414 1 109.50000 418.400000
413 11475 415 1 109.50000 418.400000
413 11475 416 1 109.50000 418.400000
414 11475 415 1 109.50000 418.400000
414 11475 416 1 109.50000 418.400000
415 11475 416 1 109.50000 418.400000
420 11476 421 1 109.50000 418.400000
420 11476 422 1 109.50000 418.400000
420 11476 423 1 109.50000 418.400000
421 11476 422 1 109.50000 418.400000
421 11476 423 1 109.50000 418.400000
422 11476 423 1 109.50000 418.400000
271 11477 424 1 109.50000 418.400000
271 11477 425 1 109.50000 418.400000
271 11477 426 1 109.50000 418.400000
424 11477 425 1 109.50000 418.400000
424 11477 426 1 109.50000 418.400000
425 11477 426 1 109.50000 418.400000
427 11478 428 1 109.50000 418.400000
427 11478 429 1 109.50000 418.400000
427 11478 430 1 109.50000 418.400000
428 11478 429 1 109.50000 418.400000
428 11478 430 1 109.50000 418.400000
429 11478 430 1 109.50000 418.400000
431 11479 432 1 109.50000 418.400000
431 11479 433 1 109.50000 418.400000
431 11479 434 1 109.50000 418.400000
432 11479 433 1 109.50000 418.400000
432 11479 434 1 109.50000 418.400000
433 11479 434 1 109.50000 418.400000
436 11480 437 1 109.50000 418.400000
436 11480 438 1 109.50000 418.400000
436 11480 2817 1 109.50000 418.400000
437 11480 438 1 109.50000 418.400000
437 11480 2817 1 109.50000 418.400000
438 11480 2817 1 109.50000 418.400000
439 11481 440 1 109.50000 418.400000
439 11481 11259 1 109.50000 418.400000
439 11481 11342 1 109.50000 418.400000
440 11481 11259 1 109.50000 418.400000
440 11481 11342 1 109.50000 418.400000
11259 11481 11342 1 109.50000 418.400000
441 11482 442 1 109.50000 418.400000
441 11482 443 1 109.50000 418.400000
441 11482 444 1 109.50000 418.400000
442 11482 443 1 109.50000 418.400000
442 11482 444 1 109.50000 418.400000
443 11482 444 1 109.50000 418.400000
445 11483 446 1 109.50000 418.400000
445 11483 447 1 109.50000 418.400000
445 11483 448 1 109.50000 418.400000
446 11483 447 1 109.50000 418.400000
446 11483 448 1 109.50000 418.400000
447 11483 448 1 109.50000 418.400000
451 11484 452 1 109.50000 418.400000
451 11484 453 1 109.50000 418.400000
451 11484 454 1 109.50000 418.400000
452 11484 453 1 109.50000 418.400000
452 11484 454 1 109.50000 418.400000
453 11484 454 1 109.50000 418.400000
455 11485 456 1 109.50000 418.400000
455 11485 457 1 109.50000 418.400000
455 11485 458 1 109.50000 418.400000
456 11485 457 1 109.50000 418.400000
456 11485 458 1 109.50000 418.400000
457 11485 458 1 109.50000 418.400000
461 11486 462 1 109.50000 418.400000
461 11486 463 1 109.50000 418.400000
461 11486 464 1 109.50000 418.400000
462 11486 463 1 109.50000 418.400000
462 11486 464 1 109.50000 418.400000
463 11486 464 1 109.50000 418.400000
465 11487 466 1 109.50000 418.400000
465 11487 467 1 109.50000 418.400000
465 11487 468 1 109.50000 418.400000
466 11487 467 1 109.50000 418.400000
466 11487 468 1 109.50000 418.400000
467 11487 468 1 109.50000 418.400000
469 11488 470 1 109.50000 418.400000
469 11488 471 1 109.50000 418.400000
469 11488 472 1 109.50000 418.400000
470 11488 471 1 109.50000 418.400000
470 11488 472 1 109.50000 418.400000
471 11488 472 1 109.50000 418.400000
473 11489 474 1 109.50000 418.400000
473 11489 11197 1 109.50000 418.400000
473 11489 11263 1 109.50000 418.400000
474 11489 11197 1 109.50000 418.400000
474 11489 11263 1 109.50000 418.400000
11197 11489 11263 1 109.50000 418.400000
475 11490 476 1 109.50000 418.400000
475 11490 477 1 109.50000 418.400000
475 11490 478 1 109.50000 418.400000
476 11490 477 1 109.50000 418.400000
476 11490 478 1 109.50000 418.400000
477 11490 478 1 109.50000 418.400000
479 11491 482 1 109.50000 418.400000
479 11491 4167 1 109.50000 418.400000
479 11491 4168 1 109.50000 418.400000
482 11491 4167 1 109.50000 418.400000
482 11491 4168 1 109.50000 418.400000
4167 11491 4168 1 109.50000 418.400000
483 11492 484 1 109.50000 418.400000
483 11492 485 1 109.50000 418.400000
483 11492 486 1 109.50000 418.400000
484 11492 485 1 109.50000 418.400000
484 11492 486 1 109.50000 418.400000
485 11492 486 1 109.50000 418.400000
487 11493 488 1 109.50000 418.400000
487 11493 489 1 109.50000 418.400000
487 11493 490 1 109.50000 418.400000
488 11493 489 1 109.50000 418.400000
488 11493 490 1 109.50000 418.400000
489 11493 490 1 109.50000 418.400000
491 11494 492 1 109.50000 418.400000
491 11494 493 1 109.50000 418.400000
491 11494 494 1 109.50000 418.400000
492 11494 493 1 109.50000 418.400000
492 11494 494 1 109.50000 418.400000
493 11494 494 1 109.50000 418.400000
496 11495 497 1 109.50000 418.400000
496 11495 498 1 109.50000 418.400000
496 11495 7669 1 109.50000 418.400000
497 11495 498 1 109.50000 418.400000
497 11495 7669 1 109.50000 418.400000
498 11495 7669 1 109.50000 418.400000
500 11496 501 1 109.50000 418.400000
500 11496 502 1 109.50000 418.400000
500 11496 503 1 109.50000 418.400000
501 11496 502 1 109.50000 418.400000
501 11496 503 1 109.50000 418.400000
502 11496 503 1 109.50000 418.400000
504 11497 505 1 109.50000 418.400000
504 11497 506 1 109.50000 418.400000
504 11497 507 1 109.50000 418.400000
505 11497 506 1 109.50000 418.400000
505 11497 507 1 109.50000 418.400000
506 11497 507 1 109.50000 418.400000
508 11498 509 1 109.50000 418.400000
508 11498 510 1 109.50000 418.400000
508 11498 511 1 109.50000 418.400000
509 11498 510 1 109.50000 418.400000
509 11498 511 1 109.50000 418.400000
510 11498 511 1 109.50000 418.400000
123 11499 512 1 109.50000 418.400000
123 11499 513 1 109.50000 418.400000
123 11499 514 1 109.50000 418.400000
512 11499 513 1 109.50000 418.400000
512 11499 514 1 109.50000 418.400000
513 11499 514 1 109.50000 418.400000
521 11500 522 1 109.50000 418.400000
521 11500 524 1 109.50000 418.400000
521 11500 4624 1 109.50000 418.400000
522 11500 524 1 109.50000 418.400000
522 11500 4624 1 109.50000 418.400000
524 11500 4624 1 109.50000 418.400000
525 11501 526 1 109.50000 418.400000
525 11501 527 1 109.50000 418.400000
525 11501 528 1 109.50000 418.400000
526 11501 527 1 109.50000 418.400000
526 11501 528 1 109.50000 418.400000
527 11501 528 1 109.50000 418.400000
529 11502 530 1 109.50000 418.400000
529 11502 531 1 109.50000 418.400000
529 11502 532 1 109.50000 418.400000
530 11502 531 1 109.50000 418.400000
530 11502 532 1 109.50000 418.400000
531 11502 532 1 109.50000 418.400000
503 11503 533 1 109.50000 418.400000
503 11503 534 1 109.50000 418.400000
503 11503 535 1 109.50000 418.400000
533 11503 534 1 109.50000 418.400000
533 11503 535 1 109.50000 418.400000
534 11503 535 1 109.50000 418.400000
5 11504 536 1 109.50000 418.400000
5 11504 537 1 109.50000 418.400000
5 11504 538 1 109.50000 418.400000
536 11504 537 1 109.50000 418.400000
536 11504 538 1 109.50000 418.400000
537 11504 538 1 109.50000 418.400000
539 11505 540 1 109.50000 418.400000
539 11505 541 1 109.50000 418.400000
539 11505 542 1 109.50000 418.400000
540 11505 541 1 109.50000 418.400000
540 11505 542 1 109.50000 418.400000
541 11505 542 1 109.50000 418.400000
545 11506 1597 1 109.50000 418.400000
545 11506 4639 1 109.50000 418.400000
545 11506 4640 1 109.50000 418.400000
1597 11506 4639 1 109.50000 418.400000
1597 11506 4640 1 109.50000 418.400000
4639 11506 4640 1 109.50000 418.400000
249 11507 426 1 109.50000 418.400000
249 11507 546 1 109.50000 418.400000
249 11507 547 1 109.50000 418.400000
426 11507 546 1 109.50000 418.400000
426 11507 547 1 109.50000 418.400000
546 11507 547 1 109.50000 418.400000
548 11508 549 1 109.50000 418.400000
548 11508 550 1 109.50000 418.400000
548 11508 551 1 109.50000 418.400000
549 11508 550 1 109.50000 418.400000
549 11508 551 1 109.50000 418.400000
550 11508 551 1 109.50000 418.400000
552 11509 553 1 109.50000 418.400000
552 11509 554 1 109.50000 418.400000
552 11509 1131 1 109.50000 418.400000
553 11509 554 1 109.50000 418.400000
553 11509 1131 1 109.50000 418.400000
554 11509 1131 1 109.50000 418.400000
559 11510 560 1 109.50000 418.400000
559 11510 561 1 109.50000 418.400000
559 11510 11254 1 109.50000 418.400000
560 11510 561 1 109.50000 418.400000
560 11510 11254 1 109.50000 418.400000
561 11510 11254 1 109.50000 418.400000
562 11511 563 1 109.50000 418.400000
562 11511 564 1 109.50000 418.400000
562 11511 565 1 109.50000 418.400000
563 11511 564 1 109.50000 418.400000
563 11511 565 1 109.50000 418.400000
564 11511 565 1 109.50000 418.400000
566 11512 567 1 109.50000 418.400000
566 11512 568 1 109.50000 418.400000
566 11512 569 1 109.50000 418.400000
567 11512 568 1 109.50000 418.400000
567 11512 569 1 109.50000 418.400000
568 11512 569 1 109.50000 418.400000
570 11513 571 1 109.50000 418.400000
570 11513 572 1 109.50000 418.400000
570 11513 573 1 109.50000 418.400000
571 11513 572 1 109.50000 418.400000
571 11513 573 1 109.50000 418.400000
572 11513 573 1 109.50000 418.400000
574 11514 575 1 109.50000 418.400000
574 11514 576 1 109.50000 418.400000
574 11514 577 1 109.50000 418.400000
575 11514 576 1 109.50000 418.400000
575 11514 577 1 109.50000 418.400000
576 11514 577 1 109.50000 418.400000
347 11515 580 1 109.50000 418.400000
347 11515 581 1 109.50000 418.400000
347 11515 582 1 109.50000 418.400000
580 11515 581 1 109.50000 418.400000
580 11515 582 1 109.50000 418.400000
581 11515 582 1 109.50000 418.400000
585 11516 586 1 109.50000 418.400000
585 11516 587 1 109.50000 418.400000
585 11516 588 1 109.50000 418.400000
586 11516 587 1 109.50000 418.400000
586 11516 588 1 109.50000 418.400000
587 11516 588 1 109.50000 418.400000
589 11517 590 1 109.50000 418.400000
589 11517 591 1 109.50000 418.400000
589 11517 592 1 109.50000 418.400000
590 11517 591 1 109.50000 418.400000
590 11517 592 1 109.50000 418.400000
591 11517 592 1 109.50000 418.400000
593 11518 594 1 109.50000 418.400000
593 11518 595 1 109.50000 418.400000
593 11518 596 1 109.50000 418.400000
594 11518 595 1 109.50000 418.400000
594 11518 596 1 109.50000 418.400000
595 11518 596 1 109.50000 418.400000
597 11519 598 1 109.50000 418.400000
597 11519 599 1 109.50000 418.400000
597 11519 600 1 109.50000 418.400000
598 11519 599 1 109.50000 418.400000
598 11519 600 1 109.50000 418.400000
599 11519 600 1 109.50000 418.400000
601 11520 602 1 109.50000 418.400000
601 11520 603 1 109.50000 418.400000
601 11520 11329 1 109.50000 418.400000
602 11520 603 1 109.50000 418.400000
602 11520 11329 1 109.50000 418.400000
603 11520 11329 1 109.50000 418.400000
604 11521 605 1 109.50000 418.400000
604 11521 606 1 109.50000 418.400000
604 11521 607 1 109.50000 418.400000
605 11521 606 1 109.50000 418.400000
605 11521 607 1 109.50000 418.400000
606 11521 607 1 109.50000 418.400000
606 11522 608 1 109.50000 418.400000
606 11522 609 1 109.50000 418.400000
606 11522 610 1 109.50000 418.400000
608 11522 609 1 109.50000 418.400000
608 11522 610 1 109.50000 418.400000
609 11522 610 1 109.50000 418.400000
611 11523 612 1 109.50000 418.400000
611 11523 613 1 109.50000 418.400000
611 11523 614 1 109.50000 418.400000
612 11523 613 1 109.50000 418.400000
612 11523 614 1 109.50000 418.400000
613 11523 614 1 109.50000 418.400000
615 11524 616 1 109.50000 418.400000
615 11524 617 1 109.50000 418.400000
615 11524 618 1 109.50000 418.400000
616 11524 617 1 109.50000 418.400000
616 11524 618 1 109.50000 418.400000
617 11524 618 1 109.50000 418.400000
619 11525 620 1 109.50000 418.400000
619 11525 621 1 109.50000 418.400000
619 11525 11372 1 109.50000 418.400000
620 11525 621 1 109.50000 418.400000
620 11525 11372 1 109.50000 418.400000
621 11525 11372 1 109.50000 418.400000
622 11526 623 1 109.50000 418.400000
622 11526 624 1 109.50000 418.400000
622 11526 625 1 109.50000 418.400000
623 11526 624 1 109.50000 418.400000
623 11526 625 1 109.50000 418.400000
624 11526 625 1 109.50000 418.400000
375 11527 626 1 109.50000 418.400000
375 11527 627 1 109.50000 418.400000
375 11527 628 1 109.50000 418.400000
626 11527 627 1 109.50000 418.400000
626 11527 628 1 109.50000 418.400000
627 11527 628 1 109.50000 418.400000
292 11528 629 1 109.50000 418.400000
292 11528 630 1 109.50000 418.400000
292 11528 631 1 109.50000 418.400000
629 11528 630 1 109.50000 418.400000
629 11528 631 1 109.50000 418.400000
630 11528 631 1 109.50000 418.400000
632 11529 633 1 109.50000 418.400000
632 11529 634 1 109.50000 418.400000
632 11529 635 1 109.50000 418.400000
633 11529 634 1 109.50000 418.400000
633 11529 635 1 109.50000 418.400000
634 11529 635 1 109.50000 418.400000
636 11530 637 1 109.50000 418.400000
636 11530 638 1 109.50000 418.400000
636 11530 639 1 109.50000 418.400000
637 11530 638 1 109.50000 418.400000
637 11530 639 1 109.50000 418.400000
638 11530 639 1 109.50000 418.400000
640 11531 641 1 109.50000 418.400000
640 11531 642 1 109.50000 418.400000
640 11531 643 1 109.50000 418.400000
641 11531 642 1 109.50000 418.400000
641 11531 643 1 109.50000 418.400000
642 11531 643 1 109.50000 418.400000
445 11532 644 1 109.50000 418.400000
445 11532 645 1 109.50000 418.400000
445 11532 646 1 109.50000 418.400000
644 11532 645 1 109.50000 418.400000
644 11532 646 1 109.50000 418.400000
645 11532 646 1 109.50000 418.400000
647 11533 648 1 109.50000 418.400000
647 11533 649 1 109.50000 418.400000
647 11533 650 1 109.50000 418.400000
648 11533 649 1 109.50000 418.400000
648 11533 650 1 109.50000 418.400000
649 11533 650 1 109.50000 418.400000
651 11534 652 1 109.50000 418.400000
651 11534 653 1 109.50000 418.400000
651 11534 654 1 109.50000 418.400000
652 11534 653 1 109.50000 418.400000
652 11534 654 1 109.50000 418.400000
653 11534 654 1 109.50000 418.400000
388 11535 629 1 109.50000 418.400000
388 11535 655 1 109.50000 418.400000
388 11535 656 1 109.50000 418.400000
629 11535 655 1 109.50000 418.400000
629 11535 656 1 109.50000 418.400000
655 11535 656 1 109.50000 418.400000
657 11536 658 1 109.50000 418.400000
657 11536 659 1 109.50000 418.400000
657 11536 4295 1 109.50000 418.400000
658 11536 659 1 109.50000 418.400000
658 11536 4295 1 109.50000 418.400000
659 11536 4295 1 109.50000 418.400000
661 11537 662 1 109.50000 418.400000
661 11537 664 1 109.50000 418.400000
661 11537 6555 1 109.50000 418.400000
662 11537 664 1 109.50000 418.400000
662 11537 6555 1 109.50000 418.400000
664 11537 6555 1 109.50000 418.400000
665 11538 667 1 109.50000 418.400000
665 11538 668 1 109.50000 418.400000
665 11538 3695 1 109.50000 418.400000
667 11538 668 1 109.50000 418.400000
667 11538 3695 1 109.50000 418.400000
668 11538 3695 1 109.50000 418.400000
671 11539 672 1 109.50000 418.400000
671 11539 674 1 109.50000 418.400000
671 11539 8622 1 109.50000 418.400000
672 11539 674 1 109.50000 418.400000
672 11539 8622 1 109.50000 418.400000
674 11539 8622 1 109.50000 418.400000
678 11540 679 1 109.50000 418.400000
678 11540 680 1 109.50000 418.400000
678 11540 850 1 109.50000 418.400000
679 11540 680 1 109.50000 418.400000
679 11540 850 1 109.50000 418.400000
680 11540 850 1 109.50000 418.400000
682 11541 684 1 109.50000 418.400000
682 11541 685 1 109.50000 418.400000
682 11541 760 1 109.50000 418.400000
684 11541 685 1 109.50000 418.400000
684 11541 760 1 109.50000 418.400000
685 11541 760 1 109.50000 418.400000
686 11542 687 1 109.50000 418.400000
686 11542 688 1 109.50000 418.400000
686 11542 689 1 109.50000 418.400000
687 11542 688 1 109.50000 418.400000
687 11542 689 1 109.50000 418.400000
688 11542 689 1 109.50000 418.400000
401 11543 690 1 109.50000 418.400000
401 11543 692 1 109.50000 418.400000
401 11543 1749 1 109.50000 418.400000
690 11543 692 1 109.50000 418.400000
690 11543 1749 1 109.50000 418.400000
692 11543 1749 1 109.50000 418.400000
693 11544 694 1 109.50000 418.400000
693 11544 695 1 109.50000 418.400000
693 11544 696 1 109.50000 418.400000
694 11544 695 1 109.50000 418.400000
694 11544 696 1 109.50000 418.400000
695 11544 696 1 109.50000 418.400000
697 11545 698 1 109.50000 418.400000
697 11545 699 1 109.50000 418.400000
697 11545 700 1 109.50000 418.400000
698 11545 699 1 109.50000 418.400000
698 11545 700 1 109.50000 418.400000
699 11545 700 1 109.50000 418.400000
176 11546 701 1 109.50000 418.400000
176 11546 702 1 109.50000 418.400000
176 11546 703 1 109.50000 418.400000
701 11546 702 1 109.50000 418.400000
701 11546 703 1 109.50000 418.400000
702 11546 703 1 109.50000 418.400000
704 11547 705 1 109.50000 418.400000
704 11547 706 1 109.50000 418.400000
704 11547 707 1 109.50000 418.400000
705 11547 706 1 109.50000 418.400000
705 11547 707 1 109.50000 418.400000
706 11547 707 1 109.50000 418.400000
708 11548 709 1 109.50000 418.400000
708 11548 710 1 109.50000 418.400000
708 11548 711 1 109.50000 418.400000
709 11548 710 1 109.50000 418.400000
709 11548 711 1 109.50000 418.400000
710 11548 711 1 109.50000 418.400000
712 11549 713 1 109.50000 418.400000
712 11549 714 1 109.50000 418.400000
712 11549 7002 1 109.50000 418.400000
713 11549 714 1 109.50000 418.400000
713 11549 7002 1 109.50000 418.400000
714 11549 7002 1 109.50000 418.400000
717 11550 718 1 109.50000 418.400000
717 11550 3464 1 109.50000 418.400000
717 11550 7773 1 109.50000 418.400000
718 11550 3464 1 109.50000 418.400000
718 11550 7773 1 109.50000 418.400000
3464 11550 7773 1 109.50000 418.400000
719 11551 720 1 109.50000 418.400000
719 11551 721 1 109.50000 418.400000
719 11551 11258 1 109.50000 418.400000
720 11551 721 1 109.50000 418.400000
720 11551 11258 1 109.50000 418.400000
721 11551 11258 1 109.50000 418.400000
725 11552 726 1 109.50000 418.400000
725 11552 727 1 109.50000 418.400000
725 11552 728 1 109.50000 418.400000
726 11552 727 1 109.50000 418.400000
726 11552 728 1 109.50000 418.400000
727 11552 728 1 109.50000 418.400000
729 11553 730 1 109.50000 418.400000
729 11553 731 1 109.50000 418.400000
729 11553 732 1 109.50000 418.400000
730 11553 731 1 109.50000 418.400000
730 11553 732 1 109.50000 418.400000
731 11553 732 1 109.50000 418.400000
733 11554 734 1 109.50000 418.400000
733 11554 735 1 109.50000 418.400000
733 11554 736 1 109.50000 418.400000
734 11554 735 1 109.50000 418.400000
734 11554 736 1 109.50000 418.400000
735 11554 736 1 109.50000 418.400000
737 11555 738 1 109.50000 418.400000
737 11555 739 1 109.50000 418.400000
737 11555 740 1 109.50000 418.400000
738 11555 739 1 109.50000 418.400000
738 11555 740 1 109.50000 418.400000
739 11555 740 1 109.50000 418.400000
741 11556 742 1 109.50000 418.400000
741 11556 743 1 109.50000 418.400000
741 11556 744 1 109.50000 418.400000
742 11556 743 1 109.50000 418.400000
742 11556 744 1 109.50000 418.400000
743 11556 744 1 109.50000 418.400000
745 11557 746 1 109.50000 418.400000
745 11557 747 1 109.50000 418.400000
745 11557 748 1 109.50000 418.400000
746 11557 747 1 109.50000 418.400000
746 11557 748 1 109.50000 418.400000
747 11557 748 1 109.50000 418.400000
749 11558 750 1 109.50000 418.400000
749 11558 751 1 109.50000 418.400000
749 11558 752 1 109.50000 418.400000
750 11558 751 1 109.50000 418.400000
750 11558 752 1 109.50000 418.400000
751 11558 752 1 109.50000 418.400000
753 11559 754 1 109.50000 418.400000
753 11559 755 1 109.50000 418.400000
753 11559 756 1 109.50000 418.400000
754 11559 755 1 109.50000 418.400000
754 11559 756 1 109.50000 418.400000
755 11559 756 1 109.50000 418.400000
757 11560 758 1 109.50000 418.400000
757 11560 759 1 109.50000 418.400000
757 11560 760 1 109.50000 418.400000
758 11560 759 1 109.50000 418.400000
758 11560 760 1 109.50000 418.400000
759 11560 760 1 109.50000 418.400000
761 11561 762 1 109.50000 418.400000
761 11561 763 1 109.50000 418.400000
761 11561 764 1 109.50000 418.400000
762 11561 763 1 109.50000 418.400000
762 11561 764 1 109.50000 418.400000
763 11561 764 1 109.50000 418.400000
765 11562 766 1 109.50000 418.400000
765 11562 767 1 109.50000 418.400000
765 11562 768 1 109.50000 418.400000
766 11562 767 1 109.50000 418.400000
766 11562 768 1 109.50000 418.400000
767 11562 768 1 109.50000 418.400000
769 11563 770 1 109.50000 418.400000
769 11563 771 1 109.50000 418.400000
769 11563 772 1 109.50000 418.400000
770 11563 771 1 109.50000 418.400000
770 11563 772 1 109.50000 418.400000
771 11563 772 1 109.50000 418.400000
65 11564 773 1 109.50000 418.400000
65 11564 774 1 109.50000 418.400000
65 11564 775 1 109.50000 418.400000
773 11564 774 1 109.50000 418.400000
773 11564 775 1 109.50000 418.400000
774 11564 775 1 109.50000 418.400000
362 11565 776 1 109.50000 418.400000
362 11565 777 1 109.50000 418.400000
362 11565 2574 1 109.50000 418.400000
776 11565 777 1 109.50000 418.400000
776 11565 2574 1 109.50000 418.400000
777 11565 2574 1 109.50000 418.400000
779 11566 780 1 109.50000 418.400000
779 11566 781 1 109.50000 418.400000
779 11566 782 1 109.50000 418.400000
780 11566 781 1 109.50000 418.400000
780 11566 782 1 109.50000 418.400000
781 11566 782 1 109.50000 418.400000
786 11567 787 1 109.50000 418.400000
786 11567 788 1 109.50000 418.400000
786 11567 789 1 109.50000 418.400000
787 11567 788 1 109.50000 418.400000
787 11567 789 1 109.50000 418.400000
788 11567 789 1 109.50000 418.400000
790 11568 791 1 109.50000 418.400000
790 11568 792 1 109.50000 418.400000
790 11568 11375 1 109.50000 418.400000
791 11568 792 1 109.50000 418.400000
791 11568 11375 1 109.50000 418.400000
792 11568 11375 1 109.50000 418.400000
599 11569 794 1 109.50000 418.400000
599 11569 795 1 109.50000 418.400000
599 11569 796 1 109.50000 418.400000
794 11569 795 1 109.50000 418.400000
794 11569 796 1 109.50000 418.400000
795 11569 796 1 109.50000 418.400000
800 11570 801 1 109.50000 418.400000
800 11570 11266 1 109.50000 418.400000
800 11570 11373 1 109.50000 418.400000
801 11570 11266 1 109.50000 418.400000
801 11570 11373 1 109.50000 418.400000
11266 11570 11373 1 109.50000 418.400000
802 11571 803 1 109.50000 418.400000
802 11571 804 1 109.50000 418.400000
802 11571 805 1 109.50000 418.400000
803 11571 804 1 109.50000 418.400000
803 11571 805 1 109.50000 418.400000
804 11571 805 1 109.50000 418.400000
806 11572 807 1 109.50000 418.400000
806 11572 808 1 109.50000 418.400000
806 11572 2074 1 109.50000 418.400000
807 11572 808 1 109.50000 418.400000
807 11572 2074 1 109.50000 418.400000
808 11572 2074 1 109.50000 418.400000
813 11573 843 1 109.50000 418.400000
813 11573 5920 1 109.50000 418.400000
813 11573 7740 1 109.50000 418.400000
843 11573 5920 1 109.50000 418.400000
843 11573 7740 1 109.50000 418.400000
5920 11573 7740 1 109.50000 418.400000
814 11574 815 1 109.50000 418.400000
814 11574 816 1 109.50000 418.400000
814 11574 817 1 109.50000 418.400000
815 11574 816 1 109.50000 418.400000
815 11574 817 1 109.50000 418.400000
816 11574 817 1 109.50000 418.400000
818 11575 819 1 109.50000 418.400000
818 11575 820 1 109.50000 418.400000
818 11575 821 1 109.50000 418.400000
819 11575 820 1 109.50000 418.400000
819 11575 821 1 109.50000 418.400000
820 11575 821 1 109.50000 418.400000
404 11576 822 1 109.50000 418.400000
404 11576 823 1 109.50000 418.400000
404 11576 824 1 109.50000 418.400000
822 11576 823 1 109.50000 418.400000
822 11576 824 1 109.50000 418.400000
823 11576 824 1 109.50000 418.400000
825 11577 827 1 109.50000 418.400000
825 11577 828 1 109.50000 418.400000
825 11577 6852 1 109.50000 418.400000
827 11577 828 1 109.50000 418.400000
827 11577 6852 1 109.50000 418.400000
828 11577 6852 1 109.50000 418.400000
829 11578 830 1 109.50000 418.400000
829 11578 831 1 109.50000 418.400000
829 11578 832 1 109.50000 418.400000
830 11578 831 1 109.50000 418.400000
830 11578 832 1 109.50000 418.400000
831 11578 832 1 109.50000 418.400000
833 11579 834 1 109.50000 418.400000
833 11579 835 1 109.50000 418.400000
833 11579 836 1 109.50000 418.400000
834 11579 835 1 109.50000 418.400000
834 11579 836 1 109.50000 418.400000
835 11579 836 1 109.50000 418.400000
841 11580 842 1 109.50000 418.400000
841 11580 843 1 109.50000 418.400000
841 11580 844 1 109.50000 418.400000
842 11580 843 1 109.50000 418.400000
842 11580 844 1 109.50000 418.400000
843 11580 844 1 109.50000 418.400000
430 11581 846 1 109.50000 418.400000
430 11581 847 1 109.50000 418.400000
430 11581 848 1 109.50000 418.400000
846 11581 847 1 109.50000 418.400000
846 11581 848 1 109.50000 418.400000
847 11581 848 1 109.50000 418.400000
678 11582 681 1 109.50000 418.400000
678 11582 849 1 109.50000 418.400000
678 11582 851 1 109.50000 418.400000
681 11582 849 1 109.50000 418.400000
681 11582 851 1 109.50000 418.400000
849 11582 851 1 109.50000 418.400000
852 11583 853 1 109.50000 418.400000
852 11583 854 1 109.50000 418.400000
852 11583 855 1 109.50000 418.400000
853 11583 854 1 109.50000 418.400000
853 11583 855 1 109.50000 418.400000
854 11583 855 1 109.50000 418.400000
856 11584 857 1 109.50000 418.400000
856 11584 858 1 109.50000 418.400000
856 11584 859 1 109.50000 418.400000
857 11584 858 1 109.50000 418.400000
857 11584 859 1 109.50000 418.400000
858 11584 859 1 109.50000 418.400000
860 11585 861 1 109.50000 418.400000
860 11585 862 1 109.50000 418.400000
860 11585 863 1 109.50000 418.400000
861 11585 862 1 109.50000 418.400000
861 11585 863 1 109.50000 418.400000
862 11585 863 1 109.50000 418.400000
864 11586 865 1 109.50000 418.400000
864 11586 867 1 109.50000 418.400000
864 11586 986 1 109.50000 418.400000
865 11586 867 1 109.50000 418.400000
865 11586 986 1 109.50000 418.400000
867 11586 986 1 109.50000 418.400000
723 11587 868 1 109.50000 418.400000
723 11587 869 1 109.50000 418.400000
723 11587 870 1 109.50000 418.400000
868 11587 869 1 109.50000 418.400000
868 11587 870 1 109.50000 418.400000
869 11587 870 1 109.50000 418.400000
871 11588 872 1 109.50000 418.400000
871 11588 873 1 109.50000 418.400000
871 11588 874 1 109.50000 418.400000
872 11588 873 1 109.50000 418.400000
872 11588 874 1 109.50000 418.400000
873 11588 874 1 109.50000 418.400000
875 11589 876 1 109.50000 418.400000
875 11589 877 1 109.50000 418.400000
875 11589 878 1 109.50000 418.400000
876 11589 877 1 109.50000 418.400000
876 11589 878 1 109.50000 418.400000
877 11589 878 1 109.50000 418.400000
879 11590 880 1 109.50000 418.400000
879 11590 881 1 109.50000 418.400000
879 11590 882 1 109.50000 418.400000
880 11590 881 1 109.50000 418.400000
880 11590 882 1 109.50000 418.400000
881 11590 882 1 109.50000 418.400000
883 11591 884 1 109.50000 418.400000
883 11591 885 1 109.50000 418.400000
883 11591 886 1 109.50000 418.400000
884 11591 885 1 109.50000 418.400000
884 11591 886 1 109.50000 418.400000
885 11591 886 1 109.50000 418.400000
887 11592 888 1 109.50000 418.400000
887 11592 889 1 109.50000 418.400000
887 11592 11179 1 109.50000 418.400000
888 11592 889 1 109.50000 418.400000
888 11592 11179 1 109.50000 418.400000
889 11592 11179 1 109.50000 418.400000
890 11593 891 1 109.50000 418.400000
890 11593 892 1 109.50000 418.400000
890 11593 893 1 109.50000 418.400000
891 11593 892 1 109.50000 418.400000
891 11593 893 1 109.50000 418.400000
892 11593 893 1 109.50000 418.400000
894 11594 1220 1 109.50000 418.400000
894 11594 4030 1 109.50000 418.400000
894 11594 9955 1 109.50000 418.400000
1220 11594 4030 1 109.50000 418.400000
1220 11594 9955 1 109.50000 418.400000
4030 11594 9955 1 109.50000 418.400000
898 11595 899 1 109.50000 418.400000
898 11595 900 1 109.50000 418.400000
898 11595 901 1 109.50000 418.400000
899 11595 900 1 109.50000 418.400000
899 11595 901 1 109.50000 418.400000
900 11595 901 1 109.50000 418.400000
904 11596 1030 1 109.50000 418.400000
904 11596 4463 1 109.50000 418.400000
904 11596 5476 1 109.50000 418.400000
1030 11596 4463 1 109.50000 418.400000
1030 11596 5476 1 109.50000 418.400000
4463 11596 5476 1 109.50000 418.400000
907 11597 908 1 109.50000 418.400000
907 11597 909 1 109.50000 418.400000
907 11597 5450 1 109.50000 418.400000
908 11597 909 1 109.50000 418.400000
908 11597 5450 1 109.50000 418.400000
909 11597 5450 1 109.50000 418.400000
910 11598 911 1 109.50000 418.400000
910 11598 912 1 109.50000 418.400000
910 11598 913 1 109.50000 418.400000
911 11598 912 1 109.50000 418.400000
911 11598 913 1 109.50000 418.400000
912 11598 913 1 109.50000 418.400000
914 11599 915 1 109.50000 418.400000
914 11599 916 1 109.50000 418.400000
914 11599 917 1 109.50000 418.400000
915 11599 916 1 109.50000 418.400000
915 11599 917 1 109.50000 418.400000
916 11599 917 1 109.50000 418.400000
488 11600 918 1 109.50000 418.400000
488 11600 919 1 109.50000 418.400000
488 11600 920 1 109.50000 418.400000
918 11600 919 1 109.50000 418.400000
918 11600 920 1 109.50000 418.400000
919 11600 920 1 109.50000 418.400000
921 11601 922 1 109.50000 418.400000
921 11601 923 1 109.50000 418.400000
921 11601 924 1 109.50000 418.400000
922 11601 923 1 109.50000 418.400000
922 11601 924 1 109.50000 418.400000
923 11601 924 1 109.50000 418.400000
925 11602 926 1 109.50000 418.400000
925 11602 927 1 109.50000 418.400000
925 11602 928 1 109.50000 418.400000
926 11602 927 1 109.50000 418.400000
926 11602 928 1 109.50000 418.400000
927 11602 928 1 109.50000 418.400000
929 11603 930 1 109.50000 418.400000
929 11603 931 1 109.50000 418.400000
929 11603 932 1 109.50000 418.400000
930 11603 931 1 109.50000 418.400000
930 11603 932 1 109.50000 418.400000
931 11603 932 1 109.50000 418.400000
933 11604 934 1 109.50000 418.400000
933 11604 935 1 109.50000 418.400000
933 11604 936 1 109.50000 418.400000
934 11604 935 1 109.50000 418.400000
934 11604 936 1 109.50000 418.400000
935 11604 936 1 109.50000 418.400000
937 11605 938 1 109.50000 418.400000
937 11605 939 1 109.50000 418.400000
937 11605 940 1 109.50000 418.400000
938 11605 939 1 109.50000 418.400000
938 11605 940 1 109.50000 418.400000
939 11605 940 1 109.50000 418.400000
941 11606 942 1 109.50000 418.400000
941 11606 943 1 109.50000 418.400000
941 11606 944 1 109.50000 418.400000
942 11606 943 1 109.50000 418.400000
942 11606 944 1 109.50000 418.400000
943 11606 944 1 109.50000 418.400000
945 11607 946 1 109.50000 418.400000
945 11607 947 1 109.50000 418.400000
945 11607 948 1 109.50000 418.400000
946 11607 947 1 109.50000 418.400000
946 11607 948 1 109.50000 418.400000
947 11607 948 1 109.50000 418.400000
950 11608 951 1 109.50000 418.400000
950 11608 952 1 109.50000 418.400000
950 11608 8456 1 109.50000 418.400000
951 11608 952 1 109.50000 418.400000
951 11608 8456 1 109.50000 418.400000
952 11608 8456 1 109.50000 418.400000
953 11609 954 1 109.50000 418.400000
953 11609 955 1 109.50000 418.400000
953 11609 956 1 109.50000 418.400000
954 11609 955 1 109.50000 418.400000
954 11609 956 1 109.50000 418.400000
955 11609 956 1 109.50000 418.400000
957 11610 958 1 109.50000 418.400000
957 11610 1203 1 109.50000 418.400000
957 11610 3770 1 109.50000 418.400000
958 11610 1203 1 109.50000 418.400000
958 11610 3770 1 109.50000 418.400000
1203 11610 3770 1 109.50000 418.400000
925 11611 961 1 109.50000 418.400000
925 11611 962 1 109.50000 418.400000
925 11611 963 1 109.50000 418.400000
961 11611 962 1 109.50000 418.400000
961 11611 963 1 109.50000 418.400000
962 11611 963 1 109.50000 418.400000
966 11612 967 1 109.50000 418.400000
966 11612 968 1 109.50000 418.400000
966 11612 969 1 109.50000 418.400000
967 11612 968 1 109.50000 418.400000
967 11612 969 1 109.50000 418.400000
968 11612 969 1 109.50000 418.400000
970 11613 971 1 109.50000 418.400000
970 11613 972 1 109.50000 418.400000
970 11613 973 1 109.50000 418.400000
971 11613 972 1 109.50000 418.400000
971 11613 973 1 109.50000 418.400000
972 11613 973 1 109.50000 418.400000
974 11614 975 1 109.50000 418.400000
974 11614 976 1 109.50000 418.400000
974 11614 977 1 109.50000 418.400000
975 11614 976 1 109.50000 418.400000
975 11614 977 1 109.50000 418.400000
976 11614 977 1 109.50000 418.400000
981 11615 983 1 109.50000 418.400000
981 11615 984 1 109.50000 418.400000
981 11615 5879 1 109.50000 418.400000
983 11615 984 1 109.50000 418.400000
983 11615 5879 1 109.50000 418.400000
984 11615 5879 1 109.50000 418.400000
865 11616 866 1 109.50000 418.400000
865 11616 987 1 109.50000 418.400000
865 11616 988 1 109.50000 418.400000
866 11616 987 1 109.50000 418.400000
866 11616 988 1 109.50000 418.400000
987 11616 988 1 109.50000 418.400000
989 11617 990 1 109.50000 418.400000
989 11617 991 1 109.50000 418.400000
989 11617 992 1 109.50000 418.400000
990 11617 991 1 109.50000 418.400000
990 11617 992 1 109.50000 418.400000
991 11617 992 1 109.50000 418.400000
331 11618 993 1 109.50000 418.400000
331 11618 994 1 109.50000 418.400000
331 11618 995 1 109.50000 418.400000
993 11618 994 1 109.50000 418.400000
993 11618 995 1 109.50000 418.400000
994 11618 995 1 109.50000 418.400000
996 11619 997 1 109.50000 418.400000
996 11619 998 1 109.50000 418.400000
996 11619 999 1 109.50000 418.400000
997 11619 998 1 109.50000 418.400000
997 11619 999 1 109.50000 418.400000
998 11619 999 1 109.50000 418.400000
1000 11620 1001 1 109.50000 418.400000
1000 11620 1002 1 109.50000 418.400000
1000 11620 1003 1 109.50000 418.400000
1001 11620 1002 1 109.50000 418.400000
1001 11620 1003 1 109.50000 418.400000
1002 11620 1003 1 109.50000 418.400000
1004 11621 1005 1 109.50000 418.400000
1004 11621 1006 1 109.50000 418.400000
1004 11621 1007 1 109.50000 418.400000
1005 11621 1006 1 109.50000 418.400000
1005 11621 1007 1 109.50000 418.400000
1006 11621 1007 1 109.50000 418.400000
1008 11622 1009 1 109.50000 418.400000
1008 11622 1011 1 109.50000 418.400000
1008 11622 9846 1 109.50000 418.400000
1009 11622 1011 1 109.50000 418.400000
1009 11622 9846 1 109.50000 418.400000
1011 11622 9846 1 109.50000 418.400000
1012 11623 1013 1 109.50000 418.400000
1012 11623 1014 1 109.50000 418.400000
1012 11623 1015 1 109.50000 418.400000
1013 11623 1014 1 109.50000 418.400000
1013 11623 1015 1 109.50000 418.400000
1014 11623 1015 1 109.50000 418.400000
1016 11624 1017 1 109.50000 418.400000
1016 11624 1018 1 109.50000 418.400000
1016 11624 1019 1 109.50000 418.400000
1017 11624 1018 1 109.50000 418.400000
1017 11624 1019 1 109.50000 418.400000
1018 11624 1019 1 109.50000 418.400000
953 11625 1020 1 109.50000 418.400000
953 11625 1021 1 109.50000 418.400000
953 11625 1022 1 109.50000 418.400000
1020 11625 1021 1 109.50000 418.400000
1020 11625 1022 1 109.50000 418.400000
1021 11625 1022 1 109.50000 418.400000
1023 11626 1024 1 109.50000 418.400000
1023 11626 1025 1 109.50000 418.400000
1023 11626 1026 1 109.50000 418.400000
1024 11626 1025 1 109.50000 418.400000
1024 11626 1026 1 109.50000 418.400000
1025 11626 1026 1 109.50000 418.400000
1027 11627 1028 1 109.50000 418.400000
1027 11627 1029 1 109.50000 418.400000
1027 11627 11355 1 109.50000 418.400000
1028 11627 1029 1 109.50000 418.400000
1028 11627 11355 1 109.50000 418.400000
1029 11627 11355 1 109.50000 418.400000
1030 11628 1031 1 109.50000 418.400000
1030 11628 1032 1 109.50000 418.400000
1030 11628 1033 1 109.50000 418.400000
1031 11628 1032 1 109.50000 418.400000
1031 11628 1033 1 109.50000 418.400000
1032 11628 1033 1 109.50000 418.400000
1039 11629 1312 1 109.50000 418.400000
1039 11629 2942 1 109.50000 418.400000
1039 11629 10422 1 109.50000 418.400000
1312 11629 2942 1 109.50000 418.400000
1312 11629 10422 1 109.50000 418.400000
2942 11629 10422 1 109.50000 418.400000
869 11630 1040 1 109.50000 418.400000
869 11630 1041 1 109.50000 418.400000
869 11630 1042 1 109.50000 418.400000
1040 11630 1041 1 109.50000 418.400000
1040 11630 1042 1 109.50000 418.400000
1041 11630 1042 1 109.50000 418.400000
1042 11631 1043 1 109.50000 418.400000
1042 11631 1044 1 109.50000 418.400000
1042 11631 11241 1 109.50000 418.400000
1043 11631 1044 1 109.50000 418.400000
1043 11631 11241 1 109.50000 418.400000
1044 11631 11241 1 109.50000 418.400000
1045 11632 1046 1 109.50000 418.400000
1045 11632 1047 1 109.50000 418.400000
1045 11632 1048 1 109.50000 418.400000
1046 11632 1047 1 109.50000 418.400000
1046 11632 1048 1 109.50000 418.400000
1047 11632 1048 1 109.50000 418.400000
398 11633 1049 1 109.50000 418.400000
398 11633 1050 1 109.50000 418.400000
398 11633 1051 1 109.50000 418.400000
1049 11633 1050 1 109.50000 418.400000
1049 11633 1051 1 109.50000 418.400000
1050 11633 1051 1 109.50000 418.400000
1052 11634 1053 1 109.50000 418.400000
1052 11634 1054 1 109.50000 418.400000
1052 11634 1055 1 109.50000 418.400000
1053 11634 1054 1 109.50000 418.400000
1053 11634 1055 1 109.50000 418.400000
1054 11634 1055 1 109.50000 418.400000
1056 11635 1057 1 109.50000 418.400000
1056 11635 1058 1 109.50000 418.400000
1056 11635 1059 1 109.50000 418.400000
1057 11635 1058 1 109.50000 418.400000
1057 11635 1059 1 109.50000 418.400000
1058 11635 1059 1 109.50000 418.400000
856 11636 1060 1 109.50000 418.400000
856 11636 1061 1 109.50000 418.400000
856 11636 8585 1 109.50000 418.400000
1060 11636 1061 1 109.50000 418.400000
1060 11636 8585 1 109.50000 418.400000
1061 11636 8585 1 109.50000 418.400000
1064 11637 6547 1 109.50000 418.400000
1064 11637 6548 1 109.50000 418.400000
1064 11637 6549 1 109.50000 418.400000
6547 11637 6548 1 109.50000 418.400000
6547 11637 6549 1 109.50000 418.400000
6548 11637 6549 1 109.50000 418.400000
1066 11638 1067 1 109.50000 418.400000
1066 11638 1068 1 109.50000 418.400000
1066 11638 1069 1 109.50000 418.400000
1067 11638 1068 1 109.50000 418.400000
1067 11638 1069 1 109.50000 418.400000
1068 11638 1069 1 109.50000 418.400000
570 11639 1070 1 109.50000 418.400000
570 11639 1071 1 109.50000 418.400000
570 11639 1072 1 109.50000 418.400000
1070 11639 1071 1 109.50000 418.400000
1070 11639 1072 1 109.50000 418.400000
1071 11639 1072 1 109.50000 418.400000
1073 11640 1074 1 109.50000 418.400000
1073 11640 1075 1 109.50000 418.400000
1073 11640 1076 1 109.50000 418.400000
1074 11640 1075 1 109.50000 418.400000
1074 11640 1076 1 109.50000 418.400000
1075 11640 1076 1 109.50000 418.400000
1077 11641 1078 1 109.50000 418.400000
1077 11641 1079 1 109.50000 418.400000
1077 11641 1080 1 109.50000 418.400000
1078 11641 1079 1 109.50000 418.400000
1078 11641 1080 1 109.50000 418.400000
1079 11641 1080 1 109.50000 418.400000
1081 11642 1082 1 109.50000 418.400000
1081 11642 1083 1 109.50000 418.400000
1081 11642 1084 1 109.50000 418.400000
1082 11642 1083 1 109.50000 418.400000
1082 11642 1084 1 109.50000 418.400000
1083 11642 1084 1 109.50000 418.400000
1085 11643 1086 1 109.50000 418.400000
1085 11643 1087 1 109.50000 418.400000
1085 11643 1088 1 109.50000 418.400000
1086 11643 1087 1 109.50000 418.400000
1086 11643 1088 1 109.50000 418.400000
1087 11643 1088 1 109.50000 418.400000
1089 11644 1090 1 109.50000 418.400000
1089 11644 1091 1 109.50000 418.400000
1089 11644 1092 1 109.50000 418.400000
1090 11644 1091 1 109.50000 418.400000
1090 11644 1092 1 109.50000 418.400000
1091 11644 1092 1 109.50000 418.400000
609 11645 1093 1 109.50000 418.400000
609 11645 1094 1 109.50000 418.400000
609 11645 1095 1 109.50000 418.400000
1093 11645 1094 1 109.50000 418.400000
1093 11645 1095 1 109.50000 418.400000
1094 11645 1095 1 109.50000 418.400000
1096 11646 1097 1 109.50000 418.400000
1096 11646 1098 1 109.50000 418.400000
1096 11646 1099 1 109.50000 418.400000
1097 11646 1098 1 109.50000 418.400000
1097 11646 1099 1 109.50000 418.400000
1098 11646 1099 1 109.50000 418.400000
1100 11647 1101 1 109.50000 418.400000
1100 11647 1102 1 109.50000 418.400000
1100 11647 1103 1 109.50000 418.400000
1101 11647 1102 1 109.50000 418.400000
1101 11647 1103 1 109.50000 418.400000
1102 11647 1103 1 109.50000 418.400000
101 11648 1104 1 109.50000 418.400000
101 11648 1105 1 109.50000 418.400000
101 11648 1106 1 109.50000 418.400000
1104 11648 1105 1 109.50000 418.400000
1104 11648 1106 1 109.50000 418.400000
1105 11648 1106 1 109.50000 418.400000
1107 11649 1647 1 109.50000 418.400000
1107 11649 1649 1 109.50000 418.400000
1107 11649 3057 1 109.50000 418.400000
1647 11649 1649 1 109.50000 418.400000
1647 11649 3057 1 109.50000 418.400000
1649 11649 3057 1 109.50000 418.400000
1113 11650 1115 1 109.50000 418.400000
1113 11650 1116 1 109.50000 418.400000
1113 11650 4528 1 109.50000 418.400000
1115 11650 1116 1 109.50000 418.400000
1115 11650 4528 1 109.50000 418.400000
1116 11650 4528 1 109.50000 418.400000
1117 11651 1118 1 109.50000 418.400000
1117 11651 1119 1 109.50000 418.400000
1117 11651 1120 1 109.50000 418.400000
1118 11651 1119 1 109.50000 418.400000
1118 11651 1120 1 109.50000 418.400000
1119 11651 1120 1 109.50000 418.400000
1121 11652 1122 1 109.50000 418.400000
1121 11652 1123 1 109.50000 418.400000
1121 11652 1124 1 109.50000 418.400000
1122 11652 1123 1 109.50000 418.400000
1122 11652 1124 1 109.50000 418.400000
1123 11652 1124 1 109.50000 418.400000
1008 11653 1125 1 109.50000 418.400000
1008 11653 1126 1 109.50000 418.400000
1008 11653 1127 1 109.50000 418.400000
1125 11653 1126 1 109.50000 418.400000
1125 11653 1127 1 109.50000 418.400000
1126 11653 1127 1 109.50000 418.400000
758 11654 992 1 109.50000 418.400000
758 11654 1128 1 109.50000 418.400000
758 11654 1129 1 109.50000 418.400000
992 11654 1128 1 109.50000 418.400000
992 11654 1129 1 109.50000 418.400000
1128 11654 1129 1 109.50000 418.400000
553 11655 555 1 109.50000 418.400000
553 11655 1130 1 109.50000 418.400000
553 11655 1132 1 109.50000 418.400000
555 11655 1130 1 109.50000 418.400000
555 11655 1132 1 109.50000 418.400000
1130 11655 1132 1 109.50000 418.400000
1133 11656 1134 1 109.50000 418.400000
1133 11656 1135 1 109.50000 418.400000
1133 11656 1136 1 109.50000 418.400000
1134 11656 1135 1 109.50000 418.400000
1134 11656 1136 1 109.50000 418.400000
1135 11656 1136 1 109.50000 418.400000
1138 11657 1139 1 109.50000 418.400000
1138 11657 1140 1 109.50000 418.400000
1138 11657 1141 1 109.50000 418.400000
1139 11657 1140 1 109.50000 418.400000
1139 11657 1141 1 109.50000 418.400000
1140 11657 1141 1 109.50000 418.400000
1142 11658 1143 1 109.50000 418.400000
1142 11658 1144 1 109.50000 418.400000
1142 11658 1145 1 109.50000 418.400000
1143 11658 1144 1 109.50000 418.400000
1143 11658 1145 1 109.50000 418.400000
1144 11658 1145 1 109.50000 418.400000
1146 11659 1147 1 109.50000 418.400000
1146 11659 1148 1 109.50000 418.400000
1146 11659 1149 1 109.50000 418.400000
1147 11659 1148 1 109.50000 418.400000
1147 11659 1149 1 109.50000 418.400000
1148 11659 1149 1 109.50000 418.400000
151 11660 1150 1 109.50000 418.400000
151 11660 1152 1 109.50000 418.400000
151 11660 7371 1 109.50000 418.400000
1150 11660 1152 1 109.50000 418.400000
1150 11660 7371 1 109.50000 418.400000
1152 11660 7371 1 109.50000 418.400000
1153 11661 1154 1 109.50000 418.400000
1153 11661 1155 1 109.50000 418.400000
1153 11661 1156 1 109.50000 418.400000
1154 11661 1155 1 109.50000 418.400000
1154 11661 1156 1 109.50000 418.400000
1155 11661 1156 1 109.50000 418.400000
941 11662 1157 1 109.50000 418.400000
941 11662 1158 1 109.50000 418.400000
941 11662 1159 1 109.50000 418.400000
1157 11662 1158 1 109.50000 418.400000
1157 11662 1159 1 109.50000 418.400000
1158 11662 1159 1 109.50000 418.400000
1161 11663 1162 1 109.50000 418.400000
1161 11663 6020 1 109.50000 418.400000
1161 11663 6021 1 109.50000 418.400000
1162 11663 6020 1 109.50000 418.400000
1162 11663 6021 1 109.50000 418.400000
6020 11663 6021 1 109.50000 418.400000
1164 11664 1165 1 109.50000 418.400000
1164 11664 1166 1 109.50000 418.400000
1164 11664 1167 1 109.50000 418.400000
1165 11664 1166 1 109.50000 418.400000
1165 11664 1167 1 109.50000 418.400000
1166 11664 1167 1 109.50000 418.400000
1168 11665 1169 1 109.50000 418.400000
1168 11665 1170 1 109.50000 418.400000
1168 11665 1171 1 109.50000 418.400000
1169 11665 1170 1 109.50000 418.400000
1169 11665 1171 1 109.50000 418.400000
1170 11665 1171 1 109.50000 418.400000
1172 11666 1173 1 109.50000 418.400000
1172 11666 1174 1 109.50000 418.400000
1172 11666 1175 1 109.50000 418.400000
1173 11666 1174 1 109.50000 418.400000
1173 11666 1175 1 109.50000 418.400000
1174 11666 1175 1 109.50000 418.400000
531 11667 1176 1 109.50000 418.400000
531 11667 1177 1 109.50000 418.400000
531 11667 1178 1 109.50000 418.400000
1176 11667 1177 1 109.50000 418.400000
1176 11667 1178 1 109.50000 418.400000
1177 11667 1178 1 109.50000 418.400000
1181 11668 1182 1 109.50000 418.400000
1181 11668 1183 1 109.50000 418.400000
1181 11668 1184 1 109.50000 418.400000
1182 11668 1183 1 109.50000 418.400000
1182 11668 1184 1 109.50000 418.400000
1183 11668 1184 1 109.50000 418.400000
1185 11669 1186 1 109.50000 418.400000
1185 11669 1187 1 109.50000 418.400000
1185 11669 1188 1 109.50000 418.400000
1186 11669 1187 1 109.50000 418.400000
1186 11669 1188 1 109.50000 418.400000
1187 11669 1188 1 109.50000 418.400000
1189 11670 1190 1 109.50000 418.400000
1189 11670 1191 1 109.50000 418.400000
1189 11670 5161 1 109.50000 418.400000
1190 11670 1191 1 109.50000 418.400000
1190 11670 5161 1 109.50000 418.400000
1191 11670 5161 1 109.50000 418.400000
1193 11671 1194 1 109.50000 418.400000
1193 11671 1195 1 109.50000 418.400000
1193 11671 1196 1 109.50000 418.400000
1194 11671 1195 1 109.50000 418.400000
1194 11671 1196 1 109.50000 418.400000
1195 11671 1196 1 109.50000 418.400000
1143 11672 1197 1 109.50000 418.400000
1143 11672 1198 1 109.50000 418.400000
1143 11672 10092 1 109.50000 418.400000
1197 11672 1198 1 109.50000 418.400000
1197 11672 10092 1 109.50000 418.400000
1198 11672 10092 1 109.50000 418.400000
1200 11673 1201 1 109.50000 418.400000
1200 11673 1202 1 109.50000 418.400000
1200 11673 7373 1 109.50000 418.400000
1201 11673 1202 1 109.50000 418.400000
1201 11673 7373 1 109.50000 418.400000
1202 11673 7373 1 109.50000 418.400000
957 11674 959 1 109.50000 418.400000
957 11674 1204 1 109.50000 418.400000
957 11674 1205 1 109.50000 418.400000
959 11674 1204 1 109.50000 418.400000
959 11674 1205 1 109.50000 418.400000
1204 11674 1205 1 109.50000 418.400000
1206 11675 1207 1 109.50000 418.400000
1206 11675 11202 1 109.50000 418.400000
1206 11675 11323 1 109.50000 418.400000
1207 11675 11202 1 109.50000 418.400000
1207 11675 11323 1 109.50000 418.400000
11202 11675 11323 1 109.50000 418.400000
316 11676 1208 1 109.50000 418.400000
316 11676 1209 1 109.50000 418.400000
316 11676 1210 1 109.50000 418.400000
1208 11676 1209 1 109.50000 418.400000
1208 11676 1210 1 109.50000 418.400000
1209 11676 1210 1 109.50000 418.400000
1211 11677 1212 1 109.50000 418.400000
1211 11677 1213 1 109.50000 418.400000
1211 11677 1214 1 109.50000 418.400000
1212 11677 1213 1 109.50000 418.400000
1212 11677 1214 1 109.50000 418.400000
1213 11677 1214 1 109.50000 418.400000
1215 11678 1216 1 109.50000 418.400000
1215 11678 1217 1 109.50000 418.400000
1215 11678 1218 1 109.50000 418.400000
1216 11678 1217 1 109.50000 418.400000
1216 11678 1218 1 109.50000 418.400000
1217 11678 1218 1 109.50000 418.400000
894 11679 896 1 109.50000 418.400000
894 11679 1219 1 109.50000 418.400000
894 11679 1221 1 109.50000 418.400000
896 11679 1219 1 109.50000 418.400000
896 11679 1221 1 109.50000 418.400000
1219 11679 1221 1 109.50000 418.400000
1222 11680 1223 1 109.50000 418.400000
1222 11680 1224 1 109.50000 418.400000
1222 11680 11226 1 109.50000 418.400000
1223 11680 1224 1 109.50000 418.400000
1223 11680 11226 1 109.50000 418.400000
1224 11680 11226 1 109.50000 418.400000
1225 11681 1226 1 109.50000 418.400000
1225 11681 1227 1 109.50000 418.400000
1225 11681 1228 1 109.50000 418.400000
1226 11681 1227 1 109.50000 418.400000
1226 11681 1228 1 109.50000 418.400000
1227 11681 1228 1 109.50000 418.400000
1229 11682 1230 1 109.50000 418.400000
1229 11682 1231 1 109.50000 418.400000
1229 11682 1232 1 109.50000 418.400000
1230 11682 1231 1 109.50000 418.400000
1230 11682 1232 1 109.50000 418.400000
1231 11682 1232 1 109.50000 418.400000
1233 11683 1234 1 109.50000 418.400000
1233 11683 1235 1 109.50000 418.400000
1233 11683 1236 1 109.50000 418.400000
1234 11683 1235 1 109.50000 418.400000
1234 11683 1236 1 109.50000 418.400000
1235 11683 1236 1 109.50000 418.400000
687 11684 1240 1 109.50000 418.400000
687 11684 1241 1 109.50000 418.400000
687 11684 1242 1 109.50000 418.400000
1240 11684 1241 1 109.50000 418.400000
1240 11684 1242 1 109.50000 418.400000
1241 11684 1242 1 109.50000 418.400000
390 11685 1243 1 109.50000 418.400000
390 11685 1244 1 109.50000 418.400000
390 11685 1245 1 109.50000 418.400000
1243 11685 1244 1 109.50000 418.400000
1243 11685 1245 1 109.50000 418.400000
1244 11685 1245 1 109.50000 418.400000
1246 11686 1247 1 109.50000 418.400000
1246 11686 1248 1 109.50000 418.400000
1246 11686 1249 1 109.50000 418.400000
1247 11686 1248 1 109.50000 418.400000
1247 11686 1249 1 109.50000 418.400000
1248 11686 1249 1 109.50000 418.400000
1250 11687 1251 1 109.50000 418.400000
1250 11687 1252 1 109.50000 418.400000
1250 11687 1253 1 109.50000 418.400000
1251 11687 1252 1 109.50000 418.400000
1251 11687 1253 1 109.50000 418.400000
1252 11687 1253 1 109.50000 418.400000
1254 11688 1255 1 109.50000 418.400000
1254 11688 1256 1 109.50000 418.400000
1254 11688 1257 1 109.50000 418.400000
1255 11688 1256 1 109.50000 418.400000
1255 11688 1257 1 109.50000 418.400000
1256 11688 1257 1 109.50000 418.400000
1259 11689 1260 1 109.50000 418.400000
1259 11689 1261 1 109.50000 418.400000
1259 11689 1262 1 109.50000 418.400000
1260 11689 1261 1 109.50000 418.400000
1260 11689 1262 1 109.50000 418.400000
1261 11689 1262 1 109.50000 418.400000
160 11690 1263 1 109.50000 418.400000
160 11690 1264 1 109.50000 418.400000
160 11690 1265 1 109.50000 418.400000
1263 11690 1264 1 109.50000 418.400000
1263 11690 1265 1 109.50000 418.400000
1264 11690 1265 1 109.50000 418.400000
1266 11691 1267 1 109.50000 418.400000
1266 11691 1268 1 109.50000 418.400000
1266 11691 1269 1 109.50000 418.400000
1267 11691 1268 1 109.50000 418.400000
1267 11691 1269 1 109.50000 418.400000
1268 11691 1269 1 109.50000 418.400000
1270 11692 1271 1 109.50000 418.400000
1270 11692 1272 1 109.50000 418.400000
1270 11692 1273 1 109.50000 418.400000
1271 11692 1272 1 109.50000 418.400000
1271 11692 1273 1 109.50000 418.400000
1272 11692 1273 1 109.50000 418.400000
1274 11693 1275 1 109.50000 418.400000
1274 11693 1276 1 109.50000 418.400000
1274 11693 1277 1 109.50000 418.400000
1275 11693 1276 1 109.50000 418.400000
1275 11693 1277 1 109.50000 418.400000
1276 11693 1277 1 109.50000 418.400000
1278 11694 1279 1 109.50000 418.400000
1278 11694 1280 1 109.50000 418.400000
1278 11694 1281 1 109.50000 418.400000
1279 11694 1280 1 109.50000 418.400000
1279 11694 1281 1 109.50000 418.400000
1280 11694 1281 1 109.50000 418.400000
1282 11695 1283 1 109.50000 418.400000
1282 11695 1285 1 109.50000 418.400000
1282 11695 8383 1 109.50000 418.400000
1283 11695 1285 1 109.50000 418.400000
1283 11695 8383 1 109.50000 418.400000
1285 11695 8383 1 109.50000 418.400000
949 11696 1289 1 109.50000 418.400000
949 11696 1290 1 109.50000 418.400000
949 11696 1291 1 109.50000 418.400000
1289 11696 1290 1 109.50000 418.400000
1289 11696 1291 1 109.50000 418.400000
1290 11696 1291 1 109.50000 418.400000
1292 11697 1293 1 109.50000 418.400000
1292 11697 1294 1 109.50000 418.400000
1292 11697 1295 1 109.50000 418.400000
1293 11697 1294 1 109.50000 418.400000
1293 11697 1295 1 109.50000 418.400000
1294 11697 1295 1 109.50000 418.400000
668 11698 1296 1 109.50000 418.400000
668 11698 1297 1 109.50000 418.400000
668 11698 1298 1 109.50000 418.400000
1296 11698 1297 1 109.50000 418.400000
1296 11698 1298 1 109.50000 418.400000
1297 11698 1298 1 109.50000 418.400000
1299 11699 1300 1 109.50000 418.400000
1299 11699 1301 1 109.50000 418.400000
1299 11699 1302 1 109.50000 418.400000
1300 11699 1301 1 109.50000 418.400000
1300 11699 1302 1 109.50000 418.400000
1301 11699 1302 1 109.50000 418.400000
1303 11700 1305 1 109.50000 418.400000
1303 11700 1306 1 109.50000 418.400000
1303 11700 8986 1 109.50000 418.400000
1305 11700 1306 1 109.50000 418.400000
1305 11700 8986 1 109.50000 418.400000
1306 11700 8986 1 109.50000 418.400000
1047 11701 1307 1 109.50000 418.400000
1047 11701 1308 1 109.50000 418.400000
1047 11701 1309 1 109.50000 418.400000
1307 11701 1308 1 109.50000 418.400000
1307 11701 1309 1 109.50000 418.400000
1308 11701 1309 1 109.50000 418.400000
1225 11702 1310 1 109.50000 418.400000
1225 11702 1311 1 109.50000 418.400000
1225 11702 1312 1 109.50000 418.400000
1310 11702 1311 1 109.50000 418.400000
1310 11702 1312 1 109.50000 418.400000
1311 11702 1312 1 109.50000 418.400000
1313 11703 1314 1 109.50000 418.400000
1313 11703 1315 1 109.50000 418.400000
1313 11703 1316 1 109.50000 418.400000
1314 11703 1315 1 109.50000 418.400000
1314 11703 1316 1 109.50000 418.400000
1315 11703 1316 1 109.50000 418.400000
1317 11704 1318 1 109.50000 418.400000
1317 11704 1319 1 109.50000 418.400000
1317 11704 1320 1 109.50000 418.400000
1318 11704 1319 1 109.50000 418.400000
1318 11704 1320 1 109.50000 418.400000
1319 11704 1320 1 109.50000 418.400000
1321 11705 1322 1 109.50000 418.400000
1321 11705 1323 1 109.50000 418.400000
1321 11705 1324 1 109.50000 418.400000
1322 11705 1323 1 109.50000 418.400000
1322 11705 1324 1 109.50000 418.400000
1323 11705 1324 1 109.50000 418.400000
1325 11706 1326 1 109.50000 418.400000
1325 11706 1327 1 109.50000 418.400000
1325 11706 1328 1 109.50000 418.400000
1326 11706 1327 1 109.50000 418.400000
1326 11706 1328 1 109.50000 418.400000
1327 11706 1328 1 109.50000 418.400000
1329 11707 1331 1 109.50000 418.400000
1329 11707 2429 1 109.50000 418.400000
1329 11707 11335 1 109.50000 418.400000
1331 11707 2429 1 109.50000 418.400000
1331 11707 11335 1 109.50000 418.400000
2429 11707 11335 1 109.50000 418.400000
1332 11708 1333 1 109.50000 418.400000
1332 11708 1334 1 109.50000 418.400000
1332 11708 1335 1 109.50000 418.400000
1333 11708 1334 1 109.50000 418.400000
1333 11708 1335 1 109.50000 418.400000
1334 11708 1335 1 109.50000 418.400000
1336 11709 1337 1 109.50000 418.400000
1336 11709 1338 1 109.50000 418.400000
1336 11709 1339 1 109.50000 418.400000
1337 11709 1338 1 109.50000 418.400000
1337 11709 1339 1 109.50000 418.400000
1338 11709 1339 1 109.50000 418.400000
311 11710 1340 1 109.50000 418.400000
311 11710 1341 1 109.50000 418.400000
311 11710 1342 1 109.50000 418.400000
1340 11710 1341 1 109.50000 418.400000
1340 11710 1342 1 109.50000 418.400000
1341 11710 1342 1 109.50000 418.400000
1343 11711 1344 1 109.50000 418.400000
1343 11711 11235 1 109.50000 418.400000
1343 11711 11366 1 109.50000 418.400000
1344 11711 11235 1 109.50000 418.400000
1344 11711 11366 1 109.50000 418.400000
11235 11711 11366 1 109.50000 418.400000
1345 11712 1346 1 109.50000 418.400000
1345 11712 1347 1 109.50000 418.400000
1345 11712 1348 1 109.50000 418.400000
1346 11712 1347 1 109.50000 418.400000
1346 11712 1348 1 109.50000 418.400000
1347 11712 1348 1 109.50000 418.400000
1351 11713 5197 1 109.50000 418.400000
1351 11713 7319 1 109.50000 418.400000
1351 11713 7320 1 109.50000 418.400000
5197 11713 7319 1 109.50000 418.400000
5197 11713 7320 1 109.50000 418.400000
7319 11713 7320 1 109.50000 418.400000
1353 11714 1355 1 109.50000 418.400000
1353 11714 1356 1 109.50000 418.400000
1353 11714 9709 1 109.50000 418.400000
1355 11714 1356 1 109.50000 418.400000
1355 11714 9709 1 109.50000 418.400000
1356 11714 9709 1 109.50000 418.400000
1358 11715 1360 1 109.50000 418.400000
1358 11715 3234 1 109.50000 418.400000
1358 11715 3235 1 109.50000 418.400000
1360 11715 3234 1 109.50000 418.400000
1360 11715 3235 1 109.50000 418.400000
3234 11715 3235 1 109.50000 418.400000
1361 11716 1362 1 109.50000 418.400000
1361 11716 1363 1 109.50000 418.400000
1361 11716 1364 1 109.50000 418.400000
1362 11716 1363 1 109.50000 418.400000
1362 11716 1364 1 109.50000 418.400000
1363 11716 1364 1 109.50000 418.400000
1365 11717 1366 1 109.50000 418.400000
1365 11717 1367 1 109.50000 418.400000
1365 11717 1368 1 109.50000 418.400000
1366 11717 1367 1 109.50000 418.400000
1366 11717 1368 1 109.50000 418.400000
1367 11717 1368 1 109.50000 418.400000
1369 11718 1370 1 109.50000 418.400000
1369 11718 1371 1 109.50000 418.400000
1369 11718 1372 1 109.50000 418.400000
1370 11718 1371 1 109.50000 418.400000
1370 11718 1372 1 109.50000 418.400000
1371 11718 1372 1 109.50000 418.400000
4 11719 1373 1 109.50000 418.400000
4 11719 1374 1 109.50000 418.400000
4 11719 1375 1 109.50000 418.400000
1373 11719 1374 1 109.50000 418.400000
1373 11719 1375 1 109.50000 418.400000
1374 11719 1375 1 109.50000 418.400000
1376 11720 1377 1 109.50000 418.400000
1376 11720 1378 1 109.50000 418.400000
1376 11720 1379 1 109.50000 418.400000
1377 11720 1378 1 109.50000 418.400000
1377 11720 1379 1 109.50000 418.400000
1378 11720 1379 1 109.50000 418.400000
1383 11721 1384 1 109.50000 418.400000
1383 11721 1385 1 109.50000 418.400000
1383 11721 1386 1 109.50000 418.400000
1384 11721 1385 1 109.50000 418.400000
1384 11721 1386 1 109.50000 418.400000
1385 11721 1386 1 109.50000 418.400000
1390 11722 1391 1 109.50000 418.400000
1390 11722 1392 1 109.50000 418.400000
1390 11722 1393 1 109.50000 418.400000
1391 11722 1392 1 109.50000 418.400000
1391 11722 1393 1 109.50000 418.400000
1392 11722 1393 1 109.50000 418.400000
1394 11723 1395 1 109.50000 418.400000
1394 11723 1396 1 109.50000 418.400000
1394 11723 1397 1 109.50000 418.400000
1395 11723 1396 1 109.50000 418.400000
1395 11723 1397 1 109.50000 418.400000
1396 11723 1397 1 109.50000 418.400000
1398 11724 1399 1 109.50000 418.400000
1398 11724 1400 1 109.50000 418.400000
1398 11724 1401 1 109.50000 418.400000
1399 11724 1400 1 109.50000 418.400000
1399 11724 1401 1 109.50000 418.400000
1400 11724 1401 1 109.50000 418.400000
1402 11725 1404 1 109.50000 418.400000
1402 11725 1405 1 109.50000 418.400000
1402 11725 3796 1 109.50000 418.400000
1404 11725 1405 1 109.50000 418.400000
1404 11725 3796 1 109.50000 418.400000
1405 11725 3796 1 109.50000 418.400000
1410 11726 1411 1 109.50000 418.400000
1410 11726 1412 1 109.50000 418.400000
1410 11726 5204 1 109.50000 418.400000
1411 11726 1412 1 109.50000 418.400000
1411 11726 5204 1 109.50000 418.400000
1412 11726 5204 1 109.50000 418.400000
1413 11727 1414 1 109.50000 418.400000
1413 11727 11191 1 109.50000 418.400000
1413 11727 11367 1 109.50000 418.400000
1414 11727 11191 1 109.50000 418.400000
1414 11727 11367 1 109.50000 418.400000
11191 11727 11367 1 109.50000 418.400000
1218 11728 1415 1 109.50000 418.400000
1218 11728 1416 1 109.50000 418.400000
1218 11728 1417 1 109.50000 418.400000
1415 11728 1416 1 109.50000 418.400000
1415 11728 1417 1 109.50000 418.400000
1416 11728 1417 1 109.50000 418.400000
1418 11729 1419 1 109.50000 418.400000
1418 11729 1420 1 109.50000 418.400000
1418 11729 1421 1 109.50000 418.400000
1419 11729 1420 1 109.50000 418.400000
1419 11729 1421 1 109.50000 418.400000
1420 11729 1421 1 109.50000 418.400000
1422 11730 1423 1 109.50000 418.400000
1422 11730 1424 1 109.50000 418.400000
1422 11730 1425 1 109.50000 418.400000
1423 11730 1424 1 109.50000 418.400000
1423 11730 1425 1 109.50000 418.400000
1424 11730 1425 1 109.50000 418.400000
1426 11731 1427 1 109.50000 418.400000
1426 11731 1428 1 109.50000 418.400000
1426 11731 1429 1 109.50000 418.400000
1427 11731 1428 1 109.50000 418.400000
1427 11731 1429 1 109.50000 418.400000
1428 11731 1429 1 109.50000 418.400000
984 11732 1430 1 109.50000 418.400000
984 11732 1431 1 109.50000 418.400000
984 11732 1432 1 109.50000 418.400000
1430 11732 1431 1 109.50000 418.400000
1430 11732 1432 1 109.50000 418.400000
1431 11732 1432 1 109.50000 418.400000
339 11733 1433 1 109.50000 418.400000
339 11733 1434 1 109.50000 418.400000
339 11733 1435 1 109.50000 418.400000
1433 11733 1434 1 109.50000 418.400000
1433 11733 1435 1 109.50000 418.400000
1434 11733 1435 1 109.50000 418.400000
1436 11734 1437 1 109.50000 418.400000
1436 11734 1438 1 109.50000 418.400000
1436 11734 1439 1 109.50000 418.400000
1437 11734 1438 1 109.50000 418.400000
1437 11734 1439 1 109.50000 418.400000
1438 11734 1439 1 109.50000 418.400000
1440 11735 1441 1 109.50000 418.400000
1440 11735 1442 1 109.50000 418.400000
1440 11735 8166 1 109.50000 418.400000
1441 11735 1442 1 109.50000 418.400000
1441 11735 8166 1 109.50000 418.400000
1442 11735 8166 1 109.50000 418.400000
1445 11736 1446 1 109.50000 418.400000
1445 11736 1447 1 109.50000 418.400000
1445 11736 1448 1 109.50000 418.400000
1446 11736 1447 1 109.50000 418.400000
1446 11736 1448 1 109.50000 418.400000
1447 11736 1448 1 109.50000 418.400000
129 11737 1451 1 109.50000 418.400000
129 11737 1452 1 109.50000 418.400000
129 11737 1453 1 109.50000 418.400000
1451 11737 1452 1 109.50000 418.400000
1451 11737 1453 1 109.50000 418.400000
1452 11737 1453 1 109.50000 418.400000
1454 11738 1455 1 109.50000 418.400000
1454 11738 1456 1 109.50000 418.400000
1454 11738 11289 1 109.50000 418.400000
1455 11738 1456 1 109.50000 418.400000
1455 11738 11289 1 109.50000 418.400000
1456 11738 11289 1 109.50000 418.400000
1256 11739 1457 1 109.50000 418.400000
1256 11739 1458 1 109.50000 418.400000
1256 11739 1459 1 109.50000 418.400000
1457 11739 1458 1 109.50000 418.400000
1457 11739 1459 1 109.50000 418.400000
1458 11739 1459 1 109.50000 418.400000
1461 11740 1462 1 109.50000 418.400000
1461 11740 8161 1 109.50000 418.400000
1461 11740 8162 1 109.50000 418.400000
1462 11740 8161 1 109.50000 418.400000
1462 11740 8162 1 109.50000 418.400000
8161 11740 8162 1 109.50000 418.400000
1464 11741 1465 1 109.50000 418.400000
1464 11741 1466 1 109.50000 418.400000
1464 11741 1467 1 109.50000 418.400000
1465 11741 1466 1 109.50000 418.400000
1465 11741 1467 1 109.50000 418.400000
1466 11741 1467 1 109.50000 418.400000
1472 11742 1473 1 109.50000 418.400000
1472 11742 1474 1 109.50000 418.400000
1472 11742 1475 1 109.50000 418.400000
1473 11742 1474 1 109.50000 418.400000
1473 11742 1475 1 109.50000 418.400000
1474 11742 1475 1 109.50000 418.400000
1478 11743 1479 1 109.50000 418.400000
1478 11743 1480 1 109.50000 418.400000
1478 11743 1481 1 109.50000 418.400000
1479 11743 1480 1 109.50000 418.400000
1479 11743 1481 1 109.50000 418.400000
1480 11743 1481 1 109.50000 418.400000
1482 11744 1483 1 109.50000 418.400000
1482 11744 1484 1 109.50000 418.400000
1482 11744 1485 1 109.50000 418.400000
1483 11744 1484 1 109.50000 418.400000
1483 11744 1485 1 109.50000 418.400000
1484 11744 1485 1 109.50000 418.400000
1486 11745 1487 1 109.50000 418.400000
1486 11745 1488 1 109.50000 418.400000
1486 11745 1489 1 109.50000 418.400000
1487 11745 1488 1 109.50000 418.400000
1487 11745 1489 1 109.50000 418.400000
1488 11745 1489 1 109.50000 418.400000
1490 11746 1491 1 109.50000 418.400000
1490 11746 1492 1 109.50000 418.400000
1490 11746 1493 1 109.50000 418.400000
1491 11746 1492 1 109.50000 418.400000
1491 11746 1493 1 109.50000 418.400000
1492 11746 1493 1 109.50000 418.400000
1494 11747 1495 1 109.50000 418.400000
1494 11747 1496 1 109.50000 418.400000
1494 11747 1497 1 109.50000 418.400000
1495 11747 1496 1 109.50000 418.400000
1495 11747 1497 1 109.50000 418.400000
1496 11747 1497 1 109.50000 418.400000
1498 11748 1500 1 109.50000 418.400000
1498 11748 1501 1 109.50000 418.400000
1498 11748 3617 1 109.50000 418.400000
1500 11748 1501 1 109.50000 418.400000
1500 11748 3617 1 109.50000 418.400000
1501 11748 3617 1 109.50000 418.400000
1502 11749 1503 1 109.50000 418.400000
1502 11749 1504 1 109.50000 418.400000
1502 11749 1505 1 109.50000 418.400000
1503 11749 1504 1 109.50000 418.400000
1503 11749 1505 1 109.50000 418.400000
1504 11749 1505 1 109.50000 418.400000
1506 11750 1507 1 109.50000 418.400000
1506 11750 1508 1 109.50000 418.400000
1506 11750 1509 1 109.50000 418.400000
1507 11750 1508 1 109.50000 418.400000
1507 11750 1509 1 109.50000 418.400000
1508 11750 1509 1 109.50000 418.400000
1510 11751 1511 1 109.50000 418.400000
1510 11751 1512 1 109.50000 418.400000
1510 11751 1513 1 109.50000 418.400000
1511 11751 1512 1 109.50000 418.400000
1511 11751 1513 1 109.50000 418.400000
1512 11751 1513 1 109.50000 418.400000
1514 11752 1515 1 109.50000 418.400000
1514 11752 1516 1 109.50000 418.400000
1514 11752 1517 1 109.50000 418.400000
1515 11752 1516 1 109.50000 418.400000
1515 11752 1517 1 109.50000 418.400000
1516 11752 1517 1 109.50000 418.400000
1518 11753 1519 1 109.50000 418.400000
1518 11753 1520 1 109.50000 418.400000
1518 11753 1521 1 109.50000 418.400000
1519 11753 1520 1 109.50000 418.400000
1519 11753 1521 1 109.50000 418.400000
1520 11753 1521 1 109.50000 418.400000
1522 11754 1523 1 109.50000 418.400000
1522 11754 1524 1 109.50000 418.400000
1522 11754 1525 1 109.50000 418.400000
1523 11754 1524 1 109.50000 418.400000
1523 11754 1525 1 109.50000 418.400000
1524 11754 1525 1 109.50000 418.400000
1526 11755 1527 1 109.50000 418.400000
1526 11755 1528 1 109.50000 418.400000
1526 11755 1529 1 109.50000 418.400000
1527 11755 1528 1 109.50000 418.400000
1527 11755 1529 1 109.50000 418.400000
1528 11755 1529 1 109.50000 418.400000
1530 11756 1531 1 109.50000 418.400000
1530 11756 1532 1 109.50000 418.400000
1530 11756 1533 1 109.50000 418.400000
1531 11756 1532 1 109.50000 418.400000
1531 11756 1533 1 109.50000 418.400000
1532 11756 1533 1 109.50000 418.400000
1534 11757 1535 1 109.50000 418.400000
1534 11757 1536 1 109.50000 418.400000
1534 11757 1537 1 109.50000 418.400000
1535 11757 1536 1 109.50000 418.400000
1535 11757 1537 1 109.50000 418.400000
1536 11757 1537 1 109.50000 418.400000
1308 11758 1538 1 109.50000 418.400000
1308 11758 1539 1 109.50000 418.400000
1308 11758 1540 1 109.50000 418.400000
1538 11758 1539 1 109.50000 418.400000
1538 11758 1540 1 109.50000 418.400000
1539 11758 1540 1 109.50000 418.400000
1543 11759 1544 1 109.50000 418.400000
1543 11759 1545 1 109.50000 418.400000
1543 11759 1546 1 109.50000 418.400000
1544 11759 1545 1 109.50000 418.400000
1544 11759 1546 1 109.50000 418.400000
1545 11759 1546 1 109.50000 418.400000
1547 11760 1548 1 109.50000 418.400000
1547 11760 1549 1 109.50000 418.400000
1547 11760 1550 1 109.50000 418.400000
1548 11760 1549 1 109.50000 418.400000
1548 11760 1550 1 109.50000 418.400000
1549 11760 1550 1 109.50000 418.400000
1551 11761 1552 1 109.50000 418.400000
1551 11761 1553 1 109.50000 418.400000
1551 11761 1554 1 109.50000 418.400000
1552 11761 1553 1 109.50000 418.400000
1552 11761 1554 1 109.50000 418.400000
1553 11761 1554 1 109.50000 418.400000
1555 11762 1556 1 109.50000 418.400000
1555 11762 1557 1 109.50000 418.400000
1555 11762 1558 1 109.50000 418.400000
1556 11762 1557 1 109.50000 418.400000
1556 11762 1558 1 109.50000 418.400000
1557 11762 1558 1 109.50000 418.400000
1559 11763 1560 1 109.50000 418.400000
1559 11763 1561 1 109.50000 418.400000
1559 11763 1562 1 109.50000 418.400000
1560 11763 1561 1 109.50000 418.400000
1560 11763 1562 1 109.50000 418.400000
1561 11763 1562 1 109.50000 418.400000
1563 11764 1564 1 109.50000 418.400000
1563 11764 1565 1 109.50000 418.400000
1563 11764 1566 1 109.50000 418.400000
1564 11764 1565 1 109.50000 418.400000
1564 11764 1566 1 109.50000 418.400000
1565 11764 1566 1 109.50000 418.400000
1567 11765 1569 1 109.50000 418.400000
1567 11765 1570 1 109.50000 418.400000
1567 11765 3972 1 109.50000 418.400000
1569 11765 1570 1 109.50000 418.400000
1569 11765 3972 1 109.50000 418.400000
1570 11765 3972 1 109.50000 418.400000
1571 11766 1572 1 109.50000 418.400000
1571 11766 1573 1 109.50000 418.400000
1571 11766 1574 1 109.50000 418.400000
1572 11766 1573 1 109.50000 418.400000
1572 11766 1574 1 109.50000 418.400000
1573 11766 1574 1 109.50000 418.400000
1116 11767 1575 1 109.50000 418.400000
1116 11767 1577 1 109.50000 418.400000
1116 11767 1578 1 109.50000 418.400000
1575 11767 1577 1 109.50000 418.400000
1575 11767 1578 1 109.50000 418.400000
1577 11767 1578 1 109.50000 418.400000
1579 11768 1580 1 109.50000 418.400000
1579 11768 1581 1 109.50000 418.400000
1579 11768 1582 1 109.50000 418.400000
1580 11768 1581 1 109.50000 418.400000
1580 11768 1582 1 109.50000 418.400000
1581 11768 1582 1 109.50000 418.400000
208 11769 1583 1 109.50000 418.400000
208 11769 1584 1 109.50000 418.400000
208 11769 1585 1 109.50000 418.400000
1583 11769 1584 1 109.50000 418.400000
1583 11769 1585 1 109.50000 418.400000
1584 11769 1585 1 109.50000 418.400000
1052 11770 1586 1 109.50000 418.400000
1052 11770 1587 1 109.50000 418.400000
1052 11770 10998 1 109.50000 418.400000
1586 11770 1587 1 109.50000 418.400000
1586 11770 10998 1 109.50000 418.400000
1587 11770 10998 1 109.50000 418.400000
1589 11771 1590 1 109.50000 418.400000
1589 11771 1591 1 109.50000 418.400000
1589 11771 1592 1 109.50000 418.400000
1590 11771 1591 1 109.50000 418.400000
1590 11771 1592 1 109.50000 418.400000
1591 11771 1592 1 109.50000 418.400000
9 11772 1593 1 109.50000 418.400000
9 11772 1594 1 109.50000 418.400000
9 11772 1595 1 109.50000 418.400000
1593 11772 1594 1 109.50000 418.400000
1593 11772 1595 1 109.50000 418.400000
1594 11772 1595 1 109.50000 418.400000
226 11773 1596 1 109.50000 418.400000
226 11773 1597 1 109.50000 418.400000
226 11773 1598 1 109.50000 418.400000
1596 11773 1597 1 109.50000 418.400000
1596 11773 1598 1 109.50000 418.400000
1597 11773 1598 1 109.50000 418.400000
946 11774 1599 1 109.50000 418.400000
946 11774 1600 1 109.50000 418.400000
946 11774 1601 1 109.50000 418.400000
1599 11774 1600 1 109.50000 418.400000
1599 11774 1601 1 109.50000 418.400000
1600 11774 1601 1 109.50000 418.400000
113 11775 1602 1 109.50000 418.400000
113 11775 1603 1 109.50000 418.400000
113 11775 1604 1 109.50000 418.400000
1602 11775 1603 1 109.50000 418.400000
1602 11775 1604 1 109.50000 418.400000
1603 11775 1604 1 109.50000 418.400000
1605 11776 1606 1 109.50000 418.400000
1605 11776 1607 1 109.50000 418.400000
1605 11776 1608 1 109.50000 418.400000
1606 11776 1607 1 109.50000 418.400000
1606 11776 1608 1 109.50000 418.400000
1607 11776 1608 1 109.50000 418.400000
1609 11777 1610 1 109.50000 418.400000
1609 11777 1611 1 109.50000 418.400000
1609 11777 7765 1 109.50000 418.400000
1610 11777 1611 1 109.50000 418.400000
1610 11777 7765 1 109.50000 418.400000
1611 11777 7765 1 109.50000 418.400000
1187 11778 1613 1 109.50000 418.400000
1187 11778 1614 1 109.50000 418.400000
1187 11778 1615 1 109.50000 418.400000
1613 11778 1614 1 109.50000 418.400000
1613 11778 1615 1 109.50000 418.400000
1614 11778 1615 1 109.50000 418.400000
345 11779 1616 1 109.50000 418.400000
345 11779 1617 1 109.50000 418.400000
345 11779 1618 1 109.50000 418.400000
1616 11779 1617 1 109.50000 418.400000
1616 11779 1618 1 109.50000 418.400000
1617 11779 1618 1 109.50000 418.400000
1620 11780 1621 1 109.50000 418.400000
1620 11780 1622 1 109.50000 418.400000
1620 11780 2338 1 109.50000 418.400000
1621 11780 1622 1 109.50000 418.400000
1621 11780 2338 1 109.50000 418.400000
1622 11780 2338 1 109.50000 418.400000
1623 11781 1624 1 109.50000 418.400000
1623 11781 1625 1 109.50000 418.400000
1623 11781 11266 1 109.50000 418.400000
1624 11781 1625 1 109.50000 418.400000
1624 11781 11266 1 109.50000 418.400000
1625 11781 11266 1 109.50000 418.400000
1626 11782 1627 1 109.50000 418.400000
1626 11782 1628 1 109.50000 418.400000
1626 11782 1629 1 109.50000 418.400000
1627 11782 1628 1 109.50000 418.400000
1627 11782 1629 1 109.50000 418.400000
1628 11782 1629 1 109.50000 418.400000
1630 11783 1631 1 109.50000 418.400000
1630 11783 1632 1 109.50000 418.400000
1630 11783 8057 1 109.50000 418.400000
1631 11783 1632 1 109.50000 418.400000
1631 11783 8057 1 109.50000 418.400000
1632 11783 8057 1 109.50000 418.400000
1637 11784 1638 1 109.50000 418.400000
1637 11784 1639 1 109.50000 418.400000
1637 11784 1640 1 109.50000 418.400000
1638 11784 1639 1 109.50000 418.400000
1638 11784 1640 1 109.50000 418.400000
1639 11784 1640 1 109.50000 418.400000
79 11785 1641 1 109.50000 418.400000
79 11785 1642 1 109.50000 418.400000
79 11785 1643 1 109.50000 418.400000
1641 11785 1642 1 109.50000 418.400000
1641 11785 1643 1 109.50000 418.400000
1642 11785 1643 1 109.50000 418.400000
328 11786 995 1 109.50000 418.400000
328 11786 3056 1 109.50000 418.400000
328 11786 3577 1 109.50000 418.400000
995 11786 3056 1 109.50000 418.400000
995 11786 3577 1 109.50000 418.400000
3056 11786 3577 1 109.50000 418.400000
1656 11787 1657 1 109.50000 418.400000
1656 11787 1658 1 109.50000 418.400000
1656 11787 1659 1 109.50000 418.400000
1657 11787 1658 1 109.50000 418.400000
1657 11787 1659 1 109.50000 418.400000
1658 11787 1659 1 109.50000 418.400000
1660 11788 1661 1 109.50000 418.400000
1660 11788 1662 1 109.50000 418.400000
1660 11788 1663 1 109.50000 418.400000
1661 11788 1662 1 109.50000 418.400000
1661 11788 1663 1 109.50000 418.400000
1662 11788 1663 1 109.50000 418.400000
1664 11789 1665 1 109.50000 418.400000
1664 11789 1666 1 109.50000 418.400000
1664 11789 1667 1 109.50000 418.400000
1665 11789 1666 1 109.50000 418.400000
1665 11789 1667 1 109.50000 418.400000
1666 11789 1667 1 109.50000 418.400000
1668 11790 1669 1 109.50000 418.400000
1668 11790 1670 1 109.50000 418.400000
1668 11790 1671 1 109.50000 418.400000
1669 11790 1670 1 109.50000 418.400000
1669 11790 1671 1 109.50000 418.400000
1670 11790 1671 1 109.50000 418.400000
646 11791 1619 1 109.50000 418.400000
646 11791 1672 1 109.50000 418.400000
646 11791 1673 1 109.50000 418.400000
1619 11791 1672 1 109.50000 418.400000
1619 11791 1673 1 109.50000 418.400000
1672 11791 1673 1 109.50000 418.400000
1674 11792 1675 1 109.50000 418.400000
1674 11792 1676 1 109.50000 418.400000
1674 11792 1677 1 109.50000 418.400000
1675 11792 1676 1 109.50000 418.400000
1675 11792 1677 1 109.50000 418.400000
1676 11792 1677 1 109.50000 418.400000
153 11793 1678 1 109.50000 418.400000
153 11793 1679 1 109.50000 418.400000
153 11793 1680 1 109.50000 418.400000
1678 11793 1679 1 109.50000 418.400000
1678 11793 1680 1 109.50000 418.400000
1679 11793 1680 1 109.50000 418.400000
1344 11794 1681 1 109.50000 418.400000
1344 11794 1682 1 109.50000 418.400000
1344 11794 1683 1 109.50000 418.400000
1681 11794 1682 1 109.50000 418.400000
1681 11794 1683 1 109.50000 418.400000
1682 11794 1683 1 109.50000 418.400000
1692 11795 1693 1 109.50000 418.400000
1692 11795 1694 1 109.50000 418.400000
1692 11795 1695 1 109.50000 418.400000
1693 11795 1694 1 109.50000 418.400000
1693 11795 1695 1 109.50000 418.400000
1694 11795 1695 1 109.50000 418.400000
1697 11796 1698 1 109.50000 418.400000
1697 11796 1699 1 109.50000 418.400000
1697 11796 4081 1 109.50000 418.400000
1698 11796 1699 1 109.50000 418.400000
1698 11796 4081 1 109.50000 418.400000
1699 11796 4081 1 109.50000 418.400000
1700 11797 1701 1 109.50000 418.400000
1700 11797 1702 1 109.50000 418.400000
1700 11797 1703 1 109.50000 418.400000
1701 11797 1702 1 109.50000 418.400000
1701 11797 1703 1 109.50000 418.400000
1702 11797 1703 1 109.50000 418.400000
1704 11798 1705 1 109.50000 418.400000
1704 11798 1706 1 109.50000 418.400000
1704 11798 1707 1 109.50000 418.400000
1705 11798 1706 1 109.50000 418.400000
1705 11798 1707 1 109.50000 418.400000
1706 11798 1707 1 109.50000 418.400000
811 11799 1708 1 109.50000 418.400000
811 11799 1709 1 109.50000 418.400000
811 11799 1710 1 109.50000 418.400000
1708 11799 1709 1 109.50000 418.400000
1708 11799 1710 1 109.50000 418.400000
1709 11799 1710 1 109.50000 418.400000
250 11800 1711 1 109.50000 418.400000
250 11800 1713 1 109.50000 418.400000
250 11800 1714 1 109.50000 418.400000
1711 11800 1713 1 109.50000 418.400000
1711 11800 1714 1 109.50000 418.400000
1713 11800 1714 1 109.50000 418.400000
560 11801 1715 1 109.50000 418.400000
560 11801 1716 1 109.50000 418.400000
560 11801 1717 1 109.50000 418.400000
1715 11801 1716 1 109.50000 418.400000
1715 11801 1717 1 109.50000 418.400000
1716 11801 1717 1 109.50000 418.400000
1719 11802 1722 1 109.50000 418.400000
1719 11802 5451 1 109.50000 418.400000
1719 11802 5452 1 109.50000 418.400000
1722 11802 5451 1 109.50000 418.400000
1722 11802 5452 1 109.50000 418.400000
5451 11802 5452 1 109.50000 418.400000
1723 11803 1724 1 109.50000 418.400000
1723 11803 1725 1 109.50000 418.400000
1723 11803 1726 1 109.50000 418.400000
1724 11803 1725 1 109.50000 418.400000
1724 11803 1726 1 109.50000 418.400000
1725 11803 1726 1 109.50000 418.400000
973 11804 1728 1 109.50000 418.400000
973 11804 1729 1 109.50000 418.400000
973 11804 1730 1 109.50000 418.400000
1728 11804 1729 1 109.50000 418.400000
1728 11804 1730 1 109.50000 418.400000
1729 11804 1730 1 109.50000 418.400000
1731 11805 1732 1 109.50000 418.400000
1731 11805 1733 1 109.50000 418.400000
1731 11805 1734 1 109.50000 418.400000
1732 11805 1733 1 109.50000 418.400000
1732 11805 1734 1 109.50000 418.400000
1733 11805 1734 1 109.50000 418.400000
1738 11806 1739 1 109.50000 418.400000
1738 11806 8581 1 109.50000 418.400000
1738 11806 10835 1 109.50000 418.400000
1739 11806 8581 1 109.50000 418.400000
1739 11806 10835 1 109.50000 418.400000
8581 11806 10835 1 109.50000 418.400000
1743 11807 1744 1 109.50000 418.400000
1743 11807 1745 1 109.50000 418.400000
1743 11807 1746 1 109.50000 418.400000
1744 11807 1745 1 109.50000 418.400000
1744 11807 1746 1 109.50000 418.400000
1745 11807 1746 1 109.50000 418.400000
691 11808 692 1 109.50000 418.400000
691 11808 1747 1 109.50000 418.400000
691 11808 1748 1 109.50000 418.400000
692 11808 1747 1 109.50000 418.400000
692 11808 1748 1 109.50000 418.400000
1747 11808 1748 1 109.50000 418.400000
1751 11809 1752 1 109.50000 418.400000
1751 11809 1753 1 109.50000 418.400000
1751 11809 11310 1 109.50000 418.400000
1752 11809 1753 1 109.50000 418.400000
1752 11809 11310 1 109.50000 418.400000
1753 11809 11310 1 109.50000 418.400000
1754 11810 1755 1 109.50000 418.400000
1754 11810 1756 1 109.50000 418.400000
1754 11810 1757 1 109.50000 418.400000
1755 11810 1756 1 109.50000 418.400000
1755 11810 1757 1 109.50000 418.400000
1756 11810 1757 1 109.50000 418.400000
1758 11811 1759 1 109.50000 418.400000
1758 11811 1760 1 109.50000 418.400000
1758 11811 11310 1 109.50000 418.400000
1759 11811 1760 1 109.50000 418.400000
1759 11811 11310 1 109.50000 418.400000
1760 11811 11310 1 109.50000 418.400000
1299 11812 1761 1 109.50000 418.400000
1299 11812 1762 1 109.50000 418.400000
1299 11812 1763 1 109.50000 418.400000
1761 11812 1762 1 109.50000 418.400000
1761 11812 1763 1 109.50000 418.400000
1762 11812 1763 1 109.50000 418.400000
1764 11813 1765 1 109.50000 418.400000
1764 11813 1766 1 109.50000 418.400000
1764 11813 1767 1 109.50000 418.400000
1765 11813 1766 1 109.50000 418.400000
1765 11813 1767 1 109.50000 418.400000
1766 11813 1767 1 109.50000 418.400000
1768 11814 1769 1 109.50000 418.400000
1768 11814 1770 1 109.50000 418.400000
1768 11814 1771 1 109.50000 418.400000
1769 11814 1770 1 109.50000 418.400000
1769 11814 1771 1 109.50000 418.400000
1770 11814 1771 1 109.50000 418.400000
1772 11815 1773 1 109.50000 418.400000
1772 11815 1774 1 109.50000 418.400000
1772 11815 1775 1 109.50000 418.400000
1773 11815 1774 1 109.50000 418.400000
1773 11815 1775 1 109.50000 418.400000
1774 11815 1775 1 109.50000 418.400000
1258 11816 1776 1 109.50000 418.400000
1258 11816 1777 1 109.50000 418.400000
1258 11816 11242 1 109.50000 418.400000
1776 11816 1777 1 109.50000 418.400000
1776 11816 11242 1 109.50000 418.400000
1777 11816 11242 1 109.50000 418.400000
1601 11817 1778 1 109.50000 418.400000
1601 11817 1779 1 109.50000 418.400000
1601 11817 1780 1 109.50000 418.400000
1778 11817 1779 1 109.50000 418.400000
1778 11817 1780 1 109.50000 418.400000
1779 11817 1780 1 109.50000 418.400000
1781 11818 1782 1 109.50000 418.400000
1781 11818 1783 1 109.50000 418.400000
1781 11818 1784 1 109.50000 418.400000
1782 11818 1783 1 109.50000 418.400000
1782 11818 1784 1 109.50000 418.400000
1783 11818 1784 1 109.50000 418.400000
640 11819 1785 1 109.50000 418.400000
640 11819 1786 1 109.50000 418.400000
640 11819 1787 1 109.50000 418.400000
1785 11819 1786 1 109.50000 418.400000
1785 11819 1787 1 109.50000 418.400000
1786 11819 1787 1 109.50000 418.400000
1788 11820 1789 1 109.50000 418.400000
1788 11820 1790 1 109.50000 418.400000
1788 11820 1791 1 109.50000 418.400000
1789 11820 1790 1 109.50000 418.400000
1789 11820 1791 1 109.50000 418.400000
1790 11820 1791 1 109.50000 418.400000
1056 11821 1792 1 109.50000 418.400000
1056 11821 1793 1 109.50000 418.400000
1056 11821 1794 1 109.50000 418.400000
1792 11821 1793 1 109.50000 418.400000
1792 11821 1794 1 109.50000 418.400000
1793 11821 1794 1 109.50000 418.400000
1795 11822 1796 1 109.50000 418.400000
1795 11822 1797 1 109.50000 418.400000
1795 11822 1798 1 109.50000 418.400000
1796 11822 1797 1 109.50000 418.400000
1796 11822 1798 1 109.50000 418.400000
1797 11822 1798 1 109.50000 418.400000
1799 11823 1800 1 109.50000 418.400000
1799 11823 1801 1 109.50000 418.400000
1799 11823 1802 1 109.50000 418.400000
1800 11823 1801 1 109.50000 418.400000
1800 11823 1802 1 109.50000 418.400000
1801 11823 1802 1 109.50000 418.400000
1803 11824 1804 1 109.50000 418.400000
1803 11824 1805 1 109.50000 418.400000
1803 11824 1806 1 109.50000 418.400000
1804 11824 1805 1 109.50000 418.400000
1804 11824 1806 1 109.50000 418.400000
1805 11824 1806 1 109.50000 418.400000
1141 11825 1809 1 109.50000 418.400000
1141 11825 1810 1 109.50000 418.400000
1141 11825 1811 1 109.50000 418.400000
1809 11825 1810 1 109.50000 418.400000
1809 11825 1811 1 109.50000 418.400000
1810 11825 1811 1 109.50000 418.400000
1567 11826 1812 1 109.50000 418.400000
1567 11826 1813 1 109.50000 418.400000
1567 11826 1814 1 109.50000 418.400000
1812 11826 1813 1 109.50000 418.400000
1812 11826 1814 1 109.50000 418.400000
1813 11826 1814 1 109.50000 418.400000
1815 11827 1816 1 109.50000 418.400000
1815 11827 1817 1 109.50000 418.400000
1815 11827 1818 1 109.50000 418.400000
1816 11827 1817 1 109.50000 418.400000
1816 11827 1818 1 109.50000 418.400000
1817 11827 1818 1 109.50000 418.400000
59 11828 1819 1 109.50000 418.400000
59 11828 1820 1 109.50000 418.400000
59 11828 1821 1 109.50000 418.400000
1819 11828 1820 1 109.50000 418.400000
1819 11828 1821 1 109.50000 418.400000
1820 11828 1821 1 109.50000 418.400000
118 11829 1822 1 109.50000 418.400000
118 11829 1823 1 109.50000 418.400000
118 11829 1824 1 109.50000 418.400000
1822 11829 1823 1 109.50000 418.400000
1822 11829 1824 1 109.50000 418.400000
1823 11829 1824 1 109.50000 418.400000
1825 11830 1826 1 109.50000 418.400000
1825 11830 1827 1 109.50000 418.400000
1825 11830 1828 1 109.50000 418.400000
1826 11830 1827 1 109.50000 418.400000
1826 11830 1828 1 109.50000 418.400000
1827 11830 1828 1 109.50000 418.400000
1832 11831 1833 1 109.50000 418.400000
1832 11831 1834 1 109.50000 418.400000
1832 11831 1835 1 109.50000 418.400000
1833 11831 1834 1 109.50000 418.400000
1833 11831 1835 1 109.50000 418.400000
1834 11831 1835 1 109.50000 418.400000
116 11832 1836 1 109.50000 418.400000
116 11832 1837 1 109.50000 418.400000
116 11832 1838 1 109.50000 418.400000
1836 11832 1837 1 109.50000 418.400000
1836 11832 1838 1 109.50000 418.400000
1837 11832 1838 1 109.50000 418.400000
1839 11833 1840 1 109.50000 418.400000
1839 11833 1841 1 109.50000 418.400000
1839 11833 1842 1 109.50000 418.400000
1840 11833 1841 1 109.50000 418.400000
1840 11833 1842 1 109.50000 418.400000
1841 11833 1842 1 109.50000 418.400000
1843 11834 1844 1 109.50000 418.400000
1843 11834 1845 1 109.50000 418.400000
1843 11834 1846 1 109.50000 418.400000
1844 11834 1845 1 109.50000 418.400000
1844 11834 1846 1 109.50000 418.400000
1845 11834 1846 1 109.50000 418.400000
1847 11835 1848 1 109.50000 418.400000
1847 11835 1849 1 109.50000 418.400000
1847 11835 1850 1 109.50000 418.400000
1848 11835 1849 1 109.50000 418.400000
1848 11835 1850 1 109.50000 418.400000
1849 11835 1850 1 109.50000 418.400000
1851 11836 1852 1 109.50000 418.400000
1851 11836 1853 1 109.50000 418.400000
1851 11836 1854 1 109.50000 418.400000
1852 11836 1853 1 109.50000 418.400000
1852 11836 1854 1 109.50000 418.400000
1853 11836 1854 1 109.50000 418.400000
126 11837 1855 1 109.50000 418.400000
126 11837 1856 1 109.50000 418.400000
126 11837 1857 1 109.50000 418.400000
1855 11837 1856 1 109.50000 418.400000
1855 11837 1857 1 109.50000 418.400000
1856 11837 1857 1 109.50000 418.400000
1859 11838 1860 1 109.50000 418.400000
1859 11838 1861 1 109.50000 418.400000
1859 11838 1862 1 109.50000 418.400000
1860 11838 1861 1 109.50000 418.400000
1860 11838 1862 1 109.50000 418.400000
1861 11838 1862 1 109.50000 418.400000
1868 11839 1869 1 109.50000 418.400000
1868 11839 1870 1 109.50000 418.400000
1868 11839 1871 1 109.50000 418.400000
1869 11839 1870 1 109.50000 418.400000
1869 11839 1871 1 109.50000 418.400000
1870 11839 1871 1 109.50000 418.400000
1872 11840 1873 1 109.50000 418.400000
1872 11840 1874 1 109.50000 418.400000
1872 11840 1875 1 109.50000 418.400000
1873 11840 1874 1 109.50000 418.400000
1873 11840 1875 1 109.50000 418.400000
1874 11840 1875 1 109.50000 418.400000
1876 11841 1877 1 109.50000 418.400000
1876 11841 1878 1 109.50000 418.400000
1876 11841 11271 1 109.50000 418.400000
1877 11841 1878 1 109.50000 418.400000
1877 11841 11271 1 109.50000 418.400000
1878 11841 11271 1 109.50000 418.400000
1879 11842 1880 1 109.50000 418.400000
1879 11842 1881 1 109.50000 418.400000
1879 11842 1882 1 109.50000 418.400000
1880 11842 1881 1 109.50000 418.400000
1880 11842 1882 1 109.50000 418.400000
1881 11842 1882 1 109.50000 418.400000
128 11843 1883 1 109.50000 418.400000
128 11843 1884 1 109.50000 418.400000
128 11843 1885 1 109.50000 418.400000
1883 11843 1884 1 109.50000 418.400000
1883 11843 1885 1 109.50000 418.400000
1884 11843 1885 1 109.50000 418.400000
1247 11844 1886 1 109.50000 418.400000
1247 11844 1887 1 109.50000 418.400000
1247 11844 1888 1 109.50000 418.400000
1886 11844 1887 1 109.50000 418.400000
1886 11844 1888 1 109.50000 418.400000
1887 11844 1888 1 109.50000 418.400000
1892 11845 1893 1 109.50000 418.400000
1892 11845 1895 1 109.50000 418.400000
1892 11845 6178 1 109.50000 418.400000
1893 11845 1895 1 109.50000 418.400000
1893 11845 6178 1 109.50000 418.400000
1895 11845 6178 1 109.50000 418.400000
1898 11846 1899 1 109.50000 418.400000
1898 11846 1900 1 109.50000 418.400000
1898 11846 1901 1 109.50000 418.400000
1899 11846 1900 1 109.50000 418.400000
1899 11846 1901 1 109.50000 418.400000
1900 11846 1901 1 109.50000 418.400000
155 11847 1903 1 109.50000 418.400000
155 11847 1905 1 109.50000 418.400000
155 11847 5359 1 109.50000 418.400000
1903 11847 1905 1 109.50000 418.400000
1903 11847 5359 1 109.50000 418.400000
1905 11847 5359 1 109.50000 418.400000
1906 11848 1907 1 109.50000 418.400000
1906 11848 1908 1 109.50000 418.400000
1906 11848 1909 1 109.50000 418.400000
1907 11848 1908 1 109.50000 418.400000
1907 11848 1909 1 109.50000 418.400000
1908 11848 1909 1 109.50000 418.400000
1910 11849 1911 1 109.50000 418.400000
1910 11849 1913 1 109.50000 418.400000
1910 11849 8612 1 109.50000 418.400000
1911 11849 1913 1 109.50000 418.400000
1911 11849 8612 1 109.50000 418.400000
1913 11849 8612 1 109.50000 418.400000
1914 11850 1915 1 109.50000 418.400000
1914 11850 1916 1 109.50000 418.400000
1914 11850 1917 1 109.50000 418.400000
1915 11850 1916 1 109.50000 418.400000
1915 11850 1917 1 109.50000 418.400000
1916 11850 1917 1 109.50000 418.400000
396 11851 1416 1 109.50000 418.400000
396 11851 1918 1 109.50000 418.400000
396 11851 1919 1 109.50000 418.400000
1416 11851 1918 1 109.50000 418.400000
1416 11851 1919 1 109.50000 418.400000
1918 11851 1919 1 109.50000 418.400000
1920 11852 1921 1 109.50000 418.400000
1920 11852 1922 1 109.50000 418.400000
1920 11852 1923 1 109.50000 418.400000
1921 11852 1922 1 109.50000 418.400000
1921 11852 1923 1 109.50000 418.400000
1922 11852 1923 1 109.50000 418.400000
1925 11853 1926 1 109.50000 418.400000
1925 11853 7663 1 109.50000 418.400000
1925 11853 9010 1 109.50000 418.400000
1926 11853 7663 1 109.50000 418.400000
1926 11853 9010 1 109.50000 418.400000
7663 11853 9010 1 109.50000 418.400000
1929 11854 1931 1 109.50000 418.400000
1929 11854 5694 1 109.50000 418.400000
1929 11854 6737 1 109.50000 418.400000
1931 11854 5694 1 109.50000 418.400000
1931 11854 6737 1 109.50000 418.400000
5694 11854 6737 1 109.50000 418.400000
1932 11855 1933 1 109.50000 418.400000
1932 11855 1934 1 109.50000 418.400000
1932 11855 1935 1 109.50000 418.400000
1933 11855 1934 1 109.50000 418.400000
1933 11855 1935 1 109.50000 418.400000
1934 11855 1935 1 109.50000 418.400000
1364 11856 1936 1 109.50000 418.400000
1364 11856 1937 1 109.50000 418.400000
1364 11856 1938 1 109.50000 418.400000
1936 11856 1937 1 109.50000 418.400000
1936 11856 1938 1 109.50000 418.400000
1937 11856 1938 1 109.50000 418.400000
924 11857 1940 1 109.50000 418.400000
924 11857 1941 1 109.50000 418.400000
924 11857 1942 1 109.50000 418.400000
1940 11857 1941 1 109.50000 418.400000
1940 11857 1942 1 109.50000 418.400000
1941 11857 1942 1 109.50000 418.400000
1943 11858 1944 1 109.50000 418.400000
1943 11858 1945 1 109.50000 418.400000
1943 11858 5107 1 109.50000 418.400000
1944 11858 1945 1 109.50000 418.400000
1944 11858 5107 1 109.50000 418.400000
1945 11858 5107 1 109.50000 418.400000
375 11859 376 1 109.50000 418.400000
375 11859 378 1 109.50000 418.400000
375 11859 1947 1 109.50000 418.400000
376 11859 378 1 109.50000 418.400000
376 11859 1947 1 109.50000 418.400000
378 11859 1947 1 109.50000 418.400000
143 11860 1949 1 109.50000 418.400000
143 11860 1950 1 109.50000 418.400000
143 11860 1951 1 109.50000 418.400000
1949 11860 1950 1 109.50000 418.400000
1949 11860 1951 1 109.50000 418.400000
1950 11860 1951 1 109.50000 418.400000
1952 11861 1953 1 109.50000 418.400000
1952 11861 1954 1 109.50000 418.400000
1952 11861 1955 1 109.50000 418.400000
1953 11861 1954 1 109.50000 418.400000
1953 11861 1955 1 109.50000 418.400000
1954 11861 1955 1 109.50000 418.400000
1956 11862 1957 1 109.50000 418.400000
1956 11862 1958 1 109.50000 418.400000
1956 11862 1959 1 109.50000 418.400000
1957 11862 1958 1 109.50000 418.400000
1957 11862 1959 1 109.50000 418.400000
1958 11862 1959 1 109.50000 418.400000
1960 11863 1961 1 109.50000 418.400000
1960 11863 1962 1 109.50000 418.400000
1960 11863 1963 1 109.50000 418.400000
1961 11863 1962 1 109.50000 418.400000
1961 11863 1963 1 109.50000 418.400000
1962 11863 1963 1 109.50000 418.400000
1964 11864 1965 1 109.50000 418.400000
1964 11864 1966 1 109.50000 418.400000
1964 11864 1967 1 109.50000 418.400000
1965 11864 1966 1 109.50000 418.400000
1965 11864 1967 1 109.50000 418.400000
1966 11864 1967 1 109.50000 418.400000
677 11865 1968 1 109.50000 418.400000
677 11865 1969 1 109.50000 418.400000
677 11865 1970 1 109.50000 418.400000
1968 11865 1969 1 109.50000 418.400000
1968 11865 1970 1 109.50000 418.400000
1969 11865 1970 1 109.50000 418.400000
1971 11866 1972 1 109.50000 418.400000
1971 11866 1973 1 109.50000 418.400000
1971 11866 9727 1 109.50000 418.400000
1972 11866 1973 1 109.50000 418.400000
1972 11866 9727 1 109.50000 418.400000
1973 11866 9727 1 109.50000 418.400000
1976 11867 1977 1 109.50000 418.400000
1976 11867 1978 1 109.50000 418.400000
1976 11867 7177 1 109.50000 418.400000
1977 11867 1978 1 109.50000 418.400000
1977 11867 7177 1 109.50000 418.400000
1978 11867 7177 1 109.50000 418.400000
1979 11868 1980 1 109.50000 418.400000
1979 11868 1981 1 109.50000 418.400000
1979 11868 1982 1 109.50000 418.400000
1980 11868 1981 1 109.50000 418.400000
1980 11868 1982 1 109.50000 418.400000
1981 11868 1982 1 109.50000 418.400000
1983 11869 1984 1 109.50000 418.400000
1983 11869 1985 1 109.50000 418.400000
1983 11869 1986 1 109.50000 418.400000
1984 11869 1985 1 109.50000 418.400000
1984 11869 1986 1 109.50000 418.400000
1985 11869 1986 1 109.50000 418.400000
1987 11870 1988 1 109.50000 418.400000
1987 11870 1990 1 109.50000 418.400000
1987 11870 10974 1 109.50000 418.400000
1988 11870 1990 1 109.50000 418.400000
1988 11870 10974 1 109.50000 418.400000
1990 11870 10974 1 109.50000 418.400000
1991 11871 1992 1 109.50000 418.400000
1991 11871 1993 1 109.50000 418.400000
1991 11871 1994 1 109.50000 418.400000
1992 11871 1993 1 109.50000 418.400000
1992 11871 1994 1 109.50000 418.400000
1993 11871 1994 1 109.50000 418.400000
1995 11872 1996 1 109.50000 418.400000
1995 11872 1997 1 109.50000 418.400000
1995 11872 1998 1 109.50000 418.400000
1996 11872 1997 1 109.50000 418.400000
1996 11872 1998 1 109.50000 418.400000
1997 11872 1998 1 109.50000 418.400000
1999 11873 2000 1 109.50000 418.400000
1999 11873 2001 1 109.50000 418.400000
1999 11873 2002 1 109.50000 418.400000
2000 11873 2001 1 109.50000 418.400000
2000 11873 2002 1 109.50000 418.400000
2001 11873 2002 1 109.50000 418.400000
501 11874 2003 1 109.50000 418.400000
501 11874 2004 1 109.50000 418.400000
501 11874 2005 1 109.50000 418.400000
2003 11874 2004 1 109.50000 418.400000
2003 11874 2005 1 109.50000 418.400000
2004 11874 2005 1 109.50000 418.400000
1873 11875 2006 1 109.50000 418.400000
1873 11875 2007 1 109.50000 418.400000
1873 11875 2008 1 109.50000 418.400000
2006 11875 2007 1 109.50000 418.400000
2006 11875 2008 1 109.50000 418.400000
2007 11875 2008 1 109.50000 418.400000
2010 11876 2011 1 109.50000 418.400000
2010 11876 2012 1 109.50000 418.400000
2010 11876 2013 1 109.50000 418.400000
2011 11876 2012 1 109.50000 418.400000
2011 11876 2013 1 109.50000 418.400000
2012 11876 2013 1 109.50000 418.400000
2014 11877 2015 1 109.50000 418.400000
2014 11877 2016 1 109.50000 418.400000
2014 11877 2017 1 109.50000 418.400000
2015 11877 2016 1 109.50000 418.400000
2015 11877 2017 1 109.50000 418.400000
2016 11877 2017 1 109.50000 418.400000
1343 11878 2020 1 109.50000 418.400000
1343 11878 2021 1 109.50000 418.400000
1343 11878 2022 1 109.50000 418.400000
2020 11878 2021 1 109.50000 418.400000
2020 11878 2022 1 109.50000 418.400000
2021 11878 2022 1 109.50000 418.400000
2023 11879 2024 1 109.50000 418.400000
2023 11879 2025 1 109.50000 418.400000
2023 11879 2026 1 109.50000 418.400000
2024 11879 2025 1 109.50000 418.400000
2024 11879 2026 1 109.50000 418.400000
2025 11879 2026 1 109.50000 418.400000
2029 11880 2030 1 109.50000 418.400000
2029 11880 2031 1 109.50000 418.400000
2029 11880 2032 1 109.50000 418.400000
2030 11880 2031 1 109.50000 418.400000
2030 11880 2032 1 109.50000 418.400000
2031 11880 2032 1 109.50000 418.400000
2033 11881 2034 1 109.50000 418.400000
2033 11881 2035 1 109.50000 418.400000
2033 11881 2036 1 109.50000 418.400000
2034 11881 2035 1 109.50000 418.400000
2034 11881 2036 1 109.50000 418.400000
2035 11881 2036 1 109.50000 418.400000
2037 11882 2038 1 109.50000 418.400000
2037 11882 2039 1 109.50000 418.400000
2037 11882 2040 1 109.50000 418.400000
2038 11882 2039 1 109.50000 418.400000
2038 11882 2040 1 109.50000 418.400000
2039 11882 2040 1 109.50000 418.400000
1372 11883 2041 1 109.50000 418.400000
1372 11883 2042 1 109.50000 418.400000
1372 11883 11175 1 109.50000 418.400000
2041 11883 2042 1 109.50000 418.400000
2041 11883 11175 1 109.50000 418.400000
2042 11883 11175 1 109.50000 418.400000
2043 11884 2044 1 109.50000 418.400000
2043 11884 2045 1 109.50000 418.400000
2043 11884 11291 1 109.50000 418.400000
2044 11884 2045 1 109.50000 418.400000
2044 11884 11291 1 109.50000 418.400000
2045 11884 11291 1 109.50000 418.400000
2049 11885 2050 1 109.50000 418.400000
2049 11885 2051 1 109.50000 418.400000
2049 11885 2052 1 109.50000 418.400000
2050 11885 2051 1 109.50000 418.400000
2050 11885 2052 1 109.50000 418.400000
2051 11885 2052 1 109.50000 418.400000
290 11886 293 1 109.50000 418.400000
290 11886 2053 1 109.50000 418.400000
290 11886 2054 1 109.50000 418.400000
293 11886 2053 1 109.50000 418.400000
293 11886 2054 1 109.50000 418.400000
2053 11886 2054 1 109.50000 418.400000
2055 11887 2056 1 109.50000 418.400000
2055 11887 2057 1 109.50000 418.400000
2055 11887 2058 1 109.50000 418.400000
2056 11887 2057 1 109.50000 418.400000
2056 11887 2058 1 109.50000 418.400000
2057 11887 2058 1 109.50000 418.400000
393 11888 2059 1 109.50000 418.400000
393 11888 2060 1 109.50000 418.400000
393 11888 2061 1 109.50000 418.400000
2059 11888 2060 1 109.50000 418.400000
2059 11888 2061 1 109.50000 418.400000
2060 11888 2061 1 109.50000 418.400000
2062 11889 2063 1 109.50000 418.400000
2062 11889 2064 1 109.50000 418.400000
2062 11889 2065 1 109.50000 418.400000
2063 11889 2064 1 109.50000 418.400000
2063 11889 2065 1 109.50000 418.400000
2064 11889 2065 1 109.50000 418.400000
1986 11890 2066 1 109.50000 418.400000
1986 11890 11167 1 109.50000 418.400000
1986 11890 11318 1 109.50000 418.400000
2066 11890 11167 1 109.50000 418.400000
2066 11890 11318 1 109.50000 418.400000
11167 11890 11318 1 109.50000 418.400000
1813 11891 2067 1 109.50000 418.400000
1813 11891 2068 1 109.50000 418.400000
1813 11891 2069 1 109.50000 418.400000
2067 11891 2068 1 109.50000 418.400000
2067 11891 2069 1 109.50000 418.400000
2068 11891 2069 1 109.50000 418.400000
971 11892 2053 1 109.50000 418.400000
971 11892 2070 1 109.50000 418.400000
971 11892 2071 1 109.50000 418.400000
2053 11892 2070 1 109.50000 418.400000
2053 11892 2071 1 109.50000 418.400000
2070 11892 2071 1 109.50000 418.400000
806 11893 809 1 109.50000 418.400000
806 11893 2072 1 109.50000 418.400000
806 11893 2073 1 109.50000 418.400000
809 11893 2072 1 109.50000 418.400000
809 11893 2073 1 109.50000 418.400000
2072 11893 2073 1 109.50000 418.400000
2075 11894 2076 1 109.50000 418.400000
2075 11894 2077 1 109.50000 418.400000
2075 11894 2078 1 109.50000 418.400000
2076 11894 2077 1 109.50000 418.400000
2076 11894 2078 1 109.50000 418.400000
2077 11894 2078 1 109.50000 418.400000
456 11895 2079 1 109.50000 418.400000
456 11895 2080 1 109.50000 418.400000
456 11895 2081 1 109.50000 418.400000
2079 11895 2080 1 109.50000 418.400000
2079 11895 2081 1 109.50000 418.400000
2080 11895 2081 1 109.50000 418.400000
254 11896 1979 1 109.50000 418.400000
254 11896 2082 1 109.50000 418.400000
254 11896 2083 1 109.50000 418.400000
1979 11896 2082 1 109.50000 418.400000
1979 11896 2083 1 109.50000 418.400000
2082 11896 2083 1 109.50000 418.400000
2084 11897 2085 1 109.50000 418.400000
2084 11897 2086 1 109.50000 418.400000
2084 11897 2087 1 109.50000 418.400000
2085 11897 2086 1 109.50000 418.400000
2085 11897 2087 1 109.50000 418.400000
2086 11897 2087 1 109.50000 418.400000
2088 11898 2089 1 109.50000 418.400000
2088 11898 2090 1 109.50000 418.400000
2088 11898 2091 1 109.50000 418.400000
2089 11898 2090 1 109.50000 418.400000
2089 11898 2091 1 109.50000 418.400000
2090 11898 2091 1 109.50000 418.400000
2092 11899 2093 1 109.50000 418.400000
2092 11899 2094 1 109.50000 418.400000
2092 11899 2095 1 109.50000 418.400000
2093 11899 2094 1 109.50000 418.400000
2093 11899 2095 1 109.50000 418.400000
2094 11899 2095 1 109.50000 418.400000
854 11900 2098 1 109.50000 418.400000
854 11900 2100 1 109.50000 418.400000
854 11900 7646 1 109.50000 418.400000
2098 11900 2100 1 109.50000 418.400000
2098 11900 7646 1 109.50000 418.400000
2100 11900 7646 1 109.50000 418.400000
1854 11901 2101 1 109.50000 418.400000
1854 11901 2102 1 109.50000 418.400000
1854 11901 2103 1 109.50000 418.400000
2101 11901 2102 1 109.50000 418.400000
2101 11901 2103 1 109.50000 418.400000
2102 11901 2103 1 109.50000 418.400000
1016 11902 2104 1 109.50000 418.400000
1016 11902 2105 1 109.50000 418.400000
1016 11902 2106 1 109.50000 418.400000
2104 11902 2105 1 109.50000 418.400000
2104 11902 2106 1 109.50000 418.400000
2105 11902 2106 1 109.50000 418.400000
2109 11903 2110 1 109.50000 418.400000
2109 11903 2111 1 109.50000 418.400000
2109 11903 2112 1 109.50000 418.400000
2110 11903 2111 1 109.50000 418.400000
2110 11903 2112 1 109.50000 418.400000
2111 11903 2112 1 109.50000 418.400000
2113 11904 2114 1 109.50000 418.400000
2113 11904 2115 1 109.50000 418.400000
2113 11904 2116 1 109.50000 418.400000
2114 11904 2115 1 109.50000 418.400000
2114 11904 2116 1 109.50000 418.400000
2115 11904 2116 1 109.50000 418.400000
2118 11905 2119 1 109.50000 418.400000
2118 11905 2120 1 109.50000 418.400000
2118 11905 3655 1 109.50000 418.400000
2119 11905 2120 1 109.50000 418.400000
2119 11905 3655 1 109.50000 418.400000
2120 11905 3655 1 109.50000 418.400000
2121 11906 2122 1 109.50000 418.400000
2121 11906 2123 1 109.50000 418.400000
2121 11906 2124 1 109.50000 418.400000
2122 11906 2123 1 109.50000 418.400000
2122 11906 2124 1 109.50000 418.400000
2123 11906 2124 1 109.50000 418.400000
528 11907 1346 1 109.50000 418.400000
528 11907 2125 1 109.50000 418.400000
528 11907 2126 1 109.50000 418.400000
1346 11907 2125 1 109.50000 418.400000
1346 11907 2126 1 109.50000 418.400000
2125 11907 2126 1 109.50000 418.400000
2127 11908 2128 1 109.50000 418.400000
2127 11908 2129 1 109.50000 418.400000
2127 11908 2130 1 109.50000 418.400000
2128 11908 2129 1 109.50000 418.400000
2128 11908 2130 1 109.50000 418.400000
2129 11908 2130 1 109.50000 418.400000
1195 11909 1940 1 109.50000 418.400000
1195 11909 2131 1 109.50000 418.400000
1195 11909 2132 1 109.50000 418.400000
1940 11909 2131 1 109.50000 418.400000
1940 11909 2132 1 109.50000 418.400000
2131 11909 2132 1 109.50000 418.400000
2133 11910 2134 1 109.50000 418.400000
2133 11910 2135 1 109.50000 418.400000
2133 11910 2136 1 109.50000 418.400000
2134 11910 2135 1 109.50000 418.400000
2134 11910 2136 1 109.50000 418.400000
2135 11910 2136 1 109.50000 418.400000
985 11911 2137 1 109.50000 418.400000
985 11911 2138 1 109.50000 418.400000
985 11911 2139 1 109.50000 418.400000
2137 11911 2138 1 109.50000 418.400000
2137 11911 2139 1 109.50000 418.400000
2138 11911 2139 1 109.50000 418.400000
2140 11912 2141 1 109.50000 418.400000
2140 11912 2142 1 109.50000 418.400000
2140 11912 2143 1 109.50000 418.400000
2141 11912 2142 1 109.50000 418.400000
2141 11912 2143 1 109.50000 418.400000
2142 11912 2143 1 109.50000 418.400000
2144 11913 2145 1 109.50000 418.400000
2144 11913 2146 1 109.50000 418.400000
2144 11913 2147 1 109.50000 418.400000
2145 11913 2146 1 109.50000 418.400000
2145 11913 2147 1 109.50000 418.400000
2146 11913 2147 1 109.50000 418.400000
1625 11914 2149 1 109.50000 418.400000
1625 11914 2150 1 109.50000 418.400000
1625 11914 2151 1 109.50000 418.400000
2149 11914 2150 1 109.50000 418.400000
2149 11914 2151 1 109.50000 418.400000
2150 11914 2151 1 109.50000 418.400000
2152 11915 2153 1 109.50000 418.400000
2152 11915 2154 1 109.50000 418.400000
2152 11915 2155 1 109.50000 418.400000
2153 11915 2154 1 109.50000 418.400000
2153 11915 2155 1 109.50000 418.400000
2154 11915 2155 1 109.50000 418.400000
927 11916 2156 1 109.50000 418.400000
927 11916 2157 1 109.50000 418.400000
927 11916 2158 1 109.50000 418.400000
2156 11916 2157 1 109.50000 418.400000
2156 11916 2158 1 109.50000 418.400000
2157 11916 2158 1 109.50000 418.400000
2165 11917 2166 1 109.50000 418.400000
2165 11917 9001 1 109.50000 418.400000
2165 11917 11313 1 109.50000 418.400000
2166 11917 9001 1 109.50000 418.400000
2166 11917 11313 1 109.50000 418.400000
9001 11917 11313 1 109.50000 418.400000
2167 11918 2168 1 109.50000 418.400000
2167 11918 2169 1 109.50000 418.400000
2167 11918 2170 1 109.50000 418.400000
2168 11918 2169 1 109.50000 418.400000
2168 11918 2170 1 109.50000 418.400000
2169 11918 2170 1 109.50000 418.400000
2171 11919 2172 1 109.50000 418.400000
2171 11919 2173 1 109.50000 418.400000
2171 11919 2174 1 109.50000 418.400000
2172 11919 2173 1 109.50000 418.400000
2172 11919 2174 1 109.50000 418.400000
2173 11919 2174 1 109.50000 418.400000
2175 11920 2177 1 109.50000 418.400000
2175 11920 2178 1 109.50000 418.400000
2175 11920 5138 1 109.50000 418.400000
2177 11920 2178 1 109.50000 418.400000
2177 11920 5138 1 109.50000 418.400000
2178 11920 5138 1 109.50000 418.400000
656 11921 2179 1 109.50000 418.400000
656 11921 2180 1 109.50000 418.400000
656 11921 9174 1 109.50000 418.400000
2179 11921 2180 1 109.50000 418.400000
2179 11921 9174 1 109.50000 418.400000
2180 11921 9174 1 109.50000 418.400000
2101 11922 2181 1 109.50000 418.400000
2101 11922 2182 1 109.50000 418.400000
2101 11922 2183 1 109.50000 418.400000
2181 11922 2182 1 109.50000 418.400000
2181 11922 2183 1 109.50000 418.400000
2182 11922 2183 1 109.50000 418.400000
2184 11923 2185 1 109.50000 418.400000
2184 11923 2186 1 109.50000 418.400000
2184 11923 2187 1 109.50000 418.400000
2185 11923 2186 1 109.50000 418.400000
2185 11923 2187 1 109.50000 418.400000
2186 11923 2187 1 109.50000 418.400000
2188 11924 2189 1 109.50000 418.400000
2188 11924 2190 1 109.50000 418.400000
2188 11924 2191 1 109.50000 418.400000
2189 11924 2190 1 109.50000 418.400000
2189 11924 2191 1 109.50000 418.400000
2190 11924 2191 1 109.50000 418.400000
2192 11925 2193 1 109.50000 418.400000
2192 11925 2195 1 109.50000 418.400000
2192 11925 10290 1 109.50000 418.400000
2193 11925 2195 1 109.50000 418.400000
2193 11925 10290 1 109.50000 418.400000
2195 11925 10290 1 109.50000 418.400000
2196 11926 2197 1 109.50000 418.400000
2196 11926 2198 1 109.50000 418.400000
2196 11926 2199 1 109.50000 418.400000
2197 11926 2198 1 109.50000 418.400000
2197 11926 2199 1 109.50000 418.400000
2198 11926 2199 1 109.50000 418.400000
2202 11927 2203 1 109.50000 418.400000
2202 11927 2204 1 109.50000 418.400000
2202 11927 2205 1 109.50000 418.400000
2203 11927 2204 1 109.50000 418.400000
2203 11927 2205 1 109.50000 418.400000
2204 11927 2205 1 109.50000 418.400000
1988 11928 2206 1 109.50000 418.400000
1988 11928 2207 1 109.50000 418.400000
1988 11928 2208 1 109.50000 418.400000
2206 11928 2207 1 109.50000 418.400000
2206 11928 2208 1 109.50000 418.400000
2207 11928 2208 1 109.50000 418.400000
1698 11929 2209 1 109.50000 418.400000
1698 11929 2210 1 109.50000 418.400000
1698 11929 2211 1 109.50000 418.400000
2209 11929 2210 1 109.50000 418.400000
2209 11929 2211 1 109.50000 418.400000
2210 11929 2211 1 109.50000 418.400000
2212 11930 2213 1 109.50000 418.400000
2212 11930 2214 1 109.50000 418.400000
2212 11930 2215 1 109.50000 418.400000
2213 11930 2214 1 109.50000 418.400000
2213 11930 2215 1 109.50000 418.400000
2214 11930 2215 1 109.50000 418.400000
2218 11931 2219 1 109.50000 418.400000
2218 11931 2220 1 109.50000 418.400000
2218 11931 2221 1 109.50000 418.400000
2219 11931 2220 1 109.50000 418.400000
2219 11931 2221 1 109.50000 418.400000
2220 11931 2221 1 109.50000 418.400000
2222 11932 2223 1 109.50000 418.400000
2222 11932 2224 1 109.50000 418.400000
2222 11932 2225 1 109.50000 418.400000
2223 11932 2224 1 109.50000 418.400000
2223 11932 2225 1 109.50000 418.400000
2224 11932 2225 1 109.50000 418.400000
2226 11933 2227 1 109.50000 418.400000
2226 11933 2228 1 109.50000 418.400000
2226 11933 2229 1 109.50000 418.400000
2227 11933 2228 1 109.50000 418.400000
2227 11933 2229 1 109.50000 418.400000
2228 11933 2229 1 109.50000 418.400000
2208 11934 2230 1 109.50000 418.400000
2208 11934 2231 1 109.50000 418.400000
2208 11934 2232 1 109.50000 418.400000
2230 11934 2231 1 109.50000 418.400000
2230 11934 2232 1 109.50000 418.400000
2231 11934 2232 1 109.50000 418.400000
2235 11935 2236 1 109.50000 418.400000
2235 11935 2237 1 109.50000 418.400000
2235 11935 2238 1 109.50000 418.400000
2236 11935 2237 1 109.50000 418.400000
2236 11935 2238 1 109.50000 418.400000
2237 11935 2238 1 109.50000 418.400000
1654 11936 2239 1 109.50000 418.400000
1654 11936 2240 1 109.50000 418.400000
1654 11936 2241 1 109.50000 418.400000
2239 11936 2240 1 109.50000 418.400000
2239 11936 2241 1 109.50000 418.400000
2240 11936 2241 1 109.50000 418.400000
2242 11937 2243 1 109.50000 418.400000
2242 11937 2244 1 109.50000 418.400000
2242 11937 2245 1 109.50000 418.400000
2243 11937 2244 1 109.50000 418.400000
2243 11937 2245 1 109.50000 418.400000
2244 11937 2245 1 109.50000 418.400000
2246 11938 2247 1 109.50000 418.400000
2246 11938 2248 1 109.50000 418.400000
2246 11938 2249 1 109.50000 418.400000
2247 11938 2248 1 109.50000 418.400000
2247 11938 2249 1 109.50000 418.400000
2248 11938 2249 1 109.50000 418.400000
1501 11939 2250 1 109.50000 418.400000
1501 11939 2251 1 109.50000 418.400000
1501 11939 2252 1 109.50000 418.400000
2250 11939 2251 1 109.50000 418.400000
2250 11939 2252 1 109.50000 418.400000
2251 11939 2252 1 109.50000 418.400000
2253 11940 2254 1 109.50000 418.400000
2253 11940 2255 1 109.50000 418.400000
2253 11940 2256 1 109.50000 418.400000
2254 11940 2255 1 109.50000 418.400000
2254 11940 2256 1 109.50000 418.400000
2255 11940 2256 1 109.50000 418.400000
2257 11941 2258 1 109.50000 418.400000
2257 11941 2259 1 109.50000 418.400000
2257 11941 2260 1 109.50000 418.400000
2258 11941 2259 1 109.50000 418.400000
2258 11941 2260 1 109.50000 418.400000
2259 11941 2260 1 109.50000 418.400000
2261 11942 2262 1 109.50000 418.400000
2261 11942 2263 1 109.50000 418.400000
2261 11942 2264 1 109.50000 418.400000
2262 11942 2263 1 109.50000 418.400000
2262 11942 2264 1 109.50000 418.400000
2263 11942 2264 1 109.50000 418.400000
2265 11943 2266 1 109.50000 418.400000
2265 11943 2267 1 109.50000 418.400000
2265 11943 2268 1 109.50000 418.400000
2266 11943 2267 1 109.50000 418.400000
2266 11943 2268 1 109.50000 418.400000
2267 11943 2268 1 109.50000 418.400000
2270 11944 2271 1 109.50000 418.400000
2270 11944 2272 1 109.50000 418.400000
2270 11944 10917 1 109.50000 418.400000
2271 11944 2272 1 109.50000 418.400000
2271 11944 10917 1 109.50000 418.400000
2272 11944 10917 1 109.50000 418.400000
2070 11945 2273 1 109.50000 418.400000
2070 11945 2274 1 109.50000 418.400000
2070 11945 2275 1 109.50000 418.400000
2273 11945 2274 1 109.50000 418.400000
2273 11945 2275 1 109.50000 418.400000
2274 11945 2275 1 109.50000 418.400000
2276 11946 2277 1 109.50000 418.400000
2276 11946 2278 1 109.50000 418.400000
2276 11946 2279 1 109.50000 418.400000
2277 11946 2278 1 109.50000 418.400000
2277 11946 2279 1 109.50000 418.400000
2278 11946 2279 1 109.50000 418.400000
2280 11947 2281 1 109.50000 418.400000
2280 11947 2282 1 109.50000 418.400000
2280 11947 2283 1 109.50000 418.400000
2281 11947 2282 1 109.50000 418.400000
2281 11947 2283 1 109.50000 418.400000
2282 11947 2283 1 109.50000 418.400000
2284 11948 2285 1 109.50000 418.400000
2284 11948 2286 1 109.50000 418.400000
2284 11948 2287 1 109.50000 418.400000
2285 11948 2286 1 109.50000 418.400000
2285 11948 2287 1 109.50000 418.400000
2286 11948 2287 1 109.50000 418.400000
1158 11949 2288 1 109.50000 418.400000
1158 11949 2289 1 109.50000 418.400000
1158 11949 2290 1 109.50000 418.400000
2288 11949 2289 1 109.50000 418.400000
2288 11949 2290 1 109.50000 418.400000
2289 11949 2290 1 109.50000 418.400000
2291 11950 2292 1 109.50000 418.400000
2291 11950 2293 1 109.50000 418.400000
2291 11950 2294 1 109.50000 418.400000
2292 11950 2293 1 109.50000 418.400000
2292 11950 2294 1 109.50000 418.400000
2293 11950 2294 1 109.50000 418.400000
2296 11951 2297 1 109.50000 418.400000
2296 11951 2298 1 109.50000 418.400000
2296 11951 11257 1 109.50000 418.400000
2297 11951 2298 1 109.50000 418.400000
2297 11951 11257 1 109.50000 418.400000
2298 11951 11257 1 109.50000 418.400000
2300 11952 2301 1 109.50000 418.400000
2300 11952 2302 1 109.50000 418.400000
2300 11952 2303 1 109.50000 418.400000
2301 11952 2302 1 109.50000 418.400000
2301 11952 2303 1 109.50000 418.400000
2302 11952 2303 1 109.50000 418.400000
142 11953 696 1 109.50000 418.400000
142 11953 2304 1 109.50000 418.400000
142 11953 11238 1 109.50000 418.400000
696 11953 2304 1 109.50000 418.400000
696 11953 11238 1 109.50000 418.400000
2304 11953 11238 1 109.50000 418.400000
2305 11954 2306 1 109.50000 418.400000
2305 11954 2307 1 109.50000 418.400000
2305 11954 2308 1 109.50000 418.400000
2306 11954 2307 1 109.50000 418.400000
2306 11954 2308 1 109.50000 418.400000
2307 11954 2308 1 109.50000 418.400000
2309 11955 2310 1 109.50000 418.400000
2309 11955 2311 1 109.50000 418.400000
2309 11955 2312 1 109.50000 418.400000
2310 11955 2311 1 109.50000 418.400000
2310 11955 2312 1 109.50000 418.400000
2311 11955 2312 1 109.50000 418.400000
2313 11956 2314 1 109.50000 418.400000
2313 11956 2315 1 109.50000 418.400000
2313 11956 2316 1 109.50000 418.400000
2314 11956 2315 1 109.50000 418.400000
2314 11956 2316 1 109.50000 418.400000
2315 11956 2316 1 109.50000 418.400000
2317 11957 2318 1 109.50000 418.400000
2317 11957 2319 1 109.50000 418.400000
2317 11957 2320 1 109.50000 418.400000
2318 11957 2319 1 109.50000 418.400000
2318 11957 2320 1 109.50000 418.400000
2319 11957 2320 1 109.50000 418.400000
1548 11958 2321 1 109.50000 418.400000
1548 11958 2322 1 109.50000 418.400000
1548 11958 2323 1 109.50000 418.400000
2321 11958 2322 1 109.50000 418.400000
2321 11958 2323 1 109.50000 418.400000
2322 11958 2323 1 109.50000 418.400000
2326 11959 2327 1 109.50000 418.400000
2326 11959 2328 1 109.50000 418.400000
2326 11959 2329 1 109.50000 418.400000
2327 11959 2328 1 109.50000 418.400000
2327 11959 2329 1 109.50000 418.400000
2328 11959 2329 1 109.50000 418.400000
581 11960 2330 1 109.50000 418.400000
581 11960 2331 1 109.50000 418.400000
581 11960 5410 1 109.50000 418.400000
2330 11960 2331 1 109.50000 418.400000
2330 11960 5410 1 109.50000 418.400000
2331 11960 5410 1 109.50000 418.400000
2333 11961 2334 1 109.50000 418.400000
2333 11961 2335 1 109.50000 418.400000
2333 11961 2336 1 109.50000 418.400000
2334 11961 2335 1 109.50000 418.400000
2334 11961 2336 1 109.50000 418.400000
2335 11961 2336 1 109.50000 418.400000
2338 11962 2340 1 109.50000 418.400000
2338 11962 6853 1 109.50000 418.400000
2338 11962 10496 1 109.50000 418.400000
2340 11962 6853 1 109.50000 418.400000
2340 11962 10496 1 109.50000 418.400000
6853 11962 10496 1 109.50000 418.400000
1128 11963 2341 1 109.50000 418.400000
1128 11963 2343 1 109.50000 418.400000
1128 11963 4533 1 109.50000 418.400000
2341 11963 2343 1 109.50000 418.400000
2341 11963 4533 1 109.50000 418.400000
2343 11963 4533 1 109.50000 418.400000
2344 11964 2345 1 109.50000 418.400000
2344 11964 2346 1 109.50000 418.400000
2344 11964 2347 1 109.50000 418.400000
2345 11964 2346 1 109.50000 418.400000
2345 11964 2347 1 109.50000 418.400000
2346 11964 2347 1 109.50000 418.400000
2133 11965 2348 1 109.50000 418.400000
2133 11965 2349 1 109.50000 418.400000
2133 11965 9098 1 109.50000 418.400000
2348 11965 2349 1 109.50000 418.400000
2348 11965 9098 1 109.50000 418.400000
2349 11965 9098 1 109.50000 418.400000
1930 11966 2350 1 109.50000 418.400000
1930 11966 2351 1 109.50000 418.400000
1930 11966 2353 1 109.50000 418.400000
2350 11966 2351 1 109.50000 418.400000
2350 11966 2353 1 109.50000 418.400000
2351 11966 2353 1 109.50000 418.400000
2354 11967 2355 1 109.50000 418.400000
2354 11967 2356 1 109.50000 418.400000
2354 11967 2357 1 109.50000 418.400000
2355 11967 2356 1 109.50000 418.400000
2355 11967 2357 1 109.50000 418.400000
2356 11967 2357 1 109.50000 418.400000
2358 11968 2359 1 109.50000 418.400000
2358 11968 2360 1 109.50000 418.400000
2358 11968 2361 1 109.50000 418.400000
2359 11968 2360 1 109.50000 418.400000
2359 11968 2361 1 109.50000 418.400000
2360 11968 2361 1 109.50000 418.400000
2362 11969 2363 1 109.50000 418.400000
2362 11969 2364 1 109.50000 418.400000
2362 11969 2365 1 109.50000 418.400000
2363 11969 2364 1 109.50000 418.400000
2363 11969 2365 1 109.50000 418.400000
2364 11969 2365 1 109.50000 418.400000
2366 11970 2367 1 109.50000 418.400000
2366 11970 2368 1 109.50000 418.400000
2366 11970 2369 1 109.50000 418.400000
2367 11970 2368 1 109.50000 418.400000
2367 11970 2369 1 109.50000 418.400000
2368 11970 2369 1 109.50000 418.400000
2370 11971 2371 1 109.50000 418.400000
2370 11971 2372 1 109.50000 418.400000
2370 11971 2373 1 109.50000 418.400000
2371 11971 2372 1 109.50000 418.400000
2371 11971 2373 1 109.50000 418.400000
2372 11971 2373 1 109.50000 418.400000
2374 11972 2375 1 109.50000 418.400000
2374 11972 2376 1 109.50000 418.400000
2374 11972 2377 1 109.50000 418.400000
2375 11972 2376 1 109.50000 418.400000
2375 11972 2377 1 109.50000 418.400000
2376 11972 2377 1 109.50000 418.400000
2378 11973 2379 1 109.50000 418.400000
2378 11973 2380 1 109.50000 418.400000
2378 11973 2381 1 109.50000 418.400000
2379 11973 2380 1 109.50000 418.400000
2379 11973 2381 1 109.50000 418.400000
2380 11973 2381 1 109.50000 418.400000
2382 11974 2383 1 109.50000 418.400000
2382 11974 2384 1 109.50000 418.400000
2382 11974 2385 1 109.50000 418.400000
2383 11974 2384 1 109.50000 418.400000
2383 11974 2385 1 109.50000 418.400000
2384 11974 2385 1 109.50000 418.400000
2386 11975 2387 1 109.50000 418.400000
2386 11975 2388 1 109.50000 418.400000
2386 11975 2389 1 109.50000 418.400000
2387 11975 2388 1 109.50000 418.400000
2387 11975 2389 1 109.50000 418.400000
2388 11975 2389 1 109.50000 418.400000
2390 11976 2391 1 109.50000 418.400000
2390 11976 2392 1 109.50000 418.400000
2390 11976 2393 1 109.50000 418.400000
2391 11976 2392 1 109.50000 418.400000
2391 11976 2393 1 109.50000 418.400000
2392 11976 2393 1 109.50000 418.400000
2378 11977 2394 1 109.50000 418.400000
2378 11977 2395 1 109.50000 418.400000
2378 11977 2396 1 109.50000 418.400000
2394 11977 2395 1 109.50000 418.400000
2394 11977 2396 1 109.50000 418.400000
2395 11977 2396 1 109.50000 418.400000
2398 11978 2399 1 109.50000 418.400000
2398 11978 2400 1 109.50000 418.400000
2398 11978 4067 1 109.50000 418.400000
2399 11978 2400 1 109.50000 418.400000
2399 11978 4067 1 109.50000 418.400000
2400 11978 4067 1 109.50000 418.400000
2402 11979 2403 1 109.50000 418.400000
2402 11979 2404 1 109.50000 418.400000
2402 11979 2405 1 109.50000 418.400000
2403 11979 2404 1 109.50000 418.400000
2403 11979 2405 1 109.50000 418.400000
2404 11979 2405 1 109.50000 418.400000
2406 11980 2407 1 109.50000 418.400000
2406 11980 2408 1 109.50000 418.400000
2406 11980 2409 1 109.50000 418.400000
2407 11980 2408 1 109.50000 418.400000
2407 11980 2409 1 109.50000 418.400000
2408 11980 2409 1 109.50000 418.400000
487 11981 2410 1 109.50000 418.400000
487 11981 2411 1 109.50000 418.400000
487 11981 2412 1 109.50000 418.400000
2410 11981 2411 1 109.50000 418.400000
2410 11981 2412 1 109.50000 418.400000
2411 11981 2412 1 109.50000 418.400000
2413 11982 2414 1 109.50000 418.400000
2413 11982 2415 1 109.50000 418.400000
2413 11982 2416 1 109.50000 418.400000
2414 11982 2415 1 109.50000 418.400000
2414 11982 2416 1 109.50000 418.400000
2415 11982 2416 1 109.50000 418.400000
2417 11983 2418 1 109.50000 418.400000
2417 11983 2419 1 109.50000 418.400000
2417 11983 2420 1 109.50000 418.400000
2418 11983 2419 1 109.50000 418.400000
2418 11983 2420 1 109.50000 418.400000
2419 11983 2420 1 109.50000 418.400000
2421 11984 2422 1 109.50000 418.400000
2421 11984 2423 1 109.50000 418.400000
2421 11984 2424 1 109.50000 418.400000
2422 11984 2423 1 109.50000 418.400000
2422 11984 2424 1 109.50000 418.400000
2423 11984 2424 1 109.50000 418.400000
2425 11985 2426 1 109.50000 418.400000
2425 11985 2427 1 109.50000 418.400000
2425 11985 2428 1 109.50000 418.400000
2426 11985 2427 1 109.50000 418.400000
2426 11985 2428 1 109.50000 418.400000
2427 11985 2428 1 109.50000 418.400000
2434 11986 2435 1 109.50000 418.400000
2434 11986 2436 1 109.50000 418.400000
2434 11986 2437 1 109.50000 418.400000
2435 11986 2436 1 109.50000 418.400000
2435 11986 2437 1 109.50000 418.400000
2436 11986 2437 1 109.50000 418.400000
2438 11987 2439 1 109.50000 418.400000
2438 11987 2440 1 109.50000 418.400000
2438 11987 2441 1 109.50000 418.400000
2439 11987 2440 1 109.50000 418.400000
2439 11987 2441 1 109.50000 418.400000
2440 11987 2441 1 109.50000 418.400000
2442 11988 2443 1 109.50000 418.400000
2442 11988 2444 1 109.50000 418.400000
2442 11988 2445 1 109.50000 418.400000
2443 11988 2444 1 109.50000 418.400000
2443 11988 2445 1 109.50000 418.400000
2444 11988 2445 1 109.50000 418.400000
2446 11989 2447 1 109.50000 418.400000
2446 11989 2448 1 109.50000 418.400000
2446 11989 2449 1 109.50000 418.400000
2447 11989 2448 1 109.50000 418.400000
2447 11989 2449 1 109.50000 418.400000
2448 11989 2449 1 109.50000 418.400000
1576 11990 2453 1 109.50000 418.400000
1576 11990 2454 1 109.50000 418.400000
1576 11990 2455 1 109.50000 418.400000
2453 11990 2454 1 109.50000 418.400000
2453 11990 2455 1 109.50000 418.400000
2454 11990 2455 1 109.50000 418.400000
2456 11991 2457 1 109.50000 418.400000
2456 11991 11285 1 109.50000 418.400000
2456 11991 11293 1 109.50000 418.400000
2457 11991 11285 1 109.50000 418.400000
2457 11991 11293 1 109.50000 418.400000
11285 11991 11293 1 109.50000 418.400000
2458 11992 2459 1 109.50000 418.400000
2458 11992 2460 1 109.50000 418.400000
2458 11992 2461 1 109.50000 418.400000
2459 11992 2460 1 109.50000 418.400000
2459 11992 2461 1 109.50000 418.400000
2460 11992 2461 1 109.50000 418.400000
2464 11993 2465 1 109.50000 418.400000
2464 11993 2466 1 109.50000 418.400000
2464 11993 2467 1 109.50000 418.400000
2465 11993 2466 1 109.50000 418.400000
2465 11993 2467 1 109.50000 418.400000
2466 11993 2467 1 109.50000 418.400000
2468 11994 2469 1 109.50000 418.400000
2468 11994 2470 1 109.50000 418.400000
2468 11994 2471 1 109.50000 418.400000
2469 11994 2470 1 109.50000 418.400000
2469 11994 2471 1 109.50000 418.400000
2470 11994 2471 1 109.50000 418.400000
2472 11995 2473 1 109.50000 418.400000
2472 11995 2474 1 109.50000 418.400000
2472 11995 2475 1 109.50000 418.400000
2473 11995 2474 1 109.50000 418.400000
2473 11995 2475 1 109.50000 418.400000
2474 11995 2475 1 109.50000 418.400000
2476 11996 2477 1 109.50000 418.400000
2476 11996 2478 1 109.50000 418.400000
2476 11996 10206 1 109.50000 418.400000
2477 11996 2478 1 109.50000 418.400000
2477 11996 10206 1 109.50000 418.400000
2478 11996 10206 1 109.50000 418.400000
280 11997 2480 1 109.50000 418.400000
280 11997 2481 1 109.50000 418.400000
280 11997 2482 1 109.50000 418.400000
2480 11997 2481 1 109.50000 418.400000
2480 11997 2482 1 109.50000 418.400000
2481 11997 2482 1 109.50000 418.400000
2483 11998 2484 1 109.50000 418.400000
2483 11998 2485 1 109.50000 418.400000
2483 11998 11284 1 109.50000 418.400000
2484 11998 2485 1 109.50000 418.400000
2484 11998 11284 1 109.50000 418.400000
2485 11998 11284 1 109.50000 418.400000
2486 11999 2487 1 109.50000 418.400000
2486 11999 2488 1 109.50000 418.400000
2486 11999 2489 1 109.50000 418.400000
2487 11999 2488 1 109.50000 418.400000
2487 11999 2489 1 109.50000 418.400000
2488 11999 2489 1 109.50000 418.400000
2493 12000 2494 1 109.50000 418.400000
2493 12000 2495 1 109.50000 418.400000
2493 12000 11332 1 109.50000 418.400000
2494 12000 2495 1 109.50000 418.400000
2494 12000 11332 1 109.50000 418.400000
2495 12000 11332 1 109.50000 418.400000
2496 12001 2497 1 109.50000 418.400000
2496 12001 2498 1 109.50000 418.400000
2496 12001 2499 1 109.50000 418.400000
2497 12001 2498 1 109.50000 418.400000
2497 12001 2499 1 109.50000 418.400000
2498 12001 2499 1 109.50000 418.400000
1324 12002 2502 1 109.50000 418.400000
1324 12002 2503 1 109.50000 418.400000
1324 12002 2504 1 109.50000 418.400000
2502 12002 2503 1 109.50000 418.400000
2502 12002 2504 1 109.50000 418.400000
2503 12002 2504 1 109.50000 418.400000
2508 12003 2509 1 109.50000 418.400000
2508 12003 2510 1 109.50000 418.400000
2508 12003 2511 1 109.50000 418.400000
2509 12003 2510 1 109.50000 418.400000
2509 12003 2511 1 109.50000 418.400000
2510 12003 2511 1 109.50000 418.400000
2512 12004 2513 1 109.50000 418.400000
2512 12004 2514 1 109.50000 418.400000
2512 12004 2515 1 109.50000 418.400000
2513 12004 2514 1 109.50000 418.400000
2513 12004 2515 1 109.50000 418.400000
2514 12004 2515 1 109.50000 418.400000
2516 12005 2517 1 109.50000 418.400000
2516 12005 2518 1 109.50000 418.400000
2516 12005 2519 1 109.50000 418.400000
2517 12005 2518 1 109.50000 418.400000
2517 12005 2519 1 109.50000 418.400000
2518 12005 2519 1 109.50000 418.400000
2520 12006 2521 1 109.50000 418.400000
2520 12006 2522 1 109.50000 418.400000
2520 12006 2523 1 109.50000 418.400000
2521 12006 2522 1 109.50000 418.400000
2521 12006 2523 1 109.50000 418.400000
2522 12006 2523 1 109.50000 418.400000
2524 12007 2525 1 109.50000 418.400000
2524 12007 2526 1 109.50000 418.400000
2524 12007 2527 1 109.50000 418.400000
2525 12007 2526 1 109.50000 418.400000
2525 12007 2527 1 109.50000 418.400000
2526 12007 2527 1 109.50000 418.400000
2528 12008 2529 1 109.50000 418.400000
2528 12008 2530 1 109.50000 418.400000
2528 12008 2531 1 109.50000 418.400000
2529 12008 2530 1 109.50000 418.400000
2529 12008 2531 1 109.50000 418.400000
2530 12008 2531 1 109.50000 418.400000
2532 12009 2533 1 109.50000 418.400000
2532 12009 2534 1 109.50000 418.400000
2532 12009 2535 1 109.50000 418.400000
2533 12009 2534 1 109.50000 418.400000
2533 12009 2535 1 109.50000 418.400000
2534 12009 2535 1 109.50000 418.400000
2468 12010 2536 1 109.50000 418.400000
2468 12010 2537 1 109.50000 418.400000
2468 12010 2538 1 109.50000 418.400000
2536 12010 2537 1 109.50000 418.400000
2536 12010 2538 1 109.50000 418.400000
2537 12010 2538 1 109.50000 418.400000
2328 12011 2539 1 109.50000 418.400000
2328 12011 2540 1 109.50000 418.400000
2328 12011 2541 1 109.50000 418.400000
2539 12011 2540 1 109.50000 418.400000
2539 12011 2541 1 109.50000 418.400000
2540 12011 2541 1 109.50000 418.400000
230 12012 2542 1 109.50000 418.400000
230 12012 2543 1 109.50000 418.400000
230 12012 2544 1 109.50000 418.400000
2542 12012 2543 1 109.50000 418.400000
2542 12012 2544 1 109.50000 418.400000
2543 12012 2544 1 109.50000 418.400000
2545 12013 2546 1 109.50000 418.400000
2545 12013 2547 1 109.50000 418.400000
2545 12013 2548 1 109.50000 418.400000
2546 12013 2547 1 109.50000 418.400000
2546 12013 2548 1 109.50000 418.400000
2547 12013 2548 1 109.50000 418.400000
2549 12014 2550 1 109.50000 418.400000
2549 12014 2551 1 109.50000 418.400000
2549 12014 2552 1 109.50000 418.400000
2550 12014 2551 1 109.50000 418.400000
2550 12014 2552 1 109.50000 418.400000
2551 12014 2552 1 109.50000 418.400000
2553 12015 2554 1 109.50000 418.400000
2553 12015 2555 1 109.50000 418.400000
2553 12015 2556 1 109.50000 418.400000
2554 12015 2555 1 109.50000 418.400000
2554 12015 2556 1 109.50000 418.400000
2555 12015 2556 1 109.50000 418.400000
1964 12016 2561 1 109.50000 418.400000
1964 12016 2562 1 109.50000 418.400000
1964 12016 2563 1 109.50000 418.400000
2561 12016 2562 1 109.50000 418.400000
2561 12016 2563 1 109.50000 418.400000
2562 12016 2563 1 109.50000 418.400000
690 12017 2564 1 109.50000 418.400000
690 12017 2565 1 109.50000 418.400000
690 12017 2566 1 109.50000 418.400000
2564 12017 2565 1 109.50000 418.400000
2564 12017 2566 1 109.50000 418.400000
2565 12017 2566 1 109.50000 418.400000
2567 12018 2568 1 109.50000 418.400000
2567 12018 2569 1 109.50000 418.400000
2567 12018 2570 1 109.50000 418.400000
2568 12018 2569 1 109.50000 418.400000
2568 12018 2570 1 109.50000 418.400000
2569 12018 2570 1 109.50000 418.400000
2400 12019 2571 1 109.50000 418.400000
2400 12019 2572 1 109.50000 418.400000
2400 12019 3759 1 109.50000 418.400000
2571 12019 2572 1 109.50000 418.400000
2571 12019 3759 1 109.50000 418.400000
2572 12019 3759 1 109.50000 418.400000
2574 12020 2575 1 109.50000 418.400000
2574 12020 2576 1 109.50000 418.400000
2574 12020 2577 1 109.50000 418.400000
2575 12020 2576 1 109.50000 418.400000
2575 12020 2577 1 109.50000 418.400000
2576 12020 2577 1 109.50000 418.400000
1898 12021 2578 1 109.50000 418.400000
1898 12021 2579 1 109.50000 418.400000
1898 12021 2580 1 109.50000 418.400000
2578 12021 2579 1 109.50000 418.400000
2578 12021 2580 1 109.50000 418.400000
2579 12021 2580 1 109.50000 418.400000
2584 12022 2585 1 109.50000 418.400000
2584 12022 2586 1 109.50000 418.400000
2584 12022 6496 1 109.50000 418.400000
2585 12022 2586 1 109.50000 418.400000
2585 12022 6496 1 109.50000 418.400000
2586 12022 6496 1 109.50000 418.400000
2589 12023 2590 1 109.50000 418.400000
2589 12023 2591 1 109.50000 418.400000
2589 12023 11363 1 109.50000 418.400000
2590 12023 2591 1 109.50000 418.400000
2590 12023 11363 1 109.50000 418.400000
2591 12023 11363 1 109.50000 418.400000
847 12024 2592 1 109.50000 418.400000
847 12024 2593 1 109.50000 418.400000
847 12024 2594 1 109.50000 418.400000
2592 12024 2593 1 109.50000 418.400000
2592 12024 2594 1 109.50000 418.400000
2593 12024 2594 1 109.50000 418.400000
628 12025 2595 1 109.50000 418.400000
628 12025 2596 1 109.50000 418.400000
628 12025 2597 1 109.50000 418.400000
2595 12025 2596 1 109.50000 418.400000
2595 12025 2597 1 109.50000 418.400000
2596 12025 2597 1 109.50000 418.400000
2598 12026 2599 1 109.50000 418.400000
2598 12026 2600 1 109.50000 418.400000
2598 12026 2601 1 109.50000 418.400000
2599 12026 2600 1 109.50000 418.400000
2599 12026 2601 1 109.50000 418.400000
2600 12026 2601 1 109.50000 418.400000
2604 12027 2989 1 109.50000 418.400000
2604 12027 2990 1 109.50000 418.400000
2604 12027 9329 1 109.50000 418.400000
2989 12027 2990 1 109.50000 418.400000
2989 12027 9329 1 109.50000 418.400000
2990 12027 9329 1 109.50000 418.400000
2606 12028 2608 1 109.50000 418.400000
2606 12028 2609 1 109.50000 418.400000
2606 12028 9020 1 109.50000 418.400000
2608 12028 2609 1 109.50000 418.400000
2608 12028 9020 1 109.50000 418.400000
2609 12028 9020 1 109.50000 418.400000
2610 12029 2611 1 109.50000 418.400000
2610 12029 2612 1 109.50000 418.400000
2610 12029 7265 1 109.50000 418.400000
2611 12029 2612 1 109.50000 418.400000
2611 12029 7265 1 109.50000 418.400000
2612 12029 7265 1 109.50000 418.400000
1298 12030 2613 1 109.50000 418.400000
1298 12030 2614 1 109.50000 418.400000
1298 12030 2615 1 109.50000 418.400000
2613 12030 2614 1 109.50000 418.400000
2613 12030 2615 1 109.50000 418.400000
2614 12030 2615 1 109.50000 418.400000
1313 12031 2616 1 109.50000 418.400000
1313 12031 2617 1 109.50000 418.400000
1313 12031 2618 1 109.50000 418.400000
2616 12031 2617 1 109.50000 418.400000
2616 12031 2618 1 109.50000 418.400000
2617 12031 2618 1 109.50000 418.400000
2619 12032 2620 1 109.50000 418.400000
2619 12032 2621 1 109.50000 418.400000
2619 12032 2622 1 109.50000 418.400000
2620 12032 2621 1 109.50000 418.400000
2620 12032 2622 1 109.50000 418.400000
2621 12032 2622 1 109.50000 418.400000
2626 12033 2627 1 109.50000 418.400000
2626 12033 2628 1 109.50000 418.400000
2626 12033 6785 1 109.50000 418.400000
2627 12033 2628 1 109.50000 418.400000
2627 12033 6785 1 109.50000 418.400000
2628 12033 6785 1 109.50000 418.400000
2496 12034 2629 1 109.50000 418.400000
2496 12034 2630 1 109.50000 418.400000
2496 12034 2631 1 109.50000 418.400000
2629 12034 2630 1 109.50000 418.400000
2629 12034 2631 1 109.50000 418.400000
2630 12034 2631 1 109.50000 418.400000
2632 12035 2633 1 109.50000 418.400000
2632 12035 2634 1 109.50000 418.400000
2632 12035 2635 1 109.50000 418.400000
2633 12035 2634 1 109.50000 418.400000
2633 12035 2635 1 109.50000 418.400000
2634 12035 2635 1 109.50000 418.400000
2636 12036 2637 1 109.50000 418.400000
2636 12036 2638 1 109.50000 418.400000
2636 12036 2639 1 109.50000 418.400000
2637 12036 2638 1 109.50000 418.400000
2637 12036 2639 1 109.50000 418.400000
2638 12036 2639 1 109.50000 418.400000
2640 12037 2641 1 109.50000 418.400000
2640 12037 2642 1 109.50000 418.400000
2640 12037 2643 1 109.50000 418.400000
2641 12037 2642 1 109.50000 418.400000
2641 12037 2643 1 109.50000 418.400000
2642 12037 2643 1 109.50000 418.400000
1434 12038 2644 1 109.50000 418.400000
1434 12038 2645 1 109.50000 418.400000
1434 12038 2646 1 109.50000 418.400000
2644 12038 2645 1 109.50000 418.400000
2644 12038 2646 1 109.50000 418.400000
2645 12038 2646 1 109.50000 418.400000
2647 12039 2648 1 109.50000 418.400000
2647 12039 2650 1 109.50000 418.400000
2647 12039 11078 1 109.50000 418.400000
2648 12039 2650 1 109.50000 418.400000
2648 12039 11078 1 109.50000 418.400000
2650 12039 11078 1 109.50000 418.400000
2651 12040 2652 1 109.50000 418.400000
2651 12040 2653 1 109.50000 418.400000
2651 12040 11269 1 109.50000 418.400000
2652 12040 2653 1 109.50000 418.400000
2652 12040 11269 1 109.50000 418.400000
2653 12040 11269 1 109.50000 418.400000
2654 12041 2655 1 109.50000 418.400000
2654 12041 2656 1 109.50000 418.400000
2654 12041 2657 1 109.50000 418.400000
2655 12041 2656 1 109.50000 418.400000
2655 12041 2657 1 109.50000 418.400000
2656 12041 2657 1 109.50000 418.400000
875 12042 1005 1 109.50000 418.400000
875 12042 2658 1 109.50000 418.400000
875 12042 2659 1 109.50000 418.400000
1005 12042 2658 1 109.50000 418.400000
1005 12042 2659 1 109.50000 418.400000
2658 12042 2659 1 109.50000 418.400000
2660 12043 2661 1 109.50000 418.400000
2660 12043 2662 1 109.50000 418.400000
2660 12043 2663 1 109.50000 418.400000
2661 12043 2662 1 109.50000 418.400000
2661 12043 2663 1 109.50000 418.400000
2662 12043 2663 1 109.50000 418.400000
756 12044 1161 1 109.50000 418.400000
756 12044 2664 1 109.50000 418.400000
756 12044 2665 1 109.50000 418.400000
1161 12044 2664 1 109.50000 418.400000
1161 12044 2665 1 109.50000 418.400000
2664 12044 2665 1 109.50000 418.400000
695 12045 769 1 109.50000 418.400000
695 12045 2666 1 109.50000 418.400000
695 12045 2667 1 109.50000 418.400000
769 12045 2666 1 109.50000 418.400000
769 12045 2667 1 109.50000 418.400000
2666 12045 2667 1 109.50000 418.400000
2668 12046 2669 1 109.50000 418.400000
2668 12046 2670 1 109.50000 418.400000
2668 12046 2671 1 109.50000 418.400000
2669 12046 2670 1 109.50000 418.400000
2669 12046 2671 1 109.50000 418.400000
2670 12046 2671 1 109.50000 418.400000
2672 12047 2673 1 109.50000 418.400000
2672 12047 2674 1 109.50000 418.400000
2672 12047 2675 1 109.50000 418.400000
2673 12047 2674 1 109.50000 418.400000
2673 12047 2675 1 109.50000 418.400000
2674 12047 2675 1 109.50000 418.400000
2676 12048 2677 1 109.50000 418.400000
2676 12048 2678 1 109.50000 418.400000
2676 12048 2679 1 109.50000 418.400000
2677 12048 2678 1 109.50000 418.400000
2677 12048 2679 1 109.50000 418.400000
2678 12048 2679 1 109.50000 418.400000
2680 12049 2681 1 109.50000 418.400000
2680 12049 2682 1 109.50000 418.400000
2680 12049 3309 1 109.50000 418.400000
2681 12049 2682 1 109.50000 418.400000
2681 12049 3309 1 109.50000 418.400000
2682 12049 3309 1 109.50000 418.400000
2684 12050 2685 1 109.50000 418.400000
2684 12050 2686 1 109.50000 418.400000
2684 12050 2687 1 109.50000 418.400000
2685 12050 2686 1 109.50000 418.400000
2685 12050 2687 1 109.50000 418.400000
2686 12050 2687 1 109.50000 418.400000
2688 12051 2689 1 109.50000 418.400000
2688 12051 2690 1 109.50000 418.400000
2688 12051 2691 1 109.50000 418.400000
2689 12051 2690 1 109.50000 418.400000
2689 12051 2691 1 109.50000 418.400000
2690 12051 2691 1 109.50000 418.400000
2692 12052 2693 1 109.50000 418.400000
2692 12052 2694 1 109.50000 418.400000
2692 12052 2695 1 109.50000 418.400000
2693 12052 2694 1 109.50000 418.400000
2693 12052 2695 1 109.50000 418.400000
2694 12052 2695 1 109.50000 418.400000
2696 12053 2697 1 109.50000 418.400000
2696 12053 2698 1 109.50000 418.400000
2696 12053 11351 1 109.50000 418.400000
2697 12053 2698 1 109.50000 418.400000
2697 12053 11351 1 109.50000 418.400000
2698 12053 11351 1 109.50000 418.400000
2583 12054 2699 1 109.50000 418.400000
2583 12054 2700 1 109.50000 418.400000
2583 12054 2701 1 109.50000 418.400000
2699 12054 2700 1 109.50000 418.400000
2699 12054 2701 1 109.50000 418.400000
2700 12054 2701 1 109.50000 418.400000
2702 12055 2703 1 109.50000 418.400000
2702 12055 2704 1 109.50000 418.400000
2702 12055 2705 1 109.50000 418.400000
2703 12055 2704 1 109.50000 418.400000
2703 12055 2705 1 109.50000 418.400000
2704 12055 2705 1 109.50000 418.400000
2428 12056 2706 1 109.50000 418.400000
2428 12056 2707 1 109.50000 418.400000
2428 12056 2708 1 109.50000 418.400000
2706 12056 2707 1 109.50000 418.400000
2706 12056 2708 1 109.50000 418.400000
2707 12056 2708 1 109.50000 418.400000
2709 12057 2710 1 109.50000 418.400000
2709 12057 2711 1 109.50000 418.400000
2709 12057 2712 1 109.50000 418.400000
2710 12057 2711 1 109.50000 418.400000
2710 12057 2712 1 109.50000 418.400000
2711 12057 2712 1 109.50000 418.400000
2713 12058 2714 1 109.50000 418.400000
2713 12058 2715 1 109.50000 418.400000
2713 12058 2716 1 109.50000 418.400000
2714 12058 2715 1 109.50000 418.400000
2714 12058 2716 1 109.50000 418.400000
2715 12058 2716 1 109.50000 418.400000
2717 12059 2718 1 109.50000 418.400000
2717 12059 2719 1 109.50000 418.400000
2717 12059 2720 1 109.50000 418.400000
2718 12059 2719 1 109.50000 418.400000
2718 12059 2720 1 109.50000 418.400000
2719 12059 2720 1 109.50000 418.400000
2721 12060 2722 1 109.50000 418.400000
2721 12060 2723 1 109.50000 418.400000
2721 12060 2724 1 109.50000 418.400000
2722 12060 2723 1 109.50000 418.400000
2722 12060 2724 1 109.50000 418.400000
2723 12060 2724 1 109.50000 418.400000
2725 12061 2726 1 109.50000 418.400000
2725 12061 2727 1 109.50000 418.400000
2725 12061 2728 1 109.50000 418.400000
2726 12061 2727 1 109.50000 418.400000
2726 12061 2728 1 109.50000 418.400000
2727 12061 2728 1 109.50000 418.400000
828 12062 2732 1 109.50000 418.400000
828 12062 2733 1 109.50000 418.400000
828 12062 2734 1 109.50000 418.400000
2732 12062 2733 1 109.50000 418.400000
2732 12062 2734 1 109.50000 418.400000
2733 12062 2734 1 109.50000 418.400000
982 12063 2735 1 109.50000 418.400000
982 12063 2736 1 109.50000 418.400000
982 12063 2737 1 109.50000 418.400000
2735 12063 2736 1 109.50000 418.400000
2735 12063 2737 1 109.50000 418.400000
2736 12063 2737 1 109.50000 418.400000
2738 12064 2739 1 109.50000 418.400000
2738 12064 2740 1 109.50000 418.400000
2738 12064 2741 1 109.50000 418.400000
2739 12064 2740 1 109.50000 418.400000
2739 12064 2741 1 109.50000 418.400000
2740 12064 2741 1 109.50000 418.400000
2742 12065 2743 1 109.50000 418.400000
2742 12065 2744 1 109.50000 418.400000
2742 12065 2745 1 109.50000 418.400000
2743 12065 2744 1 109.50000 418.400000
2743 12065 2745 1 109.50000 418.400000
2744 12065 2745 1 109.50000 418.400000
1520 12066 2746 1 109.50000 418.400000
1520 12066 2747 1 109.50000 418.400000
1520 12066 2748 1 109.50000 418.400000
2746 12066 2747 1 109.50000 418.400000
2746 12066 2748 1 109.50000 418.400000
2747 12066 2748 1 109.50000 418.400000
2749 12067 2750 1 109.50000 418.400000
2749 12067 2751 1 109.50000 418.400000
2749 12067 2752 1 109.50000 418.400000
2750 12067 2751 1 109.50000 418.400000
2750 12067 2752 1 109.50000 418.400000
2751 12067 2752 1 109.50000 418.400000
2753 12068 2755 1 109.50000 418.400000
2753 12068 2756 1 109.50000 418.400000
2753 12068 5577 1 109.50000 418.400000
2755 12068 2756 1 109.50000 418.400000
2755 12068 5577 1 109.50000 418.400000
2756 12068 5577 1 109.50000 418.400000
2757 12069 2758 1 109.50000 418.400000
2757 12069 2759 1 109.50000 418.400000
2757 12069 2760 1 109.50000 418.400000
2758 12069 2759 1 109.50000 418.400000
2758 12069 2760 1 109.50000 418.400000
2759 12069 2760 1 109.50000 418.400000
1819 12070 2761 1 109.50000 418.400000
1819 12070 2762 1 109.50000 418.400000
1819 12070 2763 1 109.50000 418.400000
2761 12070 2762 1 109.50000 418.400000
2761 12070 2763 1 109.50000 418.400000
2762 12070 2763 1 109.50000 418.400000
2764 12071 2765 1 109.50000 418.400000
2764 12071 2766 1 109.50000 418.400000
2764 12071 2767 1 109.50000 418.400000
2765 12071 2766 1 109.50000 418.400000
2765 12071 2767 1 109.50000 418.400000
2766 12071 2767 1 109.50000 418.400000
171 12072 2768 1 109.50000 418.400000
171 12072 2769 1 109.50000 418.400000
171 12072 2770 1 109.50000 418.400000
2768 12072 2769 1 109.50000 418.400000
2768 12072 2770 1 109.50000 418.400000
2769 12072 2770 1 109.50000 418.400000
2771 12073 2773 1 109.50000 418.400000
2771 12073 2774 1 109.50000 418.400000
2771 12073 6883 1 109.50000 418.400000
2773 12073 2774 1 109.50000 418.400000
2773 12073 6883 1 109.50000 418.400000
2774 12073 6883 1 109.50000 418.400000
734 12074 2777 1 109.50000 418.400000
734 12074 2778 1 109.50000 418.400000
734 12074 2779 1 109.50000 418.400000
2777 12074 2778 1 109.50000 418.400000
2777 12074 2779 1 109.50000 418.400000
2778 12074 2779 1 109.50000 418.400000
2780 12075 2781 1 109.50000 418.400000
2780 12075 2782 1 109.50000 418.400000
2780 12075 2783 1 109.50000 418.400000
2781 12075 2782 1 109.50000 418.400000
2781 12075 2783 1 109.50000 418.400000
2782 12075 2783 1 109.50000 418.400000
2784 12076 2785 1 109.50000 418.400000
2784 12076 2786 1 109.50000 418.400000
2784 12076 2787 1 109.50000 418.400000
2785 12076 2786 1 109.50000 418.400000
2785 12076 2787 1 109.50000 418.400000
2786 12076 2787 1 109.50000 418.400000
911 12077 2788 1 109.50000 418.400000
911 12077 2789 1 109.50000 418.400000
911 12077 2790 1 109.50000 418.400000
2788 12077 2789 1 109.50000 418.400000
2788 12077 2790 1 109.50000 418.400000
2789 12077 2790 1 109.50000 418.400000
301 12078 2791 1 109.50000 418.400000
301 12078 2792 1 109.50000 418.400000
301 12078 4806 1 109.50000 418.400000
2791 12078 2792 1 109.50000 418.400000
2791 12078 4806 1 109.50000 418.400000
2792 12078 4806 1 109.50000 418.400000
2794 12079 2795 1 109.50000 418.400000
2794 12079 2796 1 109.50000 418.400000
2794 12079 10676 1 109.50000 418.400000
2795 12079 2796 1 109.50000 418.400000
2795 12079 10676 1 109.50000 418.400000
2796 12079 10676 1 109.50000 418.400000
191 12080 322 1 109.50000 418.400000
191 12080 2798 1 109.50000 418.400000
191 12080 2799 1 109.50000 418.400000
322 12080 2798 1 109.50000 418.400000
322 12080 2799 1 109.50000 418.400000
2798 12080 2799 1 109.50000 418.400000
699 12081 2800 1 109.50000 418.400000
699 12081 2801 1 109.50000 418.400000
699 12081 8976 1 109.50000 418.400000
2800 12081 2801 1 109.50000 418.400000
2800 12081 8976 1 109.50000 418.400000
2801 12081 8976 1 109.50000 418.400000
2058 12082 2803 1 109.50000 418.400000
2058 12082 2804 1 109.50000 418.400000
2058 12082 2805 1 109.50000 418.400000
2803 12082 2804 1 109.50000 418.400000
2803 12082 2805 1 109.50000 418.400000
2804 12082 2805 1 109.50000 418.400000
2806 12083 2807 1 109.50000 418.400000
2806 12083 2808 1 109.50000 418.400000
2806 12083 2809 1 109.50000 418.400000
2807 12083 2808 1 109.50000 418.400000
2807 12083 2809 1 109.50000 418.400000
2808 12083 2809 1 109.50000 418.400000
2810 12084 2811 1 109.50000 418.400000
2810 12084 2812 1 109.50000 418.400000
2810 12084 2813 1 109.50000 418.400000
2811 12084 2812 1 109.50000 418.400000
2811 12084 2813 1 109.50000 418.400000
2812 12084 2813 1 109.50000 418.400000
435 12085 436 1 109.50000 418.400000
435 12085 2814 1 109.50000 418.400000
435 12085 2816 1 109.50000 418.400000
436 12085 2814 1 109.50000 418.400000
436 12085 2816 1 109.50000 418.400000
2814 12085 2816 1 109.50000 418.400000
2818 12086 2819 1 109.50000 418.400000
2818 12086 2820 1 109.50000 418.400000
2818 12086 2821 1 109.50000 418.400000
2819 12086 2820 1 109.50000 418.400000
2819 12086 2821 1 109.50000 418.400000
2820 12086 2821 1 109.50000 418.400000
1494 12087 2822 1 109.50000 418.400000
1494 12087 2823 1 109.50000 418.400000
1494 12087 2824 1 109.50000 418.400000
2822 12087 2823 1 109.50000 418.400000
2822 12087 2824 1 109.50000 418.400000
2823 12087 2824 1 109.50000 418.400000
2825 12088 2826 1 109.50000 418.400000
2825 12088 2827 1 109.50000 418.400000
2825 12088 2828 1 109.50000 418.400000
2826 12088 2827 1 109.50000 418.400000
2826 12088 2828 1 109.50000 418.400000
2827 12088 2828 1 109.50000 418.400000
1803 12089 2829 1 109.50000 418.400000
1803 12089 2830 1 109.50000 418.400000
1803 12089 2831 1 109.50000 418.400000
2829 12089 2830 1 109.50000 418.400000
2829 12089 2831 1 109.50000 418.400000
2830 12089 2831 1 109.50000 418.400000
1186 12090 1994 1 109.50000 418.400000
1186 12090 2832 1 109.50000 418.400000
1186 12090 2833 1 109.50000 418.400000
1994 12090 2832 1 109.50000 418.400000
1994 12090 2833 1 109.50000 418.400000
2832 12090 2833 1 109.50000 418.400000
635 12091 2834 1 109.50000 418.400000
635 12091 2835 1 109.50000 418.400000
635 12091 2836 1 109.50000 418.400000
2834 12091 2835 1 109.50000 418.400000
2834 12091 2836 1 109.50000 418.400000
2835 12091 2836 1 109.50000 418.400000
1027 12092 2837 1 109.50000 418.400000
1027 12092 2838 1 109.50000 418.400000
1027 12092 2839 1 109.50000 418.400000
2837 12092 2838 1 109.50000 418.400000
2837 12092 2839 1 109.50000 418.400000
2838 12092 2839 1 109.50000 418.400000
2840 12093 2841 1 109.50000 418.400000
2840 12093 2842 1 109.50000 418.400000
2840 12093 2843 1 109.50000 418.400000
2841 12093 2842 1 109.50000 418.400000
2841 12093 2843 1 109.50000 418.400000
2842 12093 2843 1 109.50000 418.400000
2844 12094 2845 1 109.50000 418.400000
2844 12094 2846 1 109.50000 418.400000
2844 12094 2847 1 109.50000 418.400000
2845 12094 2846 1 109.50000 418.400000
2845 12094 2847 1 109.50000 418.400000
2846 12094 2847 1 109.50000 418.400000
300 12095 2848 1 109.50000 418.400000
300 12095 2849 1 109.50000 418.400000
300 12095 2850 1 109.50000 418.400000
2848 12095 2849 1 109.50000 418.400000
2848 12095 2850 1 109.50000 418.400000
2849 12095 2850 1 109.50000 418.400000
1763 12096 2851 1 109.50000 418.400000
1763 12096 2852 1 109.50000 418.400000
1763 12096 2853 1 109.50000 418.400000
2851 12096 2852 1 109.50000 418.400000
2851 12096 2853 1 109.50000 418.400000
2852 12096 2853 1 109.50000 418.400000
105 12097 2854 1 109.50000 418.400000
105 12097 2855 1 109.50000 418.400000
105 12097 2856 1 109.50000 418.400000
2854 12097 2855 1 109.50000 418.400000
2854 12097 2856 1 109.50000 418.400000
2855 12097 2856 1 109.50000 418.400000
1216 12098 2857 1 109.50000 418.400000
1216 12098 11138 1 109.50000 418.400000
1216 12098 11299 1 109.50000 418.400000
2857 12098 11138 1 109.50000 418.400000
2857 12098 11299 1 109.50000 418.400000
11138 12098 11299 1 109.50000 418.400000
2858 12099 2859 1 109.50000 418.400000
2858 12099 2860 1 109.50000 418.400000
2858 12099 7512 1 109.50000 418.400000
2859 12099 2860 1 109.50000 418.400000
2859 12099 7512 1 109.50000 418.400000
2860 12099 7512 1 109.50000 418.400000
261 12100 470 1 109.50000 418.400000
261 12100 2862 1 109.50000 418.400000
261 12100 2863 1 109.50000 418.400000
470 12100 2862 1 109.50000 418.400000
470 12100 2863 1 109.50000 418.400000
2862 12100 2863 1 109.50000 418.400000
2550 12101 2864 1 109.50000 418.400000
2550 12101 2865 1 109.50000 418.400000
2550 12101 4860 1 109.50000 418.400000
2864 12101 2865 1 109.50000 418.400000
2864 12101 4860 1 109.50000 418.400000
2865 12101 4860 1 109.50000 418.400000
2867 12102 2868 1 109.50000 418.400000
2867 12102 2869 1 109.50000 418.400000
2867 12102 2870 1 109.50000 418.400000
2868 12102 2869 1 109.50000 418.400000
2868 12102 2870 1 109.50000 418.400000
2869 12102 2870 1 109.50000 418.400000
1142 12103 2871 1 109.50000 418.400000
1142 12103 2872 1 109.50000 418.400000
1142 12103 2873 1 109.50000 418.400000
2871 12103 2872 1 109.50000 418.400000
2871 12103 2873 1 109.50000 418.400000
2872 12103 2873 1 109.50000 418.400000
1206 12104 2874 1 109.50000 418.400000
1206 12104 2875 1 109.50000 418.400000
1206 12104 2876 1 109.50000 418.400000
2874 12104 2875 1 109.50000 418.400000
2874 12104 2876 1 109.50000 418.400000
2875 12104 2876 1 109.50000 418.400000
2040 12105 2877 1 109.50000 418.400000
2040 12105 2878 1 109.50000 418.400000
2040 12105 2879 1 109.50000 418.400000
2877 12105 2878 1 109.50000 418.400000
2877 12105 2879 1 109.50000 418.400000
2878 12105 2879 1 109.50000 418.400000
2880 12106 2881 1 109.50000 418.400000
2880 12106 2882 1 109.50000 418.400000
2880 12106 2883 1 109.50000 418.400000
2881 12106 2882 1 109.50000 418.400000
2881 12106 2883 1 109.50000 418.400000
2882 12106 2883 1 109.50000 418.400000
2559 12107 2884 1 109.50000 418.400000
2559 12107 2885 1 109.50000 418.400000
2559 12107 11368 1 109.50000 418.400000
2884 12107 2885 1 109.50000 418.400000
2884 12107 11368 1 109.50000 418.400000
2885 12107 11368 1 109.50000 418.400000
1937 12108 2886 1 109.50000 418.400000
1937 12108 2887 1 109.50000 418.400000
1937 12108 2888 1 109.50000 418.400000
2886 12108 2887 1 109.50000 418.400000
2886 12108 2888 1 109.50000 418.400000
2887 12108 2888 1 109.50000 418.400000
2889 12109 2890 1 109.50000 418.400000
2889 12109 2891 1 109.50000 418.400000
2889 12109 11358 1 109.50000 418.400000
2890 12109 2891 1 109.50000 418.400000
2890 12109 11358 1 109.50000 418.400000
2891 12109 11358 1 109.50000 418.400000
2892 12110 2893 1 109.50000 418.400000
2892 12110 2895 1 109.50000 418.400000
2892 12110 9517 1 109.50000 418.400000
2893 12110 2895 1 109.50000 418.400000
2893 12110 9517 1 109.50000 418.400000
2895 12110 9517 1 109.50000 418.400000
2896 12111 2897 1 109.50000 418.400000
2896 12111 2898 1 109.50000 418.400000
2896 12111 2899 1 109.50000 418.400000
2897 12111 2898 1 109.50000 418.400000
2897 12111 2899 1 109.50000 418.400000
2898 12111 2899 1 109.50000 418.400000
1810 12112 2900 1 109.50000 418.400000
1810 12112 2901 1 109.50000 418.400000
1810 12112 2902 1 109.50000 418.400000
2900 12112 2901 1 109.50000 418.400000
2900 12112 2902 1 109.50000 418.400000
2901 12112 2902 1 109.50000 418.400000
156 12113 2903 1 109.50000 418.400000
156 12113 2904 1 109.50000 418.400000
156 12113 2905 1 109.50000 418.400000
2903 12113 2904 1 109.50000 418.400000
2903 12113 2905 1 109.50000 418.400000
2904 12113 2905 1 109.50000 418.400000
580 12114 906 1 109.50000 418.400000
580 12114 2906 1 109.50000 418.400000
580 12114 2908 1 109.50000 418.400000
906 12114 2906 1 109.50000 418.400000
906 12114 2908 1 109.50000 418.400000
2906 12114 2908 1 109.50000 418.400000
334 12115 2909 1 109.50000 418.400000
334 12115 2910 1 109.50000 418.400000
334 12115 2911 1 109.50000 418.400000
2909 12115 2910 1 109.50000 418.400000
2909 12115 2911 1 109.50000 418.400000
2910 12115 2911 1 109.50000 418.400000
2770 12116 2912 1 109.50000 418.400000
2770 12116 2913 1 109.50000 418.400000
2770 12116 2914 1 109.50000 418.400000
2912 12116 2913 1 109.50000 418.400000
2912 12116 2914 1 109.50000 418.400000
2913 12116 2914 1 109.50000 418.400000
2915 12117 2916 1 109.50000 418.400000
2915 12117 2917 1 109.50000 418.400000
2915 12117 3432 1 109.50000 418.400000
2916 12117 2917 1 109.50000 418.400000
2916 12117 3432 1 109.50000 418.400000
2917 12117 3432 1 109.50000 418.400000
2834 12118 2918 1 109.50000 418.400000
2834 12118 2919 1 109.50000 418.400000
2834 12118 2920 1 109.50000 418.400000
2918 12118 2919 1 109.50000 418.400000
2918 12118 2920 1 109.50000 418.400000
2919 12118 2920 1 109.50000 418.400000
566 12119 1468 1 109.50000 418.400000
566 12119 1470 1 109.50000 418.400000
566 12119 2623 1 109.50000 418.400000
1468 12119 1470 1 109.50000 418.400000
1468 12119 2623 1 109.50000 418.400000
1470 12119 2623 1 109.50000 418.400000
2923 12120 2924 1 109.50000 418.400000
2923 12120 2925 1 109.50000 418.400000
2923 12120 2926 1 109.50000 418.400000
2924 12120 2925 1 109.50000 418.400000
2924 12120 2926 1 109.50000 418.400000
2925 12120 2926 1 109.50000 418.400000
2927 12121 2928 1 109.50000 418.400000
2927 12121 2929 1 109.50000 418.400000
2927 12121 2930 1 109.50000 418.400000
2928 12121 2929 1 109.50000 418.400000
2928 12121 2930 1 109.50000 418.400000
2929 12121 2930 1 109.50000 418.400000
2003 12122 2931 1 109.50000 418.400000
2003 12122 2932 1 109.50000 418.400000
2003 12122 2933 1 109.50000 418.400000
2931 12122 2932 1 109.50000 418.400000
2931 12122 2933 1 109.50000 418.400000
2932 12122 2933 1 109.50000 418.400000
876 12123 2934 1 109.50000 418.400000
876 12123 2935 1 109.50000 418.400000
876 12123 2936 1 109.50000 418.400000
2934 12123 2935 1 109.50000 418.400000
2934 12123 2936 1 109.50000 418.400000
2935 12123 2936 1 109.50000 418.400000
655 12124 2937 1 109.50000 418.400000
655 12124 2938 1 109.50000 418.400000
655 12124 2939 1 109.50000 418.400000
2937 12124 2938 1 109.50000 418.400000
2937 12124 2939 1 109.50000 418.400000
2938 12124 2939 1 109.50000 418.400000
2940 12125 2941 1 109.50000 418.400000
2940 12125 2942 1 109.50000 418.400000
2940 12125 6129 1 109.50000 418.400000
2941 12125 2942 1 109.50000 418.400000
2941 12125 6129 1 109.50000 418.400000
2942 12125 6129 1 109.50000 418.400000
2947 12126 2948 1 109.50000 418.400000
2947 12126 2949 1 109.50000 418.400000
2947 12126 2950 1 109.50000 418.400000
2948 12126 2949 1 109.50000 418.400000
2948 12126 2950 1 109.50000 418.400000
2949 12126 2950 1 109.50000 418.400000
2953 12127 7431 1 109.50000 418.400000
2953 12127 8330 1 109.50000 418.400000
2953 12127 11062 1 109.50000 418.400000
7431 12127 8330 1 109.50000 418.400000
7431 12127 11062 1 109.50000 418.400000
8330 12127 11062 1 109.50000 418.400000
2269 12128 2955 1 109.50000 418.400000
2269 12128 2956 1 109.50000 418.400000
2269 12128 2957 1 109.50000 418.400000
2955 12128 2956 1 109.50000 418.400000
2955 12128 2957 1 109.50000 418.400000
2956 12128 2957 1 109.50000 418.400000
2958 12129 2959 1 109.50000 418.400000
2958 12129 2960 1 109.50000 418.400000
2958 12129 2961 1 109.50000 418.400000
2959 12129 2960 1 109.50000 418.400000
2959 12129 2961 1 109.50000 418.400000
2960 12129 2961 1 109.50000 418.400000
2962 12130 2963 1 109.50000 418.400000
2962 12130 2964 1 109.50000 418.400000
2962 12130 2965 1 109.50000 418.400000
2963 12130 2964 1 109.50000 418.400000
2963 12130 2965 1 109.50000 418.400000
2964 12130 2965 1 109.50000 418.400000
2966 12131 2967 1 109.50000 418.400000
2966 12131 2968 1 109.50000 418.400000
2966 12131 2969 1 109.50000 418.400000
2967 12131 2968 1 109.50000 418.400000
2967 12131 2969 1 109.50000 418.400000
2968 12131 2969 1 109.50000 418.400000
2970 12132 2971 1 109.50000 418.400000
2970 12132 2973 1 109.50000 418.400000
2970 12132 4010 1 109.50000 418.400000
2971 12132 2973 1 109.50000 418.400000
2971 12132 4010 1 109.50000 418.400000
2973 12132 4010 1 109.50000 418.400000
2974 12133 2975 1 109.50000 418.400000
2974 12133 2976 1 109.50000 418.400000
2974 12133 2977 1 109.50000 418.400000
2975 12133 2976 1 109.50000 418.400000
2975 12133 2977 1 109.50000 418.400000
2976 12133 2977 1 109.50000 418.400000
2978 12134 2979 1 109.50000 418.400000
2978 12134 2980 1 109.50000 418.400000
2978 12134 2981 1 109.50000 418.400000
2979 12134 2980 1 109.50000 418.400000
2979 12134 2981 1 109.50000 418.400000
2980 12134 2981 1 109.50000 418.400000
2982 12135 2983 1 109.50000 418.400000
2982 12135 2984 1 109.50000 418.400000
2982 12135 2985 1 109.50000 418.400000
2983 12135 2984 1 109.50000 418.400000
2983 12135 2985 1 109.50000 418.400000
2984 12135 2985 1 109.50000 418.400000
1583 12136 2996 1 109.50000 418.400000
1583 12136 2997 1 109.50000 418.400000
1583 12136 11186 1 109.50000 418.400000
2996 12136 2997 1 109.50000 418.400000
2996 12136 11186 1 109.50000 418.400000
2997 12136 11186 1 109.50000 418.400000
2998 12137 2999 1 109.50000 418.400000
2998 12137 3000 1 109.50000 418.400000
2998 12137 3001 1 109.50000 418.400000
2999 12137 3000 1 109.50000 418.400000
2999 12137 3001 1 109.50000 418.400000
3000 12137 3001 1 109.50000 418.400000
902 12138 2488 1 109.50000 418.400000
902 12138 3002 1 109.50000 418.400000
902 12138 3003 1 109.50000 418.400000
2488 12138 3002 1 109.50000 418.400000
2488 12138 3003 1 109.50000 418.400000
3002 12138 3003 1 109.50000 418.400000
1373 12139 3004 1 109.50000 418.400000
1373 12139 3005 1 109.50000 418.400000
1373 12139 3006 1 109.50000 418.400000
3004 12139 3005 1 109.50000 418.400000
3004 12139 3006 1 109.50000 418.400000
3005 12139 3006 1 109.50000 418.400000
3007 12140 3009 1 109.50000 418.400000
3007 12140 3010 1 109.50000 418.400000
3007 12140 8894 1 109.50000 418.400000
3009 12140 3010 1 109.50000 418.400000
3009 12140 8894 1 109.50000 418.400000
3010 12140 8894 1 109.50000 418.400000
3011 12141 3012 1 109.50000 418.400000
3011 12141 3013 1 109.50000 418.400000
3011 12141 3014 1 109.50000 418.400000
3012 12141 3013 1 109.50000 418.400000
3012 12141 3014 1 109.50000 418.400000
3013 12141 3014 1 109.50000 418.400000
2504 12142 3015 1 109.50000 418.400000
2504 12142 3016 1 109.50000 418.400000
2504 12142 3017 1 109.50000 418.400000
3015 12142 3016 1 109.50000 418.400000
3015 12142 3017 1 109.50000 418.400000
3016 12142 3017 1 109.50000 418.400000
3018 12143 3019 1 109.50000 418.400000
3018 12143 3020 1 109.50000 418.400000
3018 12143 3021 1 109.50000 418.400000
3019 12143 3020 1 109.50000 418.400000
3019 12143 3021 1 109.50000 418.400000
3020 12143 3021 1 109.50000 418.400000
2117 12144 3022 1 109.50000 418.400000
2117 12144 3023 1 109.50000 418.400000
2117 12144 3024 1 109.50000 418.400000
3022 12144 3023 1 109.50000 418.400000
3022 12144 3024 1 109.50000 418.400000
3023 12144 3024 1 109.50000 418.400000
3025 12145 3026 1 109.50000 418.400000
3025 12145 3027 1 109.50000 418.400000
3025 12145 3028 1 109.50000 418.400000
3026 12145 3027 1 109.50000 418.400000
3026 12145 3028 1 109.50000 418.400000
3027 12145 3028 1 109.50000 418.400000
3029 12146 3030 1 109.50000 418.400000
3029 12146 3031 1 109.50000 418.400000
3029 12146 3032 1 109.50000 418.400000
3030 12146 3031 1 109.50000 418.400000
3030 12146 3032 1 109.50000 418.400000
3031 12146 3032 1 109.50000 418.400000
3033 12147 3034 1 109.50000 418.400000
3033 12147 3035 1 109.50000 418.400000
3033 12147 11275 1 109.50000 418.400000
3034 12147 3035 1 109.50000 418.400000
3034 12147 11275 1 109.50000 418.400000
3035 12147 11275 1 109.50000 418.400000
2597 12148 3036 1 109.50000 418.400000
2597 12148 3037 1 109.50000 418.400000
2597 12148 3038 1 109.50000 418.400000
3036 12148 3037 1 109.50000 418.400000
3036 12148 3038 1 109.50000 418.400000
3037 12148 3038 1 109.50000 418.400000
3039 12149 3040 1 109.50000 418.400000
3039 12149 3041 1 109.50000 418.400000
3039 12149 10913 1 109.50000 418.400000
3040 12149 3041 1 109.50000 418.400000
3040 12149 10913 1 109.50000 418.400000
3041 12149 10913 1 109.50000 418.400000
2027 12150 3042 1 109.50000 418.400000
2027 12150 11220 1 109.50000 418.400000
2027 12150 11244 1 109.50000 418.400000
3042 12150 11220 1 109.50000 418.400000
3042 12150 11244 1 109.50000 418.400000
11220 12150 11244 1 109.50000 418.400000
3043 12151 3044 1 109.50000 418.400000
3043 12151 3045 1 109.50000 418.400000
3043 12151 5380 1 109.50000 418.400000
3044 12151 3045 1 109.50000 418.400000
3044 12151 5380 1 109.50000 418.400000
3045 12151 5380 1 109.50000 418.400000
3047 12152 3048 1 109.50000 418.400000
3047 12152 11231 1 109.50000 418.400000
3047 12152 11323 1 109.50000 418.400000
3048 12152 11231 1 109.50000 418.400000
3048 12152 11323 1 109.50000 418.400000
11231 12152 11323 1 109.50000 418.400000
3049 12153 3050 1 109.50000 418.400000
3049 12153 3051 1 109.50000 418.400000
3049 12153 3052 1 109.50000 418.400000
3050 12153 3051 1 109.50000 418.400000
3050 12153 3052 1 109.50000 418.400000
3051 12153 3052 1 109.50000 418.400000
303 12154 3053 1 109.50000 418.400000
303 12154 3054 1 109.50000 418.400000
303 12154 3055 1 109.50000 418.400000
3053 12154 3054 1 109.50000 418.400000
3053 12154 3055 1 109.50000 418.400000
3054 12154 3055 1 109.50000 418.400000
918 12155 1107 1 109.50000 418.400000
918 12155 1108 1 109.50000 418.400000
918 12155 1109 1 109.50000 418.400000
1107 12155 1108 1 109.50000 418.400000
1107 12155 1109 1 109.50000 418.400000
1108 12155 1109 1 109.50000 418.400000
3058 12156 3059 1 109.50000 418.400000
3058 12156 3060 1 109.50000 418.400000
3058 12156 8970 1 109.50000 418.400000
3059 12156 3060 1 109.50000 418.400000
3059 12156 8970 1 109.50000 418.400000
3060 12156 8970 1 109.50000 418.400000
637 12157 1730 1 109.50000 418.400000
637 12157 3061 1 109.50000 418.400000
637 12157 3062 1 109.50000 418.400000
1730 12157 3061 1 109.50000 418.400000
1730 12157 3062 1 109.50000 418.400000
3061 12157 3062 1 109.50000 418.400000
3063 12158 3064 1 109.50000 418.400000
3063 12158 3065 1 109.50000 418.400000
3063 12158 3066 1 109.50000 418.400000
3064 12158 3065 1 109.50000 418.400000
3064 12158 3066 1 109.50000 418.400000
3065 12158 3066 1 109.50000 418.400000
533 12159 3067 1 109.50000 418.400000
533 12159 3068 1 109.50000 418.400000
533 12159 3069 1 109.50000 418.400000
3067 12159 3068 1 109.50000 418.400000
3067 12159 3069 1 109.50000 418.400000
3068 12159 3069 1 109.50000 418.400000
3070 12160 3071 1 109.50000 418.400000
3070 12160 3072 1 109.50000 418.400000
3070 12160 3073 1 109.50000 418.400000
3071 12160 3072 1 109.50000 418.400000
3071 12160 3073 1 109.50000 418.400000
3072 12160 3073 1 109.50000 418.400000
1917 12161 3074 1 109.50000 418.400000
1917 12161 3075 1 109.50000 418.400000
1917 12161 3076 1 109.50000 418.400000
3074 12161 3075 1 109.50000 418.400000
3074 12161 3076 1 109.50000 418.400000
3075 12161 3076 1 109.50000 418.400000
2675 12162 3077 1 109.50000 418.400000
2675 12162 3078 1 109.50000 418.400000
2675 12162 3079 1 109.50000 418.400000
3077 12162 3078 1 109.50000 418.400000
3077 12162 3079 1 109.50000 418.400000
3078 12162 3079 1 109.50000 418.400000
1316 12163 2055 1 109.50000 418.400000
1316 12163 3080 1 109.50000 418.400000
1316 12163 3081 1 109.50000 418.400000
2055 12163 3080 1 109.50000 418.400000
2055 12163 3081 1 109.50000 418.400000
3080 12163 3081 1 109.50000 418.400000
1484 12164 2302 1 109.50000 418.400000
1484 12164 3082 1 109.50000 418.400000
1484 12164 3083 1 109.50000 418.400000
2302 12164 3082 1 109.50000 418.400000
2302 12164 3083 1 109.50000 418.400000
3082 12164 3083 1 109.50000 418.400000
2060 12165 3085 1 109.50000 418.400000
2060 12165 3086 1 109.50000 418.400000
2060 12165 5909 1 109.50000 418.400000
3085 12165 3086 1 109.50000 418.400000
3085 12165 5909 1 109.50000 418.400000
3086 12165 5909 1 109.50000 418.400000
1956 12166 3087 1 109.50000 418.400000
1956 12166 3088 1 109.50000 418.400000
1956 12166 3089 1 109.50000 418.400000
3087 12166 3088 1 109.50000 418.400000
3087 12166 3089 1 109.50000 418.400000
3088 12166 3089 1 109.50000 418.400000
3090 12167 3091 1 109.50000 418.400000
3090 12167 3092 1 109.50000 418.400000
3090 12167 3093 1 109.50000 418.400000
3091 12167 3092 1 109.50000 418.400000
3091 12167 3093 1 109.50000 418.400000
3092 12167 3093 1 109.50000 418.400000
1279 12168 3094 1 109.50000 418.400000
1279 12168 3095 1 109.50000 418.400000
1279 12168 3096 1 109.50000 418.400000
3094 12168 3095 1 109.50000 418.400000
3094 12168 3096 1 109.50000 418.400000
3095 12168 3096 1 109.50000 418.400000
277 12169 3097 1 109.50000 418.400000
277 12169 3098 1 109.50000 418.400000
277 12169 3099 1 109.50000 418.400000
3097 12169 3098 1 109.50000 418.400000
3097 12169 3099 1 109.50000 418.400000
3098 12169 3099 1 109.50000 418.400000
64 12170 3100 1 109.50000 418.400000
64 12170 3101 1 109.50000 418.400000
64 12170 9283 1 109.50000 418.400000
3100 12170 3101 1 109.50000 418.400000
3100 12170 9283 1 109.50000 418.400000
3101 12170 9283 1 109.50000 418.400000
2272 12171 2878 1 109.50000 418.400000
2272 12171 3102 1 109.50000 418.400000
2272 12171 3103 1 109.50000 418.400000
2878 12171 3102 1 109.50000 418.400000
2878 12171 3103 1 109.50000 418.400000
3102 12171 3103 1 109.50000 418.400000
3104 12172 3105 1 109.50000 418.400000
3104 12172 3106 1 109.50000 418.400000
3104 12172 11321 1 109.50000 418.400000
3105 12172 3106 1 109.50000 418.400000
3105 12172 11321 1 109.50000 418.400000
3106 12172 11321 1 109.50000 418.400000
1366 12173 3110 1 109.50000 418.400000
1366 12173 3111 1 109.50000 418.400000
1366 12173 3112 1 109.50000 418.400000
3110 12173 3111 1 109.50000 418.400000
3110 12173 3112 1 109.50000 418.400000
3111 12173 3112 1 109.50000 418.400000
3113 12174 3114 1 109.50000 418.400000
3113 12174 3115 1 109.50000 418.400000
3113 12174 3116 1 109.50000 418.400000
3114 12174 3115 1 109.50000 418.400000
3114 12174 3116 1 109.50000 418.400000
3115 12174 3116 1 109.50000 418.400000
2659 12175 2935 1 109.50000 418.400000
2659 12175 3117 1 109.50000 418.400000
2659 12175 3118 1 109.50000 418.400000
2935 12175 3117 1 109.50000 418.400000
2935 12175 3118 1 109.50000 418.400000
3117 12175 3118 1 109.50000 418.400000
3122 12176 3123 1 109.50000 418.400000
3122 12176 3124 1 109.50000 418.400000
3122 12176 3125 1 109.50000 418.400000
3123 12176 3124 1 109.50000 418.400000
3123 12176 3125 1 109.50000 418.400000
3124 12176 3125 1 109.50000 418.400000
3126 12177 3127 1 109.50000 418.400000
3126 12177 3128 1 109.50000 418.400000
3126 12177 3129 1 109.50000 418.400000
3127 12177 3128 1 109.50000 418.400000
3127 12177 3129 1 109.50000 418.400000
3128 12177 3129 1 109.50000 418.400000
1909 12178 3130 1 109.50000 418.400000
1909 12178 3131 1 109.50000 418.400000
1909 12178 3132 1 109.50000 418.400000
3130 12178 3131 1 109.50000 418.400000
3130 12178 3132 1 109.50000 418.400000
3131 12178 3132 1 109.50000 418.400000
3134 12179 3136 1 109.50000 418.400000
3134 12179 8505 1 109.50000 418.400000
3134 12179 8506 1 109.50000 418.400000
3136 12179 8505 1 109.50000 418.400000
3136 12179 8506 1 109.50000 418.400000
8505 12179 8506 1 109.50000 418.400000
900 12180 3137 1 109.50000 418.400000
900 12180 3138 1 109.50000 418.400000
900 12180 3139 1 109.50000 418.400000
3137 12180 3138 1 109.50000 418.400000
3137 12180 3139 1 109.50000 418.400000
3138 12180 3139 1 109.50000 418.400000
3140 12181 3141 1 109.50000 418.400000
3140 12181 3142 1 109.50000 418.400000
3140 12181 3143 1 109.50000 418.400000
3141 12181 3142 1 109.50000 418.400000
3141 12181 3143 1 109.50000 418.400000
3142 12181 3143 1 109.50000 418.400000
2294 12182 3144 1 109.50000 418.400000
2294 12182 3145 1 109.50000 418.400000
2294 12182 3146 1 109.50000 418.400000
3144 12182 3145 1 109.50000 418.400000
3144 12182 3146 1 109.50000 418.400000
3145 12182 3146 1 109.50000 418.400000
3150 12183 3151 1 109.50000 418.400000
3150 12183 3152 1 109.50000 418.400000
3150 12183 3153 1 109.50000 418.400000
3151 12183 3152 1 109.50000 418.400000
3151 12183 3153 1 109.50000 418.400000
3152 12183 3153 1 109.50000 418.400000
2396 12184 3154 1 109.50000 418.400000
2396 12184 3155 1 109.50000 418.400000
2396 12184 3156 1 109.50000 418.400000
3154 12184 3155 1 109.50000 418.400000
3154 12184 3156 1 109.50000 418.400000
3155 12184 3156 1 109.50000 418.400000
3157 12185 3158 1 109.50000 418.400000
3157 12185 3159 1 109.50000 418.400000
3157 12185 3160 1 109.50000 418.400000
3158 12185 3159 1 109.50000 418.400000
3158 12185 3160 1 109.50000 418.400000
3159 12185 3160 1 109.50000 418.400000
2404 12186 3162 1 109.50000 418.400000
2404 12186 3163 1 109.50000 418.400000
2404 12186 3164 1 109.50000 418.400000
3162 12186 3163 1 109.50000 418.400000
3162 12186 3164 1 109.50000 418.400000
3163 12186 3164 1 109.50000 418.400000
3165 12187 3166 1 109.50000 418.400000
3165 12187 3167 1 109.50000 418.400000
3165 12187 3168 1 109.50000 418.400000
3166 12187 3167 1 109.50000 418.400000
3166 12187 3168 1 109.50000 418.400000
3167 12187 3168 1 109.50000 418.400000
3169 12188 3170 1 109.50000 418.400000
3169 12188 3171 1 109.50000 418.400000
3169 12188 3172 1 109.50000 418.400000
3170 12188 3171 1 109.50000 418.400000
3170 12188 3172 1 109.50000 418.400000
3171 12188 3172 1 109.50000 418.400000
3173 12189 3174 1 109.50000 418.400000
3173 12189 3175 1 109.50000 418.400000
3173 12189 3176 1 109.50000 418.400000
3174 12189 3175 1 109.50000 418.400000
3174 12189 3176 1 109.50000 418.400000
3175 12189 3176 1 109.50000 418.400000
3177 12190 3178 1 109.50000 418.400000
3177 12190 3179 1 109.50000 418.400000
3177 12190 3180 1 109.50000 418.400000
3178 12190 3179 1 109.50000 418.400000
3178 12190 3180 1 109.50000 418.400000
3179 12190 3180 1 109.50000 418.400000
52 12191 3181 1 109.50000 418.400000
52 12191 3182 1 109.50000 418.400000
52 12191 3183 1 109.50000 418.400000
3181 12191 3182 1 109.50000 418.400000
3181 12191 3183 1 109.50000 418.400000
3182 12191 3183 1 109.50000 418.400000
593 12192 3185 1 109.50000 418.400000
593 12192 3186 1 109.50000 418.400000
593 12192 3187 1 109.50000 418.400000
3185 12192 3186 1 109.50000 418.400000
3185 12192 3187 1 109.50000 418.400000
3186 12192 3187 1 109.50000 418.400000
3190 12193 3191 1 109.50000 418.400000
3190 12193 3192 1 109.50000 418.400000
3190 12193 3193 1 109.50000 418.400000
3191 12193 3192 1 109.50000 418.400000
3191 12193 3193 1 109.50000 418.400000
3192 12193 3193 1 109.50000 418.400000
1028 12194 3194 1 109.50000 418.400000
1028 12194 3195 1 109.50000 418.400000
1028 12194 3197 1 109.50000 418.400000
3194 12194 3195 1 109.50000 418.400000
3194 12194 3197 1 109.50000 418.400000
3195 12194 3197 1 109.50000 418.400000
3198 12195 3199 1 109.50000 418.400000
3198 12195 3200 1 109.50000 418.400000
3198 12195 3201 1 109.50000 418.400000
3199 12195 3200 1 109.50000 418.400000
3199 12195 3201 1 109.50000 418.400000
3200 12195 3201 1 109.50000 418.400000
3202 12196 3203 1 109.50000 418.400000
3202 12196 3204 1 109.50000 418.400000
3202 12196 3205 1 109.50000 418.400000
3203 12196 3204 1 109.50000 418.400000
3203 12196 3205 1 109.50000 418.400000
3204 12196 3205 1 109.50000 418.400000
2022 12197 3206 1 109.50000 418.400000
2022 12197 3207 1 109.50000 418.400000
2022 12197 3208 1 109.50000 418.400000
3206 12197 3207 1 109.50000 418.400000
3206 12197 3208 1 109.50000 418.400000
3207 12197 3208 1 109.50000 418.400000
3209 12198 3210 1 109.50000 418.400000
3209 12198 3211 1 109.50000 418.400000
3209 12198 3212 1 109.50000 418.400000
3210 12198 3211 1 109.50000 418.400000
3210 12198 3212 1 109.50000 418.400000
3211 12198 3212 1 109.50000 418.400000
2880 12199 3213 1 109.50000 418.400000
2880 12199 3215 1 109.50000 418.400000
2880 12199 3450 1 109.50000 418.400000
3213 12199 3215 1 109.50000 418.400000
3213 12199 3450 1 109.50000 418.400000
3215 12199 3450 1 109.50000 418.400000
1602 12200 3216 1 109.50000 418.400000
1602 12200 3217 1 109.50000 418.400000
1602 12200 3218 1 109.50000 418.400000
3216 12200 3217 1 109.50000 418.400000
3216 12200 3218 1 109.50000 418.400000
3217 12200 3218 1 109.50000 418.400000
3219 12201 3220 1 109.50000 418.400000
3219 12201 3221 1 109.50000 418.400000
3219 12201 3222 1 109.50000 418.400000
3220 12201 3221 1 109.50000 418.400000
3220 12201 3222 1 109.50000 418.400000
3221 12201 3222 1 109.50000 418.400000
3225 12202 3226 1 109.50000 418.400000
3225 12202 3227 1 109.50000 418.400000
3225 12202 3228 1 109.50000 418.400000
3226 12202 3227 1 109.50000 418.400000
3226 12202 3228 1 109.50000 418.400000
3227 12202 3228 1 109.50000 418.400000
3229 12203 3230 1 109.50000 418.400000
3229 12203 3231 1 109.50000 418.400000
3229 12203 3232 1 109.50000 418.400000
3230 12203 3231 1 109.50000 418.400000
3230 12203 3232 1 109.50000 418.400000
3231 12203 3232 1 109.50000 418.400000
1357 12204 1359 1 109.50000 418.400000
1357 12204 1360 1 109.50000 418.400000
1357 12204 3233 1 109.50000 418.400000
1359 12204 1360 1 109.50000 418.400000
1359 12204 3233 1 109.50000 418.400000
1360 12204 3233 1 109.50000 418.400000
3236 12205 3237 1 109.50000 418.400000
3236 12205 3238 1 109.50000 418.400000
3236 12205 3239 1 109.50000 418.400000
3237 12205 3238 1 109.50000 418.400000
3237 12205 3239 1 109.50000 418.400000
3238 12205 3239 1 109.50000 418.400000
3240 12206 3241 1 109.50000 418.400000
3240 12206 3242 1 109.50000 418.400000
3240 12206 8115 1 109.50000 418.400000
3241 12206 3242 1 109.50000 418.400000
3241 12206 8115 1 109.50000 418.400000
3242 12206 8115 1 109.50000 418.400000
3093 12207 3243 1 109.50000 418.400000
3093 12207 3244 1 109.50000 418.400000
3093 12207 3245 1 109.50000 418.400000
3243 12207 3244 1 109.50000 418.400000
3243 12207 3245 1 109.50000 418.400000
3244 12207 3245 1 109.50000 418.400000
3246 12208 3247 1 109.50000 418.400000
3246 12208 3248 1 109.50000 418.400000
3246 12208 3249 1 109.50000 418.400000
3247 12208 3248 1 109.50000 418.400000
3247 12208 3249 1 109.50000 418.400000
3248 12208 3249 1 109.50000 418.400000
1492 12209 3250 1 109.50000 418.400000
1492 12209 3251 1 109.50000 418.400000
1492 12209 3252 1 109.50000 418.400000
3250 12209 3251 1 109.50000 418.400000
3250 12209 3252 1 109.50000 418.400000
3251 12209 3252 1 109.50000 418.400000
139 12210 3253 1 109.50000 418.400000
139 12210 3254 1 109.50000 418.400000
139 12210 3255 1 109.50000 418.400000
3253 12210 3254 1 109.50000 418.400000
3253 12210 3255 1 109.50000 418.400000
3254 12210 3255 1 109.50000 418.400000
3256 12211 3257 1 109.50000 418.400000
3256 12211 3258 1 109.50000 418.400000
3256 12211 3259 1 109.50000 418.400000
3257 12211 3258 1 109.50000 418.400000
3257 12211 3259 1 109.50000 418.400000
3258 12211 3259 1 109.50000 418.400000
3260 12212 3261 1 109.50000 418.400000
3260 12212 3262 1 109.50000 418.400000
3260 12212 3263 1 109.50000 418.400000
3261 12212 3262 1 109.50000 418.400000
3261 12212 3263 1 109.50000 418.400000
3262 12212 3263 1 109.50000 418.400000
2707 12213 3217 1 109.50000 418.400000
2707 12213 3222 1 109.50000 418.400000
2707 12213 3264 1 109.50000 418.400000
3217 12213 3222 1 109.50000 418.400000
3217 12213 3264 1 109.50000 418.400000
3222 12213 3264 1 109.50000 418.400000
3265 12214 3266 1 109.50000 418.400000
3265 12214 3267 1 109.50000 418.400000
3265 12214 3268 1 109.50000 418.400000
3266 12214 3267 1 109.50000 418.400000
3266 12214 3268 1 109.50000 418.400000
3267 12214 3268 1 109.50000 418.400000
3269 12215 3270 1 109.50000 418.400000
3269 12215 3271 1 109.50000 418.400000
3269 12215 3272 1 109.50000 418.400000
3270 12215 3271 1 109.50000 418.400000
3270 12215 3272 1 109.50000 418.400000
3271 12215 3272 1 109.50000 418.400000
3273 12216 3274 1 109.50000 418.400000
3273 12216 3275 1 109.50000 418.400000
3273 12216 3276 1 109.50000 418.400000
3274 12216 3275 1 109.50000 418.400000
3274 12216 3276 1 109.50000 418.400000
3275 12216 3276 1 109.50000 418.400000
983 12217 2334 1 109.50000 418.400000
983 12217 3277 1 109.50000 418.400000
983 12217 3278 1 109.50000 418.400000
2334 12217 3277 1 109.50000 418.400000
2334 12217 3278 1 109.50000 418.400000
3277 12217 3278 1 109.50000 418.400000
1301 12218 3279 1 109.50000 418.400000
1301 12218 3280 1 109.50000 418.400000
1301 12218 3281 1 109.50000 418.400000
3279 12218 3280 1 109.50000 418.400000
3279 12218 3281 1 109.50000 418.400000
3280 12218 3281 1 109.50000 418.400000
146 12219 3282 1 109.50000 418.400000
146 12219 3283 1 109.50000 418.400000
146 12219 11155 1 109.50000 418.400000
3282 12219 3283 1 109.50000 418.400000
3282 12219 11155 1 109.50000 418.400000
3283 12219 11155 1 109.50000 418.400000
1671 12220 1764 1 109.50000 418.400000
1671 12220 3286 1 109.50000 418.400000
1671 12220 3287 1 109.50000 418.400000
1764 12220 3286 1 109.50000 418.400000
1764 12220 3287 1 109.50000 418.400000
3286 12220 3287 1 109.50000 418.400000
1409 12221 3288 1 109.50000 418.400000
1409 12221 3289 1 109.50000 418.400000
1409 12221 3290 1 109.50000 418.400000
3288 12221 3289 1 109.50000 418.400000
3288 12221 3290 1 109.50000 418.400000
3289 12221 3290 1 109.50000 418.400000
3292 12222 3293 1 109.50000 418.400000
3292 12222 3294 1 109.50000 418.400000
3292 12222 5550 1 109.50000 418.400000
3293 12222 3294 1 109.50000 418.400000
3293 12222 5550 1 109.50000 418.400000
3294 12222 5550 1 109.50000 418.400000
3167 12223 3295 1 109.50000 418.400000
3167 12223 3296 1 109.50000 418.400000
3167 12223 3297 1 109.50000 418.400000
3295 12223 3296 1 109.50000 418.400000
3295 12223 3297 1 109.50000 418.400000
3296 12223 3297 1 109.50000 418.400000
3299 12224 3300 1 109.50000 418.400000
3299 12224 3301 1 109.50000 418.400000
3299 12224 6492 1 109.50000 418.400000
3300 12224 3301 1 109.50000 418.400000
3300 12224 6492 1 109.50000 418.400000
3301 12224 6492 1 109.50000 418.400000
3305 12225 3306 1 109.50000 418.400000
3305 12225 3307 1 109.50000 418.400000
3305 12225 3308 1 109.50000 418.400000
3306 12225 3307 1 109.50000 418.400000
3306 12225 3308 1 109.50000 418.400000
3307 12225 3308 1 109.50000 418.400000
3309 12226 3310 1 109.50000 418.400000
3309 12226 3311 1 109.50000 418.400000
3309 12226 3312 1 109.50000 418.400000
3310 12226 3311 1 109.50000 418.400000
3310 12226 3312 1 109.50000 418.400000
3311 12226 3312 1 109.50000 418.400000
3313 12227 3314 1 109.50000 418.400000
3313 12227 3315 1 109.50000 418.400000
3313 12227 3316 1 109.50000 418.400000
3314 12227 3315 1 109.50000 418.400000
3314 12227 3316 1 109.50000 418.400000
3315 12227 3316 1 109.50000 418.400000
333 12228 3317 1 109.50000 418.400000
333 12228 3318 1 109.50000 418.400000
333 12228 3319 1 109.50000 418.400000
3317 12228 3318 1 109.50000 418.400000
3317 12228 3319 1 109.50000 418.400000
3318 12228 3319 1 109.50000 418.400000
3152 12229 3320 1 109.50000 418.400000
3152 12229 3321 1 109.50000 418.400000
3152 12229 3322 1 109.50000 418.400000
3320 12229 3321 1 109.50000 418.400000
3320 12229 3322 1 109.50000 418.400000
3321 12229 3322 1 109.50000 418.400000
291 12230 972 1 109.50000 418.400000
291 12230 3323 1 109.50000 418.400000
291 12230 3324 1 109.50000 418.400000
972 12230 3323 1 109.50000 418.400000
972 12230 3324 1 109.50000 418.400000
3323 12230 3324 1 109.50000 418.400000
3325 12231 3326 1 109.50000 418.400000
3325 12231 3327 1 109.50000 418.400000
3325 12231 9134 1 109.50000 418.400000
3326 12231 3327 1 109.50000 418.400000
3326 12231 9134 1 109.50000 418.400000
3327 12231 9134 1 109.50000 418.400000
3329 12232 3330 1 109.50000 418.400000
3329 12232 3331 1 109.50000 418.400000
3329 12232 3332 1 109.50000 418.400000
3330 12232 3331 1 109.50000 418.400000
3330 12232 3332 1 109.50000 418.400000
3331 12232 3332 1 109.50000 418.400000
3333 12233 3334 1 109.50000 418.400000
3333 12233 3335 1 109.50000 418.400000
3333 12233 11268 1 109.50000 418.400000
3334 12233 3335 1 109.50000 418.400000
3334 12233 11268 1 109.50000 418.400000
3335 12233 11268 1 109.50000 418.400000
1980 12234 3336 1 109.50000 418.400000
1980 12234 3337 1 109.50000 418.400000
1980 12234 11188 1 109.50000 418.400000
3336 12234 3337 1 109.50000 418.400000
3336 12234 11188 1 109.50000 418.400000
3337 12234 11188 1 109.50000 418.400000
3340 12235 3341 1 109.50000 418.400000
3340 12235 3342 1 109.50000 418.400000
3340 12235 3343 1 109.50000 418.400000
3341 12235 3342 1 109.50000 418.400000
3341 12235 3343 1 109.50000 418.400000
3342 12235 3343 1 109.50000 418.400000
3344 12236 3345 1 109.50000 418.400000
3344 12236 3346 1 109.50000 418.400000
3344 12236 3347 1 109.50000 418.400000
3345 12236 3346 1 109.50000 418.400000
3345 12236 3347 1 109.50000 418.400000
3346 12236 3347 1 109.50000 418.400000
1502 12237 3348 1 109.50000 418.400000
1502 12237 3349 1 109.50000 418.400000
1502 12237 3350 1 109.50000 418.400000
3348 12237 3349 1 109.50000 418.400000
3348 12237 3350 1 109.50000 418.400000
3349 12237 3350 1 109.50000 418.400000
2919 12238 3354 1 109.50000 418.400000
2919 12238 3355 1 109.50000 418.400000
2919 12238 3356 1 109.50000 418.400000
3354 12238 3355 1 109.50000 418.400000
3354 12238 3356 1 109.50000 418.400000
3355 12238 3356 1 109.50000 418.400000
3358 12239 3359 1 109.50000 418.400000
3358 12239 3360 1 109.50000 418.400000
3358 12239 3739 1 109.50000 418.400000
3359 12239 3360 1 109.50000 418.400000
3359 12239 3739 1 109.50000 418.400000
3360 12239 3739 1 109.50000 418.400000
3038 12240 3361 1 109.50000 418.400000
3038 12240 3362 1 109.50000 418.400000
3038 12240 3363 1 109.50000 418.400000
3361 12240 3362 1 109.50000 418.400000
3361 12240 3363 1 109.50000 418.400000
3362 12240 3363 1 109.50000 418.400000
1406 12241 3364 1 109.50000 418.400000
1406 12241 3365 1 109.50000 418.400000
1406 12241 3367 1 109.50000 418.400000
3364 12241 3365 1 109.50000 418.400000
3364 12241 3367 1 109.50000 418.400000
3365 12241 3367 1 109.50000 418.400000
1574 12242 3368 1 109.50000 418.400000
1574 12242 3369 1 109.50000 418.400000
1574 12242 3370 1 109.50000 418.400000
3368 12242 3369 1 109.50000 418.400000
3368 12242 3370 1 109.50000 418.400000
3369 12242 3370 1 109.50000 418.400000
3372 12243 3373 1 109.50000 418.400000
3372 12243 3374 1 109.50000 418.400000
3372 12243 3375 1 109.50000 418.400000
3373 12243 3374 1 109.50000 418.400000
3373 12243 3375 1 109.50000 418.400000
3374 12243 3375 1 109.50000 418.400000
3381 12244 3382 1 109.50000 418.400000
3381 12244 3383 1 109.50000 418.400000
3381 12244 3384 1 109.50000 418.400000
3382 12244 3383 1 109.50000 418.400000
3382 12244 3384 1 109.50000 418.400000
3383 12244 3384 1 109.50000 418.400000
3388 12245 3389 1 109.50000 418.400000
3388 12245 3390 1 109.50000 418.400000
3388 12245 3391 1 109.50000 418.400000
3389 12245 3390 1 109.50000 418.400000
3389 12245 3391 1 109.50000 418.400000
3390 12245 3391 1 109.50000 418.400000
3392 12246 3393 1 109.50000 418.400000
3392 12246 3394 1 109.50000 418.400000
3392 12246 3395 1 109.50000 418.400000
3393 12246 3394 1 109.50000 418.400000
3393 12246 3395 1 109.50000 418.400000
3394 12246 3395 1 109.50000 418.400000
513 12247 3396 1 109.50000 418.400000
513 12247 3397 1 109.50000 418.400000
513 12247 3398 1 109.50000 418.400000
3396 12247 3397 1 109.50000 418.400000
3396 12247 3398 1 109.50000 418.400000
3397 12247 3398 1 109.50000 418.400000
588 12248 3399 1 109.50000 418.400000
588 12248 3400 1 109.50000 418.400000
588 12248 3401 1 109.50000 418.400000
3399 12248 3400 1 109.50000 418.400000
3399 12248 3401 1 109.50000 418.400000
3400 12248 3401 1 109.50000 418.400000
3402 12249 3403 1 109.50000 418.400000
3402 12249 3404 1 109.50000 418.400000
3402 12249 3405 1 109.50000 418.400000
3403 12249 3404 1 109.50000 418.400000
3403 12249 3405 1 109.50000 418.400000
3404 12249 3405 1 109.50000 418.400000
26 12250 2286 1 109.50000 418.400000
26 12250 3213 1 109.50000 418.400000
26 12250 3406 1 109.50000 418.400000
2286 12250 3213 1 109.50000 418.400000
2286 12250 3406 1 109.50000 418.400000
3213 12250 3406 1 109.50000 418.400000
524 12251 3408 1 109.50000 418.400000
524 12251 3409 1 109.50000 418.400000
524 12251 4419 1 109.50000 418.400000
3408 12251 3409 1 109.50000 418.400000
3408 12251 4419 1 109.50000 418.400000
3409 12251 4419 1 109.50000 418.400000
3410 12252 3411 1 109.50000 418.400000
3410 12252 3412 1 109.50000 418.400000
3410 12252 3413 1 109.50000 418.400000
3411 12252 3412 1 109.50000 418.400000
3411 12252 3413 1 109.50000 418.400000
3412 12252 3413 1 109.50000 418.400000
1284 12253 3414 1 109.50000 418.400000
1284 12253 3416 1 109.50000 418.400000
1284 12253 5927 1 109.50000 418.400000
3414 12253 3416 1 109.50000 418.400000
3414 12253 5927 1 109.50000 418.400000
3416 12253 5927 1 109.50000 418.400000
3420 12254 3421 1 109.50000 418.400000
3420 12254 3422 1 109.50000 418.400000
3420 12254 3423 1 109.50000 418.400000
3421 12254 3422 1 109.50000 418.400000
3421 12254 3423 1 109.50000 418.400000
3422 12254 3423 1 109.50000 418.400000
3426 12255 3427 1 109.50000 418.400000
3426 12255 3428 1 109.50000 418.400000
3426 12255 3429 1 109.50000 418.400000
3427 12255 3428 1 109.50000 418.400000
3427 12255 3429 1 109.50000 418.400000
3428 12255 3429 1 109.50000 418.400000
3023 12256 3132 1 109.50000 418.400000
3023 12256 3432 1 109.50000 418.400000
3023 12256 3433 1 109.50000 418.400000
3132 12256 3432 1 109.50000 418.400000
3132 12256 3433 1 109.50000 418.400000
3432 12256 3433 1 109.50000 418.400000
3435 12257 3436 1 109.50000 418.400000
3435 12257 3437 1 109.50000 418.400000
3435 12257 3438 1 109.50000 418.400000
3436 12257 3437 1 109.50000 418.400000
3436 12257 3438 1 109.50000 418.400000
3437 12257 3438 1 109.50000 418.400000
3439 12258 3440 1 109.50000 418.400000
3439 12258 3441 1 109.50000 418.400000
3439 12258 3442 1 109.50000 418.400000
3440 12258 3441 1 109.50000 418.400000
3440 12258 3442 1 109.50000 418.400000
3441 12258 3442 1 109.50000 418.400000
2513 12259 2832 1 109.50000 418.400000
2513 12259 3374 1 109.50000 418.400000
2513 12259 3443 1 109.50000 418.400000
2832 12259 3374 1 109.50000 418.400000
2832 12259 3443 1 109.50000 418.400000
3374 12259 3443 1 109.50000 418.400000
3444 12260 3445 1 109.50000 418.400000
3444 12260 3446 1 109.50000 418.400000
3444 12260 3447 1 109.50000 418.400000
3445 12260 3446 1 109.50000 418.400000
3445 12260 3447 1 109.50000 418.400000
3446 12260 3447 1 109.50000 418.400000
3448 12261 3449 1 109.50000 418.400000
3448 12261 3450 1 109.50000 418.400000
3448 12261 3451 1 109.50000 418.400000
3449 12261 3450 1 109.50000 418.400000
3449 12261 3451 1 109.50000 418.400000
3450 12261 3451 1 109.50000 418.400000
56 12262 2671 1 109.50000 418.400000
56 12262 3452 1 109.50000 418.400000
56 12262 3453 1 109.50000 418.400000
2671 12262 3452 1 109.50000 418.400000
2671 12262 3453 1 109.50000 418.400000
3452 12262 3453 1 109.50000 418.400000
1571 12263 3454 1 109.50000 418.400000
1571 12263 3455 1 109.50000 418.400000
1571 12263 3456 1 109.50000 418.400000
3454 12263 3455 1 109.50000 418.400000
3454 12263 3456 1 109.50000 418.400000
3455 12263 3456 1 109.50000 418.400000
1439 12264 1472 1 109.50000 418.400000
1439 12264 3457 1 109.50000 418.400000
1439 12264 3459 1 109.50000 418.400000
1472 12264 3457 1 109.50000 418.400000
1472 12264 3459 1 109.50000 418.400000
3457 12264 3459 1 109.50000 418.400000
3460 12265 3461 1 109.50000 418.400000
3460 12265 3462 1 109.50000 418.400000
3460 12265 3463 1 109.50000 418.400000
3461 12265 3462 1 109.50000 418.400000
3461 12265 3463 1 109.50000 418.400000
3462 12265 3463 1 109.50000 418.400000
3464 12266 3465 1 109.50000 418.400000
3464 12266 3466 1 109.50000 418.400000
3464 12266 3467 1 109.50000 418.400000
3465 12266 3466 1 109.50000 418.400000
3465 12266 3467 1 109.50000 418.400000
3466 12266 3467 1 109.50000 418.400000
2460 12267 3468 1 109.50000 418.400000
2460 12267 3469 1 109.50000 418.400000
2460 12267 3470 1 109.50000 418.400000
3468 12267 3469 1 109.50000 418.400000
3468 12267 3470 1 109.50000 418.400000
3469 12267 3470 1 109.50000 418.400000
3471 12268 3472 1 109.50000 418.400000
3471 12268 3473 1 109.50000 418.400000
3471 12268 3474 1 109.50000 418.400000
3472 12268 3473 1 109.50000 418.400000
3472 12268 3474 1 109.50000 418.400000
3473 12268 3474 1 109.50000 418.400000
2365 12269 3434 1 109.50000 418.400000
2365 12269 3475 1 109.50000 418.400000
2365 12269 3476 1 109.50000 418.400000
3434 12269 3475 1 109.50000 418.400000
3434 12269 3476 1 109.50000 418.400000
3475 12269 3476 1 109.50000 418.400000
3477 12270 3478 1 109.50000 418.400000
3477 12270 3479 1 109.50000 418.400000
3477 12270 11309 1 109.50000 418.400000
3478 12270 3479 1 109.50000 418.400000
3478 12270 11309 1 109.50000 418.400000
3479 12270 11309 1 109.50000 418.400000
3480 12271 3481 1 109.50000 418.400000
3480 12271 3482 1 109.50000 418.400000
3480 12271 3483 1 109.50000 418.400000
3481 12271 3482 1 109.50000 418.400000
3481 12271 3483 1 109.50000 418.400000
3482 12271 3483 1 109.50000 418.400000
784 12272 2738 1 109.50000 418.400000
784 12272 3484 1 109.50000 418.400000
784 12272 3485 1 109.50000 418.400000
2738 12272 3484 1 109.50000 418.400000
2738 12272 3485 1 109.50000 418.400000
3484 12272 3485 1 109.50000 418.400000
729 12273 3489 1 109.50000 418.400000
729 12273 3490 1 109.50000 418.400000
729 12273 3491 1 109.50000 418.400000
3489 12273 3490 1 109.50000 418.400000
3489 12273 3491 1 109.50000 418.400000
3490 12273 3491 1 109.50000 418.400000
3495 12274 3496 1 109.50000 418.400000
3495 12274 3497 1 109.50000 418.400000
3495 12274 3498 1 109.50000 418.400000
3496 12274 3497 1 109.50000 418.400000
3496 12274 3498 1 109.50000 418.400000
3497 12274 3498 1 109.50000 418.400000
3499 12275 3500 1 109.50000 418.400000
3499 12275 3501 1 109.50000 418.400000
3499 12275 3502 1 109.50000 418.400000
3500 12275 3501 1 109.50000 418.400000
3500 12275 3502 1 109.50000 418.400000
3501 12275 3502 1 109.50000 418.400000
1565 12276 3503 1 109.50000 418.400000
1565 12276 3504 1 109.50000 418.400000
1565 12276 3505 1 109.50000 418.400000
3503 12276 3504 1 109.50000 418.400000
3503 12276 3505 1 109.50000 418.400000
3504 12276 3505 1 109.50000 418.400000
3506 12277 3507 1 109.50000 418.400000
3506 12277 3508 1 109.50000 418.400000
3506 12277 3509 1 109.50000 418.400000
3507 12277 3508 1 109.50000 418.400000
3507 12277 3509 1 109.50000 418.400000
3508 12277 3509 1 109.50000 418.400000
3510 12278 3511 1 109.50000 418.400000
3510 12278 3512 1 109.50000 418.400000
3510 12278 3513 1 109.50000 418.400000
3511 12278 3512 1 109.50000 418.400000
3511 12278 3513 1 109.50000 418.400000
3512 12278 3513 1 109.50000 418.400000
3214 12279 3215 1 109.50000 418.400000
3214 12279 3514 1 109.50000 418.400000
3214 12279 3515 1 109.50000 418.400000
3215 12279 3514 1 109.50000 418.400000
3215 12279 3515 1 109.50000 418.400000
3514 12279 3515 1 109.50000 418.400000
267 12280 3516 1 109.50000 418.400000
267 12280 3517 1 109.50000 418.400000
267 12280 9304 1 109.50000 418.400000
3516 12280 3517 1 109.50000 418.400000
3516 12280 9304 1 109.50000 418.400000
3517 12280 9304 1 109.50000 418.400000
903 12281 3518 1 109.50000 418.400000
903 12281 3519 1 109.50000 418.400000
903 12281 3520 1 109.50000 418.400000
3518 12281 3519 1 109.50000 418.400000
3518 12281 3520 1 109.50000 418.400000
3519 12281 3520 1 109.50000 418.400000
3521 12282 3522 1 109.50000 418.400000
3521 12282 3523 1 109.50000 418.400000
3521 12282 3524 1 109.50000 418.400000
3522 12282 3523 1 109.50000 418.400000
3522 12282 3524 1 109.50000 418.400000
3523 12282 3524 1 109.50000 418.400000
219 12283 3528 1 109.50000 418.400000
219 12283 3529 1 109.50000 418.400000
219 12283 3530 1 109.50000 418.400000
3528 12283 3529 1 109.50000 418.400000
3528 12283 3530 1 109.50000 418.400000
3529 12283 3530 1 109.50000 418.400000
3531 12284 3532 1 109.50000 418.400000
3531 12284 3533 1 109.50000 418.400000
3531 12284 3534 1 109.50000 418.400000
3532 12284 3533 1 109.50000 418.400000
3532 12284 3534 1 109.50000 418.400000
3533 12284 3534 1 109.50000 418.400000
720 12285 3535 1 109.50000 418.400000
720 12285 3536 1 109.50000 418.400000
720 12285 3537 1 109.50000 418.400000
3535 12285 3536 1 109.50000 418.400000
3535 12285 3537 1 109.50000 418.400000
3536 12285 3537 1 109.50000 418.400000
3538 12286 3539 1 109.50000 418.400000
3538 12286 3540 1 109.50000 418.400000
3538 12286 3541 1 109.50000 418.400000
3539 12286 3540 1 109.50000 418.400000
3539 12286 3541 1 109.50000 418.400000
3540 12286 3541 1 109.50000 418.400000
3542 12287 3543 1 109.50000 418.400000
3542 12287 3544 1 109.50000 418.400000
3542 12287 3545 1 109.50000 418.400000
3543 12287 3544 1 109.50000 418.400000
3543 12287 3545 1 109.50000 418.400000
3544 12287 3545 1 109.50000 418.400000
1743 12288 3546 1 109.50000 418.400000
1743 12288 3547 1 109.50000 418.400000
1743 12288 3548 1 109.50000 418.400000
3546 12288 3547 1 109.50000 418.400000
3546 12288 3548 1 109.50000 418.400000
3547 12288 3548 1 109.50000 418.400000
3549 12289 3550 1 109.50000 418.400000
3549 12289 3551 1 109.50000 418.400000
3549 12289 3552 1 109.50000 418.400000
3550 12289 3551 1 109.50000 418.400000
3550 12289 3552 1 109.50000 418.400000
3551 12289 3552 1 109.50000 418.400000
1886 12290 2850 1 109.50000 418.400000
1886 12290 3553 1 109.50000 418.400000
1886 12290 3554 1 109.50000 418.400000
2850 12290 3553 1 109.50000 418.400000
2850 12290 3554 1 109.50000 418.400000
3553 12290 3554 1 109.50000 418.400000
3555 12291 3556 1 109.50000 418.400000
3555 12291 3557 1 109.50000 418.400000
3555 12291 3558 1 109.50000 418.400000
3556 12291 3557 1 109.50000 418.400000
3556 12291 3558 1 109.50000 418.400000
3557 12291 3558 1 109.50000 418.400000
3563 12292 3564 1 109.50000 418.400000
3563 12292 6283 1 109.50000 418.400000
3563 12292 10332 1 109.50000 418.400000
3564 12292 6283 1 109.50000 418.400000
3564 12292 10332 1 109.50000 418.400000
6283 12292 10332 1 109.50000 418.400000
3571 12293 3572 1 109.50000 418.400000
3571 12293 3573 1 109.50000 418.400000
3571 12293 3574 1 109.50000 418.400000
3572 12293 3573 1 109.50000 418.400000
3572 12293 3574 1 109.50000 418.400000
3573 12293 3574 1 109.50000 418.400000
745 12294 3455 1 109.50000 418.400000
745 12294 3575 1 109.50000 418.400000
745 12294 3576 1 109.50000 418.400000
3455 12294 3575 1 109.50000 418.400000
3455 12294 3576 1 109.50000 418.400000
3575 12294 3576 1 109.50000 418.400000
1648 12295 1649 1 109.50000 418.400000
1648 12295 3578 1 109.50000 418.400000
1648 12295 3579 1 109.50000 418.400000
1649 12295 3578 1 109.50000 418.400000
1649 12295 3579 1 109.50000 418.400000
3578 12295 3579 1 109.50000 418.400000
3002 12296 3580 1 109.50000 418.400000
3002 12296 3581 1 109.50000 418.400000
3002 12296 3582 1 109.50000 418.400000
3580 12296 3581 1 109.50000 418.400000
3580 12296 3582 1 109.50000 418.400000
3581 12296 3582 1 109.50000 418.400000
755 12297 2127 1 109.50000 418.400000
755 12297 3436 1 109.50000 418.400000
755 12297 3583 1 109.50000 418.400000
2127 12297 3436 1 109.50000 418.400000
2127 12297 3583 1 109.50000 418.400000
3436 12297 3583 1 109.50000 418.400000
286 12298 3584 1 109.50000 418.400000
286 12298 3585 1 109.50000 418.400000
286 12298 3586 1 109.50000 418.400000
3584 12298 3585 1 109.50000 418.400000
3584 12298 3586 1 109.50000 418.400000
3585 12298 3586 1 109.50000 418.400000
3588 12299 3589 1 109.50000 418.400000
3588 12299 3590 1 109.50000 418.400000
3588 12299 5393 1 109.50000 418.400000
3589 12299 3590 1 109.50000 418.400000
3589 12299 5393 1 109.50000 418.400000
3590 12299 5393 1 109.50000 418.400000
3591 12300 3592 1 109.50000 418.400000
3591 12300 3593 1 109.50000 418.400000
3591 12300 3594 1 109.50000 418.400000
3592 12300 3593 1 109.50000 418.400000
3592 12300 3594 1 109.50000 418.400000
3593 12300 3594 1 109.50000 418.400000
2446 12301 3595 1 109.50000 418.400000
2446 12301 3596 1 109.50000 418.400000
2446 12301 3597 1 109.50000 418.400000
3595 12301 3596 1 109.50000 418.400000
3595 12301 3597 1 109.50000 418.400000
3596 12301 3597 1 109.50000 418.400000
644 12302 3598 1 109.50000 418.400000
644 12302 3599 1 109.50000 418.400000
644 12302 3600 1 109.50000 418.400000
3598 12302 3599 1 109.50000 418.400000
3598 12302 3600 1 109.50000 418.400000
3599 12302 3600 1 109.50000 418.400000
1123 12303 3601 1 109.50000 418.400000
1123 12303 11180 1 109.50000 418.400000
1123 12303 11250 1 109.50000 418.400000
3601 12303 11180 1 109.50000 418.400000
3601 12303 11250 1 109.50000 418.400000
11180 12303 11250 1 109.50000 418.400000
612 12304 3602 1 109.50000 418.400000
612 12304 3603 1 109.50000 418.400000
612 12304 3604 1 109.50000 418.400000
3602 12304 3603 1 109.50000 418.400000
3602 12304 3604 1 109.50000 418.400000
3603 12304 3604 1 109.50000 418.400000
3605 12305 3606 1 109.50000 418.400000
3605 12305 3607 1 109.50000 418.400000
3605 12305 3608 1 109.50000 418.400000
3606 12305 3607 1 109.50000 418.400000
3606 12305 3608 1 109.50000 418.400000
3607 12305 3608 1 109.50000 418.400000
3609 12306 3610 1 109.50000 418.400000
3609 12306 3611 1 109.50000 418.400000
3609 12306 3612 1 109.50000 418.400000
3610 12306 3611 1 109.50000 418.400000
3610 12306 3612 1 109.50000 418.400000
3611 12306 3612 1 109.50000 418.400000
3613 12307 3614 1 109.50000 418.400000
3613 12307 3615 1 109.50000 418.400000
3613 12307 3616 1 109.50000 418.400000
3614 12307 3615 1 109.50000 418.400000
3614 12307 3616 1 109.50000 418.400000
3615 12307 3616 1 109.50000 418.400000
1499 12308 1500 1 109.50000 418.400000
1499 12308 3618 1 109.50000 418.400000
1499 12308 3619 1 109.50000 418.400000
1500 12308 3618 1 109.50000 418.400000
1500 12308 3619 1 109.50000 418.400000
3618 12308 3619 1 109.50000 418.400000
855 12309 3620 1 109.50000 418.400000
855 12309 3621 1 109.50000 418.400000
855 12309 3622 1 109.50000 418.400000
3620 12309 3621 1 109.50000 418.400000
3620 12309 3622 1 109.50000 418.400000
3621 12309 3622 1 109.50000 418.400000
3623 12310 3624 1 109.50000 418.400000
3623 12310 3626 1 109.50000 418.400000
3623 12310 6768 1 109.50000 418.400000
3624 12310 3626 1 109.50000 418.400000
3624 12310 6768 1 109.50000 418.400000
3626 12310 6768 1 109.50000 418.400000
1939 12311 3627 1 109.50000 418.400000
1939 12311 11230 1 109.50000 418.400000
1939 12311 11256 1 109.50000 418.400000
3627 12311 11230 1 109.50000 418.400000
3627 12311 11256 1 109.50000 418.400000
11230 12311 11256 1 109.50000 418.400000
543 12312 3629 1 109.50000 418.400000
543 12312 3631 1 109.50000 418.400000
543 12312 7820 1 109.50000 418.400000
3629 12312 3631 1 109.50000 418.400000
3629 12312 7820 1 109.50000 418.400000
3631 12312 7820 1 109.50000 418.400000
669 12313 3632 1 109.50000 418.400000
669 12313 3633 1 109.50000 418.400000
669 12313 3634 1 109.50000 418.400000
3632 12313 3633 1 109.50000 418.400000
3632 12313 3634 1 109.50000 418.400000
3633 12313 3634 1 109.50000 418.400000
641 12314 1555 1 109.50000 418.400000
641 12314 3636 1 109.50000 418.400000
641 12314 3637 1 109.50000 418.400000
1555 12314 3636 1 109.50000 418.400000
1555 12314 3637 1 109.50000 418.400000
3636 12314 3637 1 109.50000 418.400000
3638 12315 3639 1 109.50000 418.400000
3638 12315 3640 1 109.50000 418.400000
3638 12315 3641 1 109.50000 418.400000
3639 12315 3640 1 109.50000 418.400000
3639 12315 3641 1 109.50000 418.400000
3640 12315 3641 1 109.50000 418.400000
1118 12316 3642 1 109.50000 418.400000
1118 12316 3643 1 109.50000 418.400000
1118 12316 11163 1 109.50000 418.400000
3642 12316 3643 1 109.50000 418.400000
3642 12316 11163 1 109.50000 418.400000
3643 12316 11163 1 109.50000 418.400000
1766 12317 3646 1 109.50000 418.400000
1766 12317 3647 1 109.50000 418.400000
1766 12317 3648 1 109.50000 418.400000
3646 12317 3647 1 109.50000 418.400000
3646 12317 3648 1 109.50000 418.400000
3647 12317 3648 1 109.50000 418.400000
2436 12318 3259 1 109.50000 418.400000
2436 12318 3649 1 109.50000 418.400000
2436 12318 3650 1 109.50000 418.400000
3259 12318 3649 1 109.50000 418.400000
3259 12318 3650 1 109.50000 418.400000
3649 12318 3650 1 109.50000 418.400000
2845 12319 3651 1 109.50000 418.400000
2845 12319 3652 1 109.50000 418.400000
2845 12319 3653 1 109.50000 418.400000
3651 12319 3652 1 109.50000 418.400000
3651 12319 3653 1 109.50000 418.400000
3652 12319 3653 1 109.50000 418.400000
3654 12320 3656 1 109.50000 418.400000
3654 12320 3657 1 109.50000 418.400000
3654 12320 4332 1 109.50000 418.400000
3656 12320 3657 1 109.50000 418.400000
3656 12320 4332 1 109.50000 418.400000
3657 12320 4332 1 109.50000 418.400000
1744 12321 3658 1 109.50000 418.400000
1744 12321 3659 1 109.50000 418.400000
1744 12321 3660 1 109.50000 418.400000
3658 12321 3659 1 109.50000 418.400000
3658 12321 3660 1 109.50000 418.400000
3659 12321 3660 1 109.50000 418.400000
3032 12322 3661 1 109.50000 418.400000
3032 12322 3662 1 109.50000 418.400000
3032 12322 3663 1 109.50000 418.400000
3661 12322 3662 1 109.50000 418.400000
3661 12322 3663 1 109.50000 418.400000
3662 12322 3663 1 109.50000 418.400000
3664 12323 3665 1 109.50000 418.400000
3664 12323 3666 1 109.50000 418.400000
3664 12323 3667 1 109.50000 418.400000
3665 12323 3666 1 109.50000 418.400000
3665 12323 3667 1 109.50000 418.400000
3666 12323 3667 1 109.50000 418.400000
3668 12324 3669 1 109.50000 418.400000
3668 12324 3670 1 109.50000 418.400000
3668 12324 3671 1 109.50000 418.400000
3669 12324 3670 1 109.50000 418.400000
3669 12324 3671 1 109.50000 418.400000
3670 12324 3671 1 109.50000 418.400000
3672 12325 3673 1 109.50000 418.400000
3672 12325 3674 1 109.50000 418.400000
3672 12325 3675 1 109.50000 418.400000
3673 12325 3674 1 109.50000 418.400000
3673 12325 3675 1 109.50000 418.400000
3674 12325 3675 1 109.50000 418.400000
2216 12326 3678 1 109.50000 418.400000
2216 12326 3679 1 109.50000 418.400000
2216 12326 3680 1 109.50000 418.400000
3678 12326 3679 1 109.50000 418.400000
3678 12326 3680 1 109.50000 418.400000
3679 12326 3680 1 109.50000 418.400000
1802 12327 3274 1 109.50000 418.400000
1802 12327 3681 1 109.50000 418.400000
1802 12327 3682 1 109.50000 418.400000
3274 12327 3681 1 109.50000 418.400000
3274 12327 3682 1 109.50000 418.400000
3681 12327 3682 1 109.50000 418.400000
822 12328 3683 1 109.50000 418.400000
822 12328 3684 1 109.50000 418.400000
822 12328 3685 1 109.50000 418.400000
3683 12328 3684 1 109.50000 418.400000
3683 12328 3685 1 109.50000 418.400000
3684 12328 3685 1 109.50000 418.400000
2082 12329 2857 1 109.50000 418.400000
2082 12329 3686 1 109.50000 418.400000
2082 12329 3687 1 109.50000 418.400000
2857 12329 3686 1 109.50000 418.400000
2857 12329 3687 1 109.50000 418.400000
3686 12329 3687 1 109.50000 418.400000
2088 12330 3688 1 109.50000 418.400000
2088 12330 3689 1 109.50000 418.400000
2088 12330 3690 1 109.50000 418.400000
3688 12330 3689 1 109.50000 418.400000
3688 12330 3690 1 109.50000 418.400000
3689 12330 3690 1 109.50000 418.400000
1845 12331 3691 1 109.50000 418.400000
1845 12331 3692 1 109.50000 418.400000
1845 12331 3693 1 109.50000 418.400000
3691 12331 3692 1 109.50000 418.400000
3691 12331 3693 1 109.50000 418.400000
3692 12331 3693 1 109.50000 418.400000
3694 12332 3695 1 109.50000 418.400000
3694 12332 3696 1 109.50000 418.400000
3694 12332 3697 1 109.50000 418.400000
3695 12332 3696 1 109.50000 418.400000
3695 12332 3697 1 109.50000 418.400000
3696 12332 3697 1 109.50000 418.400000
3698 12333 3699 1 109.50000 418.400000
3698 12333 3700 1 109.50000 418.400000
3698 12333 3701 1 109.50000 418.400000
3699 12333 3700 1 109.50000 418.400000
3699 12333 3701 1 109.50000 418.400000
3700 12333 3701 1 109.50000 418.400000
950 12334 1396 1 109.50000 418.400000
950 12334 3702 1 109.50000 418.400000
950 12334 3703 1 109.50000 418.400000
1396 12334 3702 1 109.50000 418.400000
1396 12334 3703 1 109.50000 418.400000
3702 12334 3703 1 109.50000 418.400000
3704 12335 3705 1 109.50000 418.400000
3704 12335 3706 1 109.50000 418.400000
3704 12335 3707 1 109.50000 418.400000
3705 12335 3706 1 109.50000 418.400000
3705 12335 3707 1 109.50000 418.400000
3706 12335 3707 1 109.50000 418.400000
3709 12336 3710 1 109.50000 418.400000
3709 12336 3711 1 109.50000 418.400000
3709 12336 10468 1 109.50000 418.400000
3710 12336 3711 1 109.50000 418.400000
3710 12336 10468 1 109.50000 418.400000
3711 12336 10468 1 109.50000 418.400000
3712 12337 3713 1 109.50000 418.400000
3712 12337 3715 1 109.50000 418.400000
3712 12337 6794 1 109.50000 418.400000
3713 12337 3715 1 109.50000 418.400000
3713 12337 6794 1 109.50000 418.400000
3715 12337 6794 1 109.50000 418.400000
3716 12338 3717 1 109.50000 418.400000
3716 12338 3718 1 109.50000 418.400000
3716 12338 3719 1 109.50000 418.400000
3717 12338 3718 1 109.50000 418.400000
3717 12338 3719 1 109.50000 418.400000
3718 12338 3719 1 109.50000 418.400000
1004 12339 3720 1 109.50000 418.400000
1004 12339 3721 1 109.50000 418.400000
1004 12339 3722 1 109.50000 418.400000
3720 12339 3721 1 109.50000 418.400000
3720 12339 3722 1 109.50000 418.400000
3721 12339 3722 1 109.50000 418.400000
673 12340 3723 1 109.50000 418.400000
673 12340 3724 1 109.50000 418.400000
673 12340 3725 1 109.50000 418.400000
3723 12340 3724 1 109.50000 418.400000
3723 12340 3725 1 109.50000 418.400000
3724 12340 3725 1 109.50000 418.400000
2064 12341 2697 1 109.50000 418.400000
2064 12341 3726 1 109.50000 418.400000
2064 12341 3727 1 109.50000 418.400000
2697 12341 3726 1 109.50000 418.400000
2697 12341 3727 1 109.50000 418.400000
3726 12341 3727 1 109.50000 418.400000
3728 12342 3730 1 109.50000 418.400000
3728 12342 3731 1 109.50000 418.400000
3728 12342 6971 1 109.50000 418.400000
3730 12342 3731 1 109.50000 418.400000
3730 12342 6971 1 109.50000 418.400000
3731 12342 6971 1 109.50000 418.400000
3732 12343 3733 1 109.50000 418.400000
3732 12343 3734 1 109.50000 418.400000
3732 12343 3735 1 109.50000 418.400000
3733 12343 3734 1 109.50000 418.400000
3733 12343 3735 1 109.50000 418.400000
3734 12343 3735 1 109.50000 418.400000
2095 12344 3736 1 109.50000 418.400000
2095 12344 3737 1 109.50000 418.400000
2095 12344 11374 1 109.50000 418.400000
3736 12344 3737 1 109.50000 418.400000
3736 12344 11374 1 109.50000 418.400000
3737 12344 11374 1 109.50000 418.400000
18 12345 3738 1 109.50000 418.400000
18 12345 3739 1 109.50000 418.400000
18 12345 3740 1 109.50000 418.400000
3738 12345 3739 1 109.50000 418.400000
3738 12345 3740 1 109.50000 418.400000
3739 12345 3740 1 109.50000 418.400000
3741 12346 3742 1 109.50000 418.400000
3741 12346 3743 1 109.50000 418.400000
3741 12346 3744 1 109.50000 418.400000
3742 12346 3743 1 109.50000 418.400000
3742 12346 3744 1 109.50000 418.400000
3743 12346 3744 1 109.50000 418.400000
3745 12347 3746 1 109.50000 418.400000
3745 12347 3747 1 109.50000 418.400000
3745 12347 3748 1 109.50000 418.400000
3746 12347 3747 1 109.50000 418.400000
3746 12347 3748 1 109.50000 418.400000
3747 12347 3748 1 109.50000 418.400000
1265 12348 3477 1 109.50000 418.400000
1265 12348 3749 1 109.50000 418.400000
1265 12348 3750 1 109.50000 418.400000
3477 12348 3749 1 109.50000 418.400000
3477 12348 3750 1 109.50000 418.400000
3749 12348 3750 1 109.50000 418.400000
3751 12349 3752 1 109.50000 418.400000
3751 12349 3753 1 109.50000 418.400000
3751 12349 3754 1 109.50000 418.400000
3752 12349 3753 1 109.50000 418.400000
3752 12349 3754 1 109.50000 418.400000
3753 12349 3754 1 109.50000 418.400000
3755 12350 3756 1 109.50000 418.400000
3755 12350 3757 1 109.50000 418.400000
3755 12350 3758 1 109.50000 418.400000
3756 12350 3757 1 109.50000 418.400000
3756 12350 3758 1 109.50000 418.400000
3757 12350 3758 1 109.50000 418.400000
2572 12351 2573 1 109.50000 418.400000
2572 12351 3760 1 109.50000 418.400000
2572 12351 3761 1 109.50000 418.400000
2573 12351 3760 1 109.50000 418.400000
2573 12351 3761 1 109.50000 418.400000
3760 12351 3761 1 109.50000 418.400000
2524 12352 3315 1 109.50000 418.400000
2524 12352 3762 1 109.50000 418.400000
2524 12352 3763 1 109.50000 418.400000
3315 12352 3762 1 109.50000 418.400000
3315 12352 3763 1 109.50000 418.400000
3762 12352 3763 1 109.50000 418.400000
1134 12353 1152 1 109.50000 418.400000
1134 12353 3764 1 109.50000 418.400000
1134 12353 3765 1 109.50000 418.400000
1152 12353 3764 1 109.50000 418.400000
1152 12353 3765 1 109.50000 418.400000
3764 12353 3765 1 109.50000 418.400000
3766 12354 3767 1 109.50000 418.400000
3766 12354 3768 1 109.50000 418.400000
3766 12354 3769 1 109.50000 418.400000
3767 12354 3768 1 109.50000 418.400000
3767 12354 3769 1 109.50000 418.400000
3768 12354 3769 1 109.50000 418.400000
958 12355 960 1 109.50000 418.400000
958 12355 2190 1 109.50000 418.400000
958 12355 2818 1 109.50000 418.400000
960 12355 2190 1 109.50000 418.400000
960 12355 2818 1 109.50000 418.400000
2190 12355 2818 1 109.50000 418.400000
1069 12356 3773 1 109.50000 418.400000
1069 12356 3774 1 109.50000 418.400000
1069 12356 3775 1 109.50000 418.400000
3773 12356 3774 1 109.50000 418.400000
3773 12356 3775 1 109.50000 418.400000
3774 12356 3775 1 109.50000 418.400000
3776 12357 3777 1 109.50000 418.400000
3776 12357 3778 1 109.50000 418.400000
3776 12357 3779 1 109.50000 418.400000
3777 12357 3778 1 109.50000 418.400000
3777 12357 3779 1 109.50000 418.400000
3778 12357 3779 1 109.50000 418.400000
3780 12358 3781 1 109.50000 418.400000
3780 12358 3782 1 109.50000 418.400000
3780 12358 3783 1 109.50000 418.400000
3781 12358 3782 1 109.50000 418.400000
3781 12358 3783 1 109.50000 418.400000
3782 12358 3783 1 109.50000 418.400000
2972 12359 3784 1 109.50000 418.400000
2972 12359 3785 1 109.50000 418.400000
2972 12359 3786 1 109.50000 418.400000
3784 12359 3785 1 109.50000 418.400000
3784 12359 3786 1 109.50000 418.400000
3785 12359 3786 1 109.50000 418.400000
3787 12360 3788 1 109.50000 418.400000
3787 12360 3789 1 109.50000 418.400000
3787 12360 3805 1 109.50000 418.400000
3788 12360 3789 1 109.50000 418.400000
3788 12360 3805 1 109.50000 418.400000
3789 12360 3805 1 109.50000 418.400000
2268 12361 3790 1 109.50000 418.400000
2268 12361 3791 1 109.50000 418.400000
2268 12361 3792 1 109.50000 418.400000
3790 12361 3791 1 109.50000 418.400000
3790 12361 3792 1 109.50000 418.400000
3791 12361 3792 1 109.50000 418.400000
3793 12362 3794 1 109.50000 418.400000
3793 12362 3795 1 109.50000 418.400000
3793 12362 3796 1 109.50000 418.400000
3794 12362 3795 1 109.50000 418.400000
3794 12362 3796 1 109.50000 418.400000
3795 12362 3796 1 109.50000 418.400000
3797 12363 3798 1 109.50000 418.400000
3797 12363 3799 1 109.50000 418.400000
3797 12363 3800 1 109.50000 418.400000
3798 12363 3799 1 109.50000 418.400000
3798 12363 3800 1 109.50000 418.400000
3799 12363 3800 1 109.50000 418.400000
3801 12364 3802 1 109.50000 418.400000
3801 12364 3803 1 109.50000 418.400000
3801 12364 3804 1 109.50000 418.400000
3802 12364 3803 1 109.50000 418.400000
3802 12364 3804 1 109.50000 418.400000
3803 12364 3804 1 109.50000 418.400000
3196 12365 3788 1 109.50000 418.400000
3196 12365 3806 1 109.50000 418.400000
3196 12365 3807 1 109.50000 418.400000
3788 12365 3806 1 109.50000 418.400000
3788 12365 3807 1 109.50000 418.400000
3806 12365 3807 1 109.50000 418.400000
3808 12366 3809 1 109.50000 418.400000
3808 12366 3810 1 109.50000 418.400000
3808 12366 3811 1 109.50000 418.400000
3809 12366 3810 1 109.50000 418.400000
3809 12366 3811 1 109.50000 418.400000
3810 12366 3811 1 109.50000 418.400000
3813 12367 3814 1 109.50000 418.400000
3813 12367 3815 1 109.50000 418.400000
3813 12367 9228 1 109.50000 418.400000
3814 12367 3815 1 109.50000 418.400000
3814 12367 9228 1 109.50000 418.400000
3815 12367 9228 1 109.50000 418.400000
1627 12368 3816 1 109.50000 418.400000
1627 12368 3817 1 109.50000 418.400000
1627 12368 3818 1 109.50000 418.400000
3816 12368 3817 1 109.50000 418.400000
3816 12368 3818 1 109.50000 418.400000
3817 12368 3818 1 109.50000 418.400000
3819 12369 3820 1 109.50000 418.400000
3819 12369 3821 1 109.50000 418.400000
3819 12369 3822 1 109.50000 418.400000
3820 12369 3821 1 109.50000 418.400000
3820 12369 3822 1 109.50000 418.400000
3821 12369 3822 1 109.50000 418.400000
2479 12370 3823 1 109.50000 418.400000
2479 12370 3824 1 109.50000 418.400000
2479 12370 3825 1 109.50000 418.400000
3823 12370 3824 1 109.50000 418.400000
3823 12370 3825 1 109.50000 418.400000
3824 12370 3825 1 109.50000 418.400000
591 12371 3826 1 109.50000 418.400000
591 12371 3827 1 109.50000 418.400000
591 12371 3828 1 109.50000 418.400000
3826 12371 3827 1 109.50000 418.400000
3826 12371 3828 1 109.50000 418.400000
3827 12371 3828 1 109.50000 418.400000
2974 12372 3829 1 109.50000 418.400000
2974 12372 3830 1 109.50000 418.400000
2974 12372 3831 1 109.50000 418.400000
3829 12372 3830 1 109.50000 418.400000
3829 12372 3831 1 109.50000 418.400000
3830 12372 3831 1 109.50000 418.400000
3832 12373 3834 1 109.50000 418.400000
3832 12373 4789 1 109.50000 418.400000
3832 12373 9939 1 109.50000 418.400000
3834 12373 4789 1 109.50000 418.400000
3834 12373 9939 1 109.50000 418.400000
4789 12373 9939 1 109.50000 418.400000
2723 12374 3835 1 109.50000 418.400000
2723 12374 3836 1 109.50000 418.400000
2723 12374 3837 1 109.50000 418.400000
3835 12374 3836 1 109.50000 418.400000
3835 12374 3837 1 109.50000 418.400000
3836 12374 3837 1 109.50000 418.400000
3838 12375 3839 1 109.50000 418.400000
3838 12375 3840 1 109.50000 418.400000
3838 12375 3841 1 109.50000 418.400000
3839 12375 3840 1 109.50000 418.400000
3839 12375 3841 1 109.50000 418.400000
3840 12375 3841 1 109.50000 418.400000
3063 12376 3842 1 109.50000 418.400000
3063 12376 3843 1 109.50000 418.400000
3063 12376 3844 1 109.50000 418.400000
3842 12376 3843 1 109.50000 418.400000
3842 12376 3844 1 109.50000 418.400000
3843 12376 3844 1 109.50000 418.400000
3845 12377 3846 1 109.50000 418.400000
3845 12377 3847 1 109.50000 418.400000
3845 12377 3848 1 109.50000 418.400000
3846 12377 3847 1 109.50000 418.400000
3846 12377 3848 1 109.50000 418.400000
3847 12377 3848 1 109.50000 418.400000
1588 12378 3849 1 109.50000 418.400000
1588 12378 3850 1 109.50000 418.400000
1588 12378 3851 1 109.50000 418.400000
3849 12378 3850 1 109.50000 418.400000
3849 12378 3851 1 109.50000 418.400000
3850 12378 3851 1 109.50000 418.400000
1659 12379 3852 1 109.50000 418.400000
1659 12379 3853 1 109.50000 418.400000
1659 12379 3854 1 109.50000 418.400000
3852 12379 3853 1 109.50000 418.400000
3852 12379 3854 1 109.50000 418.400000
3853 12379 3854 1 109.50000 418.400000
3855 12380 3856 1 109.50000 418.400000
3855 12380 3857 1 109.50000 418.400000
3855 12380 3858 1 109.50000 418.400000
3856 12380 3857 1 109.50000 418.400000
3856 12380 3858 1 109.50000 418.400000
3857 12380 3858 1 109.50000 418.400000
3859 12381 3860 1 109.50000 418.400000
3859 12381 3861 1 109.50000 418.400000
3859 12381 3862 1 109.50000 418.400000
3860 12381 3861 1 109.50000 418.400000
3860 12381 3862 1 109.50000 418.400000
3861 12381 3862 1 109.50000 418.400000
3863 12382 3864 1 109.50000 418.400000
3863 12382 3865 1 109.50000 418.400000
3863 12382 3866 1 109.50000 418.400000
3864 12382 3865 1 109.50000 418.400000
3864 12382 3866 1 109.50000 418.400000
3865 12382 3866 1 109.50000 418.400000
1608 12383 2333 1 109.50000 418.400000
1608 12383 3867 1 109.50000 418.400000
1608 12383 3868 1 109.50000 418.400000
2333 12383 3867 1 109.50000 418.400000
2333 12383 3868 1 109.50000 418.400000
3867 12383 3868 1 109.50000 418.400000
739 12384 1767 1 109.50000 418.400000
739 12384 3563 1 109.50000 418.400000
739 12384 3869 1 109.50000 418.400000
1767 12384 3563 1 109.50000 418.400000
1767 12384 3869 1 109.50000 418.400000
3563 12384 3869 1 109.50000 418.400000
3805 12385 3870 1 109.50000 418.400000
3805 12385 3871 1 109.50000 418.400000
3805 12385 3872 1 109.50000 418.400000
3870 12385 3871 1 109.50000 418.400000
3870 12385 3872 1 109.50000 418.400000
3871 12385 3872 1 109.50000 418.400000
3873 12386 3874 1 109.50000 418.400000
3873 12386 3875 1 109.50000 418.400000
3873 12386 3876 1 109.50000 418.400000
3874 12386 3875 1 109.50000 418.400000
3874 12386 3876 1 109.50000 418.400000
3875 12386 3876 1 109.50000 418.400000
3882 12387 3883 1 109.50000 418.400000
3882 12387 3884 1 109.50000 418.400000
3882 12387 3885 1 109.50000 418.400000
3883 12387 3884 1 109.50000 418.400000
3883 12387 3885 1 109.50000 418.400000
3884 12387 3885 1 109.50000 418.400000
200 12388 3886 1 109.50000 418.400000
200 12388 3887 1 109.50000 418.400000
200 12388 3888 1 109.50000 418.400000
3886 12388 3887 1 109.50000 418.400000
3886 12388 3888 1 109.50000 418.400000
3887 12388 3888 1 109.50000 418.400000
738 12389 3889 1 109.50000 418.400000
738 12389 3890 1 109.50000 418.400000
738 12389 3891 1 109.50000 418.400000
3889 12389 3890 1 109.50000 418.400000
3889 12389 3891 1 109.50000 418.400000
3890 12389 3891 1 109.50000 418.400000
3250 12390 3892 1 109.50000 418.400000
3250 12390 3893 1 109.50000 418.400000
3250 12390 3894 1 109.50000 418.400000
3892 12390 3893 1 109.50000 418.400000
3892 12390 3894 1 109.50000 418.400000
3893 12390 3894 1 109.50000 418.400000
3895 12391 3896 1 109.50000 418.400000
3895 12391 3897 1 109.50000 418.400000
3895 12391 3898 1 109.50000 418.400000
3896 12391 3897 1 109.50000 418.400000
3896 12391 3898 1 109.50000 418.400000
3897 12391 3898 1 109.50000 418.400000
457 12392 3899 1 109.50000 418.400000
457 12392 3900 1 109.50000 418.400000
457 12392 3901 1 109.50000 418.400000
3899 12392 3900 1 109.50000 418.400000
3899 12392 3901 1 109.50000 418.400000
3900 12392 3901 1 109.50000 418.400000
3902 12393 3903 1 109.50000 418.400000
3902 12393 3904 1 109.50000 418.400000
3902 12393 3905 1 109.50000 418.400000
3903 12393 3904 1 109.50000 418.400000
3903 12393 3905 1 109.50000 418.400000
3904 12393 3905 1 109.50000 418.400000
3906 12394 3907 1 109.50000 418.400000
3906 12394 3908 1 109.50000 418.400000
3906 12394 3909 1 109.50000 418.400000
3907 12394 3908 1 109.50000 418.400000
3907 12394 3909 1 109.50000 418.400000
3908 12394 3909 1 109.50000 418.400000
3600 12395 3910 1 109.50000 418.400000
3600 12395 3911 1 109.50000 418.400000
3600 12395 3912 1 109.50000 418.400000
3910 12395 3911 1 109.50000 418.400000
3910 12395 3912 1 109.50000 418.400000
3911 12395 3912 1 109.50000 418.400000
370 12396 3754 1 109.50000 418.400000
370 12396 3913 1 109.50000 418.400000
370 12396 3914 1 109.50000 418.400000
3754 12396 3913 1 109.50000 418.400000
3754 12396 3914 1 109.50000 418.400000
3913 12396 3914 1 109.50000 418.400000
3915 12397 3916 1 109.50000 418.400000
3915 12397 3917 1 109.50000 418.400000
3915 12397 3918 1 109.50000 418.400000
3916 12397 3917 1 109.50000 418.400000
3916 12397 3918 1 109.50000 418.400000
3917 12397 3918 1 109.50000 418.400000
3920 12398 3921 1 109.50000 418.400000
3920 12398 7085 1 109.50000 418.400000
3920 12398 8211 1 109.50000 418.400000
3921 12398 7085 1 109.50000 418.400000
3921 12398 8211 1 109.50000 418.400000
7085 12398 8211 1 109.50000 418.400000
537 12399 727 1 109.50000 418.400000
537 12399 2894 1 109.50000 418.400000
537 12399 3923 1 109.50000 418.400000
727 12399 2894 1 109.50000 418.400000
727 12399 3923 1 109.50000 418.400000
2894 12399 3923 1 109.50000 418.400000
3706 12400 3924 1 109.50000 418.400000
3706 12400 3925 1 109.50000 418.400000
3706 12400 3926 1 109.50000 418.400000
3924 12400 3925 1 109.50000 418.400000
3924 12400 3926 1 109.50000 418.400000
3925 12400 3926 1 109.50000 418.400000
563 12401 2993 1 109.50000 418.400000
563 12401 3927 1 109.50000 418.400000
563 12401 3928 1 109.50000 418.400000
2993 12401 3927 1 109.50000 418.400000
2993 12401 3928 1 109.50000 418.400000
3927 12401 3928 1 109.50000 418.400000
1929 12402 3929 1 109.50000 418.400000
1929 12402 3930 1 109.50000 418.400000
1929 12402 11181 1 109.50000 418.400000
3929 12402 3930 1 109.50000 418.400000
3929 12402 11181 1 109.50000 418.400000
3930 12402 11181 1 109.50000 418.400000
3931 12403 3932 1 109.50000 418.400000
3931 12403 3933 1 109.50000 418.400000
3931 12403 3934 1 109.50000 418.400000
3932 12403 3933 1 109.50000 418.400000
3932 12403 3934 1 109.50000 418.400000
3933 12403 3934 1 109.50000 418.400000
986 12404 3936 1 109.50000 418.400000
986 12404 11183 1 109.50000 418.400000
986 12404 11295 1 109.50000 418.400000
3936 12404 11183 1 109.50000 418.400000
3936 12404 11295 1 109.50000 418.400000
11183 12404 11295 1 109.50000 418.400000
1741 12405 3937 1 109.50000 418.400000
1741 12405 3938 1 109.50000 418.400000
1741 12405 6861 1 109.50000 418.400000
3937 12405 3938 1 109.50000 418.400000
3937 12405 6861 1 109.50000 418.400000
3938 12405 6861 1 109.50000 418.400000
3939 12406 3940 1 109.50000 418.400000
3939 12406 3941 1 109.50000 418.400000
3939 12406 3942 1 109.50000 418.400000
3940 12406 3941 1 109.50000 418.400000
3940 12406 3942 1 109.50000 418.400000
3941 12406 3942 1 109.50000 418.400000
3279 12407 3943 1 109.50000 418.400000
3279 12407 3944 1 109.50000 418.400000
3279 12407 3945 1 109.50000 418.400000
3943 12407 3944 1 109.50000 418.400000
3943 12407 3945 1 109.50000 418.400000
3944 12407 3945 1 109.50000 418.400000
1423 12408 1957 1 109.50000 418.400000
1423 12408 3249 1 109.50000 418.400000
1423 12408 3946 1 109.50000 418.400000
1957 12408 3249 1 109.50000 418.400000
1957 12408 3946 1 109.50000 418.400000
3249 12408 3946 1 109.50000 418.400000
103 12409 3947 1 109.50000 418.400000
103 12409 3948 1 109.50000 418.400000
103 12409 3949 1 109.50000 418.400000
3947 12409 3948 1 109.50000 418.400000
3947 12409 3949 1 109.50000 418.400000
3948 12409 3949 1 109.50000 418.400000
3950 12410 3951 1 109.50000 418.400000
3950 12410 3952 1 109.50000 418.400000
3950 12410 3953 1 109.50000 418.400000
3951 12410 3952 1 109.50000 418.400000
3951 12410 3953 1 109.50000 418.400000
3952 12410 3953 1 109.50000 418.400000
3954 12411 3955 1 109.50000 418.400000
3954 12411 3957 1 109.50000 418.400000
3954 12411 7409 1 109.50000 418.400000
3955 12411 3957 1 109.50000 418.400000
3955 12411 7409 1 109.50000 418.400000
3957 12411 7409 1 109.50000 418.400000
2526 12412 3670 1 109.50000 418.400000
2526 12412 3958 1 109.50000 418.400000
2526 12412 3959 1 109.50000 418.400000
3670 12412 3958 1 109.50000 418.400000
3670 12412 3959 1 109.50000 418.400000
3958 12412 3959 1 109.50000 418.400000
882 12413 1547 1 109.50000 418.400000
882 12413 3960 1 109.50000 418.400000
882 12413 3961 1 109.50000 418.400000
1547 12413 3960 1 109.50000 418.400000
1547 12413 3961 1 109.50000 418.400000
3960 12413 3961 1 109.50000 418.400000
3962 12414 3963 1 109.50000 418.400000
3962 12414 3964 1 109.50000 418.400000
3962 12414 3965 1 109.50000 418.400000
3963 12414 3964 1 109.50000 418.400000
3963 12414 3965 1 109.50000 418.400000
3964 12414 3965 1 109.50000 418.400000
3966 12415 3967 1 109.50000 418.400000
3966 12415 3968 1 109.50000 418.400000
3966 12415 3969 1 109.50000 418.400000
3967 12415 3968 1 109.50000 418.400000
3967 12415 3969 1 109.50000 418.400000
3968 12415 3969 1 109.50000 418.400000
1568 12416 1569 1 109.50000 418.400000
1568 12416 3970 1 109.50000 418.400000
1568 12416 3971 1 109.50000 418.400000
1569 12416 3970 1 109.50000 418.400000
1569 12416 3971 1 109.50000 418.400000
3970 12416 3971 1 109.50000 418.400000
3973 12417 3974 1 109.50000 418.400000
3973 12417 3975 1 109.50000 418.400000
3973 12417 3976 1 109.50000 418.400000
3974 12417 3975 1 109.50000 418.400000
3974 12417 3976 1 109.50000 418.400000
3975 12417 3976 1 109.50000 418.400000
634 12418 3977 1 109.50000 418.400000
634 12418 3978 1 109.50000 418.400000
634 12418 9486 1 109.50000 418.400000
3977 12418 3978 1 109.50000 418.400000
3977 12418 9486 1 109.50000 418.400000
3978 12418 9486 1 109.50000 418.400000
1345 12419 3979 1 109.50000 418.400000
1345 12419 3980 1 109.50000 418.400000
1345 12419 3981 1 109.50000 418.400000
3979 12419 3980 1 109.50000 418.400000
3979 12419 3981 1 109.50000 418.400000
3980 12419 3981 1 109.50000 418.400000
3905 12420 3982 1 109.50000 418.400000
3905 12420 3983 1 109.50000 418.400000
3905 12420 3984 1 109.50000 418.400000
3982 12420 3983 1 109.50000 418.400000
3982 12420 3984 1 109.50000 418.400000
3983 12420 3984 1 109.50000 418.400000
3985 12421 3986 1 109.50000 418.400000
3985 12421 3987 1 109.50000 418.400000
3985 12421 3988 1 109.50000 418.400000
3986 12421 3987 1 109.50000 418.400000
3986 12421 3988 1 109.50000 418.400000
3987 12421 3988 1 109.50000 418.400000
3989 12422 3990 1 109.50000 418.400000
3989 12422 3991 1 109.50000 418.400000
3989 12422 3992 1 109.50000 418.400000
3990 12422 3991 1 109.50000 418.400000
3990 12422 3992 1 109.50000 418.400000
3991 12422 3992 1 109.50000 418.400000
3993 12423 3994 1 109.50000 418.400000
3993 12423 3995 1 109.50000 418.400000
3993 12423 3996 1 109.50000 418.400000
3994 12423 3995 1 109.50000 418.400000
3994 12423 3996 1 109.50000 418.400000
3995 12423 3996 1 109.50000 418.400000
2075 12424 3997 1 109.50000 418.400000
2075 12424 3998 1 109.50000 418.400000
2075 12424 3999 1 109.50000 418.400000
3997 12424 3998 1 109.50000 418.400000
3997 12424 3999 1 109.50000 418.400000
3998 12424 3999 1 109.50000 418.400000
1019 12425 4000 1 109.50000 418.400000
1019 12425 4001 1 109.50000 418.400000
1019 12425 4002 1 109.50000 418.400000
4000 12425 4001 1 109.50000 418.400000
4000 12425 4002 1 109.50000 418.400000
4001 12425 4002 1 109.50000 418.400000
577 12426 1841 1 109.50000 418.400000
577 12426 4003 1 109.50000 418.400000
577 12426 4004 1 109.50000 418.400000
1841 12426 4003 1 109.50000 418.400000
1841 12426 4004 1 109.50000 418.400000
4003 12426 4004 1 109.50000 418.400000
4005 12427 4006 1 109.50000 418.400000
4005 12427 4007 1 109.50000 418.400000
4005 12427 4008 1 109.50000 418.400000
4006 12427 4007 1 109.50000 418.400000
4006 12427 4008 1 109.50000 418.400000
4007 12427 4008 1 109.50000 418.400000
1273 12428 4009 1 109.50000 418.400000
1273 12428 4010 1 109.50000 418.400000
1273 12428 4011 1 109.50000 418.400000
4009 12428 4010 1 109.50000 418.400000
4009 12428 4011 1 109.50000 418.400000
4010 12428 4011 1 109.50000 418.400000
1773 12429 3971 1 109.50000 418.400000
1773 12429 4012 1 109.50000 418.400000
1773 12429 4013 1 109.50000 418.400000
3971 12429 4012 1 109.50000 418.400000
3971 12429 4013 1 109.50000 418.400000
4012 12429 4013 1 109.50000 418.400000
4014 12430 4015 1 109.50000 418.400000
4014 12430 4016 1 109.50000 418.400000
4014 12430 11205 1 109.50000 418.400000
4015 12430 4016 1 109.50000 418.400000
4015 12430 11205 1 109.50000 418.400000
4016 12430 11205 1 109.50000 418.400000
1689 12431 4017 1 109.50000 418.400000
1689 12431 4018 1 109.50000 418.400000
1689 12431 11223 1 109.50000 418.400000
4017 12431 4018 1 109.50000 418.400000
4017 12431 11223 1 109.50000 418.400000
4018 12431 11223 1 109.50000 418.400000
2531 12432 4019 1 109.50000 418.400000
2531 12432 4020 1 109.50000 418.400000
2531 12432 4021 1 109.50000 418.400000
4019 12432 4020 1 109.50000 418.400000
4019 12432 4021 1 109.50000 418.400000
4020 12432 4021 1 109.50000 418.400000
4023 12433 4024 1 109.50000 418.400000
4023 12433 4025 1 109.50000 418.400000
4023 12433 10492 1 109.50000 418.400000
4024 12433 4025 1 109.50000 418.400000
4024 12433 10492 1 109.50000 418.400000
4025 12433 10492 1 109.50000 418.400000
3308 12434 4026 1 109.50000 418.400000
3308 12434 6468 1 109.50000 418.400000
3308 12434 6470 1 109.50000 418.400000
4026 12434 6468 1 109.50000 418.400000
4026 12434 6470 1 109.50000 418.400000
6468 12434 6470 1 109.50000 418.400000
895 12435 897 1 109.50000 418.400000
895 12435 4031 1 109.50000 418.400000
895 12435 4032 1 109.50000 418.400000
897 12435 4031 1 109.50000 418.400000
897 12435 4032 1 109.50000 418.400000
4031 12435 4032 1 109.50000 418.400000
4035 12436 4037 1 109.50000 418.400000
4035 12436 4038 1 109.50000 418.400000
4035 12436 9062 1 109.50000 418.400000
4037 12436 4038 1 109.50000 418.400000
4037 12436 9062 1 109.50000 418.400000
4038 12436 9062 1 109.50000 418.400000
10 12437 507 1 109.50000 418.400000
10 12437 4039 1 109.50000 418.400000
10 12437 4040 1 109.50000 418.400000
507 12437 4039 1 109.50000 418.400000
507 12437 4040 1 109.50000 418.400000
4039 12437 4040 1 109.50000 418.400000
1708 12438 4043 1 109.50000 418.400000
1708 12438 4044 1 109.50000 418.400000
1708 12438 4045 1 109.50000 418.400000
4043 12438 4044 1 109.50000 418.400000
4043 12438 4045 1 109.50000 418.400000
4044 12438 4045 1 109.50000 418.400000
3026 12439 4046 1 109.50000 418.400000
3026 12439 4047 1 109.50000 418.400000
3026 12439 4048 1 109.50000 418.400000
4046 12439 4047 1 109.50000 418.400000
4046 12439 4048 1 109.50000 418.400000
4047 12439 4048 1 109.50000 418.400000
4049 12440 4050 1 109.50000 418.400000
4049 12440 4051 1 109.50000 418.400000
4049 12440 4052 1 109.50000 418.400000
4050 12440 4051 1 109.50000 418.400000
4050 12440 4052 1 109.50000 418.400000
4051 12440 4052 1 109.50000 418.400000
62 12441 4053 1 109.50000 418.400000
62 12441 4054 1 109.50000 418.400000
62 12441 4055 1 109.50000 418.400000
4053 12441 4054 1 109.50000 418.400000
4053 12441 4055 1 109.50000 418.400000
4054 12441 4055 1 109.50000 418.400000
2032 12442 4056 1 109.50000 418.400000
2032 12442 4057 1 109.50000 418.400000
2032 12442 4058 1 109.50000 418.400000
4056 12442 4057 1 109.50000 418.400000
4056 12442 4058 1 109.50000 418.400000
4057 12442 4058 1 109.50000 418.400000
78 12443 4059 1 109.50000 418.400000
78 12443 4060 1 109.50000 418.400000
78 12443 4061 1 109.50000 418.400000
4059 12443 4060 1 109.50000 418.400000
4059 12443 4061 1 109.50000 418.400000
4060 12443 4061 1 109.50000 418.400000
4062 12444 4063 1 109.50000 418.400000
4062 12444 4064 1 109.50000 418.400000
4062 12444 4065 1 109.50000 418.400000
4063 12444 4064 1 109.50000 418.400000
4063 12444 4065 1 109.50000 418.400000
4064 12444 4065 1 109.50000 418.400000
3193 12445 4066 1 109.50000 418.400000
3193 12445 4068 1 109.50000 418.400000
3193 12445 5893 1 109.50000 418.400000
4066 12445 4068 1 109.50000 418.400000
4066 12445 5893 1 109.50000 418.400000
4068 12445 5893 1 109.50000 418.400000
2941 12446 2943 1 109.50000 418.400000
2941 12446 3652 1 109.50000 418.400000
2941 12446 4069 1 109.50000 418.400000
2943 12446 3652 1 109.50000 418.400000
2943 12446 4069 1 109.50000 418.400000
3652 12446 4069 1 109.50000 418.400000
4070 12447 4071 1 109.50000 418.400000
4070 12447 4072 1 109.50000 418.400000
4070 12447 4073 1 109.50000 418.400000
4071 12447 4072 1 109.50000 418.400000
4071 12447 4073 1 109.50000 418.400000
4072 12447 4073 1 109.50000 418.400000
2715 12448 4074 1 109.50000 418.400000
2715 12448 4075 1 109.50000 418.400000
2715 12448 4076 1 109.50000 418.400000
4074 12448 4075 1 109.50000 418.400000
4074 12448 4076 1 109.50000 418.400000
4075 12448 4076 1 109.50000 418.400000
4077 12449 4078 1 109.50000 418.400000
4077 12449 4079 1 109.50000 418.400000
4077 12449 4080 1 109.50000 418.400000
4078 12449 4079 1 109.50000 418.400000
4078 12449 4080 1 109.50000 418.400000
4079 12449 4080 1 109.50000 418.400000
1696 12450 1697 1 109.50000 418.400000
1696 12450 4082 1 109.50000 418.400000
1696 12450 4083 1 109.50000 418.400000
1697 12450 4082 1 109.50000 418.400000
1697 12450 4083 1 109.50000 418.400000
4082 12450 4083 1 109.50000 418.400000
2233 12451 2342 1 109.50000 418.400000
2233 12451 4084 1 109.50000 418.400000
2233 12451 4085 1 109.50000 418.400000
2342 12451 4084 1 109.50000 418.400000
2342 12451 4085 1 109.50000 418.400000
4084 12451 4085 1 109.50000 418.400000
1331 12452 4086 1 109.50000 418.400000
1331 12452 4087 1 109.50000 418.400000
1331 12452 4088 1 109.50000 418.400000
4086 12452 4087 1 109.50000 418.400000
4086 12452 4088 1 109.50000 418.400000
4087 12452 4088 1 109.50000 418.400000
3360 12453 4089 1 109.50000 418.400000
3360 12453 4090 1 109.50000 418.400000
3360 12453 4091 1 109.50000 418.400000
4089 12453 4090 1 109.50000 418.400000
4089 12453 4091 1 109.50000 418.400000
4090 12453 4091 1 109.50000 418.400000
4092 12454 4093 1 109.50000 418.400000
4092 12454 4094 1 109.50000 418.400000
4092 12454 4095 1 109.50000 418.400000
4093 12454 4094 1 109.50000 418.400000
4093 12454 4095 1 109.50000 418.400000
4094 12454 4095 1 109.50000 418.400000
4096 12455 4097 1 109.50000 418.400000
4096 12455 4098 1 109.50000 418.400000
4096 12455 4099 1 109.50000 418.400000
4097 12455 4098 1 109.50000 418.400000
4097 12455 4099 1 109.50000 418.400000
4098 12455 4099 1 109.50000 418.400000
409 12456 1379 1 109.50000 418.400000
409 12456 4100 1 109.50000 418.400000
409 12456 6959 1 109.50000 418.400000
1379 12456 4100 1 109.50000 418.400000
1379 12456 6959 1 109.50000 418.400000
4100 12456 6959 1 109.50000 418.400000
4044 12457 4104 1 109.50000 418.400000
4044 12457 4105 1 109.50000 418.400000
4044 12457 4106 1 109.50000 418.400000
4104 12457 4105 1 109.50000 418.400000
4104 12457 4106 1 109.50000 418.400000
4105 12457 4106 1 109.50000 418.400000
4108 12458 4109 1 109.50000 418.400000
4108 12458 4110 1 109.50000 418.400000
4108 12458 11209 1 109.50000 418.400000
4109 12458 4110 1 109.50000 418.400000
4109 12458 11209 1 109.50000 418.400000
4110 12458 11209 1 109.50000 418.400000
1252 12459 1278 1 109.50000 418.400000
1252 12459 4112 1 109.50000 418.400000
1252 12459 4113 1 109.50000 418.400000
1278 12459 4112 1 109.50000 418.400000
1278 12459 4113 1 109.50000 418.400000
4112 12459 4113 1 109.50000 418.400000
4114 12460 4115 1 109.50000 418.400000
4114 12460 4116 1 109.50000 418.400000
4114 12460 4117 1 109.50000 418.400000
4115 12460 4116 1 109.50000 418.400000
4115 12460 4117 1 109.50000 418.400000
4116 12460 4117 1 109.50000 418.400000
1469 12461 1471 1 109.50000 418.400000
1469 12461 4118 1 109.50000 418.400000
1469 12461 4119 1 109.50000 418.400000
1471 12461 4118 1 109.50000 418.400000
1471 12461 4119 1 109.50000 418.400000
4118 12461 4119 1 109.50000 418.400000
4120 12462 4121 1 109.50000 418.400000
4120 12462 4122 1 109.50000 418.400000
4120 12462 4123 1 109.50000 418.400000
4121 12462 4122 1 109.50000 418.400000
4121 12462 4123 1 109.50000 418.400000
4122 12462 4123 1 109.50000 418.400000
4124 12463 4125 1 109.50000 418.400000
4124 12463 4126 1 109.50000 418.400000
4124 12463 4127 1 109.50000 418.400000
4125 12463 4126 1 109.50000 418.400000
4125 12463 4127 1 109.50000 418.400000
4126 12463 4127 1 109.50000 418.400000
1086 12464 1586 1 109.50000 418.400000
1086 12464 4128 1 109.50000 418.400000
1086 12464 4129 1 109.50000 418.400000
1586 12464 4128 1 109.50000 418.400000
1586 12464 4129 1 109.50000 418.400000
4128 12464 4129 1 109.50000 418.400000
1214 12465 2757 1 109.50000 418.400000
1214 12465 4130 1 109.50000 418.400000
1214 12465 4131 1 109.50000 418.400000
2757 12465 4130 1 109.50000 418.400000
2757 12465 4131 1 109.50000 418.400000
4130 12465 4131 1 109.50000 418.400000
1809 12466 4132 1 109.50000 418.400000
1809 12466 4133 1 109.50000 418.400000
1809 12466 4134 1 109.50000 418.400000
4132 12466 4133 1 109.50000 418.400000
4132 12466 4134 1 109.50000 418.400000
4133 12466 4134 1 109.50000 418.400000
3168 12467 4135 1 109.50000 418.400000
3168 12467 4136 1 109.50000 418.400000
3168 12467 4137 1 109.50000 418.400000
4135 12467 4136 1 109.50000 418.400000
4135 12467 4137 1 109.50000 418.400000
4136 12467 4137 1 109.50000 418.400000
196 12468 4138 1 109.50000 418.400000
196 12468 4139 1 109.50000 418.400000
196 12468 4140 1 109.50000 418.400000
4138 12468 4139 1 109.50000 418.400000
4138 12468 4140 1 109.50000 418.400000
4139 12468 4140 1 109.50000 418.400000
4141 12469 4142 1 109.50000 418.400000
4141 12469 4143 1 109.50000 418.400000
4141 12469 4144 1 109.50000 418.400000
4142 12469 4143 1 109.50000 418.400000
4142 12469 4144 1 109.50000 418.400000
4143 12469 4144 1 109.50000 418.400000
4145 12470 4146 1 109.50000 418.400000
4145 12470 4147 1 109.50000 418.400000
4145 12470 4148 1 109.50000 418.400000
4146 12470 4147 1 109.50000 418.400000
4146 12470 4148 1 109.50000 418.400000
4147 12470 4148 1 109.50000 418.400000
2453 12471 3542 1 109.50000 418.400000
2453 12471 4149 1 109.50000 418.400000
2453 12471 4150 1 109.50000 418.400000
3542 12471 4149 1 109.50000 418.400000
3542 12471 4150 1 109.50000 418.400000
4149 12471 4150 1 109.50000 418.400000
781 12472 4151 1 109.50000 418.400000
781 12472 4152 1 109.50000 418.400000
781 12472 4153 1 109.50000 418.400000
4151 12472 4152 1 109.50000 418.400000
4151 12472 4153 1 109.50000 418.400000
4152 12472 4153 1 109.50000 418.400000
4154 12473 4155 1 109.50000 418.400000
4154 12473 4156 1 109.50000 418.400000
4154 12473 4157 1 109.50000 418.400000
4155 12473 4156 1 109.50000 418.400000
4155 12473 4157 1 109.50000 418.400000
4156 12473 4157 1 109.50000 418.400000
1882 12474 3232 1 109.50000 418.400000
1882 12474 4158 1 109.50000 418.400000
1882 12474 4159 1 109.50000 418.400000
3232 12474 4158 1 109.50000 418.400000
3232 12474 4159 1 109.50000 418.400000
4158 12474 4159 1 109.50000 418.400000
2309 12475 4160 1 109.50000 418.400000
2309 12475 4161 1 109.50000 418.400000
2309 12475 4162 1 109.50000 418.400000
4160 12475 4161 1 109.50000 418.400000
4160 12475 4162 1 109.50000 418.400000
4161 12475 4162 1 109.50000 418.400000
4163 12476 4164 1 109.50000 418.400000
4163 12476 4165 1 109.50000 418.400000
4163 12476 4166 1 109.50000 418.400000
4164 12476 4165 1 109.50000 418.400000
4164 12476 4166 1 109.50000 418.400000
4165 12476 4166 1 109.50000 418.400000
480 12477 3500 1 109.50000 418.400000
480 12477 4167 1 109.50000 418.400000
480 12477 11160 1 109.50000 418.400000
3500 12477 4167 1 109.50000 418.400000
3500 12477 11160 1 109.50000 418.400000
4167 12477 11160 1 109.50000 418.400000
547 12478 4169 1 109.50000 418.400000
547 12478 4170 1 109.50000 418.400000
547 12478 4171 1 109.50000 418.400000
4169 12478 4170 1 109.50000 418.400000
4169 12478 4171 1 109.50000 418.400000
4170 12478 4171 1 109.50000 418.400000
4173 12479 4174 1 109.50000 418.400000
4173 12479 4175 1 109.50000 418.400000
4173 12479 9352 1 109.50000 418.400000
4174 12479 4175 1 109.50000 418.400000
4174 12479 9352 1 109.50000 418.400000
4175 12479 9352 1 109.50000 418.400000
2241 12480 4176 1 109.50000 418.400000
2241 12480 4177 1 109.50000 418.400000
2241 12480 4178 1 109.50000 418.400000
4176 12480 4177 1 109.50000 418.400000
4176 12480 4178 1 109.50000 418.400000
4177 12480 4178 1 109.50000 418.400000
4179 12481 4180 1 109.50000 418.400000
4179 12481 4181 1 109.50000 418.400000
4179 12481 4625 1 109.50000 418.400000
4180 12481 4181 1 109.50000 418.400000
4180 12481 4625 1 109.50000 418.400000
4181 12481 4625 1 109.50000 418.400000
2590 12482 3284 1 109.50000 418.400000
2590 12482 4182 1 109.50000 418.400000
2590 12482 4183 1 109.50000 418.400000
3284 12482 4182 1 109.50000 418.400000
3284 12482 4183 1 109.50000 418.400000
4182 12482 4183 1 109.50000 418.400000
204 12483 2463 1 109.50000 418.400000
204 12483 4184 1 109.50000 418.400000
204 12483 4185 1 109.50000 418.400000
2463 12483 4184 1 109.50000 418.400000
2463 12483 4185 1 109.50000 418.400000
4184 12483 4185 1 109.50000 418.400000
4175 12484 4186 1 109.50000 418.400000
4175 12484 4187 1 109.50000 418.400000
4175 12484 4188 1 109.50000 418.400000
4186 12484 4187 1 109.50000 418.400000
4186 12484 4188 1 109.50000 418.400000
4187 12484 4188 1 109.50000 418.400000
3234 12485 3364 1 109.50000 418.400000
3234 12485 4189 1 109.50000 418.400000
3234 12485 4190 1 109.50000 418.400000
3364 12485 4189 1 109.50000 418.400000
3364 12485 4190 1 109.50000 418.400000
4189 12485 4190 1 109.50000 418.400000
3599 12486 4191 1 109.50000 418.400000
3599 12486 4192 1 109.50000 418.400000
3599 12486 4193 1 109.50000 418.400000
4191 12486 4192 1 109.50000 418.400000
4191 12486 4193 1 109.50000 418.400000
4192 12486 4193 1 109.50000 418.400000
4065 12487 4194 1 109.50000 418.400000
4065 12487 4195 1 109.50000 418.400000
4065 12487 4196 1 109.50000 418.400000
4194 12487 4195 1 109.50000 418.400000
4194 12487 4196 1 109.50000 418.400000
4195 12487 4196 1 109.50000 418.400000
4197 12488 4198 1 109.50000 418.400000
4197 12488 4199 1 109.50000 418.400000
4197 12488 4200 1 109.50000 418.400000
4198 12488 4199 1 109.50000 418.400000
4198 12488 4200 1 109.50000 418.400000
4199 12488 4200 1 109.50000 418.400000
4201 12489 4202 1 109.50000 418.400000
4201 12489 4203 1 109.50000 418.400000
4201 12489 4204 1 109.50000 418.400000
4202 12489 4203 1 109.50000 418.400000
4202 12489 4204 1 109.50000 418.400000
4203 12489 4204 1 109.50000 418.400000
1223 12490 4205 1 109.50000 418.400000
1223 12490 4206 1 109.50000 418.400000
1223 12490 4207 1 109.50000 418.400000
4205 12490 4206 1 109.50000 418.400000
4205 12490 4207 1 109.50000 418.400000
4206 12490 4207 1 109.50000 418.400000
4210 12491 4211 1 109.50000 418.400000
4210 12491 4212 1 109.50000 418.400000
4210 12491 6234 1 109.50000 418.400000
4211 12491 4212 1 109.50000 418.400000
4211 12491 6234 1 109.50000 418.400000
4212 12491 6234 1 109.50000 418.400000
4213 12492 4214 1 109.50000 418.400000
4213 12492 4215 1 109.50000 418.400000
4213 12492 4216 1 109.50000 418.400000
4214 12492 4215 1 109.50000 418.400000
4214 12492 4216 1 109.50000 418.400000
4215 12492 4216 1 109.50000 418.400000
4217 12493 4218 1 109.50000 418.400000
4217 12493 4219 1 109.50000 418.400000
4217 12493 4220 1 109.50000 418.400000
4218 12493 4219 1 109.50000 418.400000
4218 12493 4220 1 109.50000 418.400000
4219 12493 4220 1 109.50000 418.400000
4221 12494 4222 1 109.50000 418.400000
4221 12494 4223 1 109.50000 418.400000
4221 12494 4224 1 109.50000 418.400000
4222 12494 4223 1 109.50000 418.400000
4222 12494 4224 1 109.50000 418.400000
4223 12494 4224 1 109.50000 418.400000
4225 12495 4226 1 109.50000 418.400000
4225 12495 4227 1 109.50000 418.400000
4225 12495 4228 1 109.50000 418.400000
4226 12495 4227 1 109.50000 418.400000
4226 12495 4228 1 109.50000 418.400000
4227 12495 4228 1 109.50000 418.400000
4229 12496 4230 1 109.50000 418.400000
4229 12496 4231 1 109.50000 418.400000
4229 12496 7658 1 109.50000 418.400000
4230 12496 4231 1 109.50000 418.400000
4230 12496 7658 1 109.50000 418.400000
4231 12496 7658 1 109.50000 418.400000
4232 12497 4233 1 109.50000 418.400000
4232 12497 4234 1 109.50000 418.400000
4232 12497 4235 1 109.50000 418.400000
4233 12497 4234 1 109.50000 418.400000
4233 12497 4235 1 109.50000 418.400000
4234 12497 4235 1 109.50000 418.400000
4237 12498 4238 1 109.50000 418.400000
4237 12498 4239 1 109.50000 418.400000
4237 12498 4240 1 109.50000 418.400000
4238 12498 4239 1 109.50000 418.400000
4238 12498 4240 1 109.50000 418.400000
4239 12498 4240 1 109.50000 418.400000
4241 12499 4242 1 109.50000 418.400000
4241 12499 4243 1 109.50000 418.400000
4241 12499 11282 1 109.50000 418.400000
4242 12499 4243 1 109.50000 418.400000
4242 12499 11282 1 109.50000 418.400000
4243 12499 11282 1 109.50000 418.400000
4244 12500 4245 1 109.50000 418.400000
4244 12500 4246 1 109.50000 418.400000
4244 12500 4247 1 109.50000 418.400000
4245 12500 4246 1 109.50000 418.400000
4245 12500 4247 1 109.50000 418.400000
4246 12500 4247 1 109.50000 418.400000
4248 12501 4249 1 109.50000 418.400000
4248 12501 4250 1 109.50000 418.400000
4248 12501 4251 1 109.50000 418.400000
4249 12501 4250 1 109.50000 418.400000
4249 12501 4251 1 109.50000 418.400000
4250 12501 4251 1 109.50000 418.400000
704 12502 4252 1 109.50000 418.400000
704 12502 4253 1 109.50000 418.400000
704 12502 4254 1 109.50000 418.400000
4252 12502 4253 1 109.50000 418.400000
4252 12502 4254 1 109.50000 418.400000
4253 12502 4254 1 109.50000 418.400000
4255 12503 4256 1 109.50000 418.400000
4255 12503 4257 1 109.50000 418.400000
4255 12503 4258 1 109.50000 418.400000
4256 12503 4257 1 109.50000 418.400000
4256 12503 4258 1 109.50000 418.400000
4257 12503 4258 1 109.50000 418.400000
1848 12504 4259 1 109.50000 418.400000
1848 12504 4260 1 109.50000 418.400000
1848 12504 4261 1 109.50000 418.400000
4259 12504 4260 1 109.50000 418.400000
4259 12504 4261 1 109.50000 418.400000
4260 12504 4261 1 109.50000 418.400000
4262 12505 4263 1 109.50000 418.400000
4262 12505 4264 1 109.50000 418.400000
4262 12505 4265 1 109.50000 418.400000
4263 12505 4264 1 109.50000 418.400000
4263 12505 4265 1 109.50000 418.400000
4264 12505 4265 1 109.50000 418.400000
4266 12506 4267 1 109.50000 418.400000
4266 12506 4268 1 109.50000 418.400000
4266 12506 4269 1 109.50000 418.400000
4267 12506 4268 1 109.50000 418.400000
4267 12506 4269 1 109.50000 418.400000
4268 12506 4269 1 109.50000 418.400000
3108 12507 3893 1 109.50000 418.400000
3108 12507 4270 1 109.50000 418.400000
3108 12507 4271 1 109.50000 418.400000
3893 12507 4270 1 109.50000 418.400000
3893 12507 4271 1 109.50000 418.400000
4270 12507 4271 1 109.50000 418.400000
4272 12508 4273 1 109.50000 418.400000
4272 12508 4274 1 109.50000 418.400000
4272 12508 4275 1 109.50000 418.400000
4273 12508 4274 1 109.50000 418.400000
4273 12508 4275 1 109.50000 418.400000
4274 12508 4275 1 109.50000 418.400000
1460 12509 3687 1 109.50000 418.400000
1460 12509 4276 1 109.50000 418.400000
1460 12509 4277 1 109.50000 418.400000
3687 12509 4276 1 109.50000 418.400000
3687 12509 4277 1 109.50000 418.400000
4276 12509 4277 1 109.50000 418.400000
4278 12510 4279 1 109.50000 418.400000
4278 12510 4280 1 109.50000 418.400000
4278 12510 4281 1 109.50000 418.400000
4279 12510 4280 1 109.50000 418.400000
4279 12510 4281 1 109.50000 418.400000
4280 12510 4281 1 109.50000 418.400000
363 12511 1544 1 109.50000 418.400000
363 12511 4282 1 109.50000 418.400000
363 12511 4283 1 109.50000 418.400000
1544 12511 4282 1 109.50000 418.400000
1544 12511 4283 1 109.50000 418.400000
4282 12511 4283 1 109.50000 418.400000
3396 12512 4284 1 109.50000 418.400000
3396 12512 4286 1 109.50000 418.400000
3396 12512 10038 1 109.50000 418.400000
4284 12512 4286 1 109.50000 418.400000
4284 12512 10038 1 109.50000 418.400000
4286 12512 10038 1 109.50000 418.400000
4272 12513 4287 1 109.50000 418.400000
4272 12513 4288 1 109.50000 418.400000
4272 12513 4289 1 109.50000 418.400000
4287 12513 4288 1 109.50000 418.400000
4287 12513 4289 1 109.50000 418.400000
4288 12513 4289 1 109.50000 418.400000
4290 12514 4291 1 109.50000 418.400000
4290 12514 4292 1 109.50000 418.400000
4290 12514 4293 1 109.50000 418.400000
4291 12514 4292 1 109.50000 418.400000
4291 12514 4293 1 109.50000 418.400000
4292 12514 4293 1 109.50000 418.400000
658 12515 660 1 109.50000 418.400000
658 12515 4294 1 109.50000 418.400000
658 12515 4296 1 109.50000 418.400000
660 12515 4294 1 109.50000 418.400000
660 12515 4296 1 109.50000 418.400000
4294 12515 4296 1 109.50000 418.400000
3164 12516 4299 1 109.50000 418.400000
3164 12516 4300 1 109.50000 418.400000
3164 12516 4301 1 109.50000 418.400000
4299 12516 4300 1 109.50000 418.400000
4299 12516 4301 1 109.50000 418.400000
4300 12516 4301 1 109.50000 418.400000
559 12517 4302 1 109.50000 418.400000
559 12517 4304 1 109.50000 418.400000
559 12517 4560 1 109.50000 418.400000
4302 12517 4304 1 109.50000 418.400000
4302 12517 4560 1 109.50000 418.400000
4304 12517 4560 1 109.50000 418.400000
4305 12518 4306 1 109.50000 418.400000
4305 12518 4307 1 109.50000 418.400000
4305 12518 4308 1 109.50000 418.400000
4306 12518 4307 1 109.50000 418.400000
4306 12518 4308 1 109.50000 418.400000
4307 12518 4308 1 109.50000 418.400000
2836 12519 4309 1 109.50000 418.400000
2836 12519 4310 1 109.50000 418.400000
2836 12519 4311 1 109.50000 418.400000
4309 12519 4310 1 109.50000 418.400000
4309 12519 4311 1 109.50000 418.400000
4310 12519 4311 1 109.50000 418.400000
17 12520 4137 1 109.50000 418.400000
17 12520 4312 1 109.50000 418.400000
17 12520 4313 1 109.50000 418.400000
4137 12520 4312 1 109.50000 418.400000
4137 12520 4313 1 109.50000 418.400000
4312 12520 4313 1 109.50000 418.400000
740 12521 4314 1 109.50000 418.400000
740 12521 4315 1 109.50000 418.400000
740 12521 4316 1 109.50000 418.400000
4314 12521 4315 1 109.50000 418.400000
4314 12521 4316 1 109.50000 418.400000
4315 12521 4316 1 109.50000 418.400000
4317 12522 4318 1 109.50000 418.400000
4317 12522 4319 1 109.50000 418.400000
4317 12522 7759 1 109.50000 418.400000
4318 12522 4319 1 109.50000 418.400000
4318 12522 7759 1 109.50000 418.400000
4319 12522 7759 1 109.50000 418.400000
4321 12523 4322 1 109.50000 418.400000
4321 12523 4323 1 109.50000 418.400000
4321 12523 4324 1 109.50000 418.400000
4322 12523 4323 1 109.50000 418.400000
4322 12523 4324 1 109.50000 418.400000
4323 12523 4324 1 109.50000 418.400000
4327 12524 4328 1 109.50000 418.400000
4327 12524 4329 1 109.50000 418.400000
4327 12524 4330 1 109.50000 418.400000
4328 12524 4329 1 109.50000 418.400000
4328 12524 4330 1 109.50000 418.400000
4329 12524 4330 1 109.50000 418.400000
4331 12525 4332 1 109.50000 418.400000
4331 12525 4333 1 109.50000 418.400000
4331 12525 4334 1 109.50000 418.400000
4332 12525 4333 1 109.50000 418.400000
4332 12525 4334 1 109.50000 418.400000
4333 12525 4334 1 109.50000 418.400000
3556 12526 4335 1 109.50000 418.400000
3556 12526 4336 1 109.50000 418.400000
3556 12526 4337 1 109.50000 418.400000
4335 12526 4336 1 109.50000 418.400000
4335 12526 4337 1 109.50000 418.400000
4336 12526 4337 1 109.50000 418.400000
4341 12527 4342 1 109.50000 418.400000
4341 12527 4343 1 109.50000 418.400000
4341 12527 4344 1 109.50000 418.400000
4342 12527 4343 1 109.50000 418.400000
4342 12527 4344 1 109.50000 418.400000
4343 12527 4344 1 109.50000 418.400000
4345 12528 4346 1 109.50000 418.400000
4345 12528 4347 1 109.50000 418.400000
4345 12528 4348 1 109.50000 418.400000
4346 12528 4347 1 109.50000 418.400000
4346 12528 4348 1 109.50000 418.400000
4347 12528 4348 1 109.50000 418.400000
4349 12529 4350 1 109.50000 418.400000
4349 12529 4351 1 109.50000 418.400000
4349 12529 4352 1 109.50000 418.400000
4350 12529 4351 1 109.50000 418.400000
4350 12529 4352 1 109.50000 418.400000
4351 12529 4352 1 109.50000 418.400000
4353 12530 4354 1 109.50000 418.400000
4353 12530 4355 1 109.50000 418.400000
4353 12530 4356 1 109.50000 418.400000
4354 12530 4355 1 109.50000 418.400000
4354 12530 4356 1 109.50000 418.400000
4355 12530 4356 1 109.50000 418.400000
4357 12531 4358 1 109.50000 418.400000
4357 12531 4359 1 109.50000 418.400000
4357 12531 4360 1 109.50000 418.400000
4358 12531 4359 1 109.50000 418.400000
4358 12531 4360 1 109.50000 418.400000
4359 12531 4360 1 109.50000 418.400000
4361 12532 4362 1 109.50000 418.400000
4361 12532 4363 1 109.50000 418.400000
4361 12532 4364 1 109.50000 418.400000
4362 12532 4363 1 109.50000 418.400000
4362 12532 4364 1 109.50000 418.400000
4363 12532 4364 1 109.50000 418.400000
4365 12533 4366 1 109.50000 418.400000
4365 12533 4367 1 109.50000 418.400000
4365 12533 4368 1 109.50000 418.400000
4366 12533 4367 1 109.50000 418.400000
4366 12533 4368 1 109.50000 418.400000
4367 12533 4368 1 109.50000 418.400000
757 12534 4369 1 109.50000 418.400000
757 12534 4370 1 109.50000 418.400000
757 12534 4371 1 109.50000 418.400000
4369 12534 4370 1 109.50000 418.400000
4369 12534 4371 1 109.50000 418.400000
4370 12534 4371 1 109.50000 418.400000
114 12535 4143 1 109.50000 418.400000
114 12535 4372 1 109.50000 418.400000
114 12535 4373 1 109.50000 418.400000
4143 12535 4372 1 109.50000 418.400000
4143 12535 4373 1 109.50000 418.400000
4372 12535 4373 1 109.50000 418.400000
2490 12536 2492 1 109.50000 418.400000
2490 12536 4374 1 109.50000 418.400000
2490 12536 11328 1 109.50000 418.400000
2492 12536 4374 1 109.50000 418.400000
2492 12536 11328 1 109.50000 418.400000
4374 12536 11328 1 109.50000 418.400000
3088 12537 3574 1 109.50000 418.400000
3088 12537 4375 1 109.50000 418.400000
3088 12537 4376 1 109.50000 418.400000
3574 12537 4375 1 109.50000 418.400000
3574 12537 4376 1 109.50000 418.400000
4375 12537 4376 1 109.50000 418.400000
675 12538 4377 1 109.50000 418.400000
675 12538 4378 1 109.50000 418.400000
675 12538 4379 1 109.50000 418.400000
4377 12538 4378 1 109.50000 418.400000
4377 12538 4379 1 109.50000 418.400000
4378 12538 4379 1 109.50000 418.400000
999 12539 3664 1 109.50000 418.400000
999 12539 4380 1 109.50000 418.400000
999 12539 4381 1 109.50000 418.400000
3664 12539 4380 1 109.50000 418.400000
3664 12539 4381 1 109.50000 418.400000
4380 12539 4381 1 109.50000 418.400000
4089 12540 4382 1 109.50000 418.400000
4089 12540 4383 1 109.50000 418.400000
4089 12540 4384 1 109.50000 418.400000
4382 12540 4383 1 109.50000 418.400000
4382 12540 4384 1 109.50000 418.400000
4383 12540 4384 1 109.50000 418.400000
4385 12541 4386 1 109.50000 418.400000
4385 12541 4387 1 109.50000 418.400000
4385 12541 4388 1 109.50000 418.400000
4386 12541 4387 1 109.50000 418.400000
4386 12541 4388 1 109.50000 418.400000
4387 12541 4388 1 109.50000 418.400000
664 12542 2529 1 109.50000 418.400000
664 12542 4389 1 109.50000 418.400000
664 12542 4390 1 109.50000 418.400000
2529 12542 4389 1 109.50000 418.400000
2529 12542 4390 1 109.50000 418.400000
4389 12542 4390 1 109.50000 418.400000
1338 12543 4391 1 109.50000 418.400000
1338 12543 4393 1 109.50000 418.400000
1338 12543 9172 1 109.50000 418.400000
4391 12543 4393 1 109.50000 418.400000
4391 12543 9172 1 109.50000 418.400000
4393 12543 9172 1 109.50000 418.400000
4394 12544 4395 1 109.50000 418.400000
4394 12544 4396 1 109.50000 418.400000
4394 12544 4397 1 109.50000 418.400000
4395 12544 4396 1 109.50000 418.400000
4395 12544 4397 1 109.50000 418.400000
4396 12544 4397 1 109.50000 418.400000
4398 12545 4399 1 109.50000 418.400000
4398 12545 4400 1 109.50000 418.400000
4398 12545 11348 1 109.50000 418.400000
4399 12545 4400 1 109.50000 418.400000
4399 12545 11348 1 109.50000 418.400000
4400 12545 11348 1 109.50000 418.400000
2778 12546 4401 1 109.50000 418.400000
2778 12546 4402 1 109.50000 418.400000
2778 12546 4403 1 109.50000 418.400000
4401 12546 4402 1 109.50000 418.400000
4401 12546 4403 1 109.50000 418.400000
4402 12546 4403 1 109.50000 418.400000
4245 12547 4404 1 109.50000 418.400000
4245 12547 4405 1 109.50000 418.400000
4245 12547 4406 1 109.50000 418.400000
4404 12547 4405 1 109.50000 418.400000
4404 12547 4406 1 109.50000 418.400000
4405 12547 4406 1 109.50000 418.400000
571 12548 4407 1 109.50000 418.400000
571 12548 4408 1 109.50000 418.400000
571 12548 4409 1 109.50000 418.400000
4407 12548 4408 1 109.50000 418.400000
4407 12548 4409 1 109.50000 418.400000
4408 12548 4409 1 109.50000 418.400000
1203 12549 4410 1 109.50000 418.400000
1203 12549 4411 1 109.50000 418.400000
1203 12549 4412 1 109.50000 418.400000
4410 12549 4411 1 109.50000 418.400000
4410 12549 4412 1 109.50000 418.400000
4411 12549 4412 1 109.50000 418.400000
4413 12550 4414 1 109.50000 418.400000
4413 12550 4415 1 109.50000 418.400000
4413 12550 4416 1 109.50000 418.400000
4414 12550 4415 1 109.50000 418.400000
4414 12550 4416 1 109.50000 418.400000
4415 12550 4416 1 109.50000 418.400000
3407 12551 3408 1 109.50000 418.400000
3407 12551 4417 1 109.50000 418.400000
3407 12551 4418 1 109.50000 418.400000
3408 12551 4417 1 109.50000 418.400000
3408 12551 4418 1 109.50000 418.400000
4417 12551 4418 1 109.50000 418.400000
3798 12552 4420 1 109.50000 418.400000
3798 12552 4421 1 109.50000 418.400000
3798 12552 4422 1 109.50000 418.400000
4420 12552 4421 1 109.50000 418.400000
4420 12552 4422 1 109.50000 418.400000
4421 12552 4422 1 109.50000 418.400000
2375 12553 4309 1 109.50000 418.400000
2375 12553 4423 1 109.50000 418.400000
2375 12553 4424 1 109.50000 418.400000
4309 12553 4423 1 109.50000 418.400000
4309 12553 4424 1 109.50000 418.400000
4423 12553 4424 1 109.50000 418.400000
1861 12554 4425 1 109.50000 418.400000
1861 12554 4426 1 109.50000 418.400000
1861 12554 4427 1 109.50000 418.400000
4425 12554 4426 1 109.50000 418.400000
4425 12554 4427 1 109.50000 418.400000
4426 12554 4427 1 109.50000 418.400000
4428 12555 4429 1 109.50000 418.400000
4428 12555 4430 1 109.50000 418.400000
4428 12555 4431 1 109.50000 418.400000
4429 12555 4430 1 109.50000 418.400000
4429 12555 4431 1 109.50000 418.400000
4430 12555 4431 1 109.50000 418.400000
4436 12556 4437 1 109.50000 418.400000
4436 12556 4438 1 109.50000 418.400000
4436 12556 4439 1 109.50000 418.400000
4437 12556 4438 1 109.50000 418.400000
4437 12556 4439 1 109.50000 418.400000
4438 12556 4439 1 109.50000 418.400000
1833 12557 3721 1 109.50000 418.400000
1833 12557 4440 1 109.50000 418.400000
1833 12557 4441 1 109.50000 418.400000
3721 12557 4440 1 109.50000 418.400000
3721 12557 4441 1 109.50000 418.400000
4440 12557 4441 1 109.50000 418.400000
4442 12558 4443 1 109.50000 418.400000
4442 12558 4444 1 109.50000 418.400000
4442 12558 4445 1 109.50000 418.400000
4443 12558 4444 1 109.50000 418.400000
4443 12558 4445 1 109.50000 418.400000
4444 12558 4445 1 109.50000 418.400000
4446 12559 4447 1 109.50000 418.400000
4446 12559 4448 1 109.50000 418.400000
4446 12559 4449 1 109.50000 418.400000
4447 12559 4448 1 109.50000 418.400000
4447 12559 4449 1 109.50000 418.400000
4448 12559 4449 1 109.50000 418.400000
2184 12560 4450 1 109.50000 418.400000
2184 12560 4451 1 109.50000 418.400000
2184 12560 4452 1 109.50000 418.400000
4450 12560 4451 1 109.50000 418.400000
4450 12560 4452 1 109.50000 418.400000
4451 12560 4452 1 109.50000 418.400000
2483 12561 4453 1 109.50000 418.400000
2483 12561 4454 1 109.50000 418.400000
2483 12561 4455 1 109.50000 418.400000
4453 12561 4454 1 109.50000 418.400000
4453 12561 4455 1 109.50000 418.400000
4454 12561 4455 1 109.50000 418.400000
1015 12562 4456 1 109.50000 418.400000
1015 12562 4457 1 109.50000 418.400000
1015 12562 4458 1 109.50000 418.400000
4456 12562 4457 1 109.50000 418.400000
4456 12562 4458 1 109.50000 418.400000
4457 12562 4458 1 109.50000 418.400000
1055 12563 4285 1 109.50000 418.400000
1055 12563 4459 1 109.50000 418.400000
1055 12563 4460 1 109.50000 418.400000
4285 12563 4459 1 109.50000 418.400000
4285 12563 4460 1 109.50000 418.400000
4459 12563 4460 1 109.50000 418.400000
2487 12564 4461 1 109.50000 418.400000
2487 12564 4462 1 109.50000 418.400000
2487 12564 4463 1 109.50000 418.400000
4461 12564 4462 1 109.50000 418.400000
4461 12564 4463 1 109.50000 418.400000
4462 12564 4463 1 109.50000 418.400000
3350 12565 4464 1 109.50000 418.400000
3350 12565 4465 1 109.50000 418.400000
3350 12565 10518 1 109.50000 418.400000
4464 12565 4465 1 109.50000 418.400000
4464 12565 10518 1 109.50000 418.400000
4465 12565 10518 1 109.50000 418.400000
3271 12566 4466 1 109.50000 418.400000
3271 12566 4467 1 109.50000 418.400000
3271 12566 4468 1 109.50000 418.400000
4466 12566 4467 1 109.50000 418.400000
4466 12566 4468 1 109.50000 418.400000
4467 12566 4468 1 109.50000 418.400000
4469 12567 4470 1 109.50000 418.400000
4469 12567 4471 1 109.50000 418.400000
4469 12567 4472 1 109.50000 418.400000
4470 12567 4471 1 109.50000 418.400000
4470 12567 4472 1 109.50000 418.400000
4471 12567 4472 1 109.50000 418.400000
310 12568 4473 1 109.50000 418.400000
310 12568 4474 1 109.50000 418.400000
310 12568 4475 1 109.50000 418.400000
4473 12568 4474 1 109.50000 418.400000
4473 12568 4475 1 109.50000 418.400000
4474 12568 4475 1 109.50000 418.400000
4482 12569 4483 1 109.50000 418.400000
4482 12569 4484 1 109.50000 418.400000
4482 12569 4485 1 109.50000 418.400000
4483 12569 4484 1 109.50000 418.400000
4483 12569 4485 1 109.50000 418.400000
4484 12569 4485 1 109.50000 418.400000
4486 12570 4487 1 109.50000 418.400000
4486 12570 4488 1 109.50000 418.400000
4486 12570 4489 1 109.50000 418.400000
4487 12570 4488 1 109.50000 418.400000
4487 12570 4489 1 109.50000 418.400000
4488 12570 4489 1 109.50000 418.400000
4490 12571 4491 1 109.50000 418.400000
4490 12571 4492 1 109.50000 418.400000
4490 12571 4493 1 109.50000 418.400000
4491 12571 4492 1 109.50000 418.400000
4491 12571 4493 1 109.50000 418.400000
4492 12571 4493 1 109.50000 418.400000
4494 12572 4496 1 109.50000 418.400000
4494 12572 4497 1 109.50000 418.400000
4494 12572 9510 1 109.50000 418.400000
4496 12572 4497 1 109.50000 418.400000
4496 12572 9510 1 109.50000 418.400000
4497 12572 9510 1 109.50000 418.400000
893 12573 4498 1 109.50000 418.400000
893 12573 4499 1 109.50000 418.400000
893 12573 4500 1 109.50000 418.400000
4498 12573 4499 1 109.50000 418.400000
4498 12573 4500 1 109.50000 418.400000
4499 12573 4500 1 109.50000 418.400000
2160 12574 4501 1 109.50000 418.400000
2160 12574 4502 1 109.50000 418.400000
2160 12574 4503 1 109.50000 418.400000
4501 12574 4502 1 109.50000 418.400000
4501 12574 4503 1 109.50000 418.400000
4502 12574 4503 1 109.50000 418.400000
3266 12575 4504 1 109.50000 418.400000
3266 12575 4505 1 109.50000 418.400000
3266 12575 4506 1 109.50000 418.400000
4504 12575 4505 1 109.50000 418.400000
4504 12575 4506 1 109.50000 418.400000
4505 12575 4506 1 109.50000 418.400000
2879 12576 3961 1 109.50000 418.400000
2879 12576 4507 1 109.50000 418.400000
2879 12576 4508 1 109.50000 418.400000
3961 12576 4507 1 109.50000 418.400000
3961 12576 4508 1 109.50000 418.400000
4507 12576 4508 1 109.50000 418.400000
4509 12577 4510 1 109.50000 418.400000
4509 12577 11139 1 109.50000 418.400000
4509 12577 11297 1 109.50000 418.400000
4510 12577 11139 1 109.50000 418.400000
4510 12577 11297 1 109.50000 418.400000
11139 12577 11297 1 109.50000 418.400000
4511 12578 4512 1 109.50000 418.400000
4511 12578 4513 1 109.50000 418.400000
4511 12578 11338 1 109.50000 418.400000
4512 12578 4513 1 109.50000 418.400000
4512 12578 11338 1 109.50000 418.400000
4513 12578 11338 1 109.50000 418.400000
4518 12579 4519 1 109.50000 418.400000
4518 12579 4520 1 109.50000 418.400000
4518 12579 4521 1 109.50000 418.400000
4519 12579 4520 1 109.50000 418.400000
4519 12579 4521 1 109.50000 418.400000
4520 12579 4521 1 109.50000 418.400000
529 12580 2344 1 109.50000 418.400000
529 12580 4522 1 109.50000 418.400000
529 12580 4523 1 109.50000 418.400000
2344 12580 4522 1 109.50000 418.400000
2344 12580 4523 1 109.50000 418.400000
4522 12580 4523 1 109.50000 418.400000
2214 12581 3701 1 109.50000 418.400000
2214 12581 4524 1 109.50000 418.400000
2214 12581 4525 1 109.50000 418.400000
3701 12581 4524 1 109.50000 418.400000
3701 12581 4525 1 109.50000 418.400000
4524 12581 4525 1 109.50000 418.400000
4526 12582 4527 1 109.50000 418.400000
4526 12582 4528 1 109.50000 418.400000
4526 12582 4529 1 109.50000 418.400000
4527 12582 4528 1 109.50000 418.400000
4527 12582 4529 1 109.50000 418.400000
4528 12582 4529 1 109.50000 418.400000
796 12583 4530 1 109.50000 418.400000
796 12583 9194 1 109.50000 418.400000
796 12583 11206 1 109.50000 418.400000
4530 12583 9194 1 109.50000 418.400000
4530 12583 11206 1 109.50000 418.400000
9194 12583 11206 1 109.50000 418.400000
4371 12584 4531 1 109.50000 418.400000
4371 12584 4532 1 109.50000 418.400000
4371 12584 4533 1 109.50000 418.400000
4531 12584 4532 1 109.50000 418.400000
4531 12584 4533 1 109.50000 418.400000
4532 12584 4533 1 109.50000 418.400000
12 12585 4536 1 109.50000 418.400000
12 12585 4537 1 109.50000 418.400000
12 12585 4538 1 109.50000 418.400000
4536 12585 4537 1 109.50000 418.400000
4536 12585 4538 1 109.50000 418.400000
4537 12585 4538 1 109.50000 418.400000
3231 12586 4540 1 109.50000 418.400000
3231 12586 4541 1 109.50000 418.400000
3231 12586 4542 1 109.50000 418.400000
4540 12586 4541 1 109.50000 418.400000
4540 12586 4542 1 109.50000 418.400000
4541 12586 4542 1 109.50000 418.400000
3759 12587 4543 1 109.50000 418.400000
3759 12587 4544 1 109.50000 418.400000
3759 12587 4545 1 109.50000 418.400000
4543 12587 4544 1 109.50000 418.400000
4543 12587 4545 1 109.50000 418.400000
4544 12587 4545 1 109.50000 418.400000
4546 12588 4547 1 109.50000 418.400000
4546 12588 4548 1 109.50000 418.400000
4546 12588 4549 1 109.50000 418.400000
4547 12588 4548 1 109.50000 418.400000
4547 12588 4549 1 109.50000 418.400000
4548 12588 4549 1 109.50000 418.400000
2289 12589 4550 1 109.50000 418.400000
2289 12589 4551 1 109.50000 418.400000
2289 12589 4552 1 109.50000 418.400000
4550 12589 4551 1 109.50000 418.400000
4550 12589 4552 1 109.50000 418.400000
4551 12589 4552 1 109.50000 418.400000
4554 12590 4555 1 109.50000 418.400000
4554 12590 4556 1 109.50000 418.400000
4554 12590 9056 1 109.50000 418.400000
4555 12590 4556 1 109.50000 418.400000
4555 12590 9056 1 109.50000 418.400000
4556 12590 9056 1 109.50000 418.400000
2614 12591 4557 1 109.50000 418.400000
2614 12591 4558 1 109.50000 418.400000
2614 12591 4559 1 109.50000 418.400000
4557 12591 4558 1 109.50000 418.400000
4557 12591 4559 1 109.50000 418.400000
4558 12591 4559 1 109.50000 418.400000
4302 12592 4303 1 109.50000 418.400000
4302 12592 4561 1 109.50000 418.400000
4302 12592 4562 1 109.50000 418.400000
4303 12592 4561 1 109.50000 418.400000
4303 12592 4562 1 109.50000 418.400000
4561 12592 4562 1 109.50000 418.400000
394 12593 4462 1 109.50000 418.400000
394 12593 4563 1 109.50000 418.400000
394 12593 4564 1 109.50000 418.400000
4462 12593 4563 1 109.50000 418.400000
4462 12593 4564 1 109.50000 418.400000
4563 12593 4564 1 109.50000 418.400000
415 12594 3031 1 109.50000 418.400000
415 12594 4565 1 109.50000 418.400000
415 12594 4566 1 109.50000 418.400000
3031 12594 4565 1 109.50000 418.400000
3031 12594 4566 1 109.50000 418.400000
4565 12594 4566 1 109.50000 418.400000
754 12595 2128 1 109.50000 418.400000
754 12595 2917 1 109.50000 418.400000
754 12595 4567 1 109.50000 418.400000
2128 12595 2917 1 109.50000 418.400000
2128 12595 4567 1 109.50000 418.400000
2917 12595 4567 1 109.50000 418.400000
4568 12596 4569 1 109.50000 418.400000
4568 12596 4570 1 109.50000 418.400000
4568 12596 4571 1 109.50000 418.400000
4569 12596 4570 1 109.50000 418.400000
4569 12596 4571 1 109.50000 418.400000
4570 12596 4571 1 109.50000 418.400000
3517 12597 4572 1 109.50000 418.400000
3517 12597 4573 1 109.50000 418.400000
3517 12597 4574 1 109.50000 418.400000
4572 12597 4573 1 109.50000 418.400000
4572 12597 4574 1 109.50000 418.400000
4573 12597 4574 1 109.50000 418.400000
4575 12598 4576 1 109.50000 418.400000
4575 12598 4577 1 109.50000 418.400000
4575 12598 4578 1 109.50000 418.400000
4576 12598 4577 1 109.50000 418.400000
4576 12598 4578 1 109.50000 418.400000
4577 12598 4578 1 109.50000 418.400000
4579 12599 4580 1 109.50000 418.400000
4579 12599 4581 1 109.50000 418.400000
4579 12599 4582 1 109.50000 418.400000
4580 12599 4581 1 109.50000 418.400000
4580 12599 4582 1 109.50000 418.400000
4581 12599 4582 1 109.50000 418.400000
2219 12600 3346 1 109.50000 418.400000
2219 12600 4583 1 109.50000 418.400000
2219 12600 8090 1 109.50000 418.400000
3346 12600 4583 1 109.50000 418.400000
3346 12600 8090 1 109.50000 418.400000
4583 12600 8090 1 109.50000 418.400000
2454 12601 2843 1 109.50000 418.400000
2454 12601 4364 1 109.50000 418.400000
2454 12601 4585 1 109.50000 418.400000
2843 12601 4364 1 109.50000 418.400000
2843 12601 4585 1 109.50000 418.400000
4364 12601 4585 1 109.50000 418.400000
4591 12602 9469 1 109.50000 418.400000
4591 12602 10531 1 109.50000 418.400000
4591 12602 10532 1 109.50000 418.400000
9469 12602 10531 1 109.50000 418.400000
9469 12602 10532 1 109.50000 418.400000
10531 12602 10532 1 109.50000 418.400000
2864 12603 4594 1 109.50000 418.400000
2864 12603 4595 1 109.50000 418.400000
2864 12603 10285 1 109.50000 418.400000
4594 12603 4595 1 109.50000 418.400000
4594 12603 10285 1 109.50000 418.400000
4595 12603 10285 1 109.50000 418.400000
120 12604 4596 1 109.50000 418.400000
120 12604 4597 1 109.50000 418.400000
120 12604 4598 1 109.50000 418.400000
4596 12604 4597 1 109.50000 418.400000
4596 12604 4598 1 109.50000 418.400000
4597 12604 4598 1 109.50000 418.400000
4599 12605 4600 1 109.50000 418.400000
4599 12605 4601 1 109.50000 418.400000
4599 12605 4602 1 109.50000 418.400000
4600 12605 4601 1 109.50000 418.400000
4600 12605 4602 1 109.50000 418.400000
4601 12605 4602 1 109.50000 418.400000
399 12606 1946 1 109.50000 418.400000
399 12606 4605 1 109.50000 418.400000
399 12606 4606 1 109.50000 418.400000
1946 12606 4605 1 109.50000 418.400000
1946 12606 4606 1 109.50000 418.400000
4605 12606 4606 1 109.50000 418.400000
4609 12607 4610 1 109.50000 418.400000
4609 12607 4611 1 109.50000 418.400000
4609 12607 4612 1 109.50000 418.400000
4610 12607 4611 1 109.50000 418.400000
4610 12607 4612 1 109.50000 418.400000
4611 12607 4612 1 109.50000 418.400000
4613 12608 4614 1 109.50000 418.400000
4613 12608 4615 1 109.50000 418.400000
4613 12608 4616 1 109.50000 418.400000
4614 12608 4615 1 109.50000 418.400000
4614 12608 4616 1 109.50000 418.400000
4615 12608 4616 1 109.50000 418.400000
140 12609 4617 1 109.50000 418.400000
140 12609 4618 1 109.50000 418.400000
140 12609 4619 1 109.50000 418.400000
4617 12609 4618 1 109.50000 418.400000
4617 12609 4619 1 109.50000 418.400000
4618 12609 4619 1 109.50000 418.400000
2542 12610 4620 1 109.50000 418.400000
2542 12610 4621 1 109.50000 418.400000
2542 12610 4622 1 109.50000 418.400000
4620 12610 4621 1 109.50000 418.400000
4620 12610 4622 1 109.50000 418.400000
4621 12610 4622 1 109.50000 418.400000
4418 12611 4623 1 109.50000 418.400000
4418 12611 4624 1 109.50000 418.400000
4418 12611 11318 1 109.50000 418.400000
4623 12611 4624 1 109.50000 418.400000
4623 12611 11318 1 109.50000 418.400000
4624 12611 11318 1 109.50000 418.400000
753 12612 4179 1 109.50000 418.400000
753 12612 4626 1 109.50000 418.400000
753 12612 4627 1 109.50000 418.400000
4179 12612 4626 1 109.50000 418.400000
4179 12612 4627 1 109.50000 418.400000
4626 12612 4627 1 109.50000 418.400000
1393 12613 4420 1 109.50000 418.400000
1393 12613 4628 1 109.50000 418.400000
1393 12613 4629 1 109.50000 418.400000
4420 12613 4628 1 109.50000 418.400000
4420 12613 4629 1 109.50000 418.400000
4628 12613 4629 1 109.50000 418.400000
4630 12614 4631 1 109.50000 418.400000
4630 12614 4632 1 109.50000 418.400000
4630 12614 4633 1 109.50000 418.400000
4631 12614 4632 1 109.50000 418.400000
4631 12614 4633 1 109.50000 418.400000
4632 12614 4633 1 109.50000 418.400000
1847 12615 3783 1 109.50000 418.400000
1847 12615 4634 1 109.50000 418.400000
1847 12615 4635 1 109.50000 418.400000
3783 12615 4634 1 109.50000 418.400000
3783 12615 4635 1 109.50000 418.400000
4634 12615 4635 1 109.50000 418.400000
186 12616 543 1 109.50000 418.400000
186 12616 544 1 109.50000 418.400000
186 12616 545 1 109.50000 418.400000
543 12616 544 1 109.50000 418.400000
543 12616 545 1 109.50000 418.400000
544 12616 545 1 109.50000 418.400000
4641 12617 4642 1 109.50000 418.400000
4641 12617 4643 1 109.50000 418.400000
4641 12617 4644 1 109.50000 418.400000
4642 12617 4643 1 109.50000 418.400000
4642 12617 4644 1 109.50000 418.400000
4643 12617 4644 1 109.50000 418.400000
1801 12618 4645 1 109.50000 418.400000
1801 12618 4646 1 109.50000 418.400000
1801 12618 4647 1 109.50000 418.400000
4645 12618 4646 1 109.50000 418.400000
4645 12618 4647 1 109.50000 418.400000
4646 12618 4647 1 109.50000 418.400000
3623 12619 4648 1 109.50000 418.400000
3623 12619 4649 1 109.50000 418.400000
3623 12619 4650 1 109.50000 418.400000
4648 12619 4649 1 109.50000 418.400000
4648 12619 4650 1 109.50000 418.400000
4649 12619 4650 1 109.50000 418.400000
4046 12620 4651 1 109.50000 418.400000
4046 12620 4652 1 109.50000 418.400000
4046 12620 4653 1 109.50000 418.400000
4651 12620 4652 1 109.50000 418.400000
4651 12620 4653 1 109.50000 418.400000
4652 12620 4653 1 109.50000 418.400000
4654 12621 4655 1 109.50000 418.400000
4654 12621 4656 1 109.50000 418.400000
4654 12621 4657 1 109.50000 418.400000
4655 12621 4656 1 109.50000 418.400000
4655 12621 4657 1 109.50000 418.400000
4656 12621 4657 1 109.50000 418.400000
2561 12622 2745 1 109.50000 418.400000
2561 12622 4658 1 109.50000 418.400000
2561 12622 4659 1 109.50000 418.400000
2745 12622 4658 1 109.50000 418.400000
2745 12622 4659 1 109.50000 418.400000
4658 12622 4659 1 109.50000 418.400000
4660 12623 4661 1 109.50000 418.400000
4660 12623 4662 1 109.50000 418.400000
4660 12623 4663 1 109.50000 418.400000
4661 12623 4662 1 109.50000 418.400000
4661 12623 4663 1 109.50000 418.400000
4662 12623 4663 1 109.50000 418.400000
3758 12624 4664 1 109.50000 418.400000
3758 12624 4665 1 109.50000 418.400000
3758 12624 4666 1 109.50000 418.400000
4664 12624 4665 1 109.50000 418.400000
4664 12624 4666 1 109.50000 418.400000
4665 12624 4666 1 109.50000 418.400000
4667 12625 4668 1 109.50000 418.400000
4667 12625 4669 1 109.50000 418.400000
4667 12625 4670 1 109.50000 418.400000
4668 12625 4669 1 109.50000 418.400000
4668 12625 4670 1 109.50000 418.400000
4669 12625 4670 1 109.50000 418.400000
4422 12626 4671 1 109.50000 418.400000
4422 12626 4672 1 109.50000 418.400000
4422 12626 4673 1 109.50000 418.400000
4671 12626 4672 1 109.50000 418.400000
4671 12626 4673 1 109.50000 418.400000
4672 12626 4673 1 109.50000 418.400000
4674 12627 4675 1 109.50000 418.400000
4674 12627 4677 1 109.50000 418.400000
4674 12627 6369 1 109.50000 418.400000
4675 12627 4677 1 109.50000 418.400000
4675 12627 6369 1 109.50000 418.400000
4677 12627 6369 1 109.50000 418.400000
4678 12628 4679 1 109.50000 418.400000
4678 12628 4680 1 109.50000 418.400000
4678 12628 4681 1 109.50000 418.400000
4679 12628 4680 1 109.50000 418.400000
4679 12628 4681 1 109.50000 418.400000
4680 12628 4681 1 109.50000 418.400000
96 12629 2613 1 109.50000 418.400000
96 12629 4682 1 109.50000 418.400000
96 12629 4683 1 109.50000 418.400000
2613 12629 4682 1 109.50000 418.400000
2613 12629 4683 1 109.50000 418.400000
4682 12629 4683 1 109.50000 418.400000
4684 12630 4685 1 109.50000 418.400000
4684 12630 4686 1 109.50000 418.400000
4684 12630 4687 1 109.50000 418.400000
4685 12630 4686 1 109.50000 418.400000
4685 12630 4687 1 109.50000 418.400000
4686 12630 4687 1 109.50000 418.400000
2685 12631 4688 1 109.50000 418.400000
2685 12631 4689 1 109.50000 418.400000
2685 12631 4690 1 109.50000 418.400000
4688 12631 4689 1 109.50000 418.400000
4688 12631 4690 1 109.50000 418.400000
4689 12631 4690 1 109.50000 418.400000
4691 12632 4692 1 109.50000 418.400000
4691 12632 4693 1 109.50000 418.400000
4691 12632 11361 1 109.50000 418.400000
4692 12632 4693 1 109.50000 418.400000
4692 12632 11361 1 109.50000 418.400000
4693 12632 11361 1 109.50000 418.400000
3592 12633 4649 1 109.50000 418.400000
3592 12633 4694 1 109.50000 418.400000
3592 12633 4695 1 109.50000 418.400000
4649 12633 4694 1 109.50000 418.400000
4649 12633 4695 1 109.50000 418.400000
4694 12633 4695 1 109.50000 418.400000
623 12634 2273 1 109.50000 418.400000
623 12634 4696 1 109.50000 418.400000
623 12634 4697 1 109.50000 418.400000
2273 12634 4696 1 109.50000 418.400000
2273 12634 4697 1 109.50000 418.400000
4696 12634 4697 1 109.50000 418.400000
1474 12635 2833 1 109.50000 418.400000
1474 12635 4698 1 109.50000 418.400000
1474 12635 4699 1 109.50000 418.400000
2833 12635 4698 1 109.50000 418.400000
2833 12635 4699 1 109.50000 418.400000
4698 12635 4699 1 109.50000 418.400000
4648 12636 4700 1 109.50000 418.400000
4648 12636 4701 1 109.50000 418.400000
4648 12636 11145 1 109.50000 418.400000
4700 12636 4701 1 109.50000 418.400000
4700 12636 11145 1 109.50000 418.400000
4701 12636 11145 1 109.50000 418.400000
4262 12637 4702 1 109.50000 418.400000
4262 12637 4703 1 109.50000 418.400000
4262 12637 4704 1 109.50000 418.400000
4702 12637 4703 1 109.50000 418.400000
4702 12637 4704 1 109.50000 418.400000
4703 12637 4704 1 109.50000 418.400000
1082 12638 4705 1 109.50000 418.400000
1082 12638 4706 1 109.50000 418.400000
1082 12638 4707 1 109.50000 418.400000
4705 12638 4706 1 109.50000 418.400000
4705 12638 4707 1 109.50000 418.400000
4706 12638 4707 1 109.50000 418.400000
2497 12639 4708 1 109.50000 418.400000
2497 12639 4709 1 109.50000 418.400000
2497 12639 4710 1 109.50000 418.400000
4708 12639 4709 1 109.50000 418.400000
4708 12639 4710 1 109.50000 418.400000
4709 12639 4710 1 109.50000 418.400000
4711 12640 4712 1 109.50000 418.400000
4711 12640 4713 1 109.50000 418.400000
4711 12640 4714 1 109.50000 418.400000
4712 12640 4713 1 109.50000 418.400000
4712 12640 4714 1 109.50000 418.400000
4713 12640 4714 1 109.50000 418.400000
2594 12641 4083 1 109.50000 418.400000
2594 12641 4715 1 109.50000 418.400000
2594 12641 4716 1 109.50000 418.400000
4083 12641 4715 1 109.50000 418.400000
4083 12641 4716 1 109.50000 418.400000
4715 12641 4716 1 109.50000 418.400000
4717 12642 4718 1 109.50000 418.400000
4717 12642 4719 1 109.50000 418.400000
4717 12642 4720 1 109.50000 418.400000
4718 12642 4719 1 109.50000 418.400000
4718 12642 4720 1 109.50000 418.400000
4719 12642 4720 1 109.50000 418.400000
4721 12643 4722 1 109.50000 418.400000
4721 12643 4723 1 109.50000 418.400000
4721 12643 4724 1 109.50000 418.400000
4722 12643 4723 1 109.50000 418.400000
4722 12643 4724 1 109.50000 418.400000
4723 12643 4724 1 109.50000 418.400000
4725 12644 4726 1 109.50000 418.400000
4725 12644 4727 1 109.50000 418.400000
4725 12644 4728 1 109.50000 418.400000
4726 12644 4727 1 109.50000 418.400000
4726 12644 4728 1 109.50000 418.400000
4727 12644 4728 1 109.50000 418.400000
4557 12645 4729 1 109.50000 418.400000
4557 12645 4730 1 109.50000 418.400000
4557 12645 4731 1 109.50000 418.400000
4729 12645 4730 1 109.50000 418.400000
4729 12645 4731 1 109.50000 418.400000
4730 12645 4731 1 109.50000 418.400000
4732 12646 4733 1 109.50000 418.400000
4732 12646 4734 1 109.50000 418.400000
4732 12646 4735 1 109.50000 418.400000
4733 12646 4734 1 109.50000 418.400000
4733 12646 4735 1 109.50000 418.400000
4734 12646 4735 1 109.50000 418.400000
519 12647 4736 1 109.50000 418.400000
519 12647 4737 1 109.50000 418.400000
519 12647 11314 1 109.50000 418.400000
4736 12647 4737 1 109.50000 418.400000
4736 12647 11314 1 109.50000 418.400000
4737 12647 11314 1 109.50000 418.400000
4738 12648 4739 1 109.50000 418.400000
4738 12648 4740 1 109.50000 418.400000
4738 12648 4741 1 109.50000 418.400000
4739 12648 4740 1 109.50000 418.400000
4739 12648 4741 1 109.50000 418.400000
4740 12648 4741 1 109.50000 418.400000
3547 12649 4742 1 109.50000 418.400000
3547 12649 4743 1 109.50000 418.400000
3547 12649 4744 1 109.50000 418.400000
4742 12649 4743 1 109.50000 418.400000
4742 12649 4744 1 109.50000 418.400000
4743 12649 4744 1 109.50000 418.400000
2565 12650 4144 1 109.50000 418.400000
2565 12650 4745 1 109.50000 418.400000
2565 12650 4746 1 109.50000 418.400000
4144 12650 4745 1 109.50000 418.400000
4144 12650 4746 1 109.50000 418.400000
4745 12650 4746 1 109.50000 418.400000
4112 12651 4747 1 109.50000 418.400000
4112 12651 4748 1 109.50000 418.400000
4112 12651 4749 1 109.50000 418.400000
4747 12651 4748 1 109.50000 418.400000
4747 12651 4749 1 109.50000 418.400000
4748 12651 4749 1 109.50000 418.400000
1616 12652 1815 1 109.50000 418.400000
1616 12652 4750 1 109.50000 418.400000
1616 12652 4751 1 109.50000 418.400000
1815 12652 4750 1 109.50000 418.400000
1815 12652 4751 1 109.50000 418.400000
4750 12652 4751 1 109.50000 418.400000
4723 12653 4752 1 109.50000 418.400000
4723 12653 4753 1 109.50000 418.400000
4723 12653 4754 1 109.50000 418.400000
4752 12653 4753 1 109.50000 418.400000
4752 12653 4754 1 109.50000 418.400000
4753 12653 4754 1 109.50000 418.400000
54 12654 4756 1 109.50000 418.400000
54 12654 4757 1 109.50000 418.400000
54 12654 4758 1 109.50000 418.400000
4756 12654 4757 1 109.50000 418.400000
4756 12654 4758 1 109.50000 418.400000
4757 12654 4758 1 109.50000 418.400000
4288 12655 4759 1 109.50000 418.400000
4288 12655 4761 1 109.50000 418.400000
4288 12655 9073 1 109.50000 418.400000
4759 12655 4761 1 109.50000 418.400000
4759 12655 9073 1 109.50000 418.400000
4761 12655 9073 1 109.50000 418.400000
4713 12656 4762 1 109.50000 418.400000
4713 12656 4763 1 109.50000 418.400000
4713 12656 4764 1 109.50000 418.400000
4762 12656 4763 1 109.50000 418.400000
4762 12656 4764 1 109.50000 418.400000
4763 12656 4764 1 109.50000 418.400000
1679 12657 2482 1 109.50000 418.400000
1679 12657 4133 1 109.50000 418.400000
1679 12657 4765 1 109.50000 418.400000
2482 12657 4133 1 109.50000 418.400000
2482 12657 4765 1 109.50000 418.400000
4133 12657 4765 1 109.50000 418.400000
4606 12658 4766 1 109.50000 418.400000
4606 12658 4767 1 109.50000 418.400000
4606 12658 4768 1 109.50000 418.400000
4766 12658 4767 1 109.50000 418.400000
4766 12658 4768 1 109.50000 418.400000
4767 12658 4768 1 109.50000 418.400000
1665 12659 2646 1 109.50000 418.400000
1665 12659 4769 1 109.50000 418.400000
1665 12659 4770 1 109.50000 418.400000
2646 12659 4769 1 109.50000 418.400000
2646 12659 4770 1 109.50000 418.400000
4769 12659 4770 1 109.50000 418.400000
4773 12660 4774 1 109.50000 418.400000
4773 12660 4775 1 109.50000 418.400000
4773 12660 4776 1 109.50000 418.400000
4774 12660 4775 1 109.50000 418.400000
4774 12660 4776 1 109.50000 418.400000
4775 12660 4776 1 109.50000 418.400000
4777 12661 4778 1 109.50000 418.400000
4777 12661 4779 1 109.50000 418.400000
4777 12661 4780 1 109.50000 418.400000
4778 12661 4779 1 109.50000 418.400000
4778 12661 4780 1 109.50000 418.400000
4779 12661 4780 1 109.50000 418.400000
3001 12662 4072 1 109.50000 418.400000
3001 12662 4781 1 109.50000 418.400000
3001 12662 4782 1 109.50000 418.400000
4072 12662 4781 1 109.50000 418.400000
4072 12662 4782 1 109.50000 418.400000
4781 12662 4782 1 109.50000 418.400000
797 12663 4322 1 109.50000 418.400000
797 12663 4784 1 109.50000 418.400000
797 12663 4785 1 109.50000 418.400000
4322 12663 4784 1 109.50000 418.400000
4322 12663 4785 1 109.50000 418.400000
4784 12663 4785 1 109.50000 418.400000
379 12664 4786 1 109.50000 418.400000
379 12664 4787 1 109.50000 418.400000
379 12664 4788 1 109.50000 418.400000
4786 12664 4787 1 109.50000 418.400000
4786 12664 4788 1 109.50000 418.400000
4787 12664 4788 1 109.50000 418.400000
2021 12665 4789 1 109.50000 418.400000
2021 12665 6116 1 109.50000 418.400000
2021 12665 11235 1 109.50000 418.400000
4789 12665 6116 1 109.50000 418.400000
4789 12665 11235 1 109.50000 418.400000
6116 12665 11235 1 109.50000 418.400000
2971 12666 2972 1 109.50000 418.400000
2971 12666 4793 1 109.50000 418.400000
2971 12666 4794 1 109.50000 418.400000
2972 12666 4793 1 109.50000 418.400000
2972 12666 4794 1 109.50000 418.400000
4793 12666 4794 1 109.50000 418.400000
4796 12667 4797 1 109.50000 418.400000
4796 12667 4798 1 109.50000 418.400000
4796 12667 4799 1 109.50000 418.400000
4797 12667 4798 1 109.50000 418.400000
4797 12667 4799 1 109.50000 418.400000
4798 12667 4799 1 109.50000 418.400000
2732 12668 3337 1 109.50000 418.400000
2732 12668 4800 1 109.50000 418.400000
2732 12668 11220 1 109.50000 418.400000
3337 12668 4800 1 109.50000 418.400000
3337 12668 11220 1 109.50000 418.400000
4800 12668 11220 1 109.50000 418.400000
4801 12669 4803 1 109.50000 418.400000
4801 12669 6161 1 109.50000 418.400000
4801 12669 7451 1 109.50000 418.400000
4803 12669 6161 1 109.50000 418.400000
4803 12669 7451 1 109.50000 418.400000
6161 12669 7451 1 109.50000 418.400000
2791 12670 2793 1 109.50000 418.400000
2791 12670 4804 1 109.50000 418.400000
2791 12670 4805 1 109.50000 418.400000
2793 12670 4804 1 109.50000 418.400000
2793 12670 4805 1 109.50000 418.400000
4804 12670 4805 1 109.50000 418.400000
4807 12671 4808 1 109.50000 418.400000
4807 12671 4809 1 109.50000 418.400000
4807 12671 11156 1 109.50000 418.400000
4808 12671 4809 1 109.50000 418.400000
4808 12671 11156 1 109.50000 418.400000
4809 12671 11156 1 109.50000 418.400000
3725 12672 4818 1 109.50000 418.400000
3725 12672 4819 1 109.50000 418.400000
3725 12672 4820 1 109.50000 418.400000
4818 12672 4819 1 109.50000 418.400000
4818 12672 4820 1 109.50000 418.400000
4819 12672 4820 1 109.50000 418.400000
4821 12673 4822 1 109.50000 418.400000
4821 12673 4823 1 109.50000 418.400000
4821 12673 4824 1 109.50000 418.400000
4822 12673 4823 1 109.50000 418.400000
4822 12673 4824 1 109.50000 418.400000
4823 12673 4824 1 109.50000 418.400000
4825 12674 4826 1 109.50000 418.400000
4825 12674 4827 1 109.50000 418.400000
4825 12674 11150 1 109.50000 418.400000
4826 12674 4827 1 109.50000 418.400000
4826 12674 11150 1 109.50000 418.400000
4827 12674 11150 1 109.50000 418.400000
1424 12675 4828 1 109.50000 418.400000
1424 12675 4829 1 109.50000 418.400000
1424 12675 4830 1 109.50000 418.400000
4828 12675 4829 1 109.50000 418.400000
4828 12675 4830 1 109.50000 418.400000
4829 12675 4830 1 109.50000 418.400000
4831 12676 4832 1 109.50000 418.400000
4831 12676 4833 1 109.50000 418.400000
4831 12676 4834 1 109.50000 418.400000
4832 12676 4833 1 109.50000 418.400000
4832 12676 4834 1 109.50000 418.400000
4833 12676 4834 1 109.50000 418.400000
39 12677 4835 1 109.50000 418.400000
39 12677 4836 1 109.50000 418.400000
39 12677 4837 1 109.50000 418.400000
4835 12677 4836 1 109.50000 418.400000
4835 12677 4837 1 109.50000 418.400000
4836 12677 4837 1 109.50000 418.400000
955 12678 4838 1 109.50000 418.400000
955 12678 4839 1 109.50000 418.400000
955 12678 4840 1 109.50000 418.400000
4838 12678 4839 1 109.50000 418.400000
4838 12678 4840 1 109.50000 418.400000
4839 12678 4840 1 109.50000 418.400000
4841 12679 4842 1 109.50000 418.400000
4841 12679 4843 1 109.50000 418.400000
4841 12679 4844 1 109.50000 418.400000
4842 12679 4843 1 109.50000 418.400000
4842 12679 4844 1 109.50000 418.400000
4843 12679 4844 1 109.50000 418.400000
3912 12680 4845 1 109.50000 418.400000
3912 12680 4846 1 109.50000 418.400000
3912 12680 4847 1 109.50000 418.400000
4845 12680 4846 1 109.50000 418.400000
4845 12680 4847 1 109.50000 418.400000
4846 12680 4847 1 109.50000 418.400000
340 12681 4850 1 109.50000 418.400000
340 12681 4851 1 109.50000 418.400000
340 12681 4852 1 109.50000 418.400000
4850 12681 4851 1 109.50000 418.400000
4850 12681 4852 1 109.50000 418.400000
4851 12681 4852 1 109.50000 418.400000
4392 12682 4853 1 109.50000 418.400000
4392 12682 4854 1 109.50000 418.400000
4392 12682 4855 1 109.50000 418.400000
4853 12682 4854 1 109.50000 418.400000
4853 12682 4855 1 109.50000 418.400000
4854 12682 4855 1 109.50000 418.400000
2447 12683 3909 1 109.50000 418.400000
2447 12683 4856 1 109.50000 418.400000
2447 12683 4857 1 109.50000 418.400000
3909 12683 4856 1 109.50000 418.400000
3909 12683 4857 1 109.50000 418.400000
4856 12683 4857 1 109.50000 418.400000
2865 12684 2866 1 109.50000 418.400000
2865 12684 4858 1 109.50000 418.400000
2865 12684 4859 1 109.50000 418.400000
2866 12684 4858 1 109.50000 418.400000
2866 12684 4859 1 109.50000 418.400000
4858 12684 4859 1 109.50000 418.400000
4863 12685 4864 1 109.50000 418.400000
4863 12685 4865 1 109.50000 418.400000
4863 12685 4866 1 109.50000 418.400000
4864 12685 4865 1 109.50000 418.400000
4864 12685 4866 1 109.50000 418.400000
4865 12685 4866 1 109.50000 418.400000
2320 12686 4867 1 109.50000 418.400000
2320 12686 4868 1 109.50000 418.400000
2320 12686 4869 1 109.50000 418.400000
4867 12686 4868 1 109.50000 418.400000
4867 12686 4869 1 109.50000 418.400000
4868 12686 4869 1 109.50000 418.400000
841 12687 2752 1 109.50000 418.400000
841 12687 3015 1 109.50000 418.400000
841 12687 4872 1 109.50000 418.400000
2752 12687 3015 1 109.50000 418.400000
2752 12687 4872 1 109.50000 418.400000
3015 12687 4872 1 109.50000 418.400000
3810 12688 4873 1 109.50000 418.400000
3810 12688 4874 1 109.50000 418.400000
3810 12688 4875 1 109.50000 418.400000
4873 12688 4874 1 109.50000 418.400000
4873 12688 4875 1 109.50000 418.400000
4874 12688 4875 1 109.50000 418.400000
1451 12689 4876 1 109.50000 418.400000
1451 12689 4877 1 109.50000 418.400000
1451 12689 4878 1 109.50000 418.400000
4876 12689 4877 1 109.50000 418.400000
4876 12689 4878 1 109.50000 418.400000
4877 12689 4878 1 109.50000 418.400000
523 12690 889 1 109.50000 418.400000
523 12690 4879 1 109.50000 418.400000
523 12690 11167 1 109.50000 418.400000
889 12690 4879 1 109.50000 418.400000
889 12690 11167 1 109.50000 418.400000
4879 12690 11167 1 109.50000 418.400000
161 12691 4880 1 109.50000 418.400000
161 12691 4881 1 109.50000 418.400000
161 12691 4882 1 109.50000 418.400000
4880 12691 4881 1 109.50000 418.400000
4880 12691 4882 1 109.50000 418.400000
4881 12691 4882 1 109.50000 418.400000
4722 12692 4883 1 109.50000 418.400000
4722 12692 4884 1 109.50000 418.400000
4722 12692 4885 1 109.50000 418.400000
4883 12692 4884 1 109.50000 418.400000
4883 12692 4885 1 109.50000 418.400000
4884 12692 4885 1 109.50000 418.400000
4887 12693 4888 1 109.50000 418.400000
4887 12693 4889 1 109.50000 418.400000
4887 12693 4890 1 109.50000 418.400000
4888 12693 4889 1 109.50000 418.400000
4888 12693 4890 1 109.50000 418.400000
4889 12693 4890 1 109.50000 418.400000
2426 12694 4891 1 109.50000 418.400000
2426 12694 4892 1 109.50000 418.400000
2426 12694 4893 1 109.50000 418.400000
4891 12694 4892 1 109.50000 418.400000
4891 12694 4893 1 109.50000 418.400000
4892 12694 4893 1 109.50000 418.400000
732 12695 2676 1 109.50000 418.400000
732 12695 4897 1 109.50000 418.400000
732 12695 4898 1 109.50000 418.400000
2676 12695 4897 1 109.50000 418.400000
2676 12695 4898 1 109.50000 418.400000
4897 12695 4898 1 109.50000 418.400000
4902 12696 4903 1 109.50000 418.400000
4902 12696 4904 1 109.50000 418.400000
4902 12696 4905 1 109.50000 418.400000
4903 12696 4904 1 109.50000 418.400000
4903 12696 4905 1 109.50000 418.400000
4904 12696 4905 1 109.50000 418.400000
4906 12697 4907 1 109.50000 418.400000
4906 12697 4908 1 109.50000 418.400000
4906 12697 4909 1 109.50000 418.400000
4907 12697 4908 1 109.50000 418.400000
4907 12697 4909 1 109.50000 418.400000
4908 12697 4909 1 109.50000 418.400000
4910 12698 4911 1 109.50000 418.400000
4910 12698 4912 1 109.50000 418.400000
4910 12698 4913 1 109.50000 418.400000
4911 12698 4912 1 109.50000 418.400000
4911 12698 4913 1 109.50000 418.400000
4912 12698 4913 1 109.50000 418.400000
4914 12699 4915 1 109.50000 418.400000
4914 12699 4916 1 109.50000 418.400000
4914 12699 4917 1 109.50000 418.400000
4915 12699 4916 1 109.50000 418.400000
4915 12699 4917 1 109.50000 418.400000
4916 12699 4917 1 109.50000 418.400000
4918 12700 4919 1 109.50000 418.400000
4918 12700 4920 1 109.50000 418.400000
4918 12700 4921 1 109.50000 418.400000
4919 12700 4920 1 109.50000 418.400000
4919 12700 4921 1 109.50000 418.400000
4920 12700 4921 1 109.50000 418.400000
1750 12701 4922 1 109.50000 418.400000
1750 12701 11188 1 109.50000 418.400000
1750 12701 11265 1 109.50000 418.400000
4922 12701 11188 1 109.50000 418.400000
4922 12701 11265 1 109.50000 418.400000
11188 12701 11265 1 109.50000 418.400000
1302 12702 4923 1 109.50000 418.400000
1302 12702 4924 1 109.50000 418.400000
1302 12702 4925 1 109.50000 418.400000
4923 12702 4924 1 109.50000 418.400000
4923 12702 4925 1 109.50000 418.400000
4924 12702 4925 1 109.50000 418.400000
4458 12703 4926 1 109.50000 418.400000
4458 12703 4927 1 109.50000 418.400000
4458 12703 4928 1 109.50000 418.400000
4926 12703 4927 1 109.50000 418.400000
4926 12703 4928 1 109.50000 418.400000
4927 12703 4928 1 109.50000 418.400000
960 12704 2203 1 109.50000 418.400000
960 12704 4194 1 109.50000 418.400000
960 12704 4931 1 109.50000 418.400000
2203 12704 4194 1 109.50000 418.400000
2203 12704 4931 1 109.50000 418.400000
4194 12704 4931 1 109.50000 418.400000
4933 12705 4934 1 109.50000 418.400000
4933 12705 4935 1 109.50000 418.400000
4933 12705 4936 1 109.50000 418.400000
4934 12705 4935 1 109.50000 418.400000
4934 12705 4936 1 109.50000 418.400000
4935 12705 4936 1 109.50000 418.400000
4938 12706 4939 1 109.50000 418.400000
4938 12706 10105 1 109.50000 418.400000
4938 12706 11369 1 109.50000 418.400000
4939 12706 10105 1 109.50000 418.400000
4939 12706 11369 1 109.50000 418.400000
10105 12706 11369 1 109.50000 418.400000
4941 12707 4942 1 109.50000 418.400000
4941 12707 4943 1 109.50000 418.400000
4941 12707 6815 1 109.50000 418.400000
4942 12707 4943 1 109.50000 418.400000
4942 12707 6815 1 109.50000 418.400000
4943 12707 6815 1 109.50000 418.400000
3850 12708 4944 1 109.50000 418.400000
3850 12708 4945 1 109.50000 418.400000
3850 12708 4946 1 109.50000 418.400000
4944 12708 4945 1 109.50000 418.400000
4944 12708 4946 1 109.50000 418.400000
4945 12708 4946 1 109.50000 418.400000
4744 12709 4947 1 109.50000 418.400000
4744 12709 4948 1 109.50000 418.400000
4744 12709 4949 1 109.50000 418.400000
4947 12709 4948 1 109.50000 418.400000
4947 12709 4949 1 109.50000 418.400000
4948 12709 4949 1 109.50000 418.400000
4950 12710 4951 1 109.50000 418.400000
4950 12710 4952 1 109.50000 418.400000
4950 12710 4953 1 109.50000 418.400000
4951 12710 4952 1 109.50000 418.400000
4951 12710 4953 1 109.50000 418.400000
4952 12710 4953 1 109.50000 418.400000
180 12711 4954 1 109.50000 418.400000
180 12711 4955 1 109.50000 418.400000
180 12711 4956 1 109.50000 418.400000
4954 12711 4955 1 109.50000 418.400000
4954 12711 4956 1 109.50000 418.400000
4955 12711 4956 1 109.50000 418.400000
4957 12712 4958 1 109.50000 418.400000
4957 12712 4959 1 109.50000 418.400000
4957 12712 4960 1 109.50000 418.400000
4958 12712 4959 1 109.50000 418.400000
4958 12712 4960 1 109.50000 418.400000
4959 12712 4960 1 109.50000 418.400000
4454 12713 4961 1 109.50000 418.400000
4454 12713 11284 1 109.50000 418.400000
4454 12713 11327 1 109.50000 418.400000
4961 12713 11284 1 109.50000 418.400000
4961 12713 11327 1 109.50000 418.400000
11284 12713 11327 1 109.50000 418.400000
1777 12714 1943 1 109.50000 418.400000
1777 12714 4962 1 109.50000 418.400000
1777 12714 4963 1 109.50000 418.400000
1943 12714 4962 1 109.50000 418.400000
1943 12714 4963 1 109.50000 418.400000
4962 12714 4963 1 109.50000 418.400000
4780 12715 4964 1 109.50000 418.400000
4780 12715 4965 1 109.50000 418.400000
4780 12715 4966 1 109.50000 418.400000
4964 12715 4965 1 109.50000 418.400000
4964 12715 4966 1 109.50000 418.400000
4965 12715 4966 1 109.50000 418.400000
2296 12716 3299 1 109.50000 418.400000
2296 12716 4967 1 109.50000 418.400000
2296 12716 4968 1 109.50000 418.400000
3299 12716 4967 1 109.50000 418.400000
3299 12716 4968 1 109.50000 418.400000
4967 12716 4968 1 109.50000 418.400000
3679 12717 4969 1 109.50000 418.400000
3679 12717 4970 1 109.50000 418.400000
3679 12717 4971 1 109.50000 418.400000
4969 12717 4970 1 109.50000 418.400000
4969 12717 4971 1 109.50000 418.400000
4970 12717 4971 1 109.50000 418.400000
4972 12718 4973 1 109.50000 418.400000
4972 12718 4974 1 109.50000 418.400000
4972 12718 4975 1 109.50000 418.400000
4973 12718 4974 1 109.50000 418.400000
4973 12718 4975 1 109.50000 418.400000
4974 12718 4975 1 109.50000 418.400000
4244 12719 4976 1 109.50000 418.400000
4244 12719 4977 1 109.50000 418.400000
4244 12719 4978 1 109.50000 418.400000
4976 12719 4977 1 109.50000 418.400000
4976 12719 4978 1 109.50000 418.400000
4977 12719 4978 1 109.50000 418.400000
610 12720 1099 1 109.50000 418.400000
610 12720 4979 1 109.50000 418.400000
610 12720 4980 1 109.50000 418.400000
1099 12720 4979 1 109.50000 418.400000
1099 12720 4980 1 109.50000 418.400000
4979 12720 4980 1 109.50000 418.400000
4981 12721 4982 1 109.50000 418.400000
4981 12721 11255 1 109.50000 418.400000
4981 12721 11304 1 109.50000 418.400000
4982 12721 11255 1 109.50000 418.400000
4982 12721 11304 1 109.50000 418.400000
11255 12721 11304 1 109.50000 418.400000
4600 12722 4983 1 109.50000 418.400000
4600 12722 4984 1 109.50000 418.400000
4600 12722 4985 1 109.50000 418.400000
4983 12722 4984 1 109.50000 418.400000
4983 12722 4985 1 109.50000 418.400000
4984 12722 4985 1 109.50000 418.400000
4986 12723 4987 1 109.50000 418.400000
4986 12723 4988 1 109.50000 418.400000
4986 12723 11067 1 109.50000 418.400000
4987 12723 4988 1 109.50000 418.400000
4987 12723 11067 1 109.50000 418.400000
4988 12723 11067 1 109.50000 418.400000
2405 12724 3614 1 109.50000 418.400000
2405 12724 4381 1 109.50000 418.400000
2405 12724 4989 1 109.50000 418.400000
3614 12724 4381 1 109.50000 418.400000
3614 12724 4989 1 109.50000 418.400000
4381 12724 4989 1 109.50000 418.400000
366 12725 709 1 109.50000 418.400000
366 12725 4992 1 109.50000 418.400000
366 12725 4993 1 109.50000 418.400000
709 12725 4992 1 109.50000 418.400000
709 12725 4993 1 109.50000 418.400000
4992 12725 4993 1 109.50000 418.400000
4998 12726 4999 1 109.50000 418.400000
4998 12726 5000 1 109.50000 418.400000
4998 12726 5001 1 109.50000 418.400000
4999 12726 5000 1 109.50000 418.400000
4999 12726 5001 1 109.50000 418.400000
5000 12726 5001 1 109.50000 418.400000
4232 12727 5002 1 109.50000 418.400000
4232 12727 5003 1 109.50000 418.400000
4232 12727 5004 1 109.50000 418.400000
5002 12727 5003 1 109.50000 418.400000
5002 12727 5004 1 109.50000 418.400000
5003 12727 5004 1 109.50000 418.400000
3383 12728 5005 1 109.50000 418.400000
3383 12728 5006 1 109.50000 418.400000
3383 12728 5007 1 109.50000 418.400000
5005 12728 5006 1 109.50000 418.400000
5005 12728 5007 1 109.50000 418.400000
5006 12728 5007 1 109.50000 418.400000
1849 12729 2202 1 109.50000 418.400000
1849 12729 5008 1 109.50000 418.400000
1849 12729 5009 1 109.50000 418.400000
2202 12729 5008 1 109.50000 418.400000
2202 12729 5009 1 109.50000 418.400000
5008 12729 5009 1 109.50000 418.400000
5010 12730 5013 1 109.50000 418.400000
5010 12730 5858 1 109.50000 418.400000
5010 12730 7761 1 109.50000 418.400000
5013 12730 5858 1 109.50000 418.400000
5013 12730 7761 1 109.50000 418.400000
5858 12730 7761 1 109.50000 418.400000
5014 12731 5015 1 109.50000 418.400000
5014 12731 5016 1 109.50000 418.400000
5014 12731 5017 1 109.50000 418.400000
5015 12731 5016 1 109.50000 418.400000
5015 12731 5017 1 109.50000 418.400000
5016 12731 5017 1 109.50000 418.400000
1642 12732 5018 1 109.50000 418.400000
1642 12732 5019 1 109.50000 418.400000
1642 12732 5020 1 109.50000 418.400000
5018 12732 5019 1 109.50000 418.400000
5018 12732 5020 1 109.50000 418.400000
5019 12732 5020 1 109.50000 418.400000
2123 12733 3310 1 109.50000 418.400000
2123 12733 5021 1 109.50000 418.400000
2123 12733 10156 1 109.50000 418.400000
3310 12733 5021 1 109.50000 418.400000
3310 12733 10156 1 109.50000 418.400000
5021 12733 10156 1 109.50000 418.400000
5022 12734 5023 1 109.50000 418.400000
5022 12734 5024 1 109.50000 418.400000
5022 12734 5025 1 109.50000 418.400000
5023 12734 5024 1 109.50000 418.400000
5023 12734 5025 1 109.50000 418.400000
5024 12734 5025 1 109.50000 418.400000
2883 12735 3713 1 109.50000 418.400000
2883 12735 5026 1 109.50000 418.400000
2883 12735 5027 1 109.50000 418.400000
3713 12735 5026 1 109.50000 418.400000
3713 12735 5027 1 109.50000 418.400000
5026 12735 5027 1 109.50000 418.400000
446 12736 4191 1 109.50000 418.400000
446 12736 5029 1 109.50000 418.400000
446 12736 6715 1 109.50000 418.400000
4191 12736 5029 1 109.50000 418.400000
4191 12736 6715 1 109.50000 418.400000
5029 12736 6715 1 109.50000 418.400000
5032 12737 5033 1 109.50000 418.400000
5032 12737 5034 1 109.50000 418.400000
5032 12737 5035 1 109.50000 418.400000
5033 12737 5034 1 109.50000 418.400000
5033 12737 5035 1 109.50000 418.400000
5034 12737 5035 1 109.50000 418.400000
431 12738 3753 1 109.50000 418.400000
431 12738 5036 1 109.50000 418.400000
431 12738 5037 1 109.50000 418.400000
3753 12738 5036 1 109.50000 418.400000
3753 12738 5037 1 109.50000 418.400000
5036 12738 5037 1 109.50000 418.400000
5039 12739 5040 1 109.50000 418.400000
5039 12739 5041 1 109.50000 418.400000
5039 12739 5042 1 109.50000 418.400000
5040 12739 5041 1 109.50000 418.400000
5040 12739 5042 1 109.50000 418.400000
5041 12739 5042 1 109.50000 418.400000
4571 12740 5045 1 109.50000 418.400000
4571 12740 5046 1 109.50000 418.400000
4571 12740 5047 1 109.50000 418.400000
5045 12740 5046 1 109.50000 418.400000
5045 12740 5047 1 109.50000 418.400000
5046 12740 5047 1 109.50000 418.400000
5048 12741 5050 1 109.50000 418.400000
5048 12741 5051 1 109.50000 418.400000
5048 12741 11090 1 109.50000 418.400000
5050 12741 5051 1 109.50000 418.400000
5050 12741 11090 1 109.50000 418.400000
5051 12741 11090 1 109.50000 418.400000
2601 12742 4876 1 109.50000 418.400000
2601 12742 5052 1 109.50000 418.400000
2601 12742 5053 1 109.50000 418.400000
4876 12742 5052 1 109.50000 418.400000
4876 12742 5053 1 109.50000 418.400000
5052 12742 5053 1 109.50000 418.400000
4182 12743 5056 1 109.50000 418.400000
4182 12743 5057 1 109.50000 418.400000
4182 12743 5058 1 109.50000 418.400000
5056 12743 5057 1 109.50000 418.400000
5056 12743 5058 1 109.50000 418.400000
5057 12743 5058 1 109.50000 418.400000
1660 12744 4690 1 109.50000 418.400000
1660 12744 5060 1 109.50000 418.400000
1660 12744 5061 1 109.50000 418.400000
4690 12744 5060 1 109.50000 418.400000
4690 12744 5061 1 109.50000 418.400000
5060 12744 5061 1 109.50000 418.400000
1139 12745 5062 1 109.50000 418.400000
1139 12745 5063 1 109.50000 418.400000
1139 12745 5064 1 109.50000 418.400000
5062 12745 5063 1 109.50000 418.400000
5062 12745 5064 1 109.50000 418.400000
5063 12745 5064 1 109.50000 418.400000
647 12746 5065 1 109.50000 418.400000
647 12746 5066 1 109.50000 418.400000
647 12746 5067 1 109.50000 418.400000
5065 12746 5066 1 109.50000 418.400000
5065 12746 5067 1 109.50000 418.400000
5066 12746 5067 1 109.50000 418.400000
3535 12747 5068 1 109.50000 418.400000
3535 12747 5069 1 109.50000 418.400000
3535 12747 5070 1 109.50000 418.400000
5068 12747 5069 1 109.50000 418.400000
5068 12747 5070 1 109.50000 418.400000
5069 12747 5070 1 109.50000 418.400000
4545 12748 5071 1 109.50000 418.400000
4545 12748 5072 1 109.50000 418.400000
4545 12748 5073 1 109.50000 418.400000
5071 12748 5072 1 109.50000 418.400000
5071 12748 5073 1 109.50000 418.400000
5072 12748 5073 1 109.50000 418.400000
5074 12749 5075 1 109.50000 418.400000
5074 12749 5076 1 109.50000 418.400000
5074 12749 5077 1 109.50000 418.400000
5075 12749 5076 1 109.50000 418.400000
5075 12749 5077 1 109.50000 418.400000
5076 12749 5077 1 109.50000 418.400000
2142 12750 5078 1 109.50000 418.400000
2142 12750 5079 1 109.50000 418.400000
2142 12750 5080 1 109.50000 418.400000
5078 12750 5079 1 109.50000 418.400000
5078 12750 5080 1 109.50000 418.400000
5079 12750 5080 1 109.50000 418.400000
376 12751 2161 1 109.50000 418.400000
376 12751 5081 1 109.50000 418.400000
376 12751 5082 1 109.50000 418.400000
2161 12751 5081 1 109.50000 418.400000
2161 12751 5082 1 109.50000 418.400000
5081 12751 5082 1 109.50000 418.400000
35 12752 425 1 109.50000 418.400000
35 12752 5083 1 109.50000 418.400000
35 12752 5084 1 109.50000 418.400000
425 12752 5083 1 109.50000 418.400000
425 12752 5084 1 109.50000 418.400000
5083 12752 5084 1 109.50000 418.400000
4222 12753 5085 1 109.50000 418.400000
4222 12753 5086 1 109.50000 418.400000
4222 12753 5087 1 109.50000 418.400000
5085 12753 5086 1 109.50000 418.400000
5085 12753 5087 1 109.50000 418.400000
5086 12753 5087 1 109.50000 418.400000
5088 12754 5089 1 109.50000 418.400000
5088 12754 5090 1 109.50000 418.400000
5088 12754 5091 1 109.50000 418.400000
5089 12754 5090 1 109.50000 418.400000
5089 12754 5091 1 109.50000 418.400000
5090 12754 5091 1 109.50000 418.400000
5092 12755 5093 1 109.50000 418.400000
5092 12755 5094 1 109.50000 418.400000
5092 12755 5095 1 109.50000 418.400000
5093 12755 5094 1 109.50000 418.400000
5093 12755 5095 1 109.50000 418.400000
5094 12755 5095 1 109.50000 418.400000
5096 12756 5097 1 109.50000 418.400000
5096 12756 5098 1 109.50000 418.400000
5096 12756 5099 1 109.50000 418.400000
5097 12756 5098 1 109.50000 418.400000
5097 12756 5099 1 109.50000 418.400000
5098 12756 5099 1 109.50000 418.400000
5100 12757 5101 1 109.50000 418.400000
5100 12757 5102 1 109.50000 418.400000
5100 12757 5103 1 109.50000 418.400000
5101 12757 5102 1 109.50000 418.400000
5101 12757 5103 1 109.50000 418.400000
5102 12757 5103 1 109.50000 418.400000
2997 12758 4997 1 109.50000 418.400000
2997 12758 5106 1 109.50000 418.400000
2997 12758 5107 1 109.50000 418.400000
4997 12758 5106 1 109.50000 418.400000
4997 12758 5107 1 109.50000 418.400000
5106 12758 5107 1 109.50000 418.400000
5108 12759 5109 1 109.50000 418.400000
5108 12759 5110 1 109.50000 418.400000
5108 12759 5111 1 109.50000 418.400000
5109 12759 5110 1 109.50000 418.400000
5109 12759 5111 1 109.50000 418.400000
5110 12759 5111 1 109.50000 418.400000
5112 12760 5113 1 109.50000 418.400000
5112 12760 5114 1 109.50000 418.400000
5112 12760 6356 1 109.50000 418.400000
5113 12760 5114 1 109.50000 418.400000
5113 12760 6356 1 109.50000 418.400000
5114 12760 6356 1 109.50000 418.400000
2175 12761 4734 1 109.50000 418.400000
2175 12761 5116 1 109.50000 418.400000
2175 12761 5117 1 109.50000 418.400000
4734 12761 5116 1 109.50000 418.400000
4734 12761 5117 1 109.50000 418.400000
5116 12761 5117 1 109.50000 418.400000
5118 12762 5119 1 109.50000 418.400000
5118 12762 5120 1 109.50000 418.400000
5118 12762 5121 1 109.50000 418.400000
5119 12762 5120 1 109.50000 418.400000
5119 12762 5121 1 109.50000 418.400000
5120 12762 5121 1 109.50000 418.400000
360 12763 5122 1 109.50000 418.400000
360 12763 5123 1 109.50000 418.400000
360 12763 5124 1 109.50000 418.400000
5122 12763 5123 1 109.50000 418.400000
5122 12763 5124 1 109.50000 418.400000
5123 12763 5124 1 109.50000 418.400000
2806 12764 5123 1 109.50000 418.400000
2806 12764 5125 1 109.50000 418.400000
2806 12764 5126 1 109.50000 418.400000
5123 12764 5125 1 109.50000 418.400000
5123 12764 5126 1 109.50000 418.400000
5125 12764 5126 1 109.50000 418.400000
1653 12765 5127 1 109.50000 418.400000
1653 12765 5128 1 109.50000 418.400000
1653 12765 5129 1 109.50000 418.400000
5127 12765 5128 1 109.50000 418.400000
5127 12765 5129 1 109.50000 418.400000
5128 12765 5129 1 109.50000 418.400000
2109 12766 4061 1 109.50000 418.400000
2109 12766 5133 1 109.50000 418.400000
2109 12766 5134 1 109.50000 418.400000
4061 12766 5133 1 109.50000 418.400000
4061 12766 5134 1 109.50000 418.400000
5133 12766 5134 1 109.50000 418.400000
5135 12767 5136 1 109.50000 418.400000
5135 12767 9621 1 109.50000 418.400000
5135 12767 11172 1 109.50000 418.400000
5136 12767 9621 1 109.50000 418.400000
5136 12767 11172 1 109.50000 418.400000
9621 12767 11172 1 109.50000 418.400000
5137 12768 5138 1 109.50000 418.400000
5137 12768 5139 1 109.50000 418.400000
5137 12768 5140 1 109.50000 418.400000
5138 12768 5139 1 109.50000 418.400000
5138 12768 5140 1 109.50000 418.400000
5139 12768 5140 1 109.50000 418.400000
5144 12769 5145 1 109.50000 418.400000
5144 12769 5146 1 109.50000 418.400000
5144 12769 5147 1 109.50000 418.400000
5145 12769 5146 1 109.50000 418.400000
5145 12769 5147 1 109.50000 418.400000
5146 12769 5147 1 109.50000 418.400000
1770 12770 5148 1 109.50000 418.400000
1770 12770 5149 1 109.50000 418.400000
1770 12770 5150 1 109.50000 418.400000
5148 12770 5149 1 109.50000 418.400000
5148 12770 5150 1 109.50000 418.400000
5149 12770 5150 1 109.50000 418.400000
3180 12771 5151 1 109.50000 418.400000
3180 12771 5152 1 109.50000 418.400000
3180 12771 5153 1 109.50000 418.400000
5151 12771 5152 1 109.50000 418.400000
5151 12771 5153 1 109.50000 418.400000
5152 12771 5153 1 109.50000 418.400000
700 12772 5154 1 109.50000 418.400000
700 12772 5155 1 109.50000 418.400000
700 12772 5156 1 109.50000 418.400000
5154 12772 5155 1 109.50000 418.400000
5154 12772 5156 1 109.50000 418.400000
5155 12772 5156 1 109.50000 418.400000
5157 12773 5158 1 109.50000 418.400000
5157 12773 5159 1 109.50000 418.400000
5157 12773 5160 1 109.50000 418.400000
5158 12773 5159 1 109.50000 418.400000
5158 12773 5160 1 109.50000 418.400000
5159 12773 5160 1 109.50000 418.400000
293 12774 2937 1 109.50000 418.400000
293 12774 5162 1 109.50000 418.400000
293 12774 9999 1 109.50000 418.400000
2937 12774 5162 1 109.50000 418.400000
2937 12774 9999 1 109.50000 418.400000
5162 12774 9999 1 109.50000 418.400000
3686 12775 5163 1 109.50000 418.400000
3686 12775 5164 1 109.50000 418.400000
3686 12775 11138 1 109.50000 418.400000
5163 12775 5164 1 109.50000 418.400000
5163 12775 11138 1 109.50000 418.400000
5164 12775 11138 1 109.50000 418.400000
342 12776 4193 1 109.50000 418.400000
342 12776 5165 1 109.50000 418.400000
342 12776 5166 1 109.50000 418.400000
4193 12776 5165 1 109.50000 418.400000
4193 12776 5166 1 109.50000 418.400000
5165 12776 5166 1 109.50000 418.400000
1978 12777 2985 1 109.50000 418.400000
1978 12777 5167 1 109.50000 418.400000
1978 12777 5168 1 109.50000 418.400000
2985 12777 5167 1 109.50000 418.400000
2985 12777 5168 1 109.50000 418.400000
5167 12777 5168 1 109.50000 418.400000
1205 12778 3777 1 109.50000 418.400000
1205 12778 5169 1 109.50000 418.400000
1205 12778 5170 1 109.50000 418.400000
3777 12778 5169 1 109.50000 418.400000
3777 12778 5170 1 109.50000 418.400000
5169 12778 5170 1 109.50000 418.400000
2994 12779 3386 1 109.50000 418.400000
2994 12779 3688 1 109.50000 418.400000
2994 12779 5171 1 109.50000 418.400000
3386 12779 3688 1 109.50000 418.400000
3386 12779 5171 1 109.50000 418.400000
3688 12779 5171 1 109.50000 418.400000
2443 12780 5172 1 109.50000 418.400000
2443 12780 11193 1 109.50000 418.400000
2443 12780 11343 1 109.50000 418.400000
5172 12780 11193 1 109.50000 418.400000
5172 12780 11343 1 109.50000 418.400000
11193 12780 11343 1 109.50000 418.400000
5175 12781 5176 1 109.50000 418.400000
5175 12781 5177 1 109.50000 418.400000
5175 12781 5178 1 109.50000 418.400000
5176 12781 5177 1 109.50000 418.400000
5176 12781 5178 1 109.50000 418.400000
5177 12781 5178 1 109.50000 418.400000
3095 12782 5179 1 109.50000 418.400000
3095 12782 5180 1 109.50000 418.400000
3095 12782 5181 1 109.50000 418.400000
5179 12782 5180 1 109.50000 418.400000
5179 12782 5181 1 109.50000 418.400000
5180 12782 5181 1 109.50000 418.400000
2852 12783 5182 1 109.50000 418.400000
2852 12783 5183 1 109.50000 418.400000
2852 12783 5184 1 109.50000 418.400000
5182 12783 5183 1 109.50000 418.400000
5182 12783 5184 1 109.50000 418.400000
5183 12783 5184 1 109.50000 418.400000
5185 12784 5186 1 109.50000 418.400000
5185 12784 5187 1 109.50000 418.400000
5185 12784 5745 1 109.50000 418.400000
5186 12784 5187 1 109.50000 418.400000
5186 12784 5745 1 109.50000 418.400000
5187 12784 5745 1 109.50000 418.400000
2188 12785 3950 1 109.50000 418.400000
2188 12785 5008 1 109.50000 418.400000
2188 12785 5190 1 109.50000 418.400000
3950 12785 5008 1 109.50000 418.400000
3950 12785 5190 1 109.50000 418.400000
5008 12785 5190 1 109.50000 418.400000
4022 12786 5191 1 109.50000 418.400000
4022 12786 5192 1 109.50000 418.400000
4022 12786 5193 1 109.50000 418.400000
5191 12786 5192 1 109.50000 418.400000
5191 12786 5193 1 109.50000 418.400000
5192 12786 5193 1 109.50000 418.400000
2592 12787 5194 1 109.50000 418.400000
2592 12787 5195 1 109.50000 418.400000
2592 12787 5196 1 109.50000 418.400000
5194 12787 5195 1 109.50000 418.400000
5194 12787 5196 1 109.50000 418.400000
5195 12787 5196 1 109.50000 418.400000
4821 12788 5197 1 109.50000 418.400000
4821 12788 5198 1 109.50000 418.400000
4821 12788 5199 1 109.50000 418.400000
5197 12788 5198 1 109.50000 418.400000
5197 12788 5199 1 109.50000 418.400000
5198 12788 5199 1 109.50000 418.400000
987 12789 5200 1 109.50000 418.400000
987 12789 5201 1 109.50000 418.400000
987 12789 5202 1 109.50000 418.400000
5200 12789 5201 1 109.50000 418.400000
5200 12789 5202 1 109.50000 418.400000
5201 12789 5202 1 109.50000 418.400000
5203 12790 5204 1 109.50000 418.400000
5203 12790 5205 1 109.50000 418.400000
5203 12790 6479 1 109.50000 418.400000
5204 12790 5205 1 109.50000 418.400000
5204 12790 6479 1 109.50000 418.400000
5205 12790 6479 1 109.50000 418.400000
5206 12791 5208 1 109.50000 418.400000
5206 12791 5209 1 109.50000 418.400000
5206 12791 5955 1 109.50000 418.400000
5208 12791 5209 1 109.50000 418.400000
5208 12791 5955 1 109.50000 418.400000
5209 12791 5955 1 109.50000 418.400000
5210 12792 5211 1 109.50000 418.400000
5210 12792 5212 1 109.50000 418.400000
5210 12792 5213 1 109.50000 418.400000
5211 12792 5212 1 109.50000 418.400000
5211 12792 5213 1 109.50000 418.400000
5212 12792 5213 1 109.50000 418.400000
2023 12793 5214 1 109.50000 418.400000
2023 12793 5215 1 109.50000 418.400000
2023 12793 5216 1 109.50000 418.400000
5214 12793 5215 1 109.50000 418.400000
5214 12793 5216 1 109.50000 418.400000
5215 12793 5216 1 109.50000 418.400000
5217 12794 5218 1 109.50000 418.400000
5217 12794 5219 1 109.50000 418.400000
5217 12794 5220 1 109.50000 418.400000
5218 12794 5219 1 109.50000 418.400000
5218 12794 5220 1 109.50000 418.400000
5219 12794 5220 1 109.50000 418.400000
1643 12795 5134 1 109.50000 418.400000
1643 12795 5221 1 109.50000 418.400000
1643 12795 11213 1 109.50000 418.400000
5134 12795 5221 1 109.50000 418.400000
5134 12795 11213 1 109.50000 418.400000
5221 12795 11213 1 109.50000 418.400000
1204 12796 1782 1 109.50000 418.400000
1204 12796 3778 1 109.50000 418.400000
1204 12796 5222 1 109.50000 418.400000
1782 12796 3778 1 109.50000 418.400000
1782 12796 5222 1 109.50000 418.400000
3778 12796 5222 1 109.50000 418.400000
5224 12797 5225 1 109.50000 418.400000
5224 12797 5226 1 109.50000 418.400000
5224 12797 8421 1 109.50000 418.400000
5225 12797 5226 1 109.50000 418.400000
5225 12797 8421 1 109.50000 418.400000
5226 12797 8421 1 109.50000 418.400000
5227 12798 5228 1 109.50000 418.400000
5227 12798 5229 1 109.50000 418.400000
5227 12798 5230 1 109.50000 418.400000
5228 12798 5229 1 109.50000 418.400000
5228 12798 5230 1 109.50000 418.400000
5229 12798 5230 1 109.50000 418.400000
317 12799 5232 1 109.50000 418.400000
317 12799 5233 1 109.50000 418.400000
317 12799 10628 1 109.50000 418.400000
5232 12799 5233 1 109.50000 418.400000
5232 12799 10628 1 109.50000 418.400000
5233 12799 10628 1 109.50000 418.400000
1288 12800 5234 1 109.50000 418.400000
1288 12800 5235 1 109.50000 418.400000
1288 12800 11315 1 109.50000 418.400000
5234 12800 5235 1 109.50000 418.400000
5234 12800 11315 1 109.50000 418.400000
5235 12800 11315 1 109.50000 418.400000
1258 12801 3717 1 109.50000 418.400000
1258 12801 5236 1 109.50000 418.400000
1258 12801 5237 1 109.50000 418.400000
3717 12801 5236 1 109.50000 418.400000
3717 12801 5237 1 109.50000 418.400000
5236 12801 5237 1 109.50000 418.400000
5238 12802 5240 1 109.50000 418.400000
5238 12802 5241 1 109.50000 418.400000
5238 12802 9128 1 109.50000 418.400000
5240 12802 5241 1 109.50000 418.400000
5240 12802 9128 1 109.50000 418.400000
5241 12802 9128 1 109.50000 418.400000
5242 12803 5243 1 109.50000 418.400000
5242 12803 5244 1 109.50000 418.400000
5242 12803 5245 1 109.50000 418.400000
5243 12803 5244 1 109.50000 418.400000
5243 12803 5245 1 109.50000 418.400000
5244 12803 5245 1 109.50000 418.400000
1497 12804 5246 1 109.50000 418.400000
1497 12804 5247 1 109.50000 418.400000
1497 12804 5248 1 109.50000 418.400000
5246 12804 5247 1 109.50000 418.400000
5246 12804 5248 1 109.50000 418.400000
5247 12804 5248 1 109.50000 418.400000
5249 12805 5250 1 109.50000 418.400000
5249 12805 5251 1 109.50000 418.400000
5249 12805 11168 1 109.50000 418.400000
5250 12805 5251 1 109.50000 418.400000
5250 12805 11168 1 109.50000 418.400000
5251 12805 11168 1 109.50000 418.400000
5253 12806 5254 1 109.50000 418.400000
5253 12806 5255 1 109.50000 418.400000
5253 12806 6222 1 109.50000 418.400000
5254 12806 5255 1 109.50000 418.400000
5254 12806 6222 1 109.50000 418.400000
5255 12806 6222 1 109.50000 418.400000
3632 12807 4521 1 109.50000 418.400000
3632 12807 5258 1 109.50000 418.400000
3632 12807 5259 1 109.50000 418.400000
4521 12807 5258 1 109.50000 418.400000
4521 12807 5259 1 109.50000 418.400000
5258 12807 5259 1 109.50000 418.400000
561 12808 5262 1 109.50000 418.400000
561 12808 5263 1 109.50000 418.400000
561 12808 5264 1 109.50000 418.400000
5262 12808 5263 1 109.50000 418.400000
5262 12808 5264 1 109.50000 418.400000
5263 12808 5264 1 109.50000 418.400000
1242 12809 5265 1 109.50000 418.400000
1242 12809 5266 1 109.50000 418.400000
1242 12809 9329 1 109.50000 418.400000
5265 12809 5266 1 109.50000 418.400000
5265 12809 9329 1 109.50000 418.400000
5266 12809 9329 1 109.50000 418.400000
5267 12810 5268 1 109.50000 418.400000
5267 12810 5269 1 109.50000 418.400000
5267 12810 5270 1 109.50000 418.400000
5268 12810 5269 1 109.50000 418.400000
5268 12810 5270 1 109.50000 418.400000
5269 12810 5270 1 109.50000 418.400000
1309 12811 5271 1 109.50000 418.400000
1309 12811 5272 1 109.50000 418.400000
1309 12811 5273 1 109.50000 418.400000
5271 12811 5272 1 109.50000 418.400000
5271 12811 5273 1 109.50000 418.400000
5272 12811 5273 1 109.50000 418.400000
848 12812 5274 1 109.50000 418.400000
848 12812 5275 1 109.50000 418.400000
848 12812 5276 1 109.50000 418.400000
5274 12812 5275 1 109.50000 418.400000
5274 12812 5276 1 109.50000 418.400000
5275 12812 5276 1 109.50000 418.400000
5277 12813 5278 1 109.50000 418.400000
5277 12813 5279 1 109.50000 418.400000
5277 12813 5280 1 109.50000 418.400000
5278 12813 5279 1 109.50000 418.400000
5278 12813 5280 1 109.50000 418.400000
5279 12813 5280 1 109.50000 418.400000
5281 12814 5282 1 109.50000 418.400000
5281 12814 5283 1 109.50000 418.400000
5281 12814 5284 1 109.50000 418.400000
5282 12814 5283 1 109.50000 418.400000
5282 12814 5284 1 109.50000 418.400000
5283 12814 5284 1 109.50000 418.400000
432 12815 674 1 109.50000 418.400000
432 12815 5285 1 109.50000 418.400000
432 12815 5286 1 109.50000 418.400000
674 12815 5285 1 109.50000 418.400000
674 12815 5286 1 109.50000 418.400000
5285 12815 5286 1 109.50000 418.400000
2789 12816 5289 1 109.50000 418.400000
2789 12816 5290 1 109.50000 418.400000
2789 12816 5291 1 109.50000 418.400000
5289 12816 5290 1 109.50000 418.400000
5289 12816 5291 1 109.50000 418.400000
5290 12816 5291 1 109.50000 418.400000
861 12817 5292 1 109.50000 418.400000
861 12817 5293 1 109.50000 418.400000
861 12817 5294 1 109.50000 418.400000
5292 12817 5293 1 109.50000 418.400000
5292 12817 5294 1 109.50000 418.400000
5293 12817 5294 1 109.50000 418.400000
25 12818 5295 1 109.50000 418.400000
25 12818 5296 1 109.50000 418.400000
25 12818 5297 1 109.50000 418.400000
5295 12818 5296 1 109.50000 418.400000
5295 12818 5297 1 109.50000 418.400000
5296 12818 5297 1 109.50000 418.400000
336 12819 5300 1 109.50000 418.400000
336 12819 5301 1 109.50000 418.400000
336 12819 5302 1 109.50000 418.400000
5300 12819 5301 1 109.50000 418.400000
5300 12819 5302 1 109.50000 418.400000
5301 12819 5302 1 109.50000 418.400000
1174 12820 1666 1 109.50000 418.400000
1174 12820 5303 1 109.50000 418.400000
1174 12820 5304 1 109.50000 418.400000
1666 12820 5303 1 109.50000 418.400000
1666 12820 5304 1 109.50000 418.400000
5303 12820 5304 1 109.50000 418.400000
804 12821 5305 1 109.50000 418.400000
804 12821 5306 1 109.50000 418.400000
804 12821 5307 1 109.50000 418.400000
5305 12821 5306 1 109.50000 418.400000
5305 12821 5307 1 109.50000 418.400000
5306 12821 5307 1 109.50000 418.400000
5308 12822 5309 1 109.50000 418.400000
5308 12822 5310 1 109.50000 418.400000
5308 12822 5311 1 109.50000 418.400000
5309 12822 5310 1 109.50000 418.400000
5309 12822 5311 1 109.50000 418.400000
5310 12822 5311 1 109.50000 418.400000
608 12823 1963 1 109.50000 418.400000
608 12823 4210 1 109.50000 418.400000
608 12823 5312 1 109.50000 418.400000
1963 12823 4210 1 109.50000 418.400000
1963 12823 5312 1 109.50000 418.400000
4210 12823 5312 1 109.50000 418.400000
5313 12824 5314 1 109.50000 418.400000
5313 12824 5315 1 109.50000 418.400000
5313 12824 5316 1 109.50000 418.400000
5314 12824 5315 1 109.50000 418.400000
5314 12824 5316 1 109.50000 418.400000
5315 12824 5316 1 109.50000 418.400000
5317 12825 5318 1 109.50000 418.400000
5317 12825 5319 1 109.50000 418.400000
5317 12825 5320 1 109.50000 418.400000
5318 12825 5319 1 109.50000 418.400000
5318 12825 5320 1 109.50000 418.400000
5319 12825 5320 1 109.50000 418.400000
1196 12826 5321 1 109.50000 418.400000
1196 12826 5322 1 109.50000 418.400000
1196 12826 5323 1 109.50000 418.400000
5321 12826 5322 1 109.50000 418.400000
5321 12826 5323 1 109.50000 418.400000
5322 12826 5323 1 109.50000 418.400000
2764 12827 5326 1 109.50000 418.400000
2764 12827 5327 1 109.50000 418.400000
2764 12827 5328 1 109.50000 418.400000
5326 12827 5327 1 109.50000 418.400000
5326 12827 5328 1 109.50000 418.400000
5327 12827 5328 1 109.50000 418.400000
1792 12828 4654 1 109.50000 418.400000
1792 12828 5158 1 109.50000 418.400000
1792 12828 5329 1 109.50000 418.400000
4654 12828 5158 1 109.50000 418.400000
4654 12828 5329 1 109.50000 418.400000
5158 12828 5329 1 109.50000 418.400000
1317 12829 5330 1 109.50000 418.400000
1317 12829 5331 1 109.50000 418.400000
1317 12829 5332 1 109.50000 418.400000
5330 12829 5331 1 109.50000 418.400000
5330 12829 5332 1 109.50000 418.400000
5331 12829 5332 1 109.50000 418.400000
3331 12830 4327 1 109.50000 418.400000
3331 12830 5333 1 109.50000 418.400000
3331 12830 5334 1 109.50000 418.400000
4327 12830 5333 1 109.50000 418.400000
4327 12830 5334 1 109.50000 418.400000
5333 12830 5334 1 109.50000 418.400000
5336 12831 9892 1 109.50000 418.400000
5336 12831 10576 1 109.50000 418.400000
5336 12831 10681 1 109.50000 418.400000
9892 12831 10576 1 109.50000 418.400000
9892 12831 10681 1 109.50000 418.400000
10576 12831 10681 1 109.50000 418.400000
5308 12832 5339 1 109.50000 418.400000
5308 12832 5340 1 109.50000 418.400000
5308 12832 5341 1 109.50000 418.400000
5339 12832 5340 1 109.50000 418.400000
5339 12832 5341 1 109.50000 418.400000
5340 12832 5341 1 109.50000 418.400000
268 12833 1769 1 109.50000 418.400000
268 12833 5342 1 109.50000 418.400000
268 12833 5343 1 109.50000 418.400000
1769 12833 5342 1 109.50000 418.400000
1769 12833 5343 1 109.50000 418.400000
5342 12833 5343 1 109.50000 418.400000
454 12834 5345 1 109.50000 418.400000
454 12834 5346 1 109.50000 418.400000
454 12834 5347 1 109.50000 418.400000
5345 12834 5346 1 109.50000 418.400000
5345 12834 5347 1 109.50000 418.400000
5346 12834 5347 1 109.50000 418.400000
3794 12835 5348 1 109.50000 418.400000
3794 12835 5349 1 109.50000 418.400000
3794 12835 5350 1 109.50000 418.400000
5348 12835 5349 1 109.50000 418.400000
5348 12835 5350 1 109.50000 418.400000
5349 12835 5350 1 109.50000 418.400000
3034 12836 4956 1 109.50000 418.400000
3034 12836 5353 1 109.50000 418.400000
3034 12836 11325 1 109.50000 418.400000
4956 12836 5353 1 109.50000 418.400000
4956 12836 11325 1 109.50000 418.400000
5353 12836 11325 1 109.50000 418.400000
4901 12837 5155 1 109.50000 418.400000
4901 12837 5354 1 109.50000 418.400000
4901 12837 5355 1 109.50000 418.400000
5155 12837 5354 1 109.50000 418.400000
5155 12837 5355 1 109.50000 418.400000
5354 12837 5355 1 109.50000 418.400000
5357 12838 5358 1 109.50000 418.400000
5357 12838 5359 1 109.50000 418.400000
5357 12838 5360 1 109.50000 418.400000
5358 12838 5359 1 109.50000 418.400000
5358 12838 5360 1 109.50000 418.400000
5359 12838 5360 1 109.50000 418.400000
2087 12839 5361 1 109.50000 418.400000
2087 12839 5362 1 109.50000 418.400000
2087 12839 5363 1 109.50000 418.400000
5361 12839 5362 1 109.50000 418.400000
5361 12839 5363 1 109.50000 418.400000
5362 12839 5363 1 109.50000 418.400000
130 12840 1376 1 109.50000 418.400000
130 12840 5364 1 109.50000 418.400000
130 12840 5365 1 109.50000 418.400000
1376 12840 5364 1 109.50000 418.400000
1376 12840 5365 1 109.50000 418.400000
5364 12840 5365 1 109.50000 418.400000
4024 12841 5366 1 109.50000 418.400000
4024 12841 5367 1 109.50000 418.400000
4024 12841 5368 1 109.50000 418.400000
5366 12841 5367 1 109.50000 418.400000
5366 12841 5368 1 109.50000 418.400000
5367 12841 5368 1 109.50000 418.400000
3416 12842 5369 1 109.50000 418.400000
3416 12842 5370 1 109.50000 418.400000
3416 12842 5371 1 109.50000 418.400000
5369 12842 5370 1 109.50000 418.400000
5369 12842 5371 1 109.50000 418.400000
5370 12842 5371 1 109.50000 418.400000
1613 12843 2514 1 109.50000 418.400000
1613 12843 3459 1 109.50000 418.400000
1613 12843 5372 1 109.50000 418.400000
2514 12843 3459 1 109.50000 418.400000
2514 12843 5372 1 109.50000 418.400000
3459 12843 5372 1 109.50000 418.400000
5377 12844 5378 1 109.50000 418.400000
5377 12844 5419 1 109.50000 418.400000
5377 12844 7144 1 109.50000 418.400000
5378 12844 5419 1 109.50000 418.400000
5378 12844 7144 1 109.50000 418.400000
5419 12844 7144 1 109.50000 418.400000
2851 12845 4924 1 109.50000 418.400000
2851 12845 5379 1 109.50000 418.400000
2851 12845 5380 1 109.50000 418.400000
4924 12845 5379 1 109.50000 418.400000
4924 12845 5380 1 109.50000 418.400000
5379 12845 5380 1 109.50000 418.400000
858 12846 871 1 109.50000 418.400000
858 12846 966 1 109.50000 418.400000
858 12846 5381 1 109.50000 418.400000
871 12846 966 1 109.50000 418.400000
871 12846 5381 1 109.50000 418.400000
966 12846 5381 1 109.50000 418.400000
1147 12847 5382 1 109.50000 418.400000
1147 12847 5383 1 109.50000 418.400000
1147 12847 5384 1 109.50000 418.400000
5382 12847 5383 1 109.50000 418.400000
5382 12847 5384 1 109.50000 418.400000
5383 12847 5384 1 109.50000 418.400000
5181 12848 5385 1 109.50000 418.400000
5181 12848 5386 1 109.50000 418.400000
5181 12848 5387 1 109.50000 418.400000
5385 12848 5386 1 109.50000 418.400000
5385 12848 5387 1 109.50000 418.400000
5386 12848 5387 1 109.50000 418.400000
3806 12849 5388 1 109.50000 418.400000
3806 12849 5389 1 109.50000 418.400000
3806 12849 5390 1 109.50000 418.400000
5388 12849 5389 1 109.50000 418.400000
5388 12849 5390 1 109.50000 418.400000
5389 12849 5390 1 109.50000 418.400000
3301 12850 5391 1 109.50000 418.400000
3301 12850 5392 1 109.50000 418.400000
3301 12850 11170 1 109.50000 418.400000
5391 12850 5392 1 109.50000 418.400000
5391 12850 11170 1 109.50000 418.400000
5392 12850 11170 1 109.50000 418.400000
5395 12851 5396 1 109.50000 418.400000
5395 12851 5397 1 109.50000 418.400000
5395 12851 5398 1 109.50000 418.400000
5396 12851 5397 1 109.50000 418.400000
5396 12851 5398 1 109.50000 418.400000
5397 12851 5398 1 109.50000 418.400000
5399 12852 5400 1 109.50000 418.400000
5399 12852 5401 1 109.50000 418.400000
5399 12852 5402 1 109.50000 418.400000
5400 12852 5401 1 109.50000 418.400000
5400 12852 5402 1 109.50000 418.400000
5401 12852 5402 1 109.50000 418.400000
5276 12853 5403 1 109.50000 418.400000
5276 12853 5404 1 109.50000 418.400000
5276 12853 5405 1 109.50000 418.400000
5403 12853 5404 1 109.50000 418.400000
5403 12853 5405 1 109.50000 418.400000
5404 12853 5405 1 109.50000 418.400000
4678 12854 5406 1 109.50000 418.400000
4678 12854 5407 1 109.50000 418.400000
4678 12854 5408 1 109.50000 418.400000
5406 12854 5407 1 109.50000 418.400000
5406 12854 5408 1 109.50000 418.400000
5407 12854 5408 1 109.50000 418.400000
315 12855 1617 1 109.50000 418.400000
315 12855 5409 1 109.50000 418.400000
315 12855 5410 1 109.50000 418.400000
1617 12855 5409 1 109.50000 418.400000
1617 12855 5410 1 109.50000 418.400000
5409 12855 5410 1 109.50000 418.400000
2695 12856 5124 1 109.50000 418.400000
2695 12856 5411 1 109.50000 418.400000
2695 12856 5412 1 109.50000 418.400000
5124 12856 5411 1 109.50000 418.400000
5124 12856 5412 1 109.50000 418.400000
5411 12856 5412 1 109.50000 418.400000
2234 12857 5413 1 109.50000 418.400000
2234 12857 5414 1 109.50000 418.400000
2234 12857 11375 1 109.50000 418.400000
5413 12857 5414 1 109.50000 418.400000
5413 12857 11375 1 109.50000 418.400000
5414 12857 11375 1 109.50000 418.400000
5415 12858 5416 1 109.50000 418.400000
5415 12858 10084 1 109.50000 418.400000
5415 12858 11357 1 109.50000 418.400000
5416 12858 10084 1 109.50000 418.400000
5416 12858 11357 1 109.50000 418.400000
10084 12858 11357 1 109.50000 418.400000
5370 12859 5417 1 109.50000 418.400000
5370 12859 5418 1 109.50000 418.400000
5370 12859 5419 1 109.50000 418.400000
5417 12859 5418 1 109.50000 418.400000
5417 12859 5419 1 109.50000 418.400000
5418 12859 5419 1 109.50000 418.400000
5420 12860 5421 1 109.50000 418.400000
5420 12860 5422 1 109.50000 418.400000
5420 12860 5423 1 109.50000 418.400000
5421 12860 5422 1 109.50000 418.400000
5421 12860 5423 1 109.50000 418.400000
5422 12860 5423 1 109.50000 418.400000
2388 12861 5424 1 109.50000 418.400000
2388 12861 5425 1 109.50000 418.400000
2388 12861 5426 1 109.50000 418.400000
5424 12861 5425 1 109.50000 418.400000
5424 12861 5426 1 109.50000 418.400000
5425 12861 5426 1 109.50000 418.400000
5429 12862 5430 1 109.50000 418.400000
5429 12862 7418 1 109.50000 418.400000
5429 12862 9923 1 109.50000 418.400000
5430 12862 7418 1 109.50000 418.400000
5430 12862 9923 1 109.50000 418.400000
7418 12862 9923 1 109.50000 418.400000
3245 12863 5431 1 109.50000 418.400000
3245 12863 5432 1 109.50000 418.400000
3245 12863 5433 1 109.50000 418.400000
5431 12863 5432 1 109.50000 418.400000
5431 12863 5433 1 109.50000 418.400000
5432 12863 5433 1 109.50000 418.400000
3037 12864 5434 1 109.50000 418.400000
3037 12864 5435 1 109.50000 418.400000
3037 12864 5436 1 109.50000 418.400000
5434 12864 5435 1 109.50000 418.400000
5434 12864 5436 1 109.50000 418.400000
5435 12864 5436 1 109.50000 418.400000
5437 12865 5438 1 109.50000 418.400000
5437 12865 5439 1 109.50000 418.400000
5437 12865 9159 1 109.50000 418.400000
5438 12865 5439 1 109.50000 418.400000
5438 12865 9159 1 109.50000 418.400000
5439 12865 9159 1 109.50000 418.400000
1129 12866 5441 1 109.50000 418.400000
1129 12866 5442 1 109.50000 418.400000
1129 12866 5443 1 109.50000 418.400000
5441 12866 5442 1 109.50000 418.400000
5441 12866 5443 1 109.50000 418.400000
5442 12866 5443 1 109.50000 418.400000
2527 12867 5446 1 109.50000 418.400000
2527 12867 5447 1 109.50000 418.400000
2527 12867 8593 1 109.50000 418.400000
5446 12867 5447 1 109.50000 418.400000
5446 12867 8593 1 109.50000 418.400000
5447 12867 8593 1 109.50000 418.400000
5318 12868 5448 1 109.50000 418.400000
5318 12868 5449 1 109.50000 418.400000
5318 12868 9465 1 109.50000 418.400000
5448 12868 5449 1 109.50000 418.400000
5448 12868 9465 1 109.50000 418.400000
5449 12868 9465 1 109.50000 418.400000
1720 12869 1721 1 109.50000 418.400000
1720 12869 1722 1 109.50000 418.400000
1720 12869 5450 1 109.50000 418.400000
1721 12869 1722 1 109.50000 418.400000
1721 12869 5450 1 109.50000 418.400000
1722 12869 5450 1 109.50000 418.400000
484 12870 5453 1 109.50000 418.400000
484 12870 5454 1 109.50000 418.400000
484 12870 5455 1 109.50000 418.400000
5453 12870 5454 1 109.50000 418.400000
5453 12870 5455 1 109.50000 418.400000
5454 12870 5455 1 109.50000 418.400000
5456 12871 5457 1 109.50000 418.400000
5456 12871 5458 1 109.50000 418.400000
5456 12871 5459 1 109.50000 418.400000
5457 12871 5458 1 109.50000 418.400000
5457 12871 5459 1 109.50000 418.400000
5458 12871 5459 1 109.50000 418.400000
5460 12872 5461 1 109.50000 418.400000
5460 12872 5462 1 109.50000 418.400000
5460 12872 5463 1 109.50000 418.400000
5461 12872 5462 1 109.50000 418.400000
5461 12872 5463 1 109.50000 418.400000
5462 12872 5463 1 109.50000 418.400000
246 12873 682 1 109.50000 418.400000
246 12873 3393 1 109.50000 418.400000
246 12873 3439 1 109.50000 418.400000
682 12873 3393 1 109.50000 418.400000
682 12873 3439 1 109.50000 418.400000
3393 12873 3439 1 109.50000 418.400000
4891 12874 5404 1 109.50000 418.400000
4891 12874 5465 1 109.50000 418.400000
4891 12874 5466 1 109.50000 418.400000
5404 12874 5465 1 109.50000 418.400000
5404 12874 5466 1 109.50000 418.400000
5465 12874 5466 1 109.50000 418.400000
5467 12875 5468 1 109.50000 418.400000
5467 12875 5469 1 109.50000 418.400000
5467 12875 11211 1 109.50000 418.400000
5468 12875 5469 1 109.50000 418.400000
5468 12875 11211 1 109.50000 418.400000
5469 12875 11211 1 109.50000 418.400000
2670 12876 4756 1 109.50000 418.400000
2670 12876 5470 1 109.50000 418.400000
2670 12876 5471 1 109.50000 418.400000
4756 12876 5470 1 109.50000 418.400000
4756 12876 5471 1 109.50000 418.400000
5470 12876 5471 1 109.50000 418.400000
542 12877 2211 1 109.50000 418.400000
542 12877 5474 1 109.50000 418.400000
542 12877 5475 1 109.50000 418.400000
2211 12877 5474 1 109.50000 418.400000
2211 12877 5475 1 109.50000 418.400000
5474 12877 5475 1 109.50000 418.400000
902 12878 903 1 109.50000 418.400000
902 12878 904 1 109.50000 418.400000
902 12878 905 1 109.50000 418.400000
903 12878 904 1 109.50000 418.400000
903 12878 905 1 109.50000 418.400000
904 12878 905 1 109.50000 418.400000
2356 12879 3115 1 109.50000 418.400000
2356 12879 5477 1 109.50000 418.400000
2356 12879 5478 1 109.50000 418.400000
3115 12879 5477 1 109.50000 418.400000
3115 12879 5478 1 109.50000 418.400000
5477 12879 5478 1 109.50000 418.400000
5479 12880 5480 1 109.50000 418.400000
5479 12880 5481 1 109.50000 418.400000
5479 12880 5482 1 109.50000 418.400000
5480 12880 5481 1 109.50000 418.400000
5480 12880 5482 1 109.50000 418.400000
5481 12880 5482 1 109.50000 418.400000
3743 12881 5483 1 109.50000 418.400000
3743 12881 5484 1 109.50000 418.400000
3743 12881 5485 1 109.50000 418.400000
5483 12881 5484 1 109.50000 418.400000
5483 12881 5485 1 109.50000 418.400000
5484 12881 5485 1 109.50000 418.400000
4085 12882 5486 1 109.50000 418.400000
4085 12882 5487 1 109.50000 418.400000
4085 12882 11148 1 109.50000 418.400000
5486 12882 5487 1 109.50000 418.400000
5486 12882 11148 1 109.50000 418.400000
5487 12882 11148 1 109.50000 418.400000
1791 12883 5488 1 109.50000 418.400000
1791 12883 5489 1 109.50000 418.400000
1791 12883 5490 1 109.50000 418.400000
5488 12883 5489 1 109.50000 418.400000
5488 12883 5490 1 109.50000 418.400000
5489 12883 5490 1 109.50000 418.400000
1779 12884 5491 1 109.50000 418.400000
1779 12884 5492 1 109.50000 418.400000
1779 12884 5493 1 109.50000 418.400000
5491 12884 5492 1 109.50000 418.400000
5491 12884 5493 1 109.50000 418.400000
5492 12884 5493 1 109.50000 418.400000
2236 12885 2625 1 109.50000 418.400000
2236 12885 5494 1 109.50000 418.400000
2236 12885 5495 1 109.50000 418.400000
2625 12885 5494 1 109.50000 418.400000
2625 12885 5495 1 109.50000 418.400000
5494 12885 5495 1 109.50000 418.400000
5496 12886 5497 1 109.50000 418.400000
5496 12886 5498 1 109.50000 418.400000
5496 12886 11370 1 109.50000 418.400000
5497 12886 5498 1 109.50000 418.400000
5497 12886 11370 1 109.50000 418.400000
5498 12886 11370 1 109.50000 418.400000
4459 12887 4750 1 109.50000 418.400000
4459 12887 5499 1 109.50000 418.400000
4459 12887 5500 1 109.50000 418.400000
4750 12887 5499 1 109.50000 418.400000
4750 12887 5500 1 109.50000 418.400000
5499 12887 5500 1 109.50000 418.400000
5501 12888 5502 1 109.50000 418.400000
5501 12888 5503 1 109.50000 418.400000
5501 12888 11321 1 109.50000 418.400000
5502 12888 5503 1 109.50000 418.400000
5502 12888 11321 1 109.50000 418.400000
5503 12888 11321 1 109.50000 418.400000
3448 12889 5504 1 109.50000 418.400000
3448 12889 5505 1 109.50000 418.400000
3448 12889 5506 1 109.50000 418.400000
5504 12889 5505 1 109.50000 418.400000
5504 12889 5506 1 109.50000 418.400000
5505 12889 5506 1 109.50000 418.400000
5357 12890 5507 1 109.50000 418.400000
5357 12890 5508 1 109.50000 418.400000
5357 12890 5509 1 109.50000 418.400000
5507 12890 5508 1 109.50000 418.400000
5507 12890 5509 1 109.50000 418.400000
5508 12890 5509 1 109.50000 418.400000
3575 12891 3876 1 109.50000 418.400000
3575 12891 5510 1 109.50000 418.400000
3575 12891 5511 1 109.50000 418.400000
3876 12891 5510 1 109.50000 418.400000
3876 12891 5511 1 109.50000 418.400000
5510 12891 5511 1 109.50000 418.400000
5512 12892 5513 1 109.50000 418.400000
5512 12892 5514 1 109.50000 418.400000
5512 12892 5515 1 109.50000 418.400000
5513 12892 5514 1 109.50000 418.400000
5513 12892 5515 1 109.50000 418.400000
5514 12892 5515 1 109.50000 418.400000
1387 12893 3539 1 109.50000 418.400000
1387 12893 5516 1 109.50000 418.400000
1387 12893 11140 1 109.50000 418.400000
3539 12893 5516 1 109.50000 418.400000
3539 12893 11140 1 109.50000 418.400000
5516 12893 11140 1 109.50000 418.400000
1677 12894 5517 1 109.50000 418.400000
1677 12894 5518 1 109.50000 418.400000
1677 12894 5519 1 109.50000 418.400000
5517 12894 5518 1 109.50000 418.400000
5517 12894 5519 1 109.50000 418.400000
5518 12894 5519 1 109.50000 418.400000
5156 12895 5520 1 109.50000 418.400000
5156 12895 5521 1 109.50000 418.400000
5156 12895 5522 1 109.50000 418.400000
5520 12895 5521 1 109.50000 418.400000
5520 12895 5522 1 109.50000 418.400000
5521 12895 5522 1 109.50000 418.400000
546 12896 3176 1 109.50000 418.400000
546 12896 5523 1 109.50000 418.400000
546 12896 5524 1 109.50000 418.400000
3176 12896 5523 1 109.50000 418.400000
3176 12896 5524 1 109.50000 418.400000
5523 12896 5524 1 109.50000 418.400000
1062 12897 1503 1 109.50000 418.400000
1062 12897 5439 1 109.50000 418.400000
1062 12897 5525 1 109.50000 418.400000
1503 12897 5439 1 109.50000 418.400000
1503 12897 5525 1 109.50000 418.400000
5439 12897 5525 1 109.50000 418.400000
5172 12898 5526 1 109.50000 418.400000
5172 12898 5527 1 109.50000 418.400000
5172 12898 11231 1 109.50000 418.400000
5526 12898 5527 1 109.50000 418.400000
5526 12898 11231 1 109.50000 418.400000
5527 12898 11231 1 109.50000 418.400000
5528 12899 5529 1 109.50000 418.400000
5528 12899 5530 1 109.50000 418.400000
5528 12899 5531 1 109.50000 418.400000
5529 12899 5530 1 109.50000 418.400000
5529 12899 5531 1 109.50000 418.400000
5530 12899 5531 1 109.50000 418.400000
4774 12900 5532 1 109.50000 418.400000
4774 12900 5533 1 109.50000 418.400000
4774 12900 5534 1 109.50000 418.400000
5532 12900 5533 1 109.50000 418.400000
5532 12900 5534 1 109.50000 418.400000
5533 12900 5534 1 109.50000 418.400000
2244 12901 2872 1 109.50000 418.400000
2244 12901 5535 1 109.50000 418.400000
2244 12901 5536 1 109.50000 418.400000
2872 12901 5535 1 109.50000 418.400000
2872 12901 5536 1 109.50000 418.400000
5535 12901 5536 1 109.50000 418.400000
2081 12902 5537 1 109.50000 418.400000
2081 12902 5538 1 109.50000 418.400000
2081 12902 5539 1 109.50000 418.400000
5537 12902 5538 1 109.50000 418.400000
5537 12902 5539 1 109.50000 418.400000
5538 12902 5539 1 109.50000 418.400000
1863 12903 2232 1 109.50000 418.400000
1863 12903 5542 1 109.50000 418.400000
1863 12903 5543 1 109.50000 418.400000
2232 12903 5542 1 109.50000 418.400000
2232 12903 5543 1 109.50000 418.400000
5542 12903 5543 1 109.50000 418.400000
5544 12904 5546 1 109.50000 418.400000
5544 12904 5547 1 109.50000 418.400000
5544 12904 7953 1 109.50000 418.400000
5546 12904 5547 1 109.50000 418.400000
5546 12904 7953 1 109.50000 418.400000
5547 12904 7953 1 109.50000 418.400000
3291 12905 3293 1 109.50000 418.400000
3291 12905 5548 1 109.50000 418.400000
3291 12905 5549 1 109.50000 418.400000
3293 12905 5548 1 109.50000 418.400000
3293 12905 5549 1 109.50000 418.400000
5548 12905 5549 1 109.50000 418.400000
742 12906 5551 1 109.50000 418.400000
742 12906 5552 1 109.50000 418.400000
742 12906 11377 1 109.50000 418.400000
5551 12906 5552 1 109.50000 418.400000
5551 12906 11377 1 109.50000 418.400000
5552 12906 11377 1 109.50000 418.400000
5553 12907 5554 1 109.50000 418.400000
5553 12907 5555 1 109.50000 418.400000
5553 12907 5556 1 109.50000 418.400000
5554 12907 5555 1 109.50000 418.400000
5554 12907 5556 1 109.50000 418.400000
5555 12907 5556 1 109.50000 418.400000
1251 12908 5557 1 109.50000 418.400000
1251 12908 5558 1 109.50000 418.400000
1251 12908 5559 1 109.50000 418.400000
5557 12908 5558 1 109.50000 418.400000
5557 12908 5559 1 109.50000 418.400000
5558 12908 5559 1 109.50000 418.400000
2475 12909 3749 1 109.50000 418.400000
2475 12909 5560 1 109.50000 418.400000
2475 12909 5561 1 109.50000 418.400000
3749 12909 5560 1 109.50000 418.400000
3749 12909 5561 1 109.50000 418.400000
5560 12909 5561 1 109.50000 418.400000
2257 12910 5562 1 109.50000 418.400000
2257 12910 5563 1 109.50000 418.400000
2257 12910 5564 1 109.50000 418.400000
5562 12910 5563 1 109.50000 418.400000
5562 12910 5564 1 109.50000 418.400000
5563 12910 5564 1 109.50000 418.400000
1329 12911 1330 1 109.50000 418.400000
1329 12911 2716 1 109.50000 418.400000
1329 12911 11308 1 109.50000 418.400000
1330 12911 2716 1 109.50000 418.400000
1330 12911 11308 1 109.50000 418.400000
2716 12911 11308 1 109.50000 418.400000
3056 12912 5565 1 109.50000 418.400000
3056 12912 5566 1 109.50000 418.400000
3056 12912 5567 1 109.50000 418.400000
5565 12912 5566 1 109.50000 418.400000
5565 12912 5567 1 109.50000 418.400000
5566 12912 5567 1 109.50000 418.400000
1427 12913 5568 1 109.50000 418.400000
1427 12913 5569 1 109.50000 418.400000
1427 12913 5570 1 109.50000 418.400000
5568 12913 5569 1 109.50000 418.400000
5568 12913 5570 1 109.50000 418.400000
5569 12913 5570 1 109.50000 418.400000
2577 12914 3565 1 109.50000 418.400000
2577 12914 3648 1 109.50000 418.400000
2577 12914 5571 1 109.50000 418.400000
3565 12914 3648 1 109.50000 418.400000
3565 12914 5571 1 109.50000 418.400000
3648 12914 5571 1 109.50000 418.400000
3847 12915 5572 1 109.50000 418.400000
3847 12915 5573 1 109.50000 418.400000
3847 12915 11174 1 109.50000 418.400000
5572 12915 5573 1 109.50000 418.400000
5572 12915 11174 1 109.50000 418.400000
5573 12915 11174 1 109.50000 418.400000
1611 12916 5574 1 109.50000 418.400000
1611 12916 5575 1 109.50000 418.400000
1611 12916 5576 1 109.50000 418.400000
5574 12916 5575 1 109.50000 418.400000
5574 12916 5576 1 109.50000 418.400000
5575 12916 5576 1 109.50000 418.400000
4927 12917 5582 1 109.50000 418.400000
4927 12917 5583 1 109.50000 418.400000
4927 12917 5584 1 109.50000 418.400000
5582 12917 5583 1 109.50000 418.400000
5582 12917 5584 1 109.50000 418.400000
5583 12917 5584 1 109.50000 418.400000
3186 12918 4354 1 109.50000 418.400000
3186 12918 5585 1 109.50000 418.400000
3186 12918 5586 1 109.50000 418.400000
4354 12918 5585 1 109.50000 418.400000
4354 12918 5586 1 109.50000 418.400000
5585 12918 5586 1 109.50000 418.400000
5587 12919 5588 1 109.50000 418.400000
5587 12919 5589 1 109.50000 418.400000
5587 12919 5590 1 109.50000 418.400000
5588 12919 5589 1 109.50000 418.400000
5588 12919 5590 1 109.50000 418.400000
5589 12919 5590 1 109.50000 418.400000
4079 12920 5591 1 109.50000 418.400000
4079 12920 5592 1 109.50000 418.400000
4079 12920 5593 1 109.50000 418.400000
5591 12920 5592 1 109.50000 418.400000
5591 12920 5593 1 109.50000 418.400000
5592 12920 5593 1 109.50000 418.400000
5594 12921 5595 1 109.50000 418.400000
5594 12921 5596 1 109.50000 418.400000
5594 12921 5597 1 109.50000 418.400000
5595 12921 5596 1 109.50000 418.400000
5595 12921 5597 1 109.50000 418.400000
5596 12921 5597 1 109.50000 418.400000
1426 12922 5598 1 109.50000 418.400000
1426 12922 5599 1 109.50000 418.400000
1426 12922 5820 1 109.50000 418.400000
5598 12922 5599 1 109.50000 418.400000
5598 12922 5820 1 109.50000 418.400000
5599 12922 5820 1 109.50000 418.400000
2277 12923 5600 1 109.50000 418.400000
2277 12923 5601 1 109.50000 418.400000
2277 12923 7655 1 109.50000 418.400000
5600 12923 5601 1 109.50000 418.400000
5600 12923 7655 1 109.50000 418.400000
5601 12923 7655 1 109.50000 418.400000
248 12924 5602 1 109.50000 418.400000
248 12924 5603 1 109.50000 418.400000
248 12924 5604 1 109.50000 418.400000
5602 12924 5603 1 109.50000 418.400000
5602 12924 5604 1 109.50000 418.400000
5603 12924 5604 1 109.50000 418.400000
5605 12925 5606 1 109.50000 418.400000
5605 12925 5607 1 109.50000 418.400000
5605 12925 5608 1 109.50000 418.400000
5606 12925 5607 1 109.50000 418.400000
5606 12925 5608 1 109.50000 418.400000
5607 12925 5608 1 109.50000 418.400000
1514 12926 5609 1 109.50000 418.400000
1514 12926 5610 1 109.50000 418.400000
1514 12926 5611 1 109.50000 418.400000
5609 12926 5610 1 109.50000 418.400000
5609 12926 5611 1 109.50000 418.400000
5610 12926 5611 1 109.50000 418.400000
5063 12927 5612 1 109.50000 418.400000
5063 12927 5613 1 109.50000 418.400000
5063 12927 5614 1 109.50000 418.400000
5612 12927 5613 1 109.50000 418.400000
5612 12927 5614 1 109.50000 418.400000
5613 12927 5614 1 109.50000 418.400000
5570 12928 5615 1 109.50000 418.400000
5570 12928 5616 1 109.50000 418.400000
5570 12928 5617 1 109.50000 418.400000
5615 12928 5616 1 109.50000 418.400000
5615 12928 5617 1 109.50000 418.400000
5616 12928 5617 1 109.50000 418.400000
5618 12929 5619 1 109.50000 418.400000
5618 12929 5620 1 109.50000 418.400000
5618 12929 5621 1 109.50000 418.400000
5619 12929 5620 1 109.50000 418.400000
5619 12929 5621 1 109.50000 418.400000
5620 12929 5621 1 109.50000 418.400000
5622 12930 5623 1 109.50000 418.400000
5622 12930 5624 1 109.50000 418.400000
5622 12930 5625 1 109.50000 418.400000
5623 12930 5624 1 109.50000 418.400000
5623 12930 5625 1 109.50000 418.400000
5624 12930 5625 1 109.50000 418.400000
759 12931 3440 1 109.50000 418.400000
759 12931 3917 1 109.50000 418.400000
759 12931 5626 1 109.50000 418.400000
3440 12931 3917 1 109.50000 418.400000
3440 12931 5626 1 109.50000 418.400000
3917 12931 5626 1 109.50000 418.400000
1793 12932 3733 1 109.50000 418.400000
1793 12932 5627 1 109.50000 418.400000
1793 12932 5628 1 109.50000 418.400000
3733 12932 5627 1 109.50000 418.400000
3733 12932 5628 1 109.50000 418.400000
5627 12932 5628 1 109.50000 418.400000
1448 12933 4596 1 109.50000 418.400000
1448 12933 5629 1 109.50000 418.400000
1448 12933 8855 1 109.50000 418.400000
4596 12933 5629 1 109.50000 418.400000
4596 12933 8855 1 109.50000 418.400000
5629 12933 8855 1 109.50000 418.400000
5631 12934 5633 1 109.50000 418.400000
5631 12934 5634 1 109.50000 418.400000
5631 12934 7674 1 109.50000 418.400000
5633 12934 5634 1 109.50000 418.400000
5633 12934 7674 1 109.50000 418.400000
5634 12934 7674 1 109.50000 418.400000
5635 12935 5636 1 109.50000 418.400000
5635 12935 5637 1 109.50000 418.400000
5635 12935 5638 1 109.50000 418.400000
5636 12935 5637 1 109.50000 418.400000
5636 12935 5638 1 109.50000 418.400000
5637 12935 5638 1 109.50000 418.400000
4764 12936 5639 1 109.50000 418.400000
4764 12936 5640 1 109.50000 418.400000
4764 12936 5641 1 109.50000 418.400000
5639 12936 5640 1 109.50000 418.400000
5639 12936 5641 1 109.50000 418.400000
5640 12936 5641 1 109.50000 418.400000
5642 12937 5643 1 109.50000 418.400000
5642 12937 5644 1 109.50000 418.400000
5642 12937 5645 1 109.50000 418.400000
5643 12937 5644 1 109.50000 418.400000
5643 12937 5645 1 109.50000 418.400000
5644 12937 5645 1 109.50000 418.400000
2210 12938 5646 1 109.50000 418.400000
2210 12938 5647 1 109.50000 418.400000
2210 12938 5648 1 109.50000 418.400000
5646 12938 5647 1 109.50000 418.400000
5646 12938 5648 1 109.50000 418.400000
5647 12938 5648 1 109.50000 418.400000
5649 12939 5650 1 109.50000 418.400000
5649 12939 5651 1 109.50000 418.400000
5649 12939 5652 1 109.50000 418.400000
5650 12939 5651 1 109.50000 418.400000
5650 12939 5652 1 109.50000 418.400000
5651 12939 5652 1 109.50000 418.400000
1837 12940 3842 1 109.50000 418.400000
1837 12940 5654 1 109.50000 418.400000
1837 12940 5655 1 109.50000 418.400000
3842 12940 5654 1 109.50000 418.400000
3842 12940 5655 1 109.50000 418.400000
5654 12940 5655 1 109.50000 418.400000
5656 12941 5657 1 109.50000 418.400000
5656 12941 5658 1 109.50000 418.400000
5656 12941 5659 1 109.50000 418.400000
5657 12941 5658 1 109.50000 418.400000
5657 12941 5659 1 109.50000 418.400000
5658 12941 5659 1 109.50000 418.400000
4787 12942 5661 1 109.50000 418.400000
4787 12942 5662 1 109.50000 418.400000
4787 12942 5663 1 109.50000 418.400000
5661 12942 5662 1 109.50000 418.400000
5661 12942 5663 1 109.50000 418.400000
5662 12942 5663 1 109.50000 418.400000
1816 12943 5664 1 109.50000 418.400000
1816 12943 5665 1 109.50000 418.400000
1816 12943 5666 1 109.50000 418.400000
5664 12943 5665 1 109.50000 418.400000
5664 12943 5666 1 109.50000 418.400000
5665 12943 5666 1 109.50000 418.400000
3091 12944 5667 1 109.50000 418.400000
3091 12944 5668 1 109.50000 418.400000
3091 12944 5669 1 109.50000 418.400000
5667 12944 5668 1 109.50000 418.400000
5667 12944 5669 1 109.50000 418.400000
5668 12944 5669 1 109.50000 418.400000
5670 12945 5671 1 109.50000 418.400000
5670 12945 5672 1 109.50000 418.400000
5670 12945 5673 1 109.50000 418.400000
5671 12945 5672 1 109.50000 418.400000
5671 12945 5673 1 109.50000 418.400000
5672 12945 5673 1 109.50000 418.400000
5674 12946 5675 1 109.50000 418.400000
5674 12946 5676 1 109.50000 418.400000
5674 12946 5677 1 109.50000 418.400000
5675 12946 5676 1 109.50000 418.400000
5675 12946 5677 1 109.50000 418.400000
5676 12946 5677 1 109.50000 418.400000
3103 12947 5678 1 109.50000 418.400000
3103 12947 5679 1 109.50000 418.400000
3103 12947 5680 1 109.50000 418.400000
5678 12947 5679 1 109.50000 418.400000
5678 12947 5680 1 109.50000 418.400000
5679 12947 5680 1 109.50000 418.400000
2882 12948 3828 1 109.50000 418.400000
2882 12948 5681 1 109.50000 418.400000
2882 12948 5682 1 109.50000 418.400000
3828 12948 5681 1 109.50000 418.400000
3828 12948 5682 1 109.50000 418.400000
5681 12948 5682 1 109.50000 418.400000
483 12949 5683 1 109.50000 418.400000
483 12949 5684 1 109.50000 418.400000
483 12949 5685 1 109.50000 418.400000
5683 12949 5684 1 109.50000 418.400000
5683 12949 5685 1 109.50000 418.400000
5684 12949 5685 1 109.50000 418.400000
1903 12950 5686 1 109.50000 418.400000
1903 12950 5687 1 109.50000 418.400000
1903 12950 5688 1 109.50000 418.400000
5686 12950 5687 1 109.50000 418.400000
5686 12950 5688 1 109.50000 418.400000
5687 12950 5688 1 109.50000 418.400000
5205 12951 5521 1 109.50000 418.400000
5205 12951 5689 1 109.50000 418.400000
5205 12951 5690 1 109.50000 418.400000
5521 12951 5689 1 109.50000 418.400000
5521 12951 5690 1 109.50000 418.400000
5689 12951 5690 1 109.50000 418.400000
5396 12952 5691 1 109.50000 418.400000
5396 12952 5692 1 109.50000 418.400000
5396 12952 5693 1 109.50000 418.400000
5691 12952 5692 1 109.50000 418.400000
5691 12952 5693 1 109.50000 418.400000
5692 12952 5693 1 109.50000 418.400000
1928 12953 1931 1 109.50000 418.400000
1928 12953 2350 1 109.50000 418.400000
1928 12953 2352 1 109.50000 418.400000
1931 12953 2350 1 109.50000 418.400000
1931 12953 2352 1 109.50000 418.400000
2350 12953 2352 1 109.50000 418.400000
5696 12954 5697 1 109.50000 418.400000
5696 12954 5698 1 109.50000 418.400000
5696 12954 5699 1 109.50000 418.400000
5697 12954 5698 1 109.50000 418.400000
5697 12954 5699 1 109.50000 418.400000
5698 12954 5699 1 109.50000 418.400000
5317 12955 5700 1 109.50000 418.400000
5317 12955 5701 1 109.50000 418.400000
5317 12955 5702 1 109.50000 418.400000
5700 12955 5701 1 109.50000 418.400000
5700 12955 5702 1 109.50000 418.400000
5701 12955 5702 1 109.50000 418.400000
5214 12956 5703 1 109.50000 418.400000
5214 12956 5704 1 109.50000 418.400000
5214 12956 5705 1 109.50000 418.400000
5703 12956 5704 1 109.50000 418.400000
5703 12956 5705 1 109.50000 418.400000
5704 12956 5705 1 109.50000 418.400000
701 12957 5707 1 109.50000 418.400000
701 12957 5708 1 109.50000 418.400000
701 12957 5844 1 109.50000 418.400000
5707 12957 5708 1 109.50000 418.400000
5707 12957 5844 1 109.50000 418.400000
5708 12957 5844 1 109.50000 418.400000
3253 12958 4928 1 109.50000 418.400000
3253 12958 5709 1 109.50000 418.400000
3253 12958 5710 1 109.50000 418.400000
4928 12958 5709 1 109.50000 418.400000
4928 12958 5710 1 109.50000 418.400000
5709 12958 5710 1 109.50000 418.400000
1399 12959 1539 1 109.50000 418.400000
1399 12959 5711 1 109.50000 418.400000
1399 12959 5712 1 109.50000 418.400000
1539 12959 5711 1 109.50000 418.400000
1539 12959 5712 1 109.50000 418.400000
5711 12959 5712 1 109.50000 418.400000
1703 12960 5713 1 109.50000 418.400000
1703 12960 5714 1 109.50000 418.400000
1703 12960 11317 1 109.50000 418.400000
5713 12960 5714 1 109.50000 418.400000
5713 12960 11317 1 109.50000 418.400000
5714 12960 11317 1 109.50000 418.400000
5715 12961 5716 1 109.50000 418.400000
5715 12961 5717 1 109.50000 418.400000
5715 12961 11237 1 109.50000 418.400000
5716 12961 5717 1 109.50000 418.400000
5716 12961 11237 1 109.50000 418.400000
5717 12961 11237 1 109.50000 418.400000
5718 12962 5719 1 109.50000 418.400000
5718 12962 5720 1 109.50000 418.400000
5718 12962 5721 1 109.50000 418.400000
5719 12962 5720 1 109.50000 418.400000
5719 12962 5721 1 109.50000 418.400000
5720 12962 5721 1 109.50000 418.400000
2011 12963 5722 1 109.50000 418.400000
2011 12963 5723 1 109.50000 418.400000
2011 12963 5724 1 109.50000 418.400000
5722 12963 5723 1 109.50000 418.400000
5722 12963 5724 1 109.50000 418.400000
5723 12963 5724 1 109.50000 418.400000
3045 12964 5728 1 109.50000 418.400000
3045 12964 5729 1 109.50000 418.400000
3045 12964 5730 1 109.50000 418.400000
5728 12964 5729 1 109.50000 418.400000
5728 12964 5730 1 109.50000 418.400000
5729 12964 5730 1 109.50000 418.400000
269 12965 3175 1 109.50000 418.400000
269 12965 5731 1 109.50000 418.400000
269 12965 5732 1 109.50000 418.400000
3175 12965 5731 1 109.50000 418.400000
3175 12965 5732 1 109.50000 418.400000
5731 12965 5732 1 109.50000 418.400000
728 12966 2417 1 109.50000 418.400000
728 12966 5733 1 109.50000 418.400000
728 12966 5734 1 109.50000 418.400000
2417 12966 5733 1 109.50000 418.400000
2417 12966 5734 1 109.50000 418.400000
5733 12966 5734 1 109.50000 418.400000
1496 12967 4013 1 109.50000 418.400000
1496 12967 5735 1 109.50000 418.400000
1496 12967 5736 1 109.50000 418.400000
4013 12967 5735 1 109.50000 418.400000
4013 12967 5736 1 109.50000 418.400000
5735 12967 5736 1 109.50000 418.400000
5738 12968 5739 1 109.50000 418.400000
5738 12968 5740 1 109.50000 418.400000
5738 12968 5741 1 109.50000 418.400000
5739 12968 5740 1 109.50000 418.400000
5739 12968 5741 1 109.50000 418.400000
5740 12968 5741 1 109.50000 418.400000
5742 12969 5743 1 109.50000 418.400000
5742 12969 10471 1 109.50000 418.400000
5742 12969 10843 1 109.50000 418.400000
5743 12969 10471 1 109.50000 418.400000
5743 12969 10843 1 109.50000 418.400000
10471 12969 10843 1 109.50000 418.400000
98 12970 2069 1 109.50000 418.400000
98 12970 5745 1 109.50000 418.400000
98 12970 5746 1 109.50000 418.400000
2069 12970 5745 1 109.50000 418.400000
2069 12970 5746 1 109.50000 418.400000
5745 12970 5746 1 109.50000 418.400000
2114 12971 5384 1 109.50000 418.400000
2114 12971 5747 1 109.50000 418.400000
2114 12971 5748 1 109.50000 418.400000
5384 12971 5747 1 109.50000 418.400000
5384 12971 5748 1 109.50000 418.400000
5747 12971 5748 1 109.50000 418.400000
2251 12972 3619 1 109.50000 418.400000
2251 12972 5749 1 109.50000 418.400000
2251 12972 5750 1 109.50000 418.400000
3619 12972 5749 1 109.50000 418.400000
3619 12972 5750 1 109.50000 418.400000
5749 12972 5750 1 109.50000 418.400000
5105 12973 5751 1 109.50000 418.400000
5105 12973 5752 1 109.50000 418.400000
5105 12973 11330 1 109.50000 418.400000
5751 12973 5752 1 109.50000 418.400000
5751 12973 11330 1 109.50000 418.400000
5752 12973 11330 1 109.50000 418.400000
389 12974 5753 1 109.50000 418.400000
389 12974 5754 1 109.50000 418.400000
389 12974 5755 1 109.50000 418.400000
5753 12974 5754 1 109.50000 418.400000
5753 12974 5755 1 109.50000 418.400000
5754 12974 5755 1 109.50000 418.400000
3267 12975 5756 1 109.50000 418.400000
3267 12975 5757 1 109.50000 418.400000
3267 12975 5758 1 109.50000 418.400000
5756 12975 5757 1 109.50000 418.400000
5756 12975 5758 1 109.50000 418.400000
5757 12975 5758 1 109.50000 418.400000
3171 12976 5759 1 109.50000 418.400000
3171 12976 7528 1 109.50000 418.400000
3171 12976 9740 1 109.50000 418.400000
5759 12976 7528 1 109.50000 418.400000
5759 12976 9740 1 109.50000 418.400000
7528 12976 9740 1 109.50000 418.400000
5761 12977 5762 1 109.50000 418.400000
5761 12977 5763 1 109.50000 418.400000
5761 12977 10075 1 109.50000 418.400000
5762 12977 5763 1 109.50000 418.400000
5762 12977 10075 1 109.50000 418.400000
5763 12977 10075 1 109.50000 418.400000
1983 12978 3789 1 109.50000 418.400000
1983 12978 5765 1 109.50000 418.400000
1983 12978 5766 1 109.50000 418.400000
3789 12978 5765 1 109.50000 418.400000
3789 12978 5766 1 109.50000 418.400000
5765 12978 5766 1 109.50000 418.400000
5767 12979 5768 1 109.50000 418.400000
5767 12979 5769 1 109.50000 418.400000
5767 12979 5770 1 109.50000 418.400000
5768 12979 5769 1 109.50000 418.400000
5768 12979 5770 1 109.50000 418.400000
5769 12979 5770 1 109.50000 418.400000
923 12980 2932 1 109.50000 418.400000
923 12980 4429 1 109.50000 418.400000
923 12980 5771 1 109.50000 418.400000
2932 12980 4429 1 109.50000 418.400000
2932 12980 5771 1 109.50000 418.400000
4429 12980 5771 1 109.50000 418.400000
2802 12981 4638 1 109.50000 418.400000
2802 12981 5772 1 109.50000 418.400000
2802 12981 5773 1 109.50000 418.400000
4638 12981 5772 1 109.50000 418.400000
4638 12981 5773 1 109.50000 418.400000
5772 12981 5773 1 109.50000 418.400000
5774 12982 5775 1 109.50000 418.400000
5774 12982 5776 1 109.50000 418.400000
5774 12982 11219 1 109.50000 418.400000
5775 12982 5776 1 109.50000 418.400000
5775 12982 11219 1 109.50000 418.400000
5776 12982 11219 1 109.50000 418.400000
1747 12983 5777 1 109.50000 418.400000
1747 12983 5778 1 109.50000 418.400000
1747 12983 5779 1 109.50000 418.400000
5777 12983 5778 1 109.50000 418.400000
5777 12983 5779 1 109.50000 418.400000
5778 12983 5779 1 109.50000 418.400000
5677 12984 5780 1 109.50000 418.400000
5677 12984 5781 1 109.50000 418.400000
5677 12984 5782 1 109.50000 418.400000
5780 12984 5781 1 109.50000 418.400000
5780 12984 5782 1 109.50000 418.400000
5781 12984 5782 1 109.50000 418.400000
209 12985 5783 1 109.50000 418.400000
209 12985 5784 1 109.50000 418.400000
209 12985 5785 1 109.50000 418.400000
5783 12985 5784 1 109.50000 418.400000
5783 12985 5785 1 109.50000 418.400000
5784 12985 5785 1 109.50000 418.400000
3172 12986 3246 1 109.50000 418.400000
3172 12986 4829 1 109.50000 418.400000
3172 12986 5786 1 109.50000 418.400000
3246 12986 4829 1 109.50000 418.400000
3246 12986 5786 1 109.50000 418.400000
4829 12986 5786 1 109.50000 418.400000
5787 12987 5788 1 109.50000 418.400000
5787 12987 5789 1 109.50000 418.400000
5787 12987 5790 1 109.50000 418.400000
5788 12987 5789 1 109.50000 418.400000
5788 12987 5790 1 109.50000 418.400000
5789 12987 5790 1 109.50000 418.400000
4449 12988 5792 1 109.50000 418.400000
4449 12988 5793 1 109.50000 418.400000
4449 12988 7194 1 109.50000 418.400000
5792 12988 5793 1 109.50000 418.400000
5792 12988 7194 1 109.50000 418.400000
5793 12988 7194 1 109.50000 418.400000
5795 12989 5796 1 109.50000 418.400000
5795 12989 5797 1 109.50000 418.400000
5795 12989 8314 1 109.50000 418.400000
5796 12989 5797 1 109.50000 418.400000
5796 12989 8314 1 109.50000 418.400000
5797 12989 8314 1 109.50000 418.400000
5798 12990 5799 1 109.50000 418.400000
5798 12990 5800 1 109.50000 418.400000
5798 12990 5801 1 109.50000 418.400000
5799 12990 5800 1 109.50000 418.400000
5799 12990 5801 1 109.50000 418.400000
5800 12990 5801 1 109.50000 418.400000
193 12991 691 1 109.50000 418.400000
193 12991 2842 1 109.50000 418.400000
193 12991 5802 1 109.50000 418.400000
691 12991 2842 1 109.50000 418.400000
691 12991 5802 1 109.50000 418.400000
2842 12991 5802 1 109.50000 418.400000
2480 12992 5803 1 109.50000 418.400000
2480 12992 5804 1 109.50000 418.400000
2480 12992 5805 1 109.50000 418.400000
5803 12992 5804 1 109.50000 418.400000
5803 12992 5805 1 109.50000 418.400000
5804 12992 5805 1 109.50000 418.400000
5806 12993 5807 1 109.50000 418.400000
5806 12993 5808 1 109.50000 418.400000
5806 12993 5809 1 109.50000 418.400000
5807 12993 5808 1 109.50000 418.400000
5807 12993 5809 1 109.50000 418.400000
5808 12993 5809 1 109.50000 418.400000
3520 12994 3877 1 109.50000 418.400000
3520 12994 5810 1 109.50000 418.400000
3520 12994 5811 1 109.50000 418.400000
3877 12994 5810 1 109.50000 418.400000
3877 12994 5811 1 109.50000 418.400000
5810 12994 5811 1 109.50000 418.400000
3593 12995 5812 1 109.50000 418.400000
3593 12995 5813 1 109.50000 418.400000
3593 12995 5814 1 109.50000 418.400000
5812 12995 5813 1 109.50000 418.400000
5812 12995 5814 1 109.50000 418.400000
5813 12995 5814 1 109.50000 418.400000
4670 12996 5815 1 109.50000 418.400000
4670 12996 5816 1 109.50000 418.400000
4670 12996 5817 1 109.50000 418.400000
5815 12996 5816 1 109.50000 418.400000
5815 12996 5817 1 109.50000 418.400000
5816 12996 5817 1 109.50000 418.400000
1852 12997 3074 1 109.50000 418.400000
1852 12997 5818 1 109.50000 418.400000
1852 12997 5819 1 109.50000 418.400000
3074 12997 5818 1 109.50000 418.400000
3074 12997 5819 1 109.50000 418.400000
5818 12997 5819 1 109.50000 418.400000
535 12998 4291 1 109.50000 418.400000
535 12998 5599 1 109.50000 418.400000
535 12998 5821 1 109.50000 418.400000
4291 12998 5599 1 109.50000 418.400000
4291 12998 5821 1 109.50000 418.400000
5599 12998 5821 1 109.50000 418.400000
2793 12999 3802 1 109.50000 418.400000
2793 12999 5822 1 109.50000 418.400000
2793 12999 5823 1 109.50000 418.400000
3802 12999 5822 1 109.50000 418.400000
3802 12999 5823 1 109.50000 418.400000
5822 12999 5823 1 109.50000 418.400000
5825 13000 5826 1 109.50000 418.400000
5825 13000 5827 1 109.50000 418.400000
5825 13000 9839 1 109.50000 418.400000
5826 13000 5827 1 109.50000 418.400000
5826 13000 9839 1 109.50000 418.400000
5827 13000 9839 1 109.50000 418.400000
1910 13001 2840 1 109.50000 418.400000
1910 13001 5777 1 109.50000 418.400000
1910 13001 5831 1 109.50000 418.400000
2840 13001 5777 1 109.50000 418.400000
2840 13001 5831 1 109.50000 418.400000
5777 13001 5831 1 109.50000 418.400000
5835 13002 5836 1 109.50000 418.400000
5835 13002 6820 1 109.50000 418.400000
5835 13002 9421 1 109.50000 418.400000
5836 13002 6820 1 109.50000 418.400000
5836 13002 9421 1 109.50000 418.400000
6820 13002 9421 1 109.50000 418.400000
4368 13003 5706 1 109.50000 418.400000
4368 13003 5708 1 109.50000 418.400000
4368 13003 5843 1 109.50000 418.400000
5706 13003 5708 1 109.50000 418.400000
5706 13003 5843 1 109.50000 418.400000
5708 13003 5843 1 109.50000 418.400000
4107 13004 4108 1 109.50000 418.400000
4107 13004 5845 1 109.50000 418.400000
4107 13004 5846 1 109.50000 418.400000
4108 13004 5845 1 109.50000 418.400000
4108 13004 5846 1 109.50000 418.400000
5845 13004 5846 1 109.50000 418.400000
5637 13005 5847 1 109.50000 418.400000
5637 13005 5848 1 109.50000 418.400000
5637 13005 5849 1 109.50000 418.400000
5847 13005 5848 1 109.50000 418.400000
5847 13005 5849 1 109.50000 418.400000
5848 13005 5849 1 109.50000 418.400000
410 13006 5850 1 109.50000 418.400000
410 13006 5851 1 109.50000 418.400000
410 13006 5852 1 109.50000 418.400000
5850 13006 5851 1 109.50000 418.400000
5850 13006 5852 1 109.50000 418.400000
5851 13006 5852 1 109.50000 418.400000
2611 13007 3586 1 109.50000 418.400000
2611 13007 5346 1 109.50000 418.400000
2611 13007 5853 1 109.50000 418.400000
3586 13007 5346 1 109.50000 418.400000
3586 13007 5853 1 109.50000 418.400000
5346 13007 5853 1 109.50000 418.400000
5854 13008 5855 1 109.50000 418.400000
5854 13008 5856 1 109.50000 418.400000
5854 13008 5857 1 109.50000 418.400000
5855 13008 5856 1 109.50000 418.400000
5855 13008 5857 1 109.50000 418.400000
5856 13008 5857 1 109.50000 418.400000
3444 13009 5062 1 109.50000 418.400000
3444 13009 5858 1 109.50000 418.400000
3444 13009 5859 1 109.50000 418.400000
5062 13009 5858 1 109.50000 418.400000
5062 13009 5859 1 109.50000 418.400000
5858 13009 5859 1 109.50000 418.400000
4834 13010 5862 1 109.50000 418.400000
4834 13010 5864 1 109.50000 418.400000
4834 13010 10290 1 109.50000 418.400000
5862 13010 5864 1 109.50000 418.400000
5862 13010 10290 1 109.50000 418.400000
5864 13010 10290 1 109.50000 418.400000
5865 13011 5866 1 109.50000 418.400000
5865 13011 5867 1 109.50000 418.400000
5865 13011 8664 1 109.50000 418.400000
5866 13011 5867 1 109.50000 418.400000
5866 13011 8664 1 109.50000 418.400000
5867 13011 8664 1 109.50000 418.400000
3851 13012 5283 1 109.50000 418.400000
3851 13012 5868 1 109.50000 418.400000
3851 13012 5869 1 109.50000 418.400000
5283 13012 5868 1 109.50000 418.400000
5283 13012 5869 1 109.50000 418.400000
5868 13012 5869 1 109.50000 418.400000
3005 13013 5870 1 109.50000 418.400000
3005 13013 5871 1 109.50000 418.400000
3005 13013 5872 1 109.50000 418.400000
5870 13013 5871 1 109.50000 418.400000
5870 13013 5872 1 109.50000 418.400000
5871 13013 5872 1 109.50000 418.400000
468 13014 5873 1 109.50000 418.400000
468 13014 5874 1 109.50000 418.400000
468 13014 5875 1 109.50000 418.400000
5873 13014 5874 1 109.50000 418.400000
5873 13014 5875 1 109.50000 418.400000
5874 13014 5875 1 109.50000 418.400000
5876 13015 5877 1 109.50000 418.400000
5876 13015 5878 1 109.50000 418.400000
5876 13015 5879 1 109.50000 418.400000
5877 13015 5878 1 109.50000 418.400000
5877 13015 5879 1 109.50000 418.400000
5878 13015 5879 1 109.50000 418.400000
5880 13016 5881 1 109.50000 418.400000
5880 13016 5882 1 109.50000 418.400000
5880 13016 5883 1 109.50000 418.400000
5881 13016 5882 1 109.50000 418.400000
5881 13016 5883 1 109.50000 418.400000
5882 13016 5883 1 109.50000 418.400000
3153 13017 5884 1 109.50000 418.400000
3153 13017 5885 1 109.50000 418.400000
3153 13017 5886 1 109.50000 418.400000
5884 13017 5885 1 109.50000 418.400000
5884 13017 5886 1 109.50000 418.400000
5885 13017 5886 1 109.50000 418.400000
1761 13018 5217 1 109.50000 418.400000
1761 13018 5887 1 109.50000 418.400000
1761 13018 5888 1 109.50000 418.400000
5217 13018 5887 1 109.50000 418.400000
5217 13018 5888 1 109.50000 418.400000
5887 13018 5888 1 109.50000 418.400000
4806 13019 5889 1 109.50000 418.400000
4806 13019 5890 1 109.50000 418.400000
4806 13019 5891 1 109.50000 418.400000
5889 13019 5890 1 109.50000 418.400000
5889 13019 5891 1 109.50000 418.400000
5890 13019 5891 1 109.50000 418.400000
5892 13020 5893 1 109.50000 418.400000
5892 13020 5894 1 109.50000 418.400000
5892 13020 11276 1 109.50000 418.400000
5893 13020 5894 1 109.50000 418.400000
5893 13020 11276 1 109.50000 418.400000
5894 13020 11276 1 109.50000 418.400000
1884 13021 5895 1 109.50000 418.400000
1884 13021 5896 1 109.50000 418.400000
1884 13021 5897 1 109.50000 418.400000
5895 13021 5896 1 109.50000 418.400000
5895 13021 5897 1 109.50000 418.400000
5896 13021 5897 1 109.50000 418.400000
1581 13022 5898 1 109.50000 418.400000
1581 13022 5899 1 109.50000 418.400000
1581 13022 5900 1 109.50000 418.400000
5898 13022 5899 1 109.50000 418.400000
5898 13022 5900 1 109.50000 418.400000
5899 13022 5900 1 109.50000 418.400000
3051 13023 5901 1 109.50000 418.400000
3051 13023 5902 1 109.50000 418.400000
3051 13023 5903 1 109.50000 418.400000
5901 13023 5902 1 109.50000 418.400000
5901 13023 5903 1 109.50000 418.400000
5902 13023 5903 1 109.50000 418.400000
5904 13024 5905 1 109.50000 418.400000
5904 13024 5906 1 109.50000 418.400000
5904 13024 5907 1 109.50000 418.400000
5905 13024 5906 1 109.50000 418.400000
5905 13024 5907 1 109.50000 418.400000
5906 13024 5907 1 109.50000 418.400000
3216 13025 5908 1 109.50000 418.400000
3216 13025 5909 1 109.50000 418.400000
3216 13025 5910 1 109.50000 418.400000
5908 13025 5909 1 109.50000 418.400000
5908 13025 5910 1 109.50000 418.400000
5909 13025 5910 1 109.50000 418.400000
3233 13026 5911 1 109.50000 418.400000
3233 13026 5912 1 109.50000 418.400000
3233 13026 5913 1 109.50000 418.400000
5911 13026 5912 1 109.50000 418.400000
5911 13026 5913 1 109.50000 418.400000
5912 13026 5913 1 109.50000 418.400000
1705 13027 5914 1 109.50000 418.400000
1705 13027 5915 1 109.50000 418.400000
1705 13027 5916 1 109.50000 418.400000
5914 13027 5915 1 109.50000 418.400000
5914 13027 5916 1 109.50000 418.400000
5915 13027 5916 1 109.50000 418.400000
1959 13028 3363 1 109.50000 418.400000
1959 13028 5917 1 109.50000 418.400000
1959 13028 5918 1 109.50000 418.400000
3363 13028 5917 1 109.50000 418.400000
3363 13028 5918 1 109.50000 418.400000
5917 13028 5918 1 109.50000 418.400000
2749 13029 5920 1 109.50000 418.400000
2749 13029 5921 1 109.50000 418.400000
2749 13029 5922 1 109.50000 418.400000
5920 13029 5921 1 109.50000 418.400000
5920 13029 5922 1 109.50000 418.400000
5921 13029 5922 1 109.50000 418.400000
762 13030 5923 1 109.50000 418.400000
762 13030 5924 1 109.50000 418.400000
762 13030 5925 1 109.50000 418.400000
5923 13030 5924 1 109.50000 418.400000
5923 13030 5925 1 109.50000 418.400000
5924 13030 5925 1 109.50000 418.400000
1862 13031 3414 1 109.50000 418.400000
1862 13031 3415 1 109.50000 418.400000
1862 13031 5926 1 109.50000 418.400000
3414 13031 3415 1 109.50000 418.400000
3414 13031 5926 1 109.50000 418.400000
3415 13031 5926 1 109.50000 418.400000
4457 13032 5469 1 109.50000 418.400000
4457 13032 5928 1 109.50000 418.400000
4457 13032 5929 1 109.50000 418.400000
5469 13032 5928 1 109.50000 418.400000
5469 13032 5929 1 109.50000 418.400000
5928 13032 5929 1 109.50000 418.400000
5930 13033 5931 1 109.50000 418.400000
5930 13033 5932 1 109.50000 418.400000
5930 13033 5933 1 109.50000 418.400000
5931 13033 5932 1 109.50000 418.400000
5931 13033 5933 1 109.50000 418.400000
5932 13033 5933 1 109.50000 418.400000
2263 13034 3255 1 109.50000 418.400000
2263 13034 5395 1 109.50000 418.400000
2263 13034 5934 1 109.50000 418.400000
3255 13034 5395 1 109.50000 418.400000
3255 13034 5934 1 109.50000 418.400000
5395 13034 5934 1 109.50000 418.400000
1189 13035 1192 1 109.50000 418.400000
1189 13035 5935 1 109.50000 418.400000
1189 13035 5936 1 109.50000 418.400000
1192 13035 5935 1 109.50000 418.400000
1192 13035 5936 1 109.50000 418.400000
5935 13035 5936 1 109.50000 418.400000
4312 13036 4492 1 109.50000 418.400000
4312 13036 5937 1 109.50000 418.400000
4312 13036 5938 1 109.50000 418.400000
4492 13036 5937 1 109.50000 418.400000
4492 13036 5938 1 109.50000 418.400000
5937 13036 5938 1 109.50000 418.400000
5939 13037 5940 1 109.50000 418.400000
5939 13037 5941 1 109.50000 418.400000
5939 13037 5942 1 109.50000 418.400000
5940 13037 5941 1 109.50000 418.400000
5940 13037 5942 1 109.50000 418.400000
5941 13037 5942 1 109.50000 418.400000
5743 13038 5945 1 109.50000 418.400000
5743 13038 9887 1 109.50000 418.400000
5743 13038 9889 1 109.50000 418.400000
5945 13038 9887 1 109.50000 418.400000
5945 13038 9889 1 109.50000 418.400000
9887 13038 9889 1 109.50000 418.400000
2385 13039 5946 1 109.50000 418.400000
2385 13039 5947 1 109.50000 418.400000
2385 13039 5948 1 109.50000 418.400000
5946 13039 5947 1 109.50000 418.400000
5946 13039 5948 1 109.50000 418.400000
5947 13039 5948 1 109.50000 418.400000
5949 13040 5950 1 109.50000 418.400000
5949 13040 5951 1 109.50000 418.400000
5949 13040 5952 1 109.50000 418.400000
5950 13040 5951 1 109.50000 418.400000
5950 13040 5952 1 109.50000 418.400000
5951 13040 5952 1 109.50000 418.400000
5953 13041 5954 1 109.50000 418.400000
5953 13041 5955 1 109.50000 418.400000
5953 13041 5956 1 109.50000 418.400000
5954 13041 5955 1 109.50000 418.400000
5954 13041 5956 1 109.50000 418.400000
5955 13041 5956 1 109.50000 418.400000
5957 13042 5958 1 109.50000 418.400000
5957 13042 5959 1 109.50000 418.400000
5957 13042 5960 1 109.50000 418.400000
5958 13042 5959 1 109.50000 418.400000
5958 13042 5960 1 109.50000 418.400000
5959 13042 5960 1 109.50000 418.400000
800 13043 4888 1 109.50000 418.400000
800 13043 5961 1 109.50000 418.400000
800 13043 5962 1 109.50000 418.400000
4888 13043 5961 1 109.50000 418.400000
4888 13043 5962 1 109.50000 418.400000
5961 13043 5962 1 109.50000 418.400000
1820 13044 1955 1 109.50000 418.400000
1820 13044 5966 1 109.50000 418.400000
1820 13044 5967 1 109.50000 418.400000
1955 13044 5966 1 109.50000 418.400000
1955 13044 5967 1 109.50000 418.400000
5966 13044 5967 1 109.50000 418.400000
1881 13045 2586 1 109.50000 418.400000
1881 13045 5968 1 109.50000 418.400000
1881 13045 5969 1 109.50000 418.400000
2586 13045 5968 1 109.50000 418.400000
2586 13045 5969 1 109.50000 418.400000
5968 13045 5969 1 109.50000 418.400000
5018 13046 5970 1 109.50000 418.400000
5018 13046 5971 1 109.50000 418.400000
5018 13046 5972 1 109.50000 418.400000
5970 13046 5971 1 109.50000 418.400000
5970 13046 5972 1 109.50000 418.400000
5971 13046 5972 1 109.50000 418.400000
1624 13047 5976 1 109.50000 418.400000
1624 13047 5977 1 109.50000 418.400000
1624 13047 7670 1 109.50000 418.400000
5976 13047 5977 1 109.50000 418.400000
5976 13047 7670 1 109.50000 418.400000
5977 13047 7670 1 109.50000 418.400000
2012 13048 3940 1 109.50000 418.400000
2012 13048 5982 1 109.50000 418.400000
2012 13048 5983 1 109.50000 418.400000
3940 13048 5982 1 109.50000 418.400000
3940 13048 5983 1 109.50000 418.400000
5982 13048 5983 1 109.50000 418.400000
5814 13049 5984 1 109.50000 418.400000
5814 13049 5985 1 109.50000 418.400000
5814 13049 5986 1 109.50000 418.400000
5984 13049 5985 1 109.50000 418.400000
5984 13049 5986 1 109.50000 418.400000
5985 13049 5986 1 109.50000 418.400000
3747 13050 4947 1 109.50000 418.400000
3747 13050 5987 1 109.50000 418.400000
3747 13050 5988 1 109.50000 418.400000
4947 13050 5987 1 109.50000 418.400000
4947 13050 5988 1 109.50000 418.400000
5987 13050 5988 1 109.50000 418.400000
3872 13051 4464 1 109.50000 418.400000
3872 13051 5989 1 109.50000 418.400000
3872 13051 5990 1 109.50000 418.400000
4464 13051 5989 1 109.50000 418.400000
4464 13051 5990 1 109.50000 418.400000
5989 13051 5990 1 109.50000 418.400000
5993 13052 5994 1 109.50000 418.400000
5993 13052 5995 1 109.50000 418.400000
5993 13052 5996 1 109.50000 418.400000
5994 13052 5995 1 109.50000 418.400000
5994 13052 5996 1 109.50000 418.400000
5995 13052 5996 1 109.50000 418.400000
555 13053 1228 1 109.50000 418.400000
555 13053 4653 1 109.50000 418.400000
555 13053 5999 1 109.50000 418.400000
1228 13053 4653 1 109.50000 418.400000
1228 13053 5999 1 109.50000 418.400000
4653 13053 5999 1 109.50000 418.400000
5527 13054 6000 1 109.50000 418.400000
5527 13054 6001 1 109.50000 418.400000
5527 13054 11343 1 109.50000 418.400000
6000 13054 6001 1 109.50000 418.400000
6000 13054 11343 1 109.50000 418.400000
6001 13054 11343 1 109.50000 418.400000
2207 13055 6002 1 109.50000 418.400000
2207 13055 6003 1 109.50000 418.400000
2207 13055 6004 1 109.50000 418.400000
6002 13055 6003 1 109.50000 418.400000
6002 13055 6004 1 109.50000 418.400000
6003 13055 6004 1 109.50000 418.400000
1685 13056 6005 1 109.50000 418.400000
1685 13056 6006 1 109.50000 418.400000
1685 13056 11374 1 109.50000 418.400000
6005 13056 6006 1 109.50000 418.400000
6005 13056 11374 1 109.50000 418.400000
6006 13056 11374 1 109.50000 418.400000
6007 13057 6008 1 109.50000 418.400000
6007 13057 6009 1 109.50000 418.400000
6007 13057 6010 1 109.50000 418.400000
6008 13057 6009 1 109.50000 418.400000
6008 13057 6010 1 109.50000 418.400000
6009 13057 6010 1 109.50000 418.400000
406 13058 2903 1 109.50000 418.400000
406 13058 6011 1 109.50000 418.400000
406 13058 6012 1 109.50000 418.400000
2903 13058 6011 1 109.50000 418.400000
2903 13058 6012 1 109.50000 418.400000
6011 13058 6012 1 109.50000 418.400000
222 13059 6013 1 109.50000 418.400000
222 13059 6014 1 109.50000 418.400000
222 13059 6015 1 109.50000 418.400000
6013 13059 6014 1 109.50000 418.400000
6013 13059 6015 1 109.50000 418.400000
6014 13059 6015 1 109.50000 418.400000
6016 13060 6017 1 109.50000 418.400000
6016 13060 6018 1 109.50000 418.400000
6016 13060 6019 1 109.50000 418.400000
6017 13060 6018 1 109.50000 418.400000
6017 13060 6019 1 109.50000 418.400000
6018 13060 6019 1 109.50000 418.400000
1160 13061 1162 1 109.50000 418.400000
1160 13061 1163 1 109.50000 418.400000
1160 13061 5112 1 109.50000 418.400000
1162 13061 1163 1 109.50000 418.400000
1162 13061 5112 1 109.50000 418.400000
1163 13061 5112 1 109.50000 418.400000
6022 13062 6023 1 109.50000 418.400000
6022 13062 6024 1 109.50000 418.400000
6022 13062 6025 1 109.50000 418.400000
6023 13062 6024 1 109.50000 418.400000
6023 13062 6025 1 109.50000 418.400000
6024 13062 6025 1 109.50000 418.400000
4590 13063 6028 1 109.50000 418.400000
4590 13063 6029 1 109.50000 418.400000
4590 13063 6030 1 109.50000 418.400000
6028 13063 6029 1 109.50000 418.400000
6028 13063 6030 1 109.50000 418.400000
6029 13063 6030 1 109.50000 418.400000
1584 13064 4663 1 109.50000 418.400000
1584 13064 6033 1 109.50000 418.400000
1584 13064 6034 1 109.50000 418.400000
4663 13064 6033 1 109.50000 418.400000
4663 13064 6034 1 109.50000 418.400000
6033 13064 6034 1 109.50000 418.400000
761 13065 6035 1 109.50000 418.400000
761 13065 6036 1 109.50000 418.400000
761 13065 6037 1 109.50000 418.400000
6035 13065 6036 1 109.50000 418.400000
6035 13065 6037 1 109.50000 418.400000
6036 13065 6037 1 109.50000 418.400000
2163 13066 2164 1 109.50000 418.400000
2163 13066 6038 1 109.50000 418.400000
2163 13066 11305 1 109.50000 418.400000
2164 13066 6038 1 109.50000 418.400000
2164 13066 11305 1 109.50000 418.400000
6038 13066 11305 1 109.50000 418.400000
6039 13067 6040 1 109.50000 418.400000
6039 13067 6041 1 109.50000 418.400000
6039 13067 6042 1 109.50000 418.400000
6040 13067 6041 1 109.50000 418.400000
6040 13067 6042 1 109.50000 418.400000
6041 13067 6042 1 109.50000 418.400000
6043 13068 6044 1 109.50000 418.400000
6043 13068 6045 1 109.50000 418.400000
6043 13068 6046 1 109.50000 418.400000
6044 13068 6045 1 109.50000 418.400000
6044 13068 6046 1 109.50000 418.400000
6045 13068 6046 1 109.50000 418.400000
2394 13069 6047 1 109.50000 418.400000
2394 13069 6048 1 109.50000 418.400000
2394 13069 6049 1 109.50000 418.400000
6047 13069 6048 1 109.50000 418.400000
6047 13069 6049 1 109.50000 418.400000
6048 13069 6049 1 109.50000 418.400000
2145 13070 4687 1 109.50000 418.400000
2145 13070 4715 1 109.50000 418.400000
2145 13070 6050 1 109.50000 418.400000
4687 13070 4715 1 109.50000 418.400000
4687 13070 6050 1 109.50000 418.400000
4715 13070 6050 1 109.50000 418.400000
287 13071 6052 1 109.50000 418.400000
287 13071 6053 1 109.50000 418.400000
287 13071 6054 1 109.50000 418.400000
6052 13071 6053 1 109.50000 418.400000
6052 13071 6054 1 109.50000 418.400000
6053 13071 6054 1 109.50000 418.400000
6055 13072 6056 1 109.50000 418.400000
6055 13072 6057 1 109.50000 418.400000
6055 13072 10055 1 109.50000 418.400000
6056 13072 6057 1 109.50000 418.400000
6056 13072 10055 1 109.50000 418.400000
6057 13072 10055 1 109.50000 418.400000
1088 13073 6058 1 109.50000 418.400000
1088 13073 6059 1 109.50000 418.400000
1088 13073 6060 1 109.50000 418.400000
6058 13073 6059 1 109.50000 418.400000
6058 13073 6060 1 109.50000 418.400000
6059 13073 6060 1 109.50000 418.400000
2979 13074 3790 1 109.50000 418.400000
2979 13074 4466 1 109.50000 418.400000
2979 13074 6061 1 109.50000 418.400000
3790 13074 4466 1 109.50000 418.400000
3790 13074 6061 1 109.50000 418.400000
4466 13074 6061 1 109.50000 418.400000
2141 13075 6062 1 109.50000 418.400000
2141 13075 6063 1 109.50000 418.400000
2141 13075 6064 1 109.50000 418.400000
6062 13075 6063 1 109.50000 418.400000
6062 13075 6064 1 109.50000 418.400000
6063 13075 6064 1 109.50000 418.400000
4627 13076 6065 1 109.50000 418.400000
4627 13076 6066 1 109.50000 418.400000
4627 13076 6067 1 109.50000 418.400000
6065 13076 6066 1 109.50000 418.400000
6065 13076 6067 1 109.50000 418.400000
6066 13076 6067 1 109.50000 418.400000
213 13077 214 1 109.50000 418.400000
213 13077 6068 1 109.50000 418.400000
213 13077 6069 1 109.50000 418.400000
214 13077 6068 1 109.50000 418.400000
214 13077 6069 1 109.50000 418.400000
6068 13077 6069 1 109.50000 418.400000
6070 13078 6071 1 109.50000 418.400000
6070 13078 6072 1 109.50000 418.400000
6070 13078 6073 1 109.50000 418.400000
6071 13078 6072 1 109.50000 418.400000
6071 13078 6073 1 109.50000 418.400000
6072 13078 6073 1 109.50000 418.400000
2000 13079 2631 1 109.50000 418.400000
2000 13079 6074 1 109.50000 418.400000
2000 13079 6075 1 109.50000 418.400000
2631 13079 6074 1 109.50000 418.400000
2631 13079 6075 1 109.50000 418.400000
6074 13079 6075 1 109.50000 418.400000
284 13080 6076 1 109.50000 418.400000
284 13080 6077 1 109.50000 418.400000
284 13080 6078 1 109.50000 418.400000
6076 13080 6077 1 109.50000 418.400000
6076 13080 6078 1 109.50000 418.400000
6077 13080 6078 1 109.50000 418.400000
5595 13081 6081 1 109.50000 418.400000
5595 13081 6082 1 109.50000 418.400000
5595 13081 6083 1 109.50000 418.400000
6081 13081 6082 1 109.50000 418.400000
6081 13081 6083 1 109.50000 418.400000
6082 13081 6083 1 109.50000 418.400000
6084 13082 6085 1 109.50000 418.400000
6084 13082 6086 1 109.50000 418.400000
6084 13082 6087 1 109.50000 418.400000
6085 13082 6086 1 109.50000 418.400000
6085 13082 6087 1 109.50000 418.400000
6086 13082 6087 1 109.50000 418.400000
6090 13083 6091 1 109.50000 418.400000
6090 13083 6092 1 109.50000 418.400000
6090 13083 6093 1 109.50000 418.400000
6091 13083 6092 1 109.50000 418.400000
6091 13083 6093 1 109.50000 418.400000
6092 13083 6093 1 109.50000 418.400000
1100 13084 6094 1 109.50000 418.400000
1100 13084 6095 1 109.50000 418.400000
1100 13084 6096 1 109.50000 418.400000
6094 13084 6095 1 109.50000 418.400000
6094 13084 6096 1 109.50000 418.400000
6095 13084 6096 1 109.50000 418.400000
2090 13085 3389 1 109.50000 418.400000
2090 13085 6097 1 109.50000 418.400000
2090 13085 6098 1 109.50000 418.400000
3389 13085 6097 1 109.50000 418.400000
3389 13085 6098 1 109.50000 418.400000
6097 13085 6098 1 109.50000 418.400000
4941 13086 6004 1 109.50000 418.400000
4941 13086 6102 1 109.50000 418.400000
4941 13086 6103 1 109.50000 418.400000
6004 13086 6102 1 109.50000 418.400000
6004 13086 6103 1 109.50000 418.400000
6102 13086 6103 1 109.50000 418.400000
6104 13087 6105 1 109.50000 418.400000
6104 13087 6106 1 109.50000 418.400000
6104 13087 6107 1 109.50000 418.400000
6105 13087 6106 1 109.50000 418.400000
6105 13087 6107 1 109.50000 418.400000
6106 13087 6107 1 109.50000 418.400000
4845 13088 6111 1 109.50000 418.400000
4845 13088 6113 1 109.50000 418.400000
4845 13088 10052 1 109.50000 418.400000
6111 13088 6113 1 109.50000 418.400000
6111 13088 10052 1 109.50000 418.400000
6113 13088 10052 1 109.50000 418.400000
2212 13089 3708 1 109.50000 418.400000
2212 13089 3709 1 109.50000 418.400000
2212 13089 6115 1 109.50000 418.400000
3708 13089 3709 1 109.50000 418.400000
3708 13089 6115 1 109.50000 418.400000
3709 13089 6115 1 109.50000 418.400000
4349 13090 6116 1 109.50000 418.400000
4349 13090 6117 1 109.50000 418.400000
4349 13090 11203 1 109.50000 418.400000
6116 13090 6117 1 109.50000 418.400000
6116 13090 11203 1 109.50000 418.400000
6117 13090 11203 1 109.50000 418.400000
2809 13091 4094 1 109.50000 418.400000
2809 13091 4253 1 109.50000 418.400000
2809 13091 6118 1 109.50000 418.400000
4094 13091 4253 1 109.50000 418.400000
4094 13091 6118 1 109.50000 418.400000
4253 13091 6118 1 109.50000 418.400000
307 13092 6119 1 109.50000 418.400000
307 13092 6120 1 109.50000 418.400000
307 13092 6121 1 109.50000 418.400000
6119 13092 6120 1 109.50000 418.400000
6119 13092 6121 1 109.50000 418.400000
6120 13092 6121 1 109.50000 418.400000
4795 13093 6122 1 109.50000 418.400000
4795 13093 6123 1 109.50000 418.400000
4795 13093 11184 1 109.50000 418.400000
6122 13093 6123 1 109.50000 418.400000
6122 13093 11184 1 109.50000 418.400000
6123 13093 11184 1 109.50000 418.400000
6124 13094 6125 1 109.50000 418.400000
6124 13094 6126 1 109.50000 418.400000
6124 13094 6127 1 109.50000 418.400000
6125 13094 6126 1 109.50000 418.400000
6125 13094 6127 1 109.50000 418.400000
6126 13094 6127 1 109.50000 418.400000
2358 13095 3142 1 109.50000 418.400000
2358 13095 3265 1 109.50000 418.400000
2358 13095 6128 1 109.50000 418.400000
3142 13095 3265 1 109.50000 418.400000
3142 13095 6128 1 109.50000 418.400000
3265 13095 6128 1 109.50000 418.400000
1038 13096 6129 1 109.50000 418.400000
1038 13096 6130 1 109.50000 418.400000
1038 13096 6131 1 109.50000 418.400000
6129 13096 6130 1 109.50000 418.400000
6129 13096 6131 1 109.50000 418.400000
6130 13096 6131 1 109.50000 418.400000
6132 13097 6133 1 109.50000 418.400000
6132 13097 6134 1 109.50000 418.400000
6132 13097 7283 1 109.50000 418.400000
6133 13097 6134 1 109.50000 418.400000
6133 13097 7283 1 109.50000 418.400000
6134 13097 7283 1 109.50000 418.400000
2147 13098 3328 1 109.50000 418.400000
2147 13098 6132 1 109.50000 418.400000
2147 13098 6136 1 109.50000 418.400000
3328 13098 6132 1 109.50000 418.400000
3328 13098 6136 1 109.50000 418.400000
6132 13098 6136 1 109.50000 418.400000
6137 13099 6138 1 109.50000 418.400000
6137 13099 6139 1 109.50000 418.400000
6137 13099 6140 1 109.50000 418.400000
6138 13099 6139 1 109.50000 418.400000
6138 13099 6140 1 109.50000 418.400000
6139 13099 6140 1 109.50000 418.400000
5532 13100 6141 1 109.50000 418.400000
5532 13100 6142 1 109.50000 418.400000
5532 13100 6143 1 109.50000 418.400000
6141 13100 6142 1 109.50000 418.400000
6141 13100 6143 1 109.50000 418.400000
6142 13100 6143 1 109.50000 418.400000
2049 13101 2248 1 109.50000 418.400000
2049 13101 2896 1 109.50000 418.400000
2049 13101 6144 1 109.50000 418.400000
2248 13101 2896 1 109.50000 418.400000
2248 13101 6144 1 109.50000 418.400000
2896 13101 6144 1 109.50000 418.400000
3996 13102 4443 1 109.50000 418.400000
3996 13102 6146 1 109.50000 418.400000
3996 13102 6321 1 109.50000 418.400000
4443 13102 6146 1 109.50000 418.400000
4443 13102 6321 1 109.50000 418.400000
6146 13102 6321 1 109.50000 418.400000
2620 13103 6148 1 109.50000 418.400000
2620 13103 6149 1 109.50000 418.400000
2620 13103 11283 1 109.50000 418.400000
6148 13103 6149 1 109.50000 418.400000
6148 13103 11283 1 109.50000 418.400000
6149 13103 11283 1 109.50000 418.400000
6150 13104 6151 1 109.50000 418.400000
6150 13104 6152 1 109.50000 418.400000
6150 13104 6153 1 109.50000 418.400000
6151 13104 6152 1 109.50000 418.400000
6151 13104 6153 1 109.50000 418.400000
6152 13104 6153 1 109.50000 418.400000
3973 13105 4286 1 109.50000 418.400000
3973 13105 5665 1 109.50000 418.400000
3973 13105 6154 1 109.50000 418.400000
4286 13105 5665 1 109.50000 418.400000
4286 13105 6154 1 109.50000 418.400000
5665 13105 6154 1 109.50000 418.400000
1093 13106 6155 1 109.50000 418.400000
1093 13106 6156 1 109.50000 418.400000
1093 13106 6157 1 109.50000 418.400000
6155 13106 6156 1 109.50000 418.400000
6155 13106 6157 1 109.50000 418.400000
6156 13106 6157 1 109.50000 418.400000
2983 13107 3693 1 109.50000 418.400000
2983 13107 6158 1 109.50000 418.400000
2983 13107 6159 1 109.50000 418.400000
3693 13107 6158 1 109.50000 418.400000
3693 13107 6159 1 109.50000 418.400000
6158 13107 6159 1 109.50000 418.400000
4746 13108 4801 1 109.50000 418.400000
4746 13108 4802 1 109.50000 418.400000
4746 13108 6160 1 109.50000 418.400000
4801 13108 4802 1 109.50000 418.400000
4801 13108 6160 1 109.50000 418.400000
4802 13108 6160 1 109.50000 418.400000
1369 13109 6163 1 109.50000 418.400000
1369 13109 6164 1 109.50000 418.400000
1369 13109 11309 1 109.50000 418.400000
6163 13109 6164 1 109.50000 418.400000
6163 13109 11309 1 109.50000 418.400000
6164 13109 11309 1 109.50000 418.400000
5464 13110 5466 1 109.50000 418.400000
5464 13110 6165 1 109.50000 418.400000
5464 13110 6166 1 109.50000 418.400000
5466 13110 6165 1 109.50000 418.400000
5466 13110 6166 1 109.50000 418.400000
6165 13110 6166 1 109.50000 418.400000
6168 13111 6169 1 109.50000 418.400000
6168 13111 6170 1 109.50000 418.400000
6168 13111 8848 1 109.50000 418.400000
6169 13111 6170 1 109.50000 418.400000
6169 13111 8848 1 109.50000 418.400000
6170 13111 8848 1 109.50000 418.400000
4293 13112 5672 1 109.50000 418.400000
4293 13112 6171 1 109.50000 418.400000
4293 13112 6172 1 109.50000 418.400000
5672 13112 6171 1 109.50000 418.400000
5672 13112 6172 1 109.50000 418.400000
6171 13112 6172 1 109.50000 418.400000
6038 13113 6173 1 109.50000 418.400000
6038 13113 6174 1 109.50000 418.400000
6038 13113 11158 1 109.50000 418.400000
6173 13113 6174 1 109.50000 418.400000
6173 13113 11158 1 109.50000 418.400000
6174 13113 11158 1 109.50000 418.400000
592 13114 4685 1 109.50000 418.400000
592 13114 6176 1 109.50000 418.400000
592 13114 6177 1 109.50000 418.400000
4685 13114 6176 1 109.50000 418.400000
4685 13114 6177 1 109.50000 418.400000
6176 13114 6177 1 109.50000 418.400000
437 13115 3324 1 109.50000 418.400000
437 13115 6179 1 109.50000 418.400000
437 13115 6180 1 109.50000 418.400000
3324 13115 6179 1 109.50000 418.400000
3324 13115 6180 1 109.50000 418.400000
6179 13115 6180 1 109.50000 418.400000
6181 13116 6182 1 109.50000 418.400000
6181 13116 6183 1 109.50000 418.400000
6181 13116 6184 1 109.50000 418.400000
6182 13116 6183 1 109.50000 418.400000
6182 13116 6184 1 109.50000 418.400000
6183 13116 6184 1 109.50000 418.400000
4111 13117 6185 1 109.50000 418.400000
4111 13117 6186 1 109.50000 418.400000
4111 13117 6187 1 109.50000 418.400000
6185 13117 6186 1 109.50000 418.400000
6185 13117 6187 1 109.50000 418.400000
6186 13117 6187 1 109.50000 418.400000
6188 13118 6189 1 109.50000 418.400000
6188 13118 6190 1 109.50000 418.400000
6188 13118 6191 1 109.50000 418.400000
6189 13118 6190 1 109.50000 418.400000
6189 13118 6191 1 109.50000 418.400000
6190 13118 6191 1 109.50000 418.400000
6193 13119 6194 1 109.50000 418.400000
6193 13119 6195 1 109.50000 418.400000
6193 13119 6196 1 109.50000 418.400000
6194 13119 6195 1 109.50000 418.400000
6194 13119 6196 1 109.50000 418.400000
6195 13119 6196 1 109.50000 418.400000
1718 13120 6200 1 109.50000 418.400000
1718 13120 6201 1 109.50000 418.400000
1718 13120 6202 1 109.50000 418.400000
6200 13120 6201 1 109.50000 418.400000
6200 13120 6202 1 109.50000 418.400000
6201 13120 6202 1 109.50000 418.400000
4499 13121 5159 1 109.50000 418.400000
4499 13121 6203 1 109.50000 418.400000
4499 13121 6204 1 109.50000 418.400000
5159 13121 6203 1 109.50000 418.400000
5159 13121 6204 1 109.50000 418.400000
6203 13121 6204 1 109.50000 418.400000
2712 13122 6205 1 109.50000 418.400000
2712 13122 6206 1 109.50000 418.400000
2712 13122 6207 1 109.50000 418.400000
6205 13122 6206 1 109.50000 418.400000
6205 13122 6207 1 109.50000 418.400000
6206 13122 6207 1 109.50000 418.400000
1101 13123 3236 1 109.50000 418.400000
1101 13123 6208 1 109.50000 418.400000
1101 13123 6209 1 109.50000 418.400000
3236 13123 6208 1 109.50000 418.400000
3236 13123 6209 1 109.50000 418.400000
6208 13123 6209 1 109.50000 418.400000
6210 13124 6211 1 109.50000 418.400000
6210 13124 6212 1 109.50000 418.400000
6210 13124 6213 1 109.50000 418.400000
6211 13124 6212 1 109.50000 418.400000
6211 13124 6213 1 109.50000 418.400000
6212 13124 6213 1 109.50000 418.400000
939 13125 4632 1 109.50000 418.400000
939 13125 6120 1 109.50000 418.400000
939 13125 6214 1 109.50000 418.400000
4632 13125 6120 1 109.50000 418.400000
4632 13125 6214 1 109.50000 418.400000
6120 13125 6214 1 109.50000 418.400000
3672 13126 6215 1 109.50000 418.400000
3672 13126 6216 1 109.50000 418.400000
3672 13126 6217 1 109.50000 418.400000
6215 13126 6216 1 109.50000 418.400000
6215 13126 6217 1 109.50000 418.400000
6216 13126 6217 1 109.50000 418.400000
473 13127 3491 1 109.50000 418.400000
473 13127 6218 1 109.50000 418.400000
473 13127 6219 1 109.50000 418.400000
3491 13127 6218 1 109.50000 418.400000
3491 13127 6219 1 109.50000 418.400000
6218 13127 6219 1 109.50000 418.400000
392 13128 5556 1 109.50000 418.400000
392 13128 6136 1 109.50000 418.400000
392 13128 6220 1 109.50000 418.400000
5556 13128 6136 1 109.50000 418.400000
5556 13128 6220 1 109.50000 418.400000
6136 13128 6220 1 109.50000 418.400000
2054 13129 2758 1 109.50000 418.400000
2054 13129 6221 1 109.50000 418.400000
2054 13129 6222 1 109.50000 418.400000
2758 13129 6221 1 109.50000 418.400000
2758 13129 6222 1 109.50000 418.400000
6221 13129 6222 1 109.50000 418.400000
449 13130 6223 1 109.50000 418.400000
449 13130 6224 1 109.50000 418.400000
449 13130 6225 1 109.50000 418.400000
6223 13130 6224 1 109.50000 418.400000
6223 13130 6225 1 109.50000 418.400000
6224 13130 6225 1 109.50000 418.400000
1091 13131 6226 1 109.50000 418.400000
1091 13131 6227 1 109.50000 418.400000
1091 13131 6228 1 109.50000 418.400000
6226 13131 6227 1 109.50000 418.400000
6226 13131 6228 1 109.50000 418.400000
6227 13131 6228 1 109.50000 418.400000
1121 13132 4211 1 109.50000 418.400000
1121 13132 6013 1 109.50000 418.400000
1121 13132 6235 1 109.50000 418.400000
4211 13132 6013 1 109.50000 418.400000
4211 13132 6235 1 109.50000 418.400000
6013 13132 6235 1 109.50000 418.400000
1232 13133 6236 1 109.50000 418.400000
1232 13133 6237 1 109.50000 418.400000
1232 13133 6238 1 109.50000 418.400000
6236 13133 6237 1 109.50000 418.400000
6236 13133 6238 1 109.50000 418.400000
6237 13133 6238 1 109.50000 418.400000
6239 13134 6240 1 109.50000 418.400000
6239 13134 6241 1 109.50000 418.400000
6239 13134 6242 1 109.50000 418.400000
6240 13134 6241 1 109.50000 418.400000
6240 13134 6242 1 109.50000 418.400000
6241 13134 6242 1 109.50000 418.400000
1891 13135 4578 1 109.50000 418.400000
1891 13135 6243 1 109.50000 418.400000
1891 13135 6244 1 109.50000 418.400000
4578 13135 6243 1 109.50000 418.400000
4578 13135 6244 1 109.50000 418.400000
6243 13135 6244 1 109.50000 418.400000
2307 13136 3952 1 109.50000 418.400000
2307 13136 6245 1 109.50000 418.400000
2307 13136 11040 1 109.50000 418.400000
3952 13136 6245 1 109.50000 418.400000
3952 13136 11040 1 109.50000 418.400000
6245 13136 11040 1 109.50000 418.400000
413 13137 2897 1 109.50000 418.400000
413 13137 6246 1 109.50000 418.400000
413 13137 6247 1 109.50000 418.400000
2897 13137 6246 1 109.50000 418.400000
2897 13137 6247 1 109.50000 418.400000
6246 13137 6247 1 109.50000 418.400000
850 13138 6248 1 109.50000 418.400000
850 13138 6249 1 109.50000 418.400000
850 13138 6250 1 109.50000 418.400000
6248 13138 6249 1 109.50000 418.400000
6248 13138 6250 1 109.50000 418.400000
6249 13138 6250 1 109.50000 418.400000
3587 13139 3588 1 109.50000 418.400000
3587 13139 4775 1 109.50000 418.400000
3587 13139 6251 1 109.50000 418.400000
3588 13139 4775 1 109.50000 418.400000
3588 13139 6251 1 109.50000 418.400000
4775 13139 6251 1 109.50000 418.400000
878 13140 6252 1 109.50000 418.400000
878 13140 6253 1 109.50000 418.400000
878 13140 6254 1 109.50000 418.400000
6252 13140 6253 1 109.50000 418.400000
6252 13140 6254 1 109.50000 418.400000
6253 13140 6254 1 109.50000 418.400000
6255 13141 6257 1 109.50000 418.400000
6255 13141 6258 1 109.50000 418.400000
6255 13141 8022 1 109.50000 418.400000
6257 13141 6258 1 109.50000 418.400000
6257 13141 8022 1 109.50000 418.400000
6258 13141 8022 1 109.50000 418.400000
4441 13142 6259 1 109.50000 418.400000
4441 13142 6260 1 109.50000 418.400000
4441 13142 6261 1 109.50000 418.400000
6259 13142 6260 1 109.50000 418.400000
6259 13142 6261 1 109.50000 418.400000
6260 13142 6261 1 109.50000 418.400000
2327 13143 2964 1 109.50000 418.400000
2327 13143 6265 1 109.50000 418.400000
2327 13143 11201 1 109.50000 418.400000
2964 13143 6265 1 109.50000 418.400000
2964 13143 11201 1 109.50000 418.400000
6265 13143 11201 1 109.50000 418.400000
371 13144 372 1 109.50000 418.400000
371 13144 373 1 109.50000 418.400000
371 13144 6180 1 109.50000 418.400000
372 13144 373 1 109.50000 418.400000
372 13144 6180 1 109.50000 418.400000
373 13144 6180 1 109.50000 418.400000
6268 13145 6269 1 109.50000 418.400000
6268 13145 6270 1 109.50000 418.400000
6268 13145 6271 1 109.50000 418.400000
6269 13145 6270 1 109.50000 418.400000
6269 13145 6271 1 109.50000 418.400000
6270 13145 6271 1 109.50000 418.400000
6272 13146 6273 1 109.50000 418.400000
6272 13146 6274 1 109.50000 418.400000
6272 13146 6645 1 109.50000 418.400000
6273 13146 6274 1 109.50000 418.400000
6273 13146 6645 1 109.50000 418.400000
6274 13146 6645 1 109.50000 418.400000
4554 13147 6276 1 109.50000 418.400000
4554 13147 6277 1 109.50000 418.400000
4554 13147 11194 1 109.50000 418.400000
6276 13147 6277 1 109.50000 418.400000
6276 13147 11194 1 109.50000 418.400000
6277 13147 11194 1 109.50000 418.400000
6278 13148 6279 1 109.50000 418.400000
6278 13148 6280 1 109.50000 418.400000
6278 13148 6281 1 109.50000 418.400000
6279 13148 6280 1 109.50000 418.400000
6279 13148 6281 1 109.50000 418.400000
6280 13148 6281 1 109.50000 418.400000
1475 13149 2616 1 109.50000 418.400000
1475 13149 3373 1 109.50000 418.400000
1475 13149 6282 1 109.50000 418.400000
2616 13149 3373 1 109.50000 418.400000
2616 13149 6282 1 109.50000 418.400000
3373 13149 6282 1 109.50000 418.400000
5812 13150 6283 1 109.50000 418.400000
5812 13150 6284 1 109.50000 418.400000
5812 13150 6285 1 109.50000 418.400000
6283 13150 6284 1 109.50000 418.400000
6283 13150 6285 1 109.50000 418.400000
6284 13150 6285 1 109.50000 418.400000
1277 13151 3654 1 109.50000 418.400000
1277 13151 6286 1 109.50000 418.400000
1277 13151 6287 1 109.50000 418.400000
3654 13151 6286 1 109.50000 418.400000
3654 13151 6287 1 109.50000 418.400000
6286 13151 6287 1 109.50000 418.400000
1916 13152 5293 1 109.50000 418.400000
1916 13152 6288 1 109.50000 418.400000
1916 13152 6289 1 109.50000 418.400000
5293 13152 6288 1 109.50000 418.400000
5293 13152 6289 1 109.50000 418.400000
6288 13152 6289 1 109.50000 418.400000
1275 13153 3964 1 109.50000 418.400000
1275 13153 6290 1 109.50000 418.400000
1275 13153 6291 1 109.50000 418.400000
3964 13153 6290 1 109.50000 418.400000
3964 13153 6291 1 109.50000 418.400000
6290 13153 6291 1 109.50000 418.400000
5873 13154 6292 1 109.50000 418.400000
5873 13154 6293 1 109.50000 418.400000
5873 13154 6294 1 109.50000 418.400000
6292 13154 6293 1 109.50000 418.400000
6292 13154 6294 1 109.50000 418.400000
6293 13154 6294 1 109.50000 418.400000
3286 13155 6008 1 109.50000 418.400000
3286 13155 6295 1 109.50000 418.400000
3286 13155 6296 1 109.50000 418.400000
6008 13155 6295 1 109.50000 418.400000
6008 13155 6296 1 109.50000 418.400000
6295 13155 6296 1 109.50000 418.400000
6297 13156 6298 1 109.50000 418.400000
6297 13156 6299 1 109.50000 418.400000
6297 13156 6300 1 109.50000 418.400000
6298 13156 6299 1 109.50000 418.400000
6298 13156 6300 1 109.50000 418.400000
6299 13156 6300 1 109.50000 418.400000
1757 13157 6301 1 109.50000 418.400000
1757 13157 6302 1 109.50000 418.400000
1757 13157 6303 1 109.50000 418.400000
6301 13157 6302 1 109.50000 418.400000
6301 13157 6303 1 109.50000 418.400000
6302 13157 6303 1 109.50000 418.400000
4131 13158 4973 1 109.50000 418.400000
4131 13158 6304 1 109.50000 418.400000
4131 13158 6305 1 109.50000 418.400000
4973 13158 6304 1 109.50000 418.400000
4973 13158 6305 1 109.50000 418.400000
6304 13158 6305 1 109.50000 418.400000
3368 13159 6306 1 109.50000 418.400000
3368 13159 6307 1 109.50000 418.400000
3368 13159 6308 1 109.50000 418.400000
6306 13159 6307 1 109.50000 418.400000
6306 13159 6308 1 109.50000 418.400000
6307 13159 6308 1 109.50000 418.400000
5218 13160 6309 1 109.50000 418.400000
5218 13160 6310 1 109.50000 418.400000
5218 13160 11197 1 109.50000 418.400000
6309 13160 6310 1 109.50000 418.400000
6309 13160 11197 1 109.50000 418.400000
6310 13160 11197 1 109.50000 418.400000
1996 13161 6311 1 109.50000 418.400000
1996 13161 6312 1 109.50000 418.400000
1996 13161 6313 1 109.50000 418.400000
6311 13161 6312 1 109.50000 418.400000
6311 13161 6313 1 109.50000 418.400000
6312 13161 6313 1 109.50000 418.400000
4047 13162 6316 1 109.50000 418.400000
4047 13162 6317 1 109.50000 418.400000
4047 13162 6318 1 109.50000 418.400000
6316 13162 6317 1 109.50000 418.400000
6316 13162 6318 1 109.50000 418.400000
6317 13162 6318 1 109.50000 418.400000
6319 13163 6320 1 109.50000 418.400000
6319 13163 6321 1 109.50000 418.400000
6319 13163 6322 1 109.50000 418.400000
6320 13163 6321 1 109.50000 418.400000
6320 13163 6322 1 109.50000 418.400000
6321 13163 6322 1 109.50000 418.400000
5166 13164 5675 1 109.50000 418.400000
5166 13164 6323 1 109.50000 418.400000
5166 13164 6324 1 109.50000 418.400000
5675 13164 6323 1 109.50000 418.400000
5675 13164 6324 1 109.50000 418.400000
6323 13164 6324 1 109.50000 418.400000
2126 13165 6325 1 109.50000 418.400000
2126 13165 6326 1 109.50000 418.400000
2126 13165 6327 1 109.50000 418.400000
6325 13165 6326 1 109.50000 418.400000
6325 13165 6327 1 109.50000 418.400000
6326 13165 6327 1 109.50000 418.400000
2735 13166 6328 1 109.50000 418.400000
2735 13166 6329 1 109.50000 418.400000
2735 13166 6330 1 109.50000 418.400000
6328 13166 6329 1 109.50000 418.400000
6328 13166 6330 1 109.50000 418.400000
6329 13166 6330 1 109.50000 418.400000
6331 13167 6332 1 109.50000 418.400000
6331 13167 6333 1 109.50000 418.400000
6331 13167 6334 1 109.50000 418.400000
6332 13167 6333 1 109.50000 418.400000
6332 13167 6334 1 109.50000 418.400000
6333 13167 6334 1 109.50000 418.400000
2557 13168 2560 1 109.50000 418.400000
2557 13168 6335 1 109.50000 418.400000
2557 13168 11166 1 109.50000 418.400000
2560 13168 6335 1 109.50000 418.400000
2560 13168 11166 1 109.50000 418.400000
6335 13168 11166 1 109.50000 418.400000
87 13169 5533 1 109.50000 418.400000
87 13169 6336 1 109.50000 418.400000
87 13169 9085 1 109.50000 418.400000
5533 13169 6336 1 109.50000 418.400000
5533 13169 9085 1 109.50000 418.400000
6336 13169 9085 1 109.50000 418.400000
3369 13170 5534 1 109.50000 418.400000
3369 13170 6338 1 109.50000 418.400000
3369 13170 6339 1 109.50000 418.400000
5534 13170 6338 1 109.50000 418.400000
5534 13170 6339 1 109.50000 418.400000
6338 13170 6339 1 109.50000 418.400000
4223 13171 6340 1 109.50000 418.400000
4223 13171 6341 1 109.50000 418.400000
4223 13171 6342 1 109.50000 418.400000
6340 13171 6341 1 109.50000 418.400000
6340 13171 6342 1 109.50000 418.400000
6341 13171 6342 1 109.50000 418.400000
1950 13172 2017 1 109.50000 418.400000
1950 13172 6343 1 109.50000 418.400000
1950 13172 6345 1 109.50000 418.400000
2017 13172 6343 1 109.50000 418.400000
2017 13172 6345 1 109.50000 418.400000
6343 13172 6345 1 109.50000 418.400000
6346 13173 6347 1 109.50000 418.400000
6346 13173 6348 1 109.50000 418.400000
6346 13173 6349 1 109.50000 418.400000
6347 13173 6348 1 109.50000 418.400000
6347 13173 6349 1 109.50000 418.400000
6348 13173 6349 1 109.50000 418.400000
2052 13174 2719 1 109.50000 418.400000
2052 13174 6352 1 109.50000 418.400000
2052 13174 6353 1 109.50000 418.400000
2719 13174 6352 1 109.50000 418.400000
2719 13174 6353 1 109.50000 418.400000
6352 13174 6353 1 109.50000 418.400000
5113 13175 5115 1 109.50000 418.400000
5113 13175 6354 1 109.50000 418.400000
5113 13175 6355 1 109.50000 418.400000
5115 13175 6354 1 109.50000 418.400000
5115 13175 6355 1 109.50000 418.400000
6354 13175 6355 1 109.50000 418.400000
423 13176 3117 1 109.50000 418.400000
423 13176 4717 1 109.50000 418.400000
423 13176 6357 1 109.50000 418.400000
3117 13176 4717 1 109.50000 418.400000
3117 13176 6357 1 109.50000 418.400000
4717 13176 6357 1 109.50000 418.400000
3090 13177 5951 1 109.50000 418.400000
3090 13177 6358 1 109.50000 418.400000
3090 13177 6359 1 109.50000 418.400000
5951 13177 6358 1 109.50000 418.400000
5951 13177 6359 1 109.50000 418.400000
6358 13177 6359 1 109.50000 418.400000
6360 13178 6362 1 109.50000 418.400000
6360 13178 6363 1 109.50000 418.400000
6360 13178 7308 1 109.50000 418.400000
6362 13178 6363 1 109.50000 418.400000
6362 13178 7308 1 109.50000 418.400000
6363 13178 7308 1 109.50000 418.400000
6364 13179 6365 1 109.50000 418.400000
6364 13179 6366 1 109.50000 418.400000
6364 13179 6367 1 109.50000 418.400000
6365 13179 6366 1 109.50000 418.400000
6365 13179 6367 1 109.50000 418.400000
6366 13179 6367 1 109.50000 418.400000
3994 13180 6368 1 109.50000 418.400000
3994 13180 6369 1 109.50000 418.400000
3994 13180 6370 1 109.50000 418.400000
6368 13180 6369 1 109.50000 418.400000
6368 13180 6370 1 109.50000 418.400000
6369 13180 6370 1 109.50000 418.400000
2967 13181 6371 1 109.50000 418.400000
2967 13181 6372 1 109.50000 418.400000
2967 13181 6373 1 109.50000 418.400000
6371 13181 6372 1 109.50000 418.400000
6371 13181 6373 1 109.50000 418.400000
6372 13181 6373 1 109.50000 418.400000
5340 13182 6313 1 109.50000 418.400000
5340 13182 6374 1 109.50000 418.400000
5340 13182 6375 1 109.50000 418.400000
6313 13182 6374 1 109.50000 418.400000
6313 13182 6375 1 109.50000 418.400000
6374 13182 6375 1 109.50000 418.400000
515 13183 5700 1 109.50000 418.400000
515 13183 6376 1 109.50000 418.400000
515 13183 6377 1 109.50000 418.400000
5700 13183 6376 1 109.50000 418.400000
5700 13183 6377 1 109.50000 418.400000
6376 13183 6377 1 109.50000 418.400000
6378 13184 6379 1 109.50000 418.400000
6378 13184 6380 1 109.50000 418.400000
6378 13184 11294 1 109.50000 418.400000
6379 13184 6380 1 109.50000 418.400000
6379 13184 11294 1 109.50000 418.400000
6380 13184 11294 1 109.50000 418.400000
818 13185 2222 1 109.50000 418.400000
818 13185 5510 1 109.50000 418.400000
818 13185 6381 1 109.50000 418.400000
2222 13185 5510 1 109.50000 418.400000
2222 13185 6381 1 109.50000 418.400000
5510 13185 6381 1 109.50000 418.400000
2730 13186 6385 1 109.50000 418.400000
2730 13186 6386 1 109.50000 418.400000
2730 13186 11330 1 109.50000 418.400000
6385 13186 6386 1 109.50000 418.400000
6385 13186 11330 1 109.50000 418.400000
6386 13186 11330 1 109.50000 418.400000
6387 13187 6388 1 109.50000 418.400000
6387 13187 6389 1 109.50000 418.400000
6387 13187 6390 1 109.50000 418.400000
6388 13187 6389 1 109.50000 418.400000
6388 13187 6390 1 109.50000 418.400000
6389 13187 6390 1 109.50000 418.400000
6391 13188 6392 1 109.50000 418.400000
6391 13188 6393 1 109.50000 418.400000
6391 13188 6394 1 109.50000 418.400000
6392 13188 6393 1 109.50000 418.400000
6392 13188 6394 1 109.50000 418.400000
6393 13188 6394 1 109.50000 418.400000
6395 13189 6396 1 109.50000 418.400000
6395 13189 6397 1 109.50000 418.400000
6395 13189 11303 1 109.50000 418.400000
6396 13189 6397 1 109.50000 418.400000
6396 13189 11303 1 109.50000 418.400000
6397 13189 11303 1 109.50000 418.400000
5661 13190 6398 1 109.50000 418.400000
5661 13190 6399 1 109.50000 418.400000
5661 13190 6778 1 109.50000 418.400000
6398 13190 6399 1 109.50000 418.400000
6398 13190 6778 1 109.50000 418.400000
6399 13190 6778 1 109.50000 418.400000
6402 13191 6403 1 109.50000 418.400000
6402 13191 10022 1 109.50000 418.400000
6402 13191 10024 1 109.50000 418.400000
6403 13191 10022 1 109.50000 418.400000
6403 13191 10024 1 109.50000 418.400000
10022 13191 10024 1 109.50000 418.400000
3944 13192 5219 1 109.50000 418.400000
3944 13192 6407 1 109.50000 418.400000
3944 13192 6408 1 109.50000 418.400000
5219 13192 6407 1 109.50000 418.400000
5219 13192 6408 1 109.50000 418.400000
6407 13192 6408 1 109.50000 418.400000
2615 13193 4908 1 109.50000 418.400000
2615 13193 6392 1 109.50000 418.400000
2615 13193 6409 1 109.50000 418.400000
4908 13193 6392 1 109.50000 418.400000
4908 13193 6409 1 109.50000 418.400000
6392 13193 6409 1 109.50000 418.400000
1025 13194 4844 1 109.50000 418.400000
1025 13194 6410 1 109.50000 418.400000
1025 13194 6411 1 109.50000 418.400000
4844 13194 6410 1 109.50000 418.400000
4844 13194 6411 1 109.50000 418.400000
6410 13194 6411 1 109.50000 418.400000
1420 13195 1734 1 109.50000 418.400000
1420 13195 6414 1 109.50000 418.400000
1420 13195 7233 1 109.50000 418.400000
1734 13195 6414 1 109.50000 418.400000
1734 13195 7233 1 109.50000 418.400000
6414 13195 7233 1 109.50000 418.400000
686 13196 4435 1 109.50000 418.400000
686 13196 4862 1 109.50000 418.400000
686 13196 6415 1 109.50000 418.400000
4435 13196 4862 1 109.50000 418.400000
4435 13196 6415 1 109.50000 418.400000
4862 13196 6415 1 109.50000 418.400000
5027 13197 6416 1 109.50000 418.400000
5027 13197 6418 1 109.50000 418.400000
5027 13197 7865 1 109.50000 418.400000
6416 13197 6418 1 109.50000 418.400000
6416 13197 7865 1 109.50000 418.400000
6418 13197 7865 1 109.50000 418.400000
3813 13198 4730 1 109.50000 418.400000
3813 13198 6419 1 109.50000 418.400000
3813 13198 6420 1 109.50000 418.400000
4730 13198 6419 1 109.50000 418.400000
4730 13198 6420 1 109.50000 418.400000
6419 13198 6420 1 109.50000 418.400000
808 13199 3227 1 109.50000 418.400000
808 13199 6421 1 109.50000 418.400000
808 13199 6422 1 109.50000 418.400000
3227 13199 6421 1 109.50000 418.400000
3227 13199 6422 1 109.50000 418.400000
6421 13199 6422 1 109.50000 418.400000
6424 13200 6425 1 109.50000 418.400000
6424 13200 6426 1 109.50000 418.400000
6424 13200 6427 1 109.50000 418.400000
6425 13200 6426 1 109.50000 418.400000
6425 13200 6427 1 109.50000 418.400000
6426 13200 6427 1 109.50000 418.400000
4430 13201 4902 1 109.50000 418.400000
4430 13201 6428 1 109.50000 418.400000
4430 13201 6429 1 109.50000 418.400000
4902 13201 6428 1 109.50000 418.400000
4902 13201 6429 1 109.50000 418.400000
6428 13201 6429 1 109.50000 418.400000
163 13202 5067 1 109.50000 418.400000
163 13202 6430 1 109.50000 418.400000
163 13202 6431 1 109.50000 418.400000
5067 13202 6430 1 109.50000 418.400000
5067 13202 6431 1 109.50000 418.400000
6430 13202 6431 1 109.50000 418.400000
3239 13203 5007 1 109.50000 418.400000
3239 13203 6432 1 109.50000 418.400000
3239 13203 6433 1 109.50000 418.400000
5007 13203 6432 1 109.50000 418.400000
5007 13203 6433 1 109.50000 418.400000
6432 13203 6433 1 109.50000 418.400000
6406 13204 6434 1 109.50000 418.400000
6406 13204 6435 1 109.50000 418.400000
6406 13204 6436 1 109.50000 418.400000
6434 13204 6435 1 109.50000 418.400000
6434 13204 6436 1 109.50000 418.400000
6435 13204 6436 1 109.50000 418.400000
134 13205 5025 1 109.50000 418.400000
134 13205 6438 1 109.50000 418.400000
134 13205 6439 1 109.50000 418.400000
5025 13205 6438 1 109.50000 418.400000
5025 13205 6439 1 109.50000 418.400000
6438 13205 6439 1 109.50000 418.400000
5104 13206 6440 1 109.50000 418.400000
5104 13206 6441 1 109.50000 418.400000
5104 13206 6442 1 109.50000 418.400000
6440 13206 6441 1 109.50000 418.400000
6440 13206 6442 1 109.50000 418.400000
6441 13206 6442 1 109.50000 418.400000
6443 13207 6444 1 109.50000 418.400000
6443 13207 6445 1 109.50000 418.400000
6443 13207 6446 1 109.50000 418.400000
6444 13207 6445 1 109.50000 418.400000
6444 13207 6446 1 109.50000 418.400000
6445 13207 6446 1 109.50000 418.400000
1261 13208 6447 1 109.50000 418.400000
1261 13208 6448 1 109.50000 418.400000
1261 13208 6449 1 109.50000 418.400000
6447 13208 6448 1 109.50000 418.400000
6447 13208 6449 1 109.50000 418.400000
6448 13208 6449 1 109.50000 418.400000
5992 13209 6450 1 109.50000 418.400000
5992 13209 6451 1 109.50000 418.400000
5992 13209 6452 1 109.50000 418.400000
6450 13209 6451 1 109.50000 418.400000
6450 13209 6452 1 109.50000 418.400000
6451 13209 6452 1 109.50000 418.400000
3290 13210 6453 1 109.50000 418.400000
3290 13210 6454 1 109.50000 418.400000
3290 13210 6455 1 109.50000 418.400000
6453 13210 6454 1 109.50000 418.400000
6453 13210 6455 1 109.50000 418.400000
6454 13210 6455 1 109.50000 418.400000
6456 13211 6457 1 109.50000 418.400000
6456 13211 6458 1 109.50000 418.400000
6456 13211 6459 1 109.50000 418.400000
6457 13211 6458 1 109.50000 418.400000
6457 13211 6459 1 109.50000 418.400000
6458 13211 6459 1 109.50000 418.400000
6460 13212 6461 1 109.50000 418.400000
6460 13212 6462 1 109.50000 418.400000
6460 13212 6463 1 109.50000 418.400000
6461 13212 6462 1 109.50000 418.400000
6461 13212 6463 1 109.50000 418.400000
6462 13212 6463 1 109.50000 418.400000
5519 13213 6464 1 109.50000 418.400000
5519 13213 6465 1 109.50000 418.400000
5519 13213 6466 1 109.50000 418.400000
6464 13213 6465 1 109.50000 418.400000
6464 13213 6466 1 109.50000 418.400000
6465 13213 6466 1 109.50000 418.400000
1020 13214 2731 1 109.50000 418.400000
1020 13214 6467 1 109.50000 418.400000
1020 13214 11335 1 109.50000 418.400000
2731 13214 6467 1 109.50000 418.400000
2731 13214 11335 1 109.50000 418.400000
6467 13214 11335 1 109.50000 418.400000
1421 13215 4026 1 109.50000 418.400000
1421 13215 4027 1 109.50000 418.400000
1421 13215 6469 1 109.50000 418.400000
4026 13215 4027 1 109.50000 418.400000
4026 13215 6469 1 109.50000 418.400000
4027 13215 6469 1 109.50000 418.400000
1000 13216 4411 1 109.50000 418.400000
1000 13216 6471 1 109.50000 418.400000
1000 13216 6472 1 109.50000 418.400000
4411 13216 6471 1 109.50000 418.400000
4411 13216 6472 1 109.50000 418.400000
6471 13216 6472 1 109.50000 418.400000
2892 13217 6473 1 109.50000 418.400000
2892 13217 6474 1 109.50000 418.400000
2892 13217 6475 1 109.50000 418.400000
6473 13217 6474 1 109.50000 418.400000
6473 13217 6475 1 109.50000 418.400000
6474 13217 6475 1 109.50000 418.400000
1235 13218 6476 1 109.50000 418.400000
1235 13218 6477 1 109.50000 418.400000
1235 13218 6478 1 109.50000 418.400000
6476 13218 6477 1 109.50000 418.400000
6476 13218 6478 1 109.50000 418.400000
6477 13218 6478 1 109.50000 418.400000
1605 13219 3649 1 109.50000 418.400000
1605 13219 3799 1 109.50000 418.400000
1605 13219 6479 1 109.50000 418.400000
3649 13219 3799 1 109.50000 418.400000
3649 13219 6479 1 109.50000 418.400000
3799 13219 6479 1 109.50000 418.400000
4015 13220 6480 1 109.50000 418.400000
4015 13220 6481 1 109.50000 418.400000
4015 13220 6482 1 109.50000 418.400000
6480 13220 6481 1 109.50000 418.400000
6480 13220 6482 1 109.50000 418.400000
6481 13220 6482 1 109.50000 418.400000
3341 13221 6483 1 109.50000 418.400000
3341 13221 6484 1 109.50000 418.400000
3341 13221 6485 1 109.50000 418.400000
6483 13221 6484 1 109.50000 418.400000
6483 13221 6485 1 109.50000 418.400000
6484 13221 6485 1 109.50000 418.400000
6486 13222 6487 1 109.50000 418.400000
6486 13222 7783 1 109.50000 418.400000
6486 13222 11316 1 109.50000 418.400000
6487 13222 7783 1 109.50000 418.400000
6487 13222 11316 1 109.50000 418.400000
7783 13222 11316 1 109.50000 418.400000
569 13223 1655 1 109.50000 418.400000
569 13223 3453 1 109.50000 418.400000
569 13223 6489 1 109.50000 418.400000
1655 13223 3453 1 109.50000 418.400000
1655 13223 6489 1 109.50000 418.400000
3453 13223 6489 1 109.50000 418.400000
3298 13224 3300 1 109.50000 418.400000
3298 13224 6490 1 109.50000 418.400000
3298 13224 6491 1 109.50000 418.400000
3300 13224 6490 1 109.50000 418.400000
3300 13224 6491 1 109.50000 418.400000
6490 13224 6491 1 109.50000 418.400000
6493 13225 6494 1 109.50000 418.400000
6493 13225 6495 1 109.50000 418.400000
6493 13225 6496 1 109.50000 418.400000
6494 13225 6495 1 109.50000 418.400000
6494 13225 6496 1 109.50000 418.400000
6495 13225 6496 1 109.50000 418.400000
6497 13226 6498 1 109.50000 418.400000
6497 13226 6499 1 109.50000 418.400000
6497 13226 6500 1 109.50000 418.400000
6498 13226 6499 1 109.50000 418.400000
6498 13226 6500 1 109.50000 418.400000
6499 13226 6500 1 109.50000 418.400000
1716 13227 5704 1 109.50000 418.400000
1716 13227 6501 1 109.50000 418.400000
1716 13227 6502 1 109.50000 418.400000
5704 13227 6501 1 109.50000 418.400000
5704 13227 6502 1 109.50000 418.400000
6501 13227 6502 1 109.50000 418.400000
420 13228 4794 1 109.50000 418.400000
420 13228 6503 1 109.50000 418.400000
420 13228 6504 1 109.50000 418.400000
4794 13228 6503 1 109.50000 418.400000
4794 13228 6504 1 109.50000 418.400000
6503 13228 6504 1 109.50000 418.400000
216 13229 1144 1 109.50000 418.400000
216 13229 6505 1 109.50000 418.400000
216 13229 6506 1 109.50000 418.400000
1144 13229 6505 1 109.50000 418.400000
1144 13229 6506 1 109.50000 418.400000
6505 13229 6506 1 109.50000 418.400000
1097 13230 3532 1 109.50000 418.400000
1097 13230 5312 1 109.50000 418.400000
1097 13230 6507 1 109.50000 418.400000
3532 13230 5312 1 109.50000 418.400000
3532 13230 6507 1 109.50000 418.400000
5312 13230 6507 1 109.50000 418.400000
6508 13231 6509 1 109.50000 418.400000
6508 13231 6510 1 109.50000 418.400000
6508 13231 6511 1 109.50000 418.400000
6509 13231 6510 1 109.50000 418.400000
6509 13231 6511 1 109.50000 418.400000
6510 13231 6511 1 109.50000 418.400000
1872 13232 5784 1 109.50000 418.400000
1872 13232 6062 1 109.50000 418.400000
1872 13232 6512 1 109.50000 418.400000
5784 13232 6062 1 109.50000 418.400000
5784 13232 6512 1 109.50000 418.400000
6062 13232 6512 1 109.50000 418.400000
2266 13233 5983 1 109.50000 418.400000
2266 13233 6513 1 109.50000 418.400000
2266 13233 6514 1 109.50000 418.400000
5983 13233 6513 1 109.50000 418.400000
5983 13233 6514 1 109.50000 418.400000
6513 13233 6514 1 109.50000 418.400000
2686 13234 4741 1 109.50000 418.400000
2686 13234 6515 1 109.50000 418.400000
2686 13234 6516 1 109.50000 418.400000
4741 13234 6515 1 109.50000 418.400000
4741 13234 6516 1 109.50000 418.400000
6515 13234 6516 1 109.50000 418.400000
4103 13235 6517 1 109.50000 418.400000
4103 13235 6518 1 109.50000 418.400000
4103 13235 8916 1 109.50000 418.400000
6517 13235 6518 1 109.50000 418.400000
6517 13235 8916 1 109.50000 418.400000
6518 13235 8916 1 109.50000 418.400000
3729 13236 6520 1 109.50000 418.400000
3729 13236 6521 1 109.50000 418.400000
3729 13236 9788 1 109.50000 418.400000
6520 13236 6521 1 109.50000 418.400000
6520 13236 9788 1 109.50000 418.400000
6521 13236 9788 1 109.50000 418.400000
1650 13237 6522 1 109.50000 418.400000
1650 13237 6523 1 109.50000 418.400000
1650 13237 6524 1 109.50000 418.400000
6522 13237 6523 1 109.50000 418.400000
6522 13237 6524 1 109.50000 418.400000
6523 13237 6524 1 109.50000 418.400000
4937 13238 6525 1 109.50000 418.400000
4937 13238 10238 1 109.50000 418.400000
4937 13238 11333 1 109.50000 418.400000
6525 13238 10238 1 109.50000 418.400000
6525 13238 11333 1 109.50000 418.400000
10238 13238 11333 1 109.50000 418.400000
1664 13239 6527 1 109.50000 418.400000
1664 13239 6528 1 109.50000 418.400000
1664 13239 6529 1 109.50000 418.400000
6527 13239 6528 1 109.50000 418.400000
6527 13239 6529 1 109.50000 418.400000
6528 13239 6529 1 109.50000 418.400000
505 13240 1594 1 109.50000 418.400000
505 13240 6530 1 109.50000 418.400000
505 13240 6531 1 109.50000 418.400000
1594 13240 6530 1 109.50000 418.400000
1594 13240 6531 1 109.50000 418.400000
6530 13240 6531 1 109.50000 418.400000
6532 13241 6533 1 109.50000 418.400000
6532 13241 6534 1 109.50000 418.400000
6532 13241 6535 1 109.50000 418.400000
6533 13241 6534 1 109.50000 418.400000
6533 13241 6535 1 109.50000 418.400000
6534 13241 6535 1 109.50000 418.400000
667 13242 2672 1 109.50000 418.400000
667 13242 6536 1 109.50000 418.400000
667 13242 6537 1 109.50000 418.400000
2672 13242 6536 1 109.50000 418.400000
2672 13242 6537 1 109.50000 418.400000
6536 13242 6537 1 109.50000 418.400000
600 13243 5830 1 109.50000 418.400000
600 13243 6538 1 109.50000 418.400000
600 13243 6539 1 109.50000 418.400000
5830 13243 6538 1 109.50000 418.400000
5830 13243 6539 1 109.50000 418.400000
6538 13243 6539 1 109.50000 418.400000
787 13244 2709 1 109.50000 418.400000
787 13244 3980 1 109.50000 418.400000
787 13244 5754 1 109.50000 418.400000
2709 13244 3980 1 109.50000 418.400000
2709 13244 5754 1 109.50000 418.400000
3980 13244 5754 1 109.50000 418.400000
6540 13245 6541 1 109.50000 418.400000
6540 13245 6542 1 109.50000 418.400000
6540 13245 6543 1 109.50000 418.400000
6541 13245 6542 1 109.50000 418.400000
6541 13245 6543 1 109.50000 418.400000
6542 13245 6543 1 109.50000 418.400000
6544 13246 6545 1 109.50000 418.400000
6544 13246 8277 1 109.50000 418.400000
6544 13246 8279 1 109.50000 418.400000
6545 13246 8277 1 109.50000 418.400000
6545 13246 8279 1 109.50000 418.400000
8277 13246 8279 1 109.50000 418.400000
490 13247 1063 1 109.50000 418.400000
490 13247 1064 1 109.50000 418.400000
490 13247 1065 1 109.50000 418.400000
1063 13247 1064 1 109.50000 418.400000
1063 13247 1065 1 109.50000 418.400000
1064 13247 1065 1 109.50000 418.400000
552 13248 6550 1 109.50000 418.400000
552 13248 6551 1 109.50000 418.400000
552 13248 6822 1 109.50000 418.400000
6550 13248 6551 1 109.50000 418.400000
6550 13248 6822 1 109.50000 418.400000
6551 13248 6822 1 109.50000 418.400000
5902 13249 5925 1 109.50000 418.400000
5902 13249 6553 1 109.50000 418.400000
5902 13249 6554 1 109.50000 418.400000
5925 13249 6553 1 109.50000 418.400000
5925 13249 6554 1 109.50000 418.400000
6553 13249 6554 1 109.50000 418.400000
870 13250 2515 1 109.50000 418.400000
870 13250 5948 1 109.50000 418.400000
870 13250 6555 1 109.50000 418.400000
2515 13250 5948 1 109.50000 418.400000
2515 13250 6555 1 109.50000 418.400000
5948 13250 6555 1 109.50000 418.400000
6559 13251 6560 1 109.50000 418.400000
6559 13251 6561 1 109.50000 418.400000
6559 13251 6562 1 109.50000 418.400000
6560 13251 6561 1 109.50000 418.400000
6560 13251 6562 1 109.50000 418.400000
6561 13251 6562 1 109.50000 418.400000
2444 13252 6563 1 109.50000 418.400000
2444 13252 6564 1 109.50000 418.400000
2444 13252 6565 1 109.50000 418.400000
6563 13252 6564 1 109.50000 418.400000
6563 13252 6565 1 109.50000 418.400000
6564 13252 6565 1 109.50000 418.400000
1945 13253 6569 1 109.50000 418.400000
1945 13253 6570 1 109.50000 418.400000
1945 13253 11245 1 109.50000 418.400000
6569 13253 6570 1 109.50000 418.400000
6569 13253 11245 1 109.50000 418.400000
6570 13253 11245 1 109.50000 418.400000
238 13254 3590 1 109.50000 418.400000
238 13254 6141 1 109.50000 418.400000
238 13254 6571 1 109.50000 418.400000
3590 13254 6141 1 109.50000 418.400000
3590 13254 6571 1 109.50000 418.400000
6141 13254 6571 1 109.50000 418.400000
4468 13255 6575 1 109.50000 418.400000
4468 13255 6576 1 109.50000 418.400000
4468 13255 6577 1 109.50000 418.400000
6575 13255 6576 1 109.50000 418.400000
6575 13255 6577 1 109.50000 418.400000
6576 13255 6577 1 109.50000 418.400000
1433 13256 6578 1 109.50000 418.400000
1433 13256 6579 1 109.50000 418.400000
1433 13256 6580 1 109.50000 418.400000
6578 13256 6579 1 109.50000 418.400000
6578 13256 6580 1 109.50000 418.400000
6579 13256 6580 1 109.50000 418.400000
6582 13257 6583 1 109.50000 418.400000
6582 13257 6584 1 109.50000 418.400000
6582 13257 6585 1 109.50000 418.400000
6583 13257 6584 1 109.50000 418.400000
6583 13257 6585 1 109.50000 418.400000
6584 13257 6585 1 109.50000 418.400000
2380 13258 3156 1 109.50000 418.400000
2380 13258 4547 1 109.50000 418.400000
2380 13258 6586 1 109.50000 418.400000
3156 13258 4547 1 109.50000 418.400000
3156 13258 6586 1 109.50000 418.400000
4547 13258 6586 1 109.50000 418.400000
6589 13259 6590 1 109.50000 418.400000
6589 13259 6591 1 109.50000 418.400000
6589 13259 6616 1 109.50000 418.400000
6590 13259 6591 1 109.50000 418.400000
6590 13259 6616 1 109.50000 418.400000
6591 13259 6616 1 109.50000 418.400000
2013 13260 2962 1 109.50000 418.400000
2013 13260 6592 1 109.50000 418.400000
2013 13260 6593 1 109.50000 418.400000
2962 13260 6592 1 109.50000 418.400000
2962 13260 6593 1 109.50000 418.400000
6592 13260 6593 1 109.50000 418.400000
418 13261 6594 1 109.50000 418.400000
418 13261 6595 1 109.50000 418.400000
418 13261 6596 1 109.50000 418.400000
6594 13261 6595 1 109.50000 418.400000
6594 13261 6596 1 109.50000 418.400000
6595 13261 6596 1 109.50000 418.400000
2345 13262 6597 1 109.50000 418.400000
2345 13262 6598 1 109.50000 418.400000
2345 13262 6599 1 109.50000 418.400000
6597 13262 6598 1 109.50000 418.400000
6597 13262 6599 1 109.50000 418.400000
6598 13262 6599 1 109.50000 418.400000
6602 13263 6603 1 109.50000 418.400000
6602 13263 6604 1 109.50000 418.400000
6602 13263 6605 1 109.50000 418.400000
6603 13263 6604 1 109.50000 418.400000
6603 13263 6605 1 109.50000 418.400000
6604 13263 6605 1 109.50000 418.400000
1392 13264 5733 1 109.50000 418.400000
1392 13264 6606 1 109.50000 418.400000
1392 13264 6607 1 109.50000 418.400000
5733 13264 6606 1 109.50000 418.400000
5733 13264 6607 1 109.50000 418.400000
6606 13264 6607 1 109.50000 418.400000
6608 13265 6609 1 109.50000 418.400000
6608 13265 6610 1 109.50000 418.400000
6608 13265 6611 1 109.50000 418.400000
6609 13265 6610 1 109.50000 418.400000
6609 13265 6611 1 109.50000 418.400000
6610 13265 6611 1 109.50000 418.400000
2696 13266 6612 1 109.50000 418.400000
2696 13266 6613 1 109.50000 418.400000
2696 13266 6614 1 109.50000 418.400000
6612 13266 6613 1 109.50000 418.400000
6612 13266 6614 1 109.50000 418.400000
6613 13266 6614 1 109.50000 418.400000
965 13267 6615 1 109.50000 418.400000
965 13267 6616 1 109.50000 418.400000
965 13267 6617 1 109.50000 418.400000
6615 13267 6616 1 109.50000 418.400000
6615 13267 6617 1 109.50000 418.400000
6616 13267 6617 1 109.50000 418.400000
3061 13268 4696 1 109.50000 418.400000
3061 13268 6618 1 109.50000 418.400000
3061 13268 6619 1 109.50000 418.400000
4696 13268 6618 1 109.50000 418.400000
4696 13268 6619 1 109.50000 418.400000
6618 13268 6619 1 109.50000 418.400000
2706 13269 6620 1 109.50000 418.400000
2706 13269 6621 1 109.50000 418.400000
2706 13269 7477 1 109.50000 418.400000
6620 13269 6621 1 109.50000 418.400000
6620 13269 7477 1 109.50000 418.400000
6621 13269 7477 1 109.50000 418.400000
3787 13270 5290 1 109.50000 418.400000
3787 13270 6623 1 109.50000 418.400000
3787 13270 6624 1 109.50000 418.400000
5290 13270 6623 1 109.50000 418.400000
5290 13270 6624 1 109.50000 418.400000
6623 13270 6624 1 109.50000 418.400000
6625 13271 6626 1 109.50000 418.400000
6625 13271 6627 1 109.50000 418.400000
6625 13271 6628 1 109.50000 418.400000
6626 13271 6627 1 109.50000 418.400000
6626 13271 6628 1 109.50000 418.400000
6627 13271 6628 1 109.50000 418.400000
6250 13272 6629 1 109.50000 418.400000
6250 13272 6630 1 109.50000 418.400000
6250 13272 9981 1 109.50000 418.400000
6629 13272 6630 1 109.50000 418.400000
6629 13272 9981 1 109.50000 418.400000
6630 13272 9981 1 109.50000 418.400000
4237 13273 5401 1 109.50000 418.400000
4237 13273 6631 1 109.50000 418.400000
4237 13273 6632 1 109.50000 418.400000
5401 13273 6631 1 109.50000 418.400000
5401 13273 6632 1 109.50000 418.400000
6631 13273 6632 1 109.50000 418.400000
2372 13274 2563 1 109.50000 418.400000
2372 13274 4729 1 109.50000 418.400000
2372 13274 5464 1 109.50000 418.400000
2563 13274 4729 1 109.50000 418.400000
2563 13274 5464 1 109.50000 418.400000
4729 13274 5464 1 109.50000 418.400000
4905 13275 6633 1 109.50000 418.400000
4905 13275 6634 1 109.50000 418.400000
4905 13275 6635 1 109.50000 418.400000
6633 13275 6634 1 109.50000 418.400000
6633 13275 6635 1 109.50000 418.400000
6634 13275 6635 1 109.50000 418.400000
6127 13276 6636 1 109.50000 418.400000
6127 13276 6637 1 109.50000 418.400000
6127 13276 6638 1 109.50000 418.400000
6636 13276 6637 1 109.50000 418.400000
6636 13276 6638 1 109.50000 418.400000
6637 13276 6638 1 109.50000 418.400000
1808 13277 6640 1 109.50000 418.400000
1808 13277 6641 1 109.50000 418.400000
1808 13277 6642 1 109.50000 418.400000
6640 13277 6641 1 109.50000 418.400000
6640 13277 6642 1 109.50000 418.400000
6641 13277 6642 1 109.50000 418.400000
2495 13278 5424 1 109.50000 418.400000
2495 13278 6643 1 109.50000 418.400000
2495 13278 11300 1 109.50000 418.400000
5424 13278 6643 1 109.50000 418.400000
5424 13278 11300 1 109.50000 418.400000
6643 13278 11300 1 109.50000 418.400000
5132 13279 6644 1 109.50000 418.400000
5132 13279 6645 1 109.50000 418.400000
5132 13279 6646 1 109.50000 418.400000
6644 13279 6645 1 109.50000 418.400000
6644 13279 6646 1 109.50000 418.400000
6645 13279 6646 1 109.50000 418.400000
6651 13280 6652 1 109.50000 418.400000
6651 13280 6653 1 109.50000 418.400000
6651 13280 6654 1 109.50000 418.400000
6652 13280 6653 1 109.50000 418.400000
6652 13280 6654 1 109.50000 418.400000
6653 13280 6654 1 109.50000 418.400000
4393 13281 6655 1 109.50000 418.400000
4393 13281 6656 1 109.50000 418.400000
4393 13281 6657 1 109.50000 418.400000
6655 13281 6656 1 109.50000 418.400000
6655 13281 6657 1 109.50000 418.400000
6656 13281 6657 1 109.50000 418.400000
4656 13282 6659 1 109.50000 418.400000
4656 13282 6660 1 109.50000 418.400000
4656 13282 6661 1 109.50000 418.400000
6659 13282 6660 1 109.50000 418.400000
6659 13282 6661 1 109.50000 418.400000
6660 13282 6661 1 109.50000 418.400000
185 13283 5640 1 109.50000 418.400000
185 13283 6662 1 109.50000 418.400000
185 13283 6663 1 109.50000 418.400000
5640 13283 6662 1 109.50000 418.400000
5640 13283 6663 1 109.50000 418.400000
6662 13283 6663 1 109.50000 418.400000
4861 13284 6535 1 109.50000 418.400000
4861 13284 6664 1 109.50000 418.400000
4861 13284 6665 1 109.50000 418.400000
6535 13284 6664 1 109.50000 418.400000
6535 13284 6665 1 109.50000 418.400000
6664 13284 6665 1 109.50000 418.400000
4206 13285 4239 1 109.50000 418.400000
4206 13285 6666 1 109.50000 418.400000
4206 13285 6667 1 109.50000 418.400000
4239 13285 6666 1 109.50000 418.400000
4239 13285 6667 1 109.50000 418.400000
6666 13285 6667 1 109.50000 418.400000
1800 13286 6668 1 109.50000 418.400000
1800 13286 6669 1 109.50000 418.400000
1800 13286 6670 1 109.50000 418.400000
6668 13286 6669 1 109.50000 418.400000
6668 13286 6670 1 109.50000 418.400000
6669 13286 6670 1 109.50000 418.400000
4703 13287 6457 1 109.50000 418.400000
4703 13287 6671 1 109.50000 418.400000
4703 13287 6672 1 109.50000 418.400000
6457 13287 6671 1 109.50000 418.400000
6457 13287 6672 1 109.50000 418.400000
6671 13287 6672 1 109.50000 418.400000
5397 13288 6673 1 109.50000 418.400000
5397 13288 6674 1 109.50000 418.400000
5397 13288 6675 1 109.50000 418.400000
6673 13288 6674 1 109.50000 418.400000
6673 13288 6675 1 109.50000 418.400000
6674 13288 6675 1 109.50000 418.400000
2787 13289 6676 1 109.50000 418.400000
2787 13289 6677 1 109.50000 418.400000
2787 13289 6678 1 109.50000 418.400000
6676 13289 6677 1 109.50000 418.400000
6676 13289 6678 1 109.50000 418.400000
6677 13289 6678 1 109.50000 418.400000
6679 13290 6680 1 109.50000 418.400000
6679 13290 6681 1 109.50000 418.400000
6679 13290 6682 1 109.50000 418.400000
6680 13290 6681 1 109.50000 418.400000
6680 13290 6682 1 109.50000 418.400000
6681 13290 6682 1 109.50000 418.400000
203 13291 4267 1 109.50000 418.400000
203 13291 4374 1 109.50000 418.400000
203 13291 6683 1 109.50000 418.400000
4267 13291 4374 1 109.50000 418.400000
4267 13291 6683 1 109.50000 418.400000
4374 13291 6683 1 109.50000 418.400000
2628 13292 4564 1 109.50000 418.400000
2628 13292 6133 1 109.50000 418.400000
2628 13292 6684 1 109.50000 418.400000
4564 13292 6133 1 109.50000 418.400000
4564 13292 6684 1 109.50000 418.400000
6133 13292 6684 1 109.50000 418.400000
915 13293 4839 1 109.50000 418.400000
915 13293 6685 1 109.50000 418.400000
915 13293 6686 1 109.50000 418.400000
4839 13293 6685 1 109.50000 418.400000
4839 13293 6686 1 109.50000 418.400000
6685 13293 6686 1 109.50000 418.400000
1603 13294 2059 1 109.50000 418.400000
1603 13294 5910 1 109.50000 418.400000
1603 13294 6687 1 109.50000 418.400000
2059 13294 5910 1 109.50000 418.400000
2059 13294 6687 1 109.50000 418.400000
5910 13294 6687 1 109.50000 418.400000
1109 13295 6688 1 109.50000 418.400000
1109 13295 6689 1 109.50000 418.400000
1109 13295 6690 1 109.50000 418.400000
6688 13295 6689 1 109.50000 418.400000
6688 13295 6690 1 109.50000 418.400000
6689 13295 6690 1 109.50000 418.400000
6691 13296 6692 1 109.50000 418.400000
6691 13296 6693 1 109.50000 418.400000
6691 13296 6694 1 109.50000 418.400000
6692 13296 6693 1 109.50000 418.400000
6692 13296 6694 1 109.50000 418.400000
6693 13296 6694 1 109.50000 418.400000
6695 13297 6696 1 109.50000 418.400000
6695 13297 6697 1 109.50000 418.400000
6695 13297 6698 1 109.50000 418.400000
6696 13297 6697 1 109.50000 418.400000
6696 13297 6698 1 109.50000 418.400000
6697 13297 6698 1 109.50000 418.400000
6699 13298 6700 1 109.50000 418.400000
6699 13298 6701 1 109.50000 418.400000
6699 13298 6702 1 109.50000 418.400000
6700 13298 6701 1 109.50000 418.400000
6700 13298 6702 1 109.50000 418.400000
6701 13298 6702 1 109.50000 418.400000
3616 13299 3665 1 109.50000 418.400000
3616 13299 4837 1 109.50000 418.400000
3616 13299 6703 1 109.50000 418.400000
3665 13299 4837 1 109.50000 418.400000
3665 13299 6703 1 109.50000 418.400000
4837 13299 6703 1 109.50000 418.400000
4583 13300 4584 1 109.50000 418.400000
4583 13300 6705 1 109.50000 418.400000
4583 13300 6706 1 109.50000 418.400000
4584 13300 6705 1 109.50000 418.400000
4584 13300 6706 1 109.50000 418.400000
6705 13300 6706 1 109.50000 418.400000
5319 13301 6216 1 109.50000 418.400000
5319 13301 6707 1 109.50000 418.400000
5319 13301 6708 1 109.50000 418.400000
6216 13301 6707 1 109.50000 418.400000
6216 13301 6708 1 109.50000 418.400000
6707 13301 6708 1 109.50000 418.400000
3935 13302 3936 1 109.50000 418.400000
3935 13302 6709 1 109.50000 418.400000
3935 13302 6710 1 109.50000 418.400000
3936 13302 6709 1 109.50000 418.400000
3936 13302 6710 1 109.50000 418.400000
6709 13302 6710 1 109.50000 418.400000
1733 13303 3990 1 109.50000 418.400000
1733 13303 5245 1 109.50000 418.400000
1733 13303 6711 1 109.50000 418.400000
3990 13303 5245 1 109.50000 418.400000
3990 13303 6711 1 109.50000 418.400000
5245 13303 6711 1 109.50000 418.400000
6712 13304 6713 1 109.50000 418.400000
6712 13304 6714 1 109.50000 418.400000
6712 13304 6715 1 109.50000 418.400000
6713 13304 6714 1 109.50000 418.400000
6713 13304 6715 1 109.50000 418.400000
6714 13304 6715 1 109.50000 418.400000
576 13305 1840 1 109.50000 418.400000
576 13305 2975 1 109.50000 418.400000
576 13305 6716 1 109.50000 418.400000
1840 13305 2975 1 109.50000 418.400000
1840 13305 6716 1 109.50000 418.400000
2975 13305 6716 1 109.50000 418.400000
6717 13306 6718 1 109.50000 418.400000
6717 13306 6719 1 109.50000 418.400000
6717 13306 6720 1 109.50000 418.400000
6718 13306 6719 1 109.50000 418.400000
6718 13306 6720 1 109.50000 418.400000
6719 13306 6720 1 109.50000 418.400000
6721 13307 6722 1 109.50000 418.400000
6721 13307 6723 1 109.50000 418.400000
6721 13307 11149 1 109.50000 418.400000
6722 13307 6723 1 109.50000 418.400000
6722 13307 11149 1 109.50000 418.400000
6723 13307 11149 1 109.50000 418.400000
3900 13308 5538 1 109.50000 418.400000
3900 13308 6593 1 109.50000 418.400000
3900 13308 6724 1 109.50000 418.400000
5538 13308 6593 1 109.50000 418.400000
5538 13308 6724 1 109.50000 418.400000
6593 13308 6724 1 109.50000 418.400000
2381 13309 3818 1 109.50000 418.400000
2381 13309 6727 1 109.50000 418.400000
2381 13309 6728 1 109.50000 418.400000
3818 13309 6727 1 109.50000 418.400000
3818 13309 6728 1 109.50000 418.400000
6727 13309 6728 1 109.50000 418.400000
2408 13310 6729 1 109.50000 418.400000
2408 13310 6730 1 109.50000 418.400000
2408 13310 6731 1 109.50000 418.400000
6729 13310 6730 1 109.50000 418.400000
6729 13310 6731 1 109.50000 418.400000
6730 13310 6731 1 109.50000 418.400000
2643 13311 4028 1 109.50000 418.400000
2643 13311 6732 1 109.50000 418.400000
2643 13311 6733 1 109.50000 418.400000
4028 13311 6732 1 109.50000 418.400000
4028 13311 6733 1 109.50000 418.400000
6732 13311 6733 1 109.50000 418.400000
3929 13312 5694 1 109.50000 418.400000
3929 13312 5695 1 109.50000 418.400000
3929 13312 6736 1 109.50000 418.400000
5694 13312 5695 1 109.50000 418.400000
5694 13312 6736 1 109.50000 418.400000
5695 13312 6736 1 109.50000 418.400000
659 13313 6738 1 109.50000 418.400000
659 13313 6739 1 109.50000 418.400000
659 13313 6740 1 109.50000 418.400000
6738 13313 6739 1 109.50000 418.400000
6738 13313 6740 1 109.50000 418.400000
6739 13313 6740 1 109.50000 418.400000
5582 13314 6741 1 109.50000 418.400000
5582 13314 6742 1 109.50000 418.400000
5582 13314 11364 1 109.50000 418.400000
6741 13314 6742 1 109.50000 418.400000
6741 13314 11364 1 109.50000 418.400000
6742 13314 11364 1 109.50000 418.400000
5734 13315 6743 1 109.50000 418.400000
5734 13315 6744 1 109.50000 418.400000
5734 13315 6745 1 109.50000 418.400000
6743 13315 6744 1 109.50000 418.400000
6743 13315 6745 1 109.50000 418.400000
6744 13315 6745 1 109.50000 418.400000
5794 13316 6522 1 109.50000 418.400000
5794 13316 6746 1 109.50000 418.400000
5794 13316 6747 1 109.50000 418.400000
6522 13316 6746 1 109.50000 418.400000
6522 13316 6747 1 109.50000 418.400000
6746 13316 6747 1 109.50000 418.400000
6748 13317 6749 1 109.50000 418.400000
6748 13317 6750 1 109.50000 418.400000
6748 13317 6751 1 109.50000 418.400000
6749 13317 6750 1 109.50000 418.400000
6749 13317 6751 1 109.50000 418.400000
6750 13317 6751 1 109.50000 418.400000
6752 13318 6753 1 109.50000 418.400000
6752 13318 6754 1 109.50000 418.400000
6752 13318 6755 1 109.50000 418.400000
6753 13318 6754 1 109.50000 418.400000
6753 13318 6755 1 109.50000 418.400000
6754 13318 6755 1 109.50000 418.400000
5390 13319 5765 1 109.50000 418.400000
5390 13319 6758 1 109.50000 418.400000
5390 13319 10518 1 109.50000 418.400000
5765 13319 6758 1 109.50000 418.400000
5765 13319 10518 1 109.50000 418.400000
6758 13319 10518 1 109.50000 418.400000
4778 13320 6759 1 109.50000 418.400000
4778 13320 6760 1 109.50000 418.400000
4778 13320 6761 1 109.50000 418.400000
6759 13320 6760 1 109.50000 418.400000
6759 13320 6761 1 109.50000 418.400000
6760 13320 6761 1 109.50000 418.400000
4128 13321 6764 1 109.50000 418.400000
4128 13321 7358 1 109.50000 418.400000
4128 13321 7359 1 109.50000 418.400000
6764 13321 7358 1 109.50000 418.400000
6764 13321 7359 1 109.50000 418.400000
7358 13321 7359 1 109.50000 418.400000
5916 13322 6766 1 109.50000 418.400000
5916 13322 6767 1 109.50000 418.400000
5916 13322 7446 1 109.50000 418.400000
6766 13322 6767 1 109.50000 418.400000
6766 13322 7446 1 109.50000 418.400000
6767 13322 7446 1 109.50000 418.400000
5986 13323 6768 1 109.50000 418.400000
5986 13323 6769 1 109.50000 418.400000
5986 13323 6770 1 109.50000 418.400000
6768 13323 6769 1 109.50000 418.400000
6768 13323 6770 1 109.50000 418.400000
6769 13323 6770 1 109.50000 418.400000
3342 13324 6771 1 109.50000 418.400000
3342 13324 6772 1 109.50000 418.400000
3342 13324 6773 1 109.50000 418.400000
6771 13324 6772 1 109.50000 418.400000
6771 13324 6773 1 109.50000 418.400000
6772 13324 6773 1 109.50000 418.400000
2553 13325 6774 1 109.50000 418.400000
2553 13325 6775 1 109.50000 418.400000
2553 13325 6776 1 109.50000 418.400000
6774 13325 6775 1 109.50000 418.400000
6774 13325 6776 1 109.50000 418.400000
6775 13325 6776 1 109.50000 418.400000
6398 13326 6400 1 109.50000 418.400000
6398 13326 6777 1 109.50000 418.400000
6398 13326 6779 1 109.50000 418.400000
6400 13326 6777 1 109.50000 418.400000
6400 13326 6779 1 109.50000 418.400000
6777 13326 6779 1 109.50000 418.400000
2134 13327 3702 1 109.50000 418.400000
2134 13327 6781 1 109.50000 418.400000
2134 13327 6782 1 109.50000 418.400000
3702 13327 6781 1 109.50000 418.400000
3702 13327 6782 1 109.50000 418.400000
6781 13327 6782 1 109.50000 418.400000
2625 13328 2627 1 109.50000 418.400000
2625 13328 6786 1 109.50000 418.400000
2625 13328 7373 1 109.50000 418.400000
2627 13328 6786 1 109.50000 418.400000
2627 13328 7373 1 109.50000 418.400000
6786 13328 7373 1 109.50000 418.400000
4569 13329 6788 1 109.50000 418.400000
4569 13329 6789 1 109.50000 418.400000
4569 13329 6790 1 109.50000 418.400000
6788 13329 6789 1 109.50000 418.400000
6788 13329 6790 1 109.50000 418.400000
6789 13329 6790 1 109.50000 418.400000
2948 13330 6791 1 109.50000 418.400000
2948 13330 6792 1 109.50000 418.400000
2948 13330 6793 1 109.50000 418.400000
6791 13330 6792 1 109.50000 418.400000
6791 13330 6793 1 109.50000 418.400000
6792 13330 6793 1 109.50000 418.400000
3712 13331 3714 1 109.50000 418.400000
3712 13331 3957 1 109.50000 418.400000
3712 13331 6795 1 109.50000 418.400000
3714 13331 3957 1 109.50000 418.400000
3714 13331 6795 1 109.50000 418.400000
3957 13331 6795 1 109.50000 418.400000
1633 13332 5232 1 109.50000 418.400000
1633 13332 6796 1 109.50000 418.400000
1633 13332 6797 1 109.50000 418.400000
5232 13332 6796 1 109.50000 418.400000
5232 13332 6797 1 109.50000 418.400000
6796 13332 6797 1 109.50000 418.400000
5051 13333 6798 1 109.50000 418.400000
5051 13333 6799 1 109.50000 418.400000
5051 13333 6800 1 109.50000 418.400000
6798 13333 6799 1 109.50000 418.400000
6798 13333 6800 1 109.50000 418.400000
6799 13333 6800 1 109.50000 418.400000
3294 13334 6801 1 109.50000 418.400000
3294 13334 6802 1 109.50000 418.400000
3294 13334 6803 1 109.50000 418.400000
6801 13334 6802 1 109.50000 418.400000
6801 13334 6803 1 109.50000 418.400000
6802 13334 6803 1 109.50000 418.400000
5917 13335 6804 1 109.50000 418.400000
5917 13335 6805 1 109.50000 418.400000
5917 13335 6806 1 109.50000 418.400000
6804 13335 6805 1 109.50000 418.400000
6804 13335 6806 1 109.50000 418.400000
6805 13335 6806 1 109.50000 418.400000
1693 13336 6807 1 109.50000 418.400000
1693 13336 6808 1 109.50000 418.400000
1693 13336 6809 1 109.50000 418.400000
6807 13336 6808 1 109.50000 418.400000
6807 13336 6809 1 109.50000 418.400000
6808 13336 6809 1 109.50000 418.400000
584 13337 3572 1 109.50000 418.400000
584 13337 3884 1 109.50000 418.400000
584 13337 5351 1 109.50000 418.400000
3572 13337 3884 1 109.50000 418.400000
3572 13337 5351 1 109.50000 418.400000
3884 13337 5351 1 109.50000 418.400000
3151 13338 4152 1 109.50000 418.400000
3151 13338 6349 1 109.50000 418.400000
3151 13338 6811 1 109.50000 418.400000
4152 13338 6349 1 109.50000 418.400000
4152 13338 6811 1 109.50000 418.400000
6349 13338 6811 1 109.50000 418.400000
3487 13339 4189 1 109.50000 418.400000
3487 13339 6423 1 109.50000 418.400000
3487 13339 6812 1 109.50000 418.400000
4189 13339 6423 1 109.50000 418.400000
4189 13339 6812 1 109.50000 418.400000
6423 13339 6812 1 109.50000 418.400000
935 13340 3522 1 109.50000 418.400000
935 13340 6813 1 109.50000 418.400000
935 13340 6814 1 109.50000 418.400000
3522 13340 6813 1 109.50000 418.400000
3522 13340 6814 1 109.50000 418.400000
6813 13340 6814 1 109.50000 418.400000
3474 13341 3873 1 109.50000 418.400000
3474 13341 6815 1 109.50000 418.400000
3474 13341 6816 1 109.50000 418.400000
3873 13341 6815 1 109.50000 418.400000
3873 13341 6816 1 109.50000 418.400000
6815 13341 6816 1 109.50000 418.400000
4104 13342 6354 1 109.50000 418.400000
4104 13342 6817 1 109.50000 418.400000
4104 13342 6818 1 109.50000 418.400000
6354 13342 6817 1 109.50000 418.400000
6354 13342 6818 1 109.50000 418.400000
6817 13342 6818 1 109.50000 418.400000
6819 13343 6820 1 109.50000 418.400000
6819 13343 6821 1 109.50000 418.400000
6819 13343 6822 1 109.50000 418.400000
6820 13343 6821 1 109.50000 418.400000
6820 13343 6822 1 109.50000 418.400000
6821 13343 6822 1 109.50000 418.400000
1958 13344 6823 1 109.50000 418.400000
1958 13344 6824 1 109.50000 418.400000
1958 13344 11359 1 109.50000 418.400000
6823 13344 6824 1 109.50000 418.400000
6823 13344 11359 1 109.50000 418.400000
6824 13344 11359 1 109.50000 418.400000
1289 13345 1648 1 109.50000 418.400000
1289 13345 3480 1 109.50000 418.400000
1289 13345 3577 1 109.50000 418.400000
1648 13345 3480 1 109.50000 418.400000
1648 13345 3577 1 109.50000 418.400000
3480 13345 3577 1 109.50000 418.400000
5229 13346 6825 1 109.50000 418.400000
5229 13346 6826 1 109.50000 418.400000
5229 13346 6827 1 109.50000 418.400000
6825 13346 6826 1 109.50000 418.400000
6825 13346 6827 1 109.50000 418.400000
6826 13346 6827 1 109.50000 418.400000
4949 13347 6828 1 109.50000 418.400000
4949 13347 6829 1 109.50000 418.400000
4949 13347 6830 1 109.50000 418.400000
6828 13347 6829 1 109.50000 418.400000
6828 13347 6830 1 109.50000 418.400000
6829 13347 6830 1 109.50000 418.400000
478 13348 3146 1 109.50000 418.400000
478 13348 6831 1 109.50000 418.400000
478 13348 6832 1 109.50000 418.400000
3146 13348 6831 1 109.50000 418.400000
3146 13348 6832 1 109.50000 418.400000
6831 13348 6832 1 109.50000 418.400000
5824 13349 6502 1 109.50000 418.400000
5824 13349 6833 1 109.50000 418.400000
5824 13349 6834 1 109.50000 418.400000
6502 13349 6833 1 109.50000 418.400000
6502 13349 6834 1 109.50000 418.400000
6833 13349 6834 1 109.50000 418.400000
6214 13350 6835 1 109.50000 418.400000
6214 13350 6837 1 109.50000 418.400000
6214 13350 7878 1 109.50000 418.400000
6835 13350 6837 1 109.50000 418.400000
6835 13350 7878 1 109.50000 418.400000
6837 13350 7878 1 109.50000 418.400000
716 13351 2640 1 109.50000 418.400000
716 13351 6838 1 109.50000 418.400000
716 13351 6839 1 109.50000 418.400000
2640 13351 6838 1 109.50000 418.400000
2640 13351 6839 1 109.50000 418.400000
6838 13351 6839 1 109.50000 418.400000
2171 13352 2984 1 109.50000 418.400000
2171 13352 3859 1 109.50000 418.400000
2171 13352 6840 1 109.50000 418.400000
2984 13352 3859 1 109.50000 418.400000
2984 13352 6840 1 109.50000 418.400000
3859 13352 6840 1 109.50000 418.400000
993 13353 6802 1 109.50000 418.400000
993 13353 6841 1 109.50000 418.400000
993 13353 6842 1 109.50000 418.400000
6802 13353 6841 1 109.50000 418.400000
6802 13353 6842 1 109.50000 418.400000
6841 13353 6842 1 109.50000 418.400000
4297 13354 5407 1 109.50000 418.400000
4297 13354 6843 1 109.50000 418.400000
4297 13354 6844 1 109.50000 418.400000
5407 13354 6843 1 109.50000 418.400000
5407 13354 6844 1 109.50000 418.400000
6843 13354 6844 1 109.50000 418.400000
6845 13355 6846 1 109.50000 418.400000
6845 13355 6847 1 109.50000 418.400000
6845 13355 6848 1 109.50000 418.400000
6846 13355 6847 1 109.50000 418.400000
6846 13355 6848 1 109.50000 418.400000
6847 13355 6848 1 109.50000 418.400000
3871 13356 6849 1 109.50000 418.400000
3871 13356 6850 1 109.50000 418.400000
3871 13356 6851 1 109.50000 418.400000
6849 13356 6850 1 109.50000 418.400000
6849 13356 6851 1 109.50000 418.400000
6850 13356 6851 1 109.50000 418.400000
1981 13357 3762 1 109.50000 418.400000
1981 13357 6852 1 109.50000 418.400000
1981 13357 6853 1 109.50000 418.400000
3762 13357 6852 1 109.50000 418.400000
3762 13357 6853 1 109.50000 418.400000
6852 13357 6853 1 109.50000 418.400000
3379 13358 4995 1 109.50000 418.400000
3379 13358 6854 1 109.50000 418.400000
3379 13358 6855 1 109.50000 418.400000
4995 13358 6854 1 109.50000 418.400000
4995 13358 6855 1 109.50000 418.400000
6854 13358 6855 1 109.50000 418.400000
6856 13359 6857 1 109.50000 418.400000
6856 13359 6858 1 109.50000 418.400000
6856 13359 6859 1 109.50000 418.400000
6857 13359 6858 1 109.50000 418.400000
6857 13359 6859 1 109.50000 418.400000
6858 13359 6859 1 109.50000 418.400000
3289 13360 3937 1 109.50000 418.400000
3289 13360 6860 1 109.50000 418.400000
3289 13360 6862 1 109.50000 418.400000
3937 13360 6860 1 109.50000 418.400000
3937 13360 6862 1 109.50000 418.400000
6860 13360 6862 1 109.50000 418.400000
2575 13361 2600 1 109.50000 418.400000
2575 13361 6188 1 109.50000 418.400000
2575 13361 6863 1 109.50000 418.400000
2600 13361 6188 1 109.50000 418.400000
2600 13361 6863 1 109.50000 418.400000
6188 13361 6863 1 109.50000 418.400000
4228 13362 6864 1 109.50000 418.400000
4228 13362 6865 1 109.50000 418.400000
4228 13362 6866 1 109.50000 418.400000
6864 13362 6865 1 109.50000 418.400000
6864 13362 6866 1 109.50000 418.400000
6865 13362 6866 1 109.50000 418.400000
711 13363 6868 1 109.50000 418.400000
711 13363 6869 1 109.50000 418.400000
711 13363 8735 1 109.50000 418.400000
6868 13363 6869 1 109.50000 418.400000
6868 13363 8735 1 109.50000 418.400000
6869 13363 8735 1 109.50000 418.400000
4859 13364 5202 1 109.50000 418.400000
4859 13364 6870 1 109.50000 418.400000
4859 13364 6871 1 109.50000 418.400000
5202 13364 6870 1 109.50000 418.400000
5202 13364 6871 1 109.50000 418.400000
6870 13364 6871 1 109.50000 418.400000
5408 13365 6872 1 109.50000 418.400000
5408 13365 6873 1 109.50000 418.400000
5408 13365 6874 1 109.50000 418.400000
6872 13365 6873 1 109.50000 418.400000
6872 13365 6874 1 109.50000 418.400000
6873 13365 6874 1 109.50000 418.400000
1888 13366 6875 1 109.50000 418.400000
1888 13366 6876 1 109.50000 418.400000
1888 13366 6877 1 109.50000 418.400000
6875 13366 6876 1 109.50000 418.400000
6875 13366 6877 1 109.50000 418.400000
6876 13366 6877 1 109.50000 418.400000
3199 13367 3273 1 109.50000 418.400000
3199 13367 6878 1 109.50000 418.400000
3199 13367 6879 1 109.50000 418.400000
3273 13367 6878 1 109.50000 418.400000
3273 13367 6879 1 109.50000 418.400000
6878 13367 6879 1 109.50000 418.400000
6020 13368 6880 1 109.50000 418.400000
6020 13368 6881 1 109.50000 418.400000
6020 13368 6882 1 109.50000 418.400000
6880 13368 6881 1 109.50000 418.400000
6880 13368 6882 1 109.50000 418.400000
6881 13368 6882 1 109.50000 418.400000
2781 13369 6544 1 109.50000 418.400000
2781 13369 6883 1 109.50000 418.400000
2781 13369 6884 1 109.50000 418.400000
6544 13369 6883 1 109.50000 418.400000
6544 13369 6884 1 109.50000 418.400000
6883 13369 6884 1 109.50000 418.400000
462 13370 3890 1 109.50000 418.400000
462 13370 6885 1 109.50000 418.400000
462 13370 6886 1 109.50000 418.400000
3890 13370 6885 1 109.50000 418.400000
3890 13370 6886 1 109.50000 418.400000
6885 13370 6886 1 109.50000 418.400000
1391 13371 3797 1 109.50000 418.400000
1391 13371 3867 1 109.50000 418.400000
1391 13371 6887 1 109.50000 418.400000
3797 13371 3867 1 109.50000 418.400000
3797 13371 6887 1 109.50000 418.400000
3867 13371 6887 1 109.50000 418.400000
1315 13372 1473 1 109.50000 418.400000
1315 13372 4526 1 109.50000 418.400000
1315 13372 6888 1 109.50000 418.400000
1473 13372 4526 1 109.50000 418.400000
1473 13372 6888 1 109.50000 418.400000
4526 13372 6888 1 109.50000 418.400000
3371 13373 6889 1 109.50000 418.400000
3371 13373 6890 1 109.50000 418.400000
3371 13373 6961 1 109.50000 418.400000
6889 13373 6890 1 109.50000 418.400000
6889 13373 6961 1 109.50000 418.400000
6890 13373 6961 1 109.50000 418.400000
2554 13374 5964 1 109.50000 418.400000
2554 13374 6891 1 109.50000 418.400000
2554 13374 6892 1 109.50000 418.400000
5964 13374 6891 1 109.50000 418.400000
5964 13374 6892 1 109.50000 418.400000
6891 13374 6892 1 109.50000 418.400000
3012 13375 3719 1 109.50000 418.400000
3012 13375 6893 1 109.50000 418.400000
3012 13375 6894 1 109.50000 418.400000
3719 13375 6893 1 109.50000 418.400000
3719 13375 6894 1 109.50000 418.400000
6893 13375 6894 1 109.50000 418.400000
6895 13376 6896 1 109.50000 418.400000
6895 13376 6898 1 109.50000 418.400000
6895 13376 10480 1 109.50000 418.400000
6896 13376 6898 1 109.50000 418.400000
6896 13376 10480 1 109.50000 418.400000
6898 13376 10480 1 109.50000 418.400000
5922 13377 6902 1 109.50000 418.400000
5922 13377 6903 1 109.50000 418.400000
5922 13377 6904 1 109.50000 418.400000
6902 13377 6903 1 109.50000 418.400000
6902 13377 6904 1 109.50000 418.400000
6903 13377 6904 1 109.50000 418.400000
3181 13378 4359 1 109.50000 418.400000
3181 13378 5431 1 109.50000 418.400000
3181 13378 6905 1 109.50000 418.400000
4359 13378 5431 1 109.50000 418.400000
4359 13378 6905 1 109.50000 418.400000
5431 13378 6905 1 109.50000 418.400000
6906 13379 6907 1 109.50000 418.400000
6906 13379 6908 1 109.50000 418.400000
6906 13379 6909 1 109.50000 418.400000
6907 13379 6908 1 109.50000 418.400000
6907 13379 6909 1 109.50000 418.400000
6908 13379 6909 1 109.50000 418.400000
3330 13380 5739 1 109.50000 418.400000
3330 13380 6697 1 109.50000 418.400000
3330 13380 6910 1 109.50000 418.400000
5739 13380 6697 1 109.50000 418.400000
5739 13380 6910 1 109.50000 418.400000
6697 13380 6910 1 109.50000 418.400000
4895 13381 6368 1 109.50000 418.400000
4895 13381 6911 1 109.50000 418.400000
4895 13381 6912 1 109.50000 418.400000
6368 13381 6911 1 109.50000 418.400000
6368 13381 6912 1 109.50000 418.400000
6911 13381 6912 1 109.50000 418.400000
2029 13382 6913 1 109.50000 418.400000
2029 13382 6914 1 109.50000 418.400000
2029 13382 6915 1 109.50000 418.400000
6913 13382 6914 1 109.50000 418.400000
6913 13382 6915 1 109.50000 418.400000
6914 13382 6915 1 109.50000 418.400000
2015 13383 6916 1 109.50000 418.400000
2015 13383 6917 1 109.50000 418.400000
2015 13383 11270 1 109.50000 418.400000
6916 13383 6917 1 109.50000 418.400000
6916 13383 11270 1 109.50000 418.400000
6917 13383 11270 1 109.50000 418.400000
6476 13384 6918 1 109.50000 418.400000
6476 13384 6919 1 109.50000 418.400000
6476 13384 6920 1 109.50000 418.400000
6918 13384 6919 1 109.50000 418.400000
6918 13384 6920 1 109.50000 418.400000
6919 13384 6920 1 109.50000 418.400000
2046 13385 6921 1 109.50000 418.400000
2046 13385 11166 1 109.50000 418.400000
2046 13385 11185 1 109.50000 418.400000
6921 13385 11166 1 109.50000 418.400000
6921 13385 11185 1 109.50000 418.400000
11166 13385 11185 1 109.50000 418.400000
6202 13386 6922 1 109.50000 418.400000
6202 13386 6923 1 109.50000 418.400000
6202 13386 7506 1 109.50000 418.400000
6922 13386 6923 1 109.50000 418.400000
6922 13386 7506 1 109.50000 418.400000
6923 13386 7506 1 109.50000 418.400000
391 13387 2238 1 109.50000 418.400000
391 13387 3325 1 109.50000 418.400000
391 13387 6925 1 109.50000 418.400000
2238 13387 3325 1 109.50000 418.400000
2238 13387 6925 1 109.50000 418.400000
3325 13387 6925 1 109.50000 418.400000
4609 13388 6927 1 109.50000 418.400000
4609 13388 6928 1 109.50000 418.400000
4609 13388 6929 1 109.50000 418.400000
6927 13388 6928 1 109.50000 418.400000
6927 13388 6929 1 109.50000 418.400000
6928 13388 6929 1 109.50000 418.400000
1163 13389 2229 1 109.50000 418.400000
1163 13389 2661 1 109.50000 418.400000
1163 13389 6930 1 109.50000 418.400000
2229 13389 2661 1 109.50000 418.400000
2229 13389 6930 1 109.50000 418.400000
2661 13389 6930 1 109.50000 418.400000
2278 13390 6831 1 109.50000 418.400000
2278 13390 6933 1 109.50000 418.400000
2278 13390 6934 1 109.50000 418.400000
6831 13390 6933 1 109.50000 418.400000
6831 13390 6934 1 109.50000 418.400000
6933 13390 6934 1 109.50000 418.400000
5716 13391 6935 1 109.50000 418.400000
5716 13391 6936 1 109.50000 418.400000
5716 13391 6937 1 109.50000 418.400000
6935 13391 6936 1 109.50000 418.400000
6935 13391 6937 1 109.50000 418.400000
6936 13391 6937 1 109.50000 418.400000
6655 13392 6938 1 109.50000 418.400000
6655 13392 6939 1 109.50000 418.400000
6655 13392 6940 1 109.50000 418.400000
6938 13392 6939 1 109.50000 418.400000
6938 13392 6940 1 109.50000 418.400000
6939 13392 6940 1 109.50000 418.400000
2645 13393 6941 1 109.50000 418.400000
2645 13393 6942 1 109.50000 418.400000
2645 13393 6943 1 109.50000 418.400000
6941 13393 6942 1 109.50000 418.400000
6941 13393 6943 1 109.50000 418.400000
6942 13393 6943 1 109.50000 418.400000
5433 13394 5878 1 109.50000 418.400000
5433 13394 6944 1 109.50000 418.400000
5433 13394 6945 1 109.50000 418.400000
5878 13394 6944 1 109.50000 418.400000
5878 13394 6945 1 109.50000 418.400000
6944 13394 6945 1 109.50000 418.400000
3852 13395 5201 1 109.50000 418.400000
3852 13395 6946 1 109.50000 418.400000
3852 13395 6947 1 109.50000 418.400000
5201 13395 6946 1 109.50000 418.400000
5201 13395 6947 1 109.50000 418.400000
6946 13395 6947 1 109.50000 418.400000
6951 13396 6952 1 109.50000 418.400000
6951 13396 6953 1 109.50000 418.400000
6951 13396 6954 1 109.50000 418.400000
6952 13396 6953 1 109.50000 418.400000
6952 13396 6954 1 109.50000 418.400000
6953 13396 6954 1 109.50000 418.400000
624 13397 6955 1 109.50000 418.400000
624 13397 6956 1 109.50000 418.400000
624 13397 6957 1 109.50000 418.400000
6955 13397 6956 1 109.50000 418.400000
6955 13397 6957 1 109.50000 418.400000
6956 13397 6957 1 109.50000 418.400000
2226 13398 4100 1 109.50000 418.400000
2226 13398 4101 1 109.50000 418.400000
2226 13398 6958 1 109.50000 418.400000
4100 13398 4101 1 109.50000 418.400000
4100 13398 6958 1 109.50000 418.400000
4101 13398 6958 1 109.50000 418.400000
2314 13399 2362 1 109.50000 418.400000
2314 13399 2369 1 109.50000 418.400000
2314 13399 6960 1 109.50000 418.400000
2362 13399 2369 1 109.50000 418.400000
2362 13399 6960 1 109.50000 418.400000
2369 13399 6960 1 109.50000 418.400000
4433 13400 5666 1 109.50000 418.400000
4433 13400 6961 1 109.50000 418.400000
4433 13400 11218 1 109.50000 418.400000
5666 13400 6961 1 109.50000 418.400000
5666 13400 11218 1 109.50000 418.400000
6961 13400 11218 1 109.50000 418.400000
2637 13401 6962 1 109.50000 418.400000
2637 13401 6963 1 109.50000 418.400000
2637 13401 7739 1 109.50000 418.400000
6962 13401 6963 1 109.50000 418.400000
6962 13401 7739 1 109.50000 418.400000
6963 13401 7739 1 109.50000 418.400000
4912 13402 6966 1 109.50000 418.400000
4912 13402 6967 1 109.50000 418.400000
4912 13402 8893 1 109.50000 418.400000
6966 13402 6967 1 109.50000 418.400000
6966 13402 8893 1 109.50000 418.400000
6967 13402 8893 1 109.50000 418.400000
1829 13403 4922 1 109.50000 418.400000
1829 13403 5163 1 109.50000 418.400000
1829 13403 6968 1 109.50000 418.400000
4922 13403 5163 1 109.50000 418.400000
4922 13403 6968 1 109.50000 418.400000
5163 13403 6968 1 109.50000 418.400000
2510 13404 3728 1 109.50000 418.400000
2510 13404 3729 1 109.50000 418.400000
2510 13404 6970 1 109.50000 418.400000
3728 13404 3729 1 109.50000 418.400000
3728 13404 6970 1 109.50000 418.400000
3729 13404 6970 1 109.50000 418.400000
1723 13405 6972 1 109.50000 418.400000
1723 13405 6973 1 109.50000 418.400000
1723 13405 6974 1 109.50000 418.400000
6972 13405 6973 1 109.50000 418.400000
6972 13405 6974 1 109.50000 418.400000
6973 13405 6974 1 109.50000 418.400000
6096 13406 6975 1 109.50000 418.400000
6096 13406 6976 1 109.50000 418.400000
6096 13406 6977 1 109.50000 418.400000
6975 13406 6976 1 109.50000 418.400000
6975 13406 6977 1 109.50000 418.400000
6976 13406 6977 1 109.50000 418.400000
5802 13407 6979 1 109.50000 418.400000
5802 13407 6980 1 109.50000 418.400000
5802 13407 6981 1 109.50000 418.400000
6979 13407 6980 1 109.50000 418.400000
6979 13407 6981 1 109.50000 418.400000
6980 13407 6981 1 109.50000 418.400000
3492 13408 3493 1 109.50000 418.400000
3492 13408 7714 1 109.50000 418.400000
3492 13408 11183 1 109.50000 418.400000
3493 13408 7714 1 109.50000 418.400000
3493 13408 11183 1 109.50000 418.400000
7714 13408 11183 1 109.50000 418.400000
5422 13409 6527 1 109.50000 418.400000
5422 13409 6982 1 109.50000 418.400000
5422 13409 6983 1 109.50000 418.400000
6527 13409 6982 1 109.50000 418.400000
6527 13409 6983 1 109.50000 418.400000
6982 13409 6983 1 109.50000 418.400000
2728 13410 6984 1 109.50000 418.400000
2728 13410 6985 1 109.50000 418.400000
2728 13410 6986 1 109.50000 418.400000
6984 13410 6985 1 109.50000 418.400000
6984 13410 6986 1 109.50000 418.400000
6985 13410 6986 1 109.50000 418.400000
2470 13411 6987 1 109.50000 418.400000
2470 13411 6988 1 109.50000 418.400000
2470 13411 10625 1 109.50000 418.400000
6987 13411 6988 1 109.50000 418.400000
6987 13411 10625 1 109.50000 418.400000
6988 13411 10625 1 109.50000 418.400000
5485 13412 6676 1 109.50000 418.400000
5485 13412 6989 1 109.50000 418.400000
5485 13412 6990 1 109.50000 418.400000
6676 13412 6989 1 109.50000 418.400000
6676 13412 6990 1 109.50000 418.400000
6989 13412 6990 1 109.50000 418.400000
1085 13413 2907 1 109.50000 418.400000
1085 13413 6991 1 109.50000 418.400000
1085 13413 6992 1 109.50000 418.400000
2907 13413 6991 1 109.50000 418.400000
2907 13413 6992 1 109.50000 418.400000
6991 13413 6992 1 109.50000 418.400000
573 13414 2760 1 109.50000 418.400000
573 13414 6993 1 109.50000 418.400000
573 13414 6994 1 109.50000 418.400000
2760 13414 6993 1 109.50000 418.400000
2760 13414 6994 1 109.50000 418.400000
6993 13414 6994 1 109.50000 418.400000
4036 13415 4254 1 109.50000 418.400000
4036 13415 6995 1 109.50000 418.400000
4036 13415 6996 1 109.50000 418.400000
4254 13415 6995 1 109.50000 418.400000
4254 13415 6996 1 109.50000 418.400000
6995 13415 6996 1 109.50000 418.400000
1688 13416 2617 1 109.50000 418.400000
1688 13416 6691 1 109.50000 418.400000
1688 13416 6997 1 109.50000 418.400000
2617 13416 6691 1 109.50000 418.400000
2617 13416 6997 1 109.50000 418.400000
6691 13416 6997 1 109.50000 418.400000
228 13417 3445 1 109.50000 418.400000
228 13417 6998 1 109.50000 418.400000
228 13417 6999 1 109.50000 418.400000
3445 13417 6998 1 109.50000 418.400000
3445 13417 6999 1 109.50000 418.400000
6998 13417 6999 1 109.50000 418.400000
172 13418 2673 1 109.50000 418.400000
172 13418 5088 1 109.50000 418.400000
172 13418 7000 1 109.50000 418.400000
2673 13418 5088 1 109.50000 418.400000
2673 13418 7000 1 109.50000 418.400000
5088 13418 7000 1 109.50000 418.400000
2043 13419 4814 1 109.50000 418.400000
2043 13419 7001 1 109.50000 418.400000
2043 13419 11367 1 109.50000 418.400000
4814 13419 7001 1 109.50000 418.400000
4814 13419 11367 1 109.50000 418.400000
7001 13419 11367 1 109.50000 418.400000
510 13420 3268 1 109.50000 418.400000
510 13420 6257 1 109.50000 418.400000
510 13420 7002 1 109.50000 418.400000
3268 13420 6257 1 109.50000 418.400000
3268 13420 7002 1 109.50000 418.400000
6257 13420 7002 1 109.50000 418.400000
2660 13421 7003 1 109.50000 418.400000
2660 13421 7004 1 109.50000 418.400000
2660 13421 7005 1 109.50000 418.400000
7003 13421 7004 1 109.50000 418.400000
7003 13421 7005 1 109.50000 418.400000
7004 13421 7005 1 109.50000 418.400000
4630 13422 5386 1 109.50000 418.400000
4630 13422 6732 1 109.50000 418.400000
4630 13422 7006 1 109.50000 418.400000
5386 13422 6732 1 109.50000 418.400000
5386 13422 7006 1 109.50000 418.400000
6732 13422 7006 1 109.50000 418.400000
5710 13423 7007 1 109.50000 418.400000
5710 13423 7008 1 109.50000 418.400000
5710 13423 7009 1 109.50000 418.400000
7007 13423 7008 1 109.50000 418.400000
7007 13423 7009 1 109.50000 418.400000
7008 13423 7009 1 109.50000 418.400000
1822 13424 7010 1 109.50000 418.400000
1822 13424 7011 1 109.50000 418.400000
1822 13424 7012 1 109.50000 418.400000
7010 13424 7011 1 109.50000 418.400000
7010 13424 7012 1 109.50000 418.400000
7011 13424 7012 1 109.50000 418.400000
7013 13425 7014 1 109.50000 418.400000
7013 13425 7015 1 109.50000 418.400000
7013 13425 7016 1 109.50000 418.400000
7014 13425 7015 1 109.50000 418.400000
7014 13425 7016 1 109.50000 418.400000
7015 13425 7016 1 109.50000 418.400000
2319 13426 4412 1 109.50000 418.400000
2319 13426 7017 1 109.50000 418.400000
2319 13426 7018 1 109.50000 418.400000
4412 13426 7017 1 109.50000 418.400000
4412 13426 7018 1 109.50000 418.400000
7017 13426 7018 1 109.50000 418.400000
164 13427 7021 1 109.50000 418.400000
164 13427 7022 1 109.50000 418.400000
164 13427 7023 1 109.50000 418.400000
7021 13427 7022 1 109.50000 418.400000
7021 13427 7023 1 109.50000 418.400000
7022 13427 7023 1 109.50000 418.400000
7024 13428 7025 1 109.50000 418.400000
7024 13428 7026 1 109.50000 418.400000
7024 13428 7027 1 109.50000 418.400000
7025 13428 7026 1 109.50000 418.400000
7025 13428 7027 1 109.50000 418.400000
7026 13428 7027 1 109.50000 418.400000
7028 13429 7029 1 109.50000 418.400000
7028 13429 7030 1 109.50000 418.400000
7028 13429 7031 1 109.50000 418.400000
7029 13429 7030 1 109.50000 418.400000
7029 13429 7031 1 109.50000 418.400000
7030 13429 7031 1 109.50000 418.400000
707 13430 7032 1 109.50000 418.400000
707 13430 7033 1 109.50000 418.400000
707 13430 7034 1 109.50000 418.400000
7032 13430 7033 1 109.50000 418.400000
7032 13430 7034 1 109.50000 418.400000
7033 13430 7034 1 109.50000 418.400000
1111 13431 7035 1 109.50000 418.400000
1111 13431 7036 1 109.50000 418.400000
1111 13431 7037 1 109.50000 418.400000
7035 13431 7036 1 109.50000 418.400000
7035 13431 7037 1 109.50000 418.400000
7036 13431 7037 1 109.50000 418.400000
1495 13432 4981 1 109.50000 418.400000
1495 13432 11210 1 109.50000 418.400000
1495 13432 11341 1 109.50000 418.400000
4981 13432 11210 1 109.50000 418.400000
4981 13432 11341 1 109.50000 418.400000
11210 13432 11341 1 109.50000 418.400000
7038 13433 7039 1 109.50000 418.400000
7038 13433 7040 1 109.50000 418.400000
7038 13433 7041 1 109.50000 418.400000
7039 13433 7040 1 109.50000 418.400000
7039 13433 7041 1 109.50000 418.400000
7040 13433 7041 1 109.50000 418.400000
4093 13434 5973 1 109.50000 418.400000
4093 13434 7042 1 109.50000 418.400000
4093 13434 7043 1 109.50000 418.400000
5973 13434 7042 1 109.50000 418.400000
5973 13434 7043 1 109.50000 418.400000
7042 13434 7043 1 109.50000 418.400000
2647 13435 7044 1 109.50000 418.400000
2647 13435 7045 1 109.50000 418.400000
2647 13435 7046 1 109.50000 418.400000
7044 13435 7045 1 109.50000 418.400000
7044 13435 7046 1 109.50000 418.400000
7045 13435 7046 1 109.50000 418.400000
7047 13436 7048 1 109.50000 418.400000
7047 13436 7049 1 109.50000 418.400000
7047 13436 7050 1 109.50000 418.400000
7048 13436 7049 1 109.50000 418.400000
7048 13436 7050 1 109.50000 418.400000
7049 13436 7050 1 109.50000 418.400000
279 13437 2122 1 109.50000 418.400000
279 13437 2680 1 109.50000 418.400000
279 13437 7051 1 109.50000 418.400000
2122 13437 2680 1 109.50000 418.400000
2122 13437 7051 1 109.50000 418.400000
2680 13437 7051 1 109.50000 418.400000
3647 13438 5530 1 109.50000 418.400000
3647 13438 7053 1 109.50000 418.400000
3647 13438 7054 1 109.50000 418.400000
5530 13438 7053 1 109.50000 418.400000
5530 13438 7054 1 109.50000 418.400000
7053 13438 7054 1 109.50000 418.400000
1657 13439 1923 1 109.50000 418.400000
1657 13439 2105 1 109.50000 418.400000
1657 13439 7055 1 109.50000 418.400000
1923 13439 2105 1 109.50000 418.400000
1923 13439 7055 1 109.50000 418.400000
2105 13439 7055 1 109.50000 418.400000
157 13440 6678 1 109.50000 418.400000
157 13440 7056 1 109.50000 418.400000
157 13440 7057 1 109.50000 418.400000
6678 13440 7056 1 109.50000 418.400000
6678 13440 7057 1 109.50000 418.400000
7056 13440 7057 1 109.50000 418.400000
4498 13441 7058 1 109.50000 418.400000
4498 13441 7059 1 109.50000 418.400000
4498 13441 7060 1 109.50000 418.400000
7058 13441 7059 1 109.50000 418.400000
7058 13441 7060 1 109.50000 418.400000
7059 13441 7060 1 109.50000 418.400000
7061 13442 7062 1 109.50000 418.400000
7061 13442 7064 1 109.50000 418.400000
7061 13442 9061 1 109.50000 418.400000
7062 13442 7064 1 109.50000 418.400000
7062 13442 9061 1 109.50000 418.400000
7064 13442 9061 1 109.50000 418.400000
7067 13443 7068 1 109.50000 418.400000
7067 13443 7069 1 109.50000 418.400000
7067 13443 7070 1 109.50000 418.400000
7068 13443 7069 1 109.50000 418.400000
7068 13443 7070 1 109.50000 418.400000
7069 13443 7070 1 109.50000 418.400000
5443 13444 7071 1 109.50000 418.400000
5443 13444 7072 1 109.50000 418.400000
5443 13444 7073 1 109.50000 418.400000
7071 13444 7072 1 109.50000 418.400000
7071 13444 7073 1 109.50000 418.400000
7072 13444 7073 1 109.50000 418.400000
2551 13445 7074 1 109.50000 418.400000
2551 13445 7075 1 109.50000 418.400000
2551 13445 7076 1 109.50000 418.400000
7074 13445 7075 1 109.50000 418.400000
7074 13445 7076 1 109.50000 418.400000
7075 13445 7076 1 109.50000 418.400000
2260 13446 6065 1 109.50000 418.400000
2260 13446 7077 1 109.50000 418.400000
2260 13446 7078 1 109.50000 418.400000
6065 13446 7077 1 109.50000 418.400000
6065 13446 7078 1 109.50000 418.400000
7077 13446 7078 1 109.50000 418.400000
7079 13447 7080 1 109.50000 418.400000
7079 13447 7081 1 109.50000 418.400000
7079 13447 9335 1 109.50000 418.400000
7080 13447 7081 1 109.50000 418.400000
7080 13447 9335 1 109.50000 418.400000
7081 13447 9335 1 109.50000 418.400000
959 13448 3400 1 109.50000 418.400000
959 13448 7083 1 109.50000 418.400000
959 13448 7084 1 109.50000 418.400000
3400 13448 7083 1 109.50000 418.400000
3400 13448 7084 1 109.50000 418.400000
7083 13448 7084 1 109.50000 418.400000
4366 13449 6395 1 109.50000 418.400000
4366 13449 7085 1 109.50000 418.400000
4366 13449 7086 1 109.50000 418.400000
6395 13449 7085 1 109.50000 418.400000
6395 13449 7086 1 109.50000 418.400000
7085 13449 7086 1 109.50000 418.400000
5589 13450 7087 1 109.50000 418.400000
5589 13450 7088 1 109.50000 418.400000
5589 13450 7089 1 109.50000 418.400000
7087 13450 7088 1 109.50000 418.400000
7087 13450 7089 1 109.50000 418.400000
7088 13450 7089 1 109.50000 418.400000
7090 13451 7092 1 109.50000 418.400000
7090 13451 7093 1 109.50000 418.400000
7090 13451 9130 1 109.50000 418.400000
7092 13451 7093 1 109.50000 418.400000
7092 13451 9130 1 109.50000 418.400000
7093 13451 9130 1 109.50000 418.400000
243 13452 3387 1 109.50000 418.400000
243 13452 6097 1 109.50000 418.400000
243 13452 7094 1 109.50000 418.400000
3387 13452 6097 1 109.50000 418.400000
3387 13452 7094 1 109.50000 418.400000
6097 13452 7094 1 109.50000 418.400000
2149 13453 7095 1 109.50000 418.400000
2149 13453 7096 1 109.50000 418.400000
2149 13453 7097 1 109.50000 418.400000
7095 13453 7096 1 109.50000 418.400000
7095 13453 7097 1 109.50000 418.400000
7096 13453 7097 1 109.50000 418.400000
5136 13454 6810 1 109.50000 418.400000
5136 13454 7099 1 109.50000 418.400000
5136 13454 7100 1 109.50000 418.400000
6810 13454 7099 1 109.50000 418.400000
6810 13454 7100 1 109.50000 418.400000
7099 13454 7100 1 109.50000 418.400000
433 13455 4878 1 109.50000 418.400000
433 13455 7101 1 109.50000 418.400000
433 13455 7102 1 109.50000 418.400000
4878 13455 7101 1 109.50000 418.400000
4878 13455 7102 1 109.50000 418.400000
7101 13455 7102 1 109.50000 418.400000
2870 13456 4096 1 109.50000 418.400000
2870 13456 7103 1 109.50000 418.400000
2870 13456 7104 1 109.50000 418.400000
4096 13456 7103 1 109.50000 418.400000
4096 13456 7104 1 109.50000 418.400000
7103 13456 7104 1 109.50000 418.400000
2348 13457 7105 1 109.50000 418.400000
2348 13457 7106 1 109.50000 418.400000
2348 13457 7107 1 109.50000 418.400000
7105 13457 7106 1 109.50000 418.400000
7105 13457 7107 1 109.50000 418.400000
7106 13457 7107 1 109.50000 418.400000
7108 13458 7109 1 109.50000 418.400000
7108 13458 7110 1 109.50000 418.400000
7108 13458 7111 1 109.50000 418.400000
7109 13458 7110 1 109.50000 418.400000
7109 13458 7111 1 109.50000 418.400000
7110 13458 7111 1 109.50000 418.400000
5876 13459 7115 1 109.50000 418.400000
5876 13459 7116 1 109.50000 418.400000
5876 13459 7117 1 109.50000 418.400000
7115 13459 7116 1 109.50000 418.400000
7115 13459 7117 1 109.50000 418.400000
7116 13459 7117 1 109.50000 418.400000
3244 13460 7118 1 109.50000 418.400000
3244 13460 7119 1 109.50000 418.400000
3244 13460 7120 1 109.50000 418.400000
7118 13460 7119 1 109.50000 418.400000
7118 13460 7120 1 109.50000 418.400000
7119 13460 7120 1 109.50000 418.400000
5859 13461 7121 1 109.50000 418.400000
5859 13461 7122 1 109.50000 418.400000
5859 13461 7123 1 109.50000 418.400000
7121 13461 7122 1 109.50000 418.400000
7121 13461 7123 1 109.50000 418.400000
7122 13461 7123 1 109.50000 418.400000
5073 13462 5892 1 109.50000 418.400000
5073 13462 7124 1 109.50000 418.400000
5073 13462 7125 1 109.50000 418.400000
5892 13462 7124 1 109.50000 418.400000
5892 13462 7125 1 109.50000 418.400000
7124 13462 7125 1 109.50000 418.400000
7127 13463 7128 1 109.50000 418.400000
7127 13463 7129 1 109.50000 418.400000
7127 13463 7130 1 109.50000 418.400000
7128 13463 7129 1 109.50000 418.400000
7128 13463 7130 1 109.50000 418.400000
7129 13463 7130 1 109.50000 418.400000
1063 13464 2410 1 109.50000 418.400000
1063 13464 3578 1 109.50000 418.400000
1063 13464 7131 1 109.50000 418.400000
2410 13464 3578 1 109.50000 418.400000
2410 13464 7131 1 109.50000 418.400000
3578 13464 7131 1 109.50000 418.400000
4514 13465 4576 1 109.50000 418.400000
4514 13465 11200 1 109.50000 418.400000
4514 13465 11342 1 109.50000 418.400000
4576 13465 11200 1 109.50000 418.400000
4576 13465 11342 1 109.50000 418.400000
11200 13465 11342 1 109.50000 418.400000
557 13466 3503 1 109.50000 418.400000
557 13466 7133 1 109.50000 418.400000
557 13466 7134 1 109.50000 418.400000
3503 13466 7133 1 109.50000 418.400000
3503 13466 7134 1 109.50000 418.400000
7133 13466 7134 1 109.50000 418.400000
883 13467 7135 1 109.50000 418.400000
883 13467 7136 1 109.50000 418.400000
883 13467 7137 1 109.50000 418.400000
7135 13467 7136 1 109.50000 418.400000
7135 13467 7137 1 109.50000 418.400000
7136 13467 7137 1 109.50000 418.400000
3292 13468 7138 1 109.50000 418.400000
3292 13468 7139 1 109.50000 418.400000
3292 13468 7140 1 109.50000 418.400000
7138 13468 7139 1 109.50000 418.400000
7138 13468 7140 1 109.50000 418.400000
7139 13468 7140 1 109.50000 418.400000
5039 13469 7141 1 109.50000 418.400000
5039 13469 7142 1 109.50000 418.400000
5039 13469 11232 1 109.50000 418.400000
7141 13469 7142 1 109.50000 418.400000
7141 13469 11232 1 109.50000 418.400000
7142 13469 11232 1 109.50000 418.400000
5375 13470 5376 1 109.50000 418.400000
5375 13470 7143 1 109.50000 418.400000
5375 13470 7145 1 109.50000 418.400000
5376 13470 7143 1 109.50000 418.400000
5376 13470 7145 1 109.50000 418.400000
7143 13470 7145 1 109.50000 418.400000
5298 13471 7146 1 109.50000 418.400000
5298 13471 7147 1 109.50000 418.400000
5298 13471 7148 1 109.50000 418.400000
7146 13471 7147 1 109.50000 418.400000
7146 13471 7148 1 109.50000 418.400000
7147 13471 7148 1 109.50000 418.400000
3892 13472 7149 1 109.50000 418.400000
3892 13472 7150 1 109.50000 418.400000
3892 13472 7151 1 109.50000 418.400000
7149 13472 7150 1 109.50000 418.400000
7149 13472 7151 1 109.50000 418.400000
7150 13472 7151 1 109.50000 418.400000
2859 13473 3111 1 109.50000 418.400000
2859 13473 6204 1 109.50000 418.400000
2859 13473 7152 1 109.50000 418.400000
3111 13473 6204 1 109.50000 418.400000
3111 13473 7152 1 109.50000 418.400000
6204 13473 7152 1 109.50000 418.400000
3907 13474 7155 1 109.50000 418.400000
3907 13474 7156 1 109.50000 418.400000
3907 13474 7157 1 109.50000 418.400000
7155 13474 7156 1 109.50000 418.400000
7155 13474 7157 1 109.50000 418.400000
7156 13474 7157 1 109.50000 418.400000
7158 13475 7159 1 109.50000 418.400000
7158 13475 7160 1 109.50000 418.400000
7158 13475 7161 1 109.50000 418.400000
7159 13475 7160 1 109.50000 418.400000
7159 13475 7161 1 109.50000 418.400000
7160 13475 7161 1 109.50000 418.400000
6749 13476 7031 1 109.50000 418.400000
6749 13476 7162 1 109.50000 418.400000
6749 13476 7163 1 109.50000 418.400000
7031 13476 7162 1 109.50000 418.400000
7031 13476 7163 1 109.50000 418.400000
7162 13476 7163 1 109.50000 418.400000
2326 13477 7164 1 109.50000 418.400000
2326 13477 7165 1 109.50000 418.400000
2326 13477 7166 1 109.50000 418.400000
7164 13477 7165 1 109.50000 418.400000
7164 13477 7166 1 109.50000 418.400000
7165 13477 7166 1 109.50000 418.400000
1811 13478 3447 1 109.50000 418.400000
1811 13478 4621 1 109.50000 418.400000
1811 13478 7167 1 109.50000 418.400000
3447 13478 4621 1 109.50000 418.400000
3447 13478 7167 1 109.50000 418.400000
4621 13478 7167 1 109.50000 418.400000
7168 13479 7169 1 109.50000 418.400000
7168 13479 7170 1 109.50000 418.400000
7168 13479 11248 1 109.50000 418.400000
7169 13479 7170 1 109.50000 418.400000
7169 13479 11248 1 109.50000 418.400000
7170 13479 11248 1 109.50000 418.400000
2115 13480 7172 1 109.50000 418.400000
2115 13480 7173 1 109.50000 418.400000
2115 13480 7174 1 109.50000 418.400000
7172 13480 7173 1 109.50000 418.400000
7172 13480 7174 1 109.50000 418.400000
7173 13480 7174 1 109.50000 418.400000
2051 13481 7175 1 109.50000 418.400000
2051 13481 7176 1 109.50000 418.400000
2051 13481 7177 1 109.50000 418.400000
7175 13481 7176 1 109.50000 418.400000
7175 13481 7177 1 109.50000 418.400000
7176 13481 7177 1 109.50000 418.400000
1145 13482 4721 1 109.50000 418.400000
1145 13482 7178 1 109.50000 418.400000
1145 13482 7179 1 109.50000 418.400000
4721 13482 7178 1 109.50000 418.400000
4721 13482 7179 1 109.50000 418.400000
7178 13482 7179 1 109.50000 418.400000
439 13483 4514 1 109.50000 418.400000
439 13483 7181 1 109.50000 418.400000
439 13483 7182 1 109.50000 418.400000
4514 13483 7181 1 109.50000 418.400000
4514 13483 7182 1 109.50000 418.400000
7181 13483 7182 1 109.50000 418.400000
5634 13484 6086 1 109.50000 418.400000
5634 13484 6510 1 109.50000 418.400000
5634 13484 7183 1 109.50000 418.400000
6086 13484 6510 1 109.50000 418.400000
6086 13484 7183 1 109.50000 418.400000
6510 13484 7183 1 109.50000 418.400000
4016 13485 6265 1 109.50000 418.400000
4016 13485 7184 1 109.50000 418.400000
4016 13485 7185 1 109.50000 418.400000
6265 13485 7184 1 109.50000 418.400000
6265 13485 7185 1 109.50000 418.400000
7184 13485 7185 1 109.50000 418.400000
7186 13486 7187 1 109.50000 418.400000
7186 13486 7188 1 109.50000 418.400000
7186 13486 7189 1 109.50000 418.400000
7187 13486 7188 1 109.50000 418.400000
7187 13486 7189 1 109.50000 418.400000
7188 13486 7189 1 109.50000 418.400000
7190 13487 7191 1 109.50000 418.400000
7190 13487 7192 1 109.50000 418.400000
7190 13487 7193 1 109.50000 418.400000
7191 13487 7192 1 109.50000 418.400000
7191 13487 7193 1 109.50000 418.400000
7192 13487 7193 1 109.50000 418.400000
5961 13488 7194 1 109.50000 418.400000
5961 13488 7195 1 109.50000 418.400000
5961 13488 11141 1 109.50000 418.400000
7194 13488 7195 1 109.50000 418.400000
7194 13488 11141 1 109.50000 418.400000
7195 13488 11141 1 109.50000 418.400000
38 13489 3291 1 109.50000 418.400000
38 13489 7196 1 109.50000 418.400000
38 13489 7197 1 109.50000 418.400000
3291 13489 7196 1 109.50000 418.400000
3291 13489 7197 1 109.50000 418.400000
7196 13489 7197 1 109.50000 418.400000
4982 13490 5246 1 109.50000 418.400000
4982 13490 7199 1 109.50000 418.400000
4982 13490 7200 1 109.50000 418.400000
5246 13490 7199 1 109.50000 418.400000
5246 13490 7200 1 109.50000 418.400000
7199 13490 7200 1 109.50000 418.400000
3139 13491 3203 1 109.50000 418.400000
3139 13491 7201 1 109.50000 418.400000
3139 13491 7202 1 109.50000 418.400000
3203 13491 7201 1 109.50000 418.400000
3203 13491 7202 1 109.50000 418.400000
7201 13491 7202 1 109.50000 418.400000
6444 13492 7203 1 109.50000 418.400000
6444 13492 7204 1 109.50000 418.400000
6444 13492 7469 1 109.50000 418.400000
7203 13492 7204 1 109.50000 418.400000
7203 13492 7469 1 109.50000 418.400000
7204 13492 7469 1 109.50000 418.400000
5885 13493 6346 1 109.50000 418.400000
5885 13493 7205 1 109.50000 418.400000
5885 13493 7206 1 109.50000 418.400000
6346 13493 7205 1 109.50000 418.400000
6346 13493 7206 1 109.50000 418.400000
7205 13493 7206 1 109.50000 418.400000
135 13494 3177 1 109.50000 418.400000
135 13494 7207 1 109.50000 418.400000
135 13494 7208 1 109.50000 418.400000
3177 13494 7207 1 109.50000 418.400000
3177 13494 7208 1 109.50000 418.400000
7207 13494 7208 1 109.50000 418.400000
698 13495 4637 1 109.50000 418.400000
698 13495 5355 1 109.50000 418.400000
698 13495 7209 1 109.50000 418.400000
4637 13495 5355 1 109.50000 418.400000
4637 13495 7209 1 109.50000 418.400000
5355 13495 7209 1 109.50000 418.400000
508 13496 3948 1 109.50000 418.400000
508 13496 5676 1 109.50000 418.400000
508 13496 6128 1 109.50000 418.400000
3948 13496 5676 1 109.50000 418.400000
3948 13496 6128 1 109.50000 418.400000
5676 13496 6128 1 109.50000 418.400000
7123 13497 7210 1 109.50000 418.400000
7123 13497 7211 1 109.50000 418.400000
7123 13497 7212 1 109.50000 418.400000
7210 13497 7211 1 109.50000 418.400000
7210 13497 7212 1 109.50000 418.400000
7211 13497 7212 1 109.50000 418.400000
4986 13498 5004 1 109.50000 418.400000
4986 13498 5889 1 109.50000 418.400000
4986 13498 7213 1 109.50000 418.400000
5004 13498 5889 1 109.50000 418.400000
5004 13498 7213 1 109.50000 418.400000
5889 13498 7213 1 109.50000 418.400000
4819 13499 7214 1 109.50000 418.400000
4819 13499 7215 1 109.50000 418.400000
4819 13499 8122 1 109.50000 418.400000
7214 13499 7215 1 109.50000 418.400000
7214 13499 8122 1 109.50000 418.400000
7215 13499 8122 1 109.50000 418.400000
4455 13500 5146 1 109.50000 418.400000
4455 13500 7217 1 109.50000 418.400000
4455 13500 11159 1 109.50000 418.400000
5146 13500 7217 1 109.50000 418.400000
5146 13500 11159 1 109.50000 418.400000
7217 13500 11159 1 109.50000 418.400000
7218 13501 7219 1 109.50000 418.400000
7218 13501 7220 1 109.50000 418.400000
7218 13501 7221 1 109.50000 418.400000
7219 13501 7220 1 109.50000 418.400000
7219 13501 7221 1 109.50000 418.400000
7220 13501 7221 1 109.50000 418.400000
2885 13502 4353 1 109.50000 418.400000
2885 13502 7225 1 109.50000 418.400000
2885 13502 7226 1 109.50000 418.400000
4353 13502 7225 1 109.50000 418.400000
4353 13502 7226 1 109.50000 418.400000
7225 13502 7226 1 109.50000 418.400000
3077 13503 4156 1 109.50000 418.400000
3077 13503 6419 1 109.50000 418.400000
3077 13503 7227 1 109.50000 418.400000
4156 13503 6419 1 109.50000 418.400000
4156 13503 7227 1 109.50000 418.400000
6419 13503 7227 1 109.50000 418.400000
7228 13504 7229 1 109.50000 418.400000
7228 13504 7230 1 109.50000 418.400000
7228 13504 7231 1 109.50000 418.400000
7229 13504 7230 1 109.50000 418.400000
7229 13504 7231 1 109.50000 418.400000
7230 13504 7231 1 109.50000 418.400000
4146 13505 7232 1 109.50000 418.400000
4146 13505 7233 1 109.50000 418.400000
4146 13505 7234 1 109.50000 418.400000
7232 13505 7233 1 109.50000 418.400000
7232 13505 7234 1 109.50000 418.400000
7233 13505 7234 1 109.50000 418.400000
296 13506 297 1 109.50000 418.400000
296 13506 7235 1 109.50000 418.400000
296 13506 7236 1 109.50000 418.400000
297 13506 7235 1 109.50000 418.400000
297 13506 7236 1 109.50000 418.400000
7235 13506 7236 1 109.50000 418.400000
1919 13507 6747 1 109.50000 418.400000
1919 13507 7238 1 109.50000 418.400000
1919 13507 7239 1 109.50000 418.400000
6747 13507 7238 1 109.50000 418.400000
6747 13507 7239 1 109.50000 418.400000
7238 13507 7239 1 109.50000 418.400000
94 13508 7241 1 109.50000 418.400000
94 13508 7242 1 109.50000 418.400000
94 13508 10704 1 109.50000 418.400000
7241 13508 7242 1 109.50000 418.400000
7241 13508 10704 1 109.50000 418.400000
7242 13508 10704 1 109.50000 418.400000
1241 13509 6534 1 109.50000 418.400000
1241 13509 7243 1 109.50000 418.400000
1241 13509 7244 1 109.50000 418.400000
6534 13509 7243 1 109.50000 418.400000
6534 13509 7244 1 109.50000 418.400000
7243 13509 7244 1 109.50000 418.400000
3786 13510 5207 1 109.50000 418.400000
3786 13510 7245 1 109.50000 418.400000
3786 13510 7246 1 109.50000 418.400000
5207 13510 7245 1 109.50000 418.400000
5207 13510 7246 1 109.50000 418.400000
7245 13510 7246 1 109.50000 418.400000
7247 13511 7248 1 109.50000 418.400000
7247 13511 7249 1 109.50000 418.400000
7247 13511 7250 1 109.50000 418.400000
7248 13511 7249 1 109.50000 418.400000
7248 13511 7250 1 109.50000 418.400000
7249 13511 7250 1 109.50000 418.400000
4054 13512 6098 1 109.50000 418.400000
4054 13512 6518 1 109.50000 418.400000
4054 13512 7251 1 109.50000 418.400000
6098 13512 6518 1 109.50000 418.400000
6098 13512 7251 1 109.50000 418.400000
6518 13512 7251 1 109.50000 418.400000
954 13513 3295 1 109.50000 418.400000
954 13513 7193 1 109.50000 418.400000
954 13513 7253 1 109.50000 418.400000
3295 13513 7193 1 109.50000 418.400000
3295 13513 7253 1 109.50000 418.400000
7193 13513 7253 1 109.50000 418.400000
1210 13514 2284 1 109.50000 418.400000
1210 13514 7254 1 109.50000 418.400000
1210 13514 8084 1 109.50000 418.400000
2284 13514 7254 1 109.50000 418.400000
2284 13514 8084 1 109.50000 418.400000
7254 13514 8084 1 109.50000 418.400000
3084 13515 3086 1 109.50000 418.400000
3084 13515 7255 1 109.50000 418.400000
3084 13515 7256 1 109.50000 418.400000
3086 13515 7255 1 109.50000 418.400000
3086 13515 7256 1 109.50000 418.400000
7255 13515 7256 1 109.50000 418.400000
1858 13516 6427 1 109.50000 418.400000
1858 13516 7257 1 109.50000 418.400000
1858 13516 11326 1 109.50000 418.400000
6427 13516 7257 1 109.50000 418.400000
6427 13516 11326 1 109.50000 418.400000
7257 13516 11326 1 109.50000 418.400000
1941 13517 5608 1 109.50000 418.400000
1941 13517 7258 1 109.50000 418.400000
1941 13517 7259 1 109.50000 418.400000
5608 13517 7258 1 109.50000 418.400000
5608 13517 7259 1 109.50000 418.400000
7258 13517 7259 1 109.50000 418.400000
5904 13518 5938 1 109.50000 418.400000
5904 13518 7260 1 109.50000 418.400000
5904 13518 7261 1 109.50000 418.400000
5938 13518 7260 1 109.50000 418.400000
5938 13518 7261 1 109.50000 418.400000
7260 13518 7261 1 109.50000 418.400000
111 13519 451 1 109.50000 418.400000
111 13519 7265 1 109.50000 418.400000
111 13519 7266 1 109.50000 418.400000
451 13519 7265 1 109.50000 418.400000
451 13519 7266 1 109.50000 418.400000
7265 13519 7266 1 109.50000 418.400000
1541 13520 3366 1 109.50000 418.400000
1541 13520 3367 1 109.50000 418.400000
1541 13520 7267 1 109.50000 418.400000
3366 13520 3367 1 109.50000 418.400000
3366 13520 7267 1 109.50000 418.400000
3367 13520 7267 1 109.50000 418.400000
868 13521 3372 1 109.50000 418.400000
868 13521 7268 1 109.50000 418.400000
868 13521 11273 1 109.50000 418.400000
3372 13521 7268 1 109.50000 418.400000
3372 13521 11273 1 109.50000 418.400000
7268 13521 11273 1 109.50000 418.400000
2681 13522 2901 1 109.50000 418.400000
2681 13522 5778 1 109.50000 418.400000
2681 13522 5959 1 109.50000 418.400000
2901 13522 5778 1 109.50000 418.400000
2901 13522 5959 1 109.50000 418.400000
5778 13522 5959 1 109.50000 418.400000
6203 13523 6660 1 109.50000 418.400000
6203 13523 7270 1 109.50000 418.400000
6203 13523 10401 1 109.50000 418.400000
6660 13523 7270 1 109.50000 418.400000
6660 13523 10401 1 109.50000 418.400000
7270 13523 10401 1 109.50000 418.400000
7271 13524 7272 1 109.50000 418.400000
7271 13524 7273 1 109.50000 418.400000
7271 13524 7274 1 109.50000 418.400000
7272 13524 7273 1 109.50000 418.400000
7272 13524 7274 1 109.50000 418.400000
7273 13524 7274 1 109.50000 418.400000
823 13525 4227 1 109.50000 418.400000
823 13525 7275 1 109.50000 418.400000
823 13525 7276 1 109.50000 418.400000
4227 13525 7275 1 109.50000 418.400000
4227 13525 7276 1 109.50000 418.400000
7275 13525 7276 1 109.50000 418.400000
7278 13526 7279 1 109.50000 418.400000
7278 13526 7280 1 109.50000 418.400000
7278 13526 9033 1 109.50000 418.400000
7279 13526 7280 1 109.50000 418.400000
7279 13526 9033 1 109.50000 418.400000
7280 13526 9033 1 109.50000 418.400000
2146 13527 5475 1 109.50000 418.400000
2146 13527 6135 1 109.50000 418.400000
2146 13527 7281 1 109.50000 418.400000
5475 13527 6135 1 109.50000 418.400000
5475 13527 7281 1 109.50000 418.400000
6135 13527 7281 1 109.50000 418.400000
7268 13528 7284 1 109.50000 418.400000
7268 13528 7285 1 109.50000 418.400000
7268 13528 7286 1 109.50000 418.400000
7284 13528 7285 1 109.50000 418.400000
7284 13528 7286 1 109.50000 418.400000
7285 13528 7286 1 109.50000 418.400000
2285 13529 5579 1 109.50000 418.400000
2285 13529 7223 1 109.50000 418.400000
2285 13529 7287 1 109.50000 418.400000
5579 13529 7223 1 109.50000 418.400000
5579 13529 7287 1 109.50000 418.400000
7223 13529 7287 1 109.50000 418.400000
7289 13530 7290 1 109.50000 418.400000
7289 13530 10193 1 109.50000 418.400000
7289 13530 10839 1 109.50000 418.400000
7290 13530 10193 1 109.50000 418.400000
7290 13530 10839 1 109.50000 418.400000
10193 13530 10839 1 109.50000 418.400000
15 13531 7292 1 109.50000 418.400000
15 13531 7293 1 109.50000 418.400000
15 13531 7294 1 109.50000 418.400000
7292 13531 7293 1 109.50000 418.400000
7292 13531 7294 1 109.50000 418.400000
7293 13531 7294 1 109.50000 418.400000
3471 13532 7295 1 109.50000 418.400000
3471 13532 7296 1 109.50000 418.400000
3471 13532 7297 1 109.50000 418.400000
7295 13532 7296 1 109.50000 418.400000
7295 13532 7297 1 109.50000 418.400000
7296 13532 7297 1 109.50000 418.400000
5056 13533 5978 1 109.50000 418.400000
5056 13533 5980 1 109.50000 418.400000
5056 13533 5981 1 109.50000 418.400000
5978 13533 5980 1 109.50000 418.400000
5978 13533 5981 1 109.50000 418.400000
5980 13533 5981 1 109.50000 418.400000
2847 13534 7298 1 109.50000 418.400000
2847 13534 7299 1 109.50000 418.400000
2847 13534 7300 1 109.50000 418.400000
7298 13534 7299 1 109.50000 418.400000
7298 13534 7300 1 109.50000 418.400000
7299 13534 7300 1 109.50000 418.400000
5736 13535 7301 1 109.50000 418.400000
5736 13535 7302 1 109.50000 418.400000
5736 13535 11255 1 109.50000 418.400000
7301 13535 7302 1 109.50000 418.400000
7301 13535 11255 1 109.50000 418.400000
7302 13535 11255 1 109.50000 418.400000
6237 13536 7303 1 109.50000 418.400000
6237 13536 7304 1 109.50000 418.400000
6237 13536 7305 1 109.50000 418.400000
7303 13536 7304 1 109.50000 418.400000
7303 13536 7305 1 109.50000 418.400000
7304 13536 7305 1 109.50000 418.400000
4644 13537 7306 1 109.50000 418.400000
4644 13537 7307 1 109.50000 418.400000
4644 13537 7308 1 109.50000 418.400000
7306 13537 7307 1 109.50000 418.400000
7306 13537 7308 1 109.50000 418.400000
7307 13537 7308 1 109.50000 418.400000
7309 13538 7310 1 109.50000 418.400000
7309 13538 7311 1 109.50000 418.400000
7309 13538 7312 1 109.50000 418.400000
7310 13538 7311 1 109.50000 418.400000
7310 13538 7312 1 109.50000 418.400000
7311 13538 7312 1 109.50000 418.400000
1490 13539 7151 1 109.50000 418.400000
1490 13539 7313 1 109.50000 418.400000
1490 13539 7314 1 109.50000 418.400000
7151 13539 7313 1 109.50000 418.400000
7151 13539 7314 1 109.50000 418.400000
7313 13539 7314 1 109.50000 418.400000
5389 13540 7315 1 109.50000 418.400000
5389 13540 7316 1 109.50000 418.400000
5389 13540 9938 1 109.50000 418.400000
7315 13540 7316 1 109.50000 418.400000
7315 13540 9938 1 109.50000 418.400000
7316 13540 9938 1 109.50000 418.400000
5927 13541 5952 1 109.50000 418.400000
5927 13541 7129 1 109.50000 418.400000
5927 13541 7231 1 109.50000 418.400000
5952 13541 7129 1 109.50000 418.400000
5952 13541 7231 1 109.50000 418.400000
7129 13541 7231 1 109.50000 418.400000
752 13542 2567 1 109.50000 418.400000
752 13542 7317 1 109.50000 418.400000
752 13542 7318 1 109.50000 418.400000
2567 13542 7317 1 109.50000 418.400000
2567 13542 7318 1 109.50000 418.400000
7317 13542 7318 1 109.50000 418.400000
1349 13543 1350 1 109.50000 418.400000
1349 13543 1351 1 109.50000 418.400000
1349 13543 9817 1 109.50000 418.400000
1350 13543 1351 1 109.50000 418.400000
1350 13543 9817 1 109.50000 418.400000
1351 13543 9817 1 109.50000 418.400000
2067 13544 5248 1 109.50000 418.400000
2067 13544 7321 1 109.50000 418.400000
2067 13544 7322 1 109.50000 418.400000
5248 13544 7321 1 109.50000 418.400000
5248 13544 7322 1 109.50000 418.400000
7321 13544 7322 1 109.50000 418.400000
1974 13545 2464 1 109.50000 418.400000
1974 13545 7323 1 109.50000 418.400000
1974 13545 7324 1 109.50000 418.400000
2464 13545 7323 1 109.50000 418.400000
2464 13545 7324 1 109.50000 418.400000
7323 13545 7324 1 109.50000 418.400000
3228 13546 3281 1 109.50000 418.400000
3228 13546 4306 1 109.50000 418.400000
3228 13546 4987 1 109.50000 418.400000
3281 13546 4306 1 109.50000 418.400000
3281 13546 4987 1 109.50000 418.400000
4306 13546 4987 1 109.50000 418.400000
6506 13547 7327 1 109.50000 418.400000
6506 13547 7328 1 109.50000 418.400000
6506 13547 7781 1 109.50000 418.400000
7327 13547 7328 1 109.50000 418.400000
7327 13547 7781 1 109.50000 418.400000
7328 13547 7781 1 109.50000 418.400000
3327 13548 6176 1 109.50000 418.400000
3327 13548 7283 1 109.50000 418.400000
3327 13548 7329 1 109.50000 418.400000
6176 13548 7283 1 109.50000 418.400000
6176 13548 7329 1 109.50000 418.400000
7283 13548 7329 1 109.50000 418.400000
86 13549 4920 1 109.50000 418.400000
86 13549 5187 1 109.50000 418.400000
86 13549 7330 1 109.50000 418.400000
4920 13549 5187 1 109.50000 418.400000
4920 13549 7330 1 109.50000 418.400000
5187 13549 7330 1 109.50000 418.400000
6906 13550 7331 1 109.50000 418.400000
6906 13550 7332 1 109.50000 418.400000
6906 13550 7333 1 109.50000 418.400000
7331 13550 7332 1 109.50000 418.400000
7331 13550 7333 1 109.50000 418.400000
7332 13550 7333 1 109.50000 418.400000
7334 13551 7335 1 109.50000 418.400000
7334 13551 7336 1 109.50000 418.400000
7334 13551 7337 1 109.50000 418.400000
7335 13551 7336 1 109.50000 418.400000
7335 13551 7337 1 109.50000 418.400000
7336 13551 7337 1 109.50000 418.400000
3200 13552 7338 1 109.50000 418.400000
3200 13552 7339 1 109.50000 418.400000
3200 13552 7340 1 109.50000 418.400000
7338 13552 7339 1 109.50000 418.400000
7338 13552 7340 1 109.50000 418.400000
7339 13552 7340 1 109.50000 418.400000
6163 13553 7342 1 109.50000 418.400000
6163 13553 7343 1 109.50000 418.400000
6163 13553 7344 1 109.50000 418.400000
7342 13553 7343 1 109.50000 418.400000
7342 13553 7344 1 109.50000 418.400000
7343 13553 7344 1 109.50000 418.400000
2254 13554 7345 1 109.50000 418.400000
2254 13554 7346 1 109.50000 418.400000
2254 13554 7347 1 109.50000 418.400000
7345 13554 7346 1 109.50000 418.400000
7345 13554 7347 1 109.50000 418.400000
7346 13554 7347 1 109.50000 418.400000
7284 13555 7348 1 109.50000 418.400000
7284 13555 7349 1 109.50000 418.400000
7284 13555 7350 1 109.50000 418.400000
7348 13555 7349 1 109.50000 418.400000
7348 13555 7350 1 109.50000 418.400000
7349 13555 7350 1 109.50000 418.400000
4098 13556 7351 1 109.50000 418.400000
4098 13556 7352 1 109.50000 418.400000
4098 13556 7353 1 109.50000 418.400000
7351 13556 7352 1 109.50000 418.400000
7351 13556 7353 1 109.50000 418.400000
7352 13556 7353 1 109.50000 418.400000
2736 13557 7354 1 109.50000 418.400000
2736 13557 7355 1 109.50000 418.400000
2736 13557 7356 1 109.50000 418.400000
7354 13557 7355 1 109.50000 418.400000
7354 13557 7356 1 109.50000 418.400000
7355 13557 7356 1 109.50000 418.400000
1938 13558 6762 1 109.50000 418.400000
1938 13558 7357 1 109.50000 418.400000
1938 13558 7359 1 109.50000 418.400000
6762 13558 7357 1 109.50000 418.400000
6762 13558 7359 1 109.50000 418.400000
7357 13558 7359 1 109.50000 418.400000
2654 13559 7360 1 109.50000 418.400000
2654 13559 7361 1 109.50000 418.400000
2654 13559 7362 1 109.50000 418.400000
7360 13559 7361 1 109.50000 418.400000
7360 13559 7362 1 109.50000 418.400000
7361 13559 7362 1 109.50000 418.400000
5940 13560 7363 1 109.50000 418.400000
5940 13560 7364 1 109.50000 418.400000
5940 13560 7365 1 109.50000 418.400000
7363 13560 7364 1 109.50000 418.400000
7363 13560 7365 1 109.50000 418.400000
7364 13560 7365 1 109.50000 418.400000
2366 13561 2704 1 109.50000 418.400000
2366 13561 6754 1 109.50000 418.400000
2366 13561 7366 1 109.50000 418.400000
2704 13561 6754 1 109.50000 418.400000
2704 13561 7366 1 109.50000 418.400000
6754 13561 7366 1 109.50000 418.400000
159 13562 3972 1 109.50000 418.400000
159 13562 4882 1 109.50000 418.400000
159 13562 7367 1 109.50000 418.400000
3972 13562 4882 1 109.50000 418.400000
3972 13562 7367 1 109.50000 418.400000
4882 13562 7367 1 109.50000 418.400000
1150 13563 1151 1 109.50000 418.400000
1150 13563 7370 1 109.50000 418.400000
1150 13563 7372 1 109.50000 418.400000
1151 13563 7370 1 109.50000 418.400000
1151 13563 7372 1 109.50000 418.400000
7370 13563 7372 1 109.50000 418.400000
1199 13564 1201 1 109.50000 418.400000
1199 13564 7374 1 109.50000 418.400000
1199 13564 9508 1 109.50000 418.400000
1201 13564 7374 1 109.50000 418.400000
1201 13564 9508 1 109.50000 418.400000
7374 13564 9508 1 109.50000 418.400000
1641 13565 5273 1 109.50000 418.400000
1641 13565 5972 1 109.50000 418.400000
1641 13565 7247 1 109.50000 418.400000
5273 13565 5972 1 109.50000 418.400000
5273 13565 7247 1 109.50000 418.400000
5972 13565 7247 1 109.50000 418.400000
7377 13566 7378 1 109.50000 418.400000
7377 13566 7379 1 109.50000 418.400000
7377 13566 7380 1 109.50000 418.400000
7378 13566 7379 1 109.50000 418.400000
7378 13566 7380 1 109.50000 418.400000
7379 13566 7380 1 109.50000 418.400000
1579 13567 4321 1 109.50000 418.400000
1579 13567 7381 1 109.50000 418.400000
1579 13567 7382 1 109.50000 418.400000
4321 13567 7381 1 109.50000 418.400000
4321 13567 7382 1 109.50000 418.400000
7381 13567 7382 1 109.50000 418.400000
3131 13568 4985 1 109.50000 418.400000
3131 13568 6445 1 109.50000 418.400000
3131 13568 7383 1 109.50000 418.400000
4985 13568 6445 1 109.50000 418.400000
4985 13568 7383 1 109.50000 418.400000
6445 13568 7383 1 109.50000 418.400000
5586 13569 5912 1 109.50000 418.400000
5586 13569 6105 1 109.50000 418.400000
5586 13569 7091 1 109.50000 418.400000
5912 13569 6105 1 109.50000 418.400000
5912 13569 7091 1 109.50000 418.400000
6105 13569 7091 1 109.50000 418.400000
7384 13570 7385 1 109.50000 418.400000
7384 13570 7386 1 109.50000 418.400000
7384 13570 7387 1 109.50000 418.400000
7385 13570 7386 1 109.50000 418.400000
7385 13570 7387 1 109.50000 418.400000
7386 13570 7387 1 109.50000 418.400000
541 13571 3182 1 109.50000 418.400000
541 13571 7388 1 109.50000 418.400000
541 13571 7389 1 109.50000 418.400000
3182 13571 7388 1 109.50000 418.400000
3182 13571 7389 1 109.50000 418.400000
7388 13571 7389 1 109.50000 418.400000
6791 13572 7022 1 109.50000 418.400000
6791 13572 7390 1 109.50000 418.400000
6791 13572 7391 1 109.50000 418.400000
7022 13572 7390 1 109.50000 418.400000
7022 13572 7391 1 109.50000 418.400000
7390 13572 7391 1 109.50000 418.400000
773 13573 4579 1 109.50000 418.400000
773 13573 7392 1 109.50000 418.400000
773 13573 7393 1 109.50000 418.400000
4579 13573 7392 1 109.50000 418.400000
4579 13573 7393 1 109.50000 418.400000
7392 13573 7393 1 109.50000 418.400000
5994 13574 7394 1 109.50000 418.400000
5994 13574 7395 1 109.50000 418.400000
5994 13574 7396 1 109.50000 418.400000
7394 13574 7395 1 109.50000 418.400000
7394 13574 7396 1 109.50000 418.400000
7395 13574 7396 1 109.50000 418.400000
86 13575 88 1 109.50000 418.400000
86 13575 7397 1 109.50000 418.400000
86 13575 7398 1 109.50000 418.400000
88 13575 7397 1 109.50000 418.400000
88 13575 7398 1 109.50000 418.400000
7397 13575 7398 1 109.50000 418.400000
7401 13576 7402 1 109.50000 418.400000
7401 13576 7403 1 109.50000 418.400000
7401 13576 7404 1 109.50000 418.400000
7402 13576 7403 1 109.50000 418.400000
7402 13576 7404 1 109.50000 418.400000
7403 13576 7404 1 109.50000 418.400000
3720 13577 7405 1 109.50000 418.400000
3720 13577 7406 1 109.50000 418.400000
3720 13577 7407 1 109.50000 418.400000
7405 13577 7406 1 109.50000 418.400000
7405 13577 7407 1 109.50000 418.400000
7406 13577 7407 1 109.50000 418.400000
3954 13578 3956 1 109.50000 418.400000
3954 13578 7408 1 109.50000 418.400000
3954 13578 10864 1 109.50000 418.400000
3956 13578 7408 1 109.50000 418.400000
3956 13578 10864 1 109.50000 418.400000
7408 13578 10864 1 109.50000 418.400000
5465 13579 7411 1 109.50000 418.400000
5465 13579 7412 1 109.50000 418.400000
5465 13579 7413 1 109.50000 418.400000
7411 13579 7412 1 109.50000 418.400000
7411 13579 7413 1 109.50000 418.400000
7412 13579 7413 1 109.50000 418.400000
2701 13580 3230 1 109.50000 418.400000
2701 13580 3262 1 109.50000 418.400000
2701 13580 7414 1 109.50000 418.400000
3230 13580 3262 1 109.50000 418.400000
3230 13580 7414 1 109.50000 418.400000
3262 13580 7414 1 109.50000 418.400000
4181 13581 5817 1 109.50000 418.400000
4181 13581 7415 1 109.50000 418.400000
4181 13581 7416 1 109.50000 418.400000
5817 13581 7415 1 109.50000 418.400000
5817 13581 7416 1 109.50000 418.400000
7415 13581 7416 1 109.50000 418.400000
2714 13582 4679 1 109.50000 418.400000
2714 13582 7253 1 109.50000 418.400000
2714 13582 7417 1 109.50000 418.400000
4679 13582 7253 1 109.50000 418.400000
4679 13582 7417 1 109.50000 418.400000
7253 13582 7417 1 109.50000 418.400000
726 13583 7418 1 109.50000 418.400000
726 13583 7419 1 109.50000 418.400000
726 13583 7420 1 109.50000 418.400000
7418 13583 7419 1 109.50000 418.400000
7418 13583 7420 1 109.50000 418.400000
7419 13583 7420 1 109.50000 418.400000
5345 13584 6069 1 109.50000 418.400000
5345 13584 7421 1 109.50000 418.400000
5345 13584 7422 1 109.50000 418.400000
6069 13584 7421 1 109.50000 418.400000
6069 13584 7422 1 109.50000 418.400000
7421 13584 7422 1 109.50000 418.400000
3288 13585 6035 1 109.50000 418.400000
3288 13585 6553 1 109.50000 418.400000
3288 13585 7423 1 109.50000 418.400000
6035 13585 6553 1 109.50000 418.400000
6035 13585 7423 1 109.50000 418.400000
6553 13585 7423 1 109.50000 418.400000
7409 13586 7424 1 109.50000 418.400000
7409 13586 7425 1 109.50000 418.400000
7409 13586 7426 1 109.50000 418.400000
7424 13586 7425 1 109.50000 418.400000
7424 13586 7426 1 109.50000 418.400000
7425 13586 7426 1 109.50000 418.400000
6639 13587 7427 1 109.50000 418.400000
6639 13587 7428 1 109.50000 418.400000
6639 13587 7429 1 109.50000 418.400000
7427 13587 7428 1 109.50000 418.400000
7427 13587 7429 1 109.50000 418.400000
7428 13587 7429 1 109.50000 418.400000
7093 13588 7249 1 109.50000 418.400000
7093 13588 7430 1 109.50000 418.400000
7093 13588 7432 1 109.50000 418.400000
7249 13588 7430 1 109.50000 418.400000
7249 13588 7432 1 109.50000 418.400000
7430 13588 7432 1 109.50000 418.400000
1077 13589 4417 1 109.50000 418.400000
1077 13589 5296 1 109.50000 418.400000
1077 13589 7433 1 109.50000 418.400000
4417 13589 5296 1 109.50000 418.400000
4417 13589 7433 1 109.50000 418.400000
5296 13589 7433 1 109.50000 418.400000
4259 13590 7434 1 109.50000 418.400000
4259 13590 7435 1 109.50000 418.400000
4259 13590 7436 1 109.50000 418.400000
7434 13590 7435 1 109.50000 418.400000
7434 13590 7436 1 109.50000 418.400000
7435 13590 7436 1 109.50000 418.400000
1166 13591 7437 1 109.50000 418.400000
1166 13591 7438 1 109.50000 418.400000
1166 13591 7439 1 109.50000 418.400000
7437 13591 7438 1 109.50000 418.400000
7437 13591 7439 1 109.50000 418.400000
7438 13591 7439 1 109.50000 418.400000
4880 13592 7310 1 109.50000 418.400000
4880 13592 7440 1 109.50000 418.400000
4880 13592 7441 1 109.50000 418.400000
7310 13592 7440 1 109.50000 418.400000
7310 13592 7441 1 109.50000 418.400000
7440 13592 7441 1 109.50000 418.400000
4383 13593 6138 1 109.50000 418.400000
4383 13593 7181 1 109.50000 418.400000
4383 13593 7442 1 109.50000 418.400000
6138 13593 7181 1 109.50000 418.400000
6138 13593 7442 1 109.50000 418.400000
7181 13593 7442 1 109.50000 418.400000
4460 13594 7443 1 109.50000 418.400000
4460 13594 7444 1 109.50000 418.400000
4460 13594 7445 1 109.50000 418.400000
7443 13594 7444 1 109.50000 418.400000
7443 13594 7445 1 109.50000 418.400000
7444 13594 7445 1 109.50000 418.400000
4307 13595 6407 1 109.50000 418.400000
4307 13595 6765 1 109.50000 418.400000
4307 13595 6916 1 109.50000 418.400000
6407 13595 6765 1 109.50000 418.400000
6407 13595 6916 1 109.50000 418.400000
6765 13595 6916 1 109.50000 418.400000
4807 13596 6656 1 109.50000 418.400000
4807 13596 7447 1 109.50000 418.400000
4807 13596 7448 1 109.50000 418.400000
6656 13596 7447 1 109.50000 418.400000
6656 13596 7448 1 109.50000 418.400000
7447 13596 7448 1 109.50000 418.400000
4675 13597 6912 1 109.50000 418.400000
4675 13597 7449 1 109.50000 418.400000
4675 13597 7450 1 109.50000 418.400000
6912 13597 7449 1 109.50000 418.400000
6912 13597 7450 1 109.50000 418.400000
7449 13597 7450 1 109.50000 418.400000
6161 13598 6162 1 109.50000 418.400000
6161 13598 7452 1 109.50000 418.400000
6161 13598 7453 1 109.50000 418.400000
6162 13598 7452 1 109.50000 418.400000
6162 13598 7453 1 109.50000 418.400000
7452 13598 7453 1 109.50000 418.400000
6706 13599 7454 1 109.50000 418.400000
6706 13599 7455 1 109.50000 418.400000
6706 13599 7456 1 109.50000 418.400000
7454 13599 7455 1 109.50000 418.400000
7454 13599 7456 1 109.50000 418.400000
7455 13599 7456 1 109.50000 418.400000
13 13600 2589 1 109.50000 418.400000
13 13600 7457 1 109.50000 418.400000
13 13600 7458 1 109.50000 418.400000
2589 13600 7457 1 109.50000 418.400000
2589 13600 7458 1 109.50000 418.400000
7457 13600 7458 1 109.50000 418.400000
5055 13601 7459 1 109.50000 418.400000
5055 13601 7460 1 109.50000 418.400000
5055 13601 7461 1 109.50000 418.400000
7459 13601 7460 1 109.50000 418.400000
7459 13601 7461 1 109.50000 418.400000
7460 13601 7461 1 109.50000 418.400000
746 13602 1795 1 109.50000 418.400000
746 13602 7462 1 109.50000 418.400000
746 13602 7463 1 109.50000 418.400000
1795 13602 7462 1 109.50000 418.400000
1795 13602 7463 1 109.50000 418.400000
7462 13602 7463 1 109.50000 418.400000
2547 13603 7464 1 109.50000 418.400000
2547 13603 7465 1 109.50000 418.400000
2547 13603 7466 1 109.50000 418.400000
7464 13603 7465 1 109.50000 418.400000
7464 13603 7466 1 109.50000 418.400000
7465 13603 7466 1 109.50000 418.400000
6687 13604 6925 1 109.50000 418.400000
6687 13604 7467 1 109.50000 418.400000
6687 13604 7468 1 109.50000 418.400000
6925 13604 7467 1 109.50000 418.400000
6925 13604 7468 1 109.50000 418.400000
7467 13604 7468 1 109.50000 418.400000
4091 13605 5277 1 109.50000 418.400000
4091 13605 6410 1 109.50000 418.400000
4091 13605 7469 1 109.50000 418.400000
5277 13605 6410 1 109.50000 418.400000
5277 13605 7469 1 109.50000 418.400000
6410 13605 7469 1 109.50000 418.400000
2562 13606 4229 1 109.50000 418.400000
2562 13606 5403 1 109.50000 418.400000
2562 13606 7471 1 109.50000 418.400000
4229 13606 5403 1 109.50000 418.400000
4229 13606 7471 1 109.50000 418.400000
5403 13606 7471 1 109.50000 418.400000
2821 13607 7084 1 109.50000 418.400000
2821 13607 7271 1 109.50000 418.400000
2821 13607 7473 1 109.50000 418.400000
7084 13607 7271 1 109.50000 418.400000
7084 13607 7473 1 109.50000 418.400000
7271 13607 7473 1 109.50000 418.400000
7474 13608 7475 1 109.50000 418.400000
7474 13608 7476 1 109.50000 418.400000
7474 13608 7477 1 109.50000 418.400000
7475 13608 7476 1 109.50000 418.400000
7475 13608 7477 1 109.50000 418.400000
7476 13608 7477 1 109.50000 418.400000
5753 13609 6327 1 109.50000 418.400000
5753 13609 6431 1 109.50000 418.400000
5753 13609 7478 1 109.50000 418.400000
6327 13609 6431 1 109.50000 418.400000
6327 13609 7478 1 109.50000 418.400000
6431 13609 7478 1 109.50000 418.400000
407 13610 3707 1 109.50000 418.400000
407 13610 7479 1 109.50000 418.400000
407 13610 7480 1 109.50000 418.400000
3707 13610 7479 1 109.50000 418.400000
3707 13610 7480 1 109.50000 418.400000
7479 13610 7480 1 109.50000 418.400000
4336 13611 7481 1 109.50000 418.400000
4336 13611 7482 1 109.50000 418.400000
4336 13611 7483 1 109.50000 418.400000
7481 13611 7482 1 109.50000 418.400000
7481 13611 7483 1 109.50000 418.400000
7482 13611 7483 1 109.50000 418.400000
4959 13612 5571 1 109.50000 418.400000
4959 13612 6191 1 109.50000 418.400000
4959 13612 7484 1 109.50000 418.400000
5571 13612 6191 1 109.50000 418.400000
5571 13612 7484 1 109.50000 418.400000
6191 13612 7484 1 109.50000 418.400000
3340 13613 7487 1 109.50000 418.400000
3340 13613 7488 1 109.50000 418.400000
3340 13613 7489 1 109.50000 418.400000
7487 13613 7488 1 109.50000 418.400000
7487 13613 7489 1 109.50000 418.400000
7488 13613 7489 1 109.50000 418.400000
651 13614 7490 1 109.50000 418.400000
651 13614 7491 1 109.50000 418.400000
651 13614 7492 1 109.50000 418.400000
7490 13614 7491 1 109.50000 418.400000
7490 13614 7492 1 109.50000 418.400000
7491 13614 7492 1 109.50000 418.400000
2541 13615 4791 1 109.50000 418.400000
2541 13615 7493 1 109.50000 418.400000
2541 13615 7494 1 109.50000 418.400000
4791 13615 7493 1 109.50000 418.400000
4791 13615 7494 1 109.50000 418.400000
7493 13615 7494 1 109.50000 418.400000
6447 13616 7143 1 109.50000 418.400000
6447 13616 7495 1 109.50000 418.400000
6447 13616 7496 1 109.50000 418.400000
7143 13616 7495 1 109.50000 418.400000
7143 13616 7496 1 109.50000 418.400000
7495 13616 7496 1 109.50000 418.400000
2746 13617 4785 1 109.50000 418.400000
2746 13617 7497 1 109.50000 418.400000
2746 13617 11370 1 109.50000 418.400000
4785 13617 7497 1 109.50000 418.400000
4785 13617 11370 1 109.50000 418.400000
7497 13617 11370 1 109.50000 418.400000
7498 13618 7499 1 109.50000 418.400000
7498 13618 7500 1 109.50000 418.400000
7498 13618 7501 1 109.50000 418.400000
7499 13618 7500 1 109.50000 418.400000
7499 13618 7501 1 109.50000 418.400000
7500 13618 7501 1 109.50000 418.400000
891 13619 7502 1 109.50000 418.400000
891 13619 7503 1 109.50000 418.400000
891 13619 7504 1 109.50000 418.400000
7502 13619 7503 1 109.50000 418.400000
7502 13619 7504 1 109.50000 418.400000
7503 13619 7504 1 109.50000 418.400000
582 13620 5033 1 109.50000 418.400000
582 13620 7505 1 109.50000 418.400000
582 13620 7506 1 109.50000 418.400000
5033 13620 7505 1 109.50000 418.400000
5033 13620 7506 1 109.50000 418.400000
7505 13620 7506 1 109.50000 418.400000
3566 13621 4178 1 109.50000 418.400000
3566 13621 7508 1 109.50000 418.400000
3566 13621 7509 1 109.50000 418.400000
4178 13621 7508 1 109.50000 418.400000
4178 13621 7509 1 109.50000 418.400000
7508 13621 7509 1 109.50000 418.400000
611 13622 6450 1 109.50000 418.400000
611 13622 7511 1 109.50000 418.400000
611 13622 7512 1 109.50000 418.400000
6450 13622 7511 1 109.50000 418.400000
6450 13622 7512 1 109.50000 418.400000
7511 13622 7512 1 109.50000 418.400000
250 13623 253 1 109.50000 418.400000
250 13623 7515 1 109.50000 418.400000
250 13623 8014 1 109.50000 418.400000
253 13623 7515 1 109.50000 418.400000
253 13623 8014 1 109.50000 418.400000
7515 13623 8014 1 109.50000 418.400000
2255 13624 7436 1 109.50000 418.400000
2255 13624 7516 1 109.50000 418.400000
2255 13624 7517 1 109.50000 418.400000
7436 13624 7516 1 109.50000 418.400000
7436 13624 7517 1 109.50000 418.400000
7516 13624 7517 1 109.50000 418.400000
3270 13625 6433 1 109.50000 418.400000
3270 13625 7518 1 109.50000 418.400000
3270 13625 7519 1 109.50000 418.400000
6433 13625 7518 1 109.50000 418.400000
6433 13625 7519 1 109.50000 418.400000
7518 13625 7519 1 109.50000 418.400000
1395 13626 7520 1 109.50000 418.400000
1395 13626 7521 1 109.50000 418.400000
1395 13626 10248 1 109.50000 418.400000
7520 13626 7521 1 109.50000 418.400000
7520 13626 10248 1 109.50000 418.400000
7521 13626 10248 1 109.50000 418.400000
5638 13627 7523 1 109.50000 418.400000
5638 13627 7524 1 109.50000 418.400000
5638 13627 7525 1 109.50000 418.400000
7523 13627 7524 1 109.50000 418.400000
7523 13627 7525 1 109.50000 418.400000
7524 13627 7525 1 109.50000 418.400000
5875 13628 6971 1 109.50000 418.400000
5875 13628 7526 1 109.50000 418.400000
5875 13628 7527 1 109.50000 418.400000
6971 13628 7526 1 109.50000 418.400000
6971 13628 7527 1 109.50000 418.400000
7526 13628 7527 1 109.50000 418.400000
3395 13629 7530 1 109.50000 418.400000
3395 13629 7531 1 109.50000 418.400000
3395 13629 7532 1 109.50000 418.400000
7530 13629 7531 1 109.50000 418.400000
7530 13629 7532 1 109.50000 418.400000
7531 13629 7532 1 109.50000 418.400000
2501 13630 4382 1 109.50000 418.400000
2501 13630 7533 1 109.50000 418.400000
2501 13630 7534 1 109.50000 418.400000
4382 13630 7533 1 109.50000 418.400000
4382 13630 7534 1 109.50000 418.400000
7533 13630 7534 1 109.50000 418.400000
509 13631 3755 1 109.50000 418.400000
509 13631 5782 1 109.50000 418.400000
509 13631 7535 1 109.50000 418.400000
3755 13631 5782 1 109.50000 418.400000
3755 13631 7535 1 109.50000 418.400000
5782 13631 7535 1 109.50000 418.400000
4482 13632 6977 1 109.50000 418.400000
4482 13632 7536 1 109.50000 418.400000
4482 13632 7537 1 109.50000 418.400000
6977 13632 7536 1 109.50000 418.400000
6977 13632 7537 1 109.50000 418.400000
7536 13632 7537 1 109.50000 418.400000
2580 13633 4724 1 109.50000 418.400000
2580 13633 6989 1 109.50000 418.400000
2580 13633 7538 1 109.50000 418.400000
4724 13633 6989 1 109.50000 418.400000
4724 13633 7538 1 109.50000 418.400000
6989 13633 7538 1 109.50000 418.400000
1266 13634 7497 1 109.50000 418.400000
1266 13634 7539 1 109.50000 418.400000
1266 13634 7540 1 109.50000 418.400000
7497 13634 7539 1 109.50000 418.400000
7497 13634 7540 1 109.50000 418.400000
7539 13634 7540 1 109.50000 418.400000
6965 13635 7541 1 109.50000 418.400000
6965 13635 7542 1 109.50000 418.400000
6965 13635 7543 1 109.50000 418.400000
7541 13635 7542 1 109.50000 418.400000
7541 13635 7543 1 109.50000 418.400000
7542 13635 7543 1 109.50000 418.400000
4488 13636 5114 1 109.50000 418.400000
4488 13636 6041 1 109.50000 418.400000
4488 13636 7544 1 109.50000 418.400000
5114 13636 6041 1 109.50000 418.400000
5114 13636 7544 1 109.50000 418.400000
6041 13636 7544 1 109.50000 418.400000
1585 13637 1636 1 109.50000 418.400000
1585 13637 7545 1 109.50000 418.400000
1585 13637 7546 1 109.50000 418.400000
1636 13637 7545 1 109.50000 418.400000
1636 13637 7546 1 109.50000 418.400000
7545 13637 7546 1 109.50000 418.400000
2467 13638 3774 1 109.50000 418.400000
2467 13638 5031 1 109.50000 418.400000
2467 13638 6952 1 109.50000 418.400000
3774 13638 5031 1 109.50000 418.400000
3774 13638 6952 1 109.50000 418.400000
5031 13638 6952 1 109.50000 418.400000
1239 13639 5907 1 109.50000 418.400000
1239 13639 6844 1 109.50000 418.400000
1239 13639 7547 1 109.50000 418.400000
5907 13639 6844 1 109.50000 418.400000
5907 13639 7547 1 109.50000 418.400000
6844 13639 7547 1 109.50000 418.400000
3495 13640 7548 1 109.50000 418.400000
3495 13640 7549 1 109.50000 418.400000
3495 13640 7550 1 109.50000 418.400000
7548 13640 7549 1 109.50000 418.400000
7548 13640 7550 1 109.50000 418.400000
7549 13640 7550 1 109.50000 418.400000
1702 13641 5775 1 109.50000 418.400000
1702 13641 7551 1 109.50000 418.400000
1702 13641 7552 1 109.50000 418.400000
5775 13641 7551 1 109.50000 418.400000
5775 13641 7552 1 109.50000 418.400000
7551 13641 7552 1 109.50000 418.400000
380 13642 3849 1 109.50000 418.400000
380 13642 7553 1 109.50000 418.400000
380 13642 7554 1 109.50000 418.400000
3849 13642 7553 1 109.50000 418.400000
3849 13642 7554 1 109.50000 418.400000
7553 13642 7554 1 109.50000 418.400000
132 13643 3087 1 109.50000 418.400000
132 13643 3247 1 109.50000 418.400000
132 13643 7555 1 109.50000 418.400000
3087 13643 3247 1 109.50000 418.400000
3087 13643 7555 1 109.50000 418.400000
3247 13643 7555 1 109.50000 418.400000
7483 13644 7556 1 109.50000 418.400000
7483 13644 7557 1 109.50000 418.400000
7483 13644 7558 1 109.50000 418.400000
7556 13644 7557 1 109.50000 418.400000
7556 13644 7558 1 109.50000 418.400000
7557 13644 7558 1 109.50000 418.400000
7560 13645 7561 1 109.50000 418.400000
7560 13645 7562 1 109.50000 418.400000
7560 13645 7563 1 109.50000 418.400000
7561 13645 7562 1 109.50000 418.400000
7561 13645 7563 1 109.50000 418.400000
7562 13645 7563 1 109.50000 418.400000
2759 13646 4407 1 109.50000 418.400000
2759 13646 7564 1 109.50000 418.400000
2759 13646 7565 1 109.50000 418.400000
4407 13646 7564 1 109.50000 418.400000
4407 13646 7565 1 109.50000 418.400000
7564 13646 7565 1 109.50000 418.400000
4915 13647 6716 1 109.50000 418.400000
4915 13647 7403 1 109.50000 418.400000
4915 13647 7566 1 109.50000 418.400000
6716 13647 7403 1 109.50000 418.400000
6716 13647 7566 1 109.50000 418.400000
7403 13647 7566 1 109.50000 418.400000
7128 13648 7567 1 109.50000 418.400000
7128 13648 7569 1 109.50000 418.400000
7128 13648 8469 1 109.50000 418.400000
7567 13648 7569 1 109.50000 418.400000
7567 13648 8469 1 109.50000 418.400000
7569 13648 8469 1 109.50000 418.400000
1341 13649 4199 1 109.50000 418.400000
1341 13649 7571 1 109.50000 418.400000
1341 13649 7572 1 109.50000 418.400000
4199 13649 7571 1 109.50000 418.400000
4199 13649 7572 1 109.50000 418.400000
7571 13649 7572 1 109.50000 418.400000
3803 13650 7573 1 109.50000 418.400000
3803 13650 7574 1 109.50000 418.400000
3803 13650 7575 1 109.50000 418.400000
7573 13650 7574 1 109.50000 418.400000
7573 13650 7575 1 109.50000 418.400000
7574 13650 7575 1 109.50000 418.400000
2018 13651 3322 1 109.50000 418.400000
2018 13651 4153 1 109.50000 418.400000
2018 13651 5236 1 109.50000 418.400000
3322 13651 4153 1 109.50000 418.400000
3322 13651 5236 1 109.50000 418.400000
4153 13651 5236 1 109.50000 418.400000
872 13652 3839 1 109.50000 418.400000
872 13652 6761 1 109.50000 418.400000
872 13652 6999 1 109.50000 418.400000
3839 13652 6761 1 109.50000 418.400000
3839 13652 6999 1 109.50000 418.400000
6761 13652 6999 1 109.50000 418.400000
1672 13653 4225 1 109.50000 418.400000
1672 13653 7576 1 109.50000 418.400000
1672 13653 7577 1 109.50000 418.400000
4225 13653 7576 1 109.50000 418.400000
4225 13653 7577 1 109.50000 418.400000
7576 13653 7577 1 109.50000 418.400000
805 13654 1374 1 109.50000 418.400000
805 13654 5787 1 109.50000 418.400000
805 13654 7578 1 109.50000 418.400000
1374 13654 5787 1 109.50000 418.400000
1374 13654 7578 1 109.50000 418.400000
5787 13654 7578 1 109.50000 418.400000
5646 13655 7579 1 109.50000 418.400000
5646 13655 7580 1 109.50000 418.400000
5646 13655 7581 1 109.50000 418.400000
7579 13655 7580 1 109.50000 418.400000
7579 13655 7581 1 109.50000 418.400000
7580 13655 7581 1 109.50000 418.400000
1404 13656 5350 1 109.50000 418.400000
1404 13656 7135 1 109.50000 418.400000
1404 13656 7582 1 109.50000 418.400000
5350 13656 7135 1 109.50000 418.400000
5350 13656 7582 1 109.50000 418.400000
7135 13656 7582 1 109.50000 418.400000
2089 13657 3391 1 109.50000 418.400000
2089 13657 6668 1 109.50000 418.400000
2089 13657 7583 1 109.50000 418.400000
3391 13657 6668 1 109.50000 418.400000
3391 13657 7583 1 109.50000 418.400000
6668 13657 7583 1 109.50000 418.400000
2368 13658 5086 1 109.50000 418.400000
2368 13658 7584 1 109.50000 418.400000
2368 13658 7585 1 109.50000 418.400000
5086 13658 7584 1 109.50000 418.400000
5086 13658 7585 1 109.50000 418.400000
7584 13658 7585 1 109.50000 418.400000
1422 13659 7189 1 109.50000 418.400000
1422 13659 7586 1 109.50000 418.400000
1422 13659 7587 1 109.50000 418.400000
7189 13659 7586 1 109.50000 418.400000
7189 13659 7587 1 109.50000 418.400000
7586 13659 7587 1 109.50000 418.400000
7351 13660 7588 1 109.50000 418.400000
7351 13660 7589 1 109.50000 418.400000
7351 13660 7590 1 109.50000 418.400000
7588 13660 7589 1 109.50000 418.400000
7588 13660 7590 1 109.50000 418.400000
7589 13660 7590 1 109.50000 418.400000
4752 13661 7591 1 109.50000 418.400000
4752 13661 7592 1 109.50000 418.400000
4752 13661 7593 1 109.50000 418.400000
7591 13661 7592 1 109.50000 418.400000
7591 13661 7593 1 109.50000 418.400000
7592 13661 7593 1 109.50000 418.400000
5621 13662 7594 1 109.50000 418.400000
5621 13662 7595 1 109.50000 418.400000
5621 13662 7596 1 109.50000 418.400000
7594 13662 7595 1 109.50000 418.400000
7594 13662 7596 1 109.50000 418.400000
7595 13662 7596 1 109.50000 418.400000
952 13663 2136 1 109.50000 418.400000
952 13663 7597 1 109.50000 418.400000
952 13663 7598 1 109.50000 418.400000
2136 13663 7597 1 109.50000 418.400000
2136 13663 7598 1 109.50000 418.400000
7597 13663 7598 1 109.50000 418.400000
6033 13664 6651 1 109.50000 418.400000
6033 13664 7599 1 109.50000 418.400000
6033 13664 7600 1 109.50000 418.400000
6651 13664 7599 1 109.50000 418.400000
6651 13664 7600 1 109.50000 418.400000
7599 13664 7600 1 109.50000 418.400000
189 13665 5291 1 109.50000 418.400000
189 13665 7601 1 109.50000 418.400000
189 13665 7602 1 109.50000 418.400000
5291 13665 7601 1 109.50000 418.400000
5291 13665 7602 1 109.50000 418.400000
7601 13665 7602 1 109.50000 418.400000
6164 13666 7604 1 109.50000 418.400000
6164 13666 7605 1 109.50000 418.400000
6164 13666 7606 1 109.50000 418.400000
7604 13666 7605 1 109.50000 418.400000
7604 13666 7606 1 109.50000 418.400000
7605 13666 7606 1 109.50000 418.400000
2862 13667 3173 1 109.50000 418.400000
2862 13667 4751 1 109.50000 418.400000
2862 13667 7607 1 109.50000 418.400000
3173 13667 4751 1 109.50000 418.400000
3173 13667 7607 1 109.50000 418.400000
4751 13667 7607 1 109.50000 418.400000
2739 13668 2933 1 109.50000 418.400000
2739 13668 7608 1 109.50000 418.400000
2739 13668 7609 1 109.50000 418.400000
2933 13668 7608 1 109.50000 418.400000
2933 13668 7609 1 109.50000 418.400000
7608 13668 7609 1 109.50000 418.400000
4005 13669 5367 1 109.50000 418.400000
4005 13669 7601 1 109.50000 418.400000
4005 13669 7610 1 109.50000 418.400000
5367 13669 7601 1 109.50000 418.400000
5367 13669 7610 1 109.50000 418.400000
7601 13669 7610 1 109.50000 418.400000
2875 13670 3329 1 109.50000 418.400000
2875 13670 3804 1 109.50000 418.400000
2875 13670 7611 1 109.50000 418.400000
3329 13670 3804 1 109.50000 418.400000
3329 13670 7611 1 109.50000 418.400000
3804 13670 7611 1 109.50000 418.400000
7613 13671 7614 1 109.50000 418.400000
7613 13671 10414 1 109.50000 418.400000
7613 13671 10513 1 109.50000 418.400000
7614 13671 10414 1 109.50000 418.400000
7614 13671 10513 1 109.50000 418.400000
10414 13671 10513 1 109.50000 418.400000
2093 13672 7615 1 109.50000 418.400000
2093 13672 7616 1 109.50000 418.400000
2093 13672 7617 1 109.50000 418.400000
7615 13672 7616 1 109.50000 418.400000
7615 13672 7617 1 109.50000 418.400000
7616 13672 7617 1 109.50000 418.400000
2726 13673 3699 1 109.50000 418.400000
2726 13673 6755 1 109.50000 418.400000
2726 13673 6943 1 109.50000 418.400000
3699 13673 6755 1 109.50000 418.400000
3699 13673 6943 1 109.50000 418.400000
6755 13673 6943 1 109.50000 418.400000
1401 13674 7618 1 109.50000 418.400000
1401 13674 7619 1 109.50000 418.400000
1401 13674 7620 1 109.50000 418.400000
7618 13674 7619 1 109.50000 418.400000
7618 13674 7620 1 109.50000 418.400000
7619 13674 7620 1 109.50000 418.400000
3446 13675 7621 1 109.50000 418.400000
3446 13675 7622 1 109.50000 418.400000
3446 13675 7623 1 109.50000 418.400000
7621 13675 7622 1 109.50000 418.400000
7621 13675 7623 1 109.50000 418.400000
7622 13675 7623 1 109.50000 418.400000
159 13676 7629 1 109.50000 418.400000
159 13676 7630 1 109.50000 418.400000
159 13676 7631 1 109.50000 418.400000
7629 13676 7630 1 109.50000 418.400000
7629 13676 7631 1 109.50000 418.400000
7630 13676 7631 1 109.50000 418.400000
7632 13677 7633 1 109.50000 418.400000
7632 13677 7634 1 109.50000 418.400000
7632 13677 7635 1 109.50000 418.400000
7633 13677 7634 1 109.50000 418.400000
7633 13677 7635 1 109.50000 418.400000
7634 13677 7635 1 109.50000 418.400000
5644 13678 7637 1 109.50000 418.400000
5644 13678 7638 1 109.50000 418.400000
5644 13678 7639 1 109.50000 418.400000
7637 13678 7638 1 109.50000 418.400000
7637 13678 7639 1 109.50000 418.400000
7638 13678 7639 1 109.50000 418.400000
6338 13679 7398 1 109.50000 418.400000
6338 13679 7640 1 109.50000 418.400000
6338 13679 7641 1 109.50000 418.400000
7398 13679 7640 1 109.50000 418.400000
7398 13679 7641 1 109.50000 418.400000
7640 13679 7641 1 109.50000 418.400000
5656 13680 5679 1 109.50000 418.400000
5656 13680 7642 1 109.50000 418.400000
5656 13680 7643 1 109.50000 418.400000
5679 13680 7642 1 109.50000 418.400000
5679 13680 7643 1 109.50000 418.400000
7642 13680 7643 1 109.50000 418.400000
6194 13681 7645 1 109.50000 418.400000
6194 13681 7646 1 109.50000 418.400000
6194 13681 10872 1 109.50000 418.400000
7645 13681 7646 1 109.50000 418.400000
7645 13681 10872 1 109.50000 418.400000
7646 13681 10872 1 109.50000 418.400000
1499 13682 3858 1 109.50000 418.400000
1499 13682 7647 1 109.50000 418.400000
1499 13682 7648 1 109.50000 418.400000
3858 13682 7647 1 109.50000 418.400000
3858 13682 7648 1 109.50000 418.400000
7647 13682 7648 1 109.50000 418.400000
1368 13683 4762 1 109.50000 418.400000
1368 13683 7649 1 109.50000 418.400000
1368 13683 7650 1 109.50000 418.400000
4762 13683 7649 1 109.50000 418.400000
4762 13683 7650 1 109.50000 418.400000
7649 13683 7650 1 109.50000 418.400000
5242 13684 7651 1 109.50000 418.400000
5242 13684 7652 1 109.50000 418.400000
5242 13684 7653 1 109.50000 418.400000
7651 13684 7652 1 109.50000 418.400000
7651 13684 7653 1 109.50000 418.400000
7652 13684 7653 1 109.50000 418.400000
353 13685 2357 1 109.50000 418.400000
353 13685 2976 1 109.50000 418.400000
353 13685 7654 1 109.50000 418.400000
2357 13685 2976 1 109.50000 418.400000
2357 13685 7654 1 109.50000 418.400000
2976 13685 7654 1 109.50000 418.400000
141 13686 693 1 109.50000 418.400000
141 13686 5601 1 109.50000 418.400000
141 13686 7656 1 109.50000 418.400000
693 13686 5601 1 109.50000 418.400000
693 13686 7656 1 109.50000 418.400000
5601 13686 7656 1 109.50000 418.400000
167 13687 4231 1 109.50000 418.400000
167 13687 4658 1 109.50000 418.400000
167 13687 7657 1 109.50000 418.400000
4231 13687 4658 1 109.50000 418.400000
4231 13687 7657 1 109.50000 418.400000
4658 13687 7657 1 109.50000 418.400000
3311 13688 3533 1 109.50000 418.400000
3311 13688 7659 1 109.50000 418.400000
3311 13688 7660 1 109.50000 418.400000
3533 13688 7659 1 109.50000 418.400000
3533 13688 7660 1 109.50000 418.400000
7659 13688 7660 1 109.50000 418.400000
5261 13689 7664 1 109.50000 418.400000
5261 13689 11244 1 109.50000 418.400000
5261 13689 11362 1 109.50000 418.400000
7664 13689 11244 1 109.50000 418.400000
7664 13689 11362 1 109.50000 418.400000
11244 13689 11362 1 109.50000 418.400000
2662 13690 5047 1 109.50000 418.400000
2662 13690 5115 1 109.50000 418.400000
2662 13690 7212 1 109.50000 418.400000
5047 13690 5115 1 109.50000 418.400000
5047 13690 7212 1 109.50000 418.400000
5115 13690 7212 1 109.50000 418.400000
6574 13691 7665 1 109.50000 418.400000
6574 13691 7666 1 109.50000 418.400000
6574 13691 11347 1 109.50000 418.400000
7665 13691 7666 1 109.50000 418.400000
7665 13691 11347 1 109.50000 418.400000
7666 13691 11347 1 109.50000 418.400000
1812 13692 4012 1 109.50000 418.400000
1812 13692 5247 1 109.50000 418.400000
1812 13692 7667 1 109.50000 418.400000
4012 13692 5247 1 109.50000 418.400000
4012 13692 7667 1 109.50000 418.400000
5247 13692 7667 1 109.50000 418.400000
495 13693 497 1 109.50000 418.400000
495 13693 6622 1 109.50000 418.400000
495 13693 7668 1 109.50000 418.400000
497 13693 6622 1 109.50000 418.400000
497 13693 7668 1 109.50000 418.400000
6622 13693 7668 1 109.50000 418.400000
5962 13694 5976 1 109.50000 418.400000
5962 13694 7671 1 109.50000 418.400000
5962 13694 9979 1 109.50000 418.400000
5976 13694 7671 1 109.50000 418.400000
5976 13694 9979 1 109.50000 418.400000
7671 13694 9979 1 109.50000 418.400000
3766 13695 4059 1 109.50000 418.400000
3766 13695 5711 1 109.50000 418.400000
3766 13695 7673 1 109.50000 418.400000
4059 13695 5711 1 109.50000 418.400000
4059 13695 7673 1 109.50000 418.400000
5711 13695 7673 1 109.50000 418.400000
5028 13696 5029 1 109.50000 418.400000
5028 13696 6323 1 109.50000 418.400000
5028 13696 7674 1 109.50000 418.400000
5029 13696 6323 1 109.50000 418.400000
5029 13696 7674 1 109.50000 418.400000
6323 13696 7674 1 109.50000 418.400000
684 13697 7675 1 109.50000 418.400000
684 13697 7676 1 109.50000 418.400000
684 13697 7677 1 109.50000 418.400000
7675 13697 7676 1 109.50000 418.400000
7675 13697 7677 1 109.50000 418.400000
7676 13697 7677 1 109.50000 418.400000
697 13698 7678 1 109.50000 418.400000
697 13698 7679 1 109.50000 418.400000
697 13698 7680 1 109.50000 418.400000
7678 13698 7679 1 109.50000 418.400000
7678 13698 7680 1 109.50000 418.400000
7679 13698 7680 1 109.50000 418.400000
725 13699 5429 1 109.50000 418.400000
725 13699 7681 1 109.50000 418.400000
725 13699 7682 1 109.50000 418.400000
5429 13699 7681 1 109.50000 418.400000
5429 13699 7682 1 109.50000 418.400000
7681 13699 7682 1 109.50000 418.400000
1550 13700 7683 1 109.50000 418.400000
1550 13700 7684 1 109.50000 418.400000
1550 13700 7685 1 109.50000 418.400000
7683 13700 7684 1 109.50000 418.400000
7683 13700 7685 1 109.50000 418.400000
7684 13700 7685 1 109.50000 418.400000
3634 13701 5303 1 109.50000 418.400000
3634 13701 5798 1 109.50000 418.400000
3634 13701 6580 1 109.50000 418.400000
5303 13701 5798 1 109.50000 418.400000
5303 13701 6580 1 109.50000 418.400000
5798 13701 6580 1 109.50000 418.400000
2858 13702 2861 1 109.50000 418.400000
2858 13702 7689 1 109.50000 418.400000
2858 13702 7690 1 109.50000 418.400000
2861 13702 7689 1 109.50000 418.400000
2861 13702 7690 1 109.50000 418.400000
7689 13702 7690 1 109.50000 418.400000
6215 13703 6696 1 109.50000 418.400000
6215 13703 7691 1 109.50000 418.400000
6215 13703 7692 1 109.50000 418.400000
6696 13703 7691 1 109.50000 418.400000
6696 13703 7692 1 109.50000 418.400000
7691 13703 7692 1 109.50000 418.400000
7694 13704 7695 1 109.50000 418.400000
7694 13704 7696 1 109.50000 418.400000
7694 13704 8801 1 109.50000 418.400000
7695 13704 7696 1 109.50000 418.400000
7695 13704 8801 1 109.50000 418.400000
7696 13704 8801 1 109.50000 418.400000
2966 13705 4196 1 109.50000 418.400000
2966 13705 7697 1 109.50000 418.400000
2966 13705 7698 1 109.50000 418.400000
4196 13705 7697 1 109.50000 418.400000
4196 13705 7698 1 109.50000 418.400000
7697 13705 7698 1 109.50000 418.400000
3261 13706 3618 1 109.50000 418.400000
3261 13706 7700 1 109.50000 418.400000
3261 13706 7701 1 109.50000 418.400000
3618 13706 7700 1 109.50000 418.400000
3618 13706 7701 1 109.50000 418.400000
7700 13706 7701 1 109.50000 418.400000
5199 13707 7479 1 109.50000 418.400000
5199 13707 7702 1 109.50000 418.400000
5199 13707 7703 1 109.50000 418.400000
7479 13707 7702 1 109.50000 418.400000
7479 13707 7703 1 109.50000 418.400000
7702 13707 7703 1 109.50000 418.400000
3097 13708 7054 1 109.50000 418.400000
3097 13708 7704 1 109.50000 418.400000
3097 13708 7705 1 109.50000 418.400000
7054 13708 7704 1 109.50000 418.400000
7054 13708 7705 1 109.50000 418.400000
7704 13708 7705 1 109.50000 418.400000
5575 13709 7491 1 109.50000 418.400000
5575 13709 7706 1 109.50000 418.400000
5575 13709 7707 1 109.50000 418.400000
7491 13709 7706 1 109.50000 418.400000
7491 13709 7707 1 109.50000 418.400000
7706 13709 7707 1 109.50000 418.400000
6443 13710 7708 1 109.50000 418.400000
6443 13710 7709 1 109.50000 418.400000
6443 13710 7710 1 109.50000 418.400000
7708 13710 7709 1 109.50000 418.400000
7708 13710 7710 1 109.50000 418.400000
7709 13710 7710 1 109.50000 418.400000
7711 13711 7712 1 109.50000 418.400000
7711 13711 9111 1 109.50000 418.400000
7711 13711 11305 1 109.50000 418.400000
7712 13711 9111 1 109.50000 418.400000
7712 13711 11305 1 109.50000 418.400000
9111 13711 11305 1 109.50000 418.400000
2772 13712 2773 1 109.50000 418.400000
2772 13712 7713 1 109.50000 418.400000
2772 13712 7714 1 109.50000 418.400000
2773 13712 7713 1 109.50000 418.400000
2773 13712 7714 1 109.50000 418.400000
7713 13712 7714 1 109.50000 418.400000
3008 13713 7715 1 109.50000 418.400000
3008 13713 7716 1 109.50000 418.400000
3008 13713 7717 1 109.50000 418.400000
7715 13713 7716 1 109.50000 418.400000
7715 13713 7717 1 109.50000 418.400000
7716 13713 7717 1 109.50000 418.400000
5712 13714 7718 1 109.50000 418.400000
5712 13714 7719 1 109.50000 418.400000
5712 13714 7720 1 109.50000 418.400000
7718 13714 7719 1 109.50000 418.400000
7718 13714 7720 1 109.50000 418.400000
7719 13714 7720 1 109.50000 418.400000
1836 13715 3065 1 109.50000 418.400000
1836 13715 7256 1 109.50000 418.400000
1836 13715 7721 1 109.50000 418.400000
3065 13715 7256 1 109.50000 418.400000
3065 13715 7721 1 109.50000 418.400000
7256 13715 7721 1 109.50000 418.400000
7722 13716 7723 1 109.50000 418.400000
7722 13716 7724 1 109.50000 418.400000
7722 13716 7725 1 109.50000 418.400000
7723 13716 7724 1 109.50000 418.400000
7723 13716 7725 1 109.50000 418.400000
7724 13716 7725 1 109.50000 418.400000
4362 13717 7726 1 109.50000 418.400000
4362 13717 7727 1 109.50000 418.400000
4362 13717 7728 1 109.50000 418.400000
7726 13717 7727 1 109.50000 418.400000
7726 13717 7728 1 109.50000 418.400000
7727 13717 7728 1 109.50000 418.400000
6028 13718 6051 1 109.50000 418.400000
6028 13718 7729 1 109.50000 418.400000
6028 13718 7730 1 109.50000 418.400000
6051 13718 7729 1 109.50000 418.400000
6051 13718 7730 1 109.50000 418.400000
7729 13718 7730 1 109.50000 418.400000
1437 13719 4166 1 109.50000 418.400000
1437 13719 6888 1 109.50000 418.400000
1437 13719 7731 1 109.50000 418.400000
4166 13719 6888 1 109.50000 418.400000
4166 13719 7731 1 109.50000 418.400000
6888 13719 7731 1 109.50000 418.400000
7732 13720 7733 1 109.50000 418.400000
7732 13720 7734 1 109.50000 418.400000
7732 13720 11142 1 109.50000 418.400000
7733 13720 7734 1 109.50000 418.400000
7733 13720 11142 1 109.50000 418.400000
7734 13720 11142 1 109.50000 418.400000
931 13721 7735 1 109.50000 418.400000
931 13721 7736 1 109.50000 418.400000
931 13721 7737 1 109.50000 418.400000
7735 13721 7736 1 109.50000 418.400000
7735 13721 7737 1 109.50000 418.400000
7736 13721 7737 1 109.50000 418.400000
6963 13722 6964 1 109.50000 418.400000
6963 13722 7738 1 109.50000 418.400000
6963 13722 7740 1 109.50000 418.400000
6964 13722 7738 1 109.50000 418.400000
6964 13722 7740 1 109.50000 418.400000
7738 13722 7740 1 109.50000 418.400000
7741 13723 7742 1 109.50000 418.400000
7741 13723 7743 1 109.50000 418.400000
7741 13723 7744 1 109.50000 418.400000
7742 13723 7743 1 109.50000 418.400000
7742 13723 7744 1 109.50000 418.400000
7743 13723 7744 1 109.50000 418.400000
1546 13724 1628 1 109.50000 418.400000
1546 13724 5328 1 109.50000 418.400000
1546 13724 7745 1 109.50000 418.400000
1628 13724 5328 1 109.50000 418.400000
1628 13724 7745 1 109.50000 418.400000
5328 13724 7745 1 109.50000 418.400000
7746 13725 7747 1 109.50000 418.400000
7746 13725 7748 1 109.50000 418.400000
7746 13725 7749 1 109.50000 418.400000
7747 13725 7748 1 109.50000 418.400000
7747 13725 7749 1 109.50000 418.400000
7748 13725 7749 1 109.50000 418.400000
131 13726 4197 1 109.50000 418.400000
131 13726 4376 1 109.50000 418.400000
131 13726 5918 1 109.50000 418.400000
4197 13726 4376 1 109.50000 418.400000
4197 13726 5918 1 109.50000 418.400000
4376 13726 5918 1 109.50000 418.400000
3403 13727 6023 1 109.50000 418.400000
3403 13727 7750 1 109.50000 418.400000
3403 13727 7751 1 109.50000 418.400000
6023 13727 7750 1 109.50000 418.400000
6023 13727 7751 1 109.50000 418.400000
7750 13727 7751 1 109.50000 418.400000
1952 13728 7752 1 109.50000 418.400000
1952 13728 7753 1 109.50000 418.400000
1952 13728 7754 1 109.50000 418.400000
7752 13728 7753 1 109.50000 418.400000
7752 13728 7754 1 109.50000 418.400000
7753 13728 7754 1 109.50000 418.400000
3698 13729 7755 1 109.50000 418.400000
3698 13729 7756 1 109.50000 418.400000
3698 13729 7757 1 109.50000 418.400000
7755 13729 7756 1 109.50000 418.400000
7755 13729 7757 1 109.50000 418.400000
7756 13729 7757 1 109.50000 418.400000
1507 13730 4319 1 109.50000 418.400000
1507 13730 4320 1 109.50000 418.400000
1507 13730 7758 1 109.50000 418.400000
4319 13730 4320 1 109.50000 418.400000
4319 13730 7758 1 109.50000 418.400000
4320 13730 7758 1 109.50000 418.400000
5010 13731 5011 1 109.50000 418.400000
5010 13731 6789 1 109.50000 418.400000
5010 13731 7760 1 109.50000 418.400000
5011 13731 6789 1 109.50000 418.400000
5011 13731 7760 1 109.50000 418.400000
6789 13731 7760 1 109.50000 418.400000
657 13732 1619 1 109.50000 418.400000
657 13732 1620 1 109.50000 418.400000
657 13732 4846 1 109.50000 418.400000
1619 13732 1620 1 109.50000 418.400000
1619 13732 4846 1 109.50000 418.400000
1620 13732 4846 1 109.50000 418.400000
4933 13733 7762 1 109.50000 418.400000
4933 13733 7764 1 109.50000 418.400000
4933 13733 8150 1 109.50000 418.400000
7762 13733 7764 1 109.50000 418.400000
7762 13733 8150 1 109.50000 418.400000
7764 13733 8150 1 109.50000 418.400000
1609 13734 1612 1 109.50000 418.400000
1609 13734 7766 1 109.50000 418.400000
1609 13734 7767 1 109.50000 418.400000
1612 13734 7766 1 109.50000 418.400000
1612 13734 7767 1 109.50000 418.400000
7766 13734 7767 1 109.50000 418.400000
1570 13735 3969 1 109.50000 418.400000
1570 13735 7367 1 109.50000 418.400000
1570 13735 7768 1 109.50000 418.400000
3969 13735 7367 1 109.50000 418.400000
3969 13735 7768 1 109.50000 418.400000
7367 13735 7768 1 109.50000 418.400000
4592 13736 7771 1 109.50000 418.400000
4592 13736 7772 1 109.50000 418.400000
4592 13736 7773 1 109.50000 418.400000
7771 13736 7772 1 109.50000 418.400000
7771 13736 7773 1 109.50000 418.400000
7772 13736 7773 1 109.50000 418.400000
1066 13737 6957 1 109.50000 418.400000
1066 13737 7775 1 109.50000 418.400000
1066 13737 7776 1 109.50000 418.400000
6957 13737 7775 1 109.50000 418.400000
6957 13737 7776 1 109.50000 418.400000
7775 13737 7776 1 109.50000 418.400000
3953 13738 4260 1 109.50000 418.400000
3953 13738 5193 1 109.50000 418.400000
3953 13738 7777 1 109.50000 418.400000
4260 13738 5193 1 109.50000 418.400000
4260 13738 7777 1 109.50000 418.400000
5193 13738 7777 1 109.50000 418.400000
2267 13739 6592 1 109.50000 418.400000
2267 13739 7778 1 109.50000 418.400000
2267 13739 7779 1 109.50000 418.400000
6592 13739 7778 1 109.50000 418.400000
6592 13739 7779 1 109.50000 418.400000
7778 13739 7779 1 109.50000 418.400000
7326 13740 7328 1 109.50000 418.400000
7326 13740 7780 1 109.50000 418.400000
7326 13740 7782 1 109.50000 418.400000
7328 13740 7780 1 109.50000 418.400000
7328 13740 7782 1 109.50000 418.400000
7780 13740 7782 1 109.50000 418.400000
2243 13741 7169 1 109.50000 418.400000
2243 13741 7786 1 109.50000 418.400000
2243 13741 7787 1 109.50000 418.400000
7169 13741 7786 1 109.50000 418.400000
7169 13741 7787 1 109.50000 418.400000
7786 13741 7787 1 109.50000 418.400000
7492 13742 7788 1 109.50000 418.400000
7492 13742 7789 1 109.50000 418.400000
7492 13742 7790 1 109.50000 418.400000
7788 13742 7789 1 109.50000 418.400000
7788 13742 7790 1 109.50000 418.400000
7789 13742 7790 1 109.50000 418.400000
5518 13743 6024 1 109.50000 418.400000
5518 13743 6652 1 109.50000 418.400000
5518 13743 7791 1 109.50000 418.400000
6024 13743 6652 1 109.50000 418.400000
6024 13743 7791 1 109.50000 418.400000
6652 13743 7791 1 109.50000 418.400000
4797 13744 6583 1 109.50000 418.400000
4797 13744 7453 1 109.50000 418.400000
4797 13744 7792 1 109.50000 418.400000
6583 13744 7453 1 109.50000 418.400000
6583 13744 7792 1 109.50000 418.400000
7453 13744 7792 1 109.50000 418.400000
6986 13745 7793 1 109.50000 418.400000
6986 13745 7794 1 109.50000 418.400000
6986 13745 7795 1 109.50000 418.400000
7793 13745 7794 1 109.50000 418.400000
7793 13745 7795 1 109.50000 418.400000
7794 13745 7795 1 109.50000 418.400000
4926 13746 5934 1 109.50000 418.400000
4926 13746 7796 1 109.50000 418.400000
4926 13746 7797 1 109.50000 418.400000
5934 13746 7796 1 109.50000 418.400000
5934 13746 7797 1 109.50000 418.400000
7796 13746 7797 1 109.50000 418.400000
1590 13747 4048 1 109.50000 418.400000
1590 13747 6551 1 109.50000 418.400000
1590 13747 6552 1 109.50000 418.400000
4048 13747 6551 1 109.50000 418.400000
4048 13747 6552 1 109.50000 418.400000
6551 13747 6552 1 109.50000 418.400000
5881 13748 7186 1 109.50000 418.400000
5881 13748 7798 1 109.50000 418.400000
5881 13748 7799 1 109.50000 418.400000
7186 13748 7798 1 109.50000 418.400000
7186 13748 7799 1 109.50000 418.400000
7798 13748 7799 1 109.50000 418.400000
2315 13749 6753 1 109.50000 418.400000
2315 13749 7801 1 109.50000 418.400000
2315 13749 7802 1 109.50000 418.400000
6753 13749 7801 1 109.50000 418.400000
6753 13749 7802 1 109.50000 418.400000
7801 13749 7802 1 109.50000 418.400000
4883 13750 5535 1 109.50000 418.400000
4883 13750 7178 1 109.50000 418.400000
4883 13750 7803 1 109.50000 418.400000
5535 13750 7178 1 109.50000 418.400000
5535 13750 7803 1 109.50000 418.400000
7178 13750 7803 1 109.50000 418.400000
1268 13751 1335 1 109.50000 418.400000
1268 13751 4324 1 109.50000 418.400000
1268 13751 7804 1 109.50000 418.400000
1335 13751 4324 1 109.50000 418.400000
1335 13751 7804 1 109.50000 418.400000
4324 13751 7804 1 109.50000 418.400000
5121 13752 5486 1 109.50000 418.400000
5121 13752 5774 1 109.50000 418.400000
5121 13752 7807 1 109.50000 418.400000
5486 13752 5774 1 109.50000 418.400000
5486 13752 7807 1 109.50000 418.400000
5774 13752 7807 1 109.50000 418.400000
7808 13753 7809 1 109.50000 418.400000
7808 13753 7810 1 109.50000 418.400000
7808 13753 7811 1 109.50000 418.400000
7809 13753 7810 1 109.50000 418.400000
7809 13753 7811 1 109.50000 418.400000
7810 13753 7811 1 109.50000 418.400000
93 13754 4873 1 109.50000 418.400000
93 13754 7814 1 109.50000 418.400000
93 13754 7815 1 109.50000 418.400000
4873 13754 7814 1 109.50000 418.400000
4873 13754 7815 1 109.50000 418.400000
7814 13754 7815 1 109.50000 418.400000
899 13755 933 1 109.50000 418.400000
899 13755 7816 1 109.50000 418.400000
899 13755 7817 1 109.50000 418.400000
933 13755 7816 1 109.50000 418.400000
933 13755 7817 1 109.50000 418.400000
7816 13755 7817 1 109.50000 418.400000
3629 13756 3630 1 109.50000 418.400000
3629 13756 6010 1 109.50000 418.400000
3629 13756 6662 1 109.50000 418.400000
3630 13756 6010 1 109.50000 418.400000
3630 13756 6662 1 109.50000 418.400000
6010 13756 6662 1 109.50000 418.400000
3554 13757 5002 1 109.50000 418.400000
3554 13757 7821 1 109.50000 418.400000
3554 13757 7822 1 109.50000 418.400000
5002 13757 7821 1 109.50000 418.400000
5002 13757 7822 1 109.50000 418.400000
7821 13757 7822 1 109.50000 418.400000
7565 13758 7823 1 109.50000 418.400000
7565 13758 7824 1 109.50000 418.400000
7565 13758 7825 1 109.50000 418.400000
7823 13758 7824 1 109.50000 418.400000
7823 13758 7825 1 109.50000 418.400000
7824 13758 7825 1 109.50000 418.400000
1552 13759 4783 1 109.50000 418.400000
1552 13759 7103 1 109.50000 418.400000
1552 13759 7590 1 109.50000 418.400000
4783 13759 7103 1 109.50000 418.400000
4783 13759 7590 1 109.50000 418.400000
7103 13759 7590 1 109.50000 418.400000
5780 13760 6084 1 109.50000 418.400000
5780 13760 7826 1 109.50000 418.400000
5780 13760 7827 1 109.50000 418.400000
6084 13760 7826 1 109.50000 418.400000
6084 13760 7827 1 109.50000 418.400000
7826 13760 7827 1 109.50000 418.400000
1913 13761 5958 1 109.50000 418.400000
1913 13761 7828 1 109.50000 418.400000
1913 13761 7829 1 109.50000 418.400000
5958 13761 7828 1 109.50000 418.400000
5958 13761 7829 1 109.50000 418.400000
7828 13761 7829 1 109.50000 418.400000
3943 13762 7386 1 109.50000 418.400000
3943 13762 7830 1 109.50000 418.400000
3943 13762 7831 1 109.50000 418.400000
7386 13762 7830 1 109.50000 418.400000
7386 13762 7831 1 109.50000 418.400000
7830 13762 7831 1 109.50000 418.400000
187 13763 5144 1 109.50000 418.400000
187 13763 7650 1 109.50000 418.400000
187 13763 7833 1 109.50000 418.400000
5144 13763 7650 1 109.50000 418.400000
5144 13763 7833 1 109.50000 418.400000
7650 13763 7833 1 109.50000 418.400000
1663 13764 7834 1 109.50000 418.400000
1663 13764 7835 1 109.50000 418.400000
1663 13764 7836 1 109.50000 418.400000
7834 13764 7835 1 109.50000 418.400000
7834 13764 7836 1 109.50000 418.400000
7835 13764 7836 1 109.50000 418.400000
1276 13765 1995 1 109.50000 418.400000
1276 13765 7837 1 109.50000 418.400000
1276 13765 7838 1 109.50000 418.400000
1995 13765 7837 1 109.50000 418.400000
1995 13765 7838 1 109.50000 418.400000
7837 13765 7838 1 109.50000 418.400000
3817 13766 5383 1 109.50000 418.400000
3817 13766 7173 1 109.50000 418.400000
3817 13766 7839 1 109.50000 418.400000
5383 13766 7173 1 109.50000 418.400000
5383 13766 7839 1 109.50000 418.400000
7173 13766 7839 1 109.50000 418.400000
2224 13767 2377 1 109.50000 418.400000
2224 13767 7840 1 109.50000 418.400000
2224 13767 7841 1 109.50000 418.400000
2377 13767 7840 1 109.50000 418.400000
2377 13767 7841 1 109.50000 418.400000
7840 13767 7841 1 109.50000 418.400000
1117 13768 1510 1 109.50000 418.400000
1117 13768 7846 1 109.50000 418.400000
1117 13768 7847 1 109.50000 418.400000
1510 13768 7846 1 109.50000 418.400000
1510 13768 7847 1 109.50000 418.400000
7846 13768 7847 1 109.50000 418.400000
6537 13769 7847 1 109.50000 418.400000
6537 13769 7848 1 109.50000 418.400000
6537 13769 7849 1 109.50000 418.400000
7847 13769 7848 1 109.50000 418.400000
7847 13769 7849 1 109.50000 418.400000
7848 13769 7849 1 109.50000 418.400000
2304 13770 7850 1 109.50000 418.400000
2304 13770 7852 1 109.50000 418.400000
2304 13770 9974 1 109.50000 418.400000
7850 13770 7852 1 109.50000 418.400000
7850 13770 9974 1 109.50000 418.400000
7852 13770 9974 1 109.50000 418.400000
3962 13771 6311 1 109.50000 418.400000
3962 13771 6851 1 109.50000 418.400000
3962 13771 7853 1 109.50000 418.400000
6311 13771 6851 1 109.50000 418.400000
6311 13771 7853 1 109.50000 418.400000
6851 13771 7853 1 109.50000 418.400000
1874 13772 3984 1 109.50000 418.400000
1874 13772 7854 1 109.50000 418.400000
1874 13772 7855 1 109.50000 418.400000
3984 13772 7854 1 109.50000 418.400000
3984 13772 7855 1 109.50000 418.400000
7854 13772 7855 1 109.50000 418.400000
7162 13773 7856 1 109.50000 418.400000
7162 13773 7857 1 109.50000 418.400000
7162 13773 7858 1 109.50000 418.400000
7856 13773 7857 1 109.50000 418.400000
7856 13773 7858 1 109.50000 418.400000
7857 13773 7858 1 109.50000 418.400000
3425 13774 7859 1 109.50000 418.400000
3425 13774 11159 1 109.50000 418.400000
3425 13774 11217 1 109.50000 418.400000
7859 13774 11159 1 109.50000 418.400000
7859 13774 11217 1 109.50000 418.400000
11159 13774 11217 1 109.50000 418.400000
5416 13775 6547 1 109.50000 418.400000
5416 13775 7860 1 109.50000 418.400000
5416 13775 7861 1 109.50000 418.400000
6547 13775 7860 1 109.50000 418.400000
6547 13775 7861 1 109.50000 418.400000
7860 13775 7861 1 109.50000 418.400000
3191 13776 7862 1 109.50000 418.400000
3191 13776 7863 1 109.50000 418.400000
3191 13776 7864 1 109.50000 418.400000
7862 13776 7863 1 109.50000 418.400000
7862 13776 7864 1 109.50000 418.400000
7863 13776 7864 1 109.50000 418.400000
7865 13777 7866 1 109.50000 418.400000
7865 13777 7867 1 109.50000 418.400000
7865 13777 7868 1 109.50000 418.400000
7866 13777 7867 1 109.50000 418.400000
7866 13777 7868 1 109.50000 418.400000
7867 13777 7868 1 109.50000 418.400000
3344 13778 3561 1 109.50000 418.400000
3344 13778 5630 1 109.50000 418.400000
3344 13778 5871 1 109.50000 418.400000
3561 13778 5630 1 109.50000 418.400000
3561 13778 5871 1 109.50000 418.400000
5630 13778 5871 1 109.50000 418.400000
4483 13779 7201 1 109.50000 418.400000
4483 13779 7869 1 109.50000 418.400000
4483 13779 7870 1 109.50000 418.400000
7201 13779 7869 1 109.50000 418.400000
7201 13779 7870 1 109.50000 418.400000
7869 13779 7870 1 109.50000 418.400000
2576 13780 5052 1 109.50000 418.400000
2576 13780 7871 1 109.50000 418.400000
2576 13780 7872 1 109.50000 418.400000
5052 13780 7871 1 109.50000 418.400000
5052 13780 7872 1 109.50000 418.400000
7871 13780 7872 1 109.50000 418.400000
5604 13781 6277 1 109.50000 418.400000
5604 13781 7873 1 109.50000 418.400000
5604 13781 7874 1 109.50000 418.400000
6277 13781 7873 1 109.50000 418.400000
6277 13781 7874 1 109.50000 418.400000
7873 13781 7874 1 109.50000 418.400000
4213 13782 7875 1 109.50000 418.400000
4213 13782 7876 1 109.50000 418.400000
4213 13782 7877 1 109.50000 418.400000
7875 13782 7876 1 109.50000 418.400000
7875 13782 7877 1 109.50000 418.400000
7876 13782 7877 1 109.50000 418.400000
6121 13783 7878 1 109.50000 418.400000
6121 13783 7879 1 109.50000 418.400000
6121 13783 7880 1 109.50000 418.400000
7878 13783 7879 1 109.50000 418.400000
7878 13783 7880 1 109.50000 418.400000
7879 13783 7880 1 109.50000 418.400000
3938 13784 5903 1 109.50000 418.400000
3938 13784 7881 1 109.50000 418.400000
3938 13784 7882 1 109.50000 418.400000
5903 13784 7881 1 109.50000 418.400000
5903 13784 7882 1 109.50000 418.400000
7881 13784 7882 1 109.50000 418.400000
5210 13785 7883 1 109.50000 418.400000
5210 13785 7884 1 109.50000 418.400000
5210 13785 7885 1 109.50000 418.400000
7883 13785 7884 1 109.50000 418.400000
7883 13785 7885 1 109.50000 418.400000
7884 13785 7885 1 109.50000 418.400000
1765 13786 7886 1 109.50000 418.400000
1765 13786 7887 1 109.50000 418.400000
1765 13786 7888 1 109.50000 418.400000
7886 13786 7887 1 109.50000 418.400000
7886 13786 7888 1 109.50000 418.400000
7887 13786 7888 1 109.50000 418.400000
6003 13787 7889 1 109.50000 418.400000
6003 13787 7890 1 109.50000 418.400000
6003 13787 7891 1 109.50000 418.400000
7889 13787 7890 1 109.50000 418.400000
7889 13787 7891 1 109.50000 418.400000
7890 13787 7891 1 109.50000 418.400000
5335 13788 7892 1 109.50000 418.400000
5335 13788 7893 1 109.50000 418.400000
5335 13788 7894 1 109.50000 418.400000
7892 13788 7893 1 109.50000 418.400000
7892 13788 7894 1 109.50000 418.400000
7893 13788 7894 1 109.50000 418.400000
6750 13789 7895 1 109.50000 418.400000
6750 13789 7896 1 109.50000 418.400000
6750 13789 7897 1 109.50000 418.400000
7895 13789 7896 1 109.50000 418.400000
7895 13789 7897 1 109.50000 418.400000
7896 13789 7897 1 109.50000 418.400000
1185 13790 7898 1 109.50000 418.400000
1185 13790 7899 1 109.50000 418.400000
1185 13790 7900 1 109.50000 418.400000
7898 13790 7899 1 109.50000 418.400000
7898 13790 7900 1 109.50000 418.400000
7899 13790 7900 1 109.50000 418.400000
82 13791 2642 1 109.50000 418.400000
82 13791 5387 1 109.50000 418.400000
82 13791 7901 1 109.50000 418.400000
2642 13791 5387 1 109.50000 418.400000
2642 13791 7901 1 109.50000 418.400000
5387 13791 7901 1 109.50000 418.400000
16 13792 3166 1 109.50000 418.400000
16 13792 7902 1 109.50000 418.400000
16 13792 7903 1 109.50000 418.400000
3166 13792 7902 1 109.50000 418.400000
3166 13792 7903 1 109.50000 418.400000
7902 13792 7903 1 109.50000 418.400000
1604 13793 4907 1 109.50000 418.400000
1604 13793 7904 1 109.50000 418.400000
1604 13793 7905 1 109.50000 418.400000
4907 13793 7904 1 109.50000 418.400000
4907 13793 7905 1 109.50000 418.400000
7904 13793 7905 1 109.50000 418.400000
2332 13794 2906 1 109.50000 418.400000
2332 13794 7662 1 109.50000 418.400000
2332 13794 7844 1 109.50000 418.400000
2906 13794 7662 1 109.50000 418.400000
2906 13794 7844 1 109.50000 418.400000
7662 13794 7844 1 109.50000 418.400000
1457 13795 6788 1 109.50000 418.400000
1457 13795 7906 1 109.50000 418.400000
1457 13795 7907 1 109.50000 418.400000
6788 13795 7906 1 109.50000 418.400000
6788 13795 7907 1 109.50000 418.400000
7906 13795 7907 1 109.50000 418.400000
2299 13796 7136 1 109.50000 418.400000
2299 13796 7909 1 109.50000 418.400000
2299 13796 7910 1 109.50000 418.400000
7136 13796 7909 1 109.50000 418.400000
7136 13796 7910 1 109.50000 418.400000
7909 13796 7910 1 109.50000 418.400000
3260 13797 3510 1 109.50000 418.400000
3260 13797 7911 1 109.50000 418.400000
3260 13797 7912 1 109.50000 418.400000
3510 13797 7911 1 109.50000 418.400000
3510 13797 7912 1 109.50000 418.400000
7911 13797 7912 1 109.50000 418.400000
7855 13798 7913 1 109.50000 418.400000
7855 13798 7914 1 109.50000 418.400000
7855 13798 7915 1 109.50000 418.400000
7913 13798 7914 1 109.50000 418.400000
7913 13798 7915 1 109.50000 418.400000
7914 13798 7915 1 109.50000 418.400000
3098 13799 5528 1 109.50000 418.400000
3098 13799 7916 1 109.50000 418.400000
3098 13799 7917 1 109.50000 418.400000
5528 13799 7916 1 109.50000 418.400000
5528 13799 7917 1 109.50000 418.400000
7916 13799 7917 1 109.50000 418.400000
7426 13800 7918 1 109.50000 418.400000
7426 13800 7919 1 109.50000 418.400000
7426 13800 7920 1 109.50000 418.400000
7918 13800 7919 1 109.50000 418.400000
7918 13800 7920 1 109.50000 418.400000
7919 13800 7920 1 109.50000 418.400000
4280 13801 7547 1 109.50000 418.400000
4280 13801 7921 1 109.50000 418.400000
4280 13801 7922 1 109.50000 418.400000
7547 13801 7921 1 109.50000 418.400000
7547 13801 7922 1 109.50000 418.400000
7921 13801 7922 1 109.50000 418.400000
257 13802 7923 1 109.50000 418.400000
257 13802 7924 1 109.50000 418.400000
257 13802 7925 1 109.50000 418.400000
7923 13802 7924 1 109.50000 418.400000
7923 13802 7925 1 109.50000 418.400000
7924 13802 7925 1 109.50000 418.400000
1363 13803 2281 1 109.50000 418.400000
1363 13803 4705 1 109.50000 418.400000
1363 13803 7926 1 109.50000 418.400000
2281 13803 4705 1 109.50000 418.400000
2281 13803 7926 1 109.50000 418.400000
4705 13803 7926 1 109.50000 418.400000
2158 13804 4629 1 109.50000 418.400000
2158 13804 7927 1 109.50000 418.400000
2158 13804 7928 1 109.50000 418.400000
4629 13804 7927 1 109.50000 418.400000
4629 13804 7928 1 109.50000 418.400000
7927 13804 7928 1 109.50000 418.400000
625 13805 7929 1 109.50000 418.400000
625 13805 7930 1 109.50000 418.400000
625 13805 7931 1 109.50000 418.400000
7929 13805 7930 1 109.50000 418.400000
7929 13805 7931 1 109.50000 418.400000
7930 13805 7931 1 109.50000 418.400000
3298 13806 7934 1 109.50000 418.400000
3298 13806 7935 1 109.50000 418.400000
3298 13806 7936 1 109.50000 418.400000
7934 13806 7935 1 109.50000 418.400000
7934 13806 7936 1 109.50000 418.400000
7935 13806 7936 1 109.50000 418.400000
7894 13807 7937 1 109.50000 418.400000
7894 13807 7938 1 109.50000 418.400000
7894 13807 7939 1 109.50000 418.400000
7937 13807 7938 1 109.50000 418.400000
7937 13807 7939 1 109.50000 418.400000
7938 13807 7939 1 109.50000 418.400000
1194 13808 5094 1 109.50000 418.400000
1194 13808 7940 1 109.50000 418.400000
1194 13808 7941 1 109.50000 418.400000
5094 13808 7940 1 109.50000 418.400000
5094 13808 7941 1 109.50000 418.400000
7940 13808 7941 1 109.50000 418.400000
4634 13809 7516 1 109.50000 418.400000
4634 13809 7777 1 109.50000 418.400000
4634 13809 7942 1 109.50000 418.400000
7516 13809 7777 1 109.50000 418.400000
7516 13809 7942 1 109.50000 418.400000
7777 13809 7942 1 109.50000 418.400000
3511 13810 7239 1 109.50000 418.400000
3511 13810 7943 1 109.50000 418.400000
3511 13810 7944 1 109.50000 418.400000
7239 13810 7943 1 109.50000 418.400000
7239 13810 7944 1 109.50000 418.400000
7943 13810 7944 1 109.50000 418.400000
4708 13811 7946 1 109.50000 418.400000
4708 13811 7947 1 109.50000 418.400000
4708 13811 7948 1 109.50000 418.400000
7946 13811 7947 1 109.50000 418.400000
7946 13811 7948 1 109.50000 418.400000
7947 13811 7948 1 109.50000 418.400000
630 13812 2815 1 109.50000 418.400000
630 13812 2817 1 109.50000 418.400000
630 13812 7949 1 109.50000 418.400000
2815 13812 2817 1 109.50000 418.400000
2815 13812 7949 1 109.50000 418.400000
2817 13812 7949 1 109.50000 418.400000
5820 13813 6461 1 109.50000 418.400000
5820 13813 6611 1 109.50000 418.400000
5820 13813 7950 1 109.50000 418.400000
6461 13813 6611 1 109.50000 418.400000
6461 13813 7950 1 109.50000 418.400000
6611 13813 7950 1 109.50000 418.400000
6402 13814 7951 1 109.50000 418.400000
6402 13814 7952 1 109.50000 418.400000
6402 13814 7953 1 109.50000 418.400000
7951 13814 7952 1 109.50000 418.400000
7951 13814 7953 1 109.50000 418.400000
7952 13814 7953 1 109.50000 418.400000
3351 13815 5490 1 109.50000 418.400000
3351 13815 5593 1 109.50000 418.400000
3351 13815 7954 1 109.50000 418.400000
5490 13815 5593 1 109.50000 418.400000
5490 13815 7954 1 109.50000 418.400000
5593 13815 7954 1 109.50000 418.400000
2117 13816 2118 1 109.50000 418.400000
2117 13816 5311 1 109.50000 418.400000
2117 13816 7955 1 109.50000 418.400000
2118 13816 5311 1 109.50000 418.400000
2118 13816 7955 1 109.50000 418.400000
5311 13816 7955 1 109.50000 418.400000
5140 13817 7957 1 109.50000 418.400000
5140 13817 7958 1 109.50000 418.400000
5140 13817 7959 1 109.50000 418.400000
7957 13817 7958 1 109.50000 418.400000
7957 13817 7959 1 109.50000 418.400000
7958 13817 7959 1 109.50000 418.400000
2205 13818 4171 1 109.50000 418.400000
2205 13818 7960 1 109.50000 418.400000
2205 13818 7961 1 109.50000 418.400000
4171 13818 7960 1 109.50000 418.400000
4171 13818 7961 1 109.50000 418.400000
7960 13818 7961 1 109.50000 418.400000
71 13819 777 1 109.50000 418.400000
71 13819 778 1 109.50000 418.400000
71 13819 7962 1 109.50000 418.400000
777 13819 778 1 109.50000 418.400000
777 13819 7962 1 109.50000 418.400000
778 13819 7962 1 109.50000 418.400000
7963 13820 7964 1 109.50000 418.400000
7963 13820 7965 1 109.50000 418.400000
7963 13820 7966 1 109.50000 418.400000
7964 13820 7965 1 109.50000 418.400000
7964 13820 7966 1 109.50000 418.400000
7965 13820 7966 1 109.50000 418.400000
5369 13821 6800 1 109.50000 418.400000
5369 13821 7967 1 109.50000 418.400000
5369 13821 7968 1 109.50000 418.400000
6800 13821 7967 1 109.50000 418.400000
6800 13821 7968 1 109.50000 418.400000
7967 13821 7968 1 109.50000 418.400000
2713 13822 4084 1 109.50000 418.400000
2713 13822 4135 1 109.50000 418.400000
2713 13822 5120 1 109.50000 418.400000
4084 13822 4135 1 109.50000 418.400000
4084 13822 5120 1 109.50000 418.400000
4135 13822 5120 1 109.50000 418.400000
3165 13823 7969 1 109.50000 418.400000
3165 13823 7970 1 109.50000 418.400000
3165 13823 7971 1 109.50000 418.400000
7969 13823 7970 1 109.50000 418.400000
7969 13823 7971 1 109.50000 418.400000
7970 13823 7971 1 109.50000 418.400000
1673 13824 4295 1 109.50000 418.400000
1673 13824 7974 1 109.50000 418.400000
1673 13824 9837 1 109.50000 418.400000
4295 13824 7974 1 109.50000 418.400000
4295 13824 9837 1 109.50000 418.400000
7974 13824 9837 1 109.50000 418.400000
5023 13825 7208 1 109.50000 418.400000
5023 13825 7975 1 109.50000 418.400000
5023 13825 7976 1 109.50000 418.400000
7208 13825 7975 1 109.50000 418.400000
7208 13825 7976 1 109.50000 418.400000
7975 13825 7976 1 109.50000 418.400000
3202 13826 3666 1 109.50000 418.400000
3202 13826 7870 1 109.50000 418.400000
3202 13826 7977 1 109.50000 418.400000
3666 13826 7870 1 109.50000 418.400000
3666 13826 7977 1 109.50000 418.400000
7870 13826 7977 1 109.50000 418.400000
3595 13827 7978 1 109.50000 418.400000
3595 13827 7979 1 109.50000 418.400000
3595 13827 7980 1 109.50000 418.400000
7978 13827 7979 1 109.50000 418.400000
7978 13827 7980 1 109.50000 418.400000
7979 13827 7980 1 109.50000 418.400000
780 13828 1209 1 109.50000 418.400000
780 13828 6123 1 109.50000 418.400000
780 13828 7981 1 109.50000 418.400000
1209 13828 6123 1 109.50000 418.400000
1209 13828 7981 1 109.50000 418.400000
6123 13828 7981 1 109.50000 418.400000
297 13829 3682 1 109.50000 418.400000
297 13829 7982 1 109.50000 418.400000
297 13829 7983 1 109.50000 418.400000
3682 13829 7982 1 109.50000 418.400000
3682 13829 7983 1 109.50000 418.400000
7982 13829 7983 1 109.50000 418.400000
225 13830 7048 1 109.50000 418.400000
225 13830 7984 1 109.50000 418.400000
225 13830 7985 1 109.50000 418.400000
7048 13830 7984 1 109.50000 418.400000
7048 13830 7985 1 109.50000 418.400000
7984 13830 7985 1 109.50000 418.400000
6905 13831 7986 1 109.50000 418.400000
6905 13831 7987 1 109.50000 418.400000
6905 13831 7988 1 109.50000 418.400000
7986 13831 7987 1 109.50000 418.400000
7986 13831 7988 1 109.50000 418.400000
7987 13831 7988 1 109.50000 418.400000
1529 13832 7989 1 109.50000 418.400000
1529 13832 7990 1 109.50000 418.400000
1529 13832 7991 1 109.50000 418.400000
7989 13832 7990 1 109.50000 418.400000
7989 13832 7991 1 109.50000 418.400000
7990 13832 7991 1 109.50000 418.400000
27 13833 2877 1 109.50000 418.400000
27 13833 7992 1 109.50000 418.400000
27 13833 7993 1 109.50000 418.400000
2877 13833 7992 1 109.50000 418.400000
2877 13833 7993 1 109.50000 418.400000
7992 13833 7993 1 109.50000 418.400000
3655 13834 3657 1 109.50000 418.400000
3655 13834 5882 1 109.50000 418.400000
3655 13834 7994 1 109.50000 418.400000
3657 13834 5882 1 109.50000 418.400000
3657 13834 7994 1 109.50000 418.400000
5882 13834 7994 1 109.50000 418.400000
3252 13835 7995 1 109.50000 418.400000
3252 13835 7996 1 109.50000 418.400000
3252 13835 7997 1 109.50000 418.400000
7995 13835 7996 1 109.50000 418.400000
7995 13835 7997 1 109.50000 418.400000
7996 13835 7997 1 109.50000 418.400000
148 13836 7998 1 109.50000 418.400000
148 13836 7999 1 109.50000 418.400000
148 13836 8000 1 109.50000 418.400000
7998 13836 7999 1 109.50000 418.400000
7998 13836 8000 1 109.50000 418.400000
7999 13836 8000 1 109.50000 418.400000
1491 13837 4271 1 109.50000 418.400000
1491 13837 6243 1 109.50000 418.400000
1491 13837 7182 1 109.50000 418.400000
4271 13837 6243 1 109.50000 418.400000
4271 13837 7182 1 109.50000 418.400000
6243 13837 7182 1 109.50000 418.400000
4720 13838 8001 1 109.50000 418.400000
4720 13838 8002 1 109.50000 418.400000
4720 13838 8003 1 109.50000 418.400000
8001 13838 8002 1 109.50000 418.400000
8001 13838 8003 1 109.50000 418.400000
8002 13838 8003 1 109.50000 418.400000
8004 13839 8005 1 109.50000 418.400000
8004 13839 8006 1 109.50000 418.400000
8004 13839 8007 1 109.50000 418.400000
8005 13839 8006 1 109.50000 418.400000
8005 13839 8007 1 109.50000 418.400000
8006 13839 8007 1 109.50000 418.400000
1229 13840 7815 1 109.50000 418.400000
1229 13840 8008 1 109.50000 418.400000
1229 13840 8009 1 109.50000 418.400000
7815 13840 8008 1 109.50000 418.400000
7815 13840 8009 1 109.50000 418.400000
8008 13840 8009 1 109.50000 418.400000
3501 13841 5360 1 109.50000 418.400000
3501 13841 8010 1 109.50000 418.400000
3501 13841 8011 1 109.50000 418.400000
5360 13841 8010 1 109.50000 418.400000
5360 13841 8011 1 109.50000 418.400000
8010 13841 8011 1 109.50000 418.400000
8012 13842 8013 1 109.50000 418.400000
8012 13842 11173 1 109.50000 418.400000
8012 13842 11180 1 109.50000 418.400000
8013 13842 11173 1 109.50000 418.400000
8013 13842 11180 1 109.50000 418.400000
11173 13842 11180 1 109.50000 418.400000
4884 13843 5484 1 109.50000 418.400000
4884 13843 7514 1 109.50000 418.400000
4884 13843 8014 1 109.50000 418.400000
5484 13843 7514 1 109.50000 418.400000
5484 13843 8014 1 109.50000 418.400000
7514 13843 8014 1 109.50000 418.400000
8015 13844 8016 1 109.50000 418.400000
8015 13844 8017 1 109.50000 418.400000
8015 13844 8018 1 109.50000 418.400000
8016 13844 8017 1 109.50000 418.400000
8016 13844 8018 1 109.50000 418.400000
8017 13844 8018 1 109.50000 418.400000
8019 13845 8020 1 109.50000 418.400000
8019 13845 8021 1 109.50000 418.400000
8019 13845 8022 1 109.50000 418.400000
8020 13845 8021 1 109.50000 418.400000
8020 13845 8022 1 109.50000 418.400000
8021 13845 8022 1 109.50000 418.400000
2140 13846 3903 1 109.50000 418.400000
2140 13846 8023 1 109.50000 418.400000
2140 13846 8024 1 109.50000 418.400000
3903 13846 8023 1 109.50000 418.400000
3903 13846 8024 1 109.50000 418.400000
8023 13846 8024 1 109.50000 418.400000
2982 13847 8025 1 109.50000 418.400000
2982 13847 8026 1 109.50000 418.400000
2982 13847 8027 1 109.50000 418.400000
8025 13847 8026 1 109.50000 418.400000
8025 13847 8027 1 109.50000 418.400000
8026 13847 8027 1 109.50000 418.400000
3004 13848 5313 1 109.50000 418.400000
3004 13848 6683 1 109.50000 418.400000
3004 13848 8028 1 109.50000 418.400000
5313 13848 6683 1 109.50000 418.400000
5313 13848 8028 1 109.50000 418.400000
6683 13848 8028 1 109.50000 418.400000
8029 13849 8030 1 109.50000 418.400000
8029 13849 8031 1 109.50000 418.400000
8029 13849 8032 1 109.50000 418.400000
8030 13849 8031 1 109.50000 418.400000
8030 13849 8032 1 109.50000 418.400000
8031 13849 8032 1 109.50000 418.400000
6469 13850 8033 1 109.50000 418.400000
6469 13850 8034 1 109.50000 418.400000
6469 13850 8035 1 109.50000 418.400000
8033 13850 8034 1 109.50000 418.400000
8033 13850 8035 1 109.50000 418.400000
8034 13850 8035 1 109.50000 418.400000
4136 13851 8036 1 109.50000 418.400000
4136 13851 8037 1 109.50000 418.400000
4136 13851 8939 1 109.50000 418.400000
8036 13851 8037 1 109.50000 418.400000
8036 13851 8939 1 109.50000 418.400000
8037 13851 8939 1 109.50000 418.400000
4126 13852 6387 1 109.50000 418.400000
4126 13852 8038 1 109.50000 418.400000
4126 13852 8039 1 109.50000 418.400000
6387 13852 8038 1 109.50000 418.400000
6387 13852 8039 1 109.50000 418.400000
8038 13852 8039 1 109.50000 418.400000
5692 13853 7563 1 109.50000 418.400000
5692 13853 8040 1 109.50000 418.400000
5692 13853 8041 1 109.50000 418.400000
7563 13853 8040 1 109.50000 418.400000
7563 13853 8041 1 109.50000 418.400000
8040 13853 8041 1 109.50000 418.400000
2191 13854 2612 1 109.50000 418.400000
2191 13854 7422 1 109.50000 418.400000
2191 13854 8042 1 109.50000 418.400000
2612 13854 7422 1 109.50000 418.400000
2612 13854 8042 1 109.50000 418.400000
7422 13854 8042 1 109.50000 418.400000
4607 13855 4608 1 109.50000 418.400000
4607 13855 8045 1 109.50000 418.400000
4607 13855 11333 1 109.50000 418.400000
4608 13855 8045 1 109.50000 418.400000
4608 13855 11333 1 109.50000 418.400000
8045 13855 11333 1 109.50000 418.400000
2855 13856 4664 1 109.50000 418.400000
2855 13856 5930 1 109.50000 418.400000
2855 13856 8046 1 109.50000 418.400000
4664 13856 5930 1 109.50000 418.400000
4664 13856 8046 1 109.50000 418.400000
5930 13856 8046 1 109.50000 418.400000
5402 13857 6037 1 109.50000 418.400000
5402 13857 8047 1 109.50000 418.400000
5402 13857 8048 1 109.50000 418.400000
6037 13857 8047 1 109.50000 418.400000
6037 13857 8048 1 109.50000 418.400000
8047 13857 8048 1 109.50000 418.400000
926 13858 2449 1 109.50000 418.400000
926 13858 8049 1 109.50000 418.400000
926 13858 8050 1 109.50000 418.400000
2449 13858 8049 1 109.50000 418.400000
2449 13858 8050 1 109.50000 418.400000
8049 13858 8050 1 109.50000 418.400000
99 13859 7925 1 109.50000 418.400000
99 13859 8051 1 109.50000 418.400000
99 13859 8052 1 109.50000 418.400000
7925 13859 8051 1 109.50000 418.400000
7925 13859 8052 1 109.50000 418.400000
8051 13859 8052 1 109.50000 418.400000
32 13860 3401 1 109.50000 418.400000
32 13860 4064 1 109.50000 418.400000
32 13860 6276 1 109.50000 418.400000
3401 13860 4064 1 109.50000 418.400000
3401 13860 6276 1 109.50000 418.400000
4064 13860 6276 1 109.50000 418.400000
368 13861 3179 1 109.50000 418.400000
368 13861 8053 1 109.50000 418.400000
368 13861 8054 1 109.50000 418.400000
3179 13861 8053 1 109.50000 418.400000
3179 13861 8054 1 109.50000 418.400000
8053 13861 8054 1 109.50000 418.400000
6456 13862 8055 1 109.50000 418.400000
6456 13862 8056 1 109.50000 418.400000
6456 13862 8057 1 109.50000 418.400000
8055 13862 8056 1 109.50000 418.400000
8055 13862 8057 1 109.50000 418.400000
8056 13862 8057 1 109.50000 418.400000
2581 13863 7001 1 109.50000 418.400000
2581 13863 8060 1 109.50000 418.400000
2581 13863 8061 1 109.50000 418.400000
7001 13863 8060 1 109.50000 418.400000
7001 13863 8061 1 109.50000 418.400000
8060 13863 8061 1 109.50000 418.400000
4056 13864 5880 1 109.50000 418.400000
4056 13864 7188 1 109.50000 418.400000
4056 13864 8062 1 109.50000 418.400000
5880 13864 7188 1 109.50000 418.400000
5880 13864 8062 1 109.50000 418.400000
7188 13864 8062 1 109.50000 418.400000
4090 13865 4793 1 109.50000 418.400000
4090 13865 6139 1 109.50000 418.400000
4090 13865 8063 1 109.50000 418.400000
4793 13865 6139 1 109.50000 418.400000
4793 13865 8063 1 109.50000 418.400000
6139 13865 8063 1 109.50000 418.400000
3157 13866 8064 1 109.50000 418.400000
3157 13866 8065 1 109.50000 418.400000
3157 13866 8066 1 109.50000 418.400000
8064 13866 8065 1 109.50000 418.400000
8064 13866 8066 1 109.50000 418.400000
8065 13866 8066 1 109.50000 418.400000
2465 13867 5267 1 109.50000 418.400000
2465 13867 8068 1 109.50000 418.400000
2465 13867 8069 1 109.50000 418.400000
5267 13867 8068 1 109.50000 418.400000
5267 13867 8069 1 109.50000 418.400000
8068 13867 8069 1 109.50000 418.400000
58 13868 7841 1 109.50000 418.400000
58 13868 8070 1 109.50000 418.400000
58 13868 8071 1 109.50000 418.400000
7841 13868 8070 1 109.50000 418.400000
7841 13868 8071 1 109.50000 418.400000
8070 13868 8071 1 109.50000 418.400000
2183 13869 3483 1 109.50000 418.400000
2183 13869 3703 1 109.50000 418.400000
2183 13869 8072 1 109.50000 418.400000
3483 13869 3703 1 109.50000 418.400000
3483 13869 8072 1 109.50000 418.400000
3703 13869 8072 1 109.50000 418.400000
1136 13870 1524 1 109.50000 418.400000
1136 13870 4898 1 109.50000 418.400000
1136 13870 8073 1 109.50000 418.400000
1524 13870 4898 1 109.50000 418.400000
1524 13870 8073 1 109.50000 418.400000
4898 13870 8073 1 109.50000 418.400000
1600 13871 5149 1 109.50000 418.400000
1600 13871 7931 1 109.50000 418.400000
1600 13871 8074 1 109.50000 418.400000
5149 13871 7931 1 109.50000 418.400000
5149 13871 8074 1 109.50000 418.400000
7931 13871 8074 1 109.50000 418.400000
2815 13872 8075 1 109.50000 418.400000
2815 13872 8076 1 109.50000 418.400000
2815 13872 8077 1 109.50000 418.400000
8075 13872 8076 1 109.50000 418.400000
8075 13872 8077 1 109.50000 418.400000
8076 13872 8077 1 109.50000 418.400000
1078 13873 8078 1 109.50000 418.400000
1078 13873 8079 1 109.50000 418.400000
1078 13873 8080 1 109.50000 418.400000
8078 13873 8079 1 109.50000 418.400000
8078 13873 8080 1 109.50000 418.400000
8079 13873 8080 1 109.50000 418.400000
6702 13874 7254 1 109.50000 418.400000
6702 13874 8082 1 109.50000 418.400000
6702 13874 8083 1 109.50000 418.400000
7254 13874 8082 1 109.50000 418.400000
7254 13874 8083 1 109.50000 418.400000
8082 13874 8083 1 109.50000 418.400000
2091 13875 7885 1 109.50000 418.400000
2091 13875 8085 1 109.50000 418.400000
2091 13875 8086 1 109.50000 418.400000
7885 13875 8085 1 109.50000 418.400000
7885 13875 8086 1 109.50000 418.400000
8085 13875 8086 1 109.50000 418.400000
3064 13876 7452 1 109.50000 418.400000
3064 13876 8087 1 109.50000 418.400000
3064 13876 8088 1 109.50000 418.400000
7452 13876 8087 1 109.50000 418.400000
7452 13876 8088 1 109.50000 418.400000
8087 13876 8088 1 109.50000 418.400000
8089 13877 8090 1 109.50000 418.400000
8089 13877 10514 1 109.50000 418.400000
8089 13877 11328 1 109.50000 418.400000
8090 13877 10514 1 109.50000 418.400000
8090 13877 11328 1 109.50000 418.400000
10514 13877 11328 1 109.50000 418.400000
7597 13878 8094 1 109.50000 418.400000
7597 13878 8095 1 109.50000 418.400000
7597 13878 10370 1 109.50000 418.400000
8094 13878 8095 1 109.50000 418.400000
8094 13878 10370 1 109.50000 418.400000
8095 13878 10370 1 109.50000 418.400000
1783 13879 4250 1 109.50000 418.400000
1783 13879 8096 1 109.50000 418.400000
1783 13879 8097 1 109.50000 418.400000
4250 13879 8096 1 109.50000 418.400000
4250 13879 8097 1 109.50000 418.400000
8096 13879 8097 1 109.50000 418.400000
2235 13880 8098 1 109.50000 418.400000
2235 13880 8100 1 109.50000 418.400000
2235 13880 8101 1 109.50000 418.400000
8098 13880 8100 1 109.50000 418.400000
8098 13880 8101 1 109.50000 418.400000
8100 13880 8101 1 109.50000 418.400000
2665 13881 8102 1 109.50000 418.400000
2665 13881 8103 1 109.50000 418.400000
2665 13881 8104 1 109.50000 418.400000
8102 13881 8103 1 109.50000 418.400000
8102 13881 8104 1 109.50000 418.400000
8103 13881 8104 1 109.50000 418.400000
2303 13882 5330 1 109.50000 418.400000
2303 13882 7419 1 109.50000 418.400000
2303 13882 7549 1 109.50000 418.400000
5330 13882 7419 1 109.50000 418.400000
5330 13882 7549 1 109.50000 418.400000
7419 13882 7549 1 109.50000 418.400000
4236 13883 8106 1 109.50000 418.400000
4236 13883 9180 1 109.50000 418.400000
4236 13883 11153 1 109.50000 418.400000
8106 13883 9180 1 109.50000 418.400000
8106 13883 11153 1 109.50000 418.400000
9180 13883 11153 1 109.50000 418.400000
4599 13884 4841 1 109.50000 418.400000
4599 13884 6446 1 109.50000 418.400000
4599 13884 7533 1 109.50000 418.400000
4841 13884 6446 1 109.50000 418.400000
4841 13884 7533 1 109.50000 418.400000
6446 13884 7533 1 109.50000 418.400000
1961 13885 3531 1 109.50000 418.400000
1961 13885 5847 1 109.50000 418.400000
1961 13885 8107 1 109.50000 418.400000
3531 13885 5847 1 109.50000 418.400000
3531 13885 8107 1 109.50000 418.400000
5847 13885 8107 1 109.50000 418.400000
2072 13886 8108 1 109.50000 418.400000
2072 13886 8109 1 109.50000 418.400000
2072 13886 8110 1 109.50000 418.400000
8108 13886 8109 1 109.50000 418.400000
8108 13886 8110 1 109.50000 418.400000
8109 13886 8110 1 109.50000 418.400000
4760 13887 6591 1 109.50000 418.400000
4760 13887 8111 1 109.50000 418.400000
4760 13887 8112 1 109.50000 418.400000
6591 13887 8111 1 109.50000 418.400000
6591 13887 8112 1 109.50000 418.400000
8111 13887 8112 1 109.50000 418.400000
1692 13888 3240 1 109.50000 418.400000
1692 13888 8113 1 109.50000 418.400000
1692 13888 8114 1 109.50000 418.400000
3240 13888 8113 1 109.50000 418.400000
3240 13888 8114 1 109.50000 418.400000
8113 13888 8114 1 109.50000 418.400000
1618 13889 5664 1 109.50000 418.400000
1618 13889 6890 1 109.50000 418.400000
1618 13889 8116 1 109.50000 418.400000
5664 13889 6890 1 109.50000 418.400000
5664 13889 8116 1 109.50000 418.400000
6890 13889 8116 1 109.50000 418.400000
4559 13890 6166 1 109.50000 418.400000
4559 13890 8117 1 109.50000 418.400000
4559 13890 8118 1 109.50000 418.400000
6166 13890 8117 1 109.50000 418.400000
6166 13890 8118 1 109.50000 418.400000
8117 13890 8118 1 109.50000 418.400000
816 13891 8119 1 109.50000 418.400000
816 13891 8120 1 109.50000 418.400000
816 13891 8121 1 109.50000 418.400000
8119 13891 8120 1 109.50000 418.400000
8119 13891 8121 1 109.50000 418.400000
8120 13891 8121 1 109.50000 418.400000
3008 13892 3010 1 109.50000 418.400000
3008 13892 4640 1 109.50000 418.400000
3008 13892 8122 1 109.50000 418.400000
3010 13892 4640 1 109.50000 418.400000
3010 13892 8122 1 109.50000 418.400000
4640 13892 8122 1 109.50000 418.400000
5657 13893 7252 1 109.50000 418.400000
5657 13893 8123 1 109.50000 418.400000
5657 13893 8124 1 109.50000 418.400000
7252 13893 8123 1 109.50000 418.400000
7252 13893 8124 1 109.50000 418.400000
8123 13893 8124 1 109.50000 418.400000
475 13894 3947 1 109.50000 418.400000
475 13894 8125 1 109.50000 418.400000
475 13894 8126 1 109.50000 418.400000
3947 13894 8125 1 109.50000 418.400000
3947 13894 8126 1 109.50000 418.400000
8125 13894 8126 1 109.50000 418.400000
7389 13895 8127 1 109.50000 418.400000
7389 13895 8128 1 109.50000 418.400000
7389 13895 8129 1 109.50000 418.400000
8127 13895 8128 1 109.50000 418.400000
8127 13895 8129 1 109.50000 418.400000
8128 13895 8129 1 109.50000 418.400000
6808 13896 8114 1 109.50000 418.400000
6808 13896 8130 1 109.50000 418.400000
6808 13896 8131 1 109.50000 418.400000
8114 13896 8130 1 109.50000 418.400000
8114 13896 8131 1 109.50000 418.400000
8130 13896 8131 1 109.50000 418.400000
1246 13897 3235 1 109.50000 418.400000
1246 13897 8132 1 109.50000 418.400000
1246 13897 8133 1 109.50000 418.400000
3235 13897 8132 1 109.50000 418.400000
3235 13897 8133 1 109.50000 418.400000
8132 13897 8133 1 109.50000 418.400000
2484 13898 7859 1 109.50000 418.400000
2484 13898 8134 1 109.50000 418.400000
2484 13898 8135 1 109.50000 418.400000
7859 13898 8134 1 109.50000 418.400000
7859 13898 8135 1 109.50000 418.400000
8134 13898 8135 1 109.50000 418.400000
5950 13899 8136 1 109.50000 418.400000
5950 13899 8137 1 109.50000 418.400000
5950 13899 8138 1 109.50000 418.400000
8136 13899 8137 1 109.50000 418.400000
8136 13899 8138 1 109.50000 418.400000
8137 13899 8138 1 109.50000 418.400000
6599 13900 8139 1 109.50000 418.400000
6599 13900 8140 1 109.50000 418.400000
6599 13900 8141 1 109.50000 418.400000
8139 13900 8140 1 109.50000 418.400000
8139 13900 8141 1 109.50000 418.400000
8140 13900 8141 1 109.50000 418.400000
6922 13901 8143 1 109.50000 418.400000
6922 13901 8144 1 109.50000 418.400000
6922 13901 10063 1 109.50000 418.400000
8143 13901 8144 1 109.50000 418.400000
8143 13901 10063 1 109.50000 418.400000
8144 13901 10063 1 109.50000 418.400000
765 13902 5877 1 109.50000 418.400000
765 13902 6358 1 109.50000 418.400000
765 13902 8145 1 109.50000 418.400000
5877 13902 6358 1 109.50000 418.400000
5877 13902 8145 1 109.50000 418.400000
6358 13902 8145 1 109.50000 418.400000
2957 13903 3150 1 109.50000 418.400000
2957 13903 8146 1 109.50000 418.400000
2957 13903 8147 1 109.50000 418.400000
3150 13903 8146 1 109.50000 418.400000
3150 13903 8147 1 109.50000 418.400000
8146 13903 8147 1 109.50000 418.400000
467 13904 3028 1 109.50000 418.400000
467 13904 8149 1 109.50000 418.400000
467 13904 10793 1 109.50000 418.400000
3028 13904 8149 1 109.50000 418.400000
3028 13904 10793 1 109.50000 418.400000
8149 13904 10793 1 109.50000 418.400000
7364 13905 7762 1 109.50000 418.400000
7364 13905 7763 1 109.50000 418.400000
7364 13905 11353 1 109.50000 418.400000
7762 13905 7763 1 109.50000 418.400000
7762 13905 11353 1 109.50000 418.400000
7763 13905 11353 1 109.50000 418.400000
2848 13906 7213 1 109.50000 418.400000
2848 13906 8151 1 109.50000 418.400000
2848 13906 8152 1 109.50000 418.400000
7213 13906 8151 1 109.50000 418.400000
7213 13906 8152 1 109.50000 418.400000
8151 13906 8152 1 109.50000 418.400000
2441 13907 8154 1 109.50000 418.400000
2441 13907 8155 1 109.50000 418.400000
2441 13907 8157 1 109.50000 418.400000
8154 13907 8155 1 109.50000 418.400000
8154 13907 8157 1 109.50000 418.400000
8155 13907 8157 1 109.50000 418.400000
2691 13908 7559 1 109.50000 418.400000
2691 13908 8158 1 109.50000 418.400000
2691 13908 8159 1 109.50000 418.400000
7559 13908 8158 1 109.50000 418.400000
7559 13908 8159 1 109.50000 418.400000
8158 13908 8159 1 109.50000 418.400000
1463 13909 3263 1 109.50000 418.400000
1463 13909 8160 1 109.50000 418.400000
1463 13909 8162 1 109.50000 418.400000
3263 13909 8160 1 109.50000 418.400000
3263 13909 8162 1 109.50000 418.400000
8160 13909 8162 1 109.50000 418.400000
7321 13910 8052 1 109.50000 418.400000
7321 13910 8163 1 109.50000 418.400000
7321 13910 8164 1 109.50000 418.400000
8052 13910 8163 1 109.50000 418.400000
8052 13910 8164 1 109.50000 418.400000
8163 13910 8164 1 109.50000 418.400000
679 13911 1133 1 109.50000 418.400000
679 13911 1440 1 109.50000 418.400000
679 13911 8165 1 109.50000 418.400000
1133 13911 1440 1 109.50000 418.400000
1133 13911 8165 1 109.50000 418.400000
1440 13911 8165 1 109.50000 418.400000
3025 13912 5292 1 109.50000 418.400000
3025 13912 6318 1 109.50000 418.400000
3025 13912 8167 1 109.50000 418.400000
5292 13912 6318 1 109.50000 418.400000
5292 13912 8167 1 109.50000 418.400000
6318 13912 8167 1 109.50000 418.400000
1172 13913 5801 1 109.50000 418.400000
1172 13913 7307 1 109.50000 418.400000
1172 13913 8168 1 109.50000 418.400000
5801 13913 7307 1 109.50000 418.400000
5801 13913 8168 1 109.50000 418.400000
7307 13913 8168 1 109.50000 418.400000
327 13914 8169 1 109.50000 418.400000
327 13914 8170 1 109.50000 418.400000
327 13914 8171 1 109.50000 418.400000
8169 13914 8170 1 109.50000 418.400000
8169 13914 8171 1 109.50000 418.400000
8170 13914 8171 1 109.50000 418.400000
8175 13915 8176 1 109.50000 418.400000
8175 13915 8177 1 109.50000 418.400000
8175 13915 8178 1 109.50000 418.400000
8176 13915 8177 1 109.50000 418.400000
8176 13915 8178 1 109.50000 418.400000
8177 13915 8178 1 109.50000 418.400000
8179 13916 8180 1 109.50000 418.400000
8179 13916 8181 1 109.50000 418.400000
8179 13916 8182 1 109.50000 418.400000
8180 13916 8181 1 109.50000 418.400000
8180 13916 8182 1 109.50000 418.400000
8181 13916 8182 1 109.50000 418.400000
4743 13917 6159 1 109.50000 418.400000
4743 13917 8183 1 109.50000 418.400000
4743 13917 8184 1 109.50000 418.400000
6159 13917 8183 1 109.50000 418.400000
6159 13917 8184 1 109.50000 418.400000
8183 13917 8184 1 109.50000 418.400000
341 13918 3143 1 109.50000 418.400000
341 13918 3934 1 109.50000 418.400000
341 13918 8185 1 109.50000 418.400000
3143 13918 3934 1 109.50000 418.400000
3143 13918 8185 1 109.50000 418.400000
3934 13918 8185 1 109.50000 418.400000
7648 13919 8186 1 109.50000 418.400000
7648 13919 8187 1 109.50000 418.400000
7648 13919 8188 1 109.50000 418.400000
8186 13919 8187 1 109.50000 418.400000
8186 13919 8188 1 109.50000 418.400000
8187 13919 8188 1 109.50000 418.400000
2033 13920 8189 1 109.50000 418.400000
2033 13920 8190 1 109.50000 418.400000
2033 13920 8191 1 109.50000 418.400000
8189 13920 8190 1 109.50000 418.400000
8189 13920 8191 1 109.50000 418.400000
8190 13920 8191 1 109.50000 418.400000
2412 13921 8192 1 109.50000 418.400000
2412 13921 8193 1 109.50000 418.400000
2412 13921 8194 1 109.50000 418.400000
8192 13921 8193 1 109.50000 418.400000
8192 13921 8194 1 109.50000 418.400000
8193 13921 8194 1 109.50000 418.400000
7379 13922 8136 1 109.50000 418.400000
7379 13922 8195 1 109.50000 418.400000
7379 13922 8196 1 109.50000 418.400000
8136 13922 8195 1 109.50000 418.400000
8136 13922 8196 1 109.50000 418.400000
8195 13922 8196 1 109.50000 418.400000
5719 13923 6887 1 109.50000 418.400000
5719 13923 7028 1 109.50000 418.400000
5719 13923 8197 1 109.50000 418.400000
6887 13923 7028 1 109.50000 418.400000
6887 13923 8197 1 109.50000 418.400000
7028 13923 8197 1 109.50000 418.400000
6720 13924 8199 1 109.50000 418.400000
6720 13924 8200 1 109.50000 418.400000
6720 13924 8201 1 109.50000 418.400000
8199 13924 8200 1 109.50000 418.400000
8199 13924 8201 1 109.50000 418.400000
8200 13924 8201 1 109.50000 418.400000
2004 13925 5006 1 109.50000 418.400000
2004 13925 7500 1 109.50000 418.400000
2004 13925 8202 1 109.50000 418.400000
5006 13925 7500 1 109.50000 418.400000
5006 13925 8202 1 109.50000 418.400000
7500 13925 8202 1 109.50000 418.400000
4838 13926 7191 1 109.50000 418.400000
4838 13926 8203 1 109.50000 418.400000
4838 13926 8204 1 109.50000 418.400000
7191 13926 8203 1 109.50000 418.400000
7191 13926 8204 1 109.50000 418.400000
8203 13926 8204 1 109.50000 418.400000
3767 13927 8205 1 109.50000 418.400000
3767 13927 8206 1 109.50000 418.400000
3767 13927 8207 1 109.50000 418.400000
8205 13927 8206 1 109.50000 418.400000
8205 13927 8207 1 109.50000 418.400000
8206 13927 8207 1 109.50000 418.400000
4092 13928 6995 1 109.50000 418.400000
4092 13928 8208 1 109.50000 418.400000
4092 13928 8209 1 109.50000 418.400000
6995 13928 8208 1 109.50000 418.400000
6995 13928 8209 1 109.50000 418.400000
8208 13928 8209 1 109.50000 418.400000
2166 13929 4676 1 109.50000 418.400000
2166 13929 6497 1 109.50000 418.400000
2166 13929 8210 1 109.50000 418.400000
4676 13929 6497 1 109.50000 418.400000
4676 13929 8210 1 109.50000 418.400000
6497 13929 8210 1 109.50000 418.400000
1272 13930 3919 1 109.50000 418.400000
1272 13930 3920 1 109.50000 418.400000
1272 13930 5706 1 109.50000 418.400000
3919 13930 3920 1 109.50000 418.400000
3919 13930 5706 1 109.50000 418.400000
3920 13930 5706 1 109.50000 418.400000
4810 13931 4811 1 109.50000 418.400000
4810 13931 5151 1 109.50000 418.400000
4810 13931 8213 1 109.50000 418.400000
4811 13931 5151 1 109.50000 418.400000
4811 13931 8213 1 109.50000 418.400000
5151 13931 8213 1 109.50000 418.400000
6657 13932 7619 1 109.50000 418.400000
6657 13932 8214 1 109.50000 418.400000
6657 13932 8215 1 109.50000 418.400000
7619 13932 8214 1 109.50000 418.400000
7619 13932 8215 1 109.50000 418.400000
8214 13932 8215 1 109.50000 418.400000
4406 13933 6240 1 109.50000 418.400000
4406 13933 6882 1 109.50000 418.400000
4406 13933 8217 1 109.50000 418.400000
6240 13933 6882 1 109.50000 418.400000
6240 13933 8217 1 109.50000 418.400000
6882 13933 8217 1 109.50000 418.400000
2944 13934 5406 1 109.50000 418.400000
2944 13934 8218 1 109.50000 418.400000
2944 13934 8219 1 109.50000 418.400000
5406 13934 8218 1 109.50000 418.400000
5406 13934 8219 1 109.50000 418.400000
8218 13934 8219 1 109.50000 418.400000
282 13935 1533 1 109.50000 418.400000
282 13935 3821 1 109.50000 418.400000
282 13935 8220 1 109.50000 418.400000
1533 13935 3821 1 109.50000 418.400000
1533 13935 8220 1 109.50000 418.400000
3821 13935 8220 1 109.50000 418.400000
5717 13936 7910 1 109.50000 418.400000
5717 13936 8221 1 109.50000 418.400000
5717 13936 11319 1 109.50000 418.400000
7910 13936 8221 1 109.50000 418.400000
7910 13936 11319 1 109.50000 418.400000
8221 13936 11319 1 109.50000 418.400000
7860 13937 8222 1 109.50000 418.400000
7860 13937 11158 1 109.50000 418.400000
7860 13937 11357 1 109.50000 418.400000
8222 13937 11158 1 109.50000 418.400000
8222 13937 11357 1 109.50000 418.400000
11158 13937 11357 1 109.50000 418.400000
6093 13938 8223 1 109.50000 418.400000
6093 13938 8224 1 109.50000 418.400000
6093 13938 8225 1 109.50000 418.400000
8223 13938 8224 1 109.50000 418.400000
8223 13938 8225 1 109.50000 418.400000
8224 13938 8225 1 109.50000 418.400000
335 13939 8226 1 109.50000 418.400000
335 13939 8227 1 109.50000 418.400000
335 13939 8228 1 109.50000 418.400000
8226 13939 8227 1 109.50000 418.400000
8226 13939 8228 1 109.50000 418.400000
8227 13939 8228 1 109.50000 418.400000
2329 13940 4034 1 109.50000 418.400000
2329 13940 6481 1 109.50000 418.400000
2329 13940 7317 1 109.50000 418.400000
4034 13940 6481 1 109.50000 418.400000
4034 13940 7317 1 109.50000 418.400000
6481 13940 7317 1 109.50000 418.400000
8229 13941 8230 1 109.50000 418.400000
8229 13941 8231 1 109.50000 418.400000
8229 13941 8232 1 109.50000 418.400000
8230 13941 8231 1 109.50000 418.400000
8230 13941 8232 1 109.50000 418.400000
8231 13941 8232 1 109.50000 418.400000
558 13942 1991 1 109.50000 418.400000
558 13942 8233 1 109.50000 418.400000
558 13942 8234 1 109.50000 418.400000
1991 13942 8233 1 109.50000 418.400000
1991 13942 8234 1 109.50000 418.400000
8233 13942 8234 1 109.50000 418.400000
51 13943 2888 1 109.50000 418.400000
51 13943 8235 1 109.50000 418.400000
51 13943 8236 1 109.50000 418.400000
2888 13943 8235 1 109.50000 418.400000
2888 13943 8236 1 109.50000 418.400000
8235 13943 8236 1 109.50000 418.400000
6157 13944 6334 1 109.50000 418.400000
6157 13944 8238 1 109.50000 418.400000
6157 13944 8239 1 109.50000 418.400000
6334 13944 8238 1 109.50000 418.400000
6334 13944 8239 1 109.50000 418.400000
8238 13944 8239 1 109.50000 418.400000
5196 13945 8241 1 109.50000 418.400000
5196 13945 8242 1 109.50000 418.400000
5196 13945 8609 1 109.50000 418.400000
8241 13945 8242 1 109.50000 418.400000
8241 13945 8609 1 109.50000 418.400000
8242 13945 8609 1 109.50000 418.400000
5034 13946 8243 1 109.50000 418.400000
5034 13946 8244 1 109.50000 418.400000
5034 13946 8245 1 109.50000 418.400000
8243 13946 8244 1 109.50000 418.400000
8243 13946 8245 1 109.50000 418.400000
8244 13946 8245 1 109.50000 418.400000
4516 13947 6448 1 109.50000 418.400000
4516 13947 8246 1 109.50000 418.400000
4516 13947 11364 1 109.50000 418.400000
6448 13947 8246 1 109.50000 418.400000
6448 13947 11364 1 109.50000 418.400000
8246 13947 11364 1 109.50000 418.400000
3840 13948 7122 1 109.50000 418.400000
3840 13948 8199 1 109.50000 418.400000
3840 13948 8248 1 109.50000 418.400000
7122 13948 8199 1 109.50000 418.400000
7122 13948 8248 1 109.50000 418.400000
8199 13948 8248 1 109.50000 418.400000
8249 13949 8250 1 109.50000 418.400000
8249 13949 8251 1 109.50000 418.400000
8249 13949 8252 1 109.50000 418.400000
8250 13949 8251 1 109.50000 418.400000
8250 13949 8252 1 109.50000 418.400000
8251 13949 8252 1 109.50000 418.400000
5855 13950 8253 1 109.50000 418.400000
5855 13950 8254 1 109.50000 418.400000
5855 13950 8255 1 109.50000 418.400000
8253 13950 8254 1 109.50000 418.400000
8253 13950 8255 1 109.50000 418.400000
8254 13950 8255 1 109.50000 418.400000
4220 13951 8256 1 109.50000 418.400000
4220 13951 8257 1 109.50000 418.400000
4220 13951 8258 1 109.50000 418.400000
8256 13951 8257 1 109.50000 418.400000
8256 13951 8258 1 109.50000 418.400000
8257 13951 8258 1 109.50000 418.400000
3862 13952 6438 1 109.50000 418.400000
3862 13952 8260 1 109.50000 418.400000
3862 13952 8261 1 109.50000 418.400000
6438 13952 8260 1 109.50000 418.400000
6438 13952 8261 1 109.50000 418.400000
8260 13952 8261 1 109.50000 418.400000
1167 13953 3724 1 109.50000 418.400000
1167 13953 8263 1 109.50000 418.400000
1167 13953 8264 1 109.50000 418.400000
3724 13953 8263 1 109.50000 418.400000
3724 13953 8264 1 109.50000 418.400000
8263 13953 8264 1 109.50000 418.400000
5459 13954 8266 1 109.50000 418.400000
5459 13954 8267 1 109.50000 418.400000
5459 13954 8268 1 109.50000 418.400000
8266 13954 8267 1 109.50000 418.400000
8266 13954 8268 1 109.50000 418.400000
8267 13954 8268 1 109.50000 418.400000
102 13955 8269 1 109.50000 418.400000
102 13955 8270 1 109.50000 418.400000
102 13955 8271 1 109.50000 418.400000
8269 13955 8270 1 109.50000 418.400000
8269 13955 8271 1 109.50000 418.400000
8270 13955 8271 1 109.50000 418.400000
2819 13956 4755 1 109.50000 418.400000
2819 13956 8042 1 109.50000 418.400000
2819 13956 8272 1 109.50000 418.400000
4755 13956 8042 1 109.50000 418.400000
4755 13956 8272 1 109.50000 418.400000
8042 13956 8272 1 109.50000 418.400000
438 13957 1211 1 109.50000 418.400000
438 13957 5074 1 109.50000 418.400000
438 13957 8273 1 109.50000 418.400000
1211 13957 5074 1 109.50000 418.400000
1211 13957 8273 1 109.50000 418.400000
5074 13957 8273 1 109.50000 418.400000
1135 13958 2679 1 109.50000 418.400000
1135 13958 7370 1 109.50000 418.400000
1135 13958 8274 1 109.50000 418.400000
2679 13958 7370 1 109.50000 418.400000
2679 13958 8274 1 109.50000 418.400000
7370 13958 8274 1 109.50000 418.400000
2256 13959 5191 1 109.50000 418.400000
2256 13959 5726 1 109.50000 418.400000
2256 13959 8275 1 109.50000 418.400000
5191 13959 5726 1 109.50000 418.400000
5191 13959 8275 1 109.50000 418.400000
5726 13959 8275 1 109.50000 418.400000
4822 13960 6545 1 109.50000 418.400000
4822 13960 6546 1 109.50000 418.400000
4822 13960 8278 1 109.50000 418.400000
6545 13960 6546 1 109.50000 418.400000
6545 13960 8278 1 109.50000 418.400000
6546 13960 8278 1 109.50000 418.400000
694 13961 6361 1 109.50000 418.400000
694 13961 6363 1 109.50000 418.400000
694 13961 8280 1 109.50000 418.400000
6361 13961 6363 1 109.50000 418.400000
6361 13961 8280 1 109.50000 418.400000
6363 13961 8280 1 109.50000 418.400000
7722 13962 8281 1 109.50000 418.400000
7722 13962 8282 1 109.50000 418.400000
7722 13962 8998 1 109.50000 418.400000
8281 13962 8282 1 109.50000 418.400000
8281 13962 8998 1 109.50000 418.400000
8282 13962 8998 1 109.50000 418.400000
8284 13963 8285 1 109.50000 418.400000
8284 13963 8286 1 109.50000 418.400000
8284 13963 8287 1 109.50000 418.400000
8285 13963 8286 1 109.50000 418.400000
8285 13963 8287 1 109.50000 418.400000
8286 13963 8287 1 109.50000 418.400000
8290 13964 8291 1 109.50000 418.400000
8290 13964 9568 1 109.50000 418.400000
8290 13964 10944 1 109.50000 418.400000
8291 13964 9568 1 109.50000 418.400000
8291 13964 10944 1 109.50000 418.400000
9568 13964 10944 1 109.50000 418.400000
198 13965 6468 1 109.50000 418.400000
198 13965 8292 1 109.50000 418.400000
198 13965 8293 1 109.50000 418.400000
6468 13965 8292 1 109.50000 418.400000
6468 13965 8293 1 109.50000 418.400000
8292 13965 8293 1 109.50000 418.400000
6449 13966 6742 1 109.50000 418.400000
6449 13966 8295 1 109.50000 418.400000
6449 13966 8296 1 109.50000 418.400000
6742 13966 8295 1 109.50000 418.400000
6742 13966 8296 1 109.50000 418.400000
8295 13966 8296 1 109.50000 418.400000
2121 13967 3819 1 109.50000 418.400000
2121 13967 4294 1 109.50000 418.400000
2121 13967 8297 1 109.50000 418.400000
3819 13967 4294 1 109.50000 418.400000
3819 13967 8297 1 109.50000 418.400000
4294 13967 8297 1 109.50000 418.400000
1831 13968 8299 1 109.50000 418.400000
1831 13968 8300 1 109.50000 418.400000
1831 13968 8301 1 109.50000 418.400000
8299 13968 8300 1 109.50000 418.400000
8299 13968 8301 1 109.50000 418.400000
8300 13968 8301 1 109.50000 418.400000
4998 13969 8302 1 109.50000 418.400000
4998 13969 8303 1 109.50000 418.400000
4998 13969 8304 1 109.50000 418.400000
8302 13969 8303 1 109.50000 418.400000
8302 13969 8304 1 109.50000 418.400000
8303 13969 8304 1 109.50000 418.400000
3827 13970 4543 1 109.50000 418.400000
3827 13970 8305 1 109.50000 418.400000
3827 13970 8306 1 109.50000 418.400000
4543 13970 8305 1 109.50000 418.400000
4543 13970 8306 1 109.50000 418.400000
8305 13970 8306 1 109.50000 418.400000
2422 13971 4700 1 109.50000 418.400000
2422 13971 8307 1 109.50000 418.400000
2422 13971 8308 1 109.50000 418.400000
4700 13971 8307 1 109.50000 418.400000
4700 13971 8308 1 109.50000 418.400000
8307 13971 8308 1 109.50000 418.400000
1626 13972 8309 1 109.50000 418.400000
1626 13972 8310 1 109.50000 418.400000
1626 13972 8311 1 109.50000 418.400000
8309 13972 8310 1 109.50000 418.400000
8309 13972 8311 1 109.50000 418.400000
8310 13972 8311 1 109.50000 418.400000
5794 13973 5797 1 109.50000 418.400000
5794 13973 8312 1 109.50000 418.400000
5794 13973 8313 1 109.50000 418.400000
5797 13973 8312 1 109.50000 418.400000
5797 13973 8313 1 109.50000 418.400000
8312 13973 8313 1 109.50000 418.400000
8316 13974 8317 1 109.50000 418.400000
8316 13974 8318 1 109.50000 418.400000
8316 13974 8319 1 109.50000 418.400000
8317 13974 8318 1 109.50000 418.400000
8317 13974 8319 1 109.50000 418.400000
8318 13974 8319 1 109.50000 418.400000
922 13975 1193 1 109.50000 418.400000
922 13975 7809 1 109.50000 418.400000
922 13975 8320 1 109.50000 418.400000
1193 13975 7809 1 109.50000 418.400000
1193 13975 8320 1 109.50000 418.400000
7809 13975 8320 1 109.50000 418.400000
6217 13976 8029 1 109.50000 418.400000
6217 13976 8321 1 109.50000 418.400000
6217 13976 8322 1 109.50000 418.400000
8029 13976 8321 1 109.50000 418.400000
8029 13976 8322 1 109.50000 418.400000
8321 13976 8322 1 109.50000 418.400000
422 13977 5953 1 109.50000 418.400000
422 13977 8323 1 109.50000 418.400000
422 13977 8324 1 109.50000 418.400000
5953 13977 8323 1 109.50000 418.400000
5953 13977 8324 1 109.50000 418.400000
8323 13977 8324 1 109.50000 418.400000
3297 13978 8186 1 109.50000 418.400000
3297 13978 8325 1 109.50000 418.400000
3297 13978 8326 1 109.50000 418.400000
8186 13978 8325 1 109.50000 418.400000
8186 13978 8326 1 109.50000 418.400000
8325 13978 8326 1 109.50000 418.400000
8327 13979 8328 1 109.50000 418.400000
8327 13979 8329 1 109.50000 418.400000
8327 13979 8330 1 109.50000 418.400000
8328 13979 8329 1 109.50000 418.400000
8328 13979 8330 1 109.50000 418.400000
8329 13979 8330 1 109.50000 418.400000
5463 13980 8331 1 109.50000 418.400000
5463 13980 8332 1 109.50000 418.400000
5463 13980 11212 1 109.50000 418.400000
8331 13980 8332 1 109.50000 418.400000
8331 13980 11212 1 109.50000 418.400000
8332 13980 11212 1 109.50000 418.400000
3836 13981 8333 1 109.50000 418.400000
3836 13981 8334 1 109.50000 418.400000
3836 13981 8335 1 109.50000 418.400000
8333 13981 8334 1 109.50000 418.400000
8333 13981 8335 1 109.50000 418.400000
8334 13981 8335 1 109.50000 418.400000
8336 13982 8337 1 109.50000 418.400000
8336 13982 8338 1 109.50000 418.400000
8336 13982 8339 1 109.50000 418.400000
8337 13982 8338 1 109.50000 418.400000
8337 13982 8339 1 109.50000 418.400000
8338 13982 8339 1 109.50000 418.400000
2788 13983 3197 1 109.50000 418.400000
2788 13983 8340 1 109.50000 418.400000
2788 13983 8341 1 109.50000 418.400000
3197 13983 8340 1 109.50000 418.400000
3197 13983 8341 1 109.50000 418.400000
8340 13983 8341 1 109.50000 418.400000
5653 13984 5654 1 109.50000 418.400000
5653 13984 7451 1 109.50000 418.400000
5653 13984 8342 1 109.50000 418.400000
5654 13984 7451 1 109.50000 418.400000
5654 13984 8342 1 109.50000 418.400000
7451 13984 8342 1 109.50000 418.400000
2831 13985 8343 1 109.50000 418.400000
2831 13985 8344 1 109.50000 418.400000
2831 13985 8345 1 109.50000 418.400000
8343 13985 8344 1 109.50000 418.400000
8343 13985 8345 1 109.50000 418.400000
8344 13985 8345 1 109.50000 418.400000
6294 13986 6588 1 109.50000 418.400000
6294 13986 8346 1 109.50000 418.400000
6294 13986 8347 1 109.50000 418.400000
6588 13986 8346 1 109.50000 418.400000
6588 13986 8347 1 109.50000 418.400000
8346 13986 8347 1 109.50000 418.400000
539 13987 8348 1 109.50000 418.400000
539 13987 8349 1 109.50000 418.400000
539 13987 8350 1 109.50000 418.400000
8348 13987 8349 1 109.50000 418.400000
8348 13987 8350 1 109.50000 418.400000
8349 13987 8350 1 109.50000 418.400000
3427 13988 5046 1 109.50000 418.400000
3427 13988 6930 1 109.50000 418.400000
3427 13988 8104 1 109.50000 418.400000
5046 13988 6930 1 109.50000 418.400000
5046 13988 8104 1 109.50000 418.400000
6930 13988 8104 1 109.50000 418.400000
5827 13989 8351 1 109.50000 418.400000
5827 13989 8352 1 109.50000 418.400000
5827 13989 8353 1 109.50000 418.400000
8351 13989 8352 1 109.50000 418.400000
8351 13989 8353 1 109.50000 418.400000
8352 13989 8353 1 109.50000 418.400000
6490 13990 8355 1 109.50000 418.400000
6490 13990 8356 1 109.50000 418.400000
6490 13990 10119 1 109.50000 418.400000
8355 13990 8356 1 109.50000 418.400000
8355 13990 10119 1 109.50000 418.400000
8356 13990 10119 1 109.50000 418.400000
633 13991 6275 1 109.50000 418.400000
633 13991 8357 1 109.50000 418.400000
633 13991 8358 1 109.50000 418.400000
6275 13991 8357 1 109.50000 418.400000
6275 13991 8358 1 109.50000 418.400000
8357 13991 8358 1 109.50000 418.400000
6079 13992 8359 1 109.50000 418.400000
6079 13992 8360 1 109.50000 418.400000
6079 13992 8361 1 109.50000 418.400000
8359 13992 8360 1 109.50000 418.400000
8359 13992 8361 1 109.50000 418.400000
8360 13992 8361 1 109.50000 418.400000
6532 13993 7465 1 109.50000 418.400000
6532 13993 7948 1 109.50000 418.400000
6532 13993 8362 1 109.50000 418.400000
7465 13993 7948 1 109.50000 418.400000
7465 13993 8362 1 109.50000 418.400000
7948 13993 8362 1 109.50000 418.400000
5968 13994 8363 1 109.50000 418.400000
5968 13994 8364 1 109.50000 418.400000
5968 13994 8365 1 109.50000 418.400000
8363 13994 8364 1 109.50000 418.400000
8363 13994 8365 1 109.50000 418.400000
8364 13994 8365 1 109.50000 418.400000
3606 13995 3979 1 109.50000 418.400000
3606 13995 8366 1 109.50000 418.400000
3606 13995 8367 1 109.50000 418.400000
3979 13995 8366 1 109.50000 418.400000
3979 13995 8367 1 109.50000 418.400000
8366 13995 8367 1 109.50000 418.400000
8368 13996 8369 1 109.50000 418.400000
8368 13996 8370 1 109.50000 418.400000
8368 13996 11146 1 109.50000 418.400000
8369 13996 8370 1 109.50000 418.400000
8369 13996 11146 1 109.50000 418.400000
8370 13996 11146 1 109.50000 418.400000
4772 13997 6039 1 109.50000 418.400000
4772 13997 7687 1 109.50000 418.400000
4772 13997 8372 1 109.50000 418.400000
6039 13997 7687 1 109.50000 418.400000
6039 13997 8372 1 109.50000 418.400000
7687 13997 8372 1 109.50000 418.400000
1985 13998 5388 1 109.50000 418.400000
1985 13998 8374 1 109.50000 418.400000
1985 13998 8375 1 109.50000 418.400000
5388 13998 8374 1 109.50000 418.400000
5388 13998 8375 1 109.50000 418.400000
8374 13998 8375 1 109.50000 418.400000
359 13999 1686 1 109.50000 418.400000
359 13999 1687 1 109.50000 418.400000
359 13999 8377 1 109.50000 418.400000
1686 13999 1687 1 109.50000 418.400000
1686 13999 8377 1 109.50000 418.400000
1687 13999 8377 1 109.50000 418.400000
2521 14000 5750 1 109.50000 418.400000
2521 14000 5770 1 109.50000 418.400000
2521 14000 8378 1 109.50000 418.400000
5750 14000 5770 1 109.50000 418.400000
5750 14000 8378 1 109.50000 418.400000
5770 14000 8378 1 109.50000 418.400000
2797 14001 4346 1 109.50000 418.400000
2797 14001 8379 1 109.50000 418.400000
2797 14001 8380 1 109.50000 418.400000
4346 14001 8379 1 109.50000 418.400000
4346 14001 8380 1 109.50000 418.400000
8379 14001 8380 1 109.50000 418.400000
767 14002 1936 1 109.50000 418.400000
767 14002 8382 1 109.50000 418.400000
767 14002 8383 1 109.50000 418.400000
1936 14002 8382 1 109.50000 418.400000
1936 14002 8383 1 109.50000 418.400000
8382 14002 8383 1 109.50000 418.400000
256 14003 1827 1 109.50000 418.400000
256 14003 6834 1 109.50000 418.400000
256 14003 8384 1 109.50000 418.400000
1827 14003 6834 1 109.50000 418.400000
1827 14003 8384 1 109.50000 418.400000
6834 14003 8384 1 109.50000 418.400000
480 14004 5688 1 109.50000 418.400000
480 14004 8010 1 109.50000 418.400000
480 14004 8385 1 109.50000 418.400000
5688 14004 8010 1 109.50000 418.400000
5688 14004 8385 1 109.50000 418.400000
8010 14004 8385 1 109.50000 418.400000
3722 14005 8386 1 109.50000 418.400000
3722 14005 8387 1 109.50000 418.400000
3722 14005 8388 1 109.50000 418.400000
8386 14005 8387 1 109.50000 418.400000
8386 14005 8388 1 109.50000 418.400000
8387 14005 8388 1 109.50000 418.400000
1752 14006 5552 1 109.50000 418.400000
1752 14006 7255 1 109.50000 418.400000
1752 14006 8389 1 109.50000 418.400000
5552 14006 7255 1 109.50000 418.400000
5552 14006 8389 1 109.50000 418.400000
7255 14006 8389 1 109.50000 418.400000
6234 14007 8390 1 109.50000 418.400000
6234 14007 8391 1 109.50000 418.400000
6234 14007 10272 1 109.50000 418.400000
8390 14007 8391 1 109.50000 418.400000
8390 14007 10272 1 109.50000 418.400000
8391 14007 10272 1 109.50000 418.400000
3656 14008 5310 1 109.50000 418.400000
3656 14008 8392 1 109.50000 418.400000
3656 14008 8393 1 109.50000 418.400000
5310 14008 8392 1 109.50000 418.400000
5310 14008 8393 1 109.50000 418.400000
8392 14008 8393 1 109.50000 418.400000
4851 14009 8394 1 109.50000 418.400000
4851 14009 8395 1 109.50000 418.400000
4851 14009 8396 1 109.50000 418.400000
8394 14009 8395 1 109.50000 418.400000
8394 14009 8396 1 109.50000 418.400000
8395 14009 8396 1 109.50000 418.400000
1794 14010 6524 1 109.50000 418.400000
1794 14010 8397 1 109.50000 418.400000
1794 14010 8398 1 109.50000 418.400000
6524 14010 8397 1 109.50000 418.400000
6524 14010 8398 1 109.50000 418.400000
8397 14010 8398 1 109.50000 418.400000
53 14011 6471 1 109.50000 418.400000
53 14011 8399 1 109.50000 418.400000
53 14011 8400 1 109.50000 418.400000
6471 14011 8399 1 109.50000 418.400000
6471 14011 8400 1 109.50000 418.400000
8399 14011 8400 1 109.50000 418.400000
492 14012 5751 1 109.50000 418.400000
492 14012 8401 1 109.50000 418.400000
492 14012 8402 1 109.50000 418.400000
5751 14012 8401 1 109.50000 418.400000
5751 14012 8402 1 109.50000 418.400000
8401 14012 8402 1 109.50000 418.400000
229 14013 4242 1 109.50000 418.400000
229 14013 6526 1 109.50000 418.400000
229 14013 7153 1 109.50000 418.400000
4242 14013 6526 1 109.50000 418.400000
4242 14013 7153 1 109.50000 418.400000
6526 14013 7153 1 109.50000 418.400000
1556 14014 1892 1 109.50000 418.400000
1556 14014 1894 1 109.50000 418.400000
1556 14014 8403 1 109.50000 418.400000
1892 14014 1894 1 109.50000 418.400000
1892 14014 8403 1 109.50000 418.400000
1894 14014 8403 1 109.50000 418.400000
2494 14015 6827 1 109.50000 418.400000
2494 14015 11286 1 109.50000 418.400000
2494 14015 11369 1 109.50000 418.400000
6827 14015 11286 1 109.50000 418.400000
6827 14015 11369 1 109.50000 418.400000
11286 14015 11369 1 109.50000 418.400000
3335 14016 7913 1 109.50000 418.400000
3335 14016 8406 1 109.50000 418.400000
3335 14016 8407 1 109.50000 418.400000
7913 14016 8406 1 109.50000 418.400000
7913 14016 8407 1 109.50000 418.400000
8406 14016 8407 1 109.50000 418.400000
8408 14017 8409 1 109.50000 418.400000
8408 14017 8410 1 109.50000 418.400000
8408 14017 9452 1 109.50000 418.400000
8409 14017 8410 1 109.50000 418.400000
8409 14017 9452 1 109.50000 418.400000
8410 14017 9452 1 109.50000 418.400000
4315 14018 5789 1 109.50000 418.400000
4315 14018 8411 1 109.50000 418.400000
4315 14018 10028 1 109.50000 418.400000
5789 14018 8411 1 109.50000 418.400000
5789 14018 10028 1 109.50000 418.400000
8411 14018 10028 1 109.50000 418.400000
723 14019 724 1 109.50000 418.400000
723 14019 8413 1 109.50000 418.400000
723 14019 8414 1 109.50000 418.400000
724 14019 8413 1 109.50000 418.400000
724 14019 8414 1 109.50000 418.400000
8413 14019 8414 1 109.50000 418.400000
4512 14020 8415 1 109.50000 418.400000
4512 14020 8416 1 109.50000 418.400000
4512 14020 8417 1 109.50000 418.400000
8415 14020 8416 1 109.50000 418.400000
8415 14020 8417 1 109.50000 418.400000
8416 14020 8417 1 109.50000 418.400000
7428 14021 8418 1 109.50000 418.400000
7428 14021 8419 1 109.50000 418.400000
7428 14021 8420 1 109.50000 418.400000
8418 14021 8419 1 109.50000 418.400000
8418 14021 8420 1 109.50000 418.400000
8419 14021 8420 1 109.50000 418.400000
3384 14022 5223 1 109.50000 418.400000
3384 14022 5224 1 109.50000 418.400000
3384 14022 8422 1 109.50000 418.400000
5223 14022 5224 1 109.50000 418.400000
5223 14022 8422 1 109.50000 418.400000
5224 14022 8422 1 109.50000 418.400000
8367 14023 8423 1 109.50000 418.400000
8367 14023 8424 1 109.50000 418.400000
8367 14023 8425 1 109.50000 418.400000
8423 14023 8424 1 109.50000 418.400000
8423 14023 8425 1 109.50000 418.400000
8424 14023 8425 1 109.50000 418.400000
1018 14024 7611 1 109.50000 418.400000
1018 14024 7812 1 109.50000 418.400000
1018 14024 8427 1 109.50000 418.400000
7611 14024 7812 1 109.50000 418.400000
7611 14024 8427 1 109.50000 418.400000
7812 14024 8427 1 109.50000 418.400000
3883 14025 5131 1 109.50000 418.400000
3883 14025 8430 1 109.50000 418.400000
3883 14025 8431 1 109.50000 418.400000
5131 14025 8430 1 109.50000 418.400000
5131 14025 8431 1 109.50000 418.400000
8430 14025 8431 1 109.50000 418.400000
7569 14026 7968 1 109.50000 418.400000
7569 14026 8432 1 109.50000 418.400000
7569 14026 8433 1 109.50000 418.400000
7968 14026 8432 1 109.50000 418.400000
7968 14026 8433 1 109.50000 418.400000
8432 14026 8433 1 109.50000 418.400000
1151 14027 7600 1 109.50000 418.400000
1151 14027 8434 1 109.50000 418.400000
1151 14027 8435 1 109.50000 418.400000
7600 14027 8434 1 109.50000 418.400000
7600 14027 8435 1 109.50000 418.400000
8434 14027 8435 1 109.50000 418.400000
887 14028 8369 1 109.50000 418.400000
887 14028 8438 1 109.50000 418.400000
887 14028 8439 1 109.50000 418.400000
8369 14028 8438 1 109.50000 418.400000
8369 14028 8439 1 109.50000 418.400000
8438 14028 8439 1 109.50000 418.400000
3941 14029 4544 1 109.50000 418.400000
3941 14029 8440 1 109.50000 418.400000
3941 14029 8441 1 109.50000 418.400000
4544 14029 8440 1 109.50000 418.400000
4544 14029 8441 1 109.50000 418.400000
8440 14029 8441 1 109.50000 418.400000
4828 14030 5309 1 109.50000 418.400000
4828 14030 7694 1 109.50000 418.400000
4828 14030 8442 1 109.50000 418.400000
5309 14030 7694 1 109.50000 418.400000
5309 14030 8442 1 109.50000 418.400000
7694 14030 8442 1 109.50000 418.400000
809 14031 2792 1 109.50000 418.400000
809 14031 8151 1 109.50000 418.400000
809 14031 8443 1 109.50000 418.400000
2792 14031 8151 1 109.50000 418.400000
2792 14031 8443 1 109.50000 418.400000
8151 14031 8443 1 109.50000 418.400000
1737 14032 5982 1 109.50000 418.400000
1737 14032 8444 1 109.50000 418.400000
1737 14032 10296 1 109.50000 418.400000
5982 14032 8444 1 109.50000 418.400000
5982 14032 10296 1 109.50000 418.400000
8444 14032 10296 1 109.50000 418.400000
2120 14033 8445 1 109.50000 418.400000
2120 14033 8446 1 109.50000 418.400000
2120 14033 8447 1 109.50000 418.400000
8445 14033 8446 1 109.50000 418.400000
8445 14033 8447 1 109.50000 418.400000
8446 14033 8447 1 109.50000 418.400000
1255 14034 4993 1 109.50000 418.400000
1255 14034 8448 1 109.50000 418.400000
1255 14034 8449 1 109.50000 418.400000
4993 14034 8448 1 109.50000 418.400000
4993 14034 8449 1 109.50000 418.400000
8448 14034 8449 1 109.50000 418.400000
8451 14035 8452 1 109.50000 418.400000
8451 14035 8453 1 109.50000 418.400000
8451 14035 10489 1 109.50000 418.400000
8452 14035 8453 1 109.50000 418.400000
8452 14035 10489 1 109.50000 418.400000
8453 14035 10489 1 109.50000 418.400000
40 14036 3667 1 109.50000 418.400000
40 14036 5549 1 109.50000 418.400000
40 14036 8455 1 109.50000 418.400000
3667 14036 5549 1 109.50000 418.400000
3667 14036 8455 1 109.50000 418.400000
5549 14036 8455 1 109.50000 418.400000
2182 14037 5336 1 109.50000 418.400000
2182 14037 5337 1 109.50000 418.400000
2182 14037 8193 1 109.50000 418.400000
5336 14037 5337 1 109.50000 418.400000
5336 14037 8193 1 109.50000 418.400000
5337 14037 8193 1 109.50000 418.400000
1785 14038 3637 1 109.50000 418.400000
1785 14038 8457 1 109.50000 418.400000
1785 14038 8458 1 109.50000 418.400000
3637 14038 8457 1 109.50000 418.400000
3637 14038 8458 1 109.50000 418.400000
8457 14038 8458 1 109.50000 418.400000
3714 14039 3955 1 109.50000 418.400000
3714 14039 7185 1 109.50000 418.400000
3714 14039 8460 1 109.50000 418.400000
3955 14039 7185 1 109.50000 418.400000
3955 14039 8460 1 109.50000 418.400000
7185 14039 8460 1 109.50000 418.400000
57 14040 8462 1 109.50000 418.400000
57 14040 8463 1 109.50000 418.400000
57 14040 8464 1 109.50000 418.400000
8462 14040 8463 1 109.50000 418.400000
8462 14040 8464 1 109.50000 418.400000
8463 14040 8464 1 109.50000 418.400000
158 14041 5937 1 109.50000 418.400000
158 14041 8465 1 109.50000 418.400000
158 14041 8466 1 109.50000 418.400000
5937 14041 8465 1 109.50000 418.400000
5937 14041 8466 1 109.50000 418.400000
8465 14041 8466 1 109.50000 418.400000
1564 14042 5066 1 109.50000 418.400000
1564 14042 6326 1 109.50000 418.400000
1564 14042 8467 1 109.50000 418.400000
5066 14042 6326 1 109.50000 418.400000
5066 14042 8467 1 109.50000 418.400000
6326 14042 8467 1 109.50000 418.400000
8468 14043 8469 1 109.50000 418.400000
8468 14043 8470 1 109.50000 418.400000
8468 14043 8471 1 109.50000 418.400000
8469 14043 8470 1 109.50000 418.400000
8469 14043 8471 1 109.50000 418.400000
8470 14043 8471 1 109.50000 418.400000
2766 14044 3469 1 109.50000 418.400000
2766 14044 6723 1 109.50000 418.400000
2766 14044 8472 1 109.50000 418.400000
3469 14044 6723 1 109.50000 418.400000
3469 14044 8472 1 109.50000 418.400000
6723 14044 8472 1 109.50000 418.400000
1365 14045 5944 1 109.50000 418.400000
1365 14045 7058 1 109.50000 418.400000
1365 14045 7397 1 109.50000 418.400000
5944 14045 7058 1 109.50000 418.400000
5944 14045 7397 1 109.50000 418.400000
7058 14045 7397 1 109.50000 418.400000
1336 14046 6940 1 109.50000 418.400000
1336 14046 7618 1 109.50000 418.400000
1336 14046 8475 1 109.50000 418.400000
6940 14046 7618 1 109.50000 418.400000
6940 14046 8475 1 109.50000 418.400000
7618 14046 8475 1 109.50000 418.400000
4655 14047 7737 1 109.50000 418.400000
4655 14047 8476 1 109.50000 418.400000
4655 14047 8477 1 109.50000 418.400000
7737 14047 8476 1 109.50000 418.400000
7737 14047 8477 1 109.50000 418.400000
8476 14047 8477 1 109.50000 418.400000
5729 14048 8478 1 109.50000 418.400000
5729 14048 8479 1 109.50000 418.400000
5729 14048 8480 1 109.50000 418.400000
8478 14048 8479 1 109.50000 418.400000
8478 14048 8480 1 109.50000 418.400000
8479 14048 8480 1 109.50000 418.400000
5250 14049 6998 1 109.50000 418.400000
5250 14049 8481 1 109.50000 418.400000
5250 14049 8482 1 109.50000 418.400000
6998 14049 8481 1 109.50000 418.400000
6998 14049 8482 1 109.50000 418.400000
8481 14049 8482 1 109.50000 418.400000
2973 14050 3357 1 109.50000 418.400000
2973 14050 3359 1 109.50000 418.400000
2973 14050 8483 1 109.50000 418.400000
3357 14050 3359 1 109.50000 418.400000
3357 14050 8483 1 109.50000 418.400000
3359 14050 8483 1 109.50000 418.400000
4402 14051 5663 1 109.50000 418.400000
4402 14051 8484 1 109.50000 418.400000
4402 14051 8485 1 109.50000 418.400000
5663 14051 8484 1 109.50000 418.400000
5663 14051 8485 1 109.50000 418.400000
8484 14051 8485 1 109.50000 418.400000
3433 14052 8486 1 109.50000 418.400000
3433 14052 8487 1 109.50000 418.400000
3433 14052 8488 1 109.50000 418.400000
8486 14052 8487 1 109.50000 418.400000
8486 14052 8488 1 109.50000 418.400000
8487 14052 8488 1 109.50000 418.400000
3334 14053 8489 1 109.50000 418.400000
3334 14053 8490 1 109.50000 418.400000
3334 14053 8491 1 109.50000 418.400000
8489 14053 8490 1 109.50000 418.400000
8489 14053 8491 1 109.50000 418.400000
8490 14053 8491 1 109.50000 418.400000
5040 14054 7525 1 109.50000 418.400000
5040 14054 8493 1 109.50000 418.400000
5040 14054 8494 1 109.50000 418.400000
7525 14054 8493 1 109.50000 418.400000
7525 14054 8494 1 109.50000 418.400000
8493 14054 8494 1 109.50000 418.400000
4823 14055 7480 1 109.50000 418.400000
4823 14055 8495 1 109.50000 418.400000
4823 14055 8496 1 109.50000 418.400000
7480 14055 8495 1 109.50000 418.400000
7480 14055 8496 1 109.50000 418.400000
8495 14055 8496 1 109.50000 418.400000
7637 14056 8498 1 109.50000 418.400000
7637 14056 8500 1 109.50000 418.400000
7637 14056 10407 1 109.50000 418.400000
8498 14056 8500 1 109.50000 418.400000
8498 14056 10407 1 109.50000 418.400000
8500 14056 10407 1 109.50000 418.400000
7298 14057 8502 1 109.50000 418.400000
7298 14057 8503 1 109.50000 418.400000
7298 14057 8504 1 109.50000 418.400000
8502 14057 8503 1 109.50000 418.400000
8502 14057 8504 1 109.50000 418.400000
8503 14057 8504 1 109.50000 418.400000
3133 14058 3134 1 109.50000 418.400000
3133 14058 3135 1 109.50000 418.400000
3133 14058 5068 1 109.50000 418.400000
3134 14058 3135 1 109.50000 418.400000
3134 14058 5068 1 109.50000 418.400000
3135 14058 5068 1 109.50000 418.400000
3415 14059 8257 1 109.50000 418.400000
3415 14059 8507 1 109.50000 418.400000
3415 14059 10406 1 109.50000 418.400000
8257 14059 8507 1 109.50000 418.400000
8257 14059 10406 1 109.50000 418.400000
8507 14059 10406 1 109.50000 418.400000
3708 14060 8508 1 109.50000 418.400000
3708 14060 8509 1 109.50000 418.400000
3708 14060 8510 1 109.50000 418.400000
8508 14060 8509 1 109.50000 418.400000
8508 14060 8510 1 109.50000 418.400000
8509 14060 8510 1 109.50000 418.400000
3914 14061 4325 1 109.50000 418.400000
3914 14061 6721 1 109.50000 418.400000
3914 14061 11356 1 109.50000 418.400000
4325 14061 6721 1 109.50000 418.400000
4325 14061 11356 1 109.50000 418.400000
6721 14061 11356 1 109.50000 418.400000
898 14062 1403 1 109.50000 418.400000
898 14062 1405 1 109.50000 418.400000
898 14062 8513 1 109.50000 418.400000
1403 14062 1405 1 109.50000 418.400000
1403 14062 8513 1 109.50000 418.400000
1405 14062 8513 1 109.50000 418.400000
2401 14063 8514 1 109.50000 418.400000
2401 14063 8515 1 109.50000 418.400000
2401 14063 8516 1 109.50000 418.400000
8514 14063 8515 1 109.50000 418.400000
8514 14063 8516 1 109.50000 418.400000
8515 14063 8516 1 109.50000 418.400000
447 14064 3811 1 109.50000 418.400000
447 14064 4226 1 109.50000 418.400000
447 14064 8517 1 109.50000 418.400000
3811 14064 4226 1 109.50000 418.400000
3811 14064 8517 1 109.50000 418.400000
4226 14064 8517 1 109.50000 418.400000
975 14065 2445 1 109.50000 418.400000
975 14065 8518 1 109.50000 418.400000
975 14065 11193 1 109.50000 418.400000
2445 14065 8518 1 109.50000 418.400000
2445 14065 11193 1 109.50000 418.400000
8518 14065 11193 1 109.50000 418.400000
3076 14066 8078 1 109.50000 418.400000
3076 14066 8445 1 109.50000 418.400000
3076 14066 8519 1 109.50000 418.400000
8078 14066 8445 1 109.50000 418.400000
8078 14066 8519 1 109.50000 418.400000
8445 14066 8519 1 109.50000 418.400000
3144 14067 8521 1 109.50000 418.400000
3144 14067 8522 1 109.50000 418.400000
3144 14067 10638 1 109.50000 418.400000
8521 14067 8522 1 109.50000 418.400000
8521 14067 10638 1 109.50000 418.400000
8522 14067 10638 1 109.50000 418.400000
259 14068 8163 1 109.50000 418.400000
259 14068 8523 1 109.50000 418.400000
259 14068 8524 1 109.50000 418.400000
8163 14068 8523 1 109.50000 418.400000
8163 14068 8524 1 109.50000 418.400000
8523 14068 8524 1 109.50000 418.400000
235 14069 236 1 109.50000 418.400000
235 14069 237 1 109.50000 418.400000
235 14069 238 1 109.50000 418.400000
236 14069 237 1 109.50000 418.400000
236 14069 238 1 109.50000 418.400000
237 14069 238 1 109.50000 418.400000
6903 14070 8353 1 109.50000 418.400000
6903 14070 8528 1 109.50000 418.400000
6903 14070 8529 1 109.50000 418.400000
8353 14070 8528 1 109.50000 418.400000
8353 14070 8529 1 109.50000 418.400000
8528 14070 8529 1 109.50000 418.400000
683 14071 685 1 109.50000 418.400000
683 14071 8530 1 109.50000 418.400000
683 14071 8531 1 109.50000 418.400000
685 14071 8530 1 109.50000 418.400000
685 14071 8531 1 109.50000 418.400000
8530 14071 8531 1 109.50000 418.400000
1675 14072 8532 1 109.50000 418.400000
1675 14072 8533 1 109.50000 418.400000
1675 14072 8534 1 109.50000 418.400000
8532 14072 8533 1 109.50000 418.400000
8532 14072 8534 1 109.50000 418.400000
8533 14072 8534 1 109.50000 418.400000
4442 14073 8535 1 109.50000 418.400000
4442 14073 8536 1 109.50000 418.400000
4442 14073 8537 1 109.50000 418.400000
8535 14073 8536 1 109.50000 418.400000
8535 14073 8537 1 109.50000 418.400000
8536 14073 8537 1 109.50000 418.400000
1799 14074 8506 1 109.50000 418.400000
1799 14074 8538 1 109.50000 418.400000
1799 14074 8539 1 109.50000 418.400000
8506 14074 8538 1 109.50000 418.400000
8506 14074 8539 1 109.50000 418.400000
8538 14074 8539 1 109.50000 418.400000
1087 14075 8540 1 109.50000 418.400000
1087 14075 8541 1 109.50000 418.400000
1087 14075 8542 1 109.50000 418.400000
8540 14075 8541 1 109.50000 418.400000
8540 14075 8542 1 109.50000 418.400000
8541 14075 8542 1 109.50000 418.400000
567 14076 8543 1 109.50000 418.400000
567 14076 8544 1 109.50000 418.400000
567 14076 8545 1 109.50000 418.400000
8543 14076 8544 1 109.50000 418.400000
8543 14076 8545 1 109.50000 418.400000
8544 14076 8545 1 109.50000 418.400000
421 14077 4011 1 109.50000 418.400000
421 14077 8343 1 109.50000 418.400000
421 14077 8546 1 109.50000 418.400000
4011 14077 8343 1 109.50000 418.400000
4011 14077 8546 1 109.50000 418.400000
8343 14077 8546 1 109.50000 418.400000
4212 14078 8547 1 109.50000 418.400000
4212 14078 8548 1 109.50000 418.400000
4212 14078 8549 1 109.50000 418.400000
8547 14078 8548 1 109.50000 418.400000
8547 14078 8549 1 109.50000 418.400000
8548 14078 8549 1 109.50000 418.400000
565 14079 8551 1 109.50000 418.400000
565 14079 8552 1 109.50000 418.400000
565 14079 8553 1 109.50000 418.400000
8551 14079 8552 1 109.50000 418.400000
8551 14079 8553 1 109.50000 418.400000
8552 14079 8553 1 109.50000 418.400000
1948 14080 6145 1 109.50000 418.400000
1948 14080 6146 1 109.50000 418.400000
1948 14080 6147 1 109.50000 418.400000
6145 14080 6146 1 109.50000 418.400000
6145 14080 6147 1 109.50000 418.400000
6146 14080 6147 1 109.50000 418.400000
7075 14081 7999 1 109.50000 418.400000
7075 14081 8554 1 109.50000 418.400000
7075 14081 8555 1 109.50000 418.400000
7999 14081 8554 1 109.50000 418.400000
7999 14081 8555 1 109.50000 418.400000
8554 14081 8555 1 109.50000 418.400000
6370 14082 8007 1 109.50000 418.400000
6370 14082 8556 1 109.50000 418.400000
6370 14082 8557 1 109.50000 418.400000
8007 14082 8556 1 109.50000 418.400000
8007 14082 8557 1 109.50000 418.400000
8556 14082 8557 1 109.50000 418.400000
4453 14083 4712 1 109.50000 418.400000
4453 14083 8558 1 109.50000 418.400000
4453 14083 8559 1 109.50000 418.400000
4712 14083 8558 1 109.50000 418.400000
4712 14083 8559 1 109.50000 418.400000
8558 14083 8559 1 109.50000 418.400000
5758 14084 8338 1 109.50000 418.400000
5758 14084 8560 1 109.50000 418.400000
5758 14084 8561 1 109.50000 418.400000
8338 14084 8560 1 109.50000 418.400000
8338 14084 8561 1 109.50000 418.400000
8560 14084 8561 1 109.50000 418.400000
2733 14085 8562 1 109.50000 418.400000
2733 14085 11163 1 109.50000 418.400000
2733 14085 11192 1 109.50000 418.400000
8562 14085 11163 1 109.50000 418.400000
8562 14085 11192 1 109.50000 418.400000
11163 14085 11192 1 109.50000 418.400000
2512 14086 7876 1 109.50000 418.400000
2512 14086 8414 1 109.50000 418.400000
2512 14086 8563 1 109.50000 418.400000
7876 14086 8414 1 109.50000 418.400000
7876 14086 8563 1 109.50000 418.400000
8414 14086 8563 1 109.50000 418.400000
192 14087 6424 1 109.50000 418.400000
192 14087 8564 1 109.50000 418.400000
192 14087 8565 1 109.50000 418.400000
6424 14087 8564 1 109.50000 418.400000
6424 14087 8565 1 109.50000 418.400000
8564 14087 8565 1 109.50000 418.400000
705 14088 6707 1 109.50000 418.400000
705 14088 6769 1 109.50000 418.400000
705 14088 8566 1 109.50000 418.400000
6707 14088 6769 1 109.50000 418.400000
6707 14088 8566 1 109.50000 418.400000
6769 14088 8566 1 109.50000 418.400000
1883 14089 5101 1 109.50000 418.400000
1883 14089 8171 1 109.50000 418.400000
1883 14089 8567 1 109.50000 418.400000
5101 14089 8171 1 109.50000 418.400000
5101 14089 8567 1 109.50000 418.400000
8171 14089 8567 1 109.50000 418.400000
5752 14090 6385 1 109.50000 418.400000
5752 14090 8568 1 109.50000 418.400000
5752 14090 8569 1 109.50000 418.400000
6385 14090 8568 1 109.50000 418.400000
6385 14090 8569 1 109.50000 418.400000
8568 14090 8569 1 109.50000 418.400000
5541 14091 8570 1 109.50000 418.400000
5541 14091 8571 1 109.50000 418.400000
5541 14091 8572 1 109.50000 418.400000
8570 14091 8571 1 109.50000 418.400000
8570 14091 8572 1 109.50000 418.400000
8571 14091 8572 1 109.50000 418.400000
642 14092 4906 1 109.50000 418.400000
642 14092 7467 1 109.50000 418.400000
642 14092 8100 1 109.50000 418.400000
4906 14092 7467 1 109.50000 418.400000
4906 14092 8100 1 109.50000 418.400000
7467 14092 8100 1 109.50000 418.400000
5440 14093 8573 1 109.50000 418.400000
5440 14093 8574 1 109.50000 418.400000
5440 14093 11204 1 109.50000 418.400000
8573 14093 8574 1 109.50000 418.400000
8573 14093 11204 1 109.50000 418.400000
8574 14093 11204 1 109.50000 418.400000
2530 14094 4395 1 109.50000 418.400000
2530 14094 8318 1 109.50000 418.400000
2530 14094 8575 1 109.50000 418.400000
4395 14094 8318 1 109.50000 418.400000
4395 14094 8575 1 109.50000 418.400000
8318 14094 8575 1 109.50000 418.400000
8576 14095 8577 1 109.50000 418.400000
8576 14095 8578 1 109.50000 418.400000
8576 14095 8579 1 109.50000 418.400000
8577 14095 8578 1 109.50000 418.400000
8577 14095 8579 1 109.50000 418.400000
8578 14095 8579 1 109.50000 418.400000
1545 14096 7839 1 109.50000 418.400000
1545 14096 8580 1 109.50000 418.400000
1545 14096 8581 1 109.50000 418.400000
7839 14096 8580 1 109.50000 418.400000
7839 14096 8581 1 109.50000 418.400000
8580 14096 8581 1 109.50000 418.400000
2306 14097 5192 1 109.50000 418.400000
2306 14097 6231 1 109.50000 418.400000
2306 14097 8582 1 109.50000 418.400000
5192 14097 6231 1 109.50000 418.400000
5192 14097 8582 1 109.50000 418.400000
6231 14097 8582 1 109.50000 418.400000
8583 14098 8584 1 109.50000 418.400000
8583 14098 8585 1 109.50000 418.400000
8583 14098 10727 1 109.50000 418.400000
8584 14098 8585 1 109.50000 418.400000
8584 14098 10727 1 109.50000 418.400000
8585 14098 10727 1 109.50000 418.400000
5568 14099 6462 1 109.50000 418.400000
5568 14099 8586 1 109.50000 418.400000
5568 14099 8587 1 109.50000 418.400000
6462 14099 8586 1 109.50000 418.400000
6462 14099 8587 1 109.50000 418.400000
8586 14099 8587 1 109.50000 418.400000
798 14100 4736 1 109.50000 418.400000
798 14100 8588 1 109.50000 418.400000
798 14100 8589 1 109.50000 418.400000
4736 14100 8588 1 109.50000 418.400000
4736 14100 8589 1 109.50000 418.400000
8588 14100 8589 1 109.50000 418.400000
1371 14101 8590 1 109.50000 418.400000
1371 14101 8591 1 109.50000 418.400000
1371 14101 8592 1 109.50000 418.400000
8590 14101 8591 1 109.50000 418.400000
8590 14101 8592 1 109.50000 418.400000
8591 14101 8592 1 109.50000 418.400000
5445 14102 5446 1 109.50000 418.400000
5445 14102 8594 1 109.50000 418.400000
5445 14102 8595 1 109.50000 418.400000
5446 14102 8594 1 109.50000 418.400000
5446 14102 8595 1 109.50000 418.400000
8594 14102 8595 1 109.50000 418.400000
273 14103 8596 1 109.50000 418.400000
273 14103 8597 1 109.50000 418.400000
273 14103 8598 1 109.50000 418.400000
8596 14103 8597 1 109.50000 418.400000
8596 14103 8598 1 109.50000 418.400000
8597 14103 8598 1 109.50000 418.400000
8068 14104 8599 1 109.50000 418.400000
8068 14104 8600 1 109.50000 418.400000
8068 14104 8601 1 109.50000 418.400000
8599 14104 8600 1 109.50000 418.400000
8599 14104 8601 1 109.50000 418.400000
8600 14104 8601 1 109.50000 418.400000
7823 14105 8244 1 109.50000 418.400000
7823 14105 8602 1 109.50000 418.400000
7823 14105 8603 1 109.50000 418.400000
8244 14105 8602 1 109.50000 418.400000
8244 14105 8603 1 109.50000 418.400000
8602 14105 8603 1 109.50000 418.400000
2359 14106 3926 1 109.50000 418.400000
2359 14106 6933 1 109.50000 418.400000
2359 14106 8125 1 109.50000 418.400000
3926 14106 6933 1 109.50000 418.400000
3926 14106 8125 1 109.50000 418.400000
6933 14106 8125 1 109.50000 418.400000
1249 14107 5587 1 109.50000 418.400000
1249 14107 6876 1 109.50000 418.400000
1249 14107 8604 1 109.50000 418.400000
5587 14107 6876 1 109.50000 418.400000
5587 14107 8604 1 109.50000 418.400000
6876 14107 8604 1 109.50000 418.400000
8605 14108 8606 1 109.50000 418.400000
8605 14108 8607 1 109.50000 418.400000
8605 14108 8608 1 109.50000 418.400000
8606 14108 8607 1 109.50000 418.400000
8606 14108 8608 1 109.50000 418.400000
8607 14108 8608 1 109.50000 418.400000
169 14109 7251 1 109.50000 418.400000
169 14109 7252 1 109.50000 418.400000
169 14109 8609 1 109.50000 418.400000
7251 14109 7252 1 109.50000 418.400000
7251 14109 8609 1 109.50000 418.400000
7252 14109 8609 1 109.50000 418.400000
1911 14110 1912 1 109.50000 418.400000
1911 14110 8610 1 109.50000 418.400000
1911 14110 8611 1 109.50000 418.400000
1912 14110 8610 1 109.50000 418.400000
1912 14110 8611 1 109.50000 418.400000
8610 14110 8611 1 109.50000 418.400000
6155 14111 7907 1 109.50000 418.400000
6155 14111 8613 1 109.50000 418.400000
6155 14111 8614 1 109.50000 418.400000
7907 14111 8613 1 109.50000 418.400000
7907 14111 8614 1 109.50000 418.400000
8613 14111 8614 1 109.50000 418.400000
6228 14112 8041 1 109.50000 418.400000
6228 14112 8615 1 109.50000 418.400000
6228 14112 8616 1 109.50000 418.400000
8041 14112 8615 1 109.50000 418.400000
8041 14112 8616 1 109.50000 418.400000
8615 14112 8616 1 109.50000 418.400000
8617 14113 8618 1 109.50000 418.400000
8617 14113 11215 1 109.50000 418.400000
8617 14113 11279 1 109.50000 418.400000
8618 14113 11215 1 109.50000 418.400000
8618 14113 11279 1 109.50000 418.400000
11215 14113 11279 1 109.50000 418.400000
5526 14114 8555 1 109.50000 418.400000
5526 14114 8619 1 109.50000 418.400000
5526 14114 8620 1 109.50000 418.400000
8555 14114 8619 1 109.50000 418.400000
8555 14114 8620 1 109.50000 418.400000
8619 14114 8620 1 109.50000 418.400000
671 14115 673 1 109.50000 418.400000
671 14115 8623 1 109.50000 418.400000
671 14115 8624 1 109.50000 418.400000
673 14115 8623 1 109.50000 418.400000
673 14115 8624 1 109.50000 418.400000
8623 14115 8624 1 109.50000 418.400000
1089 14116 1175 1 109.50000 418.400000
1089 14116 4769 1 109.50000 418.400000
1089 14116 8625 1 109.50000 418.400000
1175 14116 4769 1 109.50000 418.400000
1175 14116 8625 1 109.50000 418.400000
4769 14116 8625 1 109.50000 418.400000
8626 14117 8627 1 109.50000 418.400000
8626 14117 8628 1 109.50000 418.400000
8626 14117 8629 1 109.50000 418.400000
8627 14117 8628 1 109.50000 418.400000
8627 14117 8629 1 109.50000 418.400000
8628 14117 8629 1 109.50000 418.400000
5249 14118 6101 1 109.50000 418.400000
5249 14118 6759 1 109.50000 418.400000
5249 14118 8630 1 109.50000 418.400000
6101 14118 6759 1 109.50000 418.400000
6101 14118 8630 1 109.50000 418.400000
6759 14118 8630 1 109.50000 418.400000
6154 14119 8631 1 109.50000 418.400000
6154 14119 8632 1 109.50000 418.400000
6154 14119 8633 1 109.50000 418.400000
8631 14119 8632 1 109.50000 418.400000
8631 14119 8633 1 109.50000 418.400000
8632 14119 8633 1 109.50000 418.400000
2753 14120 3208 1 109.50000 418.400000
2753 14120 5620 1 109.50000 418.400000
2753 14120 8639 1 109.50000 418.400000
3208 14120 5620 1 109.50000 418.400000
3208 14120 8639 1 109.50000 418.400000
5620 14120 8639 1 109.50000 418.400000
1431 14121 3863 1 109.50000 418.400000
1431 14121 8640 1 109.50000 418.400000
1431 14121 10134 1 109.50000 418.400000
3863 14121 8640 1 109.50000 418.400000
3863 14121 10134 1 109.50000 418.400000
8640 14121 10134 1 109.50000 418.400000
1885 14122 5835 1 109.50000 418.400000
1885 14122 8641 1 109.50000 418.400000
1885 14122 8642 1 109.50000 418.400000
5835 14122 8641 1 109.50000 418.400000
5835 14122 8642 1 109.50000 418.400000
8641 14122 8642 1 109.50000 418.400000
1953 14123 7589 1 109.50000 418.400000
1953 14123 8643 1 109.50000 418.400000
1953 14123 8644 1 109.50000 418.400000
7589 14123 8643 1 109.50000 418.400000
7589 14123 8644 1 109.50000 418.400000
8643 14123 8644 1 109.50000 418.400000
3541 14124 4399 1 109.50000 418.400000
3541 14124 8645 1 109.50000 418.400000
3541 14124 8646 1 109.50000 418.400000
4399 14124 8645 1 109.50000 418.400000
4399 14124 8646 1 109.50000 418.400000
8645 14124 8646 1 109.50000 418.400000
6899 14125 8647 1 109.50000 418.400000
6899 14125 8648 1 109.50000 418.400000
6899 14125 11285 1 109.50000 418.400000
8647 14125 8648 1 109.50000 418.400000
8647 14125 11285 1 109.50000 418.400000
8648 14125 11285 1 109.50000 418.400000
1599 14126 1771 1 109.50000 418.400000
1599 14126 8649 1 109.50000 418.400000
1599 14126 8650 1 109.50000 418.400000
1771 14126 8649 1 109.50000 418.400000
1771 14126 8650 1 109.50000 418.400000
8649 14126 8650 1 109.50000 418.400000
1353 14127 5796 1 109.50000 418.400000
1353 14127 7943 1 109.50000 418.400000
1353 14127 8651 1 109.50000 418.400000
5796 14127 7943 1 109.50000 418.400000
5796 14127 8651 1 109.50000 418.400000
7943 14127 8651 1 109.50000 418.400000
3022 14128 4984 1 109.50000 418.400000
3022 14128 8386 1 109.50000 418.400000
3022 14128 8652 1 109.50000 418.400000
4984 14128 8386 1 109.50000 418.400000
4984 14128 8652 1 109.50000 418.400000
8386 14128 8652 1 109.50000 418.400000
2079 14129 3092 1 109.50000 418.400000
2079 14129 8653 1 109.50000 418.400000
2079 14129 8654 1 109.50000 418.400000
3092 14129 8653 1 109.50000 418.400000
3092 14129 8654 1 109.50000 418.400000
8653 14129 8654 1 109.50000 418.400000
2423 14130 5314 1 109.50000 418.400000
2423 14130 8655 1 109.50000 418.400000
2423 14130 8656 1 109.50000 418.400000
5314 14130 8655 1 109.50000 418.400000
5314 14130 8656 1 109.50000 418.400000
8655 14130 8656 1 109.50000 418.400000
349 14131 4436 1 109.50000 418.400000
349 14131 8231 1 109.50000 418.400000
349 14131 8659 1 109.50000 418.400000
4436 14131 8231 1 109.50000 418.400000
4436 14131 8659 1 109.50000 418.400000
8231 14131 8659 1 109.50000 418.400000
3226 14132 6832 1 109.50000 418.400000
3226 14132 8660 1 109.50000 418.400000
3226 14132 8661 1 109.50000 418.400000
6832 14132 8660 1 109.50000 418.400000
6832 14132 8661 1 109.50000 418.400000
8660 14132 8661 1 109.50000 418.400000
8662 14133 8663 1 109.50000 418.400000
8662 14133 8664 1 109.50000 418.400000
8662 14133 8665 1 109.50000 418.400000
8663 14133 8664 1 109.50000 418.400000
8663 14133 8665 1 109.50000 418.400000
8664 14133 8665 1 109.50000 418.400000
2810 14134 7035 1 109.50000 418.400000
2810 14134 8668 1 109.50000 418.400000
2810 14134 10862 1 109.50000 418.400000
7035 14134 8668 1 109.50000 418.400000
7035 14134 10862 1 109.50000 418.400000
8668 14134 10862 1 109.50000 418.400000
2931 14135 4113 1 109.50000 418.400000
2931 14135 7501 1 109.50000 418.400000
2931 14135 8669 1 109.50000 418.400000
4113 14135 7501 1 109.50000 418.400000
4113 14135 8669 1 109.50000 418.400000
7501 14135 8669 1 109.50000 418.400000
771 14136 4490 1 109.50000 418.400000
771 14136 8670 1 109.50000 418.400000
771 14136 8671 1 109.50000 418.400000
4490 14136 8670 1 109.50000 418.400000
4490 14136 8671 1 109.50000 418.400000
8670 14136 8671 1 109.50000 418.400000
2387 14137 4945 1 109.50000 418.400000
2387 14137 5421 1 109.50000 418.400000
2387 14137 8484 1 109.50000 418.400000
4945 14137 5421 1 109.50000 418.400000
4945 14137 8484 1 109.50000 418.400000
5421 14137 8484 1 109.50000 418.400000
3478 14138 7440 1 109.50000 418.400000
3478 14138 8672 1 109.50000 418.400000
3478 14138 11162 1 109.50000 418.400000
7440 14138 8672 1 109.50000 418.400000
7440 14138 11162 1 109.50000 418.400000
8672 14138 11162 1 109.50000 418.400000
2137 14139 2853 1 109.50000 418.400000
2137 14139 8673 1 109.50000 418.400000
2137 14139 8674 1 109.50000 418.400000
2853 14139 8673 1 109.50000 418.400000
2853 14139 8674 1 109.50000 418.400000
8673 14139 8674 1 109.50000 418.400000
832 14140 8476 1 109.50000 418.400000
832 14140 8528 1 109.50000 418.400000
832 14140 8628 1 109.50000 418.400000
8476 14140 8528 1 109.50000 418.400000
8476 14140 8628 1 109.50000 418.400000
8528 14140 8628 1 109.50000 418.400000
7612 14141 8675 1 109.50000 418.400000
7612 14141 8676 1 109.50000 418.400000
7612 14141 8677 1 109.50000 418.400000
8675 14141 8676 1 109.50000 418.400000
8675 14141 8677 1 109.50000 418.400000
8676 14141 8677 1 109.50000 418.400000
2856 14142 6536 1 109.50000 418.400000
2856 14142 8594 1 109.50000 418.400000
2856 14142 8678 1 109.50000 418.400000
6536 14142 8594 1 109.50000 418.400000
6536 14142 8678 1 109.50000 418.400000
8594 14142 8678 1 109.50000 418.400000
1506 14143 2943 1 109.50000 418.400000
1506 14143 8680 1 109.50000 418.400000
1506 14143 10884 1 109.50000 418.400000
2943 14143 8680 1 109.50000 418.400000
2943 14143 10884 1 109.50000 418.400000
8680 14143 10884 1 109.50000 418.400000
8681 14144 8682 1 109.50000 418.400000
8681 14144 8683 1 109.50000 418.400000
8681 14144 8684 1 109.50000 418.400000
8682 14144 8683 1 109.50000 418.400000
8682 14144 8684 1 109.50000 418.400000
8683 14144 8684 1 109.50000 418.400000
5028 14145 5781 1 109.50000 418.400000
5028 14145 5932 1 109.50000 418.400000
5028 14145 8685 1 109.50000 418.400000
5781 14145 5932 1 109.50000 418.400000
5781 14145 8685 1 109.50000 418.400000
5932 14145 8685 1 109.50000 418.400000
6935 14146 8686 1 109.50000 418.400000
6935 14146 8687 1 109.50000 418.400000
6935 14146 9384 1 109.50000 418.400000
8686 14146 8687 1 109.50000 418.400000
8686 14146 9384 1 109.50000 418.400000
8687 14146 9384 1 109.50000 418.400000
37 14147 5203 1 109.50000 418.400000
37 14147 8688 1 109.50000 418.400000
37 14147 8689 1 109.50000 418.400000
5203 14147 8688 1 109.50000 418.400000
5203 14147 8689 1 109.50000 418.400000
8688 14147 8689 1 109.50000 418.400000
1832 14148 7406 1 109.50000 418.400000
1832 14148 7799 1 109.50000 418.400000
1832 14148 8690 1 109.50000 418.400000
7406 14148 7799 1 109.50000 418.400000
7406 14148 8690 1 109.50000 418.400000
7799 14148 8690 1 109.50000 418.400000
8691 14149 8692 1 109.50000 418.400000
8691 14149 8693 1 109.50000 418.400000
8691 14149 8694 1 109.50000 418.400000
8692 14149 8693 1 109.50000 418.400000
8692 14149 8694 1 109.50000 418.400000
8693 14149 8694 1 109.50000 418.400000
747 14150 7297 1 109.50000 418.400000
747 14150 8211 1 109.50000 418.400000
747 14150 8695 1 109.50000 418.400000
7297 14150 8211 1 109.50000 418.400000
7297 14150 8695 1 109.50000 418.400000
8211 14150 8695 1 109.50000 418.400000
3833 14151 5545 1 109.50000 418.400000
3833 14151 8696 1 109.50000 418.400000
3833 14151 9940 1 109.50000 418.400000
5545 14151 8696 1 109.50000 418.400000
5545 14151 9940 1 109.50000 418.400000
8696 14151 9940 1 109.50000 418.400000
5304 14152 6528 1 109.50000 418.400000
5304 14152 7394 1 109.50000 418.400000
5304 14152 8697 1 109.50000 418.400000
6528 14152 7394 1 109.50000 418.400000
6528 14152 8697 1 109.50000 418.400000
7394 14152 8697 1 109.50000 418.400000
402 14153 6739 1 109.50000 418.400000
402 14153 8698 1 109.50000 418.400000
402 14153 8699 1 109.50000 418.400000
6739 14153 8698 1 109.50000 418.400000
6739 14153 8699 1 109.50000 418.400000
8698 14153 8699 1 109.50000 418.400000
6600 14154 8700 1 109.50000 418.400000
6600 14154 8701 1 109.50000 418.400000
6600 14154 11169 1 109.50000 418.400000
8700 14154 8701 1 109.50000 418.400000
8700 14154 11169 1 109.50000 418.400000
8701 14154 11169 1 109.50000 418.400000
649 14155 1639 1 109.50000 418.400000
649 14155 8702 1 109.50000 418.400000
649 14155 8703 1 109.50000 418.400000
1639 14155 8702 1 109.50000 418.400000
1639 14155 8703 1 109.50000 418.400000
8702 14155 8703 1 109.50000 418.400000
1798 14156 6143 1 109.50000 418.400000
1798 14156 8704 1 109.50000 418.400000
1798 14156 8705 1 109.50000 418.400000
6143 14156 8704 1 109.50000 418.400000
6143 14156 8705 1 109.50000 418.400000
8704 14156 8705 1 109.50000 418.400000
3482 14157 3579 1 109.50000 418.400000
3482 14157 8504 1 109.50000 418.400000
3482 14157 8706 1 109.50000 418.400000
3579 14157 8504 1 109.50000 418.400000
3579 14157 8706 1 109.50000 418.400000
8504 14157 8706 1 109.50000 418.400000
1398 14158 3999 1 109.50000 418.400000
1398 14158 6183 1 109.50000 418.400000
1398 14158 7603 1 109.50000 418.400000
3999 14158 6183 1 109.50000 418.400000
3999 14158 7603 1 109.50000 418.400000
6183 14158 7603 1 109.50000 418.400000
4249 14159 8707 1 109.50000 418.400000
4249 14159 8708 1 109.50000 418.400000
4249 14159 8709 1 109.50000 418.400000
8707 14159 8708 1 109.50000 418.400000
8707 14159 8709 1 109.50000 418.400000
8708 14159 8709 1 109.50000 418.400000
7706 14160 7905 1 109.50000 418.400000
7706 14160 8710 1 109.50000 418.400000
7706 14160 8711 1 109.50000 418.400000
7905 14160 8710 1 109.50000 418.400000
7905 14160 8711 1 109.50000 418.400000
8710 14160 8711 1 109.50000 418.400000
3113 14161 4742 1 109.50000 418.400000
3113 14161 7215 1 109.50000 418.400000
3113 14161 8712 1 109.50000 418.400000
4742 14161 7215 1 109.50000 418.400000
4742 14161 8712 1 109.50000 418.400000
7215 14161 8712 1 109.50000 418.400000
20 14162 1035 1 109.50000 418.400000
20 14162 8713 1 109.50000 418.400000
20 14162 8714 1 109.50000 418.400000
1035 14162 8713 1 109.50000 418.400000
1035 14162 8714 1 109.50000 418.400000
8713 14162 8714 1 109.50000 418.400000
2874 14163 6910 1 109.50000 418.400000
2874 14163 7025 1 109.50000 418.400000
2874 14163 8715 1 109.50000 418.400000
6910 14163 7025 1 109.50000 418.400000
6910 14163 8715 1 109.50000 418.400000
7025 14163 8715 1 109.50000 418.400000
3118 14164 8716 1 109.50000 418.400000
3118 14164 8717 1 109.50000 418.400000
3118 14164 8718 1 109.50000 418.400000
8716 14164 8717 1 109.50000 418.400000
8716 14164 8718 1 109.50000 418.400000
8717 14164 8718 1 109.50000 418.400000
706 14165 5985 1 109.50000 418.400000
706 14165 8719 1 109.50000 418.400000
706 14165 8720 1 109.50000 418.400000
5985 14165 8719 1 109.50000 418.400000
5985 14165 8720 1 109.50000 418.400000
8719 14165 8720 1 109.50000 418.400000
381 14166 5281 1 109.50000 418.400000
381 14166 8721 1 109.50000 418.400000
381 14166 8722 1 109.50000 418.400000
5281 14166 8721 1 109.50000 418.400000
5281 14166 8722 1 109.50000 418.400000
8721 14166 8722 1 109.50000 418.400000
2622 14167 8723 1 109.50000 418.400000
2622 14167 8724 1 109.50000 418.400000
2622 14167 8725 1 109.50000 418.400000
8723 14167 8724 1 109.50000 418.400000
8723 14167 8725 1 109.50000 418.400000
8724 14167 8725 1 109.50000 418.400000
2936 14168 8227 1 109.50000 418.400000
2936 14168 8726 1 109.50000 418.400000
2936 14168 8727 1 109.50000 418.400000
8227 14168 8726 1 109.50000 418.400000
8227 14168 8727 1 109.50000 418.400000
8726 14168 8727 1 109.50000 418.400000
3641 14169 8728 1 109.50000 418.400000
3641 14169 8729 1 109.50000 418.400000
3641 14169 8730 1 109.50000 418.400000
8728 14169 8729 1 109.50000 418.400000
8728 14169 8730 1 109.50000 418.400000
8729 14169 8730 1 109.50000 418.400000
1814 14170 7104 1 109.50000 418.400000
1814 14170 8287 1 109.50000 418.400000
1814 14170 8733 1 109.50000 418.400000
7104 14170 8287 1 109.50000 418.400000
7104 14170 8733 1 109.50000 418.400000
8287 14170 8733 1 109.50000 418.400000
967 14171 6867 1 109.50000 418.400000
967 14171 6869 1 109.50000 418.400000
967 14171 8734 1 109.50000 418.400000
6867 14171 6869 1 109.50000 418.400000
6867 14171 8734 1 109.50000 418.400000
6869 14171 8734 1 109.50000 418.400000
2655 14172 2844 1 109.50000 418.400000
2655 14172 8579 1 109.50000 418.400000
2655 14172 8736 1 109.50000 418.400000
2844 14172 8579 1 109.50000 418.400000
2844 14172 8736 1 109.50000 418.400000
8579 14172 8736 1 109.50000 418.400000
411 14173 7570 1 109.50000 418.400000
411 14173 7571 1 109.50000 418.400000
411 14173 8737 1 109.50000 418.400000
7570 14173 7571 1 109.50000 418.400000
7570 14173 8737 1 109.50000 418.400000
7571 14173 8737 1 109.50000 418.400000
7511 14174 8738 1 109.50000 418.400000
7511 14174 8739 1 109.50000 418.400000
7511 14174 8740 1 109.50000 418.400000
8738 14174 8739 1 109.50000 418.400000
8738 14174 8740 1 109.50000 418.400000
8739 14174 8740 1 109.50000 418.400000
5110 14175 7513 1 109.50000 418.400000
5110 14175 7514 1 109.50000 418.400000
5110 14175 8741 1 109.50000 418.400000
7513 14175 7514 1 109.50000 418.400000
7513 14175 8741 1 109.50000 418.400000
7514 14175 8741 1 109.50000 418.400000
3764 14176 7088 1 109.50000 418.400000
3764 14176 8742 1 109.50000 418.400000
3764 14176 8743 1 109.50000 418.400000
7088 14176 8742 1 109.50000 418.400000
7088 14176 8743 1 109.50000 418.400000
8742 14176 8743 1 109.50000 418.400000
486 14177 7797 1 109.50000 418.400000
486 14177 8744 1 109.50000 418.400000
486 14177 8745 1 109.50000 418.400000
7797 14177 8744 1 109.50000 418.400000
7797 14177 8745 1 109.50000 418.400000
8744 14177 8745 1 109.50000 418.400000
3397 14178 8419 1 109.50000 418.400000
3397 14178 8746 1 109.50000 418.400000
3397 14178 10677 1 109.50000 418.400000
8419 14178 8746 1 109.50000 418.400000
8419 14178 10677 1 109.50000 418.400000
8746 14178 10677 1 109.50000 418.400000
653 14179 3264 1 109.50000 418.400000
653 14179 7669 1 109.50000 418.400000
653 14179 8711 1 109.50000 418.400000
3264 14179 7669 1 109.50000 418.400000
3264 14179 8711 1 109.50000 418.400000
7669 14179 8711 1 109.50000 418.400000
2674 14180 8747 1 109.50000 418.400000
2674 14180 8748 1 109.50000 418.400000
2674 14180 8749 1 109.50000 418.400000
8747 14180 8748 1 109.50000 418.400000
8747 14180 8749 1 109.50000 418.400000
8748 14180 8749 1 109.50000 418.400000
618 14181 3405 1 109.50000 418.400000
618 14181 4704 1 109.50000 418.400000
618 14181 8750 1 109.50000 418.400000
3405 14181 4704 1 109.50000 418.400000
3405 14181 8750 1 109.50000 418.400000
4704 14181 8750 1 109.50000 418.400000
2391 14182 4154 1 109.50000 418.400000
2391 14182 4731 1 109.50000 418.400000
2391 14182 8751 1 109.50000 418.400000
4154 14182 4731 1 109.50000 418.400000
4154 14182 8751 1 109.50000 418.400000
4731 14182 8751 1 109.50000 418.400000
2061 14183 4164 1 109.50000 418.400000
2061 14183 8752 1 109.50000 418.400000
2061 14183 8753 1 109.50000 418.400000
4164 14183 8752 1 109.50000 418.400000
4164 14183 8753 1 109.50000 418.400000
8752 14183 8753 1 109.50000 418.400000
5650 14184 8754 1 109.50000 418.400000
5650 14184 8755 1 109.50000 418.400000
5650 14184 8756 1 109.50000 418.400000
8754 14184 8755 1 109.50000 418.400000
8754 14184 8756 1 109.50000 418.400000
8755 14184 8756 1 109.50000 418.400000
2772 14185 6264 1 109.50000 418.400000
2772 14185 6709 1 109.50000 418.400000
2772 14185 6946 1 109.50000 418.400000
6264 14185 6709 1 109.50000 418.400000
6264 14185 6946 1 109.50000 418.400000
6709 14185 6946 1 109.50000 418.400000
4563 14186 5495 1 109.50000 418.400000
4563 14186 8752 1 109.50000 418.400000
4563 14186 8757 1 109.50000 418.400000
5495 14186 8752 1 109.50000 418.400000
5495 14186 8757 1 109.50000 418.400000
8752 14186 8757 1 109.50000 418.400000
1280 14187 2321 1 109.50000 418.400000
1280 14187 8758 1 109.50000 418.400000
1280 14187 8759 1 109.50000 418.400000
2321 14187 8758 1 109.50000 418.400000
2321 14187 8759 1 109.50000 418.400000
8758 14187 8759 1 109.50000 418.400000
2009 14188 5572 1 109.50000 418.400000
2009 14188 6924 1 109.50000 418.400000
2009 14188 11267 1 109.50000 418.400000
5572 14188 6924 1 109.50000 418.400000
5572 14188 11267 1 109.50000 418.400000
6924 14188 11267 1 109.50000 418.400000
6932 14189 8760 1 109.50000 418.400000
6932 14189 8761 1 109.50000 418.400000
6932 14189 11182 1 109.50000 418.400000
8760 14189 8761 1 109.50000 418.400000
8760 14189 11182 1 109.50000 418.400000
8761 14189 11182 1 109.50000 418.400000
1486 14190 3674 1 109.50000 418.400000
1486 14190 8031 1 109.50000 418.400000
1486 14190 8762 1 109.50000 418.400000
3674 14190 8031 1 109.50000 418.400000
3674 14190 8762 1 109.50000 418.400000
8031 14190 8762 1 109.50000 418.400000
1469 14191 7938 1 109.50000 418.400000
1469 14191 8545 1 109.50000 418.400000
1469 14191 8763 1 109.50000 418.400000
7938 14191 8545 1 109.50000 418.400000
7938 14191 8763 1 109.50000 418.400000
8545 14191 8763 1 109.50000 418.400000
7496 14192 8175 1 109.50000 418.400000
7496 14192 8764 1 109.50000 418.400000
7496 14192 8765 1 109.50000 418.400000
8175 14192 8764 1 109.50000 418.400000
8175 14192 8765 1 109.50000 418.400000
8764 14192 8765 1 109.50000 418.400000
6458 14193 6893 1 109.50000 418.400000
6458 14193 8766 1 109.50000 418.400000
6458 14193 8767 1 109.50000 418.400000
6893 14193 8766 1 109.50000 418.400000
6893 14193 8767 1 109.50000 418.400000
8766 14193 8767 1 109.50000 418.400000
4397 14194 4461 1 109.50000 418.400000
4397 14194 8768 1 109.50000 418.400000
4397 14194 8769 1 109.50000 418.400000
4461 14194 8768 1 109.50000 418.400000
4461 14194 8769 1 109.50000 418.400000
8768 14194 8769 1 109.50000 418.400000
6048 14195 6550 1 109.50000 418.400000
6048 14195 8770 1 109.50000 418.400000
6048 14195 8771 1 109.50000 418.400000
6550 14195 8770 1 109.50000 418.400000
6550 14195 8771 1 109.50000 418.400000
8770 14195 8771 1 109.50000 418.400000
318 14196 4157 1 109.50000 418.400000
318 14196 6701 1 109.50000 418.400000
318 14196 8747 1 109.50000 418.400000
4157 14196 6701 1 109.50000 418.400000
4157 14196 8747 1 109.50000 418.400000
6701 14196 8747 1 109.50000 418.400000
5284 14197 5492 1 109.50000 418.400000
5284 14197 8764 1 109.50000 418.400000
5284 14197 8772 1 109.50000 418.400000
5492 14197 8764 1 109.50000 418.400000
5492 14197 8772 1 109.50000 418.400000
8764 14197 8772 1 109.50000 418.400000
2187 14198 4069 1 109.50000 418.400000
2187 14198 8773 1 109.50000 418.400000
2187 14198 8774 1 109.50000 418.400000
4069 14198 8773 1 109.50000 418.400000
4069 14198 8774 1 109.50000 418.400000
8773 14198 8774 1 109.50000 418.400000
33 14199 1850 1 109.50000 418.400000
33 14199 8775 1 109.50000 418.400000
33 14199 8776 1 109.50000 418.400000
1850 14199 8775 1 109.50000 418.400000
1850 14199 8776 1 109.50000 418.400000
8775 14199 8776 1 109.50000 418.400000
1879 14200 7414 1 109.50000 418.400000
1879 14200 8778 1 109.50000 418.400000
1879 14200 8779 1 109.50000 418.400000
7414 14200 8778 1 109.50000 418.400000
7414 14200 8779 1 109.50000 418.400000
8778 14200 8779 1 109.50000 418.400000
2786 14201 8780 1 109.50000 418.400000
2786 14201 8781 1 109.50000 418.400000
2786 14201 8782 1 109.50000 418.400000
8780 14201 8781 1 109.50000 418.400000
8780 14201 8782 1 109.50000 418.400000
8781 14201 8782 1 109.50000 418.400000
429 14202 5607 1 109.50000 418.400000
429 14202 8783 1 109.50000 418.400000
429 14202 8784 1 109.50000 418.400000
5607 14202 8783 1 109.50000 418.400000
5607 14202 8784 1 109.50000 418.400000
8783 14202 8784 1 109.50000 418.400000
3006 14203 5305 1 109.50000 418.400000
3006 14203 6641 1 109.50000 418.400000
3006 14203 8785 1 109.50000 418.400000
5305 14203 6641 1 109.50000 418.400000
5305 14203 8785 1 109.50000 418.400000
6641 14203 8785 1 109.50000 418.400000
3067 14204 5005 1 109.50000 418.400000
3067 14204 8786 1 109.50000 418.400000
3067 14204 8787 1 109.50000 418.400000
5005 14204 8786 1 109.50000 418.400000
5005 14204 8787 1 109.50000 418.400000
8786 14204 8787 1 109.50000 418.400000
5212 14205 8674 1 109.50000 418.400000
5212 14205 8788 1 109.50000 418.400000
5212 14205 8789 1 109.50000 418.400000
8674 14205 8788 1 109.50000 418.400000
8674 14205 8789 1 109.50000 418.400000
8788 14205 8789 1 109.50000 418.400000
2763 14206 8790 1 109.50000 418.400000
2763 14206 8791 1 109.50000 418.400000
2763 14206 8792 1 109.50000 418.400000
8790 14206 8791 1 109.50000 418.400000
8790 14206 8792 1 109.50000 418.400000
8791 14206 8792 1 109.50000 418.400000
4645 14207 8793 1 109.50000 418.400000
4645 14207 8794 1 109.50000 418.400000
4645 14207 11234 1 109.50000 418.400000
8793 14207 8794 1 109.50000 418.400000
8793 14207 11234 1 109.50000 418.400000
8794 14207 11234 1 109.50000 418.400000
5631 14208 5674 1 109.50000 418.400000
5631 14208 6092 1 109.50000 418.400000
5631 14208 8795 1 109.50000 418.400000
5674 14208 6092 1 109.50000 418.400000
5674 14208 8795 1 109.50000 418.400000
6092 14208 8795 1 109.50000 418.400000
3610 14209 6521 1 109.50000 418.400000
3610 14209 8796 1 109.50000 418.400000
3610 14209 8797 1 109.50000 418.400000
6521 14209 8796 1 109.50000 418.400000
6521 14209 8797 1 109.50000 418.400000
8796 14209 8797 1 109.50000 418.400000
4932 14210 6306 1 109.50000 418.400000
4932 14210 8798 1 109.50000 418.400000
4932 14210 8799 1 109.50000 418.400000
6306 14210 8798 1 109.50000 418.400000
6306 14210 8799 1 109.50000 418.400000
8798 14210 8799 1 109.50000 418.400000
7555 14211 8800 1 109.50000 418.400000
7555 14211 8801 1 109.50000 418.400000
7555 14211 8802 1 109.50000 418.400000
8800 14211 8801 1 109.50000 418.400000
8800 14211 8802 1 109.50000 418.400000
8801 14211 8802 1 109.50000 418.400000
215 14212 6196 1 109.50000 418.400000
215 14212 8803 1 109.50000 418.400000
215 14212 8804 1 109.50000 418.400000
6196 14212 8803 1 109.50000 418.400000
6196 14212 8804 1 109.50000 418.400000
8803 14212 8804 1 109.50000 418.400000
1954 14213 8805 1 109.50000 418.400000
1954 14213 8806 1 109.50000 418.400000
1954 14213 8807 1 109.50000 418.400000
8805 14213 8806 1 109.50000 418.400000
8805 14213 8807 1 109.50000 418.400000
8806 14213 8807 1 109.50000 418.400000
5615 14214 5670 1 109.50000 418.400000
5615 14214 5821 1 109.50000 418.400000
5615 14214 8808 1 109.50000 418.400000
5670 14214 5821 1 109.50000 418.400000
5670 14214 8808 1 109.50000 418.400000
5821 14214 8808 1 109.50000 418.400000
8804 14215 8809 1 109.50000 418.400000
8804 14215 8810 1 109.50000 418.400000
8804 14215 8811 1 109.50000 418.400000
8809 14215 8810 1 109.50000 418.400000
8809 14215 8811 1 109.50000 418.400000
8810 14215 8811 1 109.50000 418.400000
5206 14216 5207 1 109.50000 418.400000
5206 14216 6503 1 109.50000 418.400000
5206 14216 8812 1 109.50000 418.400000
5207 14216 6503 1 109.50000 418.400000
5207 14216 8812 1 109.50000 418.400000
6503 14216 8812 1 109.50000 418.400000
7218 14217 8371 1 109.50000 418.400000
7218 14217 8813 1 109.50000 418.400000
7218 14217 11144 1 109.50000 418.400000
8371 14217 8813 1 109.50000 418.400000
8371 14217 11144 1 109.50000 418.400000
8813 14217 11144 1 109.50000 418.400000
3838 14218 4964 1 109.50000 418.400000
3838 14218 6719 1 109.50000 418.400000
3838 14218 8814 1 109.50000 418.400000
4964 14218 6719 1 109.50000 418.400000
4964 14218 8814 1 109.50000 418.400000
6719 14218 8814 1 109.50000 418.400000
4899 14219 4900 1 109.50000 418.400000
4899 14219 7224 1 109.50000 418.400000
4899 14219 8816 1 109.50000 418.400000
4900 14219 7224 1 109.50000 418.400000
4900 14219 8816 1 109.50000 418.400000
7224 14219 8816 1 109.50000 418.400000
5338 14220 6780 1 109.50000 418.400000
5338 14220 6781 1 109.50000 418.400000
5338 14220 8817 1 109.50000 418.400000
6780 14220 6781 1 109.50000 418.400000
6780 14220 8817 1 109.50000 418.400000
6781 14220 8817 1 109.50000 418.400000
7548 14221 8818 1 109.50000 418.400000
7548 14221 8819 1 109.50000 418.400000
7548 14221 9922 1 109.50000 418.400000
8818 14221 8819 1 109.50000 418.400000
8818 14221 9922 1 109.50000 418.400000
8819 14221 9922 1 109.50000 418.400000
4684 14222 5275 1 109.50000 418.400000
4684 14222 7412 1 109.50000 418.400000
4684 14222 8820 1 109.50000 418.400000
5275 14222 7412 1 109.50000 418.400000
5275 14222 8820 1 109.50000 418.400000
7412 14222 8820 1 109.50000 418.400000
5182 14223 8821 1 109.50000 418.400000
5182 14223 11143 1 109.50000 418.400000
5182 14223 11253 1 109.50000 418.400000
8821 14223 11143 1 109.50000 418.400000
8821 14223 11253 1 109.50000 418.400000
11143 14223 11253 1 109.50000 418.400000
7450 14224 8823 1 109.50000 418.400000
7450 14224 8824 1 109.50000 418.400000
7450 14224 11006 1 109.50000 418.400000
8823 14224 8824 1 109.50000 418.400000
8823 14224 11006 1 109.50000 418.400000
8824 14224 11006 1 109.50000 418.400000
5315 14225 5813 1 109.50000 418.400000
5315 14225 8307 1 109.50000 418.400000
5315 14225 8825 1 109.50000 418.400000
5813 14225 8307 1 109.50000 418.400000
5813 14225 8825 1 109.50000 418.400000
8307 14225 8825 1 109.50000 418.400000
3210 14226 7543 1 109.50000 418.400000
3210 14226 8666 1 109.50000 418.400000
3210 14226 8667 1 109.50000 418.400000
7543 14226 8666 1 109.50000 418.400000
7543 14226 8667 1 109.50000 418.400000
8666 14226 8667 1 109.50000 418.400000
325 14227 4040 1 109.50000 418.400000
325 14227 6439 1 109.50000 418.400000
325 14227 8642 1 109.50000 418.400000
4040 14227 6439 1 109.50000 418.400000
4040 14227 8642 1 109.50000 418.400000
6439 14227 8642 1 109.50000 418.400000
47 14228 217 1 109.50000 418.400000
47 14228 7159 1 109.50000 418.400000
47 14228 7470 1 109.50000 418.400000
217 14228 7159 1 109.50000 418.400000
217 14228 7470 1 109.50000 418.400000
7159 14228 7470 1 109.50000 418.400000
3461 14229 8827 1 109.50000 418.400000
3461 14229 8828 1 109.50000 418.400000
3461 14229 8829 1 109.50000 418.400000
8827 14229 8828 1 109.50000 418.400000
8827 14229 8829 1 109.50000 418.400000
8828 14229 8829 1 109.50000 418.400000
1007 14230 6259 1 109.50000 418.400000
1007 14230 6357 1 109.50000 418.400000
1007 14230 8830 1 109.50000 418.400000
6259 14230 6357 1 109.50000 418.400000
6259 14230 8830 1 109.50000 418.400000
6357 14230 8830 1 109.50000 418.400000
8831 14231 8832 1 109.50000 418.400000
8831 14231 8833 1 109.50000 418.400000
8831 14231 8834 1 109.50000 418.400000
8832 14231 8833 1 109.50000 418.400000
8832 14231 8834 1 109.50000 418.400000
8833 14231 8834 1 109.50000 418.400000
3020 14232 5070 1 109.50000 418.400000
3020 14232 5323 1 109.50000 418.400000
3020 14232 8835 1 109.50000 418.400000
5070 14232 5323 1 109.50000 418.400000
5070 14232 8835 1 109.50000 418.400000
5323 14232 8835 1 109.50000 418.400000
1606 14233 3257 1 109.50000 418.400000
1606 14233 4614 1 109.50000 418.400000
1606 14233 8836 1 109.50000 418.400000
3257 14233 4614 1 109.50000 418.400000
3257 14233 8836 1 109.50000 418.400000
4614 14233 8836 1 109.50000 418.400000
1094 14234 4980 1 109.50000 418.400000
1094 14234 5957 1 109.50000 418.400000
1094 14234 8837 1 109.50000 418.400000
4980 14234 5957 1 109.50000 418.400000
4980 14234 8837 1 109.50000 418.400000
5957 14234 8837 1 109.50000 418.400000
1254 14235 8838 1 109.50000 418.400000
1254 14235 8839 1 109.50000 418.400000
1254 14235 8840 1 109.50000 418.400000
8838 14235 8839 1 109.50000 418.400000
8838 14235 8840 1 109.50000 418.400000
8839 14235 8840 1 109.50000 418.400000
6131 14236 6636 1 109.50000 418.400000
6131 14236 8841 1 109.50000 418.400000
6131 14236 8842 1 109.50000 418.400000
6636 14236 8841 1 109.50000 418.400000
6636 14236 8842 1 109.50000 418.400000
8841 14236 8842 1 109.50000 418.400000
7892 14237 8094 1 109.50000 418.400000
7892 14237 8843 1 109.50000 418.400000
7892 14237 8844 1 109.50000 418.400000
8094 14237 8843 1 109.50000 418.400000
8094 14237 8844 1 109.50000 418.400000
8843 14237 8844 1 109.50000 418.400000
1482 14238 4548 1 109.50000 418.400000
1482 14238 8845 1 109.50000 418.400000
1482 14238 8846 1 109.50000 418.400000
4548 14238 8845 1 109.50000 418.400000
4548 14238 8846 1 109.50000 418.400000
8845 14238 8846 1 109.50000 418.400000
5208 14239 6167 1 109.50000 418.400000
5208 14239 6170 1 109.50000 418.400000
5208 14239 8847 1 109.50000 418.400000
6167 14239 6170 1 109.50000 418.400000
6167 14239 8847 1 109.50000 418.400000
6170 14239 8847 1 109.50000 418.400000
3756 14240 4192 1 109.50000 418.400000
3756 14240 5933 1 109.50000 418.400000
3756 14240 8849 1 109.50000 418.400000
4192 14240 5933 1 109.50000 418.400000
4192 14240 8849 1 109.50000 418.400000
5933 14240 8849 1 109.50000 418.400000
1768 14241 4525 1 109.50000 418.400000
1768 14241 5084 1 109.50000 418.400000
1768 14241 8850 1 109.50000 418.400000
4525 14241 5084 1 109.50000 418.400000
4525 14241 8850 1 109.50000 418.400000
5084 14241 8850 1 109.50000 418.400000
397 14242 8852 1 109.50000 418.400000
397 14242 8853 1 109.50000 418.400000
397 14242 8854 1 109.50000 418.400000
8852 14242 8853 1 109.50000 418.400000
8852 14242 8854 1 109.50000 418.400000
8853 14242 8854 1 109.50000 418.400000
4347 14243 5629 1 109.50000 418.400000
4347 14243 8856 1 109.50000 418.400000
4347 14243 8857 1 109.50000 418.400000
5629 14243 8856 1 109.50000 418.400000
5629 14243 8857 1 109.50000 418.400000
8856 14243 8857 1 109.50000 418.400000
2873 14244 8858 1 109.50000 418.400000
2873 14244 8859 1 109.50000 418.400000
2873 14244 8860 1 109.50000 418.400000
8858 14244 8859 1 109.50000 418.400000
8858 14244 8860 1 109.50000 418.400000
8859 14244 8860 1 109.50000 418.400000
252 14245 8861 1 109.50000 418.400000
252 14245 8862 1 109.50000 418.400000
252 14245 8863 1 109.50000 418.400000
8861 14245 8862 1 109.50000 418.400000
8861 14245 8863 1 109.50000 418.400000
8862 14245 8863 1 109.50000 418.400000
4894 14246 8864 1 109.50000 418.400000
4894 14246 8865 1 109.50000 418.400000
4894 14246 11331 1 109.50000 418.400000
8864 14246 8865 1 109.50000 418.400000
8864 14246 11331 1 109.50000 418.400000
8865 14246 11331 1 109.50000 418.400000
8866 14247 8867 1 109.50000 418.400000
8866 14247 11155 1 109.50000 418.400000
8866 14247 11210 1 109.50000 418.400000
8867 14247 11155 1 109.50000 418.400000
8867 14247 11210 1 109.50000 418.400000
11155 14247 11210 1 109.50000 418.400000
3112 14248 5160 1 109.50000 418.400000
3112 14248 6426 1 109.50000 418.400000
3112 14248 8868 1 109.50000 418.400000
5160 14248 6426 1 109.50000 418.400000
5160 14248 8868 1 109.50000 418.400000
6426 14248 8868 1 109.50000 418.400000
5491 14249 7325 1 109.50000 418.400000
5491 14249 8870 1 109.50000 418.400000
5491 14249 8871 1 109.50000 418.400000
7325 14249 8870 1 109.50000 418.400000
7325 14249 8871 1 109.50000 418.400000
8870 14249 8871 1 109.50000 418.400000
199 14250 3306 1 109.50000 418.400000
199 14250 6686 1 109.50000 418.400000
199 14250 7402 1 109.50000 418.400000
3306 14250 6686 1 109.50000 418.400000
3306 14250 7402 1 109.50000 418.400000
6686 14250 7402 1 109.50000 418.400000
3392 14251 3781 1 109.50000 418.400000
3392 14251 5083 1 109.50000 418.400000
3392 14251 8872 1 109.50000 418.400000
3781 14251 5083 1 109.50000 418.400000
3781 14251 8872 1 109.50000 418.400000
5083 14251 8872 1 109.50000 418.400000
799 14252 1269 1 109.50000 418.400000
799 14252 8876 1 109.50000 418.400000
799 14252 11314 1 109.50000 418.400000
1269 14252 8876 1 109.50000 418.400000
1269 14252 11314 1 109.50000 418.400000
8876 14252 11314 1 109.50000 418.400000
4674 14253 8878 1 109.50000 418.400000
4674 14253 8879 1 109.50000 418.400000
4674 14253 11313 1 109.50000 418.400000
8878 14253 8879 1 109.50000 418.400000
8878 14253 11313 1 109.50000 418.400000
8879 14253 11313 1 109.50000 418.400000
830 14254 1868 1 109.50000 418.400000
830 14254 3991 1 109.50000 418.400000
830 14254 8880 1 109.50000 418.400000
1868 14254 3991 1 109.50000 418.400000
1868 14254 8880 1 109.50000 418.400000
3991 14254 8880 1 109.50000 418.400000
1096 14255 1610 1 109.50000 418.400000
1096 14255 8881 1 109.50000 418.400000
1096 14255 8882 1 109.50000 418.400000
1610 14255 8881 1 109.50000 418.400000
1610 14255 8882 1 109.50000 418.400000
8881 14255 8882 1 109.50000 418.400000
3251 14256 5609 1 109.50000 418.400000
3251 14256 6254 1 109.50000 418.400000
3251 14256 8883 1 109.50000 418.400000
5609 14256 6254 1 109.50000 418.400000
5609 14256 8883 1 109.50000 418.400000
6254 14256 8883 1 109.50000 418.400000
3646 14257 5053 1 109.50000 418.400000
3646 14257 8884 1 109.50000 418.400000
3646 14257 8885 1 109.50000 418.400000
5053 14257 8884 1 109.50000 418.400000
5053 14257 8885 1 109.50000 418.400000
8884 14257 8885 1 109.50000 418.400000
2807 14258 3049 1 109.50000 418.400000
2807 14258 8886 1 109.50000 418.400000
2807 14258 8887 1 109.50000 418.400000
3049 14258 8886 1 109.50000 418.400000
3049 14258 8887 1 109.50000 418.400000
8886 14258 8887 1 109.50000 418.400000
3506 14259 3966 1 109.50000 418.400000
3506 14259 4918 1 109.50000 418.400000
3506 14259 7059 1 109.50000 418.400000
3966 14259 4918 1 109.50000 418.400000
3966 14259 7059 1 109.50000 418.400000
4918 14259 7059 1 109.50000 418.400000
2534 14260 8888 1 109.50000 418.400000
2534 14260 8889 1 109.50000 418.400000
2534 14260 8890 1 109.50000 418.400000
8888 14260 8889 1 109.50000 418.400000
8888 14260 8890 1 109.50000 418.400000
8889 14260 8890 1 109.50000 418.400000
5154 14261 7487 1 109.50000 418.400000
5154 14261 8891 1 109.50000 418.400000
5154 14261 8892 1 109.50000 418.400000
7487 14261 8891 1 109.50000 418.400000
7487 14261 8892 1 109.50000 418.400000
8891 14261 8892 1 109.50000 418.400000
3723 14262 7214 1 109.50000 418.400000
3723 14262 7216 1 109.50000 418.400000
3723 14262 8893 1 109.50000 418.400000
7214 14262 7216 1 109.50000 418.400000
7214 14262 8893 1 109.50000 418.400000
7216 14262 8893 1 109.50000 418.400000
2693 14263 5978 1 109.50000 418.400000
2693 14263 6190 1 109.50000 418.400000
2693 14263 8895 1 109.50000 418.400000
5978 14263 6190 1 109.50000 418.400000
5978 14263 8895 1 109.50000 418.400000
6190 14263 8895 1 109.50000 418.400000
8075 14264 8896 1 109.50000 418.400000
8075 14264 8897 1 109.50000 418.400000
8075 14264 8898 1 109.50000 418.400000
8896 14264 8897 1 109.50000 418.400000
8896 14264 8898 1 109.50000 418.400000
8897 14264 8898 1 109.50000 418.400000
1817 14265 5732 1 109.50000 418.400000
1817 14265 8631 1 109.50000 418.400000
1817 14265 8899 1 109.50000 418.400000
5732 14265 8631 1 109.50000 418.400000
5732 14265 8899 1 109.50000 418.400000
8631 14265 8899 1 109.50000 418.400000
4960 14266 7053 1 109.50000 418.400000
4960 14266 8900 1 109.50000 418.400000
4960 14266 8901 1 109.50000 418.400000
7053 14266 8900 1 109.50000 418.400000
7053 14266 8901 1 109.50000 418.400000
8900 14266 8901 1 109.50000 418.400000
2360 14267 7922 1 109.50000 418.400000
2360 14267 8902 1 109.50000 418.400000
2360 14267 8903 1 109.50000 418.400000
7922 14267 8902 1 109.50000 418.400000
7922 14267 8903 1 109.50000 418.400000
8902 14267 8903 1 109.50000 418.400000
7653 14268 8904 1 109.50000 418.400000
7653 14268 8905 1 109.50000 418.400000
7653 14268 8906 1 109.50000 418.400000
8904 14268 8905 1 109.50000 418.400000
8904 14268 8906 1 109.50000 418.400000
8905 14268 8906 1 109.50000 418.400000
1753 14269 1759 1 109.50000 418.400000
1753 14269 7369 1 109.50000 418.400000
1753 14269 8907 1 109.50000 418.400000
1759 14269 7369 1 109.50000 418.400000
1759 14269 8907 1 109.50000 418.400000
7369 14269 8907 1 109.50000 418.400000
4256 14270 5014 1 109.50000 418.400000
4256 14270 5746 1 109.50000 418.400000
4256 14270 8285 1 109.50000 418.400000
5014 14270 5746 1 109.50000 418.400000
5014 14270 8285 1 109.50000 418.400000
5746 14270 8285 1 109.50000 418.400000
1339 14271 3998 1 109.50000 418.400000
1339 14271 8909 1 109.50000 418.400000
1339 14271 8910 1 109.50000 418.400000
3998 14271 8909 1 109.50000 418.400000
3998 14271 8910 1 109.50000 418.400000
8909 14271 8910 1 109.50000 418.400000
2246 14272 7770 1 109.50000 418.400000
2246 14272 11144 1 109.50000 418.400000
2246 14272 11339 1 109.50000 418.400000
7770 14272 11144 1 109.50000 418.400000
7770 14272 11339 1 109.50000 418.400000
11144 14272 11339 1 109.50000 418.400000
7576 14273 8334 1 109.50000 418.400000
7576 14273 8911 1 109.50000 418.400000
7576 14273 8912 1 109.50000 418.400000
8334 14273 8911 1 109.50000 418.400000
8334 14273 8912 1 109.50000 418.400000
8911 14273 8912 1 109.50000 418.400000
3494 14274 5256 1 109.50000 418.400000
3494 14274 8913 1 109.50000 418.400000
3494 14274 11344 1 109.50000 418.400000
5256 14274 8913 1 109.50000 418.400000
5256 14274 11344 1 109.50000 418.400000
8913 14274 11344 1 109.50000 418.400000
5971 14275 8755 1 109.50000 418.400000
5971 14275 8914 1 109.50000 418.400000
5971 14275 8915 1 109.50000 418.400000
8755 14275 8914 1 109.50000 418.400000
8755 14275 8915 1 109.50000 418.400000
8914 14275 8915 1 109.50000 418.400000
304 14276 3553 1 109.50000 418.400000
304 14276 5890 1 109.50000 418.400000
304 14276 8917 1 109.50000 418.400000
3553 14276 5890 1 109.50000 418.400000
3553 14276 8917 1 109.50000 418.400000
5890 14276 8917 1 109.50000 418.400000
4123 14277 8918 1 109.50000 418.400000
4123 14277 8919 1 109.50000 418.400000
4123 14277 8920 1 109.50000 418.400000
8918 14277 8919 1 109.50000 418.400000
8918 14277 8920 1 109.50000 418.400000
8919 14277 8920 1 109.50000 418.400000
4568 14278 6156 1 109.50000 418.400000
4568 14278 8921 1 109.50000 418.400000
4568 14278 8922 1 109.50000 418.400000
6156 14278 8921 1 109.50000 418.400000
6156 14278 8922 1 109.50000 418.400000
8921 14278 8922 1 109.50000 418.400000
6205 14279 8924 1 109.50000 418.400000
6205 14279 8925 1 109.50000 418.400000
6205 14279 8926 1 109.50000 418.400000
8924 14279 8925 1 109.50000 418.400000
8924 14279 8926 1 109.50000 418.400000
8925 14279 8926 1 109.50000 418.400000
5054 14280 8928 1 109.50000 418.400000
5054 14280 11239 1 109.50000 418.400000
5054 14280 11358 1 109.50000 418.400000
8928 14280 11239 1 109.50000 418.400000
8928 14280 11358 1 109.50000 418.400000
11239 14280 11358 1 109.50000 418.400000
788 14281 3608 1 109.50000 418.400000
788 14281 4974 1 109.50000 418.400000
788 14281 8929 1 109.50000 418.400000
3608 14281 4974 1 109.50000 418.400000
3608 14281 8929 1 109.50000 418.400000
4974 14281 8929 1 109.50000 418.400000
8930 14282 8931 1 109.50000 418.400000
8930 14282 8932 1 109.50000 418.400000
8930 14282 8933 1 109.50000 418.400000
8931 14282 8932 1 109.50000 418.400000
8931 14282 8933 1 109.50000 418.400000
8932 14282 8933 1 109.50000 418.400000
1253 14283 6609 1 109.50000 418.400000
1253 14283 8934 1 109.50000 418.400000
1253 14283 8935 1 109.50000 418.400000
6609 14283 8934 1 109.50000 418.400000
6609 14283 8935 1 109.50000 418.400000
8934 14283 8935 1 109.50000 418.400000
1164 14284 5514 1 109.50000 418.400000
1164 14284 7958 1 109.50000 418.400000
1164 14284 8936 1 109.50000 418.400000
5514 14284 7958 1 109.50000 418.400000
5514 14284 8936 1 109.50000 418.400000
7958 14284 8936 1 109.50000 418.400000
3476 14285 5828 1 109.50000 418.400000
3476 14285 8937 1 109.50000 418.400000
3476 14285 8938 1 109.50000 418.400000
5828 14285 8937 1 109.50000 418.400000
5828 14285 8938 1 109.50000 418.400000
8937 14285 8938 1 109.50000 418.400000
2579 14286 7057 1 109.50000 418.400000
2579 14286 7903 1 109.50000 418.400000
2579 14286 8939 1 109.50000 418.400000
7057 14286 7903 1 109.50000 418.400000
7057 14286 8939 1 109.50000 418.400000
7903 14286 8939 1 109.50000 418.400000
2705 14287 7558 1 109.50000 418.400000
2705 14287 7584 1 109.50000 418.400000
2705 14287 8940 1 109.50000 418.400000
7558 14287 7584 1 109.50000 418.400000
7558 14287 8940 1 109.50000 418.400000
7584 14287 8940 1 109.50000 418.400000
2954 14288 5970 1 109.50000 418.400000
2954 14288 5973 1 109.50000 418.400000
2954 14288 8941 1 109.50000 418.400000
5970 14288 5973 1 109.50000 418.400000
5970 14288 8941 1 109.50000 418.400000
5973 14288 8941 1 109.50000 418.400000
6310 14289 6568 1 109.50000 418.400000
6310 14289 8942 1 109.50000 418.400000
6310 14289 11349 1 109.50000 418.400000
6568 14289 8942 1 109.50000 418.400000
6568 14289 11349 1 109.50000 418.400000
8942 14289 11349 1 109.50000 418.400000
8943 14290 8944 1 109.50000 418.400000
8943 14290 8945 1 109.50000 418.400000
8943 14290 8946 1 109.50000 418.400000
8944 14290 8945 1 109.50000 418.400000
8944 14290 8946 1 109.50000 418.400000
8945 14290 8946 1 109.50000 418.400000
1695 14291 2785 1 109.50000 418.400000
1695 14291 8947 1 109.50000 418.400000
1695 14291 8948 1 109.50000 418.400000
2785 14291 8947 1 109.50000 418.400000
2785 14291 8948 1 109.50000 418.400000
8947 14291 8948 1 109.50000 418.400000
8949 14292 8950 1 109.50000 418.400000
8949 14292 8951 1 109.50000 418.400000
8949 14292 8952 1 109.50000 418.400000
8950 14292 8951 1 109.50000 418.400000
8950 14292 8952 1 109.50000 418.400000
8951 14292 8952 1 109.50000 418.400000
1740 14293 2379 1 109.50000 418.400000
1740 14293 4546 1 109.50000 418.400000
1740 14293 8953 1 109.50000 418.400000
2379 14293 4546 1 109.50000 418.400000
2379 14293 8953 1 109.50000 418.400000
4546 14293 8953 1 109.50000 418.400000
2876 14294 8954 1 109.50000 418.400000
2876 14294 8955 1 109.50000 418.400000
2876 14294 8956 1 109.50000 418.400000
8954 14294 8955 1 109.50000 418.400000
8954 14294 8956 1 109.50000 418.400000
8955 14294 8956 1 109.50000 418.400000
7989 14295 8957 1 109.50000 418.400000
7989 14295 8958 1 109.50000 418.400000
7989 14295 8959 1 109.50000 418.400000
8957 14295 8958 1 109.50000 418.400000
8957 14295 8959 1 109.50000 418.400000
8958 14295 8959 1 109.50000 418.400000
2650 14296 5326 1 109.50000 418.400000
2650 14296 5363 1 109.50000 418.400000
2650 14296 5382 1 109.50000 418.400000
5326 14296 5363 1 109.50000 418.400000
5326 14296 5382 1 109.50000 418.400000
5363 14296 5382 1 109.50000 418.400000
424 14297 638 1 109.50000 418.400000
424 14297 5150 1 109.50000 418.400000
424 14297 8960 1 109.50000 418.400000
638 14297 5150 1 109.50000 418.400000
638 14297 8960 1 109.50000 418.400000
5150 14297 8960 1 109.50000 418.400000
7288 14298 8084 1 109.50000 418.400000
7288 14298 8961 1 109.50000 418.400000
7288 14298 11151 1 109.50000 418.400000
8084 14298 8961 1 109.50000 418.400000
8084 14298 11151 1 109.50000 418.400000
8961 14298 11151 1 109.50000 418.400000
1465 14299 5851 1 109.50000 418.400000
1465 14299 8248 1 109.50000 418.400000
1465 14299 8963 1 109.50000 418.400000
5851 14299 8248 1 109.50000 418.400000
5851 14299 8963 1 109.50000 418.400000
8248 14299 8963 1 109.50000 418.400000
8129 14300 8964 1 109.50000 418.400000
8129 14300 8965 1 109.50000 418.400000
8129 14300 8966 1 109.50000 418.400000
8964 14300 8965 1 109.50000 418.400000
8964 14300 8966 1 109.50000 418.400000
8965 14300 8966 1 109.50000 418.400000
1729 14301 3174 1 109.50000 418.400000
1729 14301 8960 1 109.50000 418.400000
1729 14301 8967 1 109.50000 418.400000
3174 14301 8960 1 109.50000 418.400000
3174 14301 8967 1 109.50000 418.400000
8960 14301 8967 1 109.50000 418.400000
7224 14302 7225 1 109.50000 418.400000
7224 14302 8968 1 109.50000 418.400000
7224 14302 8969 1 109.50000 418.400000
7225 14302 8968 1 109.50000 418.400000
7225 14302 8969 1 109.50000 418.400000
8968 14302 8969 1 109.50000 418.400000
1518 14303 3058 1 109.50000 418.400000
1518 14303 4201 1 109.50000 418.400000
1518 14303 7266 1 109.50000 418.400000
3058 14303 4201 1 109.50000 418.400000
3058 14303 7266 1 109.50000 418.400000
4201 14303 7266 1 109.50000 418.400000
4732 14304 8971 1 109.50000 418.400000
4732 14304 8972 1 109.50000 418.400000
4732 14304 8973 1 109.50000 418.400000
8971 14304 8972 1 109.50000 418.400000
8971 14304 8973 1 109.50000 418.400000
8972 14304 8973 1 109.50000 418.400000
2800 14305 2802 1 109.50000 418.400000
2800 14305 8977 1 109.50000 418.400000
2800 14305 8978 1 109.50000 418.400000
2802 14305 8977 1 109.50000 418.400000
2802 14305 8978 1 109.50000 418.400000
8977 14305 8978 1 109.50000 418.400000
8385 14306 8979 1 109.50000 418.400000
8385 14306 8980 1 109.50000 418.400000
8385 14306 8981 1 109.50000 418.400000
8979 14306 8980 1 109.50000 418.400000
8979 14306 8981 1 109.50000 418.400000
8980 14306 8981 1 109.50000 418.400000
5624 14307 5936 1 109.50000 418.400000
5624 14307 8982 1 109.50000 418.400000
5624 14307 8983 1 109.50000 418.400000
5936 14307 8982 1 109.50000 418.400000
5936 14307 8983 1 109.50000 418.400000
8982 14307 8983 1 109.50000 418.400000
2666 14308 5800 1 109.50000 418.400000
2666 14308 8984 1 109.50000 418.400000
2666 14308 8985 1 109.50000 418.400000
5800 14308 8984 1 109.50000 418.400000
5800 14308 8985 1 109.50000 418.400000
8984 14308 8985 1 109.50000 418.400000
1200 14309 1304 1 109.50000 418.400000
1200 14309 1305 1 109.50000 418.400000
1200 14309 3190 1 109.50000 418.400000
1304 14309 1305 1 109.50000 418.400000
1304 14309 3190 1 109.50000 418.400000
1305 14309 3190 1 109.50000 418.400000
8016 14310 8987 1 109.50000 418.400000
8016 14310 8988 1 109.50000 418.400000
8016 14310 8989 1 109.50000 418.400000
8987 14310 8988 1 109.50000 418.400000
8987 14310 8989 1 109.50000 418.400000
8988 14310 8989 1 109.50000 418.400000
3772 14311 6488 1 109.50000 418.400000
3772 14311 8990 1 109.50000 418.400000
3772 14311 11316 1 109.50000 418.400000
6488 14311 8990 1 109.50000 418.400000
6488 14311 11316 1 109.50000 418.400000
8990 14311 11316 1 109.50000 418.400000
5863 14312 6075 1 109.50000 418.400000
5863 14312 7049 1 109.50000 418.400000
5863 14312 7504 1 109.50000 418.400000
6075 14312 7049 1 109.50000 418.400000
6075 14312 7504 1 109.50000 418.400000
7049 14312 7504 1 109.50000 418.400000
849 14313 4266 1 109.50000 418.400000
849 14313 8991 1 109.50000 418.400000
849 14313 8992 1 109.50000 418.400000
4266 14313 8991 1 109.50000 418.400000
4266 14313 8992 1 109.50000 418.400000
8991 14313 8992 1 109.50000 418.400000
702 14314 8527 1 109.50000 418.400000
702 14314 8993 1 109.50000 418.400000
702 14314 8994 1 109.50000 418.400000
8527 14314 8993 1 109.50000 418.400000
8527 14314 8994 1 109.50000 418.400000
8993 14314 8994 1 109.50000 418.400000
1098 14315 6160 1 109.50000 418.400000
1098 14315 8549 1 109.50000 418.400000
1098 14315 8995 1 109.50000 418.400000
6160 14315 8549 1 109.50000 418.400000
6160 14315 8995 1 109.50000 418.400000
8549 14315 8995 1 109.50000 418.400000
6256 14316 6258 1 109.50000 418.400000
6256 14316 6884 1 109.50000 418.400000
6256 14316 8271 1 109.50000 418.400000
6258 14316 6884 1 109.50000 418.400000
6258 14316 8271 1 109.50000 418.400000
6884 14316 8271 1 109.50000 418.400000
6973 14317 7356 1 109.50000 418.400000
6973 14317 8996 1 109.50000 418.400000
6973 14317 8997 1 109.50000 418.400000
7356 14317 8996 1 109.50000 418.400000
7356 14317 8997 1 109.50000 418.400000
8996 14317 8997 1 109.50000 418.400000
6074 14318 7503 1 109.50000 418.400000
6074 14318 8282 1 109.50000 418.400000
6074 14318 8283 1 109.50000 418.400000
7503 14318 8282 1 109.50000 418.400000
7503 14318 8283 1 109.50000 418.400000
8282 14318 8283 1 109.50000 418.400000
5926 14319 8196 1 109.50000 418.400000
5926 14319 8999 1 109.50000 418.400000
5926 14319 9000 1 109.50000 418.400000
8196 14319 8999 1 109.50000 418.400000
8196 14319 9000 1 109.50000 418.400000
8999 14319 9000 1 109.50000 418.400000
5555 14320 9002 1 109.50000 418.400000
5555 14320 9003 1 109.50000 418.400000
5555 14320 9004 1 109.50000 418.400000
9002 14320 9003 1 109.50000 418.400000
9002 14320 9004 1 109.50000 418.400000
9003 14320 9004 1 109.50000 418.400000
3983 14321 5833 1 109.50000 418.400000
3983 14321 9005 1 109.50000 418.400000
3983 14321 11196 1 109.50000 418.400000
5833 14321 9005 1 109.50000 418.400000
5833 14321 11196 1 109.50000 418.400000
9005 14321 11196 1 109.50000 418.400000
1347 14322 9006 1 109.50000 418.400000
1347 14322 9007 1 109.50000 418.400000
1347 14322 9008 1 109.50000 418.400000
9006 14322 9007 1 109.50000 418.400000
9006 14322 9008 1 109.50000 418.400000
9007 14322 9008 1 109.50000 418.400000
2132 14323 6633 1 109.50000 418.400000
2132 14323 8827 1 109.50000 418.400000
2132 14323 9009 1 109.50000 418.400000
6633 14323 8827 1 109.50000 418.400000
6633 14323 9009 1 109.50000 418.400000
8827 14323 9009 1 109.50000 418.400000
4356 14324 6106 1 109.50000 418.400000
4356 14324 9013 1 109.50000 418.400000
4356 14324 9014 1 109.50000 418.400000
6106 14324 9013 1 109.50000 418.400000
6106 14324 9014 1 109.50000 418.400000
9013 14324 9014 1 109.50000 418.400000
8252 14325 9015 1 109.50000 418.400000
8252 14325 9017 1 109.50000 418.400000
8252 14325 10315 1 109.50000 418.400000
9015 14325 9017 1 109.50000 418.400000
9015 14325 10315 1 109.50000 418.400000
9017 14325 10315 1 109.50000 418.400000
549 14326 3741 1 109.50000 418.400000
549 14326 7803 1 109.50000 418.400000
549 14326 9018 1 109.50000 418.400000
3741 14326 7803 1 109.50000 418.400000
3741 14326 9018 1 109.50000 418.400000
7803 14326 9018 1 109.50000 418.400000
2438 14327 3891 1 109.50000 418.400000
2438 14327 6184 1 109.50000 418.400000
2438 14327 9019 1 109.50000 418.400000
3891 14327 6184 1 109.50000 418.400000
3891 14327 9019 1 109.50000 418.400000
6184 14327 9019 1 109.50000 418.400000
3902 14328 4470 1 109.50000 418.400000
3902 14328 9020 1 109.50000 418.400000
3902 14328 9021 1 109.50000 418.400000
4470 14328 9020 1 109.50000 418.400000
4470 14328 9021 1 109.50000 418.400000
9020 14328 9021 1 109.50000 418.400000
5559 14329 8071 1 109.50000 418.400000
5559 14329 9022 1 109.50000 418.400000
5559 14329 9023 1 109.50000 418.400000
8071 14329 9022 1 109.50000 418.400000
8071 14329 9023 1 109.50000 418.400000
9022 14329 9023 1 109.50000 418.400000
5344 14330 9024 1 109.50000 418.400000
5344 14330 9025 1 109.50000 418.400000
5344 14330 11229 1 109.50000 418.400000
9024 14330 9025 1 109.50000 418.400000
9024 14330 11229 1 109.50000 418.400000
9025 14330 11229 1 109.50000 418.400000
7936 14331 9026 1 109.50000 418.400000
7936 14331 9027 1 109.50000 418.400000
7936 14331 9028 1 109.50000 418.400000
9026 14331 9027 1 109.50000 418.400000
9026 14331 9028 1 109.50000 418.400000
9027 14331 9028 1 109.50000 418.400000
7045 14332 8941 1 109.50000 418.400000
7045 14332 9029 1 109.50000 418.400000
7045 14332 9030 1 109.50000 418.400000
8941 14332 9029 1 109.50000 418.400000
8941 14332 9030 1 109.50000 418.400000
9029 14332 9030 1 109.50000 418.400000
3544 14333 9031 1 109.50000 418.400000
3544 14333 9032 1 109.50000 418.400000
3544 14333 9033 1 109.50000 418.400000
9031 14333 9032 1 109.50000 418.400000
9031 14333 9033 1 109.50000 418.400000
9032 14333 9033 1 109.50000 418.400000
1328 14334 4875 1 109.50000 418.400000
1328 14334 6236 1 109.50000 418.400000
1328 14334 9034 1 109.50000 418.400000
4875 14334 6236 1 109.50000 418.400000
4875 14334 9034 1 109.50000 418.400000
6236 14334 9034 1 109.50000 418.400000
4535 14335 5828 1 109.50000 418.400000
4535 14335 5829 1 109.50000 418.400000
4535 14335 6960 1 109.50000 418.400000
5828 14335 5829 1 109.50000 418.400000
5828 14335 6960 1 109.50000 418.400000
5829 14335 6960 1 109.50000 418.400000
1466 14336 3017 1 109.50000 418.400000
1466 14336 9036 1 109.50000 418.400000
1466 14336 9037 1 109.50000 418.400000
3017 14336 9036 1 109.50000 418.400000
3017 14336 9037 1 109.50000 418.400000
9036 14336 9037 1 109.50000 418.400000
2703 14337 4770 1 109.50000 418.400000
2703 14337 9038 1 109.50000 418.400000
2703 14337 9039 1 109.50000 418.400000
4770 14337 9038 1 109.50000 418.400000
4770 14337 9039 1 109.50000 418.400000
9038 14337 9039 1 109.50000 418.400000
6485 14338 9040 1 109.50000 418.400000
6485 14338 9042 1 109.50000 418.400000
6485 14338 9043 1 109.50000 418.400000
9040 14338 9042 1 109.50000 418.400000
9040 14338 9043 1 109.50000 418.400000
9042 14338 9043 1 109.50000 418.400000
2351 14339 3317 1 109.50000 418.400000
2351 14339 5078 1 109.50000 418.400000
2351 14339 9044 1 109.50000 418.400000
3317 14339 5078 1 109.50000 418.400000
3317 14339 9044 1 109.50000 418.400000
5078 14339 9044 1 109.50000 418.400000
117 14340 6388 1 109.50000 418.400000
117 14340 8806 1 109.50000 418.400000
117 14340 9045 1 109.50000 418.400000
6388 14340 8806 1 109.50000 418.400000
6388 14340 9045 1 109.50000 418.400000
8806 14340 9045 1 109.50000 418.400000
7928 14341 8360 1 109.50000 418.400000
7928 14341 9046 1 109.50000 418.400000
7928 14341 9047 1 109.50000 418.400000
8360 14341 9046 1 109.50000 418.400000
8360 14341 9047 1 109.50000 418.400000
9046 14341 9047 1 109.50000 418.400000
2288 14342 5838 1 109.50000 418.400000
2288 14342 9049 1 109.50000 418.400000
2288 14342 9050 1 109.50000 418.400000
5838 14342 9049 1 109.50000 418.400000
5838 14342 9050 1 109.50000 418.400000
9049 14342 9050 1 109.50000 418.400000
6365 14343 8381 1 109.50000 418.400000
6365 14343 9051 1 109.50000 418.400000
6365 14343 9052 1 109.50000 418.400000
8381 14343 9051 1 109.50000 418.400000
8381 14343 9052 1 109.50000 418.400000
9051 14343 9052 1 109.50000 418.400000
2811 14344 5037 1 109.50000 418.400000
2811 14344 7070 1 109.50000 418.400000
2811 14344 9053 1 109.50000 418.400000
5037 14344 7070 1 109.50000 418.400000
5037 14344 9053 1 109.50000 418.400000
7070 14344 9053 1 109.50000 418.400000
722 14345 724 1 109.50000 418.400000
722 14345 2383 1 109.50000 418.400000
722 14345 4214 1 109.50000 418.400000
724 14345 2383 1 109.50000 418.400000
724 14345 4214 1 109.50000 418.400000
2383 14345 4214 1 109.50000 418.400000
5602 14346 7375 1 109.50000 418.400000
5602 14346 8530 1 109.50000 418.400000
5602 14346 9056 1 109.50000 418.400000
7375 14346 8530 1 109.50000 418.400000
7375 14346 9056 1 109.50000 418.400000
8530 14346 9056 1 109.50000 418.400000
6793 14347 9057 1 109.50000 418.400000
6793 14347 9058 1 109.50000 418.400000
6793 14347 9059 1 109.50000 418.400000
9057 14347 9058 1 109.50000 418.400000
9057 14347 9059 1 109.50000 418.400000
9058 14347 9059 1 109.50000 418.400000
7061 14348 7063 1 109.50000 418.400000
7061 14348 8913 1 109.50000 418.400000
7061 14348 9060 1 109.50000 418.400000
7063 14348 8913 1 109.50000 418.400000
7063 14348 9060 1 109.50000 418.400000
8913 14348 9060 1 109.50000 418.400000
6875 14349 9062 1 109.50000 418.400000
6875 14349 9063 1 109.50000 418.400000
6875 14349 9064 1 109.50000 418.400000
9062 14349 9063 1 109.50000 418.400000
9062 14349 9064 1 109.50000 418.400000
9063 14349 9064 1 109.50000 418.400000
1177 14350 2276 1 109.50000 418.400000
1177 14350 6421 1 109.50000 418.400000
1177 14350 9065 1 109.50000 418.400000
2276 14350 6421 1 109.50000 418.400000
2276 14350 9065 1 109.50000 418.400000
6421 14350 9065 1 109.50000 418.400000
1182 14351 2335 1 109.50000 418.400000
1182 14351 6774 1 109.50000 418.400000
1182 14351 9066 1 109.50000 418.400000
2335 14351 6774 1 109.50000 418.400000
2335 14351 9066 1 109.50000 418.400000
6774 14351 9066 1 109.50000 418.400000
3968 14352 6918 1 109.50000 418.400000
3968 14352 9068 1 109.50000 418.400000
3968 14352 10459 1 109.50000 418.400000
6918 14352 9068 1 109.50000 418.400000
6918 14352 10459 1 109.50000 418.400000
9068 14352 10459 1 109.50000 418.400000
4484 14353 4989 1 109.50000 418.400000
4484 14353 9070 1 109.50000 418.400000
4484 14353 9071 1 109.50000 418.400000
4989 14353 9070 1 109.50000 418.400000
4989 14353 9071 1 109.50000 418.400000
9070 14353 9071 1 109.50000 418.400000
4760 14354 4761 1 109.50000 418.400000
4760 14354 8148 1 109.50000 418.400000
4760 14354 9072 1 109.50000 418.400000
4761 14354 8148 1 109.50000 418.400000
4761 14354 9072 1 109.50000 418.400000
8148 14354 9072 1 109.50000 418.400000
4672 14355 5901 1 109.50000 418.400000
4672 14355 9074 1 109.50000 418.400000
4672 14355 9075 1 109.50000 418.400000
5901 14355 9074 1 109.50000 418.400000
5901 14355 9075 1 109.50000 418.400000
9074 14355 9075 1 109.50000 418.400000
9076 14356 9077 1 109.50000 418.400000
9076 14356 9078 1 109.50000 418.400000
9076 14356 9079 1 109.50000 418.400000
9077 14356 9078 1 109.50000 418.400000
9077 14356 9079 1 109.50000 418.400000
9078 14356 9079 1 109.50000 418.400000
4904 14357 9080 1 109.50000 418.400000
4904 14357 9081 1 109.50000 418.400000
4904 14357 9083 1 109.50000 418.400000
9080 14357 9081 1 109.50000 418.400000
9080 14357 9083 1 109.50000 418.400000
9081 14357 9083 1 109.50000 418.400000
5795 14358 7269 1 109.50000 418.400000
5795 14358 8397 1 109.50000 418.400000
5795 14358 9084 1 109.50000 418.400000
7269 14358 8397 1 109.50000 418.400000
7269 14358 9084 1 109.50000 418.400000
8397 14358 9084 1 109.50000 418.400000
3734 14359 5329 1 109.50000 418.400000
3734 14359 6336 1 109.50000 418.400000
3734 14359 6337 1 109.50000 418.400000
5329 14359 6336 1 109.50000 418.400000
5329 14359 6337 1 109.50000 418.400000
6336 14359 6337 1 109.50000 418.400000
6165 14360 6620 1 109.50000 418.400000
6165 14360 6622 1 109.50000 418.400000
6165 14360 9086 1 109.50000 418.400000
6620 14360 6622 1 109.50000 418.400000
6620 14360 9086 1 109.50000 418.400000
6622 14360 9086 1 109.50000 418.400000
453 14361 1519 1 109.50000 418.400000
453 14361 7381 1 109.50000 418.400000
453 14361 9087 1 109.50000 418.400000
1519 14361 7381 1 109.50000 418.400000
1519 14361 9087 1 109.50000 418.400000
7381 14361 9087 1 109.50000 418.400000
435 14362 9091 1 109.50000 418.400000
435 14362 9092 1 109.50000 418.400000
435 14362 9093 1 109.50000 418.400000
9091 14362 9092 1 109.50000 418.400000
9091 14362 9093 1 109.50000 418.400000
9092 14362 9093 1 109.50000 418.400000
5546 14363 9093 1 109.50000 418.400000
5546 14363 9094 1 109.50000 418.400000
5546 14363 9095 1 109.50000 418.400000
9093 14363 9094 1 109.50000 418.400000
9093 14363 9095 1 109.50000 418.400000
9094 14363 9095 1 109.50000 418.400000
6499 14364 9081 1 109.50000 418.400000
6499 14364 9096 1 109.50000 418.400000
6499 14364 9097 1 109.50000 418.400000
9081 14364 9096 1 109.50000 418.400000
9081 14364 9097 1 109.50000 418.400000
9096 14364 9097 1 109.50000 418.400000
3605 14365 8424 1 109.50000 418.400000
3605 14365 9099 1 109.50000 418.400000
3605 14365 9100 1 109.50000 418.400000
8424 14365 9099 1 109.50000 418.400000
8424 14365 9100 1 109.50000 418.400000
9099 14365 9100 1 109.50000 418.400000
5564 14366 6312 1 109.50000 418.400000
5564 14366 9101 1 109.50000 418.400000
5564 14366 9102 1 109.50000 418.400000
6312 14366 9101 1 109.50000 418.400000
6312 14366 9102 1 109.50000 418.400000
9101 14366 9102 1 109.50000 418.400000
7202 14367 9105 1 109.50000 418.400000
7202 14367 9106 1 109.50000 418.400000
7202 14367 9107 1 109.50000 418.400000
9105 14367 9106 1 109.50000 418.400000
9105 14367 9107 1 109.50000 418.400000
9106 14367 9107 1 109.50000 418.400000
4428 14368 7498 1 109.50000 418.400000
4428 14368 7518 1 109.50000 418.400000
4428 14368 9108 1 109.50000 418.400000
7498 14368 7518 1 109.50000 418.400000
7498 14368 9108 1 109.50000 418.400000
7518 14368 9108 1 109.50000 418.400000
6708 14369 8322 1 109.50000 418.400000
6708 14369 9060 1 109.50000 418.400000
6708 14369 9109 1 109.50000 418.400000
8322 14369 9060 1 109.50000 418.400000
8322 14369 9109 1 109.50000 418.400000
9060 14369 9109 1 109.50000 418.400000
6174 14370 7712 1 109.50000 418.400000
6174 14370 9110 1 109.50000 418.400000
6174 14370 9112 1 109.50000 418.400000
7712 14370 9110 1 109.50000 418.400000
7712 14370 9112 1 109.50000 418.400000
9110 14370 9112 1 109.50000 418.400000
5942 14371 6487 1 109.50000 418.400000
5942 14371 6488 1 109.50000 418.400000
5942 14371 9113 1 109.50000 418.400000
6487 14371 6488 1 109.50000 418.400000
6487 14371 9113 1 109.50000 418.400000
6488 14371 9113 1 109.50000 418.400000
4219 14372 9114 1 109.50000 418.400000
4219 14372 9115 1 109.50000 418.400000
4219 14372 9116 1 109.50000 418.400000
9114 14372 9115 1 109.50000 418.400000
9114 14372 9116 1 109.50000 418.400000
9115 14372 9116 1 109.50000 418.400000
7786 14373 9117 1 109.50000 418.400000
7786 14373 9118 1 109.50000 418.400000
7786 14373 9120 1 109.50000 418.400000
9117 14373 9118 1 109.50000 418.400000
9117 14373 9120 1 109.50000 418.400000
9118 14373 9120 1 109.50000 418.400000
7724 14374 8033 1 109.50000 418.400000
7724 14374 9121 1 109.50000 418.400000
7724 14374 9122 1 109.50000 418.400000
8033 14374 9121 1 109.50000 418.400000
8033 14374 9122 1 109.50000 418.400000
9121 14374 9122 1 109.50000 418.400000
5042 14375 9123 1 109.50000 418.400000
5042 14375 9124 1 109.50000 418.400000
5042 14375 9125 1 109.50000 418.400000
9123 14375 9124 1 109.50000 418.400000
9123 14375 9125 1 109.50000 418.400000
9124 14375 9125 1 109.50000 418.400000
3205 14376 9107 1 109.50000 418.400000
3205 14376 9127 1 109.50000 418.400000
3205 14376 9128 1 109.50000 418.400000
9107 14376 9127 1 109.50000 418.400000
9107 14376 9128 1 109.50000 418.400000
9127 14376 9128 1 109.50000 418.400000
1192 14377 5619 1 109.50000 418.400000
1192 14377 5625 1 109.50000 418.400000
1192 14377 7699 1 109.50000 418.400000
5619 14377 5625 1 109.50000 418.400000
5619 14377 7699 1 109.50000 418.400000
5625 14377 7699 1 109.50000 418.400000
1378 14378 4375 1 109.50000 418.400000
1378 14378 8737 1 109.50000 418.400000
1378 14378 9129 1 109.50000 418.400000
4375 14378 8737 1 109.50000 418.400000
4375 14378 9129 1 109.50000 418.400000
8737 14378 9129 1 109.50000 418.400000
9130 14379 9131 1 109.50000 418.400000
9130 14379 9132 1 109.50000 418.400000
9130 14379 9133 1 109.50000 418.400000
9131 14379 9132 1 109.50000 418.400000
9131 14379 9133 1 109.50000 418.400000
9132 14379 9133 1 109.50000 418.400000
1621 14380 2525 1 109.50000 418.400000
1621 14380 7275 1 109.50000 418.400000
1621 14380 8699 1 109.50000 418.400000
2525 14380 7275 1 109.50000 418.400000
2525 14380 8699 1 109.50000 418.400000
7275 14380 8699 1 109.50000 418.400000
3326 14381 3328 1 109.50000 418.400000
3326 14381 4686 1 109.50000 418.400000
3326 14381 4893 1 109.50000 418.400000
3328 14381 4686 1 109.50000 418.400000
3328 14381 4893 1 109.50000 418.400000
4686 14381 4893 1 109.50000 418.400000
1334 14382 3691 1 109.50000 418.400000
1334 14382 9135 1 109.50000 418.400000
1334 14382 9136 1 109.50000 418.400000
3691 14382 9135 1 109.50000 418.400000
3691 14382 9136 1 109.50000 418.400000
9135 14382 9136 1 109.50000 418.400000
1445 14383 7010 1 109.50000 418.400000
1445 14383 9137 1 109.50000 418.400000
1445 14383 9138 1 109.50000 418.400000
7010 14383 9137 1 109.50000 418.400000
7010 14383 9138 1 109.50000 418.400000
9137 14383 9138 1 109.50000 418.400000
2827 14384 5097 1 109.50000 418.400000
2827 14384 7206 1 109.50000 418.400000
2827 14384 9141 1 109.50000 418.400000
5097 14384 7206 1 109.50000 418.400000
5097 14384 9141 1 109.50000 418.400000
7206 14384 9141 1 109.50000 418.400000
2076 14385 8157 1 109.50000 418.400000
2076 14385 9019 1 109.50000 418.400000
2076 14385 9142 1 109.50000 418.400000
8157 14385 9019 1 109.50000 418.400000
8157 14385 9142 1 109.50000 418.400000
9019 14385 9142 1 109.50000 418.400000
367 14386 7898 1 109.50000 418.400000
367 14386 8366 1 109.50000 418.400000
367 14386 9145 1 109.50000 418.400000
7898 14386 8366 1 109.50000 418.400000
7898 14386 9145 1 109.50000 418.400000
8366 14386 9145 1 109.50000 418.400000
2881 14387 3960 1 109.50000 418.400000
2881 14387 7867 1 109.50000 418.400000
2881 14387 7993 1 109.50000 418.400000
3960 14387 7867 1 109.50000 418.400000
3960 14387 7993 1 109.50000 418.400000
7867 14387 7993 1 109.50000 418.400000
2489 14388 5655 1 109.50000 418.400000
2489 14388 8753 1 109.50000 418.400000
2489 14388 9148 1 109.50000 418.400000
5655 14388 8753 1 109.50000 418.400000
5655 14388 9148 1 109.50000 418.400000
8753 14388 9148 1 109.50000 418.400000
5605 14389 9149 1 109.50000 418.400000
5605 14389 9150 1 109.50000 418.400000
5605 14389 9151 1 109.50000 418.400000
9149 14389 9150 1 109.50000 418.400000
9149 14389 9151 1 109.50000 418.400000
9150 14389 9151 1 109.50000 418.400000
7420 14390 9152 1 109.50000 418.400000
7420 14390 9153 1 109.50000 418.400000
7420 14390 9154 1 109.50000 418.400000
9152 14390 9153 1 109.50000 418.400000
9152 14390 9154 1 109.50000 418.400000
9153 14390 9154 1 109.50000 418.400000
4625 14391 5562 1 109.50000 418.400000
4625 14391 7334 1 109.50000 418.400000
4625 14391 9155 1 109.50000 418.400000
5562 14391 7334 1 109.50000 418.400000
5562 14391 9155 1 109.50000 418.400000
7334 14391 9155 1 109.50000 418.400000
1505 14392 3583 1 109.50000 418.400000
1505 14392 9156 1 109.50000 418.400000
1505 14392 9157 1 109.50000 418.400000
3583 14392 9156 1 109.50000 418.400000
3583 14392 9157 1 109.50000 418.400000
9156 14392 9157 1 109.50000 418.400000
2505 14393 2507 1 109.50000 418.400000
2505 14393 5438 1 109.50000 418.400000
2505 14393 9158 1 109.50000 418.400000
2507 14393 5438 1 109.50000 418.400000
2507 14393 9158 1 109.50000 418.400000
5438 14393 9158 1 109.50000 418.400000
7748 14394 9160 1 109.50000 418.400000
7748 14394 9161 1 109.50000 418.400000
7748 14394 9162 1 109.50000 418.400000
9160 14394 9161 1 109.50000 418.400000
9160 14394 9162 1 109.50000 418.400000
9161 14394 9162 1 109.50000 418.400000
3431 14395 9163 1 109.50000 418.400000
3431 14395 9164 1 109.50000 418.400000
3431 14395 9165 1 109.50000 418.400000
9163 14395 9164 1 109.50000 418.400000
9163 14395 9165 1 109.50000 418.400000
9164 14395 9165 1 109.50000 418.400000
8258 14396 8871 1 109.50000 418.400000
8258 14396 9166 1 109.50000 418.400000
8258 14396 9167 1 109.50000 418.400000
8871 14396 9166 1 109.50000 418.400000
8871 14396 9167 1 109.50000 418.400000
9166 14396 9167 1 109.50000 418.400000
2163 14397 4480 1 109.50000 418.400000
2163 14397 5434 1 109.50000 418.400000
2163 14397 9110 1 109.50000 418.400000
4480 14397 5434 1 109.50000 418.400000
4480 14397 9110 1 109.50000 418.400000
5434 14397 9110 1 109.50000 418.400000
351 14398 1775 1 109.50000 418.400000
351 14398 2869 1 109.50000 418.400000
351 14398 9169 1 109.50000 418.400000
1775 14398 2869 1 109.50000 418.400000
1775 14398 9169 1 109.50000 418.400000
2869 14398 9169 1 109.50000 418.400000
1058 14399 6661 1 109.50000 418.400000
1058 14399 7014 1 109.50000 418.400000
1058 14399 9084 1 109.50000 418.400000
6661 14399 7014 1 109.50000 418.400000
6661 14399 9084 1 109.50000 418.400000
7014 14399 9084 1 109.50000 418.400000
3911 14400 8395 1 109.50000 418.400000
3911 14400 9170 1 109.50000 418.400000
3911 14400 9171 1 109.50000 418.400000
8395 14400 9170 1 109.50000 418.400000
8395 14400 9171 1 109.50000 418.400000
9170 14400 9171 1 109.50000 418.400000
786 14401 2180 1 109.50000 418.400000
786 14401 3607 1 109.50000 418.400000
786 14401 9173 1 109.50000 418.400000
2180 14401 3607 1 109.50000 418.400000
2180 14401 9173 1 109.50000 418.400000
3607 14401 9173 1 109.50000 418.400000
6253 14402 7246 1 109.50000 418.400000
6253 14402 9176 1 109.50000 418.400000
6253 14402 9177 1 109.50000 418.400000
7246 14402 9176 1 109.50000 418.400000
7246 14402 9177 1 109.50000 418.400000
9176 14402 9177 1 109.50000 418.400000
7495 14403 7857 1 109.50000 418.400000
7495 14403 8721 1 109.50000 418.400000
7495 14403 9178 1 109.50000 418.400000
7857 14403 8721 1 109.50000 418.400000
7857 14403 9178 1 109.50000 418.400000
8721 14403 9178 1 109.50000 418.400000
8105 14404 8106 1 109.50000 418.400000
8105 14404 9179 1 109.50000 418.400000
8105 14404 9181 1 109.50000 418.400000
8106 14404 9179 1 109.50000 418.400000
8106 14404 9181 1 109.50000 418.400000
9179 14404 9181 1 109.50000 418.400000
888 14405 8499 1 109.50000 418.400000
888 14405 9182 1 109.50000 418.400000
888 14405 10755 1 109.50000 418.400000
8499 14405 9182 1 109.50000 418.400000
8499 14405 10755 1 109.50000 418.400000
9182 14405 10755 1 109.50000 418.400000
4467 14406 7166 1 109.50000 418.400000
4467 14406 7779 1 109.50000 418.400000
4467 14406 8461 1 109.50000 418.400000
7166 14406 7779 1 109.50000 418.400000
7166 14406 8461 1 109.50000 418.400000
7779 14406 8461 1 109.50000 418.400000
4434 14407 6199 1 109.50000 418.400000
4434 14407 9183 1 109.50000 418.400000
4434 14407 9184 1 109.50000 418.400000
6199 14407 9183 1 109.50000 418.400000
6199 14407 9184 1 109.50000 418.400000
9183 14407 9184 1 109.50000 418.400000
1647 14408 6689 1 109.50000 418.400000
1647 14408 8503 1 109.50000 418.400000
1647 14408 9185 1 109.50000 418.400000
6689 14408 8503 1 109.50000 418.400000
6689 14408 9185 1 109.50000 418.400000
8503 14408 9185 1 109.50000 418.400000
2001 14409 2545 1 109.50000 418.400000
2001 14409 7946 1 109.50000 418.400000
2001 14409 8034 1 109.50000 418.400000
2545 14409 7946 1 109.50000 418.400000
2545 14409 8034 1 109.50000 418.400000
7946 14409 8034 1 109.50000 418.400000
2910 14410 4299 1 109.50000 418.400000
2910 14410 5482 1 109.50000 418.400000
2910 14410 9186 1 109.50000 418.400000
4299 14410 5482 1 109.50000 418.400000
4299 14410 9186 1 109.50000 418.400000
5482 14410 9186 1 109.50000 418.400000
4999 14411 5713 1 109.50000 418.400000
4999 14411 7644 1 109.50000 418.400000
4999 14411 9187 1 109.50000 418.400000
5713 14411 7644 1 109.50000 418.400000
5713 14411 9187 1 109.50000 418.400000
7644 14411 9187 1 109.50000 418.400000
5584 14412 7481 1 109.50000 418.400000
5584 14412 8765 1 109.50000 418.400000
5584 14412 9188 1 109.50000 418.400000
7481 14412 8765 1 109.50000 418.400000
7481 14412 9188 1 109.50000 418.400000
8765 14412 9188 1 109.50000 418.400000
3018 14413 3390 1 109.50000 418.400000
3018 14413 8539 1 109.50000 418.400000
3018 14413 9192 1 109.50000 418.400000
3390 14413 8539 1 109.50000 418.400000
3390 14413 9192 1 109.50000 418.400000
8539 14413 9192 1 109.50000 418.400000
3540 14414 9193 1 109.50000 418.400000
3540 14414 11140 1 109.50000 418.400000
3540 14414 11177 1 109.50000 418.400000
9193 14414 11140 1 109.50000 418.400000
9193 14414 11177 1 109.50000 418.400000
11140 14414 11177 1 109.50000 418.400000
4691 14415 5963 1 109.50000 418.400000
4691 14415 5965 1 109.50000 418.400000
4691 14415 11157 1 109.50000 418.400000
5963 14415 5965 1 109.50000 418.400000
5963 14415 11157 1 109.50000 418.400000
5965 14415 11157 1 109.50000 418.400000
2159 14416 6561 1 109.50000 418.400000
2159 14416 8370 1 109.50000 418.400000
2159 14416 9195 1 109.50000 418.400000
6561 14416 8370 1 109.50000 418.400000
6561 14416 9195 1 109.50000 418.400000
8370 14416 9195 1 109.50000 418.400000
5531 14417 8263 1 109.50000 418.400000
5531 14417 9196 1 109.50000 418.400000
5531 14417 9197 1 109.50000 418.400000
8263 14417 9196 1 109.50000 418.400000
8263 14417 9197 1 109.50000 418.400000
9196 14417 9197 1 109.50000 418.400000
4827 14418 9198 1 109.50000 418.400000
4827 14418 9199 1 109.50000 418.400000
4827 14418 9200 1 109.50000 418.400000
9198 14418 9199 1 109.50000 418.400000
9198 14418 9200 1 109.50000 418.400000
9199 14418 9200 1 109.50000 418.400000
5375 14419 7144 1 109.50000 418.400000
5375 14419 9201 1 109.50000 418.400000
5375 14419 9202 1 109.50000 418.400000
7144 14419 9201 1 109.50000 418.400000
7144 14419 9202 1 109.50000 418.400000
9201 14419 9202 1 109.50000 418.400000
2977 14420 8293 1 109.50000 418.400000
2977 14420 9203 1 109.50000 418.400000
2977 14420 9204 1 109.50000 418.400000
8293 14420 9203 1 109.50000 418.400000
8293 14420 9204 1 109.50000 418.400000
9203 14420 9204 1 109.50000 418.400000
1522 14421 5271 1 109.50000 418.400000
1522 14421 9205 1 109.50000 418.400000
1522 14421 9206 1 109.50000 418.400000
5271 14421 9205 1 109.50000 418.400000
5271 14421 9206 1 109.50000 418.400000
9205 14421 9206 1 109.50000 418.400000
398 14422 400 1 109.50000 418.400000
398 14422 2911 1 109.50000 418.400000
398 14422 6209 1 109.50000 418.400000
400 14422 2911 1 109.50000 418.400000
400 14422 6209 1 109.50000 418.400000
2911 14422 6209 1 109.50000 418.400000
778 14423 9207 1 109.50000 418.400000
778 14423 9208 1 109.50000 418.400000
778 14423 9209 1 109.50000 418.400000
9207 14423 9208 1 109.50000 418.400000
9207 14423 9209 1 109.50000 418.400000
9208 14423 9209 1 109.50000 418.400000
597 14424 9210 1 109.50000 418.400000
597 14424 9211 1 109.50000 418.400000
597 14424 9212 1 109.50000 418.400000
9210 14424 9211 1 109.50000 418.400000
9210 14424 9212 1 109.50000 418.400000
9211 14424 9212 1 109.50000 418.400000
3187 14425 5684 1 109.50000 418.400000
3187 14425 5911 1 109.50000 418.400000
3187 14425 9213 1 109.50000 418.400000
5684 14425 5911 1 109.50000 418.400000
5684 14425 9213 1 109.50000 418.400000
5911 14425 9213 1 109.50000 418.400000
2071 14426 5035 1 109.50000 418.400000
2071 14426 5076 1 109.50000 418.400000
2071 14426 9214 1 109.50000 418.400000
5035 14426 5076 1 109.50000 418.400000
5035 14426 9214 1 109.50000 418.400000
5076 14426 9214 1 109.50000 418.400000
6185 14427 9215 1 109.50000 418.400000
6185 14427 9362 1 109.50000 418.400000
6185 14427 10920 1 109.50000 418.400000
9215 14427 9362 1 109.50000 418.400000
9215 14427 10920 1 109.50000 418.400000
9362 14427 10920 1 109.50000 418.400000
3597 14428 8501 1 109.50000 418.400000
3597 14428 8777 1 109.50000 418.400000
3597 14428 9218 1 109.50000 418.400000
8501 14428 8777 1 109.50000 418.400000
8501 14428 9218 1 109.50000 418.400000
8777 14428 9218 1 109.50000 418.400000
2782 14429 6255 1 109.50000 418.400000
2782 14429 8254 1 109.50000 418.400000
2782 14429 9219 1 109.50000 418.400000
6255 14429 8254 1 109.50000 418.400000
6255 14429 9219 1 109.50000 418.400000
8254 14429 9219 1 109.50000 418.400000
3319 14430 6208 1 109.50000 418.400000
3319 14430 9220 1 109.50000 418.400000
3319 14430 9221 1 109.50000 418.400000
6208 14430 9220 1 109.50000 418.400000
6208 14430 9221 1 109.50000 418.400000
9220 14430 9221 1 109.50000 418.400000
1311 14431 1320 1 109.50000 418.400000
1311 14431 6637 1 109.50000 418.400000
1311 14431 9222 1 109.50000 418.400000
1320 14431 6637 1 109.50000 418.400000
1320 14431 9222 1 109.50000 418.400000
6637 14431 9222 1 109.50000 418.400000
1902 14432 1905 1 109.50000 418.400000
1902 14432 9223 1 109.50000 418.400000
1902 14432 9224 1 109.50000 418.400000
1905 14432 9223 1 109.50000 418.400000
1905 14432 9224 1 109.50000 418.400000
9223 14432 9224 1 109.50000 418.400000
4335 14433 4788 1 109.50000 418.400000
4335 14433 6777 1 109.50000 418.400000
4335 14433 9225 1 109.50000 418.400000
4788 14433 6777 1 109.50000 418.400000
4788 14433 9225 1 109.50000 418.400000
6777 14433 9225 1 109.50000 418.400000
2750 14434 8051 1 109.50000 418.400000
2750 14434 9226 1 109.50000 418.400000
2750 14434 9227 1 109.50000 418.400000
8051 14434 9226 1 109.50000 418.400000
8051 14434 9227 1 109.50000 418.400000
9226 14434 9227 1 109.50000 418.400000
6797 14435 7227 1 109.50000 418.400000
6797 14435 8066 1 109.50000 418.400000
6797 14435 9228 1 109.50000 418.400000
7227 14435 8066 1 109.50000 418.400000
7227 14435 9228 1 109.50000 418.400000
8066 14435 9228 1 109.50000 418.400000
1477 14436 9229 1 109.50000 418.400000
1477 14436 9230 1 109.50000 418.400000
1477 14436 9231 1 109.50000 418.400000
9229 14436 9230 1 109.50000 418.400000
9229 14436 9231 1 109.50000 418.400000
9230 14436 9231 1 109.50000 418.400000
2084 14437 3816 1 109.50000 418.400000
2084 14437 5748 1 109.50000 418.400000
2084 14437 7106 1 109.50000 418.400000
3816 14437 5748 1 109.50000 418.400000
3816 14437 7106 1 109.50000 418.400000
5748 14437 7106 1 109.50000 418.400000
906 14438 909 1 109.50000 418.400000
906 14438 6923 1 109.50000 418.400000
906 14438 6924 1 109.50000 418.400000
909 14438 6923 1 109.50000 418.400000
909 14438 6924 1 109.50000 418.400000
6923 14438 6924 1 109.50000 418.400000
5125 14439 6770 1 109.50000 418.400000
5125 14439 9232 1 109.50000 418.400000
5125 14439 9233 1 109.50000 418.400000
6770 14439 9232 1 109.50000 418.400000
6770 14439 9233 1 109.50000 418.400000
9232 14439 9233 1 109.50000 418.400000
386 14440 4588 1 109.50000 418.400000
386 14440 8021 1 109.50000 418.400000
386 14440 9219 1 109.50000 418.400000
4588 14440 8021 1 109.50000 418.400000
4588 14440 9219 1 109.50000 418.400000
8021 14440 9219 1 109.50000 418.400000
455 14441 5669 1 109.50000 418.400000
455 14441 9234 1 109.50000 418.400000
455 14441 9235 1 109.50000 418.400000
5669 14441 9234 1 109.50000 418.400000
5669 14441 9235 1 109.50000 418.400000
9234 14441 9235 1 109.50000 418.400000
616 14442 8056 1 109.50000 418.400000
616 14442 9236 1 109.50000 418.400000
616 14442 9237 1 109.50000 418.400000
8056 14442 9236 1 109.50000 418.400000
8056 14442 9237 1 109.50000 418.400000
9236 14442 9237 1 109.50000 418.400000
4622 14443 5687 1 109.50000 418.400000
4622 14443 9238 1 109.50000 418.400000
4622 14443 9239 1 109.50000 418.400000
5687 14443 9238 1 109.50000 418.400000
5687 14443 9239 1 109.50000 418.400000
9238 14443 9239 1 109.50000 418.400000
2168 14444 9240 1 109.50000 418.400000
2168 14444 9241 1 109.50000 418.400000
2168 14444 9242 1 109.50000 418.400000
9240 14444 9241 1 109.50000 418.400000
9240 14444 9242 1 109.50000 418.400000
9241 14444 9242 1 109.50000 418.400000
5098 14445 7235 1 109.50000 418.400000
5098 14445 9243 1 109.50000 418.400000
5098 14445 9244 1 109.50000 418.400000
7235 14445 9243 1 109.50000 418.400000
7235 14445 9244 1 109.50000 418.400000
9243 14445 9244 1 109.50000 418.400000
3412 14446 9245 1 109.50000 418.400000
3412 14446 9246 1 109.50000 418.400000
3412 14446 9247 1 109.50000 418.400000
9245 14446 9246 1 109.50000 418.400000
9245 14446 9247 1 109.50000 418.400000
9246 14446 9247 1 109.50000 418.400000
7040 14447 9248 1 109.50000 418.400000
7040 14447 9249 1 109.50000 418.400000
7040 14447 9250 1 109.50000 418.400000
9248 14447 9249 1 109.50000 418.400000
9248 14447 9250 1 109.50000 418.400000
9249 14447 9250 1 109.50000 418.400000
2503 14448 8525 1 109.50000 418.400000
2503 14448 9251 1 109.50000 418.400000
2503 14448 9252 1 109.50000 418.400000
8525 14448 9251 1 109.50000 418.400000
8525 14448 9252 1 109.50000 418.400000
9251 14448 9252 1 109.50000 418.400000
4421 14449 6606 1 109.50000 418.400000
4421 14449 7682 1 109.50000 418.400000
4421 14449 9253 1 109.50000 418.400000
6606 14449 7682 1 109.50000 418.400000
6606 14449 9253 1 109.50000 418.400000
7682 14449 9253 1 109.50000 418.400000
6044 14450 7352 1 109.50000 418.400000
6044 14450 9255 1 109.50000 418.400000
6044 14450 9256 1 109.50000 418.400000
7352 14450 9255 1 109.50000 418.400000
7352 14450 9256 1 109.50000 418.400000
9255 14450 9256 1 109.50000 418.400000
472 14451 5524 1 109.50000 418.400000
472 14451 9257 1 109.50000 418.400000
472 14451 9258 1 109.50000 418.400000
5524 14451 9257 1 109.50000 418.400000
5524 14451 9258 1 109.50000 418.400000
9257 14451 9258 1 109.50000 418.400000
5757 14452 7292 1 109.50000 418.400000
5757 14452 9259 1 109.50000 418.400000
5757 14452 9260 1 109.50000 418.400000
7292 14452 9259 1 109.50000 418.400000
7292 14452 9260 1 109.50000 418.400000
9259 14452 9260 1 109.50000 418.400000
4716 14453 4892 1 109.50000 418.400000
4716 14453 9261 1 109.50000 418.400000
4716 14453 9262 1 109.50000 418.400000
4892 14453 9261 1 109.50000 418.400000
4892 14453 9262 1 109.50000 418.400000
9261 14453 9262 1 109.50000 418.400000
2096 14454 6192 1 109.50000 418.400000
2096 14454 9249 1 109.50000 418.400000
2096 14454 9265 1 109.50000 418.400000
6192 14454 9249 1 109.50000 418.400000
6192 14454 9265 1 109.50000 418.400000
9249 14454 9265 1 109.50000 418.400000
302 14455 3673 1 109.50000 418.400000
302 14455 7089 1 109.50000 418.400000
302 14455 9063 1 109.50000 418.400000
3673 14455 7089 1 109.50000 418.400000
3673 14455 9063 1 109.50000 418.400000
7089 14455 9063 1 109.50000 418.400000
1207 14456 3332 1 109.50000 418.400000
1207 14456 11252 1 109.50000 418.400000
1207 14456 11262 1 109.50000 418.400000
3332 14456 11252 1 109.50000 418.400000
3332 14456 11262 1 109.50000 418.400000
11252 14456 11262 1 109.50000 418.400000
6857 14457 9266 1 109.50000 418.400000
6857 14457 9267 1 109.50000 418.400000
6857 14457 9268 1 109.50000 418.400000
9266 14457 9267 1 109.50000 418.400000
9266 14457 9268 1 109.50000 418.400000
9267 14457 9268 1 109.50000 418.400000
3919 14458 6397 1 109.50000 418.400000
3919 14458 9012 1 109.50000 418.400000
3919 14458 9270 1 109.50000 418.400000
6397 14458 9012 1 109.50000 418.400000
6397 14458 9270 1 109.50000 418.400000
9012 14458 9270 1 109.50000 418.400000
7044 14459 9272 1 109.50000 418.400000
7044 14459 9273 1 109.50000 418.400000
7044 14459 9274 1 109.50000 418.400000
9272 14459 9273 1 109.50000 418.400000
9272 14459 9274 1 109.50000 418.400000
9273 14459 9274 1 109.50000 418.400000
1219 14460 4551 1 109.50000 418.400000
1219 14460 5837 1 109.50000 418.400000
1219 14460 9275 1 109.50000 418.400000
4551 14460 5837 1 109.50000 418.400000
4551 14460 9275 1 109.50000 418.400000
5837 14460 9275 1 109.50000 418.400000
184 14461 278 1 109.50000 418.400000
184 14461 3009 1 109.50000 418.400000
184 14461 9277 1 109.50000 418.400000
278 14461 3009 1 109.50000 418.400000
278 14461 9277 1 109.50000 418.400000
3009 14461 9277 1 109.50000 418.400000
3573 14462 4475 1 109.50000 418.400000
3573 14462 7572 1 109.50000 418.400000
3573 14462 9278 1 109.50000 418.400000
4475 14462 7572 1 109.50000 418.400000
4475 14462 9278 1 109.50000 418.400000
7572 14462 9278 1 109.50000 418.400000
265 14463 9279 1 109.50000 418.400000
265 14463 9280 1 109.50000 418.400000
265 14463 9281 1 109.50000 418.400000
9279 14463 9280 1 109.50000 418.400000
9279 14463 9281 1 109.50000 418.400000
9280 14463 9281 1 109.50000 418.400000
1997 14464 2669 1 109.50000 418.400000
1997 14464 8796 1 109.50000 418.400000
1997 14464 9282 1 109.50000 418.400000
2669 14464 8796 1 109.50000 418.400000
2669 14464 9282 1 109.50000 418.400000
8796 14464 9282 1 109.50000 418.400000
1454 14465 2473 1 109.50000 418.400000
1454 14465 4854 1 109.50000 418.400000
1454 14465 5444 1 109.50000 418.400000
2473 14465 4854 1 109.50000 418.400000
2473 14465 5444 1 109.50000 418.400000
4854 14465 5444 1 109.50000 418.400000
3101 14466 7657 1 109.50000 418.400000
3101 14466 9284 1 109.50000 418.400000
3101 14466 11334 1 109.50000 418.400000
7657 14466 9284 1 109.50000 418.400000
7657 14466 11334 1 109.50000 418.400000
9284 14466 11334 1 109.50000 418.400000
354 14467 1839 1 109.50000 418.400000
354 14467 6493 1 109.50000 418.400000
354 14467 9285 1 109.50000 418.400000
1839 14467 6493 1 109.50000 418.400000
1839 14467 9285 1 109.50000 418.400000
6493 14467 9285 1 109.50000 418.400000
3220 14468 8389 1 109.50000 418.400000
3220 14468 9286 1 109.50000 418.400000
3220 14468 11173 1 109.50000 418.400000
8389 14468 9286 1 109.50000 418.400000
8389 14468 11173 1 109.50000 418.400000
9286 14468 11173 1 109.50000 418.400000
6460 14469 7333 1 109.50000 418.400000
6460 14469 9287 1 109.50000 418.400000
6460 14469 9288 1 109.50000 418.400000
7333 14469 9287 1 109.50000 418.400000
7333 14469 9288 1 109.50000 418.400000
9287 14469 9288 1 109.50000 418.400000
7392 14470 9289 1 109.50000 418.400000
7392 14470 9290 1 109.50000 418.400000
7392 14470 9291 1 109.50000 418.400000
9289 14470 9290 1 109.50000 418.400000
9289 14470 9291 1 109.50000 418.400000
9290 14470 9291 1 109.50000 418.400000
1359 14471 9213 1 109.50000 418.400000
1359 14471 9292 1 109.50000 418.400000
1359 14471 9293 1 109.50000 418.400000
9213 14471 9292 1 109.50000 418.400000
9213 14471 9293 1 109.50000 418.400000
9292 14471 9293 1 109.50000 418.400000
4747 14472 7608 1 109.50000 418.400000
4747 14472 8320 1 109.50000 418.400000
4747 14472 8835 1 109.50000 418.400000
7608 14472 8320 1 109.50000 418.400000
7608 14472 8835 1 109.50000 418.400000
8320 14472 8835 1 109.50000 418.400000
1682 14473 4350 1 109.50000 418.400000
1682 14473 6725 1 109.50000 418.400000
1682 14473 9294 1 109.50000 418.400000
4350 14473 6725 1 109.50000 418.400000
4350 14473 9294 1 109.50000 418.400000
6725 14473 9294 1 109.50000 418.400000
604 14474 6948 1 109.50000 418.400000
604 14474 9295 1 109.50000 418.400000
604 14474 9296 1 109.50000 418.400000
6948 14474 9295 1 109.50000 418.400000
6948 14474 9296 1 109.50000 418.400000
9295 14474 9296 1 109.50000 418.400000
2593 14475 9297 1 109.50000 418.400000
2593 14475 9298 1 109.50000 418.400000
2593 14475 9299 1 109.50000 418.400000
9297 14475 9298 1 109.50000 418.400000
9297 14475 9299 1 109.50000 418.400000
9298 14475 9299 1 109.50000 418.400000
2978 14476 6429 1 109.50000 418.400000
2978 14476 9300 1 109.50000 418.400000
2978 14476 9301 1 109.50000 418.400000
6429 14476 9300 1 109.50000 418.400000
6429 14476 9301 1 109.50000 418.400000
9300 14476 9301 1 109.50000 418.400000
1851 14477 8192 1 109.50000 418.400000
1851 14477 9302 1 109.50000 418.400000
1851 14477 9303 1 109.50000 418.400000
8192 14477 9302 1 109.50000 418.400000
8192 14477 9303 1 109.50000 418.400000
9302 14477 9303 1 109.50000 418.400000
5768 14478 8204 1 109.50000 418.400000
5768 14478 9280 1 109.50000 418.400000
5768 14478 9304 1 109.50000 418.400000
8204 14478 9280 1 109.50000 418.400000
8204 14478 9304 1 109.50000 418.400000
9280 14478 9304 1 109.50000 418.400000
793 14479 9305 1 109.50000 418.400000
793 14479 9306 1 109.50000 418.400000
793 14479 9307 1 109.50000 418.400000
9305 14479 9306 1 109.50000 418.400000
9305 14479 9307 1 109.50000 418.400000
9306 14479 9307 1 109.50000 418.400000
3272 14480 7165 1 109.50000 418.400000
3272 14480 8890 1 109.50000 418.400000
3272 14480 9308 1 109.50000 418.400000
7165 14480 8890 1 109.50000 418.400000
7165 14480 9308 1 109.50000 418.400000
8890 14480 9308 1 109.50000 418.400000
857 14481 6099 1 109.50000 418.400000
857 14481 8573 1 109.50000 418.400000
857 14481 8701 1 109.50000 418.400000
6099 14481 8573 1 109.50000 418.400000
6099 14481 8701 1 109.50000 418.400000
8573 14481 8701 1 109.50000 418.400000
1842 14482 3856 1 109.50000 418.400000
1842 14482 8779 1 109.50000 418.400000
1842 14482 9309 1 109.50000 418.400000
3856 14482 8779 1 109.50000 418.400000
3856 14482 9309 1 109.50000 418.400000
8779 14482 9309 1 109.50000 418.400000
3985 14483 6083 1 109.50000 418.400000
3985 14483 9310 1 109.50000 418.400000
3985 14483 9311 1 109.50000 418.400000
6083 14483 9310 1 109.50000 418.400000
6083 14483 9311 1 109.50000 418.400000
9310 14483 9311 1 109.50000 418.400000
8168 14484 9312 1 109.50000 418.400000
8168 14484 9313 1 109.50000 418.400000
8168 14484 9314 1 109.50000 418.400000
9312 14484 9313 1 109.50000 418.400000
9312 14484 9314 1 109.50000 418.400000
9313 14484 9314 1 109.50000 418.400000
2664 14485 7415 1 109.50000 418.400000
2664 14485 8216 1 109.50000 418.400000
2664 14485 8217 1 109.50000 418.400000
7415 14485 8216 1 109.50000 418.400000
7415 14485 8217 1 109.50000 418.400000
8216 14485 8217 1 109.50000 418.400000
5511 14486 8695 1 109.50000 418.400000
5511 14486 9315 1 109.50000 418.400000
5511 14486 9316 1 109.50000 418.400000
8695 14486 9315 1 109.50000 418.400000
8695 14486 9316 1 109.50000 418.400000
9315 14486 9316 1 109.50000 418.400000
1965 14487 2371 1 109.50000 418.400000
1965 14487 3102 1 109.50000 418.400000
1965 14487 9317 1 109.50000 418.400000
2371 14487 3102 1 109.50000 418.400000
2371 14487 9317 1 109.50000 418.400000
3102 14487 9317 1 109.50000 418.400000
6301 14488 7641 1 109.50000 418.400000
6301 14488 8868 1 109.50000 418.400000
6301 14488 9085 1 109.50000 418.400000
7641 14488 8868 1 109.50000 418.400000
7641 14488 9085 1 109.50000 418.400000
8868 14488 9085 1 109.50000 418.400000
1400 14489 6249 1 109.50000 418.400000
1400 14489 6542 1 109.50000 418.400000
1400 14489 8857 1 109.50000 418.400000
6249 14489 6542 1 109.50000 418.400000
6249 14489 8857 1 109.50000 418.400000
6542 14489 8857 1 109.50000 418.400000
6085 14490 9318 1 109.50000 418.400000
6085 14490 9319 1 109.50000 418.400000
6085 14490 9320 1 109.50000 418.400000
9318 14490 9319 1 109.50000 418.400000
9318 14490 9320 1 109.50000 418.400000
9319 14490 9320 1 109.50000 418.400000
6546 14491 7320 1 109.50000 418.400000
6546 14491 9321 1 109.50000 418.400000
6546 14491 9322 1 109.50000 418.400000
7320 14491 9321 1 109.50000 418.400000
7320 14491 9322 1 109.50000 418.400000
9321 14491 9322 1 109.50000 418.400000
3070 14492 5523 1 109.50000 418.400000
3070 14492 5603 1 109.50000 418.400000
3070 14492 9323 1 109.50000 418.400000
5523 14492 5603 1 109.50000 418.400000
5523 14492 9323 1 109.50000 418.400000
5603 14492 9323 1 109.50000 418.400000
1084 14493 8891 1 109.50000 418.400000
1084 14493 9324 1 109.50000 418.400000
1084 14493 9325 1 109.50000 418.400000
8891 14493 9324 1 109.50000 418.400000
8891 14493 9325 1 109.50000 418.400000
9324 14493 9325 1 109.50000 418.400000
7339 14494 7448 1 109.50000 418.400000
7339 14494 7743 1 109.50000 418.400000
7339 14494 9138 1 109.50000 418.400000
7448 14494 7743 1 109.50000 418.400000
7448 14494 9138 1 109.50000 418.400000
7743 14494 9138 1 109.50000 418.400000
3130 14495 3349 1 109.50000 418.400000
3130 14495 9326 1 109.50000 418.400000
3130 14495 9327 1 109.50000 418.400000
3349 14495 9326 1 109.50000 418.400000
3349 14495 9327 1 109.50000 418.400000
9326 14495 9327 1 109.50000 418.400000
1532 14496 5265 1 109.50000 418.400000
1532 14496 7158 1 109.50000 418.400000
1532 14496 9328 1 109.50000 418.400000
5265 14496 7158 1 109.50000 418.400000
5265 14496 9328 1 109.50000 418.400000
7158 14496 9328 1 109.50000 418.400000
6034 14497 6464 1 109.50000 418.400000
6034 14497 8089 1 109.50000 418.400000
6034 14497 9330 1 109.50000 418.400000
6464 14497 8089 1 109.50000 418.400000
6464 14497 9330 1 109.50000 418.400000
8089 14497 9330 1 109.50000 418.400000
9244 14498 9331 1 109.50000 418.400000
9244 14498 9332 1 109.50000 418.400000
9244 14498 9333 1 109.50000 418.400000
9331 14498 9332 1 109.50000 418.400000
9331 14498 9333 1 109.50000 418.400000
9332 14498 9333 1 109.50000 418.400000
5594 14499 7703 1 109.50000 418.400000
5594 14499 9334 1 109.50000 418.400000
5594 14499 9335 1 109.50000 418.400000
7703 14499 9334 1 109.50000 418.400000
7703 14499 9335 1 109.50000 418.400000
9334 14499 9335 1 109.50000 418.400000
1900 14500 3915 1 109.50000 418.400000
1900 14500 8036 1 109.50000 418.400000
1900 14500 9336 1 109.50000 418.400000
3915 14500 8036 1 109.50000 418.400000
3915 14500 9336 1 109.50000 418.400000
8036 14500 9336 1 109.50000 418.400000
8452 14501 8989 1 109.50000 418.400000
8452 14501 9337 1 109.50000 418.400000
8452 14501 9338 1 109.50000 418.400000
8989 14501 9337 1 109.50000 418.400000
8989 14501 9338 1 109.50000 418.400000
9337 14501 9338 1 109.50000 418.400000
1114 14502 4138 1 109.50000 418.400000
1114 14502 8377 1 109.50000 418.400000
1114 14502 9339 1 109.50000 418.400000
4138 14502 8377 1 109.50000 418.400000
4138 14502 9339 1 109.50000 418.400000
8377 14502 9339 1 109.50000 418.400000
4962 14503 9340 1 109.50000 418.400000
4962 14503 9341 1 109.50000 418.400000
4962 14503 10737 1 109.50000 418.400000
9340 14503 9341 1 109.50000 418.400000
9340 14503 10737 1 109.50000 418.400000
9341 14503 10737 1 109.50000 418.400000
831 14504 1680 1 109.50000 418.400000
831 14504 9342 1 109.50000 418.400000
831 14504 9343 1 109.50000 418.400000
1680 14504 9342 1 109.50000 418.400000
1680 14504 9343 1 109.50000 418.400000
9342 14504 9343 1 109.50000 418.400000
2618 14505 2805 1 109.50000 418.400000
2618 14505 9344 1 109.50000 418.400000
2618 14505 9345 1 109.50000 418.400000
2805 14505 9344 1 109.50000 418.400000
2805 14505 9345 1 109.50000 418.400000
9344 14505 9345 1 109.50000 418.400000
3675 14506 4035 1 109.50000 418.400000
3675 14506 7034 1 109.50000 418.400000
3675 14506 9346 1 109.50000 418.400000
4035 14506 7034 1 109.50000 418.400000
4035 14506 9346 1 109.50000 418.400000
7034 14506 9346 1 109.50000 418.400000
3621 14507 6193 1 109.50000 418.400000
3621 14507 7327 1 109.50000 418.400000
3621 14507 9347 1 109.50000 418.400000
6193 14507 7327 1 109.50000 418.400000
6193 14507 9347 1 109.50000 418.400000
7327 14507 9347 1 109.50000 418.400000
886 14508 6635 1 109.50000 418.400000
886 14508 9151 1 109.50000 418.400000
886 14508 9349 1 109.50000 418.400000
6635 14508 9151 1 109.50000 418.400000
6635 14508 9349 1 109.50000 418.400000
9151 14508 9349 1 109.50000 418.400000
4173 14509 7977 1 109.50000 418.400000
4173 14509 8976 1 109.50000 418.400000
4173 14509 9350 1 109.50000 418.400000
7977 14509 8976 1 109.50000 418.400000
7977 14509 9350 1 109.50000 418.400000
8976 14509 9350 1 109.50000 418.400000
1607 14510 5689 1 109.50000 418.400000
1607 14510 9351 1 109.50000 418.400000
1607 14510 9352 1 109.50000 418.400000
5689 14510 9351 1 109.50000 418.400000
5689 14510 9352 1 109.50000 418.400000
9351 14510 9352 1 109.50000 418.400000
49 14511 766 1 109.50000 418.400000
49 14511 5432 1 109.50000 418.400000
49 14511 9354 1 109.50000 418.400000
766 14511 5432 1 109.50000 418.400000
766 14511 9354 1 109.50000 418.400000
5432 14511 9354 1 109.50000 418.400000
6212 14512 8623 1 109.50000 418.400000
6212 14512 9355 1 109.50000 418.400000
6212 14512 9356 1 109.50000 418.400000
8623 14512 9355 1 109.50000 418.400000
8623 14512 9356 1 109.50000 418.400000
9355 14512 9356 1 109.50000 418.400000
666 14513 1511 1 109.50000 418.400000
666 14513 3824 1 109.50000 418.400000
666 14513 9357 1 109.50000 418.400000
1511 14513 3824 1 109.50000 418.400000
1511 14513 9357 1 109.50000 418.400000
3824 14513 9357 1 109.50000 418.400000
6980 14514 7277 1 109.50000 418.400000
6980 14514 9358 1 109.50000 418.400000
6980 14514 9360 1 109.50000 418.400000
7277 14514 9358 1 109.50000 418.400000
7277 14514 9360 1 109.50000 418.400000
9358 14514 9360 1 109.50000 418.400000
2533 14515 4472 1 109.50000 418.400000
2533 14515 6972 1 109.50000 418.400000
2533 14515 9361 1 109.50000 418.400000
4472 14515 6972 1 109.50000 418.400000
4472 14515 9361 1 109.50000 418.400000
6972 14515 9361 1 109.50000 418.400000
6539 14516 6757 1 109.50000 418.400000
6539 14516 8948 1 109.50000 418.400000
6539 14516 9216 1 109.50000 418.400000
6757 14516 8948 1 109.50000 418.400000
6757 14516 9216 1 109.50000 418.400000
8948 14516 9216 1 109.50000 418.400000
2767 14517 7872 1 109.50000 418.400000
2767 14517 9363 1 109.50000 418.400000
2767 14517 9364 1 109.50000 418.400000
7872 14517 9363 1 109.50000 418.400000
7872 14517 9364 1 109.50000 418.400000
9363 14517 9364 1 109.50000 418.400000
6996 14518 9365 1 109.50000 418.400000
6996 14518 9366 1 109.50000 418.400000
6996 14518 9367 1 109.50000 418.400000
9365 14518 9366 1 109.50000 418.400000
9365 14518 9367 1 109.50000 418.400000
9366 14518 9367 1 109.50000 418.400000
6453 14519 6631 1 109.50000 418.400000
6453 14519 9368 1 109.50000 418.400000
6453 14519 9369 1 109.50000 418.400000
6631 14519 9368 1 109.50000 418.400000
6631 14519 9369 1 109.50000 418.400000
9368 14519 9369 1 109.50000 418.400000
7410 14520 7901 1 109.50000 418.400000
7410 14520 7919 1 109.50000 418.400000
7410 14520 9370 1 109.50000 418.400000
7901 14520 7919 1 109.50000 418.400000
7901 14520 9370 1 109.50000 418.400000
7919 14520 9370 1 109.50000 418.400000
236 14521 6964 1 109.50000 418.400000
236 14521 9371 1 109.50000 418.400000
236 14521 9372 1 109.50000 418.400000
6964 14521 9371 1 109.50000 418.400000
6964 14521 9372 1 109.50000 418.400000
9371 14521 9372 1 109.50000 418.400000
963 14522 2448 1 109.50000 418.400000
963 14522 6846 1 109.50000 418.400000
963 14522 9373 1 109.50000 418.400000
2448 14522 6846 1 109.50000 418.400000
2448 14522 9373 1 109.50000 418.400000
6846 14522 9373 1 109.50000 418.400000
3449 14523 5026 1 109.50000 418.400000
3449 14523 9374 1 109.50000 418.400000
3449 14523 10082 1 109.50000 418.400000
5026 14523 9374 1 109.50000 418.400000
5026 14523 10082 1 109.50000 418.400000
9374 14523 10082 1 109.50000 418.400000
2783 14524 8277 1 109.50000 418.400000
2783 14524 9376 1 109.50000 418.400000
2783 14524 9377 1 109.50000 418.400000
8277 14524 9376 1 109.50000 418.400000
8277 14524 9377 1 109.50000 418.400000
9376 14524 9377 1 109.50000 418.400000
42 14525 9378 1 109.50000 418.400000
42 14525 9379 1 109.50000 418.400000
42 14525 9777 1 109.50000 418.400000
9378 14525 9379 1 109.50000 418.400000
9378 14525 9777 1 109.50000 418.400000
9379 14525 9777 1 109.50000 418.400000
3812 14526 3815 1 109.50000 418.400000
3812 14526 9380 1 109.50000 418.400000
3812 14526 9381 1 109.50000 418.400000
3815 14526 9380 1 109.50000 418.400000
3815 14526 9381 1 109.50000 418.400000
9380 14526 9381 1 109.50000 418.400000
6779 14527 9382 1 109.50000 418.400000
6779 14527 9383 1 109.50000 418.400000
6779 14527 9485 1 109.50000 418.400000
9382 14527 9383 1 109.50000 418.400000
9382 14527 9485 1 109.50000 418.400000
9383 14527 9485 1 109.50000 418.400000
5715 14528 6813 1 109.50000 418.400000
5715 14528 7665 1 109.50000 418.400000
5715 14528 9384 1 109.50000 418.400000
6813 14528 7665 1 109.50000 418.400000
6813 14528 9384 1 109.50000 418.400000
7665 14528 9384 1 109.50000 418.400000
8203 14529 9385 1 109.50000 418.400000
8203 14529 9386 1 109.50000 418.400000
8203 14529 9387 1 109.50000 418.400000
9385 14529 9386 1 109.50000 418.400000
9385 14529 9387 1 109.50000 418.400000
9386 14529 9387 1 109.50000 418.400000
1789 14530 8357 1 109.50000 418.400000
1789 14530 9389 1 109.50000 418.400000
1789 14530 9390 1 109.50000 418.400000
8357 14530 9389 1 109.50000 418.400000
8357 14530 9390 1 109.50000 418.400000
9389 14530 9390 1 109.50000 418.400000
5241 14531 6703 1 109.50000 418.400000
5241 14531 6704 1 109.50000 418.400000
5241 14531 9391 1 109.50000 418.400000
6703 14531 6704 1 109.50000 418.400000
6703 14531 9391 1 109.50000 418.400000
6704 14531 9391 1 109.50000 418.400000
4935 14532 5939 1 109.50000 418.400000
4935 14532 8441 1 109.50000 418.400000
4935 14532 9392 1 109.50000 418.400000
5939 14532 8441 1 109.50000 418.400000
5939 14532 9392 1 109.50000 418.400000
8441 14532 9392 1 109.50000 418.400000
7067 14533 9393 1 109.50000 418.400000
7067 14533 9394 1 109.50000 418.400000
7067 14533 9395 1 109.50000 418.400000
9393 14533 9394 1 109.50000 418.400000
9393 14533 9395 1 109.50000 418.400000
9394 14533 9395 1 109.50000 418.400000
5470 14534 6472 1 109.50000 418.400000
5470 14534 8797 1 109.50000 418.400000
5470 14534 9396 1 109.50000 418.400000
6472 14534 8797 1 109.50000 418.400000
6472 14534 9396 1 109.50000 418.400000
8797 14534 9396 1 109.50000 418.400000
663 14535 2803 1 109.50000 418.400000
663 14535 5494 1 109.50000 418.400000
663 14535 7731 1 109.50000 418.400000
2803 14535 5494 1 109.50000 418.400000
2803 14535 7731 1 109.50000 418.400000
5494 14535 7731 1 109.50000 418.400000
2722 14536 9397 1 109.50000 418.400000
2722 14536 9398 1 109.50000 418.400000
2722 14536 9399 1 109.50000 418.400000
9397 14536 9398 1 109.50000 418.400000
9397 14536 9399 1 109.50000 418.400000
9398 14536 9399 1 109.50000 418.400000
2225 14537 4310 1 109.50000 418.400000
2225 14537 5569 1 109.50000 418.400000
2225 14537 9400 1 109.50000 418.400000
4310 14537 5569 1 109.50000 418.400000
4310 14537 9400 1 109.50000 418.400000
5569 14537 9400 1 109.50000 418.400000
4296 14538 6111 1 109.50000 418.400000
4296 14538 7651 1 109.50000 418.400000
4296 14538 9401 1 109.50000 418.400000
6111 14538 7651 1 109.50000 418.400000
6111 14538 9401 1 109.50000 418.400000
7651 14538 9401 1 109.50000 418.400000
7784 14539 7785 1 109.50000 418.400000
7784 14539 9402 1 109.50000 418.400000
7784 14539 9403 1 109.50000 418.400000
7785 14539 9402 1 109.50000 418.400000
7785 14539 9403 1 109.50000 418.400000
9402 14539 9403 1 109.50000 418.400000
3545 14540 7622 1 109.50000 418.400000
3545 14540 8481 1 109.50000 418.400000
3545 14540 9404 1 109.50000 418.400000
7622 14540 8481 1 109.50000 418.400000
7622 14540 9404 1 109.50000 418.400000
8481 14540 9404 1 109.50000 418.400000
2292 14541 4925 1 109.50000 418.400000
2292 14541 7393 1 109.50000 418.400000
2292 14541 8660 1 109.50000 418.400000
4925 14541 7393 1 109.50000 418.400000
4925 14541 8660 1 109.50000 418.400000
7393 14541 8660 1 109.50000 418.400000
1907 14542 4440 1 109.50000 418.400000
1907 14542 4843 1 109.50000 418.400000
1907 14542 8652 1 109.50000 418.400000
4440 14542 4843 1 109.50000 418.400000
4440 14542 8652 1 109.50000 418.400000
4843 14542 8652 1 109.50000 418.400000
1270 14543 1321 1 109.50000 418.400000
1270 14543 7295 1 109.50000 418.400000
1270 14543 9406 1 109.50000 418.400000
1321 14543 7295 1 109.50000 418.400000
1321 14543 9406 1 109.50000 418.400000
7295 14543 9406 1 109.50000 418.400000
7640 14544 8356 1 109.50000 418.400000
7640 14544 9407 1 109.50000 418.400000
7640 14544 9408 1 109.50000 418.400000
8356 14544 9407 1 109.50000 418.400000
8356 14544 9408 1 109.50000 418.400000
9407 14544 9408 1 109.50000 418.400000
195 14545 3958 1 109.50000 418.400000
195 14545 7728 1 109.50000 418.400000
195 14545 9409 1 109.50000 418.400000
3958 14545 7728 1 109.50000 418.400000
3958 14545 9409 1 109.50000 418.400000
7728 14545 9409 1 109.50000 418.400000
288 14546 4007 1 109.50000 418.400000
288 14546 9410 1 109.50000 418.400000
288 14546 9411 1 109.50000 418.400000
4007 14546 9410 1 109.50000 418.400000
4007 14546 9411 1 109.50000 418.400000
9410 14546 9411 1 109.50000 418.400000
3452 14547 5127 1 109.50000 418.400000
3452 14547 9412 1 109.50000 418.400000
3452 14547 9413 1 109.50000 418.400000
5127 14547 9412 1 109.50000 418.400000
5127 14547 9413 1 109.50000 418.400000
9412 14547 9413 1 109.50000 418.400000
3361 14548 4473 1 109.50000 418.400000
3361 14548 8001 1 109.50000 418.400000
3361 14548 9414 1 109.50000 418.400000
4473 14548 8001 1 109.50000 418.400000
4473 14548 9414 1 109.50000 418.400000
8001 14548 9414 1 109.50000 418.400000
9415 14549 9416 1 109.50000 418.400000
9415 14549 9417 1 109.50000 418.400000
9415 14549 9418 1 109.50000 418.400000
9416 14549 9417 1 109.50000 418.400000
9416 14549 9418 1 109.50000 418.400000
9417 14549 9418 1 109.50000 418.400000
2508 14550 2668 1 109.50000 418.400000
2508 14550 7837 1 109.50000 418.400000
2508 14550 9419 1 109.50000 418.400000
2668 14550 7837 1 109.50000 418.400000
2668 14550 9419 1 109.50000 418.400000
7837 14550 9419 1 109.50000 418.400000
5895 14551 9420 1 109.50000 418.400000
5895 14551 9421 1 109.50000 418.400000
5895 14551 9422 1 109.50000 418.400000
9420 14551 9421 1 109.50000 418.400000
9420 14551 9422 1 109.50000 418.400000
9421 14551 9422 1 109.50000 418.400000
2889 14552 9423 1 109.50000 418.400000
2889 14552 9424 1 109.50000 418.400000
2889 14552 9425 1 109.50000 418.400000
9423 14552 9424 1 109.50000 418.400000
9423 14552 9425 1 109.50000 418.400000
9424 14552 9425 1 109.50000 418.400000
3792 14553 5682 1 109.50000 418.400000
3792 14553 7683 1 109.50000 418.400000
3792 14553 9426 1 109.50000 418.400000
5682 14553 7683 1 109.50000 418.400000
5682 14553 9426 1 109.50000 418.400000
7683 14553 9426 1 109.50000 418.400000
1582 14554 4289 1 109.50000 418.400000
1582 14554 6292 1 109.50000 418.400000
1582 14554 9427 1 109.50000 418.400000
4289 14554 6292 1 109.50000 418.400000
4289 14554 9427 1 109.50000 418.400000
6292 14554 9427 1 109.50000 418.400000
881 14555 7866 1 109.50000 418.400000
881 14555 9428 1 109.50000 418.400000
881 14555 9429 1 109.50000 418.400000
7866 14555 9428 1 109.50000 418.400000
7866 14555 9429 1 109.50000 418.400000
9428 14555 9429 1 109.50000 418.400000
7507 14556 7508 1 109.50000 418.400000
7507 14556 8392 1 109.50000 418.400000
7507 14556 9431 1 109.50000 418.400000
7508 14556 8392 1 109.50000 418.400000
7508 14556 9431 1 109.50000 418.400000
8392 14556 9431 1 109.50000 418.400000
2434 14557 9432 1 109.50000 418.400000
2434 14557 9433 1 109.50000 418.400000
2434 14557 9567 1 109.50000 418.400000
9432 14557 9433 1 109.50000 418.400000
9432 14557 9567 1 109.50000 418.400000
9433 14557 9567 1 109.50000 418.400000
4233 14558 7371 1 109.50000 418.400000
4233 14558 7384 1 109.50000 418.400000
4233 14558 9434 1 109.50000 418.400000
7371 14558 7384 1 109.50000 418.400000
7371 14558 9434 1 109.50000 418.400000
7384 14558 9434 1 109.50000 418.400000
1191 14559 4169 1 109.50000 418.400000
1191 14559 9435 1 109.50000 418.400000
1191 14559 9436 1 109.50000 418.400000
4169 14559 9435 1 109.50000 418.400000
4169 14559 9436 1 109.50000 418.400000
9435 14559 9436 1 109.50000 418.400000
703 14560 1322 1 109.50000 418.400000
703 14560 1804 1 109.50000 418.400000
703 14560 9437 1 109.50000 418.400000
1322 14560 1804 1 109.50000 418.400000
1322 14560 9437 1 109.50000 418.400000
1804 14560 9437 1 109.50000 418.400000
713 14561 2250 1 109.50000 418.400000
713 14561 3931 1 109.50000 418.400000
713 14561 5756 1 109.50000 418.400000
2250 14561 3931 1 109.50000 418.400000
2250 14561 5756 1 109.50000 418.400000
3931 14561 5756 1 109.50000 418.400000
6984 14562 8131 1 109.50000 418.400000
6984 14562 9438 1 109.50000 418.400000
6984 14562 9439 1 109.50000 418.400000
8131 14562 9438 1 109.50000 418.400000
8131 14562 9439 1 109.50000 418.400000
9438 14562 9439 1 109.50000 418.400000
1778 14563 5868 1 109.50000 418.400000
1778 14563 7445 1 109.50000 418.400000
1778 14563 9440 1 109.50000 418.400000
5868 14563 7445 1 109.50000 418.400000
5868 14563 9440 1 109.50000 418.400000
7445 14563 9440 1 109.50000 418.400000
5235 14564 9094 1 109.50000 418.400000
5235 14564 9250 1 109.50000 418.400000
5235 14564 9441 1 109.50000 418.400000
9094 14564 9250 1 109.50000 418.400000
9094 14564 9441 1 109.50000 418.400000
9250 14564 9441 1 109.50000 418.400000
5122 14565 8886 1 109.50000 418.400000
5122 14565 9442 1 109.50000 418.400000
5122 14565 9443 1 109.50000 418.400000
8886 14565 9442 1 109.50000 418.400000
8886 14565 9443 1 109.50000 418.400000
9442 14565 9443 1 109.50000 418.400000
3042 14566 7664 1 109.50000 418.400000
3042 14566 7726 1 109.50000 418.400000
3042 14566 9444 1 109.50000 418.400000
7664 14566 7726 1 109.50000 418.400000
7664 14566 9444 1 109.50000 418.400000
7726 14566 9444 1 109.50000 418.400000
9227 14567 9445 1 109.50000 418.400000
9227 14567 9446 1 109.50000 418.400000
9227 14567 9447 1 109.50000 418.400000
9445 14567 9446 1 109.50000 418.400000
9445 14567 9447 1 109.50000 418.400000
9446 14567 9447 1 109.50000 418.400000
6726 14568 9448 1 109.50000 418.400000
6726 14568 9449 1 109.50000 418.400000
6726 14568 9450 1 109.50000 418.400000
9448 14568 9449 1 109.50000 418.400000
9448 14568 9450 1 109.50000 418.400000
9449 14568 9450 1 109.50000 418.400000
2968 14569 7698 1 109.50000 418.400000
2968 14569 8410 1 109.50000 418.400000
2968 14569 9451 1 109.50000 418.400000
7698 14569 8410 1 109.50000 418.400000
7698 14569 9451 1 109.50000 418.400000
8410 14569 9451 1 109.50000 418.400000
6608 14570 7332 1 109.50000 418.400000
6608 14570 9453 1 109.50000 418.400000
6608 14570 9454 1 109.50000 418.400000
7332 14570 9453 1 109.50000 418.400000
7332 14570 9454 1 109.50000 418.400000
9453 14570 9454 1 109.50000 418.400000
1429 14571 5558 1 109.50000 418.400000
1429 14571 7840 1 109.50000 418.400000
1429 14571 9455 1 109.50000 418.400000
5558 14571 7840 1 109.50000 418.400000
5558 14571 9455 1 109.50000 418.400000
7840 14571 9455 1 109.50000 418.400000
9102 14572 9282 1 109.50000 418.400000
9102 14572 9412 1 109.50000 418.400000
9102 14572 9457 1 109.50000 418.400000
9282 14572 9412 1 109.50000 418.400000
9282 14572 9457 1 109.50000 418.400000
9412 14572 9457 1 109.50000 418.400000
4008 14573 8340 1 109.50000 418.400000
4008 14573 9459 1 109.50000 418.400000
4008 14573 9460 1 109.50000 418.400000
8340 14573 9459 1 109.50000 418.400000
8340 14573 9460 1 109.50000 418.400000
9459 14573 9460 1 109.50000 418.400000
890 14574 9461 1 109.50000 418.400000
890 14574 9462 1 109.50000 418.400000
890 14574 9463 1 109.50000 418.400000
9461 14574 9462 1 109.50000 418.400000
9461 14574 9463 1 109.50000 418.400000
9462 14574 9463 1 109.50000 418.400000
1658 14575 5822 1 109.50000 418.400000
1658 14575 8428 1 109.50000 418.400000
1658 14575 9466 1 109.50000 418.400000
5822 14575 8428 1 109.50000 418.400000
5822 14575 9466 1 109.50000 418.400000
8428 14575 9466 1 109.50000 418.400000
3126 14576 7774 1 109.50000 418.400000
3126 14576 9467 1 109.50000 418.400000
3126 14576 9468 1 109.50000 418.400000
7774 14576 9467 1 109.50000 418.400000
7774 14576 9468 1 109.50000 418.400000
9467 14576 9468 1 109.50000 418.400000
4344 14577 9469 1 109.50000 418.400000
4344 14577 9470 1 109.50000 418.400000
4344 14577 9471 1 109.50000 418.400000
9469 14577 9470 1 109.50000 418.400000
9469 14577 9471 1 109.50000 418.400000
9470 14577 9471 1 109.50000 418.400000
5169 14578 7083 1 109.50000 418.400000
5169 14578 8810 1 109.50000 418.400000
5169 14578 9187 1 109.50000 418.400000
7083 14578 8810 1 109.50000 418.400000
7083 14578 9187 1 109.50000 418.400000
8810 14578 9187 1 109.50000 418.400000
343 14579 2170 1 109.50000 418.400000
343 14579 6713 1 109.50000 418.400000
343 14579 9472 1 109.50000 418.400000
2170 14579 6713 1 109.50000 418.400000
2170 14579 9472 1 109.50000 418.400000
6713 14579 9472 1 109.50000 418.400000
1453 14580 9364 1 109.50000 418.400000
1453 14580 9473 1 109.50000 418.400000
1453 14580 9474 1 109.50000 418.400000
9364 14580 9473 1 109.50000 418.400000
9364 14580 9474 1 109.50000 418.400000
9473 14580 9474 1 109.50000 418.400000
6320 14581 9475 1 109.50000 418.400000
6320 14581 9476 1 109.50000 418.400000
6320 14581 9477 1 109.50000 418.400000
9475 14581 9476 1 109.50000 418.400000
9475 14581 9477 1 109.50000 418.400000
9476 14581 9477 1 109.50000 418.400000
308 14582 4996 1 109.50000 418.400000
308 14582 7456 1 109.50000 418.400000
308 14582 9478 1 109.50000 418.400000
4996 14582 7456 1 109.50000 418.400000
4996 14582 9478 1 109.50000 418.400000
7456 14582 9478 1 109.50000 418.400000
621 14583 5628 1 109.50000 418.400000
621 14583 9479 1 109.50000 418.400000
621 14583 9480 1 109.50000 418.400000
5628 14583 9479 1 109.50000 418.400000
5628 14583 9480 1 109.50000 418.400000
9479 14583 9480 1 109.50000 418.400000
2570 14584 5079 1 109.50000 418.400000
2570 14584 6736 1 109.50000 418.400000
2570 14584 9481 1 109.50000 418.400000
5079 14584 6736 1 109.50000 418.400000
5079 14584 9481 1 109.50000 418.400000
6736 14584 9481 1 109.50000 418.400000
6413 14585 6665 1 109.50000 418.400000
6413 14585 7234 1 109.50000 418.400000
6413 14585 9482 1 109.50000 418.400000
6665 14585 7234 1 109.50000 418.400000
6665 14585 9482 1 109.50000 418.400000
7234 14585 9482 1 109.50000 418.400000
1540 14586 2111 1 109.50000 418.400000
1540 14586 7620 1 109.50000 418.400000
1540 14586 9483 1 109.50000 418.400000
2111 14586 7620 1 109.50000 418.400000
2111 14586 9483 1 109.50000 418.400000
7620 14586 9483 1 109.50000 418.400000
485 14587 8616 1 109.50000 418.400000
485 14587 9383 1 109.50000 418.400000
485 14587 9484 1 109.50000 418.400000
8616 14587 9383 1 109.50000 418.400000
8616 14587 9484 1 109.50000 418.400000
9383 14587 9484 1 109.50000 418.400000
3896 14588 3977 1 109.50000 418.400000
3896 14588 8002 1 109.50000 418.400000
3896 14588 9487 1 109.50000 418.400000
3977 14588 8002 1 109.50000 418.400000
3977 14588 9487 1 109.50000 418.400000
8002 14588 9487 1 109.50000 418.400000
1067 14589 8957 1 109.50000 418.400000
1067 14589 9488 1 109.50000 418.400000
1067 14589 9489 1 109.50000 418.400000
8957 14589 9488 1 109.50000 418.400000
8957 14589 9489 1 109.50000 418.400000
9488 14589 9489 1 109.50000 418.400000
152 14590 8297 1 109.50000 418.400000
152 14590 9490 1 109.50000 418.400000
152 14590 9491 1 109.50000 418.400000
8297 14590 9490 1 109.50000 418.400000
8297 14590 9491 1 109.50000 418.400000
9490 14590 9491 1 109.50000 418.400000
1318 14591 8774 1 109.50000 418.400000
1318 14591 8842 1 109.50000 418.400000
1318 14591 9493 1 109.50000 418.400000
8774 14591 8842 1 109.50000 418.400000
8774 14591 9493 1 109.50000 418.400000
8842 14591 9493 1 109.50000 418.400000
5009 14592 9057 1 109.50000 418.400000
5009 14592 9452 1 109.50000 418.400000
5009 14592 9494 1 109.50000 418.400000
9057 14592 9452 1 109.50000 418.400000
9057 14592 9494 1 109.50000 418.400000
9452 14592 9494 1 109.50000 418.400000
2425 14593 3218 1 109.50000 418.400000
2425 14593 7468 1 109.50000 418.400000
2425 14593 9495 1 109.50000 418.400000
3218 14593 7468 1 109.50000 418.400000
3218 14593 9495 1 109.50000 418.400000
7468 14593 9495 1 109.50000 418.400000
1899 14594 7273 1 109.50000 418.400000
1899 14594 7591 1 109.50000 418.400000
1899 14594 9496 1 109.50000 418.400000
7273 14594 7591 1 109.50000 418.400000
7273 14594 9496 1 109.50000 418.400000
7591 14594 9496 1 109.50000 418.400000
7444 14595 8632 1 109.50000 418.400000
7444 14595 9497 1 109.50000 418.400000
7444 14595 9498 1 109.50000 418.400000
8632 14595 9497 1 109.50000 418.400000
8632 14595 9498 1 109.50000 418.400000
9497 14595 9498 1 109.50000 418.400000
3376 14596 6836 1 109.50000 418.400000
3376 14596 6837 1 109.50000 418.400000
3376 14596 9499 1 109.50000 418.400000
6836 14596 6837 1 109.50000 418.400000
6836 14596 9499 1 109.50000 418.400000
6837 14596 9499 1 109.50000 418.400000
7567 14597 7568 1 109.50000 418.400000
7567 14597 9230 1 109.50000 418.400000
7567 14597 11222 1 109.50000 418.400000
7568 14597 9230 1 109.50000 418.400000
7568 14597 11222 1 109.50000 418.400000
9230 14597 11222 1 109.50000 418.400000
5488 14598 9256 1 109.50000 418.400000
5488 14598 9501 1 109.50000 418.400000
5488 14598 9502 1 109.50000 418.400000
9256 14598 9501 1 109.50000 418.400000
9256 14598 9502 1 109.50000 418.400000
9501 14598 9502 1 109.50000 418.400000
2330 14599 2332 1 109.50000 418.400000
2330 14599 6201 1 109.50000 418.400000
2330 14599 11272 1 109.50000 418.400000
2332 14599 6201 1 109.50000 418.400000
2332 14599 11272 1 109.50000 418.400000
6201 14599 11272 1 109.50000 418.400000
2258 14600 6372 1 109.50000 418.400000
2258 14600 7595 1 109.50000 418.400000
2258 14600 9503 1 109.50000 418.400000
6372 14600 7595 1 109.50000 418.400000
6372 14600 9503 1 109.50000 418.400000
7595 14600 9503 1 109.50000 418.400000
2342 14601 2343 1 109.50000 418.400000
2342 14601 4493 1 109.50000 418.400000
2342 14601 9504 1 109.50000 418.400000
2343 14601 4493 1 109.50000 418.400000
2343 14601 9504 1 109.50000 418.400000
4493 14601 9504 1 109.50000 418.400000
1557 14602 4114 1 109.50000 418.400000
1557 14602 9507 1 109.50000 418.400000
1557 14602 9508 1 109.50000 418.400000
4114 14602 9507 1 109.50000 418.400000
4114 14602 9508 1 109.50000 418.400000
9507 14602 9508 1 109.50000 418.400000
4000 14603 5398 1 109.50000 418.400000
4000 14603 7573 1 109.50000 418.400000
4000 14603 9509 1 109.50000 418.400000
5398 14603 7573 1 109.50000 418.400000
5398 14603 9509 1 109.50000 418.400000
7573 14603 9509 1 109.50000 418.400000
4495 14604 4496 1 109.50000 418.400000
4495 14604 9511 1 109.50000 418.400000
4495 14604 9512 1 109.50000 418.400000
4496 14604 9511 1 109.50000 418.400000
4496 14604 9512 1 109.50000 418.400000
9511 14604 9512 1 109.50000 418.400000
3354 14605 3897 1 109.50000 418.400000
3354 14605 8324 1 109.50000 418.400000
3354 14605 8726 1 109.50000 418.400000
3897 14605 8324 1 109.50000 418.400000
3897 14605 8726 1 109.50000 418.400000
8324 14605 8726 1 109.50000 418.400000
9513 14606 9514 1 109.50000 418.400000
9513 14606 9515 1 109.50000 418.400000
9513 14606 9516 1 109.50000 418.400000
9514 14606 9515 1 109.50000 418.400000
9514 14606 9516 1 109.50000 418.400000
9515 14606 9516 1 109.50000 418.400000
2894 14607 2895 1 109.50000 418.400000
2894 14607 5331 1 109.50000 418.400000
2894 14607 6124 1 109.50000 418.400000
2895 14607 5331 1 109.50000 418.400000
2895 14607 6124 1 109.50000 418.400000
5331 14607 6124 1 109.50000 418.400000
3992 14608 6412 1 109.50000 418.400000
3992 14608 7243 1 109.50000 418.400000
3992 14608 9518 1 109.50000 418.400000
6412 14608 7243 1 109.50000 418.400000
6412 14608 9518 1 109.50000 418.400000
7243 14608 9518 1 109.50000 418.400000
578 14609 4001 1 109.50000 418.400000
578 14609 6675 1 109.50000 418.400000
578 14609 9519 1 109.50000 418.400000
4001 14609 6675 1 109.50000 418.400000
4001 14609 9519 1 109.50000 418.400000
6675 14609 9519 1 109.50000 418.400000
7200 14610 7301 1 109.50000 418.400000
7200 14610 9520 1 109.50000 418.400000
7200 14610 11164 1 109.50000 418.400000
7301 14610 9520 1 109.50000 418.400000
7301 14610 11164 1 109.50000 418.400000
9520 14610 11164 1 109.50000 418.400000
2762 14611 4633 1 109.50000 418.400000
2762 14611 7747 1 109.50000 418.400000
2762 14611 9521 1 109.50000 418.400000
4633 14611 7747 1 109.50000 418.400000
4633 14611 9521 1 109.50000 418.400000
7747 14611 9521 1 109.50000 418.400000
3933 14612 4850 1 109.50000 418.400000
3933 14612 5749 1 109.50000 418.400000
3933 14612 9522 1 109.50000 418.400000
4850 14612 5749 1 109.50000 418.400000
4850 14612 9522 1 109.50000 418.400000
5749 14612 9522 1 109.50000 418.400000
294 14613 6669 1 109.50000 418.400000
294 14613 9523 1 109.50000 418.400000
294 14613 9524 1 109.50000 418.400000
6669 14613 9523 1 109.50000 418.400000
6669 14613 9524 1 109.50000 418.400000
9523 14613 9524 1 109.50000 418.400000
4540 14614 8161 1 109.50000 418.400000
4540 14614 8300 1 109.50000 418.400000
4540 14614 9525 1 109.50000 418.400000
8161 14614 8300 1 109.50000 418.400000
8161 14614 9525 1 109.50000 418.400000
8300 14614 9525 1 109.50000 418.400000
3874 14615 9390 1 109.50000 418.400000
3874 14615 9400 1 109.50000 418.400000
3874 14615 9501 1 109.50000 418.400000
9390 14615 9400 1 109.50000 418.400000
9390 14615 9501 1 109.50000 418.400000
9400 14615 9501 1 109.50000 418.400000
1068 14616 1527 1 109.50000 418.400000
1068 14616 9527 1 109.50000 418.400000
1068 14616 9528 1 109.50000 418.400000
1527 14616 9527 1 109.50000 418.400000
1527 14616 9528 1 109.50000 418.400000
9527 14616 9528 1 109.50000 418.400000
8766 14617 9529 1 109.50000 418.400000
8766 14617 9530 1 109.50000 418.400000
8766 14617 9531 1 109.50000 418.400000
9529 14617 9530 1 109.50000 418.400000
9529 14617 9531 1 109.50000 418.400000
9530 14617 9531 1 109.50000 418.400000
1523 14618 7087 1 109.50000 418.400000
1523 14618 9533 1 109.50000 418.400000
1523 14618 9534 1 109.50000 418.400000
7087 14618 9533 1 109.50000 418.400000
7087 14618 9534 1 109.50000 418.400000
9533 14618 9534 1 109.50000 418.400000
589 14619 8784 1 109.50000 418.400000
589 14619 9426 1 109.50000 418.400000
589 14619 9535 1 109.50000 418.400000
8784 14619 9426 1 109.50000 418.400000
8784 14619 9535 1 109.50000 418.400000
9426 14619 9535 1 109.50000 418.400000
648 14620 3438 1 109.50000 418.400000
648 14620 9536 1 109.50000 418.400000
648 14620 9537 1 109.50000 418.400000
3438 14620 9536 1 109.50000 418.400000
3438 14620 9537 1 109.50000 418.400000
9536 14620 9537 1 109.50000 418.400000
3571 14621 7100 1 109.50000 418.400000
3571 14621 9538 1 109.50000 418.400000
3571 14621 9539 1 109.50000 418.400000
7100 14621 9538 1 109.50000 418.400000
7100 14621 9539 1 109.50000 418.400000
9538 14621 9539 1 109.50000 418.400000
6598 14622 7080 1 109.50000 418.400000
6598 14622 7082 1 109.50000 418.400000
6598 14622 9540 1 109.50000 418.400000
7080 14622 7082 1 109.50000 418.400000
7080 14622 9540 1 109.50000 418.400000
7082 14622 9540 1 109.50000 418.400000
9541 14623 9542 1 109.50000 418.400000
9541 14623 9543 1 109.50000 418.400000
9541 14623 9544 1 109.50000 418.400000
9542 14623 9543 1 109.50000 418.400000
9542 14623 9544 1 109.50000 418.400000
9543 14623 9544 1 109.50000 418.400000
3420 14624 3820 1 109.50000 418.400000
3420 14624 7973 1 109.50000 418.400000
3420 14624 9545 1 109.50000 418.400000
3820 14624 7973 1 109.50000 418.400000
3820 14624 9545 1 109.50000 418.400000
7973 14624 9545 1 109.50000 418.400000
962 14625 1012 1 109.50000 418.400000
962 14625 8744 1 109.50000 418.400000
962 14625 9546 1 109.50000 418.400000
1012 14625 8744 1 109.50000 418.400000
1012 14625 9546 1 109.50000 418.400000
8744 14625 9546 1 109.50000 418.400000
9547 14626 9548 1 109.50000 418.400000
9547 14626 11172 1 109.50000 418.400000
9547 14626 11251 1 109.50000 418.400000
9548 14626 11172 1 109.50000 418.400000
9548 14626 11251 1 109.50000 418.400000
11172 14626 11251 1 109.50000 418.400000
6658 14627 6825 1 109.50000 418.400000
6658 14627 7098 1 109.50000 418.400000
6658 14627 8665 1 109.50000 418.400000
6825 14627 7098 1 109.50000 418.400000
6825 14627 8665 1 109.50000 418.400000
7098 14627 8665 1 109.50000 418.400000
2986 14628 4060 1 109.50000 418.400000
2986 14628 11229 1 109.50000 418.400000
2986 14628 11302 1 109.50000 418.400000
4060 14628 11229 1 109.50000 418.400000
4060 14628 11302 1 109.50000 418.400000
11229 14628 11302 1 109.50000 418.400000
2485 14629 4711 1 109.50000 418.400000
2485 14629 9550 1 109.50000 418.400000
2485 14629 9551 1 109.50000 418.400000
4711 14629 9550 1 109.50000 418.400000
4711 14629 9551 1 109.50000 418.400000
9550 14629 9551 1 109.50000 418.400000
8009 14630 9552 1 109.50000 418.400000
8009 14630 9553 1 109.50000 418.400000
8009 14630 9554 1 109.50000 418.400000
9552 14630 9553 1 109.50000 418.400000
9552 14630 9554 1 109.50000 418.400000
9553 14630 9554 1 109.50000 418.400000
5295 14631 9015 1 109.50000 418.400000
5295 14631 9016 1 109.50000 418.400000
5295 14631 9555 1 109.50000 418.400000
9015 14631 9016 1 109.50000 418.400000
9015 14631 9555 1 109.50000 418.400000
9016 14631 9555 1 109.50000 418.400000
944 14632 4758 1 109.50000 418.400000
944 14632 9556 1 109.50000 418.400000
944 14632 9557 1 109.50000 418.400000
4758 14632 9556 1 109.50000 418.400000
4758 14632 9557 1 109.50000 418.400000
9556 14632 9557 1 109.50000 418.400000
6862 14633 7196 1 109.50000 418.400000
6862 14633 9559 1 109.50000 418.400000
6862 14633 9560 1 109.50000 418.400000
7196 14633 9559 1 109.50000 418.400000
7196 14633 9560 1 109.50000 418.400000
9559 14633 9560 1 109.50000 418.400000
2754 14634 2756 1 109.50000 418.400000
2754 14634 9561 1 109.50000 418.400000
2754 14634 9562 1 109.50000 418.400000
2756 14634 9561 1 109.50000 418.400000
2756 14634 9562 1 109.50000 418.400000
9561 14634 9562 1 109.50000 418.400000
3793 14635 6976 1 109.50000 418.400000
3793 14635 8823 1 109.50000 418.400000
3793 14635 9564 1 109.50000 418.400000
6976 14635 8823 1 109.50000 418.400000
6976 14635 9564 1 109.50000 418.400000
8823 14635 9564 1 109.50000 418.400000
7168 14636 9144 1 109.50000 418.400000
7168 14636 9565 1 109.50000 418.400000
7168 14636 9566 1 109.50000 418.400000
9144 14636 9565 1 109.50000 418.400000
9144 14636 9566 1 109.50000 418.400000
9565 14636 9566 1 109.50000 418.400000
594 14637 2960 1 109.50000 418.400000
594 14637 6107 1 109.50000 418.400000
594 14637 9432 1 109.50000 418.400000
2960 14637 6107 1 109.50000 418.400000
2960 14637 9432 1 109.50000 418.400000
6107 14637 9432 1 109.50000 418.400000
8899 14638 9184 1 109.50000 418.400000
8899 14638 9569 1 109.50000 418.400000
8899 14638 9570 1 109.50000 418.400000
9184 14638 9569 1 109.50000 418.400000
9184 14638 9570 1 109.50000 418.400000
9569 14638 9570 1 109.50000 418.400000
2265 14639 5723 1 109.50000 418.400000
2265 14639 8306 1 109.50000 418.400000
2265 14639 9571 1 109.50000 418.400000
5723 14639 8306 1 109.50000 418.400000
5723 14639 9571 1 109.50000 418.400000
8306 14639 9571 1 109.50000 418.400000
2835 14640 6895 1 109.50000 418.400000
2835 14640 8323 1 109.50000 418.400000
2835 14640 9487 1 109.50000 418.400000
6895 14640 8323 1 109.50000 418.400000
6895 14640 9487 1 109.50000 418.400000
8323 14640 9487 1 109.50000 418.400000
1887 14641 8132 1 109.50000 418.400000
1887 14641 9513 1 109.50000 418.400000
1887 14641 9572 1 109.50000 418.400000
8132 14641 9513 1 109.50000 418.400000
8132 14641 9572 1 109.50000 418.400000
9513 14641 9572 1 109.50000 418.400000
1380 14642 6145 1 109.50000 418.400000
1380 14642 8878 1 109.50000 418.400000
1380 14642 9573 1 109.50000 418.400000
6145 14642 8878 1 109.50000 418.400000
6145 14642 9573 1 109.50000 418.400000
8878 14642 9573 1 109.50000 418.400000
6649 14643 8232 1 109.50000 418.400000
6649 14643 9574 1 109.50000 418.400000
6649 14643 9575 1 109.50000 418.400000
8232 14643 9574 1 109.50000 418.400000
8232 14643 9575 1 109.50000 418.400000
9574 14643 9575 1 109.50000 418.400000
3928 14644 4865 1 109.50000 418.400000
3928 14644 9576 1 109.50000 418.400000
3928 14644 9577 1 109.50000 418.400000
4865 14644 9576 1 109.50000 418.400000
4865 14644 9577 1 109.50000 418.400000
9576 14644 9577 1 109.50000 418.400000
1542 14645 1707 1 109.50000 418.400000
1542 14645 6917 1 109.50000 418.400000
1542 14645 9578 1 109.50000 418.400000
1707 14645 6917 1 109.50000 418.400000
1707 14645 9578 1 109.50000 418.400000
6917 14645 9578 1 109.50000 418.400000
1051 14646 3068 1 109.50000 418.400000
1051 14646 3356 1 109.50000 418.400000
1051 14646 9579 1 109.50000 418.400000
3068 14646 3356 1 109.50000 418.400000
3068 14646 9579 1 109.50000 418.400000
3356 14646 9579 1 109.50000 418.400000
3981 14647 6331 1 109.50000 418.400000
3981 14647 7906 1 109.50000 418.400000
3981 14647 9580 1 109.50000 418.400000
6331 14647 7906 1 109.50000 418.400000
6331 14647 9580 1 109.50000 418.400000
7906 14647 9580 1 109.50000 418.400000
3602 14648 9581 1 109.50000 418.400000
3602 14648 9582 1 109.50000 418.400000
3602 14648 9583 1 109.50000 418.400000
9581 14648 9582 1 109.50000 418.400000
9581 14648 9583 1 109.50000 418.400000
9582 14648 9583 1 109.50000 418.400000
2734 14649 3669 1 109.50000 418.400000
2734 14649 7848 1 109.50000 418.400000
2734 14649 8593 1 109.50000 418.400000
3669 14649 7848 1 109.50000 418.400000
3669 14649 8593 1 109.50000 418.400000
7848 14649 8593 1 109.50000 418.400000
2293 14650 6511 1 109.50000 418.400000
2293 14650 8684 1 109.50000 418.400000
2293 14650 9318 1 109.50000 418.400000
6511 14650 8684 1 109.50000 418.400000
6511 14650 9318 1 109.50000 418.400000
8684 14650 9318 1 109.50000 418.400000
917 14651 8568 1 109.50000 418.400000
917 14651 9584 1 109.50000 418.400000
917 14651 9585 1 109.50000 418.400000
8568 14651 9584 1 109.50000 418.400000
8568 14651 9585 1 109.50000 418.400000
9584 14651 9585 1 109.50000 418.400000
2008 14652 2185 1 109.50000 418.400000
2008 14652 2846 1 109.50000 418.400000
2008 14652 9586 1 109.50000 418.400000
2185 14652 2846 1 109.50000 418.400000
2185 14652 9586 1 109.50000 418.400000
2846 14652 9586 1 109.50000 418.400000
166 14653 5065 1 109.50000 418.400000
166 14653 5645 1 109.50000 418.400000
166 14653 9587 1 109.50000 418.400000
5065 14653 5645 1 109.50000 418.400000
5065 14653 9587 1 109.50000 418.400000
5645 14653 9587 1 109.50000 418.400000
9000 14654 9588 1 109.50000 418.400000
9000 14654 9589 1 109.50000 418.400000
9000 14654 9590 1 109.50000 418.400000
9588 14654 9589 1 109.50000 418.400000
9588 14654 9590 1 109.50000 418.400000
9589 14654 9590 1 109.50000 418.400000
968 14655 3429 1 109.50000 418.400000
968 14655 6790 1 109.50000 418.400000
968 14655 9006 1 109.50000 418.400000
3429 14655 6790 1 109.50000 418.400000
3429 14655 9006 1 109.50000 418.400000
6790 14655 9006 1 109.50000 418.400000
1806 14656 5280 1 109.50000 418.400000
1806 14656 9591 1 109.50000 418.400000
1806 14656 9592 1 109.50000 418.400000
5280 14656 9591 1 109.50000 418.400000
5280 14656 9592 1 109.50000 418.400000
9591 14656 9592 1 109.50000 418.400000
7717 14657 8973 1 109.50000 418.400000
7717 14657 9593 1 109.50000 418.400000
7717 14657 9594 1 109.50000 418.400000
8973 14657 9593 1 109.50000 418.400000
8973 14657 9594 1 109.50000 418.400000
9593 14657 9594 1 109.50000 418.400000
3382 14658 8422 1 109.50000 418.400000
3382 14658 9595 1 109.50000 418.400000
3382 14658 9596 1 109.50000 418.400000
8422 14658 9595 1 109.50000 418.400000
8422 14658 9596 1 109.50000 418.400000
9595 14658 9596 1 109.50000 418.400000
1413 14659 8061 1 109.50000 418.400000
1413 14659 9598 1 109.50000 418.400000
1413 14659 9599 1 109.50000 418.400000
8061 14659 9598 1 109.50000 418.400000
8061 14659 9599 1 109.50000 418.400000
9598 14659 9599 1 109.50000 418.400000
109 14660 4885 1 109.50000 418.400000
109 14660 8862 1 109.50000 418.400000
109 14660 9600 1 109.50000 418.400000
4885 14660 8862 1 109.50000 418.400000
4885 14660 9600 1 109.50000 418.400000
8862 14660 9600 1 109.50000 418.400000
3417 14661 7460 1 109.50000 418.400000
3417 14661 9034 1 109.50000 418.400000
3417 14661 9603 1 109.50000 418.400000
7460 14661 9034 1 109.50000 418.400000
7460 14661 9603 1 109.50000 418.400000
9034 14661 9603 1 109.50000 418.400000
1464 14662 7570 1 109.50000 418.400000
1464 14662 9604 1 109.50000 418.400000
1464 14662 9605 1 109.50000 418.400000
7570 14662 9604 1 109.50000 418.400000
7570 14662 9605 1 109.50000 418.400000
9604 14662 9605 1 109.50000 418.400000
7399 14663 7490 1 109.50000 418.400000
7399 14663 9606 1 109.50000 418.400000
7399 14663 11239 1 109.50000 418.400000
7490 14663 9606 1 109.50000 418.400000
7490 14663 11239 1 109.50000 418.400000
9606 14663 11239 1 109.50000 418.400000
4408 14664 7875 1 109.50000 418.400000
4408 14664 9607 1 109.50000 418.400000
4408 14664 9608 1 109.50000 418.400000
7875 14664 9607 1 109.50000 418.400000
7875 14664 9608 1 109.50000 418.400000
9607 14664 9608 1 109.50000 418.400000
9609 14665 9969 1 109.50000 418.400000
9609 14665 11054 1 109.50000 418.400000
9609 14665 11055 1 109.50000 418.400000
9969 14665 11054 1 109.50000 418.400000
9969 14665 11055 1 109.50000 418.400000
11054 14665 11055 1 109.50000 418.400000
3454 14666 8792 1 109.50000 418.400000
3454 14666 9612 1 109.50000 418.400000
3454 14666 9613 1 109.50000 418.400000
8792 14666 9612 1 109.50000 418.400000
8792 14666 9613 1 109.50000 418.400000
9612 14666 9613 1 109.50000 418.400000
1646 14667 4088 1 109.50000 418.400000
1646 14667 9614 1 109.50000 418.400000
1646 14667 9615 1 109.50000 418.400000
4088 14667 9614 1 109.50000 418.400000
4088 14667 9615 1 109.50000 418.400000
9614 14667 9615 1 109.50000 418.400000
5764 14668 6274 1 109.50000 418.400000
5764 14668 6275 1 109.50000 418.400000
5764 14668 9511 1 109.50000 418.400000
6274 14668 6275 1 109.50000 418.400000
6274 14668 9511 1 109.50000 418.400000
6275 14668 9511 1 109.50000 418.400000
4581 14669 8521 1 109.50000 418.400000
4581 14669 9616 1 109.50000 418.400000
4581 14669 9617 1 109.50000 418.400000
8521 14669 9616 1 109.50000 418.400000
8521 14669 9617 1 109.50000 418.400000
9616 14669 9617 1 109.50000 418.400000
714 14670 715 1 109.50000 418.400000
714 14670 8692 1 109.50000 418.400000
714 14670 9618 1 109.50000 418.400000
715 14670 8692 1 109.50000 418.400000
715 14670 9618 1 109.50000 418.400000
8692 14670 9618 1 109.50000 418.400000
506 14671 2172 1 109.50000 418.400000
506 14671 2718 1 109.50000 418.400000
506 14671 9619 1 109.50000 418.400000
2172 14671 2718 1 109.50000 418.400000
2172 14671 9619 1 109.50000 418.400000
2718 14671 9619 1 109.50000 418.400000
81 14672 1307 1 109.50000 418.400000
81 14672 8914 1 109.50000 418.400000
81 14672 9620 1 109.50000 418.400000
1307 14672 8914 1 109.50000 418.400000
1307 14672 9620 1 109.50000 418.400000
8914 14672 9620 1 109.50000 418.400000
2922 14673 7019 1 109.50000 418.400000
2922 14673 7204 1 109.50000 418.400000
2922 14673 7534 1 109.50000 418.400000
7019 14673 7204 1 109.50000 418.400000
7019 14673 7534 1 109.50000 418.400000
7204 14673 7534 1 109.50000 418.400000
583 14674 3089 1 109.50000 418.400000
583 14674 3188 1 109.50000 418.400000
583 14674 5135 1 109.50000 418.400000
3089 14674 3188 1 109.50000 418.400000
3089 14674 5135 1 109.50000 418.400000
3188 14674 5135 1 109.50000 418.400000
4068 14675 7124 1 109.50000 418.400000
4068 14675 7126 1 109.50000 418.400000
4068 14675 7374 1 109.50000 418.400000
7124 14675 7126 1 109.50000 418.400000
7124 14675 7374 1 109.50000 418.400000
7126 14675 7374 1 109.50000 418.400000
1032 14676 9623 1 109.50000 418.400000
1032 14676 9624 1 109.50000 418.400000
1032 14676 9625 1 109.50000 418.400000
9623 14676 9624 1 109.50000 418.400000
9623 14676 9625 1 109.50000 418.400000
9624 14676 9625 1 109.50000 418.400000
8215 14677 8856 1 109.50000 418.400000
8215 14677 8910 1 109.50000 418.400000
8215 14677 9137 1 109.50000 418.400000
8856 14677 8910 1 109.50000 418.400000
8856 14677 9137 1 109.50000 418.400000
8910 14677 9137 1 109.50000 418.400000
9626 14678 9627 1 109.50000 418.400000
9626 14678 9628 1 109.50000 418.400000
9626 14678 9629 1 109.50000 418.400000
9627 14678 9628 1 109.50000 418.400000
9627 14678 9629 1 109.50000 418.400000
9628 14678 9629 1 109.50000 418.400000
1714 14679 6756 1 109.50000 418.400000
1714 14679 9630 1 109.50000 418.400000
1714 14679 9631 1 109.50000 418.400000
6756 14679 9630 1 109.50000 418.400000
6756 14679 9631 1 109.50000 418.400000
9630 14679 9631 1 109.50000 418.400000
2755 14680 9632 1 109.50000 418.400000
2755 14680 9634 1 109.50000 418.400000
2755 14680 10819 1 109.50000 418.400000
9632 14680 9634 1 109.50000 418.400000
9632 14680 10819 1 109.50000 418.400000
9634 14680 10819 1 109.50000 418.400000
977 14681 2450 1 109.50000 418.400000
977 14681 9635 1 109.50000 418.400000
977 14681 9636 1 109.50000 418.400000
2450 14681 9635 1 109.50000 418.400000
2450 14681 9636 1 109.50000 418.400000
9635 14681 9636 1 109.50000 418.400000
8181 14682 8463 1 109.50000 418.400000
8181 14682 9454 1 109.50000 418.400000
8181 14682 9637 1 109.50000 418.400000
8463 14682 9454 1 109.50000 418.400000
8463 14682 9637 1 109.50000 418.400000
9454 14682 9637 1 109.50000 418.400000
8997 14683 9235 1 109.50000 418.400000
8997 14683 9638 1 109.50000 418.400000
8997 14683 9639 1 109.50000 418.400000
9235 14683 9638 1 109.50000 418.400000
9235 14683 9639 1 109.50000 418.400000
9638 14683 9639 1 109.50000 418.400000
772 14684 7260 1 109.50000 418.400000
772 14684 7850 1 109.50000 418.400000
772 14684 9640 1 109.50000 418.400000
7260 14684 7850 1 109.50000 418.400000
7260 14684 9640 1 109.50000 418.400000
7850 14684 9640 1 109.50000 418.400000
3435 14685 5990 1 109.50000 418.400000
3435 14685 8703 1 109.50000 418.400000
3435 14685 9641 1 109.50000 418.400000
5990 14685 8703 1 109.50000 418.400000
5990 14685 9641 1 109.50000 418.400000
8703 14685 9641 1 109.50000 418.400000
9140 14686 9288 1 109.50000 418.400000
9140 14686 9642 1 109.50000 418.400000
9140 14686 9643 1 109.50000 418.400000
9288 14686 9642 1 109.50000 418.400000
9288 14686 9643 1 109.50000 418.400000
9642 14686 9643 1 109.50000 418.400000
9644 14687 9645 1 109.50000 418.400000
9644 14687 11195 1 109.50000 418.400000
9644 14687 11365 1 109.50000 418.400000
9645 14687 11195 1 109.50000 418.400000
9645 14687 11365 1 109.50000 418.400000
11195 14687 11365 1 109.50000 418.400000
3913 14688 7102 1 109.50000 418.400000
3913 14688 9646 1 109.50000 418.400000
3913 14688 9647 1 109.50000 418.400000
7102 14688 9646 1 109.50000 418.400000
7102 14688 9647 1 109.50000 418.400000
9646 14688 9647 1 109.50000 418.400000
3458 14689 4019 1 109.50000 418.400000
3458 14689 4390 1 109.50000 418.400000
3458 14689 5372 1 109.50000 418.400000
4019 14689 4390 1 109.50000 418.400000
4019 14689 5372 1 109.50000 418.400000
4390 14689 5372 1 109.50000 418.400000
6017 14690 9649 1 109.50000 418.400000
6017 14690 9650 1 109.50000 418.400000
6017 14690 9651 1 109.50000 418.400000
9649 14690 9650 1 109.50000 418.400000
9649 14690 9651 1 109.50000 418.400000
9650 14690 9651 1 109.50000 418.400000
84 14691 1388 1 109.50000 418.400000
84 14691 4400 1 109.50000 418.400000
84 14691 9652 1 109.50000 418.400000
1388 14691 4400 1 109.50000 418.400000
1388 14691 9652 1 109.50000 418.400000
4400 14691 9652 1 109.50000 418.400000
974 14692 4593 1 109.50000 418.400000
974 14692 6671 1 109.50000 418.400000
974 14692 9529 1 109.50000 418.400000
4593 14692 6671 1 109.50000 418.400000
4593 14692 9529 1 109.50000 418.400000
6671 14692 9529 1 109.50000 418.400000
905 14693 1534 1 109.50000 418.400000
905 14693 1719 1 109.50000 418.400000
905 14693 8768 1 109.50000 418.400000
1534 14693 1719 1 109.50000 418.400000
1534 14693 8768 1 109.50000 418.400000
1719 14693 8768 1 109.50000 418.400000
710 14694 3550 1 109.50000 418.400000
710 14694 8404 1 109.50000 418.400000
710 14694 9656 1 109.50000 418.400000
3550 14694 8404 1 109.50000 418.400000
3550 14694 9656 1 109.50000 418.400000
8404 14694 9656 1 109.50000 418.400000
605 14695 2683 1 109.50000 418.400000
605 14695 9657 1 109.50000 418.400000
605 14695 10521 1 109.50000 418.400000
2683 14695 9657 1 109.50000 418.400000
2683 14695 10521 1 109.50000 418.400000
9657 14695 10521 1 109.50000 418.400000
9521 14696 9658 1 109.50000 418.400000
9521 14696 9659 1 109.50000 418.400000
9521 14696 9660 1 109.50000 418.400000
9658 14696 9659 1 109.50000 418.400000
9658 14696 9660 1 109.50000 418.400000
9659 14696 9660 1 109.50000 418.400000
3769 14697 9661 1 109.50000 418.400000
3769 14697 9662 1 109.50000 418.400000
3769 14697 9663 1 109.50000 418.400000
9661 14697 9662 1 109.50000 418.400000
9661 14697 9663 1 109.50000 418.400000
9662 14697 9663 1 109.50000 418.400000
1629 14698 5897 1 109.50000 418.400000
1629 14698 9473 1 109.50000 418.400000
1629 14698 9664 1 109.50000 418.400000
5897 14698 9473 1 109.50000 418.400000
5897 14698 9664 1 109.50000 418.400000
9473 14698 9664 1 109.50000 418.400000
4808 14699 7485 1 109.50000 418.400000
4808 14699 9665 1 109.50000 418.400000
4808 14699 9666 1 109.50000 418.400000
7485 14699 9665 1 109.50000 418.400000
7485 14699 9666 1 109.50000 418.400000
9665 14699 9666 1 109.50000 418.400000
9667 14700 9668 1 109.50000 418.400000
9667 14700 9669 1 109.50000 418.400000
9667 14700 9670 1 109.50000 418.400000
9668 14700 9669 1 109.50000 418.400000
9668 14700 9670 1 109.50000 418.400000
9669 14700 9670 1 109.50000 418.400000
1745 14701 1975 1 109.50000 418.400000
1745 14701 8184 1 109.50000 418.400000
1745 14701 9671 1 109.50000 418.400000
1975 14701 8184 1 109.50000 418.400000
1975 14701 9671 1 109.50000 418.400000
8184 14701 9671 1 109.50000 418.400000
7126 14702 7862 1 109.50000 418.400000
7126 14702 9673 1 109.50000 418.400000
7126 14702 11306 1 109.50000 418.400000
7862 14702 9673 1 109.50000 418.400000
7862 14702 11306 1 109.50000 418.400000
9673 14702 11306 1 109.50000 418.400000
5152 14703 6367 1 109.50000 418.400000
5152 14703 7976 1 109.50000 418.400000
5152 14703 9674 1 109.50000 418.400000
6367 14703 7976 1 109.50000 418.400000
6367 14703 9674 1 109.50000 418.400000
7976 14703 9674 1 109.50000 418.400000
154 14704 9223 1 109.50000 418.400000
154 14704 9401 1 109.50000 418.400000
154 14704 9675 1 109.50000 418.400000
9223 14704 9401 1 109.50000 418.400000
9223 14704 9675 1 109.50000 418.400000
9401 14704 9675 1 109.50000 418.400000
768 14705 7118 1 109.50000 418.400000
768 14705 8137 1 109.50000 418.400000
768 14705 9676 1 109.50000 418.400000
7118 14705 8137 1 109.50000 418.400000
7118 14705 9676 1 109.50000 418.400000
8137 14705 9676 1 109.50000 418.400000
4586 14706 9677 1 109.50000 418.400000
4586 14706 9678 1 109.50000 418.400000
4586 14706 9679 1 109.50000 418.400000
9677 14706 9678 1 109.50000 418.400000
9677 14706 9679 1 109.50000 418.400000
9678 14706 9679 1 109.50000 418.400000
8465 14707 9680 1 109.50000 418.400000
8465 14707 9681 1 109.50000 418.400000
8465 14707 9682 1 109.50000 418.400000
9680 14707 9681 1 109.50000 418.400000
9680 14707 9682 1 109.50000 418.400000
9681 14707 9682 1 109.50000 418.400000
6533 14708 9458 1 109.50000 418.400000
6533 14708 9683 1 109.50000 418.400000
6533 14708 11247 1 109.50000 418.400000
9458 14708 9683 1 109.50000 418.400000
9458 14708 11247 1 109.50000 418.400000
9683 14708 11247 1 109.50000 418.400000
7632 14709 9131 1 109.50000 418.400000
7632 14709 9206 1 109.50000 418.400000
7632 14709 9684 1 109.50000 418.400000
9131 14709 9206 1 109.50000 418.400000
9131 14709 9684 1 109.50000 418.400000
9206 14709 9684 1 109.50000 418.400000
7139 14710 7146 1 109.50000 418.400000
7139 14710 9685 1 109.50000 418.400000
7139 14710 9686 1 109.50000 418.400000
7146 14710 9685 1 109.50000 418.400000
7146 14710 9686 1 109.50000 418.400000
9685 14710 9686 1 109.50000 418.400000
194 14711 3825 1 109.50000 418.400000
194 14711 3959 1 109.50000 418.400000
194 14711 9688 1 109.50000 418.400000
3825 14711 3959 1 109.50000 418.400000
3825 14711 9688 1 109.50000 418.400000
3959 14711 9688 1 109.50000 418.400000
5836 14712 5837 1 109.50000 418.400000
5836 14712 5838 1 109.50000 418.400000
5836 14712 9689 1 109.50000 418.400000
5837 14712 5838 1 109.50000 418.400000
5837 14712 9689 1 109.50000 418.400000
5838 14712 9689 1 109.50000 418.400000
6489 14713 9556 1 109.50000 418.400000
6489 14713 9691 1 109.50000 418.400000
6489 14713 11246 1 109.50000 418.400000
9556 14713 9691 1 109.50000 418.400000
9556 14713 11246 1 109.50000 418.400000
9691 14713 11246 1 109.50000 418.400000
1578 14714 2841 1 109.50000 418.400000
1578 14714 4140 1 109.50000 418.400000
1578 14714 9692 1 109.50000 418.400000
2841 14714 4140 1 109.50000 418.400000
2841 14714 9692 1 109.50000 418.400000
4140 14714 9692 1 109.50000 418.400000
5606 14715 5648 1 109.50000 418.400000
5606 14715 9299 1 109.50000 418.400000
5606 14715 9693 1 109.50000 418.400000
5648 14715 9299 1 109.50000 418.400000
5648 14715 9693 1 109.50000 418.400000
9299 14715 9693 1 109.50000 418.400000
5102 14716 9694 1 109.50000 418.400000
5102 14716 9695 1 109.50000 418.400000
5102 14716 10680 1 109.50000 418.400000
9694 14716 9695 1 109.50000 418.400000
9694 14716 10680 1 109.50000 418.400000
9695 14716 10680 1 109.50000 418.400000
846 14717 8240 1 109.50000 418.400000
846 14717 9696 1 109.50000 418.400000
846 14717 9697 1 109.50000 418.400000
8240 14717 9696 1 109.50000 418.400000
8240 14717 9697 1 109.50000 418.400000
9696 14717 9697 1 109.50000 418.400000
2458 14718 8915 1 109.50000 418.400000
2458 14718 9030 1 109.50000 418.400000
2458 14718 9698 1 109.50000 418.400000
8915 14718 9030 1 109.50000 418.400000
8915 14718 9698 1 109.50000 418.400000
9030 14718 9698 1 109.50000 418.400000
4509 14719 9699 1 109.50000 418.400000
4509 14719 9700 1 109.50000 418.400000
4509 14719 9701 1 109.50000 418.400000
9699 14719 9700 1 109.50000 418.400000
9699 14719 9701 1 109.50000 418.400000
9700 14719 9701 1 109.50000 418.400000
2361 14720 9702 1 109.50000 418.400000
2361 14720 9703 1 109.50000 418.400000
2361 14720 9704 1 109.50000 418.400000
9702 14720 9703 1 109.50000 418.400000
9702 14720 9704 1 109.50000 418.400000
9703 14720 9704 1 109.50000 418.400000
329 14721 8502 1 109.50000 418.400000
329 14721 9705 1 109.50000 418.400000
329 14721 9706 1 109.50000 418.400000
8502 14721 9705 1 109.50000 418.400000
8502 14721 9706 1 109.50000 418.400000
9705 14721 9706 1 109.50000 418.400000
7628 14722 7945 1 109.50000 418.400000
7628 14722 9708 1 109.50000 418.400000
7628 14722 10467 1 109.50000 418.400000
7945 14722 9708 1 109.50000 418.400000
7945 14722 10467 1 109.50000 418.400000
9708 14722 10467 1 109.50000 418.400000
3831 14723 6470 1 109.50000 418.400000
3831 14723 8834 1 109.50000 418.400000
3831 14723 9709 1 109.50000 418.400000
6470 14723 8834 1 109.50000 418.400000
6470 14723 9709 1 109.50000 418.400000
8834 14723 9709 1 109.50000 418.400000
3951 14724 9494 1 109.50000 418.400000
3951 14724 9710 1 109.50000 418.400000
3951 14724 9711 1 109.50000 418.400000
9494 14724 9710 1 109.50000 418.400000
9494 14724 9711 1 109.50000 418.400000
9710 14724 9711 1 109.50000 418.400000
7659 14725 9712 1 109.50000 418.400000
7659 14725 9713 1 109.50000 418.400000
7659 14725 10259 1 109.50000 418.400000
9712 14725 9713 1 109.50000 418.400000
9712 14725 10259 1 109.50000 418.400000
9713 14725 10259 1 109.50000 418.400000
5728 14726 9163 1 109.50000 418.400000
5728 14726 9714 1 109.50000 418.400000
5728 14726 9715 1 109.50000 418.400000
9163 14726 9714 1 109.50000 418.400000
9163 14726 9715 1 109.50000 418.400000
9714 14726 9715 1 109.50000 418.400000
3094 14727 5099 1 109.50000 418.400000
3094 14727 9716 1 109.50000 418.400000
3094 14727 9717 1 109.50000 418.400000
5099 14727 9716 1 109.50000 418.400000
5099 14727 9717 1 109.50000 418.400000
9716 14727 9717 1 109.50000 418.400000
844 14728 6717 1 109.50000 418.400000
844 14728 8526 1 109.50000 418.400000
844 14728 9718 1 109.50000 418.400000
6717 14728 8526 1 109.50000 418.400000
6717 14728 9718 1 109.50000 418.400000
8526 14728 9718 1 109.50000 418.400000
6226 14729 9719 1 109.50000 418.400000
6226 14729 9720 1 109.50000 418.400000
6226 14729 9721 1 109.50000 418.400000
9719 14729 9720 1 109.50000 418.400000
9719 14729 9721 1 109.50000 418.400000
9720 14729 9721 1 109.50000 418.400000
3104 14730 4081 1 109.50000 418.400000
3104 14730 7579 1 109.50000 418.400000
3104 14730 9298 1 109.50000 418.400000
4081 14730 7579 1 109.50000 418.400000
4081 14730 9298 1 109.50000 418.400000
7579 14730 9298 1 109.50000 418.400000
7133 14731 7899 1 109.50000 418.400000
7133 14731 9722 1 109.50000 418.400000
7133 14731 9723 1 109.50000 418.400000
7899 14731 9722 1 109.50000 418.400000
7899 14731 9723 1 109.50000 418.400000
9722 14731 9723 1 109.50000 418.400000
1043 14732 2382 1 109.50000 418.400000
1043 14732 9403 1 109.50000 418.400000
1043 14732 11278 1 109.50000 418.400000
2382 14732 9403 1 109.50000 418.400000
2382 14732 11278 1 109.50000 418.400000
9403 14732 11278 1 109.50000 418.400000
7707 14733 7721 1 109.50000 418.400000
7707 14733 7767 1 109.50000 418.400000
7707 14733 9724 1 109.50000 418.400000
7721 14733 7767 1 109.50000 418.400000
7721 14733 9724 1 109.50000 418.400000
7767 14733 9724 1 109.50000 418.400000
9037 14734 9437 1 109.50000 418.400000
9037 14734 9718 1 109.50000 418.400000
9037 14734 9725 1 109.50000 418.400000
9437 14734 9718 1 109.50000 418.400000
9437 14734 9725 1 109.50000 418.400000
9718 14734 9725 1 109.50000 418.400000
3323 14735 5935 1 109.50000 418.400000
3323 14735 8638 1 109.50000 418.400000
3323 14735 9726 1 109.50000 418.400000
5935 14735 8638 1 109.50000 418.400000
5935 14735 9726 1 109.50000 418.400000
8638 14735 9726 1 109.50000 418.400000
4261 14736 7346 1 109.50000 418.400000
4261 14736 9059 1 109.50000 418.400000
4261 14736 9728 1 109.50000 418.400000
7346 14736 9059 1 109.50000 418.400000
7346 14736 9728 1 109.50000 418.400000
9059 14736 9728 1 109.50000 418.400000
3465 14737 6839 1 109.50000 418.400000
3465 14737 9596 1 109.50000 418.400000
3465 14737 9730 1 109.50000 418.400000
6839 14737 9596 1 109.50000 418.400000
6839 14737 9730 1 109.50000 418.400000
9596 14737 9730 1 109.50000 418.400000
5905 14738 6873 1 109.50000 418.400000
5905 14738 9260 1 109.50000 418.400000
5905 14738 9702 1 109.50000 418.400000
6873 14738 9260 1 109.50000 418.400000
6873 14738 9702 1 109.50000 418.400000
9260 14738 9702 1 109.50000 418.400000
4121 14739 8086 1 109.50000 418.400000
4121 14739 8553 1 109.50000 418.400000
4121 14739 9731 1 109.50000 418.400000
8086 14739 8553 1 109.50000 418.400000
8086 14739 9731 1 109.50000 418.400000
8553 14739 9731 1 109.50000 418.400000
9732 14740 9733 1 109.50000 418.400000
9732 14740 9734 1 109.50000 418.400000
9732 14740 9735 1 109.50000 418.400000
9733 14740 9734 1 109.50000 418.400000
9733 14740 9735 1 109.50000 418.400000
9734 14740 9735 1 109.50000 418.400000
9351 14741 9736 1 109.50000 418.400000
9351 14741 9737 1 109.50000 418.400000
9351 14741 9738 1 109.50000 418.400000
9736 14741 9737 1 109.50000 418.400000
9736 14741 9738 1 109.50000 418.400000
9737 14741 9738 1 109.50000 418.400000
4134 14742 7739 1 109.50000 418.400000
4134 14742 8529 1 109.50000 418.400000
4134 14742 9739 1 109.50000 418.400000
7739 14742 8529 1 109.50000 418.400000
7739 14742 9739 1 109.50000 418.400000
8529 14742 9739 1 109.50000 418.400000
4177 14743 5759 1 109.50000 418.400000
4177 14743 5760 1 109.50000 418.400000
4177 14743 6978 1 109.50000 418.400000
5759 14743 5760 1 109.50000 418.400000
5759 14743 6978 1 109.50000 418.400000
5760 14743 6978 1 109.50000 418.400000
1236 14744 1554 1 109.50000 418.400000
1236 14744 6389 1 109.50000 418.400000
1236 14744 9741 1 109.50000 418.400000
1554 14744 6389 1 109.50000 418.400000
1554 14744 9741 1 109.50000 418.400000
6389 14744 9741 1 109.50000 418.400000
1681 14745 7596 1 109.50000 418.400000
1681 14745 9742 1 109.50000 418.400000
1681 14745 9743 1 109.50000 418.400000
7596 14745 9742 1 109.50000 418.400000
7596 14745 9743 1 109.50000 418.400000
9742 14745 9743 1 109.50000 418.400000
1155 14746 8974 1 109.50000 418.400000
1155 14746 9744 1 109.50000 418.400000
1155 14746 9745 1 109.50000 418.400000
8974 14746 9744 1 109.50000 418.400000
8974 14746 9745 1 109.50000 418.400000
9744 14746 9745 1 109.50000 418.400000
3348 14747 9159 1 109.50000 418.400000
3348 14747 9746 1 109.50000 418.400000
3348 14747 9747 1 109.50000 418.400000
9159 14747 9746 1 109.50000 418.400000
9159 14747 9747 1 109.50000 418.400000
9746 14747 9747 1 109.50000 418.400000
1417 14748 6270 1 109.50000 418.400000
1417 14748 7238 1 109.50000 418.400000
1417 14748 9748 1 109.50000 418.400000
6270 14748 7238 1 109.50000 418.400000
6270 14748 9748 1 109.50000 418.400000
7238 14748 9748 1 109.50000 418.400000
7686 14749 9548 1 109.50000 418.400000
7686 14749 9749 1 109.50000 418.400000
7686 14749 9750 1 109.50000 418.400000
9548 14749 9749 1 109.50000 418.400000
9548 14749 9750 1 109.50000 418.400000
9749 14749 9750 1 109.50000 418.400000
4052 14750 9751 1 109.50000 418.400000
4052 14750 9752 1 109.50000 418.400000
4052 14750 9753 1 109.50000 418.400000
9751 14750 9752 1 109.50000 418.400000
9751 14750 9753 1 109.50000 418.400000
9752 14750 9753 1 109.50000 418.400000
1790 14751 4943 1 109.50000 418.400000
1790 14751 7891 1 109.50000 418.400000
1790 14751 9754 1 109.50000 418.400000
4943 14751 7891 1 109.50000 418.400000
4943 14751 9754 1 109.50000 418.400000
7891 14751 9754 1 109.50000 418.400000
6590 14752 9246 1 109.50000 418.400000
6590 14752 9755 1 109.50000 418.400000
6590 14752 9756 1 109.50000 418.400000
9246 14752 9755 1 109.50000 418.400000
9246 14752 9756 1 109.50000 418.400000
9755 14752 9756 1 109.50000 418.400000
1090 14753 7562 1 109.50000 418.400000
1090 14753 9310 1 109.50000 418.400000
1090 14753 9540 1 109.50000 418.400000
7562 14753 9310 1 109.50000 418.400000
7562 14753 9540 1 109.50000 418.400000
9310 14753 9540 1 109.50000 418.400000
5707 14754 7296 1 109.50000 418.400000
5707 14754 7462 1 109.50000 418.400000
5707 14754 9251 1 109.50000 418.400000
7296 14754 7462 1 109.50000 418.400000
7296 14754 9251 1 109.50000 418.400000
7462 14754 9251 1 109.50000 418.400000
2261 14755 4329 1 109.50000 418.400000
2261 14755 7009 1 109.50000 418.400000
2261 14755 8618 1 109.50000 418.400000
4329 14755 7009 1 109.50000 418.400000
4329 14755 8618 1 109.50000 418.400000
7009 14755 8618 1 109.50000 418.400000
275 14756 6663 1 109.50000 418.400000
275 14756 9757 1 109.50000 418.400000
275 14756 9758 1 109.50000 418.400000
6663 14756 9757 1 109.50000 418.400000
6663 14756 9758 1 109.50000 418.400000
9757 14756 9758 1 109.50000 418.400000
3169 14757 7416 1 109.50000 418.400000
3169 14757 7693 1 109.50000 418.400000
3169 14757 7695 1 109.50000 418.400000
7416 14757 7693 1 109.50000 418.400000
7416 14757 7695 1 109.50000 418.400000
7693 14757 7695 1 109.50000 418.400000
1999 14758 7985 1 109.50000 418.400000
1999 14758 8283 1 109.50000 418.400000
1999 14758 9760 1 109.50000 418.400000
7985 14758 8283 1 109.50000 418.400000
7985 14758 9760 1 109.50000 418.400000
8283 14758 9760 1 109.50000 418.400000
1326 14759 2891 1 109.50000 418.400000
1326 14759 9598 1 109.50000 418.400000
1326 14759 9761 1 109.50000 418.400000
2891 14759 9598 1 109.50000 418.400000
2891 14759 9761 1 109.50000 418.400000
9598 14759 9761 1 109.50000 418.400000
448 14760 1622 1 109.50000 418.400000
448 14760 9762 1 109.50000 418.400000
448 14760 9763 1 109.50000 418.400000
1622 14760 9762 1 109.50000 418.400000
1622 14760 9763 1 109.50000 418.400000
9762 14760 9763 1 109.50000 418.400000
4813 14761 8219 1 109.50000 418.400000
4813 14761 9241 1 109.50000 418.400000
4813 14761 9766 1 109.50000 418.400000
8219 14761 9241 1 109.50000 418.400000
8219 14761 9766 1 109.50000 418.400000
9241 14761 9766 1 109.50000 418.400000
2363 14762 9519 1 109.50000 418.400000
2363 14762 9767 1 109.50000 418.400000
2363 14762 9768 1 109.50000 418.400000
9519 14762 9767 1 109.50000 418.400000
9519 14762 9768 1 109.50000 418.400000
9767 14762 9768 1 109.50000 418.400000
4323 14763 9629 1 109.50000 418.400000
4323 14763 9769 1 109.50000 418.400000
4323 14763 9770 1 109.50000 418.400000
9629 14763 9769 1 109.50000 418.400000
9629 14763 9770 1 109.50000 418.400000
9769 14763 9770 1 109.50000 418.400000
6613 14764 6894 1 109.50000 418.400000
6613 14764 9771 1 109.50000 418.400000
6613 14764 9772 1 109.50000 418.400000
6894 14764 9771 1 109.50000 418.400000
6894 14764 9772 1 109.50000 418.400000
9771 14764 9772 1 109.50000 418.400000
1076 14765 4689 1 109.50000 418.400000
1076 14765 7836 1 109.50000 418.400000
1076 14765 11371 1 109.50000 418.400000
4689 14765 7836 1 109.50000 418.400000
4689 14765 11371 1 109.50000 418.400000
7836 14765 11371 1 109.50000 418.400000
1927 14766 8235 1 109.50000 418.400000
1927 14766 8686 1 109.50000 418.400000
1927 14766 9773 1 109.50000 418.400000
8235 14766 8686 1 109.50000 418.400000
8235 14766 9773 1 109.50000 418.400000
8686 14766 9773 1 109.50000 418.400000
574 14767 3548 1 109.50000 418.400000
574 14767 5478 1 109.50000 418.400000
574 14767 9775 1 109.50000 418.400000
3548 14767 5478 1 109.50000 418.400000
3548 14767 9775 1 109.50000 418.400000
5478 14767 9775 1 109.50000 418.400000
6871 14768 9379 1 109.50000 418.400000
6871 14768 9530 1 109.50000 418.400000
6871 14768 9776 1 109.50000 418.400000
9379 14768 9530 1 109.50000 418.400000
9379 14768 9776 1 109.50000 418.400000
9530 14768 9776 1 109.50000 418.400000
2596 14769 8430 1 109.50000 418.400000
2596 14769 9778 1 109.50000 418.400000
2596 14769 9779 1 109.50000 418.400000
8430 14769 9778 1 109.50000 418.400000
8430 14769 9779 1 109.50000 418.400000
9778 14769 9779 1 109.50000 418.400000
6902 14770 6962 1 109.50000 418.400000
6902 14770 7736 1 109.50000 418.400000
6902 14770 9780 1 109.50000 418.400000
6962 14770 7736 1 109.50000 418.400000
6962 14770 9780 1 109.50000 418.400000
7736 14770 9780 1 109.50000 418.400000
5502 14771 7941 1 109.50000 418.400000
5502 14771 9781 1 109.50000 418.400000
5502 14771 9782 1 109.50000 418.400000
7941 14771 9781 1 109.50000 418.400000
7941 14771 9782 1 109.50000 418.400000
9781 14771 9782 1 109.50000 418.400000
344 14772 9783 1 109.50000 418.400000
344 14772 9784 1 109.50000 418.400000
344 14772 9785 1 109.50000 418.400000
9783 14772 9784 1 109.50000 418.400000
9783 14772 9785 1 109.50000 418.400000
9784 14772 9785 1 109.50000 418.400000
750 14773 3381 1 109.50000 418.400000
750 14773 9044 1 109.50000 418.400000
750 14773 9786 1 109.50000 418.400000
3381 14773 9044 1 109.50000 418.400000
3381 14773 9786 1 109.50000 418.400000
9044 14773 9786 1 109.50000 418.400000
3963 14774 7838 1 109.50000 418.400000
3963 14774 9787 1 109.50000 418.400000
3963 14774 9788 1 109.50000 418.400000
7838 14774 9787 1 109.50000 418.400000
7838 14774 9788 1 109.50000 418.400000
9787 14774 9788 1 109.50000 418.400000
2336 14775 5239 1 109.50000 418.400000
2336 14775 6607 1 109.50000 418.400000
2336 14775 9789 1 109.50000 418.400000
5239 14775 6607 1 109.50000 418.400000
5239 14775 9789 1 109.50000 418.400000
6607 14775 9789 1 109.50000 418.400000
8000 14776 9790 1 109.50000 418.400000
8000 14776 9791 1 109.50000 418.400000
8000 14776 9792 1 109.50000 418.400000
9790 14776 9791 1 109.50000 418.400000
9790 14776 9792 1 109.50000 418.400000
9791 14776 9792 1 109.50000 418.400000
7732 14777 8725 1 109.50000 418.400000
7732 14777 11283 1 109.50000 418.400000
7732 14777 11354 1 109.50000 418.400000
8725 14777 11283 1 109.50000 418.400000
8725 14777 11354 1 109.50000 418.400000
11283 14777 11354 1 109.50000 418.400000
3402 14778 5211 1 109.50000 418.400000
3402 14778 8919 1 109.50000 418.400000
3402 14778 9237 1 109.50000 418.400000
5211 14778 8919 1 109.50000 418.400000
5211 14778 9237 1 109.50000 418.400000
8919 14778 9237 1 109.50000 418.400000
3809 14779 8912 1 109.50000 418.400000
3809 14779 9761 1 109.50000 418.400000
3809 14779 9793 1 109.50000 418.400000
8912 14779 9761 1 109.50000 418.400000
8912 14779 9793 1 109.50000 418.400000
9761 14779 9793 1 109.50000 418.400000
1386 14780 4055 1 109.50000 418.400000
1386 14780 9794 1 109.50000 418.400000
1386 14780 9795 1 109.50000 418.400000
4055 14780 9794 1 109.50000 418.400000
4055 14780 9795 1 109.50000 418.400000
9794 14780 9795 1 109.50000 418.400000
3668 14781 7846 1 109.50000 418.400000
3668 14781 9796 1 109.50000 418.400000
3668 14781 9797 1 109.50000 418.400000
7846 14781 9796 1 109.50000 418.400000
7846 14781 9797 1 109.50000 418.400000
9796 14781 9797 1 109.50000 418.400000
1370 14782 2988 1 109.50000 418.400000
1370 14782 9663 1 109.50000 418.400000
1370 14782 11302 1 109.50000 418.400000
2988 14782 9663 1 109.50000 418.400000
2988 14782 11302 1 109.50000 418.400000
9663 14782 11302 1 109.50000 418.400000
5642 14783 8702 1 109.50000 418.400000
5642 14783 9798 1 109.50000 418.400000
5642 14783 9799 1 109.50000 418.400000
8702 14783 9798 1 109.50000 418.400000
8702 14783 9799 1 109.50000 418.400000
9798 14783 9799 1 109.50000 418.400000
2322 14784 6794 1 109.50000 418.400000
2322 14784 9370 1 109.50000 418.400000
2322 14784 9428 1 109.50000 418.400000
6794 14784 9370 1 109.50000 418.400000
6794 14784 9428 1 109.50000 418.400000
9370 14784 9428 1 109.50000 418.400000
3696 14785 8678 1 109.50000 418.400000
3696 14785 9800 1 109.50000 418.400000
3696 14785 9801 1 109.50000 418.400000
8678 14785 9800 1 109.50000 418.400000
8678 14785 9801 1 109.50000 418.400000
9800 14785 9801 1 109.50000 418.400000
6054 14786 9764 1 109.50000 418.400000
6054 14786 9802 1 109.50000 418.400000
6054 14786 9803 1 109.50000 418.400000
9764 14786 9802 1 109.50000 418.400000
9764 14786 9803 1 109.50000 418.400000
9802 14786 9803 1 109.50000 418.400000
5840 14787 8426 1 109.50000 418.400000
5840 14787 8956 1 109.50000 418.400000
5840 14787 11202 1 109.50000 418.400000
8426 14787 8956 1 109.50000 418.400000
8426 14787 11202 1 109.50000 418.400000
8956 14787 11202 1 109.50000 418.400000
3488 14788 4355 1 109.50000 418.400000
3488 14788 8327 1 109.50000 418.400000
3488 14788 9804 1 109.50000 418.400000
4355 14788 8327 1 109.50000 418.400000
4355 14788 9804 1 109.50000 418.400000
8327 14788 9804 1 109.50000 418.400000
2085 14789 2603 1 109.50000 418.400000
2085 14789 4816 1 109.50000 418.400000
2085 14789 7262 1 109.50000 418.400000
2603 14789 4816 1 109.50000 418.400000
2603 14789 7262 1 109.50000 418.400000
4816 14789 7262 1 109.50000 418.400000
1823 14790 4073 1 109.50000 418.400000
1823 14790 8805 1 109.50000 418.400000
1823 14790 9805 1 109.50000 418.400000
4073 14790 8805 1 109.50000 418.400000
4073 14790 9805 1 109.50000 418.400000
8805 14790 9805 1 109.50000 418.400000
1756 14791 4773 1 109.50000 418.400000
1756 14791 6307 1 109.50000 418.400000
1756 14791 11214 1 109.50000 418.400000
4773 14791 6307 1 109.50000 418.400000
4773 14791 11214 1 109.50000 418.400000
6307 14791 11214 1 109.50000 418.400000
949 14792 951 1 109.50000 418.400000
949 14792 7132 1 109.50000 418.400000
949 14792 9807 1 109.50000 418.400000
951 14792 7132 1 109.50000 418.400000
951 14792 9807 1 109.50000 418.400000
7132 14792 9807 1 109.50000 418.400000
3601 14793 6014 1 109.50000 418.400000
3601 14793 9808 1 109.50000 418.400000
3601 14793 11377 1 109.50000 418.400000
6014 14793 9808 1 109.50000 418.400000
6014 14793 11377 1 109.50000 418.400000
9808 14793 11377 1 109.50000 418.400000
4626 14794 5563 1 109.50000 418.400000
4626 14794 9809 1 109.50000 418.400000
4626 14794 9810 1 109.50000 418.400000
5563 14794 9809 1 109.50000 418.400000
5563 14794 9810 1 109.50000 418.400000
9809 14794 9810 1 109.50000 418.400000
1217 14795 9224 1 109.50000 418.400000
1217 14795 9811 1 109.50000 418.400000
1217 14795 9812 1 109.50000 418.400000
9224 14795 9811 1 109.50000 418.400000
9224 14795 9812 1 109.50000 418.400000
9811 14795 9812 1 109.50000 418.400000
5683 14796 9813 1 109.50000 418.400000
5683 14796 9814 1 109.50000 418.400000
5683 14796 9815 1 109.50000 418.400000
9813 14796 9814 1 109.50000 418.400000
9813 14796 9815 1 109.50000 418.400000
9814 14796 9815 1 109.50000 418.400000
3122 14797 4396 1 109.50000 418.400000
3122 14797 8602 1 109.50000 418.400000
3122 14797 9816 1 109.50000 418.400000
4396 14797 8602 1 109.50000 418.400000
4396 14797 9816 1 109.50000 418.400000
8602 14797 9816 1 109.50000 418.400000
3988 14798 6081 1 109.50000 418.400000
3988 14798 9817 1 109.50000 418.400000
3988 14798 9818 1 109.50000 418.400000
6081 14798 9817 1 109.50000 418.400000
6081 14798 9818 1 109.50000 418.400000
9817 14798 9818 1 109.50000 418.400000
2607 14799 6743 1 109.50000 418.400000
2607 14799 9819 1 109.50000 418.400000
2607 14799 9820 1 109.50000 418.400000
6743 14799 9819 1 109.50000 418.400000
6743 14799 9820 1 109.50000 418.400000
9819 14799 9820 1 109.50000 418.400000
476 14800 8108 1 109.50000 418.400000
476 14800 8496 1 109.50000 418.400000
476 14800 9065 1 109.50000 418.400000
8108 14800 8496 1 109.50000 418.400000
8108 14800 9065 1 109.50000 418.400000
8496 14800 9065 1 109.50000 418.400000
258 14801 4562 1 109.50000 418.400000
258 14801 8018 1 109.50000 418.400000
258 14801 9821 1 109.50000 418.400000
4562 14801 8018 1 109.50000 418.400000
4562 14801 9821 1 109.50000 418.400000
8018 14801 9821 1 109.50000 418.400000
7788 14802 9822 1 109.50000 418.400000
7788 14802 9823 1 109.50000 418.400000
7788 14802 11296 1 109.50000 418.400000
9822 14802 9823 1 109.50000 418.400000
9822 14802 11296 1 109.50000 418.400000
9823 14802 11296 1 109.50000 418.400000
1926 14803 1927 1 109.50000 418.400000
1926 14803 9824 1 109.50000 418.400000
1926 14803 11347 1 109.50000 418.400000
1927 14803 9824 1 109.50000 418.400000
1927 14803 11347 1 109.50000 418.400000
9824 14803 11347 1 109.50000 418.400000
596 14804 736 1 109.50000 418.400000
596 14804 9813 1 109.50000 418.400000
596 14804 9826 1 109.50000 418.400000
736 14804 9813 1 109.50000 418.400000
736 14804 9826 1 109.50000 418.400000
9813 14804 9826 1 109.50000 418.400000
2945 14805 9386 1 109.50000 418.400000
2945 14805 9827 1 109.50000 418.400000
2945 14805 9828 1 109.50000 418.400000
9386 14805 9827 1 109.50000 418.400000
9386 14805 9828 1 109.50000 418.400000
9827 14805 9828 1 109.50000 418.400000
936 14806 6945 1 109.50000 418.400000
936 14806 9829 1 109.50000 418.400000
936 14806 9830 1 109.50000 418.400000
6945 14806 9829 1 109.50000 418.400000
6945 14806 9830 1 109.50000 418.400000
9829 14806 9830 1 109.50000 418.400000
8443 14807 9831 1 109.50000 418.400000
8443 14807 9832 1 109.50000 418.400000
8443 14807 9833 1 109.50000 418.400000
9831 14807 9832 1 109.50000 418.400000
9831 14807 9833 1 109.50000 418.400000
9832 14807 9833 1 109.50000 418.400000
9129 14808 9538 1 109.50000 418.400000
9129 14808 9605 1 109.50000 418.400000
9129 14808 9834 1 109.50000 418.400000
9538 14808 9605 1 109.50000 418.400000
9538 14808 9834 1 109.50000 418.400000
9605 14808 9834 1 109.50000 418.400000
4017 14809 7474 1 109.50000 418.400000
4017 14809 9261 1 109.50000 418.400000
4017 14809 9835 1 109.50000 418.400000
7474 14809 9261 1 109.50000 418.400000
7474 14809 9835 1 109.50000 418.400000
9261 14809 9835 1 109.50000 418.400000
4847 14810 9836 1 109.50000 418.400000
4847 14810 9837 1 109.50000 418.400000
4847 14810 9838 1 109.50000 418.400000
9836 14810 9837 1 109.50000 418.400000
9836 14810 9838 1 109.50000 418.400000
9837 14810 9838 1 109.50000 418.400000
743 14811 3003 1 109.50000 418.400000
743 14811 3084 1 109.50000 418.400000
743 14811 3843 1 109.50000 418.400000
3003 14811 3084 1 109.50000 418.400000
3003 14811 3843 1 109.50000 418.400000
3084 14811 3843 1 109.50000 418.400000
810 14812 4132 1 109.50000 418.400000
810 14812 9839 1 109.50000 418.400000
810 14812 9840 1 109.50000 418.400000
4132 14812 9839 1 109.50000 418.400000
4132 14812 9840 1 109.50000 418.400000
9839 14812 9840 1 109.50000 418.400000
5722 14813 9392 1 109.50000 418.400000
5722 14813 9841 1 109.50000 418.400000
5722 14813 9842 1 109.50000 418.400000
9392 14813 9841 1 109.50000 418.400000
9392 14813 9842 1 109.50000 418.400000
9841 14813 9842 1 109.50000 418.400000
1199 14814 1558 1 109.50000 418.400000
1199 14814 2237 1 109.50000 418.400000
1199 14814 6786 1 109.50000 418.400000
1558 14814 2237 1 109.50000 418.400000
1558 14814 6786 1 109.50000 418.400000
2237 14814 6786 1 109.50000 418.400000
2094 14815 7680 1 109.50000 418.400000
2094 14815 9843 1 109.50000 418.400000
2094 14815 9844 1 109.50000 418.400000
7680 14815 9843 1 109.50000 418.400000
7680 14815 9844 1 109.50000 418.400000
9843 14815 9844 1 109.50000 418.400000
1517 14816 6063 1 109.50000 418.400000
1517 14816 7914 1 109.50000 418.400000
1517 14816 8491 1 109.50000 418.400000
6063 14816 7914 1 109.50000 418.400000
6063 14816 8491 1 109.50000 418.400000
7914 14816 8491 1 109.50000 418.400000
6604 14817 9845 1 109.50000 418.400000
6604 14817 9846 1 109.50000 418.400000
6604 14817 9847 1 109.50000 418.400000
9845 14817 9846 1 109.50000 418.400000
9845 14817 9847 1 109.50000 418.400000
9846 14817 9847 1 109.50000 418.400000
3661 14818 3886 1 109.50000 418.400000
3661 14818 7401 1 109.50000 418.400000
3661 14818 9848 1 109.50000 418.400000
3886 14818 7401 1 109.50000 418.400000
3886 14818 9848 1 109.50000 418.400000
7401 14818 9848 1 109.50000 418.400000
2364 14819 7557 1 109.50000 418.400000
2364 14819 9849 1 109.50000 418.400000
2364 14819 9850 1 109.50000 418.400000
7557 14819 9849 1 109.50000 418.400000
7557 14819 9850 1 109.50000 418.400000
9849 14819 9850 1 109.50000 418.400000
3551 14820 6694 1 109.50000 418.400000
3551 14820 8092 1 109.50000 418.400000
3551 14820 9851 1 109.50000 418.400000
6694 14820 8092 1 109.50000 418.400000
6694 14820 9851 1 109.50000 418.400000
8092 14820 9851 1 109.50000 418.400000
4776 14821 9852 1 109.50000 418.400000
4776 14821 9853 1 109.50000 418.400000
4776 14821 11326 1 109.50000 418.400000
9852 14821 9853 1 109.50000 418.400000
9852 14821 11326 1 109.50000 418.400000
9853 14821 11326 1 109.50000 418.400000
149 14822 2549 1 109.50000 418.400000
149 14822 9854 1 109.50000 418.400000
149 14822 10266 1 109.50000 418.400000
2549 14822 9854 1 109.50000 418.400000
2549 14822 10266 1 109.50000 418.400000
9854 14822 10266 1 109.50000 418.400000
3145 14823 3949 1 109.50000 418.400000
3145 14823 6087 1 109.50000 418.400000
3145 14823 8795 1 109.50000 418.400000
3949 14823 6087 1 109.50000 418.400000
3949 14823 8795 1 109.50000 418.400000
6087 14823 8795 1 109.50000 418.400000
3120 14824 6498 1 109.50000 418.400000
3120 14824 9855 1 109.50000 418.400000
3120 14824 9856 1 109.50000 418.400000
6498 14824 9855 1 109.50000 418.400000
6498 14824 9856 1 109.50000 418.400000
9855 14824 9856 1 109.50000 418.400000
1282 14825 6058 1 109.50000 418.400000
1282 14825 7358 1 109.50000 418.400000
1282 14825 9857 1 109.50000 418.400000
6058 14825 7358 1 109.50000 418.400000
6058 14825 9857 1 109.50000 418.400000
7358 14825 9857 1 109.50000 418.400000
2741 14826 5321 1 109.50000 418.400000
2741 14826 9858 1 109.50000 418.400000
2741 14826 9859 1 109.50000 418.400000
5321 14826 9858 1 109.50000 418.400000
5321 14826 9859 1 109.50000 418.400000
9858 14826 9859 1 109.50000 418.400000
4934 14827 7230 1 109.50000 418.400000
4934 14827 9860 1 109.50000 418.400000
4934 14827 9861 1 109.50000 418.400000
7230 14827 9860 1 109.50000 418.400000
7230 14827 9861 1 109.50000 418.400000
9860 14827 9861 1 109.50000 418.400000
3096 14828 7236 1 109.50000 418.400000
3096 14828 9862 1 109.50000 418.400000
3096 14828 9863 1 109.50000 418.400000
7236 14828 9862 1 109.50000 418.400000
7236 14828 9863 1 109.50000 418.400000
9862 14828 9863 1 109.50000 418.400000
1065 14829 6914 1 109.50000 418.400000
1065 14829 8062 1 109.50000 418.400000
1065 14829 9864 1 109.50000 418.400000
6914 14829 8062 1 109.50000 418.400000
6914 14829 9864 1 109.50000 418.400000
8062 14829 9864 1 109.50000 418.400000
4805 14830 4860 1 109.50000 418.400000
4805 14830 9865 1 109.50000 418.400000
4805 14830 9866 1 109.50000 418.400000
4860 14830 9865 1 109.50000 418.400000
4860 14830 9866 1 109.50000 418.400000
9865 14830 9866 1 109.50000 418.400000
8790 14831 9867 1 109.50000 418.400000
8790 14831 9868 1 109.50000 418.400000
8790 14831 9869 1 109.50000 418.400000
9867 14831 9868 1 109.50000 418.400000
9867 14831 9869 1 109.50000 418.400000
9868 14831 9869 1 109.50000 418.400000
5690 14832 7678 1 109.50000 418.400000
5690 14832 9350 1 109.50000 418.400000
5690 14832 9870 1 109.50000 418.400000
7678 14832 9350 1 109.50000 418.400000
7678 14832 9870 1 109.50000 418.400000
9350 14832 9870 1 109.50000 418.400000
4343 14833 8848 1 109.50000 418.400000
4343 14833 9871 1 109.50000 418.400000
4343 14833 9872 1 109.50000 418.400000
8848 14833 9871 1 109.50000 418.400000
8848 14833 9872 1 109.50000 418.400000
9871 14833 9872 1 109.50000 418.400000
8158 14834 9393 1 109.50000 418.400000
8158 14834 9873 1 109.50000 418.400000
8158 14834 9874 1 109.50000 418.400000
9393 14834 9873 1 109.50000 418.400000
9393 14834 9874 1 109.50000 418.400000
9873 14834 9874 1 109.50000 418.400000
4247 14835 6434 1 109.50000 418.400000
4247 14835 9875 1 109.50000 418.400000
4247 14835 9876 1 109.50000 418.400000
6434 14835 9875 1 109.50000 418.400000
6434 14835 9876 1 109.50000 418.400000
9875 14835 9876 1 109.50000 418.400000
3502 14836 9811 1 109.50000 418.400000
3502 14836 9877 1 109.50000 418.400000
3502 14836 9878 1 109.50000 418.400000
9811 14836 9877 1 109.50000 418.400000
9811 14836 9878 1 109.50000 418.400000
9877 14836 9878 1 109.50000 418.400000
1516 14837 7361 1 109.50000 418.400000
1516 14837 7996 1 109.50000 418.400000
1516 14837 9879 1 109.50000 418.400000
7361 14837 7996 1 109.50000 418.400000
7361 14837 9879 1 109.50000 418.400000
7996 14837 9879 1 109.50000 418.400000
3677 14838 6601 1 109.50000 418.400000
3677 14838 6868 1 109.50000 418.400000
3677 14838 11336 1 109.50000 418.400000
6601 14838 6868 1 109.50000 418.400000
6601 14838 11336 1 109.50000 418.400000
6868 14838 11336 1 109.50000 418.400000
6798 14839 9178 1 109.50000 418.400000
6798 14839 9880 1 109.50000 418.400000
6798 14839 9881 1 109.50000 418.400000
9178 14839 9880 1 109.50000 418.400000
9178 14839 9881 1 109.50000 418.400000
9880 14839 9881 1 109.50000 418.400000
7489 14840 8816 1 109.50000 418.400000
7489 14840 9882 1 109.50000 418.400000
7489 14840 9883 1 109.50000 418.400000
8816 14840 9882 1 109.50000 418.400000
8816 14840 9883 1 109.50000 418.400000
9882 14840 9883 1 109.50000 418.400000
860 14841 6970 1 109.50000 418.400000
860 14841 9787 1 109.50000 418.400000
860 14841 9884 1 109.50000 418.400000
6970 14841 9787 1 109.50000 418.400000
6970 14841 9884 1 109.50000 418.400000
9787 14841 9884 1 109.50000 418.400000
1580 14842 6588 1 109.50000 418.400000
1580 14842 6589 1 109.50000 418.400000
1580 14842 9769 1 109.50000 418.400000
6588 14842 6589 1 109.50000 418.400000
6588 14842 9769 1 109.50000 418.400000
6589 14842 9769 1 109.50000 418.400000
2007 14843 2403 1 109.50000 418.400000
2007 14843 2656 1 109.50000 418.400000
2007 14843 7299 1 109.50000 418.400000
2403 14843 2656 1 109.50000 418.400000
2403 14843 7299 1 109.50000 418.400000
2656 14843 7299 1 109.50000 418.400000
1202 14844 2804 1 109.50000 418.400000
1202 14844 4115 1 109.50000 418.400000
1202 14844 9885 1 109.50000 418.400000
2804 14844 4115 1 109.50000 418.400000
2804 14844 9885 1 109.50000 418.400000
4115 14844 9885 1 109.50000 418.400000
517 14845 9217 1 109.50000 418.400000
517 14845 9218 1 109.50000 418.400000
517 14845 9465 1 109.50000 418.400000
9217 14845 9218 1 109.50000 418.400000
9217 14845 9465 1 109.50000 418.400000
9218 14845 9465 1 109.50000 418.400000
4415 14846 4832 1 109.50000 418.400000
4415 14846 4913 1 109.50000 418.400000
4415 14846 7050 1 109.50000 418.400000
4832 14846 4913 1 109.50000 418.400000
4832 14846 7050 1 109.50000 418.400000
4913 14846 7050 1 109.50000 418.400000
50 14847 4728 1 109.50000 418.400000
50 14847 9676 1 109.50000 418.400000
50 14847 9886 1 109.50000 418.400000
4728 14847 9676 1 109.50000 418.400000
4728 14847 9886 1 109.50000 418.400000
9676 14847 9886 1 109.50000 418.400000
1735 14848 2010 1 109.50000 418.400000
1735 14848 2080 1 109.50000 418.400000
1735 14848 5941 1 109.50000 418.400000
2010 14848 2080 1 109.50000 418.400000
2010 14848 5941 1 109.50000 418.400000
2080 14848 5941 1 109.50000 418.400000
1233 14849 9069 1 109.50000 418.400000
1233 14849 9888 1 109.50000 418.400000
1233 14849 9889 1 109.50000 418.400000
9069 14849 9888 1 109.50000 418.400000
9069 14849 9889 1 109.50000 418.400000
9888 14849 9889 1 109.50000 418.400000
2290 14850 9890 1 109.50000 418.400000
2290 14850 9891 1 109.50000 418.400000
2290 14850 9892 1 109.50000 418.400000
9890 14850 9891 1 109.50000 418.400000
9890 14850 9892 1 109.50000 418.400000
9891 14850 9892 1 109.50000 418.400000
820 14851 2374 1 109.50000 418.400000
820 14851 9893 1 109.50000 418.400000
820 14851 9894 1 109.50000 418.400000
2374 14851 9893 1 109.50000 418.400000
2374 14851 9894 1 109.50000 418.400000
9893 14851 9894 1 109.50000 418.400000
6025 14852 8551 1 109.50000 418.400000
6025 14852 8944 1 109.50000 418.400000
6025 14852 9895 1 109.50000 418.400000
8551 14852 8944 1 109.50000 418.400000
8551 14852 9895 1 109.50000 418.400000
8944 14852 9895 1 109.50000 418.400000
6618 14853 6956 1 109.50000 418.400000
6618 14853 7775 1 109.50000 418.400000
6618 14853 9896 1 109.50000 418.400000
6956 14853 7775 1 109.50000 418.400000
6956 14853 9896 1 109.50000 418.400000
7775 14853 9896 1 109.50000 418.400000
2376 14854 5223 1 109.50000 418.400000
2376 14854 9897 1 109.50000 418.400000
2376 14854 9898 1 109.50000 418.400000
5223 14854 9897 1 109.50000 418.400000
5223 14854 9898 1 109.50000 418.400000
9897 14854 9898 1 109.50000 418.400000
6077 14855 6451 1 109.50000 418.400000
6077 14855 8315 1 109.50000 418.400000
6077 14855 9899 1 109.50000 418.400000
6451 14855 8315 1 109.50000 418.400000
6451 14855 9899 1 109.50000 418.400000
8315 14855 9899 1 109.50000 418.400000
1290 14856 1397 1 109.50000 418.400000
1290 14856 6842 1 109.50000 418.400000
1290 14856 9669 1 109.50000 418.400000
1397 14856 6842 1 109.50000 418.400000
1397 14856 9669 1 109.50000 418.400000
6842 14856 9669 1 109.50000 418.400000
9491 14857 9900 1 109.50000 418.400000
9491 14857 9901 1 109.50000 418.400000
9491 14857 9902 1 109.50000 418.400000
9900 14857 9901 1 109.50000 418.400000
9900 14857 9902 1 109.50000 418.400000
9901 14857 9902 1 109.50000 418.400000
9903 14858 9904 1 109.50000 418.400000
9903 14858 9905 1 109.50000 418.400000
9903 14858 11344 1 109.50000 418.400000
9904 14858 9905 1 109.50000 418.400000
9904 14858 11344 1 109.50000 418.400000
9905 14858 11344 1 109.50000 418.400000
6400 14859 9485 1 109.50000 418.400000
6400 14859 9906 1 109.50000 418.400000
6400 14859 9907 1 109.50000 418.400000
9485 14859 9906 1 109.50000 418.400000
9485 14859 9907 1 109.50000 418.400000
9906 14859 9907 1 109.50000 418.400000
6501 14860 7524 1 109.50000 418.400000
6501 14860 9908 1 109.50000 418.400000
6501 14860 9909 1 109.50000 418.400000
7524 14860 9908 1 109.50000 418.400000
7524 14860 9909 1 109.50000 418.400000
9908 14860 9909 1 109.50000 418.400000
2499 14861 4539 1 109.50000 418.400000
2499 14861 8362 1 109.50000 418.400000
2499 14861 11281 1 109.50000 418.400000
4539 14861 8362 1 109.50000 418.400000
4539 14861 11281 1 109.50000 418.400000
8362 14861 11281 1 109.50000 418.400000
2131 14862 2740 1 109.50000 418.400000
2131 14862 5771 1 109.50000 418.400000
2131 14862 9911 1 109.50000 418.400000
2740 14862 5771 1 109.50000 418.400000
2740 14862 9911 1 109.50000 418.400000
5771 14862 9911 1 109.50000 418.400000
4405 14863 6207 1 109.50000 418.400000
4405 14863 8102 1 109.50000 418.400000
4405 14863 9912 1 109.50000 418.400000
6207 14863 8102 1 109.50000 418.400000
6207 14863 9912 1 109.50000 418.400000
8102 14863 9912 1 109.50000 418.400000
283 14864 9119 1 109.50000 418.400000
283 14864 9307 1 109.50000 418.400000
283 14864 9913 1 109.50000 418.400000
9119 14864 9307 1 109.50000 418.400000
9119 14864 9913 1 109.50000 418.400000
9307 14864 9913 1 109.50000 418.400000
1159 14865 7939 1 109.50000 418.400000
1159 14865 8543 1 109.50000 418.400000
1159 14865 9419 1 109.50000 418.400000
7939 14865 8543 1 109.50000 418.400000
7939 14865 9419 1 109.50000 418.400000
8543 14865 9419 1 109.50000 418.400000
244 14866 7626 1 109.50000 418.400000
244 14866 8793 1 109.50000 418.400000
244 14866 9192 1 109.50000 418.400000
7626 14866 8793 1 109.50000 418.400000
7626 14866 9192 1 109.50000 418.400000
8793 14866 9192 1 109.50000 418.400000
3882 14867 4474 1 109.50000 418.400000
3882 14867 9914 1 109.50000 418.400000
3882 14867 9915 1 109.50000 418.400000
4474 14867 9914 1 109.50000 418.400000
4474 14867 9915 1 109.50000 418.400000
9914 14867 9915 1 109.50000 418.400000
3508 14868 7768 1 109.50000 418.400000
3508 14868 8733 1 109.50000 418.400000
3508 14868 9916 1 109.50000 418.400000
7768 14868 8733 1 109.50000 418.400000
7768 14868 9916 1 109.50000 418.400000
8733 14868 9916 1 109.50000 418.400000
3906 14869 6845 1 109.50000 418.400000
3906 14869 9917 1 109.50000 418.400000
3906 14869 9918 1 109.50000 418.400000
6845 14869 9917 1 109.50000 418.400000
6845 14869 9918 1 109.50000 418.400000
9917 14869 9918 1 109.50000 418.400000
6841 14870 7138 1 109.50000 418.400000
6841 14870 9919 1 109.50000 418.400000
6841 14870 9920 1 109.50000 418.400000
7138 14870 9919 1 109.50000 418.400000
7138 14870 9920 1 109.50000 418.400000
9919 14870 9920 1 109.50000 418.400000
6195 14871 7176 1 109.50000 418.400000
6195 14871 8302 1 109.50000 418.400000
6195 14871 9921 1 109.50000 418.400000
7176 14871 8302 1 109.50000 418.400000
7176 14871 9921 1 109.50000 418.400000
8302 14871 9921 1 109.50000 418.400000
3498 14872 4671 1 109.50000 418.400000
3498 14872 5430 1 109.50000 418.400000
3498 14872 9922 1 109.50000 418.400000
4671 14872 5430 1 109.50000 418.400000
4671 14872 9922 1 109.50000 418.400000
5430 14872 9922 1 109.50000 418.400000
7077 14873 8896 1 109.50000 418.400000
7077 14873 9924 1 109.50000 418.400000
7077 14873 9925 1 109.50000 418.400000
8896 14873 9924 1 109.50000 418.400000
8896 14873 9925 1 109.50000 418.400000
9924 14873 9925 1 109.50000 418.400000
499 14874 9359 1 109.50000 418.400000
499 14874 9360 1 109.50000 418.400000
499 14874 9926 1 109.50000 418.400000
9359 14874 9360 1 109.50000 418.400000
9359 14874 9926 1 109.50000 418.400000
9360 14874 9926 1 109.50000 418.400000
8828 14875 9858 1 109.50000 418.400000
8828 14875 9927 1 109.50000 418.400000
8828 14875 11178 1 109.50000 418.400000
9858 14875 9927 1 109.50000 418.400000
9858 14875 11178 1 109.50000 418.400000
9927 14875 11178 1 109.50000 418.400000
1934 14876 3437 1 109.50000 418.400000
1934 14876 9809 1 109.50000 418.400000
1934 14876 9928 1 109.50000 418.400000
3437 14876 9809 1 109.50000 418.400000
3437 14876 9928 1 109.50000 418.400000
9809 14876 9928 1 109.50000 418.400000
2416 14877 8035 1 109.50000 418.400000
2416 14877 9759 1 109.50000 418.400000
2416 14877 9760 1 109.50000 418.400000
8035 14877 9759 1 109.50000 418.400000
8035 14877 9760 1 109.50000 418.400000
9759 14877 9760 1 109.50000 418.400000
5580 14878 5581 1 109.50000 418.400000
5580 14878 11177 1 109.50000 418.400000
5580 14878 11190 1 109.50000 418.400000
5581 14878 11177 1 109.50000 418.400000
5581 14878 11190 1 109.50000 418.400000
11177 14878 11190 1 109.50000 418.400000
463 14879 6477 1 109.50000 418.400000
463 14879 9142 1 109.50000 418.400000
463 14879 9929 1 109.50000 418.400000
6477 14879 9142 1 109.50000 418.400000
6477 14879 9929 1 109.50000 418.400000
9142 14879 9929 1 109.50000 418.400000
6519 14880 7624 1 109.50000 418.400000
6519 14880 9930 1 109.50000 418.400000
6519 14880 11350 1 109.50000 418.400000
7624 14880 9930 1 109.50000 418.400000
7624 14880 11350 1 109.50000 418.400000
9930 14880 11350 1 109.50000 418.400000
7530 14881 7795 1 109.50000 418.400000
7530 14881 9931 1 109.50000 418.400000
7530 14881 9932 1 109.50000 418.400000
7795 14881 9931 1 109.50000 418.400000
7795 14881 9932 1 109.50000 418.400000
9931 14881 9932 1 109.50000 418.400000
3285 14882 5981 1 109.50000 418.400000
3285 14882 9933 1 109.50000 418.400000
3285 14882 11195 1 109.50000 418.400000
5981 14882 9933 1 109.50000 418.400000
5981 14882 11195 1 109.50000 418.400000
9933 14882 11195 1 109.50000 418.400000
2902 14883 9239 1 109.50000 418.400000
2902 14883 9902 1 109.50000 418.400000
2902 14883 9934 1 109.50000 418.400000
9239 14883 9902 1 109.50000 418.400000
9239 14883 9934 1 109.50000 418.400000
9902 14883 9934 1 109.50000 418.400000
500 14884 3484 1 109.50000 418.400000
500 14884 9082 1 109.50000 418.400000
500 14884 9935 1 109.50000 418.400000
3484 14884 9082 1 109.50000 418.400000
3484 14884 9935 1 109.50000 418.400000
9082 14884 9935 1 109.50000 418.400000
3704 14885 5302 1 109.50000 418.400000
3704 14885 9936 1 109.50000 418.400000
3704 14885 9937 1 109.50000 418.400000
5302 14885 9936 1 109.50000 418.400000
5302 14885 9937 1 109.50000 418.400000
9936 14885 9937 1 109.50000 418.400000
4983 14886 8447 1 109.50000 418.400000
4983 14886 8487 1 109.50000 418.400000
4983 14886 9938 1 109.50000 418.400000
8447 14886 8487 1 109.50000 418.400000
8447 14886 9938 1 109.50000 418.400000
8487 14886 9938 1 109.50000 418.400000
2814 14887 8696 1 109.50000 418.400000
2814 14887 8897 1 109.50000 418.400000
2814 14887 9939 1 109.50000 418.400000
8696 14887 8897 1 109.50000 418.400000
8696 14887 9939 1 109.50000 418.400000
8897 14887 9939 1 109.50000 418.400000
3613 14888 9707 1 109.50000 418.400000
3613 14888 9941 1 109.50000 418.400000
3613 14888 9942 1 109.50000 418.400000
9707 14888 9941 1 109.50000 418.400000
9707 14888 9942 1 109.50000 418.400000
9941 14888 9942 1 109.50000 418.400000
2037 14889 2370 1 109.50000 418.400000
2037 14889 2393 1 109.50000 418.400000
2037 14889 7413 1 109.50000 418.400000
2370 14889 2393 1 109.50000 418.400000
2370 14889 7413 1 109.50000 418.400000
2393 14889 7413 1 109.50000 418.400000
1690 14890 4230 1 109.50000 418.400000
1690 14890 5194 1 109.50000 418.400000
1690 14890 9943 1 109.50000 418.400000
4230 14890 5194 1 109.50000 418.400000
4230 14890 9943 1 109.50000 418.400000
5194 14890 9943 1 109.50000 418.400000
3407 14891 7315 1 109.50000 418.400000
3407 14891 8080 1 109.50000 418.400000
3407 14891 9944 1 109.50000 418.400000
7315 14891 8080 1 109.50000 418.400000
7315 14891 9944 1 109.50000 418.400000
8080 14891 9944 1 109.50000 418.400000
5453 14892 5693 1 109.50000 418.400000
5453 14892 9945 1 109.50000 418.400000
5453 14892 9946 1 109.50000 418.400000
5693 14892 9945 1 109.50000 418.400000
5693 14892 9946 1 109.50000 418.400000
9945 14892 9946 1 109.50000 418.400000
6968 14893 6969 1 109.50000 418.400000
6968 14893 9947 1 109.50000 418.400000
6968 14893 9948 1 109.50000 418.400000
6969 14893 9947 1 109.50000 418.400000
6969 14893 9948 1 109.50000 418.400000
9947 14893 9948 1 109.50000 418.400000
9951 14894 9952 1 109.50000 418.400000
9951 14894 9953 1 109.50000 418.400000
9951 14894 9954 1 109.50000 418.400000
9952 14894 9953 1 109.50000 418.400000
9952 14894 9954 1 109.50000 418.400000
9953 14894 9954 1 109.50000 418.400000
897 14895 1855 1 109.50000 418.400000
897 14895 4030 1 109.50000 418.400000
897 14895 9051 1 109.50000 418.400000
1855 14895 4030 1 109.50000 418.400000
1855 14895 9051 1 109.50000 418.400000
4030 14895 9051 1 109.50000 418.400000
1006 14896 1493 1 109.50000 418.400000
1006 14896 4842 1 109.50000 418.400000
1006 14896 6137 1 109.50000 418.400000
1493 14896 4842 1 109.50000 418.400000
1493 14896 6137 1 109.50000 418.400000
4842 14896 6137 1 109.50000 418.400000
3760 14897 8515 1 109.50000 418.400000
3760 14897 9842 1 109.50000 418.400000
3760 14897 9956 1 109.50000 418.400000
8515 14897 9842 1 109.50000 418.400000
8515 14897 9956 1 109.50000 418.400000
9842 14897 9956 1 109.50000 418.400000
4163 14898 8342 1 109.50000 418.400000
4163 14898 9147 1 109.50000 418.400000
4163 14898 9957 1 109.50000 418.400000
8342 14898 9147 1 109.50000 418.400000
8342 14898 9957 1 109.50000 418.400000
9147 14898 9957 1 109.50000 418.400000
477 14899 1105 1 109.50000 418.400000
477 14899 9320 1 109.50000 418.400000
477 14899 9958 1 109.50000 418.400000
1105 14899 9320 1 109.50000 418.400000
1105 14899 9958 1 109.50000 418.400000
9320 14899 9958 1 109.50000 418.400000
4799 14900 5653 1 109.50000 418.400000
4799 14900 9959 1 109.50000 418.400000
4799 14900 9960 1 109.50000 418.400000
5653 14900 9959 1 109.50000 418.400000
5653 14900 9960 1 109.50000 418.400000
9959 14900 9960 1 109.50000 418.400000
748 14901 7086 1 109.50000 418.400000
748 14901 8798 1 109.50000 418.400000
748 14901 9961 1 109.50000 418.400000
7086 14901 8798 1 109.50000 418.400000
7086 14901 9961 1 109.50000 418.400000
8798 14901 9961 1 109.50000 418.400000
9423 14902 9962 1 109.50000 418.400000
9423 14902 9963 1 109.50000 418.400000
9423 14902 11301 1 109.50000 418.400000
9962 14902 9963 1 109.50000 418.400000
9962 14902 11301 1 109.50000 418.400000
9963 14902 11301 1 109.50000 418.400000
4148 14903 4840 1 109.50000 418.400000
4148 14903 9601 1 109.50000 418.400000
4148 14903 9964 1 109.50000 418.400000
4840 14903 9601 1 109.50000 418.400000
4840 14903 9964 1 109.50000 418.400000
9601 14903 9964 1 109.50000 418.400000
7834 14904 9965 1 109.50000 418.400000
7834 14904 9966 1 109.50000 418.400000
7834 14904 11365 1 109.50000 418.400000
9965 14904 9966 1 109.50000 418.400000
9965 14904 11365 1 109.50000 418.400000
9966 14904 11365 1 109.50000 418.400000
3745 14905 6210 1 109.50000 418.400000
3745 14905 9671 1 109.50000 418.400000
3745 14905 9967 1 109.50000 418.400000
6210 14905 9671 1 109.50000 418.400000
6210 14905 9967 1 109.50000 418.400000
9671 14905 9967 1 109.50000 418.400000
2658 14906 7995 1 109.50000 418.400000
2658 14906 9968 1 109.50000 418.400000
2658 14906 9969 1 109.50000 418.400000
7995 14906 9968 1 109.50000 418.400000
7995 14906 9969 1 109.50000 418.400000
9968 14906 9969 1 109.50000 418.400000
6483 14907 7553 1 109.50000 418.400000
6483 14907 8485 1 109.50000 418.400000
6483 14907 9970 1 109.50000 418.400000
7553 14907 8485 1 109.50000 418.400000
7553 14907 9970 1 109.50000 418.400000
8485 14907 9970 1 109.50000 418.400000
4303 14908 8384 1 109.50000 418.400000
4303 14908 8523 1 109.50000 418.400000
4303 14908 8866 1 109.50000 418.400000
8384 14908 8523 1 109.50000 418.400000
8384 14908 8866 1 109.50000 418.400000
8523 14908 8866 1 109.50000 418.400000
8153 14909 8876 1 109.50000 418.400000
8153 14909 9971 1 109.50000 418.400000
8153 14909 9972 1 109.50000 418.400000
8876 14909 9971 1 109.50000 418.400000
8876 14909 9972 1 109.50000 418.400000
9971 14909 9972 1 109.50000 418.400000
3040 14910 4377 1 109.50000 418.400000
3040 14910 9321 1 109.50000 418.400000
3040 14910 9973 1 109.50000 418.400000
4377 14910 9321 1 109.50000 418.400000
4377 14910 9973 1 109.50000 418.400000
9321 14910 9973 1 109.50000 418.400000
4618 14911 7921 1 109.50000 418.400000
4618 14911 9974 1 109.50000 418.400000
4618 14911 9975 1 109.50000 418.400000
7921 14911 9974 1 109.50000 418.400000
7921 14911 9975 1 109.50000 418.400000
9974 14911 9975 1 109.50000 418.400000
981 14912 982 1 109.50000 418.400000
981 14912 5667 1 109.50000 418.400000
981 14912 9976 1 109.50000 418.400000
982 14912 5667 1 109.50000 418.400000
982 14912 9976 1 109.50000 418.400000
5667 14912 9976 1 109.50000 418.400000
1286 14913 1287 1 109.50000 418.400000
1286 14913 6403 1 109.50000 418.400000
1286 14913 9977 1 109.50000 418.400000
1287 14913 6403 1 109.50000 418.400000
1287 14913 9977 1 109.50000 418.400000
6403 14913 9977 1 109.50000 418.400000
619 14914 4871 1 109.50000 418.400000
619 14914 8980 1 109.50000 418.400000
619 14914 11274 1 109.50000 418.400000
4871 14914 8980 1 109.50000 418.400000
4871 14914 11274 1 109.50000 418.400000
8980 14914 11274 1 109.50000 418.400000
4890 14915 9075 1 109.50000 418.400000
4890 14915 9979 1 109.50000 418.400000
4890 14915 9980 1 109.50000 418.400000
9075 14915 9979 1 109.50000 418.400000
9075 14915 9980 1 109.50000 418.400000
9979 14915 9980 1 109.50000 418.400000
1 14916 2440 1 109.50000 418.400000
1 14916 4345 1 109.50000 418.400000
1 14916 6630 1 109.50000 418.400000
2440 14916 4345 1 109.50000 418.400000
2440 14916 6630 1 109.50000 418.400000
4345 14916 6630 1 109.50000 418.400000
3178 14917 7101 1 109.50000 418.400000
3178 14917 8622 1 109.50000 418.400000
3178 14917 9982 1 109.50000 418.400000
7101 14917 8622 1 109.50000 418.400000
7101 14917 9982 1 109.50000 418.400000
8622 14917 9982 1 109.50000 418.400000
1173 14918 7395 1 109.50000 418.400000
1173 14918 9721 1 109.50000 418.400000
1173 14918 9983 1 109.50000 418.400000
7395 14918 9721 1 109.50000 418.400000
7395 14918 9983 1 109.50000 418.400000
9721 14918 9983 1 109.50000 418.400000
2287 14919 3514 1 109.50000 418.400000
2287 14919 9984 1 109.50000 418.400000
2287 14919 9985 1 109.50000 418.400000
3514 14919 9984 1 109.50000 418.400000
3514 14919 9985 1 109.50000 418.400000
9984 14919 9985 1 109.50000 418.400000
2274 14920 5032 1 109.50000 418.400000
2274 14920 9784 1 109.50000 418.400000
2274 14920 9986 1 109.50000 418.400000
5032 14920 9784 1 109.50000 418.400000
5032 14920 9986 1 109.50000 418.400000
9784 14920 9986 1 109.50000 418.400000
2502 14921 3473 1 109.50000 418.400000
2502 14921 6102 1 109.50000 418.400000
2502 14921 9447 1 109.50000 418.400000
3473 14921 6102 1 109.50000 418.400000
3473 14921 9447 1 109.50000 418.400000
6102 14921 9447 1 109.50000 418.400000
4688 14922 5979 1 109.50000 418.400000
4688 14922 9965 1 109.50000 418.400000
4688 14922 11298 1 109.50000 418.400000
5979 14922 9965 1 109.50000 418.400000
5979 14922 11298 1 109.50000 418.400000
9965 14922 11298 1 109.50000 418.400000
1787 14923 6409 1 109.50000 418.400000
1787 14923 9357 1 109.50000 418.400000
1787 14923 9987 1 109.50000 418.400000
6409 14923 9357 1 109.50000 418.400000
6409 14923 9987 1 109.50000 418.400000
9357 14923 9987 1 109.50000 418.400000
1976 14924 6840 1 109.50000 418.400000
1976 14924 9988 1 109.50000 418.400000
1976 14924 9989 1 109.50000 418.400000
6840 14924 9988 1 109.50000 418.400000
6840 14924 9989 1 109.50000 418.400000
9988 14924 9989 1 109.50000 418.400000
8178 14925 8246 1 109.50000 418.400000
8178 14925 9991 1 109.50000 418.400000
8178 14925 9992 1 109.50000 418.400000
8246 14925 9991 1 109.50000 418.400000
8246 14925 9992 1 109.50000 418.400000
9991 14925 9992 1 109.50000 418.400000
1796 14926 3472 1 109.50000 418.400000
1796 14926 9445 1 109.50000 418.400000
1796 14926 9996 1 109.50000 418.400000
3472 14926 9445 1 109.50000 418.400000
3472 14926 9996 1 109.50000 418.400000
9445 14926 9996 1 109.50000 418.400000
1912 14927 2566 1 109.50000 418.400000
1912 14927 5779 1 109.50000 418.400000
1912 14927 8837 1 109.50000 418.400000
2566 14927 5779 1 109.50000 418.400000
2566 14927 8837 1 109.50000 418.400000
5779 14927 8837 1 109.50000 418.400000
1535 14928 5451 1 109.50000 418.400000
1535 14928 8243 1 109.50000 418.400000
1535 14928 9816 1 109.50000 418.400000
5451 14928 8243 1 109.50000 418.400000
5451 14928 9816 1 109.50000 418.400000
8243 14928 9816 1 109.50000 418.400000
6179 14929 8637 1 109.50000 418.400000
6179 14929 9997 1 109.50000 418.400000
6179 14929 9998 1 109.50000 418.400000
8637 14929 9997 1 109.50000 418.400000
8637 14929 9998 1 109.50000 418.400000
9997 14929 9998 1 109.50000 418.400000
9468 14930 9999 1 109.50000 418.400000
9468 14930 10000 1 109.50000 418.400000
9468 14930 10001 1 109.50000 418.400000
9999 14930 10000 1 109.50000 418.400000
9999 14930 10001 1 109.50000 418.400000
10000 14930 10001 1 109.50000 418.400000
2325 14931 8024 1 109.50000 418.400000
2325 14931 8489 1 109.50000 418.400000
2325 14931 9481 1 109.50000 418.400000
8024 14931 8489 1 109.50000 418.400000
8024 14931 9481 1 109.50000 418.400000
8489 14931 9481 1 109.50000 418.400000
8190 14932 10002 1 109.50000 418.400000
8190 14932 10003 1 109.50000 418.400000
8190 14932 10004 1 109.50000 418.400000
10002 14932 10003 1 109.50000 418.400000
10002 14932 10004 1 109.50000 418.400000
10003 14932 10004 1 109.50000 418.400000
4615 14933 5718 1 109.50000 418.400000
4615 14933 10005 1 109.50000 418.400000
4615 14933 10006 1 109.50000 418.400000
5718 14933 10005 1 109.50000 418.400000
5718 14933 10006 1 109.50000 418.400000
10005 14933 10006 1 109.50000 418.400000
6819 14934 8169 1 109.50000 418.400000
6819 14934 9694 1 109.50000 418.400000
6819 14934 10007 1 109.50000 418.400000
8169 14934 9694 1 109.50000 418.400000
8169 14934 10007 1 109.50000 418.400000
9694 14934 10007 1 109.50000 418.400000
4287 14935 5900 1 109.50000 418.400000
4287 14935 6052 1 109.50000 418.400000
4287 14935 10008 1 109.50000 418.400000
5900 14935 6052 1 109.50000 418.400000
5900 14935 10008 1 109.50000 418.400000
6052 14935 10008 1 109.50000 418.400000
8852 14936 9856 1 109.50000 418.400000
8852 14936 9935 1 109.50000 418.400000
8852 14936 10009 1 109.50000 418.400000
9856 14936 9935 1 109.50000 418.400000
9856 14936 10009 1 109.50000 418.400000
9935 14936 10009 1 109.50000 418.400000
8146 14937 8918 1 109.50000 418.400000
8146 14937 10010 1 109.50000 418.400000
8146 14937 10011 1 109.50000 418.400000
8918 14937 10010 1 109.50000 418.400000
8918 14937 10011 1 109.50000 418.400000
10010 14937 10011 1 109.50000 418.400000
6602 14938 6878 1 109.50000 418.400000
6602 14938 8180 1 109.50000 418.400000
6602 14938 9805 1 109.50000 418.400000
6878 14938 8180 1 109.50000 418.400000
6878 14938 9805 1 109.50000 418.400000
8180 14938 9805 1 109.50000 418.400000
3123 14939 5452 1 109.50000 418.400000
3123 14939 10013 1 109.50000 418.400000
3123 14939 10014 1 109.50000 418.400000
5452 14939 10013 1 109.50000 418.400000
5452 14939 10014 1 109.50000 418.400000
10013 14939 10014 1 109.50000 418.400000
3296 14940 6626 1 109.50000 418.400000
3296 14940 7971 1 109.50000 418.400000
3296 14940 10015 1 109.50000 418.400000
6626 14940 7971 1 109.50000 418.400000
6626 14940 10015 1 109.50000 418.400000
7971 14940 10015 1 109.50000 418.400000
7167 14941 7738 1 109.50000 418.400000
7167 14941 10016 1 109.50000 418.400000
7167 14941 10017 1 109.50000 418.400000
7738 14941 10016 1 109.50000 418.400000
7738 14941 10017 1 109.50000 418.400000
10016 14941 10017 1 109.50000 418.400000
5741 14942 10018 1 109.50000 418.400000
5741 14942 10019 1 109.50000 418.400000
5741 14942 10020 1 109.50000 418.400000
10018 14942 10019 1 109.50000 418.400000
10018 14942 10020 1 109.50000 418.400000
10019 14942 10020 1 109.50000 418.400000
2019 14943 6569 1 109.50000 418.400000
2019 14943 10021 1 109.50000 418.400000
2019 14943 11348 1 109.50000 418.400000
6569 14943 10021 1 109.50000 418.400000
6569 14943 11348 1 109.50000 418.400000
10021 14943 11348 1 109.50000 418.400000
6401 14944 6585 1 109.50000 418.400000
6401 14944 10022 1 109.50000 418.400000
6401 14944 10023 1 109.50000 418.400000
6585 14944 10022 1 109.50000 418.400000
6585 14944 10023 1 109.50000 418.400000
10022 14944 10023 1 109.50000 418.400000
615 14945 6279 1 109.50000 418.400000
615 14945 8788 1 109.50000 418.400000
615 14945 10025 1 109.50000 418.400000
6279 14945 8788 1 109.50000 418.400000
6279 14945 10025 1 109.50000 418.400000
8788 14945 10025 1 109.50000 418.400000
1893 14946 2039 1 109.50000 418.400000
1893 14946 3214 1 109.50000 418.400000
1893 14946 10026 1 109.50000 418.400000
2039 14946 3214 1 109.50000 418.400000
2039 14946 10026 1 109.50000 418.400000
3214 14946 10026 1 109.50000 418.400000
5808 14947 7578 1 109.50000 418.400000
5808 14947 10027 1 109.50000 418.400000
5808 14947 10028 1 109.50000 418.400000
7578 14947 10027 1 109.50000 418.400000
7578 14947 10028 1 109.50000 418.400000
10027 14947 10028 1 109.50000 418.400000
2386 14948 4401 1 109.50000 418.400000
2386 14948 5228 1 109.50000 418.400000
2386 14948 5996 1 109.50000 418.400000
4401 14948 5228 1 109.50000 418.400000
4401 14948 5996 1 109.50000 418.400000
5228 14948 5996 1 109.50000 418.400000
8143 14949 8873 1 109.50000 418.400000
8143 14949 9415 1 109.50000 418.400000
8143 14949 10029 1 109.50000 418.400000
8873 14949 9415 1 109.50000 418.400000
8873 14949 10029 1 109.50000 418.400000
9415 14949 10029 1 109.50000 418.400000
2201 14950 7109 1 109.50000 418.400000
2201 14950 9822 1 109.50000 418.400000
2201 14950 9963 1 109.50000 418.400000
7109 14950 9822 1 109.50000 418.400000
7109 14950 9963 1 109.50000 418.400000
9822 14950 9963 1 109.50000 418.400000
6746 14951 7114 1 109.50000 418.400000
6746 14951 10030 1 109.50000 418.400000
6746 14951 11227 1 109.50000 418.400000
7114 14951 10030 1 109.50000 418.400000
7114 14951 11227 1 109.50000 418.400000
10030 14951 11227 1 109.50000 418.400000
6948 14952 6949 1 109.50000 418.400000
6948 14952 6950 1 109.50000 418.400000
6948 14952 10031 1 109.50000 418.400000
6949 14952 6950 1 109.50000 418.400000
6949 14952 10031 1 109.50000 418.400000
6950 14952 10031 1 109.50000 418.400000
69 14953 2698 1 109.50000 418.400000
69 14953 2913 1 109.50000 418.400000
69 14953 10033 1 109.50000 418.400000
2698 14953 2913 1 109.50000 418.400000
2698 14953 10033 1 109.50000 418.400000
2913 14953 10033 1 109.50000 418.400000
3204 14954 3278 1 109.50000 418.400000
3204 14954 4174 1 109.50000 418.400000
3204 14954 5240 1 109.50000 418.400000
3278 14954 4174 1 109.50000 418.400000
3278 14954 5240 1 109.50000 418.400000
4174 14954 5240 1 109.50000 418.400000
6415 14955 7232 1 109.50000 418.400000
6415 14955 8657 1 109.50000 418.400000
6415 14955 11240 1 109.50000 418.400000
7232 14955 8657 1 109.50000 418.400000
7232 14955 11240 1 109.50000 418.400000
8657 14955 11240 1 109.50000 418.400000
2998 14956 4855 1 109.50000 418.400000
2998 14956 7012 1 109.50000 418.400000
2998 14956 8909 1 109.50000 418.400000
4855 14956 7012 1 109.50000 418.400000
4855 14956 8909 1 109.50000 418.400000
7012 14956 8909 1 109.50000 418.400000
3975 14957 5425 1 109.50000 418.400000
3975 14957 10037 1 109.50000 418.400000
3975 14957 10038 1 109.50000 418.400000
5425 14957 10037 1 109.50000 418.400000
5425 14957 10038 1 109.50000 418.400000
10037 14957 10038 1 109.50000 418.400000
2720 14958 4867 1 109.50000 418.400000
2720 14958 5347 1 109.50000 418.400000
2720 14958 10039 1 109.50000 418.400000
4867 14958 5347 1 109.50000 418.400000
4867 14958 10039 1 109.50000 418.400000
5347 14958 10039 1 109.50000 418.400000
4284 14959 4285 1 109.50000 418.400000
4284 14959 4946 1 109.50000 418.400000
4284 14959 10040 1 109.50000 418.400000
4285 14959 4946 1 109.50000 418.400000
4285 14959 10040 1 109.50000 418.400000
4946 14959 10040 1 109.50000 418.400000
1283 14960 8195 1 109.50000 418.400000
1283 14960 9115 1 109.50000 418.400000
1283 14960 10041 1 109.50000 418.400000
8195 14960 9115 1 109.50000 418.400000
8195 14960 10041 1 109.50000 418.400000
9115 14960 10041 1 109.50000 418.400000
1865 14961 6926 1 109.50000 418.400000
1865 14961 10042 1 109.50000 418.400000
1865 14961 10043 1 109.50000 418.400000
6926 14961 10042 1 109.50000 418.400000
6926 14961 10043 1 109.50000 418.400000
10042 14961 10043 1 109.50000 418.400000
4301 14962 6319 1 109.50000 418.400000
4301 14962 6690 1 109.50000 418.400000
4301 14962 8004 1 109.50000 418.400000
6319 14962 6690 1 109.50000 418.400000
6319 14962 8004 1 109.50000 418.400000
6690 14962 8004 1 109.50000 418.400000
3019 14963 7810 1 109.50000 418.400000
3019 14963 10044 1 109.50000 418.400000
3019 14963 10045 1 109.50000 418.400000
7810 14963 10044 1 109.50000 418.400000
7810 14963 10045 1 109.50000 418.400000
10044 14963 10045 1 109.50000 418.400000
3939 14964 5894 1 109.50000 418.400000
3939 14964 9430 1 109.50000 418.400000
3939 14964 10048 1 109.50000 418.400000
5894 14964 9430 1 109.50000 418.400000
5894 14964 10048 1 109.50000 418.400000
9430 14964 10048 1 109.50000 418.400000
3385 14965 4053 1 109.50000 418.400000
3385 14965 10049 1 109.50000 418.400000
3385 14965 10050 1 109.50000 418.400000
4053 14965 10049 1 109.50000 418.400000
4053 14965 10050 1 109.50000 418.400000
10049 14965 10050 1 109.50000 418.400000
7546 14966 9792 1 109.50000 418.400000
7546 14966 10051 1 109.50000 418.400000
7546 14966 11345 1 109.50000 418.400000
9792 14966 10051 1 109.50000 418.400000
9792 14966 11345 1 109.50000 418.400000
10051 14966 11345 1 109.50000 418.400000
2337 14967 4276 1 109.50000 418.400000
2337 14967 6112 1 109.50000 418.400000
2337 14967 6113 1 109.50000 418.400000
4276 14967 6112 1 109.50000 418.400000
4276 14967 6113 1 109.50000 418.400000
6112 14967 6113 1 109.50000 418.400000
5849 14968 8494 1 109.50000 418.400000
5849 14968 10053 1 109.50000 418.400000
5849 14968 11249 1 109.50000 418.400000
8494 14968 10053 1 109.50000 418.400000
8494 14968 11249 1 109.50000 418.400000
10053 14968 11249 1 109.50000 418.400000
4263 14969 6565 1 109.50000 418.400000
4263 14969 6672 1 109.50000 418.400000
4263 14969 10054 1 109.50000 418.400000
6565 14969 6672 1 109.50000 418.400000
6565 14969 10054 1 109.50000 418.400000
6672 14969 10054 1 109.50000 418.400000
3170 14970 6055 1 109.50000 418.400000
3170 14970 6881 1 109.50000 418.400000
3170 14970 8802 1 109.50000 418.400000
6055 14970 6881 1 109.50000 418.400000
6055 14970 8802 1 109.50000 418.400000
6881 14970 8802 1 109.50000 418.400000
1504 14971 1638 1 109.50000 418.400000
1504 14971 8437 1 109.50000 418.400000
1504 14971 10056 1 109.50000 418.400000
1638 14971 8437 1 109.50000 418.400000
1638 14971 10056 1 109.50000 418.400000
8437 14971 10056 1 109.50000 418.400000
4020 14972 4409 1 109.50000 418.400000
4020 14972 10057 1 109.50000 418.400000
4020 14972 10058 1 109.50000 418.400000
4409 14972 10057 1 109.50000 418.400000
4409 14972 10058 1 109.50000 418.400000
10057 14972 10058 1 109.50000 418.400000
1010 14973 1011 1 109.50000 418.400000
1010 14973 1676 1 109.50000 418.400000
1010 14973 2796 1 109.50000 418.400000
1011 14973 1676 1 109.50000 418.400000
1011 14973 2796 1 109.50000 418.400000
1676 14973 2796 1 109.50000 418.400000
8782 14974 10059 1 109.50000 418.400000
8782 14974 10060 1 109.50000 418.400000
8782 14974 10061 1 109.50000 418.400000
10059 14974 10060 1 109.50000 418.400000
10059 14974 10061 1 109.50000 418.400000
10060 14974 10061 1 109.50000 418.400000
2421 14975 2591 1 109.50000 418.400000
2421 14975 11145 1 109.50000 418.400000
2421 14975 11216 1 109.50000 418.400000
2591 14975 11145 1 109.50000 418.400000
2591 14975 11216 1 109.50000 418.400000
11145 14975 11216 1 109.50000 418.400000
5179 14976 7237 1 109.50000 418.400000
5179 14976 9717 1 109.50000 418.400000
5179 14976 10672 1 109.50000 418.400000
7237 14976 9717 1 109.50000 418.400000
7237 14976 10672 1 109.50000 418.400000
9717 14976 10672 1 109.50000 418.400000
1536 14977 5811 1 109.50000 418.400000
1536 14977 8144 1 109.50000 418.400000
1536 14977 10064 1 109.50000 418.400000
5811 14977 8144 1 109.50000 418.400000
5811 14977 10064 1 109.50000 418.400000
8144 14977 10064 1 109.50000 418.400000
2301 14978 4835 1 109.50000 418.400000
2301 14978 9152 1 109.50000 418.400000
2301 14978 9942 1 109.50000 418.400000
4835 14978 9152 1 109.50000 418.400000
4835 14978 9942 1 109.50000 418.400000
9152 14978 9942 1 109.50000 418.400000
1508 14979 7149 1 109.50000 418.400000
1508 14979 10065 1 109.50000 418.400000
1508 14979 10066 1 109.50000 418.400000
7149 14979 10065 1 109.50000 418.400000
7149 14979 10066 1 109.50000 418.400000
10065 14979 10066 1 109.50000 418.400000
474 14980 6309 1 109.50000 418.400000
474 14980 7446 1 109.50000 418.400000
474 14980 10067 1 109.50000 418.400000
6309 14980 7446 1 109.50000 418.400000
6309 14980 10067 1 109.50000 418.400000
7446 14980 10067 1 109.50000 418.400000
3598 14981 8396 1 109.50000 418.400000
3598 14981 9398 1 109.50000 418.400000
3598 14981 9836 1 109.50000 418.400000
8396 14981 9398 1 109.50000 418.400000
8396 14981 9836 1 109.50000 418.400000
9398 14981 9836 1 109.50000 418.400000
1595 14982 2249 1 109.50000 418.400000
1595 14982 2471 1 109.50000 418.400000
1595 14982 8813 1 109.50000 418.400000
2249 14982 2471 1 109.50000 418.400000
2249 14982 8813 1 109.50000 418.400000
2471 14982 8813 1 109.50000 418.400000
2073 14983 3853 1 109.50000 418.400000
2073 14983 4594 1 109.50000 418.400000
2073 14983 6870 1 109.50000 418.400000
3853 14983 4594 1 109.50000 418.400000
3853 14983 6870 1 109.50000 418.400000
4594 14983 6870 1 109.50000 418.400000
7120 14984 7986 1 109.50000 418.400000
7120 14984 9956 1 109.50000 418.400000
7120 14984 10070 1 109.50000 418.400000
7986 14984 9956 1 109.50000 418.400000
7986 14984 10070 1 109.50000 418.400000
9956 14984 10070 1 109.50000 418.400000
4522 14985 4643 1 109.50000 418.400000
4522 14985 6362 1 109.50000 418.400000
4522 14985 10071 1 109.50000 418.400000
4643 14985 6362 1 109.50000 418.400000
4643 14985 10071 1 109.50000 418.400000
6362 14985 10071 1 109.50000 418.400000
4241 14986 9371 1 109.50000 418.400000
4241 14986 10072 1 109.50000 418.400000
4241 14986 10073 1 109.50000 418.400000
9371 14986 10072 1 109.50000 418.400000
9371 14986 10073 1 109.50000 418.400000
10072 14986 10073 1 109.50000 418.400000
1788 14987 5761 1 109.50000 418.400000
1788 14987 5764 1 109.50000 418.400000
1788 14987 10074 1 109.50000 418.400000
5761 14987 5764 1 109.50000 418.400000
5761 14987 10074 1 109.50000 418.400000
5764 14987 10074 1 109.50000 418.400000
1461 14988 5164 1 109.50000 418.400000
1461 14988 8299 1 109.50000 418.400000
1461 14988 10076 1 109.50000 418.400000
5164 14988 8299 1 109.50000 418.400000
5164 14988 10076 1 109.50000 418.400000
8299 14988 10076 1 109.50000 418.400000
1156 14989 10077 1 109.50000 418.400000
1156 14989 10078 1 109.50000 418.400000
1156 14989 10079 1 109.50000 418.400000
10077 14989 10078 1 109.50000 418.400000
10077 14989 10079 1 109.50000 418.400000
10078 14989 10079 1 109.50000 418.400000
5852 14990 8814 1 109.50000 418.400000
5852 14990 9591 1 109.50000 418.400000
5852 14990 9725 1 109.50000 418.400000
8814 14990 9591 1 109.50000 418.400000
8814 14990 9725 1 109.50000 418.400000
9591 14990 9725 1 109.50000 418.400000
8978 14991 9264 1 109.50000 418.400000
8978 14991 9449 1 109.50000 418.400000
8978 14991 9843 1 109.50000 418.400000
9264 14991 9449 1 109.50000 418.400000
9264 14991 9843 1 109.50000 418.400000
9449 14991 9843 1 109.50000 418.400000
5044 14992 6514 1 109.50000 418.400000
5044 14992 7184 1 109.50000 418.400000
5044 14992 9374 1 109.50000 418.400000
6514 14992 7184 1 109.50000 418.400000
6514 14992 9374 1 109.50000 418.400000
7184 14992 9374 1 109.50000 418.400000
1935 14993 6624 1 109.50000 418.400000
1935 14993 6850 1 109.50000 418.400000
1935 14993 9641 1 109.50000 418.400000
6624 14993 6850 1 109.50000 418.400000
6624 14993 9641 1 109.50000 418.400000
6850 14993 9641 1 109.50000 418.400000
4886 14994 7515 1 109.50000 418.400000
4886 14994 9631 1 109.50000 418.400000
4886 14994 10087 1 109.50000 418.400000
7515 14994 9631 1 109.50000 418.400000
7515 14994 10087 1 109.50000 418.400000
9631 14994 10087 1 109.50000 418.400000
5017 14995 5489 1 109.50000 418.400000
5017 14995 9255 1 109.50000 418.400000
5017 14995 10088 1 109.50000 418.400000
5489 14995 9255 1 109.50000 418.400000
5489 14995 10088 1 109.50000 418.400000
9255 14995 10088 1 109.50000 418.400000
2151 14996 6376 1 109.50000 418.400000
2151 14996 7672 1 109.50000 418.400000
2151 14996 10089 1 109.50000 418.400000
6376 14996 7672 1 109.50000 418.400000
6376 14996 10089 1 109.50000 418.400000
7672 14996 10089 1 109.50000 418.400000
5294 14997 8251 1 109.50000 418.400000
5294 14997 9884 1 109.50000 418.400000
5294 14997 10090 1 109.50000 418.400000
8251 14997 9884 1 109.50000 418.400000
8251 14997 10090 1 109.50000 418.400000
9884 14997 10090 1 109.50000 418.400000
2898 14998 7769 1 109.50000 418.400000
2898 14998 9464 1 109.50000 418.400000
2898 14998 9674 1 109.50000 418.400000
7769 14998 9464 1 109.50000 418.400000
7769 14998 9674 1 109.50000 418.400000
9464 14998 9674 1 109.50000 418.400000
7781 14999 9496 1 109.50000 418.400000
7781 14999 10091 1 109.50000 418.400000
7781 14999 10092 1 109.50000 418.400000
9496 14999 10091 1 109.50000 418.400000
9496 14999 10092 1 109.50000 418.400000
10091 14999 10092 1 109.50000 418.400000
9355 15000 9874 1 109.50000 418.400000
9355 15000 10093 1 109.50000 418.400000
9355 15000 10094 1 109.50000 418.400000
9874 15000 10093 1 109.50000 418.400000
9874 15000 10094 1 109.50000 418.400000
10093 15000 10094 1 109.50000 418.400000
5274 15001 8241 1 109.50000 418.400000
5274 15001 10095 1 109.50000 418.400000
5274 15001 10096 1 109.50000 418.400000
8241 15001 10095 1 109.50000 418.400000
8241 15001 10096 1 109.50000 418.400000
10095 15001 10096 1 109.50000 418.400000
4331 15002 8194 1 109.50000 418.400000
4331 15002 9864 1 109.50000 418.400000
4331 15002 10097 1 109.50000 418.400000
8194 15002 9864 1 109.50000 418.400000
8194 15002 10097 1 109.50000 418.400000
9864 15002 10097 1 109.50000 418.400000
2555 15003 4693 1 109.50000 418.400000
2555 15003 9229 1 109.50000 418.400000
2555 15003 9563 1 109.50000 418.400000
4693 15003 9229 1 109.50000 418.400000
4693 15003 9563 1 109.50000 418.400000
9229 15003 9563 1 109.50000 418.400000
5087 15004 7556 1 109.50000 418.400000
5087 15004 8177 1 109.50000 418.400000
5087 15004 8937 1 109.50000 418.400000
7556 15004 8177 1 109.50000 418.400000
7556 15004 8937 1 109.50000 418.400000
8177 15004 8937 1 109.50000 418.400000
4506 15005 6256 1 109.50000 418.400000
4506 15005 8279 1 109.50000 418.400000
4506 15005 8339 1 109.50000 418.400000
6256 15005 8279 1 109.50000 418.400000
6256 15005 8339 1 109.50000 418.400000
8279 15005 8339 1 109.50000 418.400000
8076 15006 8637 1 109.50000 418.400000
8076 15006 8638 1 109.50000 418.400000
8076 15006 8639 1 109.50000 418.400000
8637 15006 8638 1 109.50000 418.400000
8637 15006 8639 1 109.50000 418.400000
8638 15006 8639 1 109.50000 418.400000
3615 15007 10098 1 109.50000 418.400000
3615 15007 10099 1 109.50000 418.400000
3615 15007 10100 1 109.50000 418.400000
10098 15007 10099 1 109.50000 418.400000
10098 15007 10100 1 109.50000 418.400000
10099 15007 10100 1 109.50000 418.400000
5529 15008 6018 1 109.50000 418.400000
5529 15008 8936 1 109.50000 418.400000
5529 15008 10101 1 109.50000 418.400000
6018 15008 8936 1 109.50000 418.400000
6018 15008 10101 1 109.50000 418.400000
8936 15008 10101 1 109.50000 418.400000
2955 15009 4387 1 109.50000 418.400000
2955 15009 10102 1 109.50000 418.400000
2955 15009 10103 1 109.50000 418.400000
4387 15009 10102 1 109.50000 418.400000
4387 15009 10103 1 109.50000 418.400000
10102 15009 10103 1 109.50000 418.400000
568 15010 2239 1 109.50000 418.400000
568 15010 7509 1 109.50000 418.400000
568 15010 11277 1 109.50000 418.400000
2239 15010 7509 1 109.50000 418.400000
2239 15010 11277 1 109.50000 418.400000
7509 15010 11277 1 109.50000 418.400000
8928 15011 9424 1 109.50000 418.400000
8928 15011 9823 1 109.50000 418.400000
8928 15011 11301 1 109.50000 418.400000
9424 15011 9823 1 109.50000 418.400000
9424 15011 11301 1 109.50000 418.400000
9823 15011 11301 1 109.50000 418.400000
670 15012 4937 1 109.50000 418.400000
670 15012 4939 1 109.50000 418.400000
670 15012 9314 1 109.50000 418.400000
4937 15012 4939 1 109.50000 418.400000
4937 15012 9314 1 109.50000 418.400000
4939 15012 9314 1 109.50000 418.400000
763 15013 4095 1 109.50000 418.400000
763 15013 9273 1 109.50000 418.400000
763 15013 10106 1 109.50000 418.400000
4095 15013 9273 1 109.50000 418.400000
4095 15013 10106 1 109.50000 418.400000
9273 15013 10106 1 109.50000 418.400000
3163 15014 5783 1 109.50000 418.400000
3163 15014 9071 1 109.50000 418.400000
3163 15014 10107 1 109.50000 418.400000
5783 15014 9071 1 109.50000 418.400000
5783 15014 10107 1 109.50000 418.400000
9071 15014 10107 1 109.50000 418.400000
2264 15015 4328 1 109.50000 418.400000
2264 15015 10108 1 109.50000 418.400000
2264 15015 10109 1 109.50000 418.400000
4328 15015 10108 1 109.50000 418.400000
4328 15015 10109 1 109.50000 418.400000
10108 15015 10109 1 109.50000 418.400000
9097 15016 9564 1 109.50000 418.400000
9097 15016 10110 1 109.50000 418.400000
9097 15016 10111 1 109.50000 418.400000
9564 15016 10110 1 109.50000 418.400000
9564 15016 10111 1 109.50000 418.400000
10110 15016 10111 1 109.50000 418.400000
1383 15017 8673 1 109.50000 418.400000
1383 15017 10112 1 109.50000 418.400000
1383 15017 10113 1 109.50000 418.400000
8673 15017 10112 1 109.50000 418.400000
8673 15017 10113 1 109.50000 418.400000
10112 15017 10113 1 109.50000 418.400000
2775 15018 8475 1 109.50000 418.400000
2775 15018 9067 1 109.50000 418.400000
2775 15018 10114 1 109.50000 418.400000
8475 15018 9067 1 109.50000 418.400000
8475 15018 10114 1 109.50000 418.400000
9067 15018 10114 1 109.50000 418.400000
2939 15019 10000 1 109.50000 418.400000
2939 15019 10115 1 109.50000 418.400000
2939 15019 10116 1 109.50000 418.400000
10000 15019 10115 1 109.50000 418.400000
10000 15019 10116 1 109.50000 418.400000
10115 15019 10116 1 109.50000 418.400000
28 15020 1208 1 109.50000 418.400000
28 15020 10117 1 109.50000 418.400000
28 15020 10118 1 109.50000 418.400000
1208 15020 10117 1 109.50000 418.400000
1208 15020 10118 1 109.50000 418.400000
10117 15020 10118 1 109.50000 418.400000
1367 15021 5744 1 109.50000 418.400000
1367 15021 8355 1 109.50000 418.400000
1367 15021 8558 1 109.50000 418.400000
5744 15021 8355 1 109.50000 418.400000
5744 15021 8558 1 109.50000 418.400000
8355 15021 8558 1 109.50000 418.400000
1441 15022 4269 1 109.50000 418.400000
1441 15022 9981 1 109.50000 418.400000
1441 15022 10120 1 109.50000 418.400000
4269 15022 9981 1 109.50000 418.400000
4269 15022 10120 1 109.50000 418.400000
9981 15022 10120 1 109.50000 418.400000
3507 15023 7330 1 109.50000 418.400000
3507 15023 8286 1 109.50000 418.400000
3507 15023 9267 1 109.50000 418.400000
7330 15023 8286 1 109.50000 418.400000
7330 15023 9267 1 109.50000 418.400000
8286 15023 9267 1 109.50000 418.400000
2700 15024 4994 1 109.50000 418.400000
2700 15024 10121 1 109.50000 418.400000
2700 15024 11320 1 109.50000 418.400000
4994 15024 10121 1 109.50000 418.400000
4994 15024 11320 1 109.50000 418.400000
10121 15024 11320 1 109.50000 418.400000
2801 15025 4187 1 109.50000 418.400000
2801 15025 9736 1 109.50000 418.400000
2801 15025 10122 1 109.50000 418.400000
4187 15025 9736 1 109.50000 418.400000
4187 15025 10122 1 109.50000 418.400000
9736 15025 10122 1 109.50000 418.400000
3822 15026 5243 1 109.50000 418.400000
3822 15026 9343 1 109.50000 418.400000
3822 15026 10123 1 109.50000 418.400000
5243 15026 9343 1 109.50000 418.400000
5243 15026 10123 1 109.50000 418.400000
9343 15026 10123 1 109.50000 418.400000
148 15027 150 1 109.50000 418.400000
148 15027 1489 1 109.50000 418.400000
148 15027 7074 1 109.50000 418.400000
150 15027 1489 1 109.50000 418.400000
150 15027 7074 1 109.50000 418.400000
1489 15027 7074 1 109.50000 418.400000
8055 15028 10010 1 109.50000 418.400000
8055 15028 10125 1 109.50000 418.400000
8055 15028 10126 1 109.50000 418.400000
10010 15028 10125 1 109.50000 418.400000
10010 15028 10126 1 109.50000 418.400000
10125 15028 10126 1 109.50000 418.400000
3512 15029 4572 1 109.50000 418.400000
3512 15029 8833 1 109.50000 418.400000
3512 15029 10127 1 109.50000 418.400000
4572 15029 8833 1 109.50000 418.400000
4572 15029 10127 1 109.50000 418.400000
8833 15029 10127 1 109.50000 418.400000
2774 15030 4824 1 109.50000 418.400000
2774 15030 8269 1 109.50000 418.400000
2774 15030 10128 1 109.50000 418.400000
4824 15030 8269 1 109.50000 418.400000
4824 15030 10128 1 109.50000 418.400000
8269 15030 10128 1 109.50000 418.400000
6682 15031 7617 1 109.50000 418.400000
6682 15031 8455 1 109.50000 418.400000
6682 15031 9870 1 109.50000 418.400000
7617 15031 8455 1 109.50000 418.400000
7617 15031 9870 1 109.50000 418.400000
8455 15031 9870 1 109.50000 418.400000
1072 15032 8724 1 109.50000 418.400000
1072 15032 10129 1 109.50000 418.400000
1072 15032 10130 1 109.50000 418.400000
8724 15032 10129 1 109.50000 418.400000
8724 15032 10130 1 109.50000 418.400000
10129 15032 10130 1 109.50000 418.400000
3659 15033 3663 1 109.50000 418.400000
3659 15033 9347 1 109.50000 418.400000
3659 15033 10131 1 109.50000 418.400000
3663 15033 9347 1 109.50000 418.400000
3663 15033 10131 1 109.50000 418.400000
9347 15033 10131 1 109.50000 418.400000
10132 15034 10133 1 109.50000 418.400000
10132 15034 10134 1 109.50000 418.400000
10132 15034 10135 1 109.50000 418.400000
10133 15034 10134 1 109.50000 418.400000
10133 15034 10135 1 109.50000 418.400000
10134 15034 10135 1 109.50000 418.400000
7808 15035 8759 1 109.50000 418.400000
7808 15035 9331 1 109.50000 418.400000
7808 15035 10136 1 109.50000 418.400000
8759 15035 9331 1 109.50000 418.400000
8759 15035 10136 1 109.50000 418.400000
9331 15035 10136 1 109.50000 418.400000
1402 15036 4903 1 109.50000 418.400000
1402 15036 10110 1 109.50000 418.400000
1402 15036 10137 1 109.50000 418.400000
4903 15036 10110 1 109.50000 418.400000
4903 15036 10137 1 109.50000 418.400000
10110 15036 10137 1 109.50000 418.400000
2038 15037 6699 1 109.50000 418.400000
2038 15037 10118 1 109.50000 418.400000
2038 15037 10138 1 109.50000 418.400000
6699 15037 10118 1 109.50000 418.400000
6699 15037 10138 1 109.50000 418.400000
10118 15037 10138 1 109.50000 418.400000
2987 15038 7606 1 109.50000 418.400000
2987 15038 7673 1 109.50000 418.400000
2987 15038 10114 1 109.50000 418.400000
7606 15038 7673 1 109.50000 418.400000
7606 15038 10114 1 109.50000 418.400000
7673 15038 10114 1 109.50000 418.400000
1478 15039 1918 1 109.50000 418.400000
1478 15039 7912 1 109.50000 418.400000
1478 15039 10139 1 109.50000 418.400000
1918 15039 7912 1 109.50000 418.400000
1918 15039 10139 1 109.50000 418.400000
7912 15039 10139 1 109.50000 418.400000
4151 15040 5884 1 109.50000 418.400000
4151 15040 8645 1 109.50000 418.400000
4151 15040 10021 1 109.50000 418.400000
5884 15040 8645 1 109.50000 418.400000
5884 15040 10021 1 109.50000 418.400000
8645 15040 10021 1 109.50000 418.400000
672 15041 6966 1 109.50000 418.400000
672 15041 7069 1 109.50000 418.400000
672 15041 10094 1 109.50000 418.400000
6966 15041 7069 1 109.50000 418.400000
6966 15041 10094 1 109.50000 418.400000
7069 15041 10094 1 109.50000 418.400000
2938 15042 7391 1 109.50000 418.400000
2938 15042 8983 1 109.50000 418.400000
2938 15042 10142 1 109.50000 418.400000
7391 15042 8983 1 109.50000 418.400000
7391 15042 10142 1 109.50000 418.400000
8983 15042 10142 1 109.50000 418.400000
3643 15043 10145 1 109.50000 418.400000
3643 15043 10146 1 109.50000 418.400000
3643 15043 10147 1 109.50000 418.400000
10145 15043 10146 1 109.50000 418.400000
10145 15043 10147 1 109.50000 418.400000
10146 15043 10147 1 109.50000 418.400000
4966 15044 6647 1 109.50000 418.400000
4966 15044 9544 1 109.50000 418.400000
4966 15044 9592 1 109.50000 418.400000
6647 15044 9544 1 109.50000 418.400000
6647 15044 9592 1 109.50000 418.400000
9544 15044 9592 1 109.50000 418.400000
4796 15045 4803 1 109.50000 418.400000
4796 15045 8838 1 109.50000 418.400000
4796 15045 10151 1 109.50000 418.400000
4803 15045 8838 1 109.50000 418.400000
4803 15045 10151 1 109.50000 418.400000
8838 15045 10151 1 109.50000 418.400000
3241 15046 5109 1 109.50000 418.400000
3241 15046 6990 1 109.50000 418.400000
3241 15046 10152 1 109.50000 418.400000
5109 15046 6990 1 109.50000 418.400000
5109 15046 10152 1 109.50000 418.400000
6990 15046 10152 1 109.50000 418.400000
4714 15047 5147 1 109.50000 418.400000
4714 15047 8135 1 109.50000 418.400000
4714 15047 9758 1 109.50000 418.400000
5147 15047 8135 1 109.50000 418.400000
5147 15047 9758 1 109.50000 418.400000
8135 15047 9758 1 109.50000 418.400000
7730 15048 8908 1 109.50000 418.400000
7730 15048 10153 1 109.50000 418.400000
7730 15048 10154 1 109.50000 418.400000
8908 15048 10153 1 109.50000 418.400000
8908 15048 10154 1 109.50000 418.400000
10153 15048 10154 1 109.50000 418.400000
6892 15049 8331 1 109.50000 418.400000
6892 15049 11157 1 109.50000 418.400000
6892 15049 11361 1 109.50000 418.400000
8331 15049 11157 1 109.50000 418.400000
8331 15049 11361 1 109.50000 418.400000
11157 15049 11361 1 109.50000 418.400000
1749 15050 5021 1 109.50000 418.400000
1749 15050 6740 1 109.50000 418.400000
1749 15050 10155 1 109.50000 418.400000
5021 15050 6740 1 109.50000 418.400000
5021 15050 10155 1 109.50000 418.400000
6740 15050 10155 1 109.50000 418.400000
6730 15051 7205 1 109.50000 418.400000
6730 15051 8646 1 109.50000 418.400000
6730 15051 10157 1 109.50000 418.400000
7205 15051 8646 1 109.50000 418.400000
7205 15051 10157 1 109.50000 418.400000
8646 15051 10157 1 109.50000 418.400000
202 15052 204 1 109.50000 418.400000
202 15052 9061 1 109.50000 418.400000
202 15052 10158 1 109.50000 418.400000
204 15052 9061 1 109.50000 418.400000
204 15052 10158 1 109.50000 418.400000
9061 15052 10158 1 109.50000 418.400000
1691 15053 7476 1 109.50000 418.400000
1691 15053 7658 1 109.50000 418.400000
1691 15053 10159 1 109.50000 418.400000
7476 15053 7658 1 109.50000 418.400000
7476 15053 10159 1 109.50000 418.400000
7658 15053 10159 1 109.50000 418.400000
3558 15054 6982 1 109.50000 418.400000
3558 15054 9039 1 109.50000 418.400000
3558 15054 10160 1 109.50000 418.400000
6982 15054 9039 1 109.50000 418.400000
6982 15054 10160 1 109.50000 418.400000
9039 15054 10160 1 109.50000 418.400000
1551 15055 6919 1 109.50000 418.400000
1551 15055 7629 1 109.50000 418.400000
1551 15055 9916 1 109.50000 418.400000
6919 15055 7629 1 109.50000 418.400000
6919 15055 9916 1 109.50000 418.400000
7629 15055 9916 1 109.50000 418.400000
1169 15056 8083 1 109.50000 418.400000
1169 15056 10161 1 109.50000 418.400000
1169 15056 10162 1 109.50000 418.400000
8083 15056 10161 1 109.50000 418.400000
8083 15056 10162 1 109.50000 418.400000
10161 15056 10162 1 109.50000 418.400000
1710 15057 4872 1 109.50000 418.400000
1710 15057 10163 1 109.50000 418.400000
1710 15057 10164 1 109.50000 418.400000
4872 15057 10163 1 109.50000 418.400000
4872 15057 10164 1 109.50000 418.400000
10163 15057 10164 1 109.50000 418.400000
2099 15058 10012 1 109.50000 418.400000
2099 15058 10165 1 109.50000 418.400000
2099 15058 11308 1 109.50000 418.400000
10012 15058 10165 1 109.50000 418.400000
10012 15058 11308 1 109.50000 418.400000
10165 15058 11308 1 109.50000 418.400000
2900 15059 4765 1 109.50000 418.400000
2900 15059 7051 1 109.50000 418.400000
2900 15059 9490 1 109.50000 418.400000
4765 15059 7051 1 109.50000 418.400000
4765 15059 9490 1 109.50000 418.400000
7051 15059 9490 1 109.50000 418.400000
1807 15060 4537 1 109.50000 418.400000
1807 15060 8134 1 109.50000 418.400000
1807 15060 10166 1 109.50000 418.400000
4537 15060 8134 1 109.50000 418.400000
4537 15060 10166 1 109.50000 418.400000
8134 15060 10166 1 109.50000 418.400000
3160 15061 6509 1 109.50000 418.400000
3160 15061 8478 1 109.50000 418.400000
3160 15061 10167 1 109.50000 418.400000
6509 15061 8478 1 109.50000 418.400000
6509 15061 10167 1 109.50000 418.400000
8478 15061 10167 1 109.50000 418.400000
4874 15062 7305 1 109.50000 418.400000
4874 15062 10168 1 109.50000 418.400000
4874 15062 10169 1 109.50000 418.400000
7305 15062 10168 1 109.50000 418.400000
7305 15062 10169 1 109.50000 418.400000
10168 15062 10169 1 109.50000 418.400000
8955 15063 9466 1 109.50000 418.400000
8955 15063 9865 1 109.50000 418.400000
8955 15063 10170 1 109.50000 418.400000
9466 15063 9865 1 109.50000 418.400000
9466 15063 10170 1 109.50000 418.400000
9865 15063 10170 1 109.50000 418.400000
2491 15064 2492 1 109.50000 418.400000
2491 15064 10120 1 109.50000 418.400000
2491 15064 10171 1 109.50000 418.400000
2492 15064 10120 1 109.50000 418.400000
2492 15064 10171 1 109.50000 418.400000
10120 15064 10171 1 109.50000 418.400000
6482 15065 7424 1 109.50000 418.400000
6482 15065 10172 1 109.50000 418.400000
6482 15065 10173 1 109.50000 418.400000
7424 15065 10172 1 109.50000 418.400000
7424 15065 10173 1 109.50000 418.400000
10172 15065 10173 1 109.50000 418.400000
2024 15066 2230 1 109.50000 418.400000
2024 15066 9915 1 109.50000 418.400000
2024 15066 10174 1 109.50000 418.400000
2230 15066 9915 1 109.50000 418.400000
2230 15066 10174 1 109.50000 418.400000
9915 15066 10174 1 109.50000 418.400000
8667 15067 10175 1 109.50000 418.400000
8667 15067 10176 1 109.50000 418.400000
8667 15067 10698 1 109.50000 418.400000
10175 15067 10176 1 109.50000 418.400000
10175 15067 10698 1 109.50000 418.400000
10176 15067 10698 1 109.50000 418.400000
8191 15068 9515 1 109.50000 418.400000
8191 15068 10071 1 109.50000 418.400000
8191 15068 10177 1 109.50000 418.400000
9515 15068 10071 1 109.50000 418.400000
9515 15068 10177 1 109.50000 418.400000
10071 15068 10177 1 109.50000 418.400000
2813 15069 10178 1 109.50000 418.400000
2813 15069 10179 1 109.50000 418.400000
2813 15069 10180 1 109.50000 418.400000
10178 15069 10179 1 109.50000 418.400000
10178 15069 10180 1 109.50000 418.400000
10179 15069 10180 1 109.50000 418.400000
2552 15070 6563 1 109.50000 418.400000
2552 15070 8620 1 109.50000 418.400000
2552 15070 9635 1 109.50000 418.400000
6563 15070 8620 1 109.50000 418.400000
6563 15070 9635 1 109.50000 418.400000
8620 15070 9635 1 109.50000 418.400000
10116 15071 10129 1 109.50000 418.400000
10116 15071 10181 1 109.50000 418.400000
10116 15071 10182 1 109.50000 418.400000
10129 15071 10181 1 109.50000 418.400000
10129 15071 10182 1 109.50000 418.400000
10181 15071 10182 1 109.50000 418.400000
8685 15072 9800 1 109.50000 418.400000
8685 15072 10183 1 109.50000 418.400000
8685 15072 10184 1 109.50000 418.400000
9800 15072 10183 1 109.50000 418.400000
9800 15072 10184 1 109.50000 418.400000
10183 15072 10184 1 109.50000 418.400000
689 15073 1731 1 109.50000 418.400000
689 15073 3421 1 109.50000 418.400000
689 15073 10186 1 109.50000 418.400000
1731 15073 3421 1 109.50000 418.400000
1731 15073 10186 1 109.50000 418.400000
3421 15073 10186 1 109.50000 418.400000
2002 15074 4710 1 109.50000 418.400000
2002 15074 10187 1 109.50000 418.400000
2002 15074 10188 1 109.50000 418.400000
4710 15074 10187 1 109.50000 418.400000
4710 15074 10188 1 109.50000 418.400000
10187 15074 10188 1 109.50000 418.400000
175 15075 5843 1 109.50000 418.400000
175 15075 9271 1 109.50000 418.400000
175 15075 11360 1 109.50000 418.400000
5843 15075 9271 1 109.50000 418.400000
5843 15075 11360 1 109.50000 418.400000
9271 15075 11360 1 109.50000 418.400000
9547 15076 9621 1 109.50000 418.400000
9547 15076 10055 1 109.50000 418.400000
9547 15076 10189 1 109.50000 418.400000
9621 15076 10055 1 109.50000 418.400000
9621 15076 10189 1 109.50000 418.400000
10055 15076 10189 1 109.50000 418.400000
8415 15077 8662 1 109.50000 418.400000
8415 15077 10190 1 109.50000 418.400000
8415 15077 10191 1 109.50000 418.400000
8662 15077 10190 1 109.50000 418.400000
8662 15077 10191 1 109.50000 418.400000
10190 15077 10191 1 109.50000 418.400000
2918 15078 5617 1 109.50000 418.400000
2918 15078 10192 1 109.50000 418.400000
2918 15078 10193 1 109.50000 418.400000
5617 15078 10192 1 109.50000 418.400000
5617 15078 10193 1 109.50000 418.400000
10192 15078 10193 1 109.50000 418.400000
5610 15079 9176 1 109.50000 418.400000
5610 15079 10194 1 109.50000 418.400000
5610 15079 11022 1 109.50000 418.400000
9176 15079 10194 1 109.50000 418.400000
9176 15079 11022 1 109.50000 418.400000
10194 15079 11022 1 109.50000 418.400000
2582 15080 6198 1 109.50000 418.400000
2582 15080 10196 1 109.50000 418.400000
2582 15080 10197 1 109.50000 418.400000
6198 15080 10196 1 109.50000 418.400000
6198 15080 10197 1 109.50000 418.400000
10196 15080 10197 1 109.50000 418.400000
5929 15081 7029 1 109.50000 418.400000
5929 15081 9046 1 109.50000 418.400000
5929 15081 10198 1 109.50000 418.400000
7029 15081 9046 1 109.50000 418.400000
7029 15081 10198 1 109.50000 418.400000
9046 15081 10198 1 109.50000 418.400000
564 15082 7340 1 109.50000 418.400000
564 15082 9666 1 109.50000 418.400000
564 15082 10200 1 109.50000 418.400000
7340 15082 9666 1 109.50000 418.400000
7340 15082 10200 1 109.50000 418.400000
9666 15082 10200 1 109.50000 418.400000
8586 15083 9502 1 109.50000 418.400000
8586 15083 10201 1 109.50000 418.400000
8586 15083 10202 1 109.50000 418.400000
9502 15083 10201 1 109.50000 418.400000
9502 15083 10202 1 109.50000 418.400000
10201 15083 10202 1 109.50000 418.400000
324 15084 6293 1 109.50000 418.400000
324 15084 7527 1 109.50000 418.400000
324 15084 10203 1 109.50000 418.400000
6293 15084 7527 1 109.50000 418.400000
6293 15084 10203 1 109.50000 418.400000
7527 15084 10203 1 109.50000 418.400000
829 15085 5508 1 109.50000 418.400000
829 15085 7013 1 109.50000 418.400000
829 15085 10204 1 109.50000 418.400000
5508 15085 7013 1 109.50000 418.400000
5508 15085 10204 1 109.50000 418.400000
7013 15085 10204 1 109.50000 418.400000
3496 15086 5793 1 109.50000 418.400000
3496 15086 9980 1 109.50000 418.400000
3496 15086 10205 1 109.50000 418.400000
5793 15086 9980 1 109.50000 418.400000
5793 15086 10205 1 109.50000 418.400000
9980 15086 10205 1 109.50000 418.400000
1297 15087 1786 1 109.50000 418.400000
1297 15087 8748 1 109.50000 418.400000
1297 15087 8751 1 109.50000 418.400000
1786 15087 8748 1 109.50000 418.400000
1786 15087 8751 1 109.50000 418.400000
8748 15087 8751 1 109.50000 418.400000
4141 15088 10206 1 109.50000 418.400000
4141 15088 10207 1 109.50000 418.400000
4141 15088 10208 1 109.50000 418.400000
10206 15088 10207 1 109.50000 418.400000
10206 15088 10208 1 109.50000 418.400000
10207 15088 10208 1 109.50000 418.400000
2573 15089 7282 1 109.50000 418.400000
2573 15089 10209 1 109.50000 418.400000
2573 15089 10210 1 109.50000 418.400000
7282 15089 10209 1 109.50000 418.400000
7282 15089 10210 1 109.50000 418.400000
10209 15089 10210 1 109.50000 418.400000
3808 15090 6865 1 109.50000 418.400000
3808 15090 10211 1 109.50000 418.400000
3808 15090 10212 1 109.50000 418.400000
6865 15090 10211 1 109.50000 418.400000
6865 15090 10212 1 109.50000 418.400000
10211 15090 10212 1 109.50000 418.400000
5730 15091 6508 1 109.50000 418.400000
5730 15091 10214 1 109.50000 418.400000
5730 15091 10215 1 109.50000 418.400000
6508 15091 10214 1 109.50000 418.400000
6508 15091 10215 1 109.50000 418.400000
10214 15091 10215 1 109.50000 418.400000
7145 15092 8176 1 109.50000 418.400000
7145 15092 8599 1 109.50000 418.400000
7145 15092 10216 1 109.50000 418.400000
8176 15092 8599 1 109.50000 418.400000
8176 15092 10216 1 109.50000 418.400000
8599 15092 10216 1 109.50000 418.400000
4162 15093 8999 1 109.50000 418.400000
4162 15093 9114 1 109.50000 418.400000
4162 15093 10217 1 109.50000 418.400000
8999 15093 9114 1 109.50000 418.400000
8999 15093 10217 1 109.50000 418.400000
9114 15093 10217 1 109.50000 418.400000
9366 15094 9918 1 109.50000 418.400000
9366 15094 10218 1 109.50000 418.400000
9366 15094 10219 1 109.50000 418.400000
9918 15094 10218 1 109.50000 418.400000
9918 15094 10219 1 109.50000 418.400000
10218 15094 10219 1 109.50000 418.400000
7835 15095 10220 1 109.50000 418.400000
7835 15095 10221 1 109.50000 418.400000
7835 15095 10222 1 109.50000 418.400000
10220 15095 10221 1 109.50000 418.400000
10220 15095 10222 1 109.50000 418.400000
10221 15095 10222 1 109.50000 418.400000
2063 15096 2912 1 109.50000 418.400000
2063 15096 4049 1 109.50000 418.400000
2063 15096 10223 1 109.50000 418.400000
2912 15096 4049 1 109.50000 418.400000
2912 15096 10223 1 109.50000 418.400000
4049 15096 10223 1 109.50000 418.400000
337 15097 9438 1 109.50000 418.400000
337 15097 9681 1 109.50000 418.400000
337 15097 10224 1 109.50000 418.400000
9438 15097 9681 1 109.50000 418.400000
9438 15097 10224 1 109.50000 418.400000
9681 15097 10224 1 109.50000 418.400000
6911 15098 10225 1 109.50000 418.400000
6911 15098 10226 1 109.50000 418.400000
6911 15098 10227 1 109.50000 418.400000
10225 15098 10226 1 109.50000 418.400000
10225 15098 10227 1 109.50000 418.400000
10226 15098 10227 1 109.50000 418.400000
2677 15099 4234 1 109.50000 418.400000
2677 15099 7831 1 109.50000 418.400000
2677 15099 10228 1 109.50000 418.400000
4234 15099 7831 1 109.50000 418.400000
4234 15099 10228 1 109.50000 418.400000
7831 15099 10228 1 109.50000 418.400000
6238 15100 10197 1 109.50000 418.400000
6238 15100 10229 1 109.50000 418.400000
6238 15100 11171 1 109.50000 418.400000
10197 15100 10229 1 109.50000 418.400000
10197 15100 11171 1 109.50000 418.400000
10229 15100 11171 1 109.50000 418.400000
6936 15101 8288 1 109.50000 418.400000
6936 15101 9824 1 109.50000 418.400000
6936 15101 10231 1 109.50000 418.400000
8288 15101 9824 1 109.50000 418.400000
8288 15101 10231 1 109.50000 418.400000
9824 15101 10231 1 109.50000 418.400000
5588 15102 9684 1 109.50000 418.400000
5588 15102 10232 1 109.50000 418.400000
5588 15102 10233 1 109.50000 418.400000
9684 15102 10232 1 109.50000 418.400000
9684 15102 10233 1 109.50000 418.400000
10232 15102 10233 1 109.50000 418.400000
9535 15103 9571 1 109.50000 418.400000
9535 15103 10234 1 109.50000 418.400000
9535 15103 10235 1 109.50000 418.400000
9571 15103 10234 1 109.50000 418.400000
9571 15103 10235 1 109.50000 418.400000
10234 15103 10235 1 109.50000 418.400000
3807 15104 3965 1 109.50000 418.400000
3807 15104 10236 1 109.50000 418.400000
3807 15104 10237 1 109.50000 418.400000
3965 15104 10236 1 109.50000 418.400000
3965 15104 10237 1 109.50000 418.400000
10236 15104 10237 1 109.50000 418.400000
930 15105 6904 1 109.50000 418.400000
930 15105 7923 1 109.50000 418.400000
930 15105 8626 1 109.50000 418.400000
6904 15105 7923 1 109.50000 418.400000
6904 15105 8626 1 109.50000 418.400000
7923 15105 8626 1 109.50000 418.400000
346 15106 9214 1 109.50000 418.400000
346 15106 10240 1 109.50000 418.400000
346 15106 10241 1 109.50000 418.400000
9214 15106 10240 1 109.50000 418.400000
9214 15106 10241 1 109.50000 418.400000
10240 15106 10241 1 109.50000 418.400000
1560 15107 8325 1 109.50000 418.400000
1560 15107 10242 1 109.50000 418.400000
1560 15107 10243 1 109.50000 418.400000
8325 15107 10242 1 109.50000 418.400000
8325 15107 10243 1 109.50000 418.400000
10242 15107 10243 1 109.50000 418.400000
715 15108 3617 1 109.50000 418.400000
715 15108 4542 1 109.50000 418.400000
715 15108 10244 1 109.50000 418.400000
3617 15108 4542 1 109.50000 418.400000
3617 15108 10244 1 109.50000 418.400000
4542 15108 10244 1 109.50000 418.400000
3307 15109 3830 1 109.50000 418.400000
3307 15109 4574 1 109.50000 418.400000
3307 15109 4914 1 109.50000 418.400000
3830 15109 4574 1 109.50000 418.400000
3830 15109 4914 1 109.50000 418.400000
4574 15109 4914 1 109.50000 418.400000
119 15110 8154 1 109.50000 418.400000
119 15110 8156 1 109.50000 418.400000
119 15110 10245 1 109.50000 418.400000
8154 15110 8156 1 109.50000 418.400000
8154 15110 10245 1 109.50000 418.400000
8156 15110 10245 1 109.50000 418.400000
1243 15111 8926 1 109.50000 418.400000
1243 15111 9925 1 109.50000 418.400000
1243 15111 10246 1 109.50000 418.400000
8926 15111 9925 1 109.50000 418.400000
8926 15111 10246 1 109.50000 418.400000
9925 15111 10246 1 109.50000 418.400000
1409 15112 1410 1 109.50000 418.400000
1409 15112 9559 1 109.50000 418.400000
1409 15112 10247 1 109.50000 418.400000
1410 15112 9559 1 109.50000 418.400000
1410 15112 10247 1 109.50000 418.400000
9559 15112 10247 1 109.50000 418.400000
1131 15113 6727 1 109.50000 418.400000
1131 15113 10248 1 109.50000 418.400000
1131 15113 10249 1 109.50000 418.400000
6727 15113 10248 1 109.50000 418.400000
6727 15113 10249 1 109.50000 418.400000
10248 15113 10249 1 109.50000 418.400000
3466 15114 8070 1 109.50000 418.400000
3466 15114 9893 1 109.50000 418.400000
3466 15114 10250 1 109.50000 418.400000
8070 15114 9893 1 109.50000 418.400000
8070 15114 10250 1 109.50000 418.400000
9893 15114 10250 1 109.50000 418.400000
3660 15115 9848 1 109.50000 418.400000
3660 15115 10251 1 109.50000 418.400000
3660 15115 10252 1 109.50000 418.400000
9848 15115 10251 1 109.50000 418.400000
9848 15115 10252 1 109.50000 418.400000
10251 15115 10252 1 109.50000 418.400000
1704 15116 8189 1 109.50000 418.400000
1704 15116 10253 1 109.50000 418.400000
1704 15116 10254 1 109.50000 418.400000
8189 15116 10253 1 109.50000 418.400000
8189 15116 10254 1 109.50000 418.400000
10253 15116 10254 1 109.50000 418.400000
2020 15117 4352 1 109.50000 418.400000
2020 15117 7594 1 109.50000 418.400000
2020 15117 8898 1 109.50000 418.400000
4352 15117 7594 1 109.50000 418.400000
4352 15117 8898 1 109.50000 418.400000
7594 15117 8898 1 109.50000 418.400000
3044 15118 6281 1 109.50000 418.400000
3044 15118 10112 1 109.50000 418.400000
3044 15118 10255 1 109.50000 418.400000
6281 15118 10112 1 109.50000 418.400000
6281 15118 10255 1 109.50000 418.400000
10112 15118 10255 1 109.50000 418.400000
7152 15119 9463 1 109.50000 418.400000
7152 15119 10256 1 109.50000 418.400000
7152 15119 10257 1 109.50000 418.400000
9463 15119 10256 1 109.50000 418.400000
9463 15119 10257 1 109.50000 418.400000
10256 15119 10257 1 109.50000 418.400000
5499 15120 5731 1 109.50000 418.400000
5499 15120 8074 1 109.50000 418.400000
5499 15120 9498 1 109.50000 418.400000
5731 15120 8074 1 109.50000 418.400000
5731 15120 9498 1 109.50000 418.400000
8074 15120 9498 1 109.50000 418.400000
7110 15121 8881 1 109.50000 418.400000
7110 15121 9712 1 109.50000 418.400000
7110 15121 10258 1 109.50000 418.400000
8881 15121 9712 1 109.50000 418.400000
8881 15121 10258 1 109.50000 418.400000
9712 15121 10258 1 109.50000 418.400000
80 15122 9024 1 109.50000 418.400000
80 15122 9662 1 109.50000 418.400000
80 15122 9698 1 109.50000 418.400000
9024 15122 9662 1 109.50000 418.400000
9024 15122 9698 1 109.50000 418.400000
9662 15122 9698 1 109.50000 418.400000
8717 15123 9477 1 109.50000 418.400000
8717 15123 10260 1 109.50000 418.400000
8717 15123 10261 1 109.50000 418.400000
9477 15123 10260 1 109.50000 418.400000
9477 15123 10261 1 109.50000 418.400000
10260 15123 10261 1 109.50000 418.400000
358 15124 3823 1 109.50000 418.400000
358 15124 9796 1 109.50000 418.400000
358 15124 10262 1 109.50000 418.400000
3823 15124 9796 1 109.50000 418.400000
3823 15124 10262 1 109.50000 418.400000
9796 15124 10262 1 109.50000 418.400000
1463 15125 8906 1 109.50000 418.400000
1463 15125 10263 1 109.50000 418.400000
1463 15125 10264 1 109.50000 418.400000
8906 15125 10263 1 109.50000 418.400000
8906 15125 10264 1 109.50000 418.400000
10263 15125 10264 1 109.50000 418.400000
3055 15126 5891 1 109.50000 418.400000
3055 15126 10266 1 109.50000 418.400000
3055 15126 10267 1 109.50000 418.400000
5891 15126 10266 1 109.50000 418.400000
5891 15126 10267 1 109.50000 418.400000
10266 15126 10267 1 109.50000 418.400000
6246 15127 9967 1 109.50000 418.400000
6246 15127 10268 1 109.50000 418.400000
6246 15127 10269 1 109.50000 418.400000
9967 15127 10268 1 109.50000 418.400000
9967 15127 10269 1 109.50000 418.400000
10268 15127 10269 1 109.50000 418.400000
1467 15128 1709 1 109.50000 418.400000
1467 15128 6817 1 109.50000 418.400000
1467 15128 8200 1 109.50000 418.400000
1709 15128 6817 1 109.50000 418.400000
1709 15128 8200 1 109.50000 418.400000
6817 15128 8200 1 109.50000 418.400000
6927 15129 8877 1 109.50000 418.400000
6927 15129 10270 1 109.50000 418.400000
6927 15129 10271 1 109.50000 418.400000
8877 15129 10270 1 109.50000 418.400000
8877 15129 10271 1 109.50000 418.400000
10270 15129 10271 1 109.50000 418.400000
6436 15130 6949 1 109.50000 418.400000
6436 15130 8390 1 109.50000 418.400000
6436 15130 10273 1 109.50000 418.400000
6949 15130 8390 1 109.50000 418.400000
6949 15130 10273 1 109.50000 418.400000
8390 15130 10273 1 109.50000 418.400000
3875 15131 4255 1 109.50000 418.400000
3875 15131 9754 1 109.50000 418.400000
3875 15131 10088 1 109.50000 418.400000
4255 15131 9754 1 109.50000 418.400000
4255 15131 10088 1 109.50000 418.400000
9754 15131 10088 1 109.50000 418.400000
1549 15132 3715 1 109.50000 418.400000
1549 15132 3791 1 109.50000 418.400000
1549 15132 6576 1 109.50000 418.400000
3715 15132 3791 1 109.50000 418.400000
3715 15132 6576 1 109.50000 418.400000
3791 15132 6576 1 109.50000 418.400000
251 15133 1712 1 109.50000 418.400000
251 15133 9190 1 109.50000 418.400000
251 15133 10274 1 109.50000 418.400000
1712 15133 9190 1 109.50000 418.400000
1712 15133 10274 1 109.50000 418.400000
9190 15133 10274 1 109.50000 418.400000
4958 15134 6285 1 109.50000 418.400000
4958 15134 7888 1 109.50000 418.400000
4958 15134 8655 1 109.50000 418.400000
6285 15134 7888 1 109.50000 418.400000
6285 15134 8655 1 109.50000 418.400000
7888 15134 8655 1 109.50000 418.400000
6653 15135 10054 1 109.50000 418.400000
6653 15135 10277 1 109.50000 418.400000
6653 15135 10278 1 109.50000 418.400000
10054 15135 10277 1 109.50000 418.400000
10054 15135 10278 1 109.50000 418.400000
10277 15135 10278 1 109.50000 418.400000
2031 15136 3568 1 109.50000 418.400000
2031 15136 4118 1 109.50000 418.400000
2031 15136 11287 1 109.50000 418.400000
3568 15136 4118 1 109.50000 418.400000
3568 15136 11287 1 109.50000 418.400000
4118 15136 11287 1 109.50000 418.400000
1102 15137 2535 1 109.50000 418.400000
1102 15137 10279 1 109.50000 418.400000
1102 15137 10280 1 109.50000 418.400000
2535 15137 10279 1 109.50000 418.400000
2535 15137 10280 1 109.50000 418.400000
10279 15137 10280 1 109.50000 418.400000
1049 15138 2909 1 109.50000 418.400000
1049 15138 8727 1 109.50000 418.400000
1049 15138 10281 1 109.50000 418.400000
2909 15138 8727 1 109.50000 418.400000
2909 15138 10281 1 109.50000 418.400000
8727 15138 10281 1 109.50000 418.400000
719 15139 3135 1 109.50000 418.400000
719 15139 7950 1 109.50000 418.400000
719 15139 9287 1 109.50000 418.400000
3135 15139 7950 1 109.50000 418.400000
3135 15139 9287 1 109.50000 418.400000
7950 15139 9287 1 109.50000 418.400000
5259 15140 9570 1 109.50000 418.400000
5259 15140 10282 1 109.50000 418.400000
5259 15140 10283 1 109.50000 418.400000
9570 15140 10282 1 109.50000 418.400000
9570 15140 10283 1 109.50000 418.400000
10282 15140 10283 1 109.50000 418.400000
1390 15141 5963 1 109.50000 418.400000
1390 15141 8359 1 109.50000 418.400000
1390 15141 10284 1 109.50000 418.400000
5963 15141 8359 1 109.50000 418.400000
5963 15141 10284 1 109.50000 418.400000
8359 15141 10284 1 109.50000 418.400000
866 15142 4593 1 109.50000 418.400000
866 15142 4595 1 109.50000 418.400000
866 15142 9636 1 109.50000 418.400000
4593 15142 4595 1 109.50000 418.400000
4593 15142 9636 1 109.50000 418.400000
4595 15142 9636 1 109.50000 418.400000
1949 15143 5038 1 109.50000 418.400000
1949 15143 9289 1 109.50000 418.400000
1949 15143 10286 1 109.50000 418.400000
5038 15143 9289 1 109.50000 418.400000
5038 15143 10286 1 109.50000 418.400000
9289 15143 10286 1 109.50000 418.400000
2030 15144 4334 1 109.50000 418.400000
2030 15144 7507 1 109.50000 418.400000
2030 15144 8763 1 109.50000 418.400000
4334 15144 7507 1 109.50000 418.400000
4334 15144 8763 1 109.50000 418.400000
7507 15144 8763 1 109.50000 418.400000
5420 15145 7443 1 109.50000 418.400000
5420 15145 10040 1 109.50000 418.400000
5420 15145 10287 1 109.50000 418.400000
7443 15145 10040 1 109.50000 418.400000
7443 15145 10287 1 109.50000 418.400000
10040 15145 10287 1 109.50000 418.400000
3768 15146 7604 1 109.50000 418.400000
3768 15146 8591 1 109.50000 418.400000
3768 15146 10288 1 109.50000 418.400000
7604 15146 8591 1 109.50000 418.400000
7604 15146 10288 1 109.50000 418.400000
8591 15146 10288 1 109.50000 418.400000
3209 15147 5863 1 109.50000 418.400000
3209 15147 5864 1 109.50000 418.400000
3209 15147 10289 1 109.50000 418.400000
5863 15147 5864 1 109.50000 418.400000
5863 15147 10289 1 109.50000 418.400000
5864 15147 10289 1 109.50000 418.400000
2209 15148 8349 1 109.50000 418.400000
2209 15148 9035 1 109.50000 418.400000
2209 15148 10291 1 109.50000 418.400000
8349 15148 9035 1 109.50000 418.400000
8349 15148 10291 1 109.50000 418.400000
9035 15148 10291 1 109.50000 418.400000
2143 15149 2532 1 109.50000 418.400000
2143 15149 5785 1 109.50000 418.400000
2143 15149 9220 1 109.50000 418.400000
2532 15149 5785 1 109.50000 418.400000
2532 15149 9220 1 109.50000 418.400000
5785 15149 9220 1 109.50000 418.400000
2154 15150 7960 1 109.50000 418.400000
2154 15150 8776 1 109.50000 418.400000
2154 15150 8872 1 109.50000 418.400000
7960 15150 8776 1 109.50000 418.400000
7960 15150 8872 1 109.50000 418.400000
8776 15150 8872 1 109.50000 418.400000
3700 15151 7585 1 109.50000 418.400000
3700 15151 8649 1 109.50000 418.400000
3700 15151 10292 1 109.50000 418.400000
7585 15151 8649 1 109.50000 418.400000
7585 15151 10292 1 109.50000 418.400000
8649 15151 10292 1 109.50000 418.400000
2341 15152 8037 1 109.50000 418.400000
2341 15152 10293 1 109.50000 418.400000
2341 15152 10294 1 109.50000 418.400000
8037 15152 10293 1 109.50000 418.400000
8037 15152 10294 1 109.50000 418.400000
10293 15152 10294 1 109.50000 418.400000
2347 15153 8615 1 109.50000 418.400000
2347 15153 9514 1 109.50000 418.400000
2347 15153 10295 1 109.50000 418.400000
8615 15153 9514 1 109.50000 418.400000
8615 15153 10295 1 109.50000 418.400000
9514 15153 10295 1 109.50000 418.400000
7365 15154 10048 1 109.50000 418.400000
7365 15154 10296 1 109.50000 418.400000
7365 15154 11353 1 109.50000 418.400000
10048 15154 10296 1 109.50000 418.400000
10048 15154 11353 1 109.50000 418.400000
10296 15154 11353 1 109.50000 418.400000
2199 15155 4753 1 109.50000 418.400000
2199 15155 8741 1 109.50000 418.400000
2199 15155 8863 1 109.50000 418.400000
4753 15155 8741 1 109.50000 418.400000
4753 15155 8863 1 109.50000 418.400000
8741 15155 8863 1 109.50000 418.400000
1634 15156 6000 1 109.50000 418.400000
1634 15156 9904 1 109.50000 418.400000
1634 15156 11345 1 109.50000 418.400000
6000 15156 9904 1 109.50000 418.400000
6000 15156 11345 1 109.50000 418.400000
9904 15156 11345 1 109.50000 418.400000
1354 15157 1356 1 109.50000 418.400000
1354 15157 2415 1 109.50000 418.400000
1354 15157 7725 1 109.50000 418.400000
1356 15157 2415 1 109.50000 418.400000
1356 15157 7725 1 109.50000 418.400000
2415 15157 7725 1 109.50000 418.400000
5914 15158 6218 1 109.50000 418.400000
5914 15158 7267 1 109.50000 418.400000
5914 15158 7633 1 109.50000 418.400000
6218 15158 7267 1 109.50000 418.400000
6218 15158 7633 1 109.50000 418.400000
7267 15158 7633 1 109.50000 418.400000
1132 15159 1226 1 109.50000 418.400000
1132 15159 6586 1 109.50000 418.400000
1132 15159 6587 1 109.50000 418.400000
1226 15159 6586 1 109.50000 418.400000
1226 15159 6587 1 109.50000 418.400000
6586 15159 6587 1 109.50000 418.400000
6094 15160 10137 1 109.50000 418.400000
6094 15160 10297 1 109.50000 418.400000
6094 15160 10298 1 109.50000 418.400000
10137 15160 10297 1 109.50000 418.400000
10137 15160 10298 1 109.50000 418.400000
10297 15160 10298 1 109.50000 418.400000
626 15161 4766 1 109.50000 418.400000
626 15161 7290 1 109.50000 418.400000
626 15161 9579 1 109.50000 418.400000
4766 15161 7290 1 109.50000 418.400000
4766 15161 9579 1 109.50000 418.400000
7290 15161 9579 1 109.50000 418.400000
5119 15162 7969 1 109.50000 418.400000
5119 15162 9336 1 109.50000 418.400000
5119 15162 10299 1 109.50000 418.400000
7969 15162 9336 1 109.50000 418.400000
7969 15162 10299 1 109.50000 418.400000
9336 15162 10299 1 109.50000 418.400000
4487 15163 6405 1 109.50000 418.400000
4487 15163 9910 1 109.50000 418.400000
4487 15163 10031 1 109.50000 418.400000
6405 15163 9910 1 109.50000 418.400000
6405 15163 10031 1 109.50000 418.400000
9910 15163 10031 1 109.50000 418.400000
6015 15164 6582 1 109.50000 418.400000
6015 15164 8088 1 109.50000 418.400000
6015 15164 8547 1 109.50000 418.400000
6582 15164 8088 1 109.50000 418.400000
6582 15164 8547 1 109.50000 418.400000
8088 15164 8547 1 109.50000 418.400000
162 15165 3212 1 109.50000 418.400000
162 15165 6920 1 109.50000 418.400000
162 15165 10176 1 109.50000 418.400000
3212 15165 6920 1 109.50000 418.400000
3212 15165 10176 1 109.50000 418.400000
6920 15165 10176 1 109.50000 418.400000
5913 15166 8604 1 109.50000 418.400000
5913 15166 10300 1 109.50000 418.400000
5913 15166 10301 1 109.50000 418.400000
8604 15166 10300 1 109.50000 418.400000
8604 15166 10301 1 109.50000 418.400000
10300 15166 10301 1 109.50000 418.400000
4659 15167 9086 1 109.50000 418.400000
4659 15167 9554 1 109.50000 418.400000
4659 15167 10303 1 109.50000 418.400000
9086 15167 9554 1 109.50000 418.400000
9086 15167 10303 1 109.50000 418.400000
9554 15167 10303 1 109.50000 418.400000
41 15168 4923 1 109.50000 418.400000
41 15168 8681 1 109.50000 418.400000
41 15168 10304 1 109.50000 418.400000
4923 15168 8681 1 109.50000 418.400000
4923 15168 10304 1 109.50000 418.400000
8681 15168 10304 1 109.50000 418.400000
643 15169 2392 1 109.50000 418.400000
643 15169 8117 1 109.50000 418.400000
643 15169 10305 1 109.50000 418.400000
2392 15169 8117 1 109.50000 418.400000
2392 15169 10305 1 109.50000 418.400000
8117 15169 10305 1 109.50000 418.400000
502 15170 3237 1 109.50000 418.400000
502 15170 8786 1 109.50000 418.400000
502 15170 8853 1 109.50000 418.400000
3237 15170 8786 1 109.50000 418.400000
3237 15170 8853 1 109.50000 418.400000
8786 15170 8853 1 109.50000 418.400000
4456 15171 7007 1 109.50000 418.400000
4456 15171 8049 1 109.50000 418.400000
4456 15171 10308 1 109.50000 418.400000
7007 15171 8049 1 109.50000 418.400000
7007 15171 10308 1 109.50000 418.400000
8049 15171 10308 1 109.50000 418.400000
8513 15172 10133 1 109.50000 418.400000
8513 15172 10309 1 109.50000 418.400000
8513 15172 10310 1 109.50000 418.400000
10133 15172 10309 1 109.50000 418.400000
10133 15172 10310 1 109.50000 418.400000
10309 15172 10310 1 109.50000 418.400000
4426 15173 9201 1 109.50000 418.400000
4426 15173 10311 1 109.50000 418.400000
4426 15173 10312 1 109.50000 418.400000
9201 15173 10311 1 109.50000 418.400000
9201 15173 10312 1 109.50000 418.400000
10311 15173 10312 1 109.50000 418.400000
5622 15174 6792 1 109.50000 418.400000
5622 15174 8409 1 109.50000 418.400000
5622 15174 10313 1 109.50000 418.400000
6792 15174 8409 1 109.50000 418.400000
6792 15174 10313 1 109.50000 418.400000
8409 15174 10313 1 109.50000 418.400000
22 15175 4954 1 109.50000 418.400000
22 15175 10315 1 109.50000 418.400000
22 15175 10316 1 109.50000 418.400000
4954 15175 10315 1 109.50000 418.400000
4954 15175 10316 1 109.50000 418.400000
10315 15175 10316 1 109.50000 418.400000
234 15176 4203 1 109.50000 418.400000
234 15176 9802 1 109.50000 418.400000
234 15176 10317 1 109.50000 418.400000
4203 15176 9802 1 109.50000 418.400000
4203 15176 10317 1 109.50000 418.400000
9802 15176 10317 1 109.50000 418.400000
1430 15177 3138 1 109.50000 418.400000
1430 15177 4186 1 109.50000 418.400000
1430 15177 9830 1 109.50000 418.400000
3138 15177 4186 1 109.50000 418.400000
3138 15177 9830 1 109.50000 418.400000
4186 15177 9830 1 109.50000 418.400000
1515 15178 10318 1 109.50000 418.400000
1515 15178 10319 1 109.50000 418.400000
1515 15178 10320 1 109.50000 418.400000
10318 15178 10319 1 109.50000 418.400000
10318 15178 10320 1 109.50000 418.400000
10319 15178 10320 1 109.50000 418.400000
4536 15179 9757 1 109.50000 418.400000
4536 15179 10321 1 109.50000 418.400000
4536 15179 10322 1 109.50000 418.400000
9757 15179 10321 1 109.50000 418.400000
9757 15179 10322 1 109.50000 418.400000
10321 15179 10322 1 109.50000 418.400000
4623 15180 5297 1 109.50000 418.400000
4623 15180 8375 1 109.50000 418.400000
4623 15180 11154 1 109.50000 418.400000
5297 15180 8375 1 109.50000 418.400000
5297 15180 11154 1 109.50000 418.400000
8375 15180 11154 1 109.50000 418.400000
1947 15181 9476 1 109.50000 418.400000
1947 15181 10281 1 109.50000 418.400000
1947 15181 10323 1 109.50000 418.400000
9476 15181 10281 1 109.50000 418.400000
9476 15181 10323 1 109.50000 418.400000
10281 15181 10323 1 109.50000 418.400000
2275 15182 2311 1 109.50000 418.400000
2275 15182 5254 1 109.50000 418.400000
2275 15182 7564 1 109.50000 418.400000
2311 15182 5254 1 109.50000 418.400000
2311 15182 7564 1 109.50000 418.400000
5254 15182 7564 1 109.50000 418.400000
3609 15183 6371 1 109.50000 418.400000
3609 15183 8400 1 109.50000 418.400000
3609 15183 9457 1 109.50000 418.400000
6371 15183 8400 1 109.50000 418.400000
6371 15183 9457 1 109.50000 418.400000
8400 15183 9457 1 109.50000 418.400000
7119 15184 8654 1 109.50000 418.400000
7119 15184 9841 1 109.50000 418.400000
7119 15184 10324 1 109.50000 418.400000
8654 15184 9841 1 109.50000 418.400000
8654 15184 10324 1 109.50000 418.400000
9841 15184 10324 1 109.50000 418.400000
4305 15185 10253 1 109.50000 418.400000
4305 15185 10325 1 109.50000 418.400000
4305 15185 10326 1 109.50000 418.400000
10253 15185 10325 1 109.50000 418.400000
10253 15185 10326 1 109.50000 418.400000
10325 15185 10326 1 109.50000 418.400000
6579 15186 7677 1 109.50000 418.400000
6579 15186 10283 1 109.50000 418.400000
6579 15186 10327 1 109.50000 418.400000
7677 15186 10283 1 109.50000 418.400000
7677 15186 10327 1 109.50000 418.400000
10283 15186 10327 1 109.50000 418.400000
2077 15187 2474 1 109.50000 418.400000
2077 15187 3000 1 109.50000 418.400000
2077 15187 10328 1 109.50000 418.400000
2474 15187 3000 1 109.50000 418.400000
2474 15187 10328 1 109.50000 418.400000
3000 15187 10328 1 109.50000 418.400000
5651 15188 8719 1 109.50000 418.400000
5651 15188 10331 1 109.50000 418.400000
5651 15188 10332 1 109.50000 418.400000
8719 15188 10331 1 109.50000 418.400000
8719 15188 10332 1 109.50000 418.400000
10331 15188 10332 1 109.50000 418.400000
1432 15189 7354 1 109.50000 418.400000
1432 15189 9105 1 109.50000 418.400000
1432 15189 10135 1 109.50000 418.400000
7354 15189 9105 1 109.50000 418.400000
7354 15189 10135 1 109.50000 418.400000
9105 15189 10135 1 109.50000 418.400000
2992 15190 7883 1 109.50000 418.400000
2992 15190 8552 1 109.50000 418.400000
2992 15190 10333 1 109.50000 418.400000
7883 15190 8552 1 109.50000 418.400000
7883 15190 10333 1 109.50000 418.400000
8552 15190 10333 1 109.50000 418.400000
36 15191 639 1 109.50000 418.400000
36 15191 10334 1 109.50000 418.400000
36 15191 10335 1 109.50000 418.400000
639 15191 10334 1 109.50000 418.400000
639 15191 10335 1 109.50000 418.400000
10334 15191 10335 1 109.50000 418.400000
8351 15192 8629 1 109.50000 418.400000
8351 15192 8880 1 109.50000 418.400000
8351 15192 9821 1 109.50000 418.400000
8629 15192 8880 1 109.50000 418.400000
8629 15192 9821 1 109.50000 418.400000
8880 15192 9821 1 109.50000 418.400000
1303 15193 2528 1 109.50000 418.400000
1303 15193 5947 1 109.50000 418.400000
1303 15193 10336 1 109.50000 418.400000
2528 15193 5947 1 109.50000 418.400000
2528 15193 10336 1 109.50000 418.400000
5947 15193 10336 1 109.50000 418.400000
1041 15194 5946 1 109.50000 418.400000
1041 15194 10337 1 109.50000 418.400000
1041 15194 10338 1 109.50000 418.400000
5946 15194 10337 1 109.50000 418.400000
5946 15194 10338 1 109.50000 418.400000
10337 15194 10338 1 109.50000 418.400000
5405 15195 7475 1 109.50000 418.400000
5405 15195 9262 1 109.50000 418.400000
5405 15195 9943 1 109.50000 418.400000
7475 15195 9262 1 109.50000 418.400000
7475 15195 9943 1 109.50000 418.400000
9262 15195 9943 1 109.50000 418.400000
4698 15196 8448 1 109.50000 418.400000
4698 15196 9145 1 109.50000 418.400000
4698 15196 10340 1 109.50000 418.400000
8448 15196 9145 1 109.50000 418.400000
8448 15196 10340 1 109.50000 418.400000
9145 15196 10340 1 109.50000 418.400000
4706 15197 5773 1 109.50000 418.400000
4706 15197 6814 1 109.50000 418.400000
4706 15197 10341 1 109.50000 418.400000
5773 15197 6814 1 109.50000 418.400000
5773 15197 10341 1 109.50000 418.400000
6814 15197 10341 1 109.50000 418.400000
8458 15198 10162 1 109.50000 418.400000
8458 15198 10342 1 109.50000 418.400000
8458 15198 10343 1 109.50000 418.400000
10162 15198 10342 1 109.50000 418.400000
10162 15198 10343 1 109.50000 418.400000
10342 15198 10343 1 109.50000 418.400000
4975 15199 7039 1 109.50000 418.400000
4975 15199 10344 1 109.50000 418.400000
4975 15199 10345 1 109.50000 418.400000
7039 15199 10344 1 109.50000 418.400000
7039 15199 10345 1 109.50000 418.400000
10344 15199 10345 1 109.50000 418.400000
5831 15200 7623 1 109.50000 418.400000
5831 15200 9934 1 109.50000 418.400000
5831 15200 10346 1 109.50000 418.400000
7623 15200 9934 1 109.50000 418.400000
7623 15200 10346 1 109.50000 418.400000
9934 15200 10346 1 109.50000 418.400000
3057 15201 8005 1 109.50000 418.400000
3057 15201 10265 1 109.50000 418.400000
3057 15201 10347 1 109.50000 418.400000
8005 15201 10265 1 109.50000 418.400000
8005 15201 10347 1 109.50000 418.400000
10265 15201 10347 1 109.50000 418.400000
6359 15202 8433 1 109.50000 418.400000
6359 15202 8468 1 109.50000 418.400000
6359 15202 10348 1 109.50000 418.400000
8433 15202 8468 1 109.50000 418.400000
8433 15202 10348 1 109.50000 418.400000
8468 15202 10348 1 109.50000 418.400000
7952 15203 8924 1 109.50000 418.400000
7952 15203 9940 1 109.50000 418.400000
7952 15203 10349 1 109.50000 418.400000
8924 15203 9940 1 109.50000 418.400000
8924 15203 10349 1 109.50000 418.400000
9940 15203 10349 1 109.50000 418.400000
1333 15204 5137 1 109.50000 418.400000
1333 15204 9972 1 109.50000 418.400000
1333 15204 10350 1 109.50000 418.400000
5137 15204 9972 1 109.50000 418.400000
5137 15204 10350 1 109.50000 418.400000
9972 15204 10350 1 109.50000 418.400000
144 15205 2630 1 109.50000 418.400000
144 15205 7466 1 109.50000 418.400000
144 15205 9338 1 109.50000 418.400000
2630 15205 7466 1 109.50000 418.400000
2630 15205 9338 1 109.50000 418.400000
7466 15205 9338 1 109.50000 418.400000
3492 15206 3935 1 109.50000 418.400000
3492 15206 9678 1 109.50000 418.400000
3492 15206 11351 1 109.50000 418.400000
3935 15206 9678 1 109.50000 418.400000
3935 15206 11351 1 109.50000 418.400000
9678 15206 11351 1 109.50000 418.400000
9968 15207 10351 1 109.50000 418.400000
9968 15207 10352 1 109.50000 418.400000
9968 15207 10353 1 109.50000 418.400000
10351 15207 10352 1 109.50000 418.400000
10351 15207 10353 1 109.50000 418.400000
10352 15207 10353 1 109.50000 418.400000
1181 15208 7115 1 109.50000 418.400000
1181 15208 9041 1 109.50000 418.400000
1181 15208 10354 1 109.50000 418.400000
7115 15208 9041 1 109.50000 418.400000
7115 15208 10354 1 109.50000 418.400000
9041 15208 10354 1 109.50000 418.400000
138 15209 5334 1 109.50000 418.400000
138 15209 9509 1 109.50000 418.400000
138 15209 10355 1 109.50000 418.400000
5334 15209 9509 1 109.50000 418.400000
5334 15209 10355 1 109.50000 418.400000
9509 15209 10355 1 109.50000 418.400000
5861 15210 6634 1 109.50000 418.400000
5861 15210 7582 1 109.50000 418.400000
5861 15210 8474 1 109.50000 418.400000
6634 15210 7582 1 109.50000 418.400000
6634 15210 8474 1 109.50000 418.400000
7582 15210 8474 1 109.50000 418.400000
1559 15211 2578 1 109.50000 418.400000
1559 15211 7780 1 109.50000 418.400000
1559 15211 7970 1 109.50000 418.400000
2578 15211 7780 1 109.50000 418.400000
2578 15211 7970 1 109.50000 418.400000
7780 15211 7970 1 109.50000 418.400000
10086 15212 10159 1 109.50000 418.400000
10086 15212 10357 1 109.50000 418.400000
10086 15212 11334 1 109.50000 418.400000
10159 15212 10357 1 109.50000 418.400000
10159 15212 11334 1 109.50000 418.400000
10357 15212 11334 1 109.50000 418.400000
3352 15213 9520 1 109.50000 418.400000
3352 15213 10358 1 109.50000 418.400000
3352 15213 10359 1 109.50000 418.400000
9520 15213 10358 1 109.50000 418.400000
9520 15213 10359 1 109.50000 418.400000
10358 15213 10359 1 109.50000 418.400000
4602 15214 6244 1 109.50000 418.400000
4602 15214 7313 1 109.50000 418.400000
4602 15214 8079 1 109.50000 418.400000
6244 15214 7313 1 109.50000 418.400000
6244 15214 8079 1 109.50000 418.400000
7313 15214 8079 1 109.50000 418.400000
7609 15215 10360 1 109.50000 418.400000
7609 15215 10361 1 109.50000 418.400000
7609 15215 10362 1 109.50000 418.400000
10360 15215 10361 1 109.50000 418.400000
10360 15215 10362 1 109.50000 418.400000
10361 15215 10362 1 109.50000 418.400000
8679 15216 10363 1 109.50000 418.400000
8679 15216 10364 1 109.50000 418.400000
8679 15216 10365 1 109.50000 418.400000
10363 15216 10364 1 109.50000 418.400000
10363 15216 10365 1 109.50000 418.400000
10364 15216 10365 1 109.50000 418.400000
3908 15217 6377 1 109.50000 418.400000
3908 15217 10366 1 109.50000 418.400000
3908 15217 10367 1 109.50000 418.400000
6377 15217 10366 1 109.50000 418.400000
6377 15217 10367 1 109.50000 418.400000
10366 15217 10367 1 109.50000 418.400000
7603 15218 7605 1 109.50000 418.400000
7603 15218 10368 1 109.50000 418.400000
7603 15218 10369 1 109.50000 418.400000
7605 15218 10368 1 109.50000 418.400000
7605 15218 10369 1 109.50000 418.400000
10368 15218 10369 1 109.50000 418.400000
7893 15219 10097 1 109.50000 418.400000
7893 15219 10370 1 109.50000 418.400000
7893 15219 10371 1 109.50000 418.400000
10097 15219 10370 1 109.50000 418.400000
10097 15219 10371 1 109.50000 418.400000
10370 15219 10371 1 109.50000 418.400000
10372 15220 10373 1 109.50000 418.400000
10372 15220 10374 1 109.50000 418.400000
10372 15220 10375 1 109.50000 418.400000
10373 15220 10374 1 109.50000 418.400000
10373 15220 10375 1 109.50000 418.400000
10374 15220 10375 1 109.50000 418.400000
1124 15221 7766 1 109.50000 418.400000
1124 15221 8087 1 109.50000 418.400000
1124 15221 8995 1 109.50000 418.400000
7766 15221 8087 1 109.50000 418.400000
7766 15221 8995 1 109.50000 418.400000
8087 15221 8995 1 109.50000 418.400000
136 15222 7438 1 109.50000 418.400000
136 15222 8261 1 109.50000 418.400000
136 15222 8567 1 109.50000 418.400000
7438 15222 8261 1 109.50000 418.400000
7438 15222 8567 1 109.50000 418.400000
8261 15222 8567 1 109.50000 418.400000
2044 15223 8224 1 109.50000 418.400000
2044 15223 9240 1 109.50000 418.400000
2044 15223 10376 1 109.50000 418.400000
8224 15223 9240 1 109.50000 418.400000
8224 15223 10376 1 109.50000 418.400000
9240 15223 10376 1 109.50000 418.400000
7314 15224 8388 1 109.50000 418.400000
7314 15224 8519 1 109.50000 418.400000
7314 15224 10377 1 109.50000 418.400000
8388 15224 8519 1 109.50000 418.400000
8388 15224 10377 1 109.50000 418.400000
8519 15224 10377 1 109.50000 418.400000
10378 15225 10379 1 109.50000 418.400000
10378 15225 10380 1 109.50000 418.400000
10378 15225 10661 1 109.50000 418.400000
10379 15225 10380 1 109.50000 418.400000
10379 15225 10661 1 109.50000 418.400000
10380 15225 10661 1 109.50000 418.400000
5703 15226 10164 1 109.50000 418.400000
5703 15226 10381 1 109.50000 418.400000
5703 15226 10382 1 109.50000 418.400000
10164 15226 10381 1 109.50000 418.400000
10164 15226 10382 1 109.50000 418.400000
10381 15226 10382 1 109.50000 418.400000
3584 15227 4869 1 109.50000 418.400000
3584 15227 9427 1 109.50000 418.400000
3584 15227 10383 1 109.50000 418.400000
4869 15227 9427 1 109.50000 418.400000
4869 15227 10383 1 109.50000 418.400000
9427 15227 10383 1 109.50000 418.400000
2223 15228 8464 1 109.50000 418.400000
2223 15228 10201 1 109.50000 418.400000
2223 15228 10384 1 109.50000 418.400000
8464 15228 10201 1 109.50000 418.400000
8464 15228 10384 1 109.50000 418.400000
10201 15228 10384 1 109.50000 418.400000
7248 15229 7635 1 109.50000 418.400000
7248 15229 10385 1 109.50000 418.400000
7248 15229 10386 1 109.50000 418.400000
7635 15229 10385 1 109.50000 418.400000
7635 15229 10386 1 109.50000 418.400000
10385 15229 10386 1 109.50000 418.400000
1080 15230 9016 1 109.50000 418.400000
1080 15230 10387 1 109.50000 418.400000
1080 15230 10388 1 109.50000 418.400000
9016 15230 10387 1 109.50000 418.400000
9016 15230 10388 1 109.50000 418.400000
10387 15230 10388 1 109.50000 418.400000
4369 15231 7793 1 109.50000 418.400000
4369 15231 9682 1 109.50000 418.400000
4369 15231 10293 1 109.50000 418.400000
7793 15231 9682 1 109.50000 418.400000
7793 15231 10293 1 109.50000 418.400000
9682 15231 10293 1 109.50000 418.400000
2399 15232 2626 1 109.50000 418.400000
2399 15232 8317 1 109.50000 418.400000
2399 15232 8986 1 109.50000 418.400000
2626 15232 8317 1 109.50000 418.400000
2626 15232 8986 1 109.50000 418.400000
8317 15232 8986 1 109.50000 418.400000
2316 15233 6082 1 109.50000 418.400000
2316 15233 8714 1 109.50000 418.400000
2316 15233 9767 1 109.50000 418.400000
6082 15233 8714 1 109.50000 418.400000
6082 15233 9767 1 109.50000 418.400000
8714 15233 9767 1 109.50000 418.400000
70 15234 3594 1 109.50000 418.400000
70 15234 5412 1 109.50000 418.400000
70 15234 7484 1 109.50000 418.400000
3594 15234 5412 1 109.50000 418.400000
3594 15234 7484 1 109.50000 418.400000
5412 15234 7484 1 109.50000 418.400000
821 15235 4341 1 109.50000 418.400000
821 15235 4424 1 109.50000 418.400000
821 15235 9316 1 109.50000 418.400000
4341 15235 4424 1 109.50000 418.400000
4341 15235 9316 1 109.50000 418.400000
4424 15235 9316 1 109.50000 418.400000
7791 15236 8435 1 109.50000 418.400000
7791 15236 10389 1 109.50000 418.400000
7791 15236 10390 1 109.50000 418.400000
8435 15236 10389 1 109.50000 418.400000
8435 15236 10390 1 109.50000 418.400000
10389 15236 10390 1 109.50000 418.400000
3409 15237 4575 1 109.50000 418.400000
3409 15237 4601 1 109.50000 418.400000
3409 15237 7710 1 109.50000 418.400000
4575 15237 4601 1 109.50000 418.400000
4575 15237 7710 1 109.50000 418.400000
4601 15237 7710 1 109.50000 418.400000
7478 15238 9175 1 109.50000 418.400000
7478 15238 9722 1 109.50000 418.400000
7478 15238 10181 1 109.50000 418.400000
9175 15238 9722 1 109.50000 418.400000
9175 15238 10181 1 109.50000 418.400000
9722 15238 10181 1 109.50000 418.400000
4274 15239 5874 1 109.50000 418.400000
4274 15239 9073 1 109.50000 418.400000
4274 15239 10090 1 109.50000 418.400000
5874 15239 9073 1 109.50000 418.400000
5874 15239 10090 1 109.50000 418.400000
9073 15239 10090 1 109.50000 418.400000
3631 15240 6965 1 109.50000 418.400000
3631 15240 6967 1 109.50000 418.400000
3631 15240 10391 1 109.50000 418.400000
6965 15240 6967 1 109.50000 418.400000
6965 15240 10391 1 109.50000 418.400000
6967 15240 10391 1 109.50000 418.400000
9292 15241 10392 1 109.50000 418.400000
9292 15241 10393 1 109.50000 418.400000
9292 15241 10394 1 109.50000 418.400000
10392 15241 10393 1 109.50000 418.400000
10392 15241 10394 1 109.50000 418.400000
10393 15241 10394 1 109.50000 418.400000
2849 15242 4523 1 109.50000 418.400000
2849 15242 9572 1 109.50000 418.400000
2849 15242 10254 1 109.50000 418.400000
4523 15242 9572 1 109.50000 418.400000
4523 15242 10254 1 109.50000 418.400000
9572 15242 10254 1 109.50000 418.400000
504 15243 4868 1 109.50000 418.400000
504 15243 10203 1 109.50000 418.400000
504 15243 10395 1 109.50000 418.400000
4868 15243 10203 1 109.50000 418.400000
4868 15243 10395 1 109.50000 418.400000
10203 15243 10395 1 109.50000 418.400000
5148 15244 9489 1 109.50000 418.400000
5148 15244 9896 1 109.50000 418.400000
5148 15244 10335 1 109.50000 418.400000
9489 15244 9896 1 109.50000 418.400000
9489 15244 10335 1 109.50000 418.400000
9896 15244 10335 1 109.50000 418.400000
3925 15245 7656 1 109.50000 418.400000
3925 15245 9640 1 109.50000 418.400000
3925 15245 9975 1 109.50000 418.400000
7656 15245 9640 1 109.50000 418.400000
7656 15245 9975 1 109.50000 418.400000
9640 15245 9975 1 109.50000 418.400000
1075 15246 4446 1 109.50000 418.400000
1075 15246 10221 1 109.50000 418.400000
1075 15246 11371 1 109.50000 418.400000
4446 15246 10221 1 109.50000 418.400000
4446 15246 11371 1 109.50000 418.400000
10221 15246 11371 1 109.50000 418.400000
2439 15247 8155 1 109.50000 418.400000
2439 15247 10027 1 109.50000 418.400000
2439 15247 10396 1 109.50000 418.400000
8155 15247 10027 1 109.50000 418.400000
8155 15247 10396 1 109.50000 418.400000
10027 15247 10396 1 109.50000 418.400000
1412 15248 2958 1 109.50000 418.400000
1412 15248 3650 1 109.50000 418.400000
1412 15248 10398 1 109.50000 418.400000
2958 15248 3650 1 109.50000 418.400000
2958 15248 10398 1 109.50000 418.400000
3650 15248 10398 1 109.50000 418.400000
1460 15249 6112 1 109.50000 418.400000
1460 15249 9170 1 109.50000 418.400000
1460 15249 10263 1 109.50000 418.400000
6112 15249 9170 1 109.50000 418.400000
6112 15249 10263 1 109.50000 418.400000
9170 15249 10263 1 109.50000 418.400000
8722 15250 9188 1 109.50000 418.400000
8722 15250 9225 1 109.50000 418.400000
8722 15250 10399 1 109.50000 418.400000
9188 15250 9225 1 109.50000 418.400000
9188 15250 10399 1 109.50000 418.400000
9225 15250 10399 1 109.50000 418.400000
1394 15251 2116 1 109.50000 418.400000
1394 15251 7107 1 109.50000 418.400000
1394 15251 10400 1 109.50000 418.400000
2116 15251 7107 1 109.50000 418.400000
2116 15251 10400 1 109.50000 418.400000
7107 15251 10400 1 109.50000 418.400000
1354 15252 2861 1 109.50000 418.400000
1354 15252 7269 1 109.50000 418.400000
1354 15252 7270 1 109.50000 418.400000
2861 15252 7269 1 109.50000 418.400000
2861 15252 7270 1 109.50000 418.400000
7269 15252 7270 1 109.50000 418.400000
5632 15253 7303 1 109.50000 418.400000
5632 15253 10214 1 109.50000 418.400000
5632 15253 10402 1 109.50000 418.400000
7303 15253 10214 1 109.50000 418.400000
7303 15253 10402 1 109.50000 418.400000
10214 15253 10402 1 109.50000 418.400000
4039 15254 9049 1 109.50000 418.400000
4039 15254 10403 1 109.50000 418.400000
4039 15254 10404 1 109.50000 418.400000
9049 15254 10403 1 109.50000 418.400000
9049 15254 10404 1 109.50000 418.400000
10403 15254 10404 1 109.50000 418.400000
1859 15255 4161 1 109.50000 418.400000
1859 15255 10405 1 109.50000 418.400000
1859 15255 10406 1 109.50000 418.400000
4161 15255 10405 1 109.50000 418.400000
4161 15255 10406 1 109.50000 418.400000
10405 15255 10406 1 109.50000 418.400000
1640 15256 8497 1 109.50000 418.400000
1640 15256 8499 1 109.50000 418.400000
1640 15256 8500 1 109.50000 418.400000
8497 15256 8499 1 109.50000 418.400000
8497 15256 8500 1 109.50000 418.400000
8499 15256 8500 1 109.50000 418.400000
4086 15257 5118 1 109.50000 418.400000
4086 15257 10015 1 109.50000 418.400000
4086 15257 10408 1 109.50000 418.400000
5118 15257 10015 1 109.50000 418.400000
5118 15257 10408 1 109.50000 418.400000
10015 15257 10408 1 109.50000 418.400000
2135 15258 4552 1 109.50000 418.400000
2135 15258 8844 1 109.50000 418.400000
2135 15258 10409 1 109.50000 418.400000
4552 15258 8844 1 109.50000 418.400000
4552 15258 10409 1 109.50000 418.400000
8844 15258 10409 1 109.50000 418.400000
2761 15259 6029 1 109.50000 418.400000
2761 15259 10250 1 109.50000 418.400000
2761 15259 10410 1 109.50000 418.400000
6029 15259 10250 1 109.50000 418.400000
6029 15259 10410 1 109.50000 418.400000
10250 15259 10410 1 109.50000 418.400000
4077 15260 6463 1 109.50000 418.400000
4077 15260 8808 1 109.50000 418.400000
4077 15260 10411 1 109.50000 418.400000
6463 15260 8808 1 109.50000 418.400000
6463 15260 10411 1 109.50000 418.400000
8808 15260 10411 1 109.50000 418.400000
201 15261 7062 1 109.50000 418.400000
201 15261 8825 1 109.50000 418.400000
201 15261 10412 1 109.50000 418.400000
7062 15261 8825 1 109.50000 418.400000
7062 15261 10412 1 109.50000 418.400000
8825 15261 10412 1 109.50000 418.400000
4185 15262 10413 1 109.50000 418.400000
4185 15262 10414 1 109.50000 418.400000
4185 15262 11261 1 109.50000 418.400000
10413 15262 10414 1 109.50000 418.400000
10413 15262 11261 1 109.50000 418.400000
10414 15262 11261 1 109.50000 418.400000
4631 15263 10153 1 109.50000 418.400000
4631 15263 10410 1 109.50000 418.400000
4631 15263 10415 1 109.50000 418.400000
10153 15263 10410 1 109.50000 418.400000
10153 15263 10415 1 109.50000 418.400000
10410 15263 10415 1 109.50000 418.400000
1248 15264 5915 1 109.50000 418.400000
1248 15264 7822 1 109.50000 418.400000
1248 15264 10232 1 109.50000 418.400000
5915 15264 7822 1 109.50000 418.400000
5915 15264 10232 1 109.50000 418.400000
7822 15264 10232 1 109.50000 418.400000
443 15265 2048 1 109.50000 418.400000
443 15265 10416 1 109.50000 418.400000
443 15265 10417 1 109.50000 418.400000
2048 15265 10416 1 109.50000 418.400000
2048 15265 10417 1 109.50000 418.400000
10416 15265 10417 1 109.50000 418.400000
803 15266 5870 1 109.50000 418.400000
803 15266 10271 1 109.50000 418.400000
803 15266 10418 1 109.50000 418.400000
5870 15266 10271 1 109.50000 418.400000
5870 15266 10418 1 109.50000 418.400000
10271 15266 10418 1 109.50000 418.400000
2472 15267 2867 1 109.50000 418.400000
2472 15267 4782 1 109.50000 418.400000
2472 15267 8659 1 109.50000 418.400000
2867 15267 4782 1 109.50000 418.400000
2867 15267 8659 1 109.50000 418.400000
4782 15267 8659 1 109.50000 418.400000
3620 15268 10408 1 109.50000 418.400000
3620 15268 10419 1 109.50000 418.400000
3620 15268 10420 1 109.50000 418.400000
10408 15268 10419 1 109.50000 418.400000
10408 15268 10420 1 109.50000 418.400000
10419 15268 10420 1 109.50000 418.400000
5272 15269 7043 1 109.50000 418.400000
5272 15269 9132 1 109.50000 418.400000
5272 15269 10421 1 109.50000 418.400000
7043 15269 9132 1 109.50000 418.400000
7043 15269 10421 1 109.50000 418.400000
9132 15269 10421 1 109.50000 418.400000
617 15270 5697 1 109.50000 418.400000
617 15270 8682 1 109.50000 418.400000
617 15270 9777 1 109.50000 418.400000
5697 15270 8682 1 109.50000 418.400000
5697 15270 9777 1 109.50000 418.400000
8682 15270 9777 1 109.50000 418.400000
4097 15271 5016 1 109.50000 418.400000
4097 15271 7667 1 109.50000 418.400000
4097 15271 10358 1 109.50000 418.400000
5016 15271 7667 1 109.50000 418.400000
5016 15271 10358 1 109.50000 418.400000
7667 15271 10358 1 109.50000 418.400000
1036 15272 1037 1 109.50000 418.400000
1036 15272 1038 1 109.50000 418.400000
1036 15272 1039 1 109.50000 418.400000
1037 15272 1038 1 109.50000 418.400000
1037 15272 1039 1 109.50000 418.400000
1038 15272 1039 1 109.50000 418.400000
5378 15273 8507 1 109.50000 418.400000
5378 15273 10311 1 109.50000 418.400000
5378 15273 10423 1 109.50000 418.400000
8507 15273 10311 1 109.50000 418.400000
8507 15273 10423 1 109.50000 418.400000
10311 15273 10423 1 109.50000 418.400000
3046 15274 5696 1 109.50000 418.400000
3046 15274 9380 1 109.50000 418.400000
3046 15274 10167 1 109.50000 418.400000
5696 15274 9380 1 109.50000 418.400000
5696 15274 10167 1 109.50000 418.400000
9380 15274 10167 1 109.50000 418.400000
885 15275 7581 1 109.50000 418.400000
885 15275 10424 1 109.50000 418.400000
885 15275 10822 1 109.50000 418.400000
7581 15275 10424 1 109.50000 418.400000
7581 15275 10822 1 109.50000 418.400000
10424 15275 10822 1 109.50000 418.400000
5189 15276 7036 1 109.50000 418.400000
5189 15276 9053 1 109.50000 418.400000
5189 15276 10425 1 109.50000 418.400000
7036 15276 9053 1 109.50000 418.400000
7036 15276 10425 1 109.50000 418.400000
9053 15276 10425 1 109.50000 418.400000
6554 15277 7156 1 109.50000 418.400000
6554 15277 9433 1 109.50000 418.400000
6554 15277 10426 1 109.50000 418.400000
7156 15277 9433 1 109.50000 418.400000
7156 15277 10426 1 109.50000 418.400000
9433 15277 10426 1 109.50000 418.400000
3404 15278 8950 1 109.50000 418.400000
3404 15278 10125 1 109.50000 418.400000
3404 15278 10278 1 109.50000 418.400000
8950 15278 10125 1 109.50000 418.400000
8950 15278 10278 1 109.50000 418.400000
10125 15278 10278 1 109.50000 418.400000
5474 15279 9180 1 109.50000 418.400000
5474 15279 10291 1 109.50000 418.400000
5474 15279 10427 1 109.50000 418.400000
9180 15279 10291 1 109.50000 418.400000
9180 15279 10427 1 109.50000 418.400000
10291 15279 10427 1 109.50000 418.400000
5180 15280 9022 1 109.50000 418.400000
5180 15280 10428 1 109.50000 418.400000
5180 15280 10429 1 109.50000 418.400000
9022 15280 10428 1 109.50000 418.400000
9022 15280 10429 1 109.50000 418.400000
10428 15280 10429 1 109.50000 418.400000
9417 15281 10345 1 109.50000 418.400000
9417 15281 10430 1 109.50000 418.400000
9417 15281 10431 1 109.50000 418.400000
10345 15281 10430 1 109.50000 418.400000
10345 15281 10431 1 109.50000 418.400000
10430 15281 10431 1 109.50000 418.400000
4628 15282 7681 1 109.50000 418.400000
4628 15282 8570 1 109.50000 418.400000
4628 15282 10432 1 109.50000 418.400000
7681 15282 8570 1 109.50000 418.400000
7681 15282 10432 1 109.50000 418.400000
8570 15282 10432 1 109.50000 418.400000
5993 15283 6983 1 109.50000 418.400000
5993 15283 9720 1 109.50000 418.400000
5993 15283 9906 1 109.50000 418.400000
6983 15283 9720 1 109.50000 418.400000
6983 15283 9906 1 109.50000 418.400000
9720 15283 9906 1 109.50000 418.400000
6435 15284 6437 1 109.50000 418.400000
6435 15284 8391 1 109.50000 418.400000
6435 15284 11376 1 109.50000 418.400000
6437 15284 8391 1 109.50000 418.400000
6437 15284 11376 1 109.50000 418.400000
8391 15284 11376 1 109.50000 418.400000
1480 15285 2583 1 109.50000 418.400000
1480 15285 2585 1 109.50000 418.400000
1480 15285 8778 1 109.50000 418.400000
2583 15285 2585 1 109.50000 418.400000
2583 15285 8778 1 109.50000 418.400000
2585 15285 8778 1 109.50000 418.400000
6610 15286 8462 1 109.50000 418.400000
6610 15286 8587 1 109.50000 418.400000
6610 15286 9455 1 109.50000 418.400000
8462 15286 8587 1 109.50000 418.400000
8462 15286 9455 1 109.50000 418.400000
8587 15286 9455 1 109.50000 418.400000
45 15287 2200 1 109.50000 418.400000
45 15287 9713 1 109.50000 418.400000
45 15287 10433 1 109.50000 418.400000
2200 15287 9713 1 109.50000 418.400000
2200 15287 10433 1 109.50000 418.400000
9713 15287 10433 1 109.50000 418.400000
4815 15288 5747 1 109.50000 418.400000
4815 15288 6027 1 109.50000 418.400000
4815 15288 8172 1 109.50000 418.400000
5747 15288 6027 1 109.50000 418.400000
5747 15288 8172 1 109.50000 418.400000
6027 15288 8172 1 109.50000 418.400000
1668 15289 7704 1 109.50000 418.400000
1668 15289 7820 1 109.50000 418.400000
1668 15289 10434 1 109.50000 418.400000
7704 15289 7820 1 109.50000 418.400000
7704 15289 10434 1 109.50000 418.400000
7820 15289 10434 1 109.50000 418.400000
1045 15290 4252 1 109.50000 418.400000
1045 15290 8754 1 109.50000 418.400000
1045 15290 10421 1 109.50000 418.400000
4252 15290 8754 1 109.50000 418.400000
4252 15290 10421 1 109.50000 418.400000
8754 15290 10421 1 109.50000 418.400000
2459 15291 5327 1 109.50000 418.400000
2459 15291 7046 1 109.50000 418.400000
2459 15291 9209 1 109.50000 418.400000
5327 15291 7046 1 109.50000 418.400000
5327 15291 9209 1 109.50000 418.400000
7046 15291 9209 1 109.50000 418.400000
3945 15292 5003 1 109.50000 418.400000
3945 15292 6765 1 109.50000 418.400000
3945 15292 6767 1 109.50000 418.400000
5003 15292 6765 1 109.50000 418.400000
5003 15292 6767 1 109.50000 418.400000
6765 15292 6767 1 109.50000 418.400000
10437 15293 10438 1 109.50000 418.400000
10437 15293 10439 1 109.50000 418.400000
10437 15293 10440 1 109.50000 418.400000
10438 15293 10439 1 109.50000 418.400000
10438 15293 10440 1 109.50000 418.400000
10439 15293 10440 1 109.50000 418.400000
4057 15294 10441 1 109.50000 418.400000
4057 15294 10442 1 109.50000 418.400000
4057 15294 11337 1 109.50000 418.400000
10441 15294 10442 1 109.50000 418.400000
10441 15294 11337 1 109.50000 418.400000
10442 15294 11337 1 109.50000 418.400000
4447 15295 7550 1 109.50000 418.400000
4447 15295 9222 1 109.50000 418.400000
4447 15295 10443 1 109.50000 418.400000
7550 15295 9222 1 109.50000 418.400000
7550 15295 10443 1 109.50000 418.400000
9222 15295 10443 1 109.50000 418.400000
7385 15296 7751 1 109.50000 418.400000
7385 15296 10444 1 109.50000 418.400000
7385 15296 10445 1 109.50000 418.400000
7751 15296 10444 1 109.50000 418.400000
7751 15296 10445 1 109.50000 418.400000
10444 15296 10445 1 109.50000 418.400000
873 15297 5011 1 109.50000 418.400000
873 15297 9404 1 109.50000 418.400000
873 15297 10446 1 109.50000 418.400000
5011 15297 9404 1 109.50000 418.400000
5011 15297 10446 1 109.50000 418.400000
9404 15297 10446 1 109.50000 418.400000
4388 15298 8085 1 109.50000 418.400000
4388 15298 8920 1 109.50000 418.400000
4388 15298 10447 1 109.50000 418.400000
8085 15298 8920 1 109.50000 418.400000
8085 15298 10447 1 109.50000 418.400000
8920 15298 10447 1 109.50000 418.400000
774 15299 3430 1 109.50000 418.400000
774 15299 5184 1 109.50000 418.400000
774 15299 10448 1 109.50000 418.400000
3430 15299 5184 1 109.50000 418.400000
3430 15299 10448 1 109.50000 418.400000
5184 15299 10448 1 109.50000 418.400000
751 15300 9597 1 109.50000 418.400000
751 15300 10449 1 109.50000 418.400000
751 15300 10450 1 109.50000 418.400000
9597 15300 10449 1 109.50000 418.400000
9597 15300 10450 1 109.50000 418.400000
10449 15300 10450 1 109.50000 418.400000
7540 15301 10451 1 109.50000 418.400000
7540 15301 10452 1 109.50000 418.400000
7540 15301 10453 1 109.50000 418.400000
10451 15301 10452 1 109.50000 418.400000
10451 15301 10453 1 109.50000 418.400000
10452 15301 10453 1 109.50000 418.400000
979 15302 2367 1 109.50000 418.400000
979 15302 6342 1 109.50000 418.400000
979 15302 7756 1 109.50000 418.400000
2367 15302 6342 1 109.50000 418.400000
2367 15302 7756 1 109.50000 418.400000
6342 15302 7756 1 109.50000 418.400000
2414 15303 9204 1 109.50000 418.400000
2414 15303 10454 1 109.50000 418.400000
2414 15303 10455 1 109.50000 418.400000
9204 15303 10454 1 109.50000 418.400000
9204 15303 10455 1 109.50000 418.400000
10454 15303 10455 1 109.50000 418.400000
1054 15304 7930 1 109.50000 418.400000
1054 15304 9167 1 109.50000 418.400000
1054 15304 9440 1 109.50000 418.400000
7930 15304 9167 1 109.50000 418.400000
7930 15304 9440 1 109.50000 418.400000
9167 15304 9440 1 109.50000 418.400000
3124 15305 7380 1 109.50000 418.400000
3124 15305 8575 1 109.50000 418.400000
3124 15305 10456 1 109.50000 418.400000
7380 15305 8575 1 109.50000 418.400000
7380 15305 10456 1 109.50000 418.400000
8575 15305 10456 1 109.50000 418.400000
5143 15306 5354 1 109.50000 418.400000
5143 15306 7488 1 109.50000 418.400000
5143 15306 10457 1 109.50000 418.400000
5354 15306 7488 1 109.50000 418.400000
5354 15306 10457 1 109.50000 418.400000
7488 15306 10457 1 109.50000 418.400000
5639 15307 9068 1 109.50000 418.400000
5639 15307 9069 1 109.50000 418.400000
5639 15307 10458 1 109.50000 418.400000
9068 15307 9069 1 109.50000 418.400000
9068 15307 10458 1 109.50000 418.400000
9069 15307 10458 1 109.50000 418.400000
5967 15308 8791 1 109.50000 418.400000
5967 15308 9659 1 109.50000 418.400000
5967 15308 10460 1 109.50000 418.400000
8791 15308 9659 1 109.50000 418.400000
8791 15308 10460 1 109.50000 418.400000
9659 15308 10460 1 109.50000 418.400000
1435 15309 4370 1 109.50000 418.400000
1435 15309 6985 1 109.50000 418.400000
1435 15309 7675 1 109.50000 418.400000
4370 15309 6985 1 109.50000 418.400000
4370 15309 7675 1 109.50000 418.400000
6985 15309 7675 1 109.50000 418.400000
1009 15310 5458 1 109.50000 418.400000
1009 15310 7455 1 109.50000 418.400000
1009 15310 10464 1 109.50000 418.400000
5458 15310 7455 1 109.50000 418.400000
5458 15310 10464 1 109.50000 418.400000
7455 15310 10464 1 109.50000 418.400000
407 15311 408 1 109.50000 418.400000
407 15311 1352 1 109.50000 418.400000
407 15311 8278 1 109.50000 418.400000
408 15311 1352 1 109.50000 418.400000
408 15311 8278 1 109.50000 418.400000
1352 15311 8278 1 109.50000 418.400000
4070 15312 8182 1 109.50000 418.400000
4070 15312 8643 1 109.50000 418.400000
4070 15312 10465 1 109.50000 418.400000
8182 15312 8643 1 109.50000 418.400000
8182 15312 10465 1 109.50000 418.400000
8643 15312 10465 1 109.50000 418.400000
5522 15313 10466 1 109.50000 418.400000
5522 15313 10467 1 109.50000 418.400000
5522 15313 10741 1 109.50000 418.400000
10466 15313 10467 1 109.50000 418.400000
10466 15313 10741 1 109.50000 418.400000
10467 15313 10741 1 109.50000 418.400000
7942 15314 8582 1 109.50000 418.400000
7942 15314 10438 1 109.50000 418.400000
7942 15314 10468 1 109.50000 418.400000
8582 15314 10438 1 109.50000 418.400000
8582 15314 10468 1 109.50000 418.400000
10438 15314 10468 1 109.50000 418.400000
9346 15315 9532 1 109.50000 418.400000
9346 15315 9533 1 109.50000 418.400000
9346 15315 10469 1 109.50000 418.400000
9532 15315 9533 1 109.50000 418.400000
9532 15315 10469 1 109.50000 418.400000
9533 15315 10469 1 109.50000 418.400000
321 15316 3730 1 109.50000 418.400000
321 15316 4275 1 109.50000 418.400000
321 15316 10383 1 109.50000 418.400000
3730 15316 4275 1 109.50000 418.400000
3730 15316 10383 1 109.50000 418.400000
4275 15316 10383 1 109.50000 418.400000
2280 15317 6573 1 109.50000 418.400000
2280 15317 8418 1 109.50000 418.400000
2280 15317 10470 1 109.50000 418.400000
6573 15317 8418 1 109.50000 418.400000
6573 15317 10470 1 109.50000 418.400000
8418 15317 10470 1 109.50000 418.400000
1234 15318 5807 1 109.50000 418.400000
1234 15318 10471 1 109.50000 418.400000
1234 15318 10472 1 109.50000 418.400000
5807 15318 10471 1 109.50000 418.400000
5807 15318 10472 1 109.50000 418.400000
10471 15318 10472 1 109.50000 418.400000
281 15319 7161 1 109.50000 418.400000
281 15319 10473 1 109.50000 418.400000
281 15319 10474 1 109.50000 418.400000
7161 15319 10473 1 109.50000 418.400000
7161 15319 10474 1 109.50000 418.400000
10473 15319 10474 1 109.50000 418.400000
1010 15320 2218 1 109.50000 418.400000
1010 15320 6465 1 109.50000 418.400000
1010 15320 10476 1 109.50000 418.400000
2218 15320 6465 1 109.50000 418.400000
2218 15320 10476 1 109.50000 418.400000
6465 15320 10476 1 109.50000 418.400000
6728 15321 8309 1 109.50000 418.400000
6728 15321 8770 1 109.50000 418.400000
6728 15321 9422 1 109.50000 418.400000
8309 15321 8770 1 109.50000 418.400000
8309 15321 9422 1 109.50000 418.400000
8770 15321 9422 1 109.50000 418.400000
3378 15322 5391 1 109.50000 418.400000
3378 15322 9089 1 109.50000 418.400000
3378 15322 10477 1 109.50000 418.400000
5391 15322 9089 1 109.50000 418.400000
5391 15322 10477 1 109.50000 418.400000
9089 15322 10477 1 109.50000 418.400000
2213 15323 2727 1 109.50000 418.400000
2213 15323 8115 1 109.50000 418.400000
2213 15323 10478 1 109.50000 418.400000
2727 15323 8115 1 109.50000 418.400000
2727 15323 10478 1 109.50000 418.400000
8115 15323 10478 1 109.50000 418.400000
5543 15324 6382 1 109.50000 418.400000
5543 15324 9653 1 109.50000 418.400000
5543 15324 10479 1 109.50000 418.400000
6382 15324 9653 1 109.50000 418.400000
6382 15324 10479 1 109.50000 418.400000
9653 15324 10479 1 109.50000 418.400000
4451 15325 5832 1 109.50000 418.400000
4451 15325 6474 1 109.50000 418.400000
4451 15325 7854 1 109.50000 418.400000
5832 15325 6474 1 109.50000 418.400000
5832 15325 7854 1 109.50000 418.400000
6474 15325 7854 1 109.50000 418.400000
2543 15326 2638 1 109.50000 418.400000
2543 15326 8981 1 109.50000 418.400000
2543 15326 10072 1 109.50000 418.400000
2638 15326 8981 1 109.50000 418.400000
2638 15326 10072 1 109.50000 418.400000
8981 15326 10072 1 109.50000 418.400000
5791 15327 5792 1 109.50000 418.400000
5791 15327 5977 1 109.50000 418.400000
5791 15327 10220 1 109.50000 418.400000
5792 15327 5977 1 109.50000 418.400000
5792 15327 10220 1 109.50000 418.400000
5977 15327 10220 1 109.50000 418.400000
312 15328 9486 1 109.50000 418.400000
312 15328 10480 1 109.50000 418.400000
312 15328 10481 1 109.50000 418.400000
9486 15328 10480 1 109.50000 418.400000
9486 15328 10481 1 109.50000 418.400000
10480 15328 10481 1 109.50000 418.400000
1834 15329 3024 1 109.50000 418.400000
1834 15329 8442 1 109.50000 418.400000
1834 15329 10482 1 109.50000 418.400000
3024 15329 8442 1 109.50000 418.400000
3024 15329 10482 1 109.50000 418.400000
8442 15329 10482 1 109.50000 418.400000
2323 15330 6577 1 109.50000 418.400000
2323 15330 7918 1 109.50000 418.400000
2323 15330 10483 1 109.50000 418.400000
6577 15330 7918 1 109.50000 418.400000
6577 15330 10483 1 109.50000 418.400000
7918 15330 10483 1 109.50000 418.400000
1213 15331 2179 1 109.50000 418.400000
1213 15331 4972 1 109.50000 418.400000
1213 15331 10484 1 109.50000 418.400000
2179 15331 4972 1 109.50000 418.400000
2179 15331 10484 1 109.50000 418.400000
4972 15331 10484 1 109.50000 418.400000
6623 15332 9798 1 109.50000 418.400000
6623 15332 10407 1 109.50000 418.400000
6623 15332 10485 1 109.50000 418.400000
9798 15332 10407 1 109.50000 418.400000
9798 15332 10485 1 109.50000 418.400000
10407 15332 10485 1 109.50000 418.400000
7574 15333 8040 1 109.50000 418.400000
7574 15333 9946 1 109.50000 418.400000
7574 15333 10486 1 109.50000 418.400000
8040 15333 9946 1 109.50000 418.400000
8040 15333 10486 1 109.50000 418.400000
9946 15333 10486 1 109.50000 418.400000
4676 15334 4677 1 109.50000 418.400000
4676 15334 6975 1 109.50000 418.400000
4676 15334 8536 1 109.50000 418.400000
4677 15334 6975 1 109.50000 418.400000
4677 15334 8536 1 109.50000 418.400000
6975 15334 8536 1 109.50000 418.400000
1856 15335 8053 1 109.50000 418.400000
1856 15335 10487 1 109.50000 418.400000
1856 15335 10488 1 109.50000 418.400000
8053 15335 10487 1 109.50000 418.400000
8053 15335 10488 1 109.50000 418.400000
10487 15335 10488 1 109.50000 418.400000
2068 15336 4919 1 109.50000 418.400000
2068 15336 10489 1 109.50000 418.400000
2068 15336 10490 1 109.50000 418.400000
4919 15336 10489 1 109.50000 418.400000
4919 15336 10490 1 109.50000 418.400000
10489 15336 10490 1 109.50000 418.400000
9803 15337 10149 1 109.50000 418.400000
9803 15337 10492 1 109.50000 418.400000
9803 15337 11224 1 109.50000 418.400000
10149 15337 10492 1 109.50000 418.400000
10149 15337 11224 1 109.50000 418.400000
10492 15337 11224 1 109.50000 418.400000
5264 15338 5804 1 109.50000 418.400000
5264 15338 5826 1 109.50000 418.400000
5264 15338 9908 1 109.50000 418.400000
5804 15338 5826 1 109.50000 418.400000
5804 15338 9908 1 109.50000 418.400000
5826 15338 9908 1 109.50000 418.400000
5301 15339 7081 1 109.50000 418.400000
5301 15339 7306 1 109.50000 418.400000
5301 15339 10493 1 109.50000 418.400000
7081 15339 7306 1 109.50000 418.400000
7081 15339 10493 1 109.50000 418.400000
7306 15339 10493 1 109.50000 418.400000
1375 15340 4268 1 109.50000 418.400000
1375 15340 4314 1 109.50000 418.400000
1375 15340 6629 1 109.50000 418.400000
4268 15340 4314 1 109.50000 418.400000
4268 15340 6629 1 109.50000 418.400000
4314 15340 6629 1 109.50000 418.400000
6896 15341 6897 1 109.50000 418.400000
6896 15341 8546 1 109.50000 418.400000
6896 15341 9406 1 109.50000 418.400000
6897 15341 8546 1 109.50000 418.400000
6897 15341 9406 1 109.50000 418.400000
8546 15341 9406 1 109.50000 418.400000
7652 15342 9545 1 109.50000 418.400000
7652 15342 9838 1 109.50000 418.400000
7652 15342 10494 1 109.50000 418.400000
9545 15342 9838 1 109.50000 418.400000
9545 15342 10494 1 109.50000 418.400000
9838 15342 10494 1 109.50000 418.400000
6229 15343 9118 1 109.50000 418.400000
6229 15343 9119 1 109.50000 418.400000
6229 15343 10495 1 109.50000 418.400000
9118 15343 9119 1 109.50000 418.400000
9118 15343 10495 1 109.50000 418.400000
9119 15343 10495 1 109.50000 418.400000
3910 15344 8849 1 109.50000 418.400000
3910 15344 9763 1 109.50000 418.400000
3910 15344 10496 1 109.50000 418.400000
8849 15344 9763 1 109.50000 418.400000
8849 15344 10496 1 109.50000 418.400000
9763 15344 10496 1 109.50000 418.400000
1059 15345 6523 1 109.50000 418.400000
1059 15345 9526 1 109.50000 418.400000
1059 15345 10497 1 109.50000 418.400000
6523 15345 9526 1 109.50000 418.400000
6523 15345 10497 1 109.50000 418.400000
9526 15345 10497 1 109.50000 418.400000
921 15346 8669 1 109.50000 418.400000
921 15346 8758 1 109.50000 418.400000
921 15346 10498 1 109.50000 418.400000
8669 15346 8758 1 109.50000 418.400000
8669 15346 10498 1 109.50000 418.400000
8758 15346 10498 1 109.50000 418.400000
60 15347 7746 1 109.50000 418.400000
60 15347 10428 1 109.50000 418.400000
60 15347 10499 1 109.50000 418.400000
7746 15347 10428 1 109.50000 418.400000
7746 15347 10499 1 109.50000 418.400000
10428 15347 10499 1 109.50000 418.400000
4580 15348 6110 1 109.50000 418.400000
4580 15348 8265 1 109.50000 418.400000
4580 15348 10500 1 109.50000 418.400000
6110 15348 8265 1 109.50000 418.400000
6110 15348 10500 1 109.50000 418.400000
8265 15348 10500 1 109.50000 418.400000
880 15349 5678 1 109.50000 418.400000
880 15349 6347 1 109.50000 418.400000
880 15349 7992 1 109.50000 418.400000
5678 15349 6347 1 109.50000 418.400000
5678 15349 7992 1 109.50000 418.400000
6347 15349 7992 1 109.50000 418.400000
1115 15350 10150 1 109.50000 418.400000
1115 15350 10207 1 109.50000 418.400000
1115 15350 10501 1 109.50000 418.400000
10150 15350 10207 1 109.50000 418.400000
10150 15350 10501 1 109.50000 418.400000
10207 15350 10501 1 109.50000 418.400000
3967 15351 7502 1 109.50000 418.400000
3967 15351 8453 1 109.50000 418.400000
3967 15351 10289 1 109.50000 418.400000
7502 15351 8453 1 109.50000 418.400000
7502 15351 10289 1 109.50000 418.400000
8453 15351 10289 1 109.50000 418.400000
908 15352 1924 1 109.50000 418.400000
908 15352 1925 1 109.50000 418.400000
908 15352 3846 1 109.50000 418.400000
1924 15352 1925 1 109.50000 418.400000
1924 15352 3846 1 109.50000 418.400000
1925 15352 3846 1 109.50000 418.400000
5557 15353 8202 1 109.50000 418.400000
5557 15353 9729 1 109.50000 418.400000
5557 15353 9898 1 109.50000 418.400000
8202 15353 9729 1 109.50000 418.400000
8202 15353 9898 1 109.50000 418.400000
9729 15353 9898 1 109.50000 418.400000
1982 15354 6969 1 109.50000 418.400000
1982 15354 10502 1 109.50000 418.400000
1982 15354 10503 1 109.50000 418.400000
6969 15354 10502 1 109.50000 418.400000
6969 15354 10503 1 109.50000 418.400000
10502 15354 10503 1 109.50000 418.400000
3692 15355 7804 1 109.50000 418.400000
3692 15355 8027 1 109.50000 418.400000
3692 15355 10451 1 109.50000 418.400000
7804 15355 8027 1 109.50000 418.400000
7804 15355 10451 1 109.50000 418.400000
8027 15355 10451 1 109.50000 418.400000
2692 15356 5059 1 109.50000 418.400000
2692 15356 5061 1 109.50000 418.400000
2692 15356 10504 1 109.50000 418.400000
5059 15356 5061 1 109.50000 418.400000
5059 15356 10504 1 109.50000 418.400000
5061 15356 10504 1 109.50000 418.400000
384 15357 9948 1 109.50000 418.400000
384 15357 10505 1 109.50000 418.400000
384 15357 10506 1 109.50000 418.400000
9948 15357 10505 1 109.50000 418.400000
9948 15357 10506 1 109.50000 418.400000
10505 15357 10506 1 109.50000 418.400000
5306 15358 9550 1 109.50000 418.400000
5306 15358 10166 1 109.50000 418.400000
5306 15358 10507 1 109.50000 418.400000
9550 15358 10166 1 109.50000 418.400000
9550 15358 10507 1 109.50000 418.400000
10166 15358 10507 1 109.50000 418.400000
851 15359 1048 1 109.50000 418.400000
851 15359 7719 1 109.50000 418.400000
851 15359 10331 1 109.50000 418.400000
1048 15359 7719 1 109.50000 418.400000
1048 15359 10331 1 109.50000 418.400000
7719 15359 10331 1 109.50000 418.400000
2167 15360 3141 1 109.50000 418.400000
2167 15360 6090 1 109.50000 418.400000
2167 15360 6324 1 109.50000 418.400000
3141 15360 6090 1 109.50000 418.400000
3141 15360 6324 1 109.50000 418.400000
6090 15360 6324 1 109.50000 418.400000
10006 15361 10509 1 109.50000 418.400000
10006 15361 10510 1 109.50000 418.400000
10006 15361 10511 1 109.50000 418.400000
10509 15361 10510 1 109.50000 418.400000
10509 15361 10511 1 109.50000 418.400000
10510 15361 10511 1 109.50000 418.400000
916 15362 956 1 109.50000 418.400000
916 15362 6467 1 109.50000 418.400000
916 15362 9614 1 109.50000 418.400000
956 15362 6467 1 109.50000 418.400000
956 15362 9614 1 109.50000 418.400000
6467 15362 9614 1 109.50000 418.400000
3377 15363 4953 1 109.50000 418.400000
3377 15363 6929 1 109.50000 418.400000
3377 15363 10512 1 109.50000 418.400000
4953 15363 6929 1 109.50000 418.400000
4953 15363 10512 1 109.50000 418.400000
6929 15363 10512 1 109.50000 418.400000
190 15364 1003 1 109.50000 418.400000
190 15364 3612 1 109.50000 418.400000
190 15364 8408 1 109.50000 418.400000
1003 15364 3612 1 109.50000 418.400000
1003 15364 8408 1 109.50000 418.400000
3612 15364 8408 1 109.50000 418.400000
2860 15365 8565 1 109.50000 418.400000
2860 15365 10515 1 109.50000 418.400000
2860 15365 10516 1 109.50000 418.400000
8565 15365 10515 1 109.50000 418.400000
8565 15365 10516 1 109.50000 418.400000
10515 15365 10516 1 109.50000 418.400000
522 15366 6758 1 109.50000 418.400000
522 15366 7316 1 109.50000 418.400000
522 15366 10517 1 109.50000 418.400000
6758 15366 7316 1 109.50000 418.400000
6758 15366 10517 1 109.50000 418.400000
7316 15366 10517 1 109.50000 418.400000
1033 15367 5554 1 109.50000 418.400000
1033 15367 6135 1 109.50000 418.400000
1033 15367 9179 1 109.50000 418.400000
5554 15367 6135 1 109.50000 418.400000
5554 15367 9179 1 109.50000 418.400000
6135 15367 9179 1 109.50000 418.400000
5824 15368 5825 1 109.50000 418.400000
5824 15368 5921 1 109.50000 418.400000
5824 15368 10519 1 109.50000 418.400000
5825 15368 5921 1 109.50000 418.400000
5825 15368 10519 1 109.50000 418.400000
5921 15368 10519 1 109.50000 418.400000
4642 15369 9312 1 109.50000 418.400000
4642 15369 9983 1 109.50000 418.400000
4642 15369 10520 1 109.50000 418.400000
9312 15369 9983 1 109.50000 418.400000
9312 15369 10520 1 109.50000 418.400000
9983 15369 10520 1 109.50000 418.400000
1138 15370 5613 1 109.50000 418.400000
1138 15370 5960 1 109.50000 418.400000
1138 15370 9657 1 109.50000 418.400000
5613 15370 5960 1 109.50000 418.400000
5613 15370 9657 1 109.50000 418.400000
5960 15370 9657 1 109.50000 418.400000
5520 15371 10398 1 109.50000 418.400000
5520 15371 10522 1 109.50000 418.400000
5520 15371 10523 1 109.50000 418.400000
10398 15371 10522 1 109.50000 418.400000
10398 15371 10523 1 109.50000 418.400000
10522 15371 10523 1 109.50000 418.400000
4798 15372 6333 1 109.50000 418.400000
4798 15372 8425 1 109.50000 418.400000
4798 15372 8839 1 109.50000 418.400000
6333 15372 8425 1 109.50000 418.400000
6333 15372 8839 1 109.50000 418.400000
8425 15372 8839 1 109.50000 418.400000
5658 15373 10447 1 109.50000 418.400000
5658 15373 10524 1 109.50000 418.400000
5658 15373 10525 1 109.50000 418.400000
10447 15373 10524 1 109.50000 418.400000
10447 15373 10525 1 109.50000 418.400000
10524 15373 10525 1 109.50000 418.400000
6771 15374 9040 1 109.50000 418.400000
6771 15374 9325 1 109.50000 418.400000
6771 15374 10526 1 109.50000 418.400000
9040 15374 9325 1 109.50000 418.400000
9040 15374 10526 1 109.50000 418.400000
9325 15374 10526 1 109.50000 418.400000
1418 15375 3305 1 109.50000 418.400000
1418 15375 3516 1 109.50000 418.400000
1418 15375 4147 1 109.50000 418.400000
3305 15375 3516 1 109.50000 418.400000
3305 15375 4147 1 109.50000 418.400000
3516 15375 4147 1 109.50000 418.400000
6612 15376 9076 1 109.50000 418.400000
6612 15376 10373 1 109.50000 418.400000
6612 15376 10527 1 109.50000 418.400000
9076 15376 10373 1 109.50000 418.400000
9076 15376 10527 1 109.50000 418.400000
10373 15376 10527 1 109.50000 418.400000
2353 15377 8421 1 109.50000 418.400000
2353 15377 8847 1 109.50000 418.400000
2353 15377 10528 1 109.50000 418.400000
8421 15377 8847 1 109.50000 418.400000
8421 15377 10528 1 109.50000 418.400000
8847 15377 10528 1 109.50000 418.400000
8436 15378 9330 1 109.50000 418.400000
8436 15378 10051 1 109.50000 418.400000
8436 15378 10171 1 109.50000 418.400000
9330 15378 10051 1 109.50000 418.400000
9330 15378 10171 1 109.50000 418.400000
10051 15378 10171 1 109.50000 418.400000
1906 15379 5364 1 109.50000 418.400000
1906 15379 10482 1 109.50000 418.400000
1906 15379 10529 1 109.50000 418.400000
5364 15379 10482 1 109.50000 418.400000
5364 15379 10529 1 109.50000 418.400000
10482 15379 10529 1 109.50000 418.400000
7042 15380 7431 1 109.50000 418.400000
7042 15380 7432 1 109.50000 418.400000
7042 15380 10530 1 109.50000 418.400000
7431 15380 7432 1 109.50000 418.400000
7431 15380 10530 1 109.50000 418.400000
7432 15380 10530 1 109.50000 418.400000
4589 15381 4590 1 109.50000 418.400000
4589 15381 4591 1 109.50000 418.400000
4589 15381 4592 1 109.50000 418.400000
4590 15381 4591 1 109.50000 418.400000
4590 15381 4592 1 109.50000 418.400000
4591 15381 4592 1 109.50000 418.400000
2050 15382 5022 1 109.50000 418.400000
2050 15382 9619 1 109.50000 418.400000
2050 15382 9988 1 109.50000 418.400000
5022 15382 9619 1 109.50000 418.400000
5022 15382 9988 1 109.50000 418.400000
9619 15382 9988 1 109.50000 418.400000
3107 15383 3108 1 109.50000 418.400000
3107 15383 8883 1 109.50000 418.400000
3107 15383 10533 1 109.50000 418.400000
3108 15383 8883 1 109.50000 418.400000
3108 15383 10533 1 109.50000 418.400000
8883 15383 10533 1 109.50000 418.400000
3916 15384 7272 1 109.50000 418.400000
3916 15384 10534 1 109.50000 418.400000
3916 15384 10535 1 109.50000 418.400000
7272 15384 10534 1 109.50000 418.400000
7272 15384 10535 1 109.50000 418.400000
10534 15384 10535 1 109.50000 418.400000
2295 15385 3121 1 109.50000 418.400000
2295 15385 4767 1 109.50000 418.400000
2295 15385 10536 1 109.50000 418.400000
3121 15385 4767 1 109.50000 418.400000
3121 15385 10536 1 109.50000 418.400000
4767 15385 10536 1 109.50000 418.400000
4099 15386 8229 1 109.50000 418.400000
4099 15386 9169 1 109.50000 418.400000
4099 15386 10537 1 109.50000 418.400000
8229 15386 9169 1 109.50000 418.400000
8229 15386 10537 1 109.50000 418.400000
9169 15386 10537 1 109.50000 418.400000
4248 15387 6373 1 109.50000 418.400000
4248 15387 9742 1 109.50000 418.400000
4248 15387 10538 1 109.50000 418.400000
6373 15387 9742 1 109.50000 418.400000
6373 15387 10538 1 109.50000 418.400000
9742 15387 10538 1 109.50000 418.400000
1825 15388 6002 1 109.50000 418.400000
1825 15388 9226 1 109.50000 418.400000
1825 15388 10539 1 109.50000 418.400000
6002 15388 9226 1 109.50000 418.400000
6002 15388 10539 1 109.50000 418.400000
9226 15388 10539 1 109.50000 418.400000
1267 15389 1846 1 109.50000 418.400000
1267 15389 8972 1 109.50000 418.400000
1267 15389 10540 1 109.50000 418.400000
1846 15389 8972 1 109.50000 418.400000
1846 15389 10540 1 109.50000 418.400000
8972 15389 10540 1 109.50000 418.400000
3280 15390 10304 1 109.50000 418.400000
3280 15390 10541 1 109.50000 418.400000
3280 15390 10542 1 109.50000 418.400000
10304 15390 10541 1 109.50000 418.400000
10304 15390 10542 1 109.50000 418.400000
10541 15390 10542 1 109.50000 418.400000
4471 15391 7494 1 109.50000 418.400000
4471 15391 8023 1 109.50000 418.400000
4471 15391 10543 1 109.50000 418.400000
7494 15391 8023 1 109.50000 418.400000
7494 15391 10543 1 109.50000 418.400000
8023 15391 10543 1 109.50000 418.400000
8313 15392 8315 1 109.50000 418.400000
8313 15392 10516 1 109.50000 418.400000
8313 15392 10544 1 109.50000 418.400000
8315 15392 10516 1 109.50000 418.400000
8315 15392 10544 1 109.50000 418.400000
10516 15392 10544 1 109.50000 418.400000
779 15393 9193 1 109.50000 418.400000
779 15393 11184 1 109.50000 418.400000
779 15393 11233 1 109.50000 418.400000
9193 15393 11184 1 109.50000 418.400000
9193 15393 11233 1 109.50000 418.400000
11184 15393 11233 1 109.50000 418.400000
7688 15394 9124 1 109.50000 418.400000
7688 15394 10032 1 109.50000 418.400000
7688 15394 10545 1 109.50000 418.400000
9124 15394 10032 1 109.50000 418.400000
9124 15394 10545 1 109.50000 418.400000
10032 15394 10545 1 109.50000 418.400000
4071 15395 4438 1 109.50000 418.400000
4071 15395 10546 1 109.50000 418.400000
4071 15395 10547 1 109.50000 418.400000
4438 15395 10546 1 109.50000 418.400000
4438 15395 10547 1 109.50000 418.400000
10546 15395 10547 1 109.50000 418.400000
2337 15396 2339 1 109.50000 418.400000
2337 15396 2340 1 109.50000 418.400000
2337 15396 10548 1 109.50000 418.400000
2339 15396 2340 1 109.50000 418.400000
2339 15396 10548 1 109.50000 418.400000
2340 15396 10548 1 109.50000 418.400000
31 15397 10549 1 109.50000 418.400000
31 15397 11194 1 109.50000 418.400000
31 15397 11288 1 109.50000 418.400000
10549 15397 11194 1 109.50000 418.400000
10549 15397 11288 1 109.50000 418.400000
11194 15397 11288 1 109.50000 418.400000
3375 15398 10550 1 109.50000 418.400000
3375 15398 10551 1 109.50000 418.400000
3375 15398 10552 1 109.50000 418.400000
10550 15398 10551 1 109.50000 418.400000
10550 15398 10552 1 109.50000 418.400000
10551 15398 10552 1 109.50000 418.400000
6628 15399 7326 1 109.50000 418.400000
6628 15399 10243 1 109.50000 418.400000
6628 15399 10252 1 109.50000 418.400000
7326 15399 10243 1 109.50000 418.400000
7326 15399 10252 1 109.50000 418.400000
10243 15399 10252 1 109.50000 418.400000
4820 15400 5515 1 109.50000 418.400000
4820 15400 9136 1 109.50000 418.400000
4820 15400 10553 1 109.50000 418.400000
5515 15400 9136 1 109.50000 418.400000
5515 15400 10553 1 109.50000 418.400000
9136 15400 10553 1 109.50000 418.400000
2194 15401 8668 1 109.50000 418.400000
2194 15401 10554 1 109.50000 418.400000
2194 15401 10555 1 109.50000 418.400000
8668 15401 10554 1 109.50000 418.400000
8668 15401 10555 1 109.50000 418.400000
10554 15401 10555 1 109.50000 418.400000
2544 15402 10556 1 109.50000 418.400000
2544 15402 10557 1 109.50000 418.400000
2544 15402 10558 1 109.50000 418.400000
10556 15402 10557 1 109.50000 418.400000
10556 15402 10558 1 109.50000 418.400000
10557 15402 10558 1 109.50000 418.400000
298 15403 8141 1 109.50000 418.400000
298 15403 10295 1 109.50000 418.400000
298 15403 10486 1 109.50000 418.400000
8141 15403 10295 1 109.50000 418.400000
8141 15403 10486 1 109.50000 418.400000
10295 15403 10486 1 109.50000 418.400000
3125 15404 9116 1 109.50000 418.400000
3125 15404 10380 1 109.50000 418.400000
3125 15404 10559 1 109.50000 418.400000
9116 15404 10380 1 109.50000 418.400000
9116 15404 10559 1 109.50000 418.400000
10380 15404 10559 1 109.50000 418.400000
7871 15405 10562 1 109.50000 418.400000
7871 15405 10563 1 109.50000 418.400000
7871 15405 10564 1 109.50000 418.400000
10562 15405 10563 1 109.50000 418.400000
10562 15405 10564 1 109.50000 418.400000
10563 15405 10564 1 109.50000 418.400000
1553 15406 6858 1 109.50000 418.400000
1553 15406 9887 1 109.50000 418.400000
1553 15406 10565 1 109.50000 418.400000
6858 15406 9887 1 109.50000 418.400000
6858 15406 10565 1 109.50000 418.400000
9887 15406 10565 1 109.50000 418.400000
4358 15407 7137 1 109.50000 418.400000
4358 15407 7817 1 109.50000 418.400000
4358 15407 10566 1 109.50000 418.400000
7137 15407 7817 1 109.50000 418.400000
7137 15407 10566 1 109.50000 418.400000
7817 15407 10566 1 109.50000 418.400000
1525 15408 8743 1 109.50000 418.400000
1525 15408 10233 1 109.50000 418.400000
1525 15408 10568 1 109.50000 418.400000
8743 15408 10233 1 109.50000 418.400000
8743 15408 10568 1 109.50000 418.400000
10233 15408 10568 1 109.50000 418.400000
6006 15409 9919 1 109.50000 418.400000
6006 15409 10569 1 109.50000 418.400000
6006 15409 10570 1 109.50000 418.400000
9919 15409 10569 1 109.50000 418.400000
9919 15409 10570 1 109.50000 418.400000
10569 15409 10570 1 109.50000 418.400000
514 15410 3976 1 109.50000 418.400000
514 15410 11218 1 109.50000 418.400000
514 15410 11300 1 109.50000 418.400000
3976 15410 11218 1 109.50000 418.400000
3976 15410 11300 1 109.50000 418.400000
11218 15410 11300 1 109.50000 418.400000
3924 15411 7261 1 109.50000 418.400000
3924 15411 9703 1 109.50000 418.400000
3924 15411 10571 1 109.50000 418.400000
7261 15411 9703 1 109.50000 418.400000
7261 15411 10571 1 109.50000 418.400000
9703 15411 10571 1 109.50000 418.400000
5174 15412 8482 1 109.50000 418.400000
5174 15412 9031 1 109.50000 418.400000
5174 15412 10558 1 109.50000 418.400000
8482 15412 9031 1 109.50000 418.400000
8482 15412 10558 1 109.50000 418.400000
9031 15412 10558 1 109.50000 418.400000
534 15413 4768 1 109.50000 418.400000
534 15413 6171 1 109.50000 418.400000
534 15413 10009 1 109.50000 418.400000
4768 15413 6171 1 109.50000 418.400000
4768 15413 10009 1 109.50000 418.400000
6171 15413 10009 1 109.50000 418.400000
2169 15414 6712 1 109.50000 418.400000
2169 15414 8060 1 109.50000 418.400000
2169 15414 10573 1 109.50000 418.400000
6712 15414 8060 1 109.50000 418.400000
6712 15414 10573 1 109.50000 418.400000
8060 15414 10573 1 109.50000 418.400000
4666 15415 9753 1 109.50000 418.400000
4666 15415 10506 1 109.50000 418.400000
4666 15415 10574 1 109.50000 418.400000
9753 15415 10506 1 109.50000 418.400000
9753 15415 10574 1 109.50000 418.400000
10506 15415 10574 1 109.50000 418.400000
9303 15416 10575 1 109.50000 418.400000
9303 15416 10576 1 109.50000 418.400000
9303 15416 10577 1 109.50000 418.400000
10575 15416 10576 1 109.50000 418.400000
10575 15416 10577 1 109.50000 418.400000
10576 15416 10577 1 109.50000 418.400000
1358 15417 2035 1 109.50000 418.400000
1358 15417 3304 1 109.50000 418.400000
1358 15417 5865 1 109.50000 418.400000
2035 15417 3304 1 109.50000 418.400000
2035 15417 5865 1 109.50000 418.400000
3304 15417 5865 1 109.50000 418.400000
1350 15418 1352 1 109.50000 418.400000
1350 15418 9334 1 109.50000 418.400000
1350 15418 10578 1 109.50000 418.400000
1352 15418 9334 1 109.50000 418.400000
1352 15418 10578 1 109.50000 418.400000
9334 15418 10578 1 109.50000 418.400000
498 15419 4909 1 109.50000 418.400000
498 15419 8118 1 109.50000 418.400000
498 15419 9495 1 109.50000 418.400000
4909 15419 8118 1 109.50000 418.400000
4909 15419 9495 1 109.50000 418.400000
8118 15419 9495 1 109.50000 418.400000
1860 15420 8059 1 109.50000 418.400000
1860 15420 10579 1 109.50000 418.400000
1860 15420 10580 1 109.50000 418.400000
8059 15420 10579 1 109.50000 418.400000
8059 15420 10580 1 109.50000 418.400000
10579 15420 10580 1 109.50000 418.400000
749 15421 7519 1 109.50000 418.400000
749 15421 9308 1 109.50000 418.400000
749 15421 10173 1 109.50000 418.400000
7519 15421 9308 1 109.50000 418.400000
7519 15421 10173 1 109.50000 418.400000
9308 15421 10173 1 109.50000 418.400000
827 15422 3336 1 109.50000 418.400000
827 15422 10314 1 109.50000 418.400000
827 15422 10583 1 109.50000 418.400000
3336 15422 10314 1 109.50000 418.400000
3336 15422 10583 1 109.50000 418.400000
10314 15422 10583 1 109.50000 418.400000
1513 15423 10262 1 109.50000 418.400000
1513 15423 10584 1 109.50000 418.400000
1513 15423 10585 1 109.50000 418.400000
10262 15423 10584 1 109.50000 418.400000
10262 15423 10585 1 109.50000 418.400000
10584 15423 10585 1 109.50000 418.400000
8249 15424 9072 1 109.50000 418.400000
8249 15424 10316 1 109.50000 418.400000
8249 15424 10586 1 109.50000 418.400000
9072 15424 10316 1 109.50000 418.400000
9072 15424 10586 1 109.50000 418.400000
10316 15424 10586 1 109.50000 418.400000
4110 15425 4812 1 109.50000 418.400000
4110 15425 9873 1 109.50000 418.400000
4110 15425 10588 1 109.50000 418.400000
4812 15425 9873 1 109.50000 418.400000
4812 15425 10588 1 109.50000 418.400000
9873 15425 10588 1 109.50000 418.400000
3526 15426 4610 1 109.50000 418.400000
3526 15426 6491 1 109.50000 418.400000
3526 15426 9551 1 109.50000 418.400000
4610 15426 6491 1 109.50000 418.400000
4610 15426 9551 1 109.50000 418.400000
6491 15426 9551 1 109.50000 418.400000
884 15427 5647 1 109.50000 418.400000
884 15427 8128 1 109.50000 418.400000
884 15427 8348 1 109.50000 418.400000
5647 15427 8128 1 109.50000 418.400000
5647 15427 8348 1 109.50000 418.400000
8128 15427 8348 1 109.50000 418.400000
636 15428 4170 1 109.50000 418.400000
636 15428 8775 1 109.50000 418.400000
636 15428 10589 1 109.50000 418.400000
4170 15428 8775 1 109.50000 418.400000
4170 15428 10589 1 109.50000 418.400000
8775 15428 10589 1 109.50000 418.400000
794 15429 7801 1 109.50000 418.400000
794 15429 8113 1 109.50000 418.400000
794 15429 10590 1 109.50000 418.400000
7801 15429 8113 1 109.50000 418.400000
7801 15429 10590 1 109.50000 418.400000
8113 15429 10590 1 109.50000 418.400000
1184 15430 3868 1 109.50000 418.400000
1184 15430 4616 1 109.50000 418.400000
1184 15430 8197 1 109.50000 418.400000
3868 15430 4616 1 109.50000 418.400000
3868 15430 8197 1 109.50000 418.400000
4616 15430 8197 1 109.50000 418.400000
4348 15431 6540 1 109.50000 418.400000
4348 15431 8165 1 109.50000 418.400000
4348 15431 10594 1 109.50000 418.400000
6540 15431 8165 1 109.50000 418.400000
6540 15431 10594 1 109.50000 418.400000
8165 15431 10594 1 109.50000 418.400000
1140 15432 5803 1 109.50000 418.400000
1140 15432 9840 1 109.50000 418.400000
1140 15432 10595 1 109.50000 418.400000
5803 15432 9840 1 109.50000 418.400000
5803 15432 10595 1 109.50000 418.400000
9840 15432 10595 1 109.50000 418.400000
8329 15433 9014 1 109.50000 418.400000
8329 15433 10530 1 109.50000 418.400000
8329 15433 10596 1 109.50000 418.400000
9014 15433 10530 1 109.50000 418.400000
9014 15433 10596 1 109.50000 418.400000
10530 15433 10596 1 109.50000 418.400000
3881 15434 4476 1 109.50000 418.400000
3881 15434 10508 1 109.50000 418.400000
3881 15434 10597 1 109.50000 418.400000
4476 15434 10508 1 109.50000 418.400000
4476 15434 10597 1 109.50000 418.400000
10508 15434 10597 1 109.50000 418.400000
5108 15435 7532 1 109.50000 418.400000
5108 15435 10478 1 109.50000 418.400000
5108 15435 10598 1 109.50000 418.400000
7532 15435 10478 1 109.50000 418.400000
7532 15435 10598 1 109.50000 418.400000
10478 15435 10598 1 109.50000 418.400000
1408 15436 3486 1 109.50000 418.400000
1408 15436 7430 1 109.50000 418.400000
1408 15436 10599 1 109.50000 418.400000
3486 15436 7430 1 109.50000 418.400000
3486 15436 10599 1 109.50000 418.400000
7430 15436 10599 1 109.50000 418.400000
2478 15437 4142 1 109.50000 418.400000
2478 15437 10600 1 109.50000 418.400000
2478 15437 10601 1 109.50000 418.400000
4142 15437 10600 1 109.50000 418.400000
4142 15437 10601 1 109.50000 418.400000
10600 15437 10601 1 109.50000 418.400000
1971 15438 5428 1 109.50000 418.400000
1971 15438 10312 1 109.50000 418.400000
1971 15438 11324 1 109.50000 418.400000
5428 15438 10312 1 109.50000 418.400000
5428 15438 11324 1 109.50000 418.400000
10312 15438 11324 1 109.50000 418.400000
3183 15439 6937 1 109.50000 418.400000
3183 15439 8350 1 109.50000 418.400000
3183 15439 10566 1 109.50000 418.400000
6937 15439 8350 1 109.50000 418.400000
6937 15439 10566 1 109.50000 418.400000
8350 15439 10566 1 109.50000 418.400000
1748 15440 6738 1 109.50000 418.400000
1748 15440 6981 1 109.50000 418.400000
1748 15440 9900 1 109.50000 418.400000
6738 15440 6981 1 109.50000 418.400000
6738 15440 9900 1 109.50000 418.400000
6981 15440 9900 1 109.50000 418.400000
5461 15441 8471 1 109.50000 418.400000
5461 15441 9234 1 109.50000 418.400000
5461 15441 10602 1 109.50000 418.400000
8471 15441 9234 1 109.50000 418.400000
8471 15441 10602 1 109.50000 418.400000
9234 15441 10602 1 109.50000 418.400000
6938 15442 10068 1 109.50000 418.400000
6938 15442 10603 1 109.50000 418.400000
6938 15442 10604 1 109.50000 418.400000
10068 15442 10603 1 109.50000 418.400000
10068 15442 10604 1 109.50000 418.400000
10603 15442 10604 1 109.50000 418.400000
6763 15443 6773 1 109.50000 418.400000
6763 15443 9970 1 109.50000 418.400000
6763 15443 10605 1 109.50000 418.400000
6773 15443 9970 1 109.50000 418.400000
6773 15443 10605 1 109.50000 418.400000
9970 15443 10605 1 109.50000 418.400000
4524 15444 8510 1 109.50000 418.400000
4524 15444 8959 1 109.50000 418.400000
4524 15444 10606 1 109.50000 418.400000
8510 15444 8959 1 109.50000 418.400000
8510 15444 10606 1 109.50000 418.400000
8959 15444 10606 1 109.50000 418.400000
3946 15445 4479 1 109.50000 418.400000
3946 15445 10607 1 109.50000 418.400000
3946 15445 11359 1 109.50000 418.400000
4479 15445 10607 1 109.50000 418.400000
4479 15445 11359 1 109.50000 418.400000
10607 15445 11359 1 109.50000 418.400000
4351 15446 4669 1 109.50000 418.400000
4351 15446 7078 1 109.50000 418.400000
4351 15446 7337 1 109.50000 418.400000
4669 15446 7078 1 109.50000 418.400000
4669 15446 7337 1 109.50000 418.400000
7078 15446 7337 1 109.50000 418.400000
2839 15447 9765 1 109.50000 418.400000
2839 15447 11224 1 109.50000 418.400000
2839 15447 11355 1 109.50000 418.400000
9765 15447 11224 1 109.50000 418.400000
9765 15447 11355 1 109.50000 418.400000
11224 15447 11355 1 109.50000 418.400000
326 15448 2174 1 109.50000 418.400000
326 15448 8260 1 109.50000 418.400000
326 15448 9627 1 109.50000 418.400000
2174 15448 8260 1 109.50000 418.400000
2174 15448 9627 1 109.50000 418.400000
8260 15448 9627 1 109.50000 418.400000
3970 15449 7312 1 109.50000 418.400000
3970 15449 10608 1 109.50000 418.400000
3970 15449 10609 1 109.50000 418.400000
7312 15449 10608 1 109.50000 418.400000
7312 15449 10609 1 109.50000 418.400000
10608 15449 10609 1 109.50000 418.400000
8354 15450 10591 1 109.50000 418.400000
8354 15450 10610 1 109.50000 418.400000
8354 15450 10611 1 109.50000 418.400000
10591 15450 10610 1 109.50000 418.400000
10591 15450 10611 1 109.50000 418.400000
10610 15450 10611 1 109.50000 418.400000
6134 15451 7281 1 109.50000 418.400000
6134 15451 7282 1 109.50000 418.400000
6134 15451 8964 1 109.50000 418.400000
7281 15451 7282 1 109.50000 418.400000
7281 15451 8964 1 109.50000 418.400000
7282 15451 8964 1 109.50000 418.400000
6596 15452 10585 1 109.50000 418.400000
6596 15452 10612 1 109.50000 418.400000
6596 15452 10613 1 109.50000 418.400000
10585 15452 10612 1 109.50000 418.400000
10585 15452 10613 1 109.50000 418.400000
10612 15452 10613 1 109.50000 418.400000
575 15453 6299 1 109.50000 418.400000
575 15453 8859 1 109.50000 418.400000
575 15453 10251 1 109.50000 418.400000
6299 15453 8859 1 109.50000 418.400000
6299 15453 10251 1 109.50000 418.400000
8859 15453 10251 1 109.50000 418.400000
1598 15454 7689 1 109.50000 418.400000
1598 15454 10257 1 109.50000 418.400000
1598 15454 10614 1 109.50000 418.400000
7689 15454 10257 1 109.50000 418.400000
7689 15454 10614 1 109.50000 418.400000
10257 15454 10614 1 109.50000 418.400000
4043 15455 9909 1 109.50000 418.400000
4043 15455 10382 1 109.50000 418.400000
4043 15455 10519 1 109.50000 418.400000
9909 15455 10382 1 109.50000 418.400000
9909 15455 10519 1 109.50000 418.400000
10382 15455 10519 1 109.50000 418.400000
586 15456 3442 1 109.50000 418.400000
586 15456 7274 1 109.50000 418.400000
586 15456 10615 1 109.50000 418.400000
3442 15456 7274 1 109.50000 418.400000
3442 15456 10615 1 109.50000 418.400000
7274 15456 10615 1 109.50000 418.400000
4122 15457 6022 1 109.50000 418.400000
4122 15457 8533 1 109.50000 418.400000
4122 15457 8951 1 109.50000 418.400000
6022 15457 8533 1 109.50000 418.400000
6022 15457 8951 1 109.50000 418.400000
8533 15457 8951 1 109.50000 418.400000
90 15458 3380 1 109.50000 418.400000
90 15458 5856 1 109.50000 418.400000
90 15458 11187 1 109.50000 418.400000
3380 15458 5856 1 109.50000 418.400000
3380 15458 11187 1 109.50000 418.400000
5856 15458 11187 1 109.50000 418.400000
627 15459 3898 1 109.50000 418.400000
627 15459 10323 1 109.50000 418.400000
627 15459 10616 1 109.50000 418.400000
3898 15459 10323 1 109.50000 418.400000
3898 15459 10616 1 109.50000 418.400000
10323 15459 10616 1 109.50000 418.400000
910 15460 4273 1 109.50000 418.400000
910 15460 10617 1 109.50000 418.400000
910 15460 10618 1 109.50000 418.400000
4273 15460 10617 1 109.50000 418.400000
4273 15460 10618 1 109.50000 418.400000
10617 15460 10618 1 109.50000 418.400000
1537 15461 3582 1 109.50000 418.400000
1537 15461 10430 1 109.50000 418.400000
1537 15461 10619 1 109.50000 418.400000
3582 15461 10430 1 109.50000 418.400000
3582 15461 10619 1 109.50000 418.400000
10430 15461 10619 1 109.50000 418.400000
7172 15462 7521 1 109.50000 418.400000
7172 15462 7522 1 109.50000 418.400000
7172 15462 8953 1 109.50000 418.400000
7521 15462 7522 1 109.50000 418.400000
7521 15462 8953 1 109.50000 418.400000
7522 15462 8953 1 109.50000 418.400000
2282 15463 6762 1 109.50000 418.400000
2282 15463 6763 1 109.50000 418.400000
2282 15463 10526 1 109.50000 418.400000
6762 15463 6763 1 109.50000 418.400000
6762 15463 10526 1 109.50000 418.400000
6763 15463 10526 1 109.50000 418.400000
4282 15464 9442 1 109.50000 418.400000
4282 15464 10620 1 109.50000 418.400000
4282 15464 10621 1 109.50000 418.400000
9442 15464 10620 1 109.50000 418.400000
9442 15464 10621 1 109.50000 418.400000
10620 15464 10621 1 109.50000 418.400000
2837 15465 6315 1 109.50000 418.400000
2837 15465 10008 1 109.50000 418.400000
2837 15465 10622 1 109.50000 418.400000
6315 15465 10008 1 109.50000 418.400000
6315 15465 10622 1 109.50000 418.400000
10008 15465 10622 1 109.50000 418.400000
10188 15466 10623 1 109.50000 418.400000
10188 15466 10624 1 109.50000 418.400000
10188 15466 10647 1 109.50000 418.400000
10623 15466 10624 1 109.50000 418.400000
10623 15466 10647 1 109.50000 418.400000
10624 15466 10647 1 109.50000 418.400000
8082 15467 8749 1 109.50000 418.400000
8082 15467 10147 1 109.50000 418.400000
8082 15467 10627 1 109.50000 418.400000
8749 15467 10147 1 109.50000 418.400000
8749 15467 10627 1 109.50000 418.400000
10147 15467 10627 1 109.50000 418.400000
5231 15468 5233 1 109.50000 418.400000
5231 15468 10629 1 109.50000 418.400000
5231 15468 10630 1 109.50000 418.400000
5233 15468 10629 1 109.50000 418.400000
5233 15468 10630 1 109.50000 418.400000
10629 15468 10630 1 109.50000 418.400000
336 15469 337 1 109.50000 418.400000
336 15469 339 1 109.50000 418.400000
336 15469 10631 1 109.50000 418.400000
337 15469 339 1 109.50000 418.400000
337 15469 10631 1 109.50000 418.400000
339 15469 10631 1 109.50000 418.400000
2699 15470 10076 1 109.50000 418.400000
2699 15470 10139 1 109.50000 418.400000
2699 15470 11320 1 109.50000 418.400000
10076 15470 10139 1 109.50000 418.400000
10076 15470 11320 1 109.50000 418.400000
10139 15470 11320 1 109.50000 418.400000
3277 15471 4188 1 109.50000 418.400000
3277 15471 7117 1 109.50000 418.400000
3277 15471 9737 1 109.50000 418.400000
4188 15471 7117 1 109.50000 418.400000
4188 15471 9737 1 109.50000 418.400000
7117 15471 9737 1 109.50000 418.400000
602 15472 716 1 109.50000 418.400000
602 15472 717 1 109.50000 418.400000
602 15472 9198 1 109.50000 418.400000
716 15472 717 1 109.50000 418.400000
716 15472 9198 1 109.50000 418.400000
717 15472 9198 1 109.50000 418.400000
2418 15473 6080 1 109.50000 418.400000
2418 15473 10432 1 109.50000 418.400000
2418 15473 10632 1 109.50000 418.400000
6080 15473 10432 1 109.50000 418.400000
6080 15473 10632 1 109.50000 418.400000
10432 15473 10632 1 109.50000 418.400000
387 15474 6430 1 109.50000 418.400000
387 15474 10142 1 109.50000 418.400000
387 15474 10633 1 109.50000 418.400000
6430 15474 10142 1 109.50000 418.400000
6430 15474 10633 1 109.50000 418.400000
10142 15474 10633 1 109.50000 418.400000
3229 15475 8247 1 109.50000 418.400000
3229 15475 8301 1 109.50000 418.400000
3229 15475 10121 1 109.50000 418.400000
8247 15475 8301 1 109.50000 418.400000
8247 15475 10121 1 109.50000 418.400000
8301 15475 10121 1 109.50000 418.400000
1512 15476 10342 1 109.50000 418.400000
1512 15476 10627 1 109.50000 418.400000
1512 15476 10634 1 109.50000 418.400000
10342 15476 10627 1 109.50000 418.400000
10342 15476 10634 1 109.50000 418.400000
10627 15476 10634 1 109.50000 418.400000
1061 15477 2228 1 109.50000 418.400000
1061 15477 3426 1 109.50000 418.400000
1061 15477 7005 1 109.50000 418.400000
2228 15477 3426 1 109.50000 418.400000
2228 15477 7005 1 109.50000 418.400000
3426 15477 7005 1 109.50000 418.400000
4566 15478 10131 1 109.50000 418.400000
4566 15478 10635 1 109.50000 418.400000
4566 15478 10636 1 109.50000 418.400000
10131 15478 10635 1 109.50000 418.400000
10131 15478 10636 1 109.50000 418.400000
10635 15478 10636 1 109.50000 418.400000
6153 15479 7610 1 109.50000 418.400000
6153 15479 8341 1 109.50000 418.400000
6153 15479 10485 1 109.50000 418.400000
7610 15479 8341 1 109.50000 418.400000
7610 15479 10485 1 109.50000 418.400000
8341 15479 10485 1 109.50000 418.400000
1332 15480 7959 1 109.50000 418.400000
1332 15480 9628 1 109.50000 418.400000
1332 15480 10637 1 109.50000 418.400000
7959 15480 9628 1 109.50000 418.400000
7959 15480 10637 1 109.50000 418.400000
9628 15480 10637 1 109.50000 418.400000
4582 15481 4619 1 109.50000 418.400000
4582 15481 6934 1 109.50000 418.400000
4582 15481 10638 1 109.50000 418.400000
4619 15481 6934 1 109.50000 418.400000
4619 15481 10638 1 109.50000 418.400000
6934 15481 10638 1 109.50000 418.400000
10639 15482 10640 1 109.50000 418.400000
10639 15482 10641 1 109.50000 418.400000
10639 15482 10642 1 109.50000 418.400000
10640 15482 10641 1 109.50000 418.400000
10640 15482 10642 1 109.50000 418.400000
10641 15482 10642 1 109.50000 418.400000
2352 15483 6169 1 109.50000 418.400000
2352 15483 9994 1 109.50000 418.400000
2352 15483 10643 1 109.50000 418.400000
6169 15483 9994 1 109.50000 418.400000
6169 15483 10643 1 109.50000 418.400000
9994 15483 10643 1 109.50000 418.400000
1487 15484 8677 1 109.50000 418.400000
1487 15484 9791 1 109.50000 418.400000
1487 15484 10644 1 109.50000 418.400000
8677 15484 9791 1 109.50000 418.400000
8677 15484 10644 1 109.50000 418.400000
9791 15484 10644 1 109.50000 418.400000
4749 15485 8505 1 109.50000 418.400000
4749 15485 8935 1 109.50000 418.400000
4749 15485 10361 1 109.50000 418.400000
8505 15485 8935 1 109.50000 418.400000
8505 15485 10361 1 109.50000 418.400000
8935 15485 10361 1 109.50000 418.400000
3552 15486 4699 1 109.50000 418.400000
3552 15486 6692 1 109.50000 418.400000
3552 15486 10552 1 109.50000 418.400000
4699 15486 6692 1 109.50000 418.400000
4699 15486 10552 1 109.50000 418.400000
6692 15486 10552 1 109.50000 418.400000
4246 15487 4486 1 109.50000 418.400000
4246 15487 10645 1 109.50000 418.400000
4246 15487 10646 1 109.50000 418.400000
4486 15487 10645 1 109.50000 418.400000
4486 15487 10646 1 109.50000 418.400000
10645 15487 10646 1 109.50000 418.400000
6830 15488 8292 1 109.50000 418.400000
6830 15488 9759 1 109.50000 418.400000
6830 15488 10647 1 109.50000 418.400000
8292 15488 9759 1 109.50000 418.400000
8292 15488 10647 1 109.50000 418.400000
9759 15488 10647 1 109.50000 418.400000
3726 15489 6710 1 109.50000 418.400000
3726 15489 9077 1 109.50000 418.400000
3726 15489 10648 1 109.50000 418.400000
6710 15489 9077 1 109.50000 418.400000
6710 15489 10648 1 109.50000 418.400000
9077 15489 10648 1 109.50000 418.400000
2588 15490 5888 1 109.50000 418.400000
2588 15490 10276 1 109.50000 418.400000
2588 15490 10649 1 109.50000 418.400000
5888 15490 10276 1 109.50000 418.400000
5888 15490 10649 1 109.50000 418.400000
10276 15490 10649 1 109.50000 418.400000
4917 15491 5769 1 109.50000 418.400000
4917 15491 7647 1 109.50000 418.400000
4917 15491 10650 1 109.50000 418.400000
5769 15491 7647 1 109.50000 418.400000
5769 15491 10650 1 109.50000 418.400000
7647 15491 10650 1 109.50000 418.400000
4439 15492 6909 1 109.50000 418.400000
4439 15492 9574 1 109.50000 418.400000
4439 15492 11165 1 109.50000 418.400000
6909 15492 9574 1 109.50000 418.400000
6909 15492 11165 1 109.50000 418.400000
9574 15492 11165 1 109.50000 418.400000
5539 15493 5724 1 109.50000 418.400000
5539 15493 10651 1 109.50000 418.400000
5539 15493 10652 1 109.50000 418.400000
5724 15493 10651 1 109.50000 418.400000
5724 15493 10652 1 109.50000 418.400000
10651 15493 10652 1 109.50000 418.400000
218 15494 3678 1 109.50000 418.400000
218 15494 7065 1 109.50000 418.400000
218 15494 10653 1 109.50000 418.400000
3678 15494 7065 1 109.50000 418.400000
3678 15494 10653 1 109.50000 418.400000
7065 15494 10653 1 109.50000 418.400000
4897 15495 9483 1 109.50000 418.400000
4897 15495 10604 1 109.50000 418.400000
4897 15495 10654 1 109.50000 418.400000
9483 15495 10604 1 109.50000 418.400000
9483 15495 10654 1 109.50000 418.400000
10604 15495 10654 1 109.50000 418.400000
2765 15496 10655 1 109.50000 418.400000
2765 15496 10656 1 109.50000 418.400000
2765 15496 10657 1 109.50000 418.400000
10655 15496 10656 1 109.50000 418.400000
10655 15496 10657 1 109.50000 418.400000
10656 15496 10657 1 109.50000 418.400000
5128 15497 7171 1 109.50000 418.400000
5128 15497 10538 1 109.50000 418.400000
5128 15497 10658 1 109.50000 418.400000
7171 15497 10538 1 109.50000 418.400000
7171 15497 10658 1 109.50000 418.400000
10538 15497 10658 1 109.50000 418.400000
97 15498 932 1 109.50000 418.400000
97 15498 5185 1 109.50000 418.400000
97 15498 8705 1 109.50000 418.400000
932 15498 5185 1 109.50000 418.400000
932 15498 8705 1 109.50000 418.400000
5185 15498 8705 1 109.50000 418.400000
5497 15499 9305 1 109.50000 418.400000
5497 15499 10035 1 109.50000 418.400000
5497 15499 10540 1 109.50000 418.400000
9305 15499 10035 1 109.50000 418.400000
9305 15499 10540 1 109.50000 418.400000
10035 15499 10540 1 109.50000 418.400000
2812 15500 7344 1 109.50000 418.400000
2812 15500 8592 1 109.50000 418.400000
2812 15500 10659 1 109.50000 418.400000
7344 15500 8592 1 109.50000 418.400000
7344 15500 10659 1 109.50000 418.400000
8592 15500 10659 1 109.50000 418.400000
907 15501 10014 1 109.50000 418.400000
907 15501 10660 1 109.50000 418.400000
907 15501 10661 1 109.50000 418.400000
10014 15501 10660 1 109.50000 418.400000
10014 15501 10661 1 109.50000 418.400000
10660 15501 10661 1 109.50000 418.400000
1029 15502 7636 1 109.50000 418.400000
1029 15502 10586 1 109.50000 418.400000
1029 15502 10662 1 109.50000 418.400000
7636 15502 10586 1 109.50000 418.400000
7636 15502 10662 1 109.50000 418.400000
10586 15502 10662 1 109.50000 418.400000
9028 15503 9867 1 109.50000 418.400000
9028 15503 10477 1 109.50000 418.400000
9028 15503 10663 1 109.50000 418.400000
9867 15503 10477 1 109.50000 418.400000
9867 15503 10663 1 109.50000 418.400000
10477 15503 10663 1 109.50000 418.400000
7630 15504 9929 1 109.50000 418.400000
7630 15504 10328 1 109.50000 418.400000
7630 15504 10664 1 109.50000 418.400000
9929 15504 10328 1 109.50000 418.400000
9929 15504 10664 1 109.50000 418.400000
10328 15504 10664 1 109.50000 418.400000
3258 15505 9883 1 109.50000 418.400000
3258 15505 10522 1 109.50000 418.400000
3258 15505 10665 1 109.50000 418.400000
9883 15505 10522 1 109.50000 418.400000
9883 15505 10665 1 109.50000 418.400000
10522 15505 10665 1 109.50000 418.400000
1130 15506 1483 1 109.50000 418.400000
1130 15506 7520 1 109.50000 418.400000
1130 15506 8072 1 109.50000 418.400000
1483 15506 7520 1 109.50000 418.400000
1483 15506 8072 1 109.50000 418.400000
7520 15506 8072 1 109.50000 418.400000
7926 15507 9773 1 109.50000 418.400000
7926 15507 10081 1 109.50000 418.400000
7926 15507 10666 1 109.50000 418.400000
9773 15507 10081 1 109.50000 418.400000
9773 15507 10666 1 109.50000 418.400000
10081 15507 10666 1 109.50000 418.400000
7713 15508 8019 1 109.50000 418.400000
7713 15508 9677 1 109.50000 418.400000
7713 15508 10648 1 109.50000 418.400000
8019 15508 9677 1 109.50000 418.400000
8019 15508 10648 1 109.50000 418.400000
9677 15508 10648 1 109.50000 418.400000
8641 15509 9275 1 109.50000 418.400000
8641 15509 9955 1 109.50000 418.400000
8641 15509 10667 1 109.50000 418.400000
9275 15509 9955 1 109.50000 418.400000
9275 15509 10667 1 109.50000 418.400000
9955 15509 10667 1 109.50000 418.400000
2130 15510 6375 1 109.50000 418.400000
2130 15510 6849 1 109.50000 418.400000
2130 15510 9810 1 109.50000 418.400000
6375 15510 6849 1 109.50000 418.400000
6375 15510 9810 1 109.50000 418.400000
6849 15510 9810 1 109.50000 418.400000
5060 15511 6049 1 109.50000 418.400000
5060 15511 7966 1 109.50000 418.400000
5060 15511 10668 1 109.50000 418.400000
6049 15511 7966 1 109.50000 418.400000
6049 15511 10668 1 109.50000 418.400000
7966 15511 10668 1 109.50000 418.400000
945 15512 5085 1 109.50000 418.400000
945 15512 5493 1 109.50000 418.400000
945 15512 8069 1 109.50000 418.400000
5085 15512 5493 1 109.50000 418.400000
5085 15512 8069 1 109.50000 418.400000
5493 15512 8069 1 109.50000 418.400000
9212 15513 10669 1 109.50000 418.400000
9212 15513 10670 1 109.50000 418.400000
9212 15513 10671 1 109.50000 418.400000
10669 15513 10670 1 109.50000 418.400000
10669 15513 10671 1 109.50000 418.400000
10670 15513 10671 1 109.50000 418.400000
7006 15514 9162 1 109.50000 418.400000
7006 15514 10062 1 109.50000 418.400000
7006 15514 10672 1 109.50000 418.400000
9162 15514 10062 1 109.50000 418.400000
9162 15514 10672 1 109.50000 418.400000
10062 15514 10672 1 109.50000 418.400000
1126 15515 5966 1 109.50000 418.400000
1126 15515 6603 1 109.50000 418.400000
1126 15515 7749 1 109.50000 418.400000
5966 15515 6603 1 109.50000 418.400000
5966 15515 7749 1 109.50000 418.400000
6603 15515 7749 1 109.50000 418.400000
34 15516 3780 1 109.50000 418.400000
34 15516 7434 1 109.50000 418.400000
34 15516 8508 1 109.50000 418.400000
3780 15516 7434 1 109.50000 418.400000
3780 15516 8508 1 109.50000 418.400000
7434 15516 8508 1 109.50000 418.400000
7377 15517 9590 1 109.50000 418.400000
7377 15517 9861 1 109.50000 418.400000
7377 15517 10336 1 109.50000 418.400000
9590 15517 9861 1 109.50000 418.400000
9590 15517 10336 1 109.50000 418.400000
9861 15517 10336 1 109.50000 418.400000
8836 15518 8892 1 109.50000 418.400000
8836 15518 9043 1 109.50000 418.400000
8836 15518 9738 1 109.50000 418.400000
8892 15518 9043 1 109.50000 418.400000
8892 15518 9738 1 109.50000 418.400000
9043 15518 9738 1 109.50000 418.400000
5612 15519 6818 1 109.50000 418.400000
5612 15519 7210 1 109.50000 418.400000
5612 15519 10673 1 109.50000 418.400000
6818 15519 7210 1 109.50000 418.400000
6818 15519 10673 1 109.50000 418.400000
7210 15519 10673 1 109.50000 418.400000
4608 15520 6361 1 109.50000 418.400000
4608 15520 10002 1 109.50000 418.400000
4608 15520 10674 1 109.50000 418.400000
6361 15520 10002 1 109.50000 418.400000
6361 15520 10674 1 109.50000 418.400000
10002 15520 10674 1 109.50000 418.400000
6454 15521 6667 1 109.50000 418.400000
6454 15521 9686 1 109.50000 418.400000
6454 15521 10675 1 109.50000 418.400000
6667 15521 9686 1 109.50000 418.400000
6667 15521 10675 1 109.50000 418.400000
9686 15521 10675 1 109.50000 418.400000
2795 15522 2797 1 109.50000 418.400000
2795 15522 4598 1 109.50000 418.400000
2795 15522 10476 1 109.50000 418.400000
2797 15522 4598 1 109.50000 418.400000
2797 15522 10476 1 109.50000 418.400000
4598 15522 10476 1 109.50000 418.400000
5426 15523 7429 1 109.50000 418.400000
5426 15523 10417 1 109.50000 418.400000
5426 15523 10677 1 109.50000 418.400000
7429 15523 10417 1 109.50000 418.400000
7429 15523 10677 1 109.50000 418.400000
10417 15523 10677 1 109.50000 418.400000
6149 15524 10678 1 109.50000 418.400000
6149 15524 10679 1 109.50000 418.400000
6149 15524 11311 1 109.50000 418.400000
10678 15524 10679 1 109.50000 418.400000
10678 15524 11311 1 109.50000 418.400000
10679 15524 11311 1 109.50000 418.400000
1591 15525 8771 1 109.50000 418.400000
1591 15525 9695 1 109.50000 418.400000
1591 15525 10668 1 109.50000 418.400000
8771 15525 9695 1 109.50000 418.400000
8771 15525 10668 1 109.50000 418.400000
9695 15525 10668 1 109.50000 418.400000
5641 15526 5809 1 109.50000 418.400000
5641 15526 6009 1 109.50000 418.400000
5641 15526 6478 1 109.50000 418.400000
5809 15526 6009 1 109.50000 418.400000
5809 15526 6478 1 109.50000 418.400000
6009 15526 6478 1 109.50000 418.400000
5335 15527 5337 1 109.50000 418.400000
5335 15527 5338 1 109.50000 418.400000
5335 15527 8456 1 109.50000 418.400000
5337 15527 5338 1 109.50000 418.400000
5337 15527 8456 1 109.50000 418.400000
5338 15527 8456 1 109.50000 418.400000
3685 15528 7577 1 109.50000 418.400000
3685 15528 10155 1 109.50000 418.400000
3685 15528 10682 1 109.50000 418.400000
7577 15528 10155 1 109.50000 418.400000
7577 15528 10682 1 109.50000 418.400000
10155 15528 10682 1 109.50000 418.400000
299 15529 8917 1 109.50000 418.400000
299 15529 10019 1 109.50000 418.400000
299 15529 10683 1 109.50000 418.400000
8917 15529 10019 1 109.50000 418.400000
8917 15529 10683 1 109.50000 418.400000
10019 15529 10683 1 109.50000 418.400000
6442 15530 7947 1 109.50000 418.400000
6442 15530 9482 1 109.50000 418.400000
6442 15530 10684 1 109.50000 418.400000
7947 15530 9482 1 109.50000 418.400000
7947 15530 10684 1 109.50000 418.400000
9482 15530 10684 1 109.50000 418.400000
479 15531 1904 1 109.50000 418.400000
479 15531 9878 1 109.50000 418.400000
479 15531 9926 1 109.50000 418.400000
1904 15531 9878 1 109.50000 418.400000
1904 15531 9926 1 109.50000 418.400000
9878 15531 9926 1 109.50000 418.400000
3878 15532 8874 1 109.50000 418.400000
3878 15532 9441 1 109.50000 418.400000
3878 15532 11315 1 109.50000 418.400000
8874 15532 9441 1 109.50000 418.400000
8874 15532 11315 1 109.50000 418.400000
9441 15532 11315 1 109.50000 418.400000
9732 15533 10685 1 109.50000 418.400000
9732 15533 10686 1 109.50000 418.400000
9732 15533 11189 1 109.50000 418.400000
10685 15533 10686 1 109.50000 418.400000
10685 15533 11189 1 109.50000 418.400000
10686 15533 11189 1 109.50000 418.400000
373 15534 5077 1 109.50000 418.400000
373 15534 10029 1 109.50000 418.400000
373 15534 10687 1 109.50000 418.400000
5077 15534 10029 1 109.50000 418.400000
5077 15534 10687 1 109.50000 418.400000
10029 15534 10687 1 109.50000 418.400000
3894 15535 10688 1 109.50000 418.400000
3894 15535 10689 1 109.50000 418.400000
3894 15535 10690 1 109.50000 418.400000
10688 15535 10689 1 109.50000 418.400000
10688 15535 10690 1 109.50000 418.400000
10689 15535 10690 1 109.50000 418.400000
8704 15536 9252 1 109.50000 418.400000
8704 15536 9446 1 109.50000 418.400000
8704 15536 10691 1 109.50000 418.400000
9252 15536 9446 1 109.50000 418.400000
9252 15536 10691 1 109.50000 418.400000
9446 15536 10691 1 109.50000 418.400000
1998 15537 9413 1 109.50000 418.400000
1998 15537 10692 1 109.50000 418.400000
1998 15537 10693 1 109.50000 418.400000
9413 15537 10692 1 109.50000 418.400000
9413 15537 10693 1 109.50000 418.400000
10692 15537 10693 1 109.50000 418.400000
1530 15538 3989 1 109.50000 418.400000
1530 15538 10123 1 109.50000 418.400000
1530 15538 10186 1 109.50000 418.400000
3989 15538 10123 1 109.50000 418.400000
3989 15538 10186 1 109.50000 418.400000
10123 15538 10186 1 109.50000 418.400000
4009 15539 5954 1 109.50000 418.400000
4009 15539 6897 1 109.50000 418.400000
4009 15539 10695 1 109.50000 418.400000
5954 15539 6897 1 109.50000 418.400000
5954 15539 10695 1 109.50000 418.400000
6897 15539 10695 1 109.50000 418.400000
1821 15540 8644 1 109.50000 418.400000
1821 15540 10384 1 109.50000 418.400000
1821 15540 10696 1 109.50000 418.400000
8644 15540 10384 1 109.50000 418.400000
8644 15540 10696 1 109.50000 418.400000
10384 15540 10696 1 109.50000 418.400000
4130 15541 5075 1 109.50000 418.400000
4130 15541 8245 1 109.50000 418.400000
4130 15541 10431 1 109.50000 418.400000
5075 15541 8245 1 109.50000 418.400000
5075 15541 10431 1 109.50000 418.400000
8245 15541 10431 1 109.50000 418.400000
4180 15542 4567 1 109.50000 418.400000
4180 15542 5341 1 109.50000 418.400000
4180 15542 7693 1 109.50000 418.400000
4567 15542 5341 1 109.50000 418.400000
4567 15542 7693 1 109.50000 418.400000
5341 15542 7693 1 109.50000 418.400000
4058 15543 4830 1 109.50000 418.400000
4058 15543 5883 1 109.50000 418.400000
4058 15543 8393 1 109.50000 418.400000
4830 15543 5883 1 109.50000 418.400000
4830 15543 8393 1 109.50000 418.400000
5883 15543 8393 1 109.50000 418.400000
961 15544 5685 1 109.50000 418.400000
961 15544 9567 1 109.50000 418.400000
961 15544 10697 1 109.50000 418.400000
5685 15544 9567 1 109.50000 418.400000
5685 15544 10697 1 109.50000 418.400000
9567 15544 10697 1 109.50000 418.400000
461 15545 6007 1 109.50000 418.400000
461 15545 10175 1 109.50000 418.400000
461 15545 10179 1 109.50000 418.400000
6007 15545 10175 1 109.50000 418.400000
6007 15545 10179 1 109.50000 418.400000
10175 15545 10179 1 109.50000 418.400000
3978 15546 6273 1 109.50000 418.400000
3978 15546 9414 1 109.50000 418.400000
3978 15546 9779 1 109.50000 418.400000
6273 15546 9414 1 109.50000 418.400000
6273 15546 9779 1 109.50000 418.400000
9414 15546 9779 1 109.50000 418.400000
5048 15547 7967 1 109.50000 418.400000
5048 15547 10699 1 109.50000 418.400000
5048 15547 10700 1 109.50000 418.400000
7967 15547 10699 1 109.50000 418.400000
7967 15547 10700 1 109.50000 418.400000
10699 15547 10700 1 109.50000 418.400000
2777 15548 5662 1 109.50000 418.400000
2777 15548 6484 1 109.50000 418.400000
2777 15548 10511 1 109.50000 418.400000
5662 15548 6484 1 109.50000 418.400000
5662 15548 10511 1 109.50000 418.400000
6484 15548 10511 1 109.50000 418.400000
5111 15549 7538 1 109.50000 418.400000
5111 15549 7593 1 109.50000 418.400000
5111 15549 9932 1 109.50000 418.400000
7538 15549 7593 1 109.50000 418.400000
7538 15549 9932 1 109.50000 418.400000
7593 15549 9932 1 109.50000 418.400000
6067 15550 9537 1 109.50000 418.400000
6067 15550 10246 1 109.50000 418.400000
6067 15550 10702 1 109.50000 418.400000
9537 15550 10246 1 109.50000 418.400000
9537 15550 10702 1 109.50000 418.400000
10246 15550 10702 1 109.50000 418.400000
1561 15551 3744 1 109.50000 418.400000
1561 15551 6300 1 109.50000 418.400000
1561 15551 7179 1 109.50000 418.400000
3744 15551 6300 1 109.50000 418.400000
3744 15551 7179 1 109.50000 418.400000
6300 15551 7179 1 109.50000 418.400000
1337 15552 1456 1 109.50000 418.400000
1337 15552 2776 1 109.50000 418.400000
1337 15552 10369 1 109.50000 418.400000
1456 15552 2776 1 109.50000 418.400000
1456 15552 10369 1 109.50000 418.400000
2776 15552 10369 1 109.50000 418.400000
2220 15553 4124 1 109.50000 418.400000
2220 15553 4951 1 109.50000 418.400000
2220 15553 10418 1 109.50000 418.400000
4124 15553 4951 1 109.50000 418.400000
4124 15553 10418 1 109.50000 418.400000
4951 15553 10418 1 109.50000 418.400000
622 15554 2310 1 109.50000 418.400000
622 15554 7324 1 109.50000 418.400000
622 15554 8256 1 109.50000 418.400000
2310 15554 7324 1 109.50000 418.400000
2310 15554 8256 1 109.50000 418.400000
7324 15554 8256 1 109.50000 418.400000
133 15555 1425 1 109.50000 418.400000
133 15555 1835 1 109.50000 418.400000
133 15555 6806 1 109.50000 418.400000
1425 15555 1835 1 109.50000 418.400000
1425 15555 6806 1 109.50000 418.400000
1835 15555 6806 1 109.50000 418.400000
464 15556 1264 1 109.50000 418.400000
464 15556 10659 1 109.50000 418.400000
464 15556 10703 1 109.50000 418.400000
1264 15556 10659 1 109.50000 418.400000
1264 15556 10703 1 109.50000 418.400000
10659 15556 10703 1 109.50000 418.400000
1296 15557 3079 1 109.50000 418.400000
1296 15557 9801 1 109.50000 418.400000
1296 15557 10704 1 109.50000 418.400000
3079 15557 9801 1 109.50000 418.400000
3079 15557 10704 1 109.50000 418.400000
9801 15557 10704 1 109.50000 418.400000
877 15558 5480 1 109.50000 418.400000
877 15558 9879 1 109.50000 418.400000
877 15558 10352 1 109.50000 418.400000
5480 15558 9879 1 109.50000 418.400000
5480 15558 10352 1 109.50000 418.400000
9879 15558 10352 1 109.50000 418.400000
4367 15559 6396 1 109.50000 418.400000
4367 15559 10705 1 109.50000 418.400000
4367 15559 11360 1 109.50000 418.400000
6396 15559 10705 1 109.50000 418.400000
6396 15559 11360 1 109.50000 418.400000
10705 15559 11360 1 109.50000 418.400000
2866 15560 4702 1 109.50000 418.400000
2866 15560 9378 1 109.50000 418.400000
2866 15560 10706 1 109.50000 418.400000
4702 15560 9378 1 109.50000 418.400000
4702 15560 10706 1 109.50000 418.400000
9378 15560 10706 1 109.50000 418.400000
4500 15561 4921 1 109.50000 418.400000
4500 15561 10707 1 109.50000 418.400000
4500 15561 10708 1 109.50000 418.400000
4921 15561 10707 1 109.50000 418.400000
4921 15561 10708 1 109.50000 418.400000
10707 15561 10708 1 109.50000 418.400000
4062 15562 7873 1 109.50000 418.400000
4062 15562 9633 1 109.50000 418.400000
4062 15562 10709 1 109.50000 418.400000
7873 15562 9633 1 109.50000 418.400000
7873 15562 10709 1 109.50000 418.400000
9633 15562 10709 1 109.50000 418.400000
7323 15563 7325 1 109.50000 418.400000
7323 15563 8600 1 109.50000 418.400000
7323 15563 10423 1 109.50000 418.400000
7325 15563 8600 1 109.50000 418.400000
7325 15563 10423 1 109.50000 418.400000
8600 15563 10423 1 109.50000 418.400000
1867 15564 9005 1 109.50000 418.400000
1867 15564 10710 1 109.50000 418.400000
1867 15564 10711 1 109.50000 418.400000
9005 15564 10710 1 109.50000 418.400000
9005 15564 10711 1 109.50000 418.400000
10710 15564 10711 1 109.50000 418.400000
3642 15565 5090 1 109.50000 418.400000
3642 15565 7849 1 109.50000 418.400000
3642 15565 8562 1 109.50000 418.400000
5090 15565 7849 1 109.50000 418.400000
5090 15565 8562 1 109.50000 418.400000
7849 15565 8562 1 109.50000 418.400000
2486 15566 4394 1 109.50000 418.400000
2486 15566 10712 1 109.50000 418.400000
2486 15566 10713 1 109.50000 418.400000
4394 15566 10712 1 109.50000 418.400000
4394 15566 10713 1 109.50000 418.400000
10712 15566 10713 1 109.50000 418.400000
6011 15567 8466 1 109.50000 418.400000
6011 15567 9937 1 109.50000 418.400000
6011 15567 10571 1 109.50000 418.400000
8466 15567 9937 1 109.50000 418.400000
8466 15567 10571 1 109.50000 418.400000
9937 15567 10571 1 109.50000 418.400000
173 15568 5231 1 109.50000 418.400000
173 15568 10714 1 109.50000 418.400000
173 15568 10715 1 109.50000 418.400000
5231 15568 10714 1 109.50000 418.400000
5231 15568 10715 1 109.50000 418.400000
10714 15568 10715 1 109.50000 418.400000
511 15569 3932 1 109.50000 418.400000
511 15569 5165 1 109.50000 418.400000
511 15569 8694 1 109.50000 418.400000
3932 15569 5165 1 109.50000 418.400000
3932 15569 8694 1 109.50000 418.400000
5165 15569 8694 1 109.50000 418.400000
6625 15570 6685 1 109.50000 418.400000
6625 15570 7404 1 109.50000 418.400000
6625 15570 10716 1 109.50000 418.400000
6685 15570 7404 1 109.50000 418.400000
6685 15570 10716 1 109.50000 418.400000
7404 15570 10716 1 109.50000 418.400000
2252 15571 7293 1 109.50000 418.400000
2252 15571 8188 1 109.50000 418.400000
2252 15571 10717 1 109.50000 418.400000
7293 15571 8188 1 109.50000 418.400000
7293 15571 10717 1 109.50000 418.400000
8188 15571 10717 1 109.50000 418.400000
3136 15572 3681 1 109.50000 418.400000
3136 15572 9453 1 109.50000 418.400000
3136 15572 10718 1 109.50000 418.400000
3681 15572 9453 1 109.50000 418.400000
3681 15572 10718 1 109.50000 418.400000
9453 15572 10718 1 109.50000 418.400000
5139 15573 8589 1 109.50000 418.400000
5139 15573 9245 1 109.50000 418.400000
5139 15573 9770 1 109.50000 418.400000
8589 15573 9245 1 109.50000 418.400000
8589 15573 9770 1 109.50000 418.400000
9245 15573 9770 1 109.50000 418.400000
5371 15574 5377 1 109.50000 418.400000
5371 15574 9881 1 109.50000 418.400000
5371 15574 10719 1 109.50000 418.400000
5377 15574 9881 1 109.50000 418.400000
5377 15574 10719 1 109.50000 418.400000
9881 15574 10719 1 109.50000 418.400000
8156 15575 9741 1 109.50000 418.400000
8156 15575 10664 1 109.50000 418.400000
8156 15575 10720 1 109.50000 418.400000
9741 15575 10664 1 109.50000 418.400000
9741 15575 10720 1 109.50000 418.400000
10664 15575 10720 1 109.50000 418.400000
2947 15576 7602 1 109.50000 418.400000
2947 15576 9799 1 109.50000 418.400000
2947 15576 10721 1 109.50000 418.400000
7602 15576 9799 1 109.50000 418.400000
7602 15576 10721 1 109.50000 418.400000
9799 15576 10721 1 109.50000 418.400000
8337 15577 8730 1 109.50000 418.400000
8337 15577 8781 1 109.50000 418.400000
8337 15577 9377 1 109.50000 418.400000
8730 15577 8781 1 109.50000 418.400000
8730 15577 9377 1 109.50000 418.400000
8781 15577 9377 1 109.50000 418.400000
4002 15578 5596 1 109.50000 418.400000
4002 15578 7560 1 109.50000 418.400000
4002 15578 8140 1 109.50000 418.400000
5596 15578 7560 1 109.50000 418.400000
5596 15578 8140 1 109.50000 418.400000
7560 15578 8140 1 109.50000 418.400000
3243 15579 3864 1 109.50000 418.400000
3243 15579 7987 1 109.50000 418.400000
3243 15579 10652 1 109.50000 418.400000
3864 15579 7987 1 109.50000 418.400000
3864 15579 10652 1 109.50000 418.400000
7987 15579 10652 1 109.50000 418.400000
4311 15580 6816 1 109.50000 418.400000
4311 15580 6898 1 109.50000 418.400000
4311 15580 9315 1 109.50000 418.400000
6816 15580 6898 1 109.50000 418.400000
6816 15580 9315 1 109.50000 418.400000
6898 15580 9315 1 109.50000 418.400000
1662 15581 5791 1 109.50000 418.400000
1662 15581 10722 1 109.50000 418.400000
1662 15581 10723 1 109.50000 418.400000
5791 15581 10722 1 109.50000 418.400000
5791 15581 10723 1 109.50000 418.400000
10722 15581 10723 1 109.50000 418.400000
530 15582 6422 1 109.50000 418.400000
530 15582 8152 1 109.50000 418.400000
530 15582 10325 1 109.50000 418.400000
6422 15582 8152 1 109.50000 418.400000
6422 15582 10325 1 109.50000 418.400000
8152 15582 10325 1 109.50000 418.400000
2424 15583 3591 1 109.50000 418.400000
2424 15583 4183 1 109.50000 418.400000
2424 15583 4957 1 109.50000 418.400000
3591 15583 4183 1 109.50000 418.400000
3591 15583 4957 1 109.50000 418.400000
4183 15583 4957 1 109.50000 418.400000
471 15584 5577 1 109.50000 418.400000
471 15584 5578 1 109.50000 418.400000
471 15584 9997 1 109.50000 418.400000
5577 15584 5578 1 109.50000 418.400000
5577 15584 9997 1 109.50000 418.400000
5578 15584 9997 1 109.50000 418.400000
1762 15585 8789 1 109.50000 418.400000
1762 15585 10724 1 109.50000 418.400000
1762 15585 10725 1 109.50000 418.400000
8789 15585 10724 1 109.50000 418.400000
8789 15585 10725 1 109.50000 418.400000
10724 15585 10725 1 109.50000 418.400000
1746 15586 3030 1 109.50000 418.400000
1746 15586 3887 1 109.50000 418.400000
1746 15586 5988 1 109.50000 418.400000
3030 15586 3887 1 109.50000 418.400000
3030 15586 5988 1 109.50000 418.400000
3887 15586 5988 1 109.50000 418.400000
7792 15587 8239 1 109.50000 418.400000
7792 15587 8548 1 109.50000 418.400000
7792 15587 10726 1 109.50000 418.400000
8239 15587 8548 1 109.50000 418.400000
8239 15587 10726 1 109.50000 418.400000
8548 15587 10726 1 109.50000 418.400000
5279 15588 7203 1 109.50000 418.400000
5279 15588 8584 1 109.50000 418.400000
5279 15588 10728 1 109.50000 418.400000
7203 15588 8584 1 109.50000 418.400000
7203 15588 10728 1 109.50000 418.400000
8584 15588 10728 1 109.50000 418.400000
4036 15589 4038 1 109.50000 418.400000
4036 15589 10218 1 109.50000 418.400000
4036 15589 10302 1 109.50000 418.400000
4038 15589 10218 1 109.50000 418.400000
4038 15589 10302 1 109.50000 418.400000
10218 15589 10302 1 109.50000 418.400000
5788 15590 5806 1 109.50000 418.400000
5788 15590 10322 1 109.50000 418.400000
5788 15590 10507 1 109.50000 418.400000
5806 15590 10322 1 109.50000 418.400000
5806 15590 10507 1 109.50000 418.400000
10322 15590 10507 1 109.50000 418.400000
5984 15591 8991 1 109.50000 418.400000
5984 15591 10412 1 109.50000 418.400000
5984 15591 10729 1 109.50000 418.400000
8991 15591 10412 1 109.50000 418.400000
8991 15591 10729 1 109.50000 418.400000
10412 15591 10729 1 109.50000 418.400000
4950 15592 6705 1 109.50000 418.400000
4950 15592 7879 1 109.50000 418.400000
4950 15592 8636 1 109.50000 418.400000
6705 15592 7879 1 109.50000 418.400000
6705 15592 8636 1 109.50000 418.400000
7879 15592 8636 1 109.50000 418.400000
6541 15593 8214 1 109.50000 418.400000
6541 15593 10654 1 109.50000 418.400000
6541 15593 10730 1 109.50000 418.400000
8214 15593 10654 1 109.50000 418.400000
8214 15593 10730 1 109.50000 418.400000
10654 15593 10730 1 109.50000 418.400000
3475 15594 5583 1 109.50000 418.400000
3475 15594 7482 1 109.50000 418.400000
3475 15594 10731 1 109.50000 418.400000
5583 15594 7482 1 109.50000 418.400000
5583 15594 10731 1 109.50000 418.400000
7482 15594 10731 1 109.50000 418.400000
9324 15595 10122 1 109.50000 418.400000
9324 15595 10341 1 109.50000 418.400000
9324 15595 10732 1 109.50000 418.400000
10122 15595 10341 1 109.50000 418.400000
10122 15595 10732 1 109.50000 418.400000
10341 15595 10732 1 109.50000 418.400000
4149 15596 9655 1 109.50000 418.400000
4149 15596 10733 1 109.50000 418.400000
4149 15596 10734 1 109.50000 418.400000
9655 15596 10733 1 109.50000 418.400000
9655 15596 10734 1 109.50000 418.400000
10733 15596 10734 1 109.50000 418.400000
1053 15597 8541 1 109.50000 418.400000
1053 15597 9785 1 109.50000 418.400000
1053 15597 10735 1 109.50000 418.400000
8541 15597 9785 1 109.50000 418.400000
8541 15597 10735 1 109.50000 418.400000
9785 15597 10735 1 109.50000 418.400000
3320 15598 9340 1 109.50000 418.400000
3320 15598 10126 1 109.50000 418.400000
3320 15598 10738 1 109.50000 418.400000
9340 15598 10126 1 109.50000 418.400000
9340 15598 10738 1 109.50000 418.400000
10126 15598 10738 1 109.50000 418.400000
1724 15599 3866 1 109.50000 418.400000
1724 15599 10132 1 109.50000 418.400000
1724 15599 10739 1 109.50000 418.400000
3866 15599 10132 1 109.50000 418.400000
3866 15599 10739 1 109.50000 418.400000
10132 15599 10739 1 109.50000 418.400000
2 15600 4597 1 109.50000 418.400000
2 15600 8039 1 109.50000 418.400000
2 15600 10396 1 109.50000 418.400000
4597 15600 8039 1 109.50000 418.400000
4597 15600 10396 1 109.50000 418.400000
8039 15600 10396 1 109.50000 418.400000
550 15601 6495 1 109.50000 418.400000
550 15601 7787 1 109.50000 418.400000
550 15601 8364 1 109.50000 418.400000
6495 15601 7787 1 109.50000 418.400000
6495 15601 8364 1 109.50000 418.400000
7787 15601 8364 1 109.50000 418.400000
733 15602 2930 1 109.50000 418.400000
733 15602 9882 1 109.50000 418.400000
733 15602 10740 1 109.50000 418.400000
2930 15602 9882 1 109.50000 418.400000
2930 15602 10740 1 109.50000 418.400000
9882 15602 10740 1 109.50000 418.400000
6681 15603 10247 1 109.50000 418.400000
6681 15603 10675 1 109.50000 418.400000
6681 15603 10741 1 109.50000 418.400000
10247 15603 10675 1 109.50000 418.400000
10247 15603 10741 1 109.50000 418.400000
10675 15603 10741 1 109.50000 418.400000
9210 15604 10742 1 109.50000 418.400000
9210 15604 10743 1 109.50000 418.400000
9210 15604 11378 1 109.50000 418.400000
10742 15604 10743 1 109.50000 418.400000
10742 15604 11378 1 109.50000 418.400000
10743 15604 11378 1 109.50000 418.400000
2197 15605 3782 1 109.50000 418.400000
2197 15605 6115 1 109.50000 418.400000
2197 15605 10598 1 109.50000 418.400000
3782 15605 6115 1 109.50000 418.400000
3782 15605 10598 1 109.50000 418.400000
6115 15605 10598 1 109.50000 418.400000
650 15606 10633 1 109.50000 418.400000
650 15606 10745 1 109.50000 418.400000
650 15606 10746 1 109.50000 418.400000
10633 15606 10745 1 109.50000 418.400000
10633 15606 10746 1 109.50000 418.400000
10745 15606 10746 1 109.50000 418.400000
6152 15607 8498 1 109.50000 418.400000
6152 15607 10747 1 109.50000 418.400000
6152 15607 11312 1 109.50000 418.400000
8498 15607 10747 1 109.50000 418.400000
8498 15607 11312 1 109.50000 418.400000
10747 15607 11312 1 109.50000 418.400000
1725 15608 3269 1 109.50000 418.400000
1725 15608 9301 1 109.50000 418.400000
1725 15608 10748 1 109.50000 418.400000
3269 15608 9301 1 109.50000 418.400000
3269 15608 10748 1 109.50000 418.400000
9301 15608 10748 1 109.50000 418.400000
3630 15609 7542 1 109.50000 418.400000
3630 15609 10749 1 109.50000 418.400000
3630 15609 10877 1 109.50000 418.400000
7542 15609 10749 1 109.50000 418.400000
7542 15609 10877 1 109.50000 418.400000
10749 15609 10877 1 109.50000 418.400000
4877 15610 7437 1 109.50000 418.400000
4877 15610 8264 1 109.50000 418.400000
4877 15610 10750 1 109.50000 418.400000
7437 15610 8264 1 109.50000 418.400000
7437 15610 10750 1 109.50000 418.400000
8264 15610 10750 1 109.50000 418.400000
270 15611 683 1 109.50000 418.400000
270 15611 9323 1 109.50000 418.400000
270 15611 9569 1 109.50000 418.400000
683 15611 9323 1 109.50000 418.400000
683 15611 9569 1 109.50000 418.400000
9323 15611 9569 1 109.50000 418.400000
305 15612 5740 1 109.50000 418.400000
305 15612 7026 1 109.50000 418.400000
305 15612 8762 1 109.50000 418.400000
5740 15612 7026 1 109.50000 418.400000
5740 15612 8762 1 109.50000 418.400000
7026 15612 8762 1 109.50000 418.400000
7900 15613 9173 1 109.50000 418.400000
7900 15613 9175 1 109.50000 418.400000
7900 15613 10751 1 109.50000 418.400000
9173 15613 9175 1 109.50000 418.400000
9173 15613 10751 1 109.50000 418.400000
9175 15613 10751 1 109.50000 418.400000
7366 15614 9038 1 109.50000 418.400000
7366 15614 9311 1 109.50000 418.400000
7366 15614 9849 1 109.50000 418.400000
9038 15614 9311 1 109.50000 418.400000
9038 15614 9849 1 109.50000 418.400000
9311 15614 9849 1 109.50000 418.400000
1119 15615 4042 1 109.50000 418.400000
1119 15615 6594 1 109.50000 418.400000
1119 15615 10634 1 109.50000 418.400000
4042 15615 6594 1 109.50000 418.400000
4042 15615 10634 1 109.50000 418.400000
6594 15615 10634 1 109.50000 418.400000
276 15616 3424 1 109.50000 418.400000
276 15616 9699 1 109.50000 418.400000
276 15616 10752 1 109.50000 418.400000
3424 15616 9699 1 109.50000 418.400000
3424 15616 10752 1 109.50000 418.400000
9699 15616 10752 1 109.50000 418.400000
496 15617 8710 1 109.50000 418.400000
496 15617 10753 1 109.50000 418.400000
496 15617 10754 1 109.50000 418.400000
8710 15617 10753 1 109.50000 418.400000
8710 15617 10754 1 109.50000 418.400000
10753 15617 10754 1 109.50000 418.400000
3036 15618 4719 1 109.50000 418.400000
3036 15618 8718 1 109.50000 418.400000
3036 15618 10616 1 109.50000 418.400000
4719 15618 8718 1 109.50000 418.400000
4719 15618 10616 1 109.50000 418.400000
8718 15618 10616 1 109.50000 418.400000
1385 15619 2138 1 109.50000 418.400000
1385 15619 7884 1 109.50000 418.400000
1385 15619 10050 1 109.50000 418.400000
2138 15619 7884 1 109.50000 418.400000
2138 15619 10050 1 109.50000 418.400000
7884 15619 10050 1 109.50000 418.400000
2283 15620 2886 1 109.50000 418.400000
2283 15620 6991 1 109.50000 418.400000
2283 15620 10666 1 109.50000 418.400000
2886 15620 6991 1 109.50000 418.400000
2886 15620 10666 1 109.50000 418.400000
6991 15620 10666 1 109.50000 418.400000
2838 15621 6053 1 109.50000 418.400000
2838 15621 9459 1 109.50000 418.400000
2838 15621 10618 1 109.50000 418.400000
6053 15621 9459 1 109.50000 418.400000
6053 15621 10618 1 109.50000 418.400000
9459 15621 10618 1 109.50000 418.400000
3460 15622 5860 1 109.50000 418.400000
3460 15622 5861 1 109.50000 418.400000
3460 15622 10111 1 109.50000 418.400000
5860 15622 5861 1 109.50000 418.400000
5860 15622 10111 1 109.50000 418.400000
5861 15622 10111 1 109.50000 418.400000
8437 15623 8439 1 109.50000 418.400000
8437 15623 9746 1 109.50000 418.400000
8437 15623 10755 1 109.50000 418.400000
8439 15623 9746 1 109.50000 418.400000
8439 15623 10755 1 109.50000 418.400000
9746 15623 10755 1 109.50000 418.400000
9499 15624 9658 1 109.50000 418.400000
9499 15624 9869 1 109.50000 418.400000
9499 15624 10154 1 109.50000 418.400000
9658 15624 9869 1 109.50000 418.400000
9658 15624 10154 1 109.50000 418.400000
9869 15624 10154 1 109.50000 418.400000
1669 15625 5286 1 109.50000 418.400000
1669 15625 8885 1 109.50000 418.400000
1669 15625 9197 1 109.50000 418.400000
5286 15625 8885 1 109.50000 418.400000
5286 15625 9197 1 109.50000 418.400000
8885 15625 9197 1 109.50000 418.400000
4510 15626 7457 1 109.50000 418.400000
4510 15626 10758 1 109.50000 418.400000
4510 15626 11363 1 109.50000 418.400000
7457 15626 10758 1 109.50000 418.400000
7457 15626 11363 1 109.50000 418.400000
10758 15626 11363 1 109.50000 418.400000
914 15627 2729 1 109.50000 418.400000
914 15627 9964 1 109.50000 418.400000
914 15627 10759 1 109.50000 418.400000
2729 15627 9964 1 109.50000 418.400000
2729 15627 10759 1 109.50000 418.400000
9964 15627 10759 1 109.50000 418.400000
1877 15628 3338 1 109.50000 418.400000
1877 15628 7979 1 109.50000 418.400000
1877 15628 11373 1 109.50000 418.400000
3338 15628 7979 1 109.50000 418.400000
3338 15628 11373 1 109.50000 418.400000
7979 15628 11373 1 109.50000 418.400000
3053 15629 4235 1 109.50000 418.400000
3053 15629 7821 1 109.50000 418.400000
3053 15629 8742 1 109.50000 418.400000
4235 15629 7821 1 109.50000 418.400000
4235 15629 8742 1 109.50000 418.400000
7821 15629 8742 1 109.50000 418.400000
1592 15630 6516 1 109.50000 418.400000
1592 15630 7964 1 109.50000 418.400000
1592 15630 10760 1 109.50000 418.400000
6516 15630 7964 1 109.50000 418.400000
6516 15630 10760 1 109.50000 418.400000
7964 15630 10760 1 109.50000 418.400000
7207 15631 8624 1 109.50000 418.400000
7207 15631 10750 1 109.50000 418.400000
7207 15631 10761 1 109.50000 418.400000
8624 15631 10750 1 109.50000 418.400000
8624 15631 10761 1 109.50000 418.400000
10750 15631 10761 1 109.50000 418.400000
3422 15632 3680 1 109.50000 418.400000
3422 15632 3835 1 109.50000 418.400000
3422 15632 10762 1 109.50000 418.400000
3680 15632 3835 1 109.50000 418.400000
3680 15632 10762 1 109.50000 418.400000
3835 15632 10762 1 109.50000 418.400000
595 15633 2959 1 109.50000 418.400000
595 15633 8969 1 109.50000 418.400000
595 15633 10665 1 109.50000 418.400000
2959 15633 8969 1 109.50000 418.400000
2959 15633 10665 1 109.50000 418.400000
8969 15633 10665 1 109.50000 418.400000
3154 15634 10621 1 109.50000 418.400000
3154 15634 10723 1 109.50000 418.400000
3154 15634 10763 1 109.50000 418.400000
10621 15634 10723 1 109.50000 418.400000
10621 15634 10763 1 109.50000 418.400000
10723 15634 10763 1 109.50000 418.400000
6343 15635 6344 1 109.50000 418.400000
6343 15635 10003 1 109.50000 418.400000
6343 15635 10326 1 109.50000 418.400000
6344 15635 10003 1 109.50000 418.400000
6344 15635 10326 1 109.50000 418.400000
10003 15635 10326 1 109.50000 418.400000
1250 15636 2005 1 109.50000 418.400000
1250 15636 5598 1 109.50000 418.400000
1250 15636 10362 1 109.50000 418.400000
2005 15636 5598 1 109.50000 418.400000
2005 15636 10362 1 109.50000 418.400000
5598 15636 10362 1 109.50000 418.400000
4078 15637 5616 1 109.50000 418.400000
4078 15637 9389 1 109.50000 418.400000
4078 15637 9512 1 109.50000 418.400000
5616 15637 9389 1 109.50000 418.400000
5616 15637 9512 1 109.50000 418.400000
9389 15637 9512 1 109.50000 418.400000
9003 15638 10764 1 109.50000 418.400000
9003 15638 10765 1 109.50000 418.400000
9003 15638 10766 1 109.50000 418.400000
10764 15638 10765 1 109.50000 418.400000
10764 15638 10766 1 109.50000 418.400000
10765 15638 10766 1 109.50000 418.400000
1281 15639 7499 1 109.50000 418.400000
1281 15639 7920 1 109.50000 418.400000
1281 15639 10767 1 109.50000 418.400000
7499 15639 7920 1 109.50000 418.400000
7499 15639 10767 1 109.50000 418.400000
7920 15639 10767 1 109.50000 418.400000
7383 15640 7709 1 109.50000 418.400000
7383 15640 10517 1 109.50000 418.400000
7383 15640 10768 1 109.50000 418.400000
7709 15640 10517 1 109.50000 418.400000
7709 15640 10768 1 109.50000 418.400000
10517 15640 10768 1 109.50000 418.400000
9729 15641 9730 1 109.50000 418.400000
9729 15641 10767 1 109.50000 418.400000
9729 15641 10769 1 109.50000 418.400000
9730 15641 10767 1 109.50000 418.400000
9730 15641 10769 1 109.50000 418.400000
10767 15641 10769 1 109.50000 418.400000
3770 15642 7017 1 109.50000 418.400000
3770 15642 7421 1 109.50000 418.400000
3770 15642 8811 1 109.50000 418.400000
7017 15642 7421 1 109.50000 418.400000
7017 15642 8811 1 109.50000 418.400000
7421 15642 8811 1 109.50000 418.400000
1220 15643 1857 1 109.50000 418.400000
1220 15643 5896 1 109.50000 418.400000
1220 15643 10770 1 109.50000 418.400000
1857 15643 5896 1 109.50000 418.400000
1857 15643 10770 1 109.50000 418.400000
5896 15643 10770 1 109.50000 418.400000
1678 15644 5509 1 109.50000 418.400000
1678 15644 9739 1 109.50000 418.400000
1678 15644 10771 1 109.50000 418.400000
5509 15644 9739 1 109.50000 418.400000
5509 15644 10771 1 109.50000 418.400000
9739 15644 10771 1 109.50000 418.400000
5455 15645 6847 1 109.50000 418.400000
5455 15645 10108 1 109.50000 418.400000
5455 15645 10772 1 109.50000 418.400000
6847 15645 10108 1 109.50000 418.400000
6847 15645 10772 1 109.50000 418.400000
10108 15645 10772 1 109.50000 418.400000
2312 15646 6954 1 109.50000 418.400000
2312 15646 9607 1 109.50000 418.400000
2312 15646 10773 1 109.50000 418.400000
6954 15646 9607 1 109.50000 418.400000
6954 15646 10773 1 109.50000 418.400000
9607 15646 10773 1 109.50000 418.400000
6951 15647 7734 1 109.50000 418.400000
6951 15647 8512 1 109.50000 418.400000
6951 15647 10774 1 109.50000 418.400000
7734 15647 8512 1 109.50000 418.400000
7734 15647 10774 1 109.50000 418.400000
8512 15647 10774 1 109.50000 418.400000
2825 15648 5457 1 109.50000 418.400000
2825 15648 6729 1 109.50000 418.400000
2825 15648 10775 1 109.50000 418.400000
5457 15648 6729 1 109.50000 418.400000
5457 15648 10775 1 109.50000 418.400000
6729 15648 10775 1 109.50000 418.400000
8259 15649 10690 1 109.50000 418.400000
8259 15649 10776 1 109.50000 418.400000
8259 15649 10777 1 109.50000 418.400000
10690 15649 10776 1 109.50000 418.400000
10690 15649 10777 1 109.50000 418.400000
10776 15649 10777 1 109.50000 418.400000
3585 15650 4202 1 109.50000 418.400000
3585 15650 5899 1 109.50000 418.400000
3585 15650 9087 1 109.50000 418.400000
4202 15650 5899 1 109.50000 418.400000
4202 15650 9087 1 109.50000 418.400000
5899 15650 9087 1 109.50000 418.400000
1160 15651 1377 1 109.50000 418.400000
1160 15651 8800 1 109.50000 418.400000
1160 15651 10778 1 109.50000 418.400000
1377 15651 8800 1 109.50000 418.400000
1377 15651 10778 1 109.50000 418.400000
8800 15651 10778 1 109.50000 418.400000
2509 15652 5471 1 109.50000 418.400000
2509 15652 10779 1 109.50000 418.400000
2509 15652 10780 1 109.50000 418.400000
5471 15652 10779 1 109.50000 418.400000
5471 15652 10780 1 109.50000 418.400000
10779 15652 10780 1 109.50000 418.400000
2427 15653 5908 1 109.50000 418.400000
2427 15653 6220 1 109.50000 418.400000
2427 15653 10765 1 109.50000 418.400000
5908 15653 6220 1 109.50000 418.400000
5908 15653 10765 1 109.50000 418.400000
6220 15653 10765 1 109.50000 418.400000
2571 15654 6785 1 109.50000 418.400000
2571 15654 6787 1 109.50000 418.400000
2571 15654 7329 1 109.50000 418.400000
6785 15654 6787 1 109.50000 418.400000
6785 15654 7329 1 109.50000 418.400000
6787 15654 7329 1 109.50000 418.400000
2924 15655 6549 1 109.50000 418.400000
2924 15655 7187 1 109.50000 418.400000
2924 15655 9112 1 109.50000 418.400000
6549 15655 7187 1 109.50000 418.400000
6549 15655 9112 1 109.50000 418.400000
7187 15655 9112 1 109.50000 418.400000
2065 15656 4665 1 109.50000 418.400000
2065 15656 9752 1 109.50000 418.400000
2065 15656 10781 1 109.50000 418.400000
4665 15656 9752 1 109.50000 418.400000
4665 15656 10781 1 109.50000 418.400000
9752 15656 10781 1 109.50000 418.400000
1238 15657 3147 1 109.50000 418.400000
1238 15657 7851 1 109.50000 418.400000
1238 15657 7852 1 109.50000 418.400000
3147 15657 7851 1 109.50000 418.400000
3147 15657 7852 1 109.50000 418.400000
7851 15657 7852 1 109.50000 418.400000
3451 15658 3942 1 109.50000 418.400000
3451 15658 6513 1 109.50000 418.400000
3451 15658 8305 1 109.50000 418.400000
3942 15658 6513 1 109.50000 418.400000
3942 15658 8305 1 109.50000 418.400000
6513 15658 8305 1 109.50000 418.400000
1667 15659 10327 1 109.50000 418.400000
1667 15659 10782 1 109.50000 418.400000
1667 15659 10783 1 109.50000 418.400000
10327 15659 10782 1 109.50000 418.400000
10327 15659 10783 1 109.50000 418.400000
10782 15659 10783 1 109.50000 418.400000
2476 15660 8099 1 109.50000 418.400000
2476 15660 9987 1 109.50000 418.400000
2476 15660 10584 1 109.50000 418.400000
8099 15660 9987 1 109.50000 418.400000
8099 15660 10584 1 109.50000 418.400000
9987 15660 10584 1 109.50000 418.400000
1292 15661 5036 1 109.50000 418.400000
1292 15661 8590 1 109.50000 418.400000
1292 15661 9953 1 109.50000 418.400000
5036 15661 8590 1 109.50000 418.400000
5036 15661 9953 1 109.50000 418.400000
8590 15661 9953 1 109.50000 418.400000
3127 15662 9527 1 109.50000 418.400000
3127 15662 9949 1 109.50000 418.400000
3127 15662 10784 1 109.50000 418.400000
9527 15662 9949 1 109.50000 418.400000
9527 15662 10784 1 109.50000 418.400000
9949 15662 10784 1 109.50000 418.400000
6269 15663 7016 1 109.50000 418.400000
6269 15663 8651 1 109.50000 418.400000
6269 15663 8832 1 109.50000 418.400000
7016 15663 8651 1 109.50000 418.400000
7016 15663 8832 1 109.50000 418.400000
8651 15663 8832 1 109.50000 418.400000
48 15664 3530 1 109.50000 418.400000
48 15664 7660 1 109.50000 418.400000
48 15664 10474 1 109.50000 418.400000
3530 15664 7660 1 109.50000 418.400000
3530 15664 10474 1 109.50000 418.400000
7660 15664 10474 1 109.50000 418.400000
5145 15665 10752 1 109.50000 418.400000
5145 15665 10785 1 109.50000 418.400000
5145 15665 10786 1 109.50000 418.400000
10752 15665 10785 1 109.50000 418.400000
10752 15665 10786 1 109.50000 418.400000
10785 15665 10786 1 109.50000 418.400000
405 15666 9936 1 109.50000 418.400000
405 15666 10224 1 109.50000 418.400000
405 15666 10578 1 109.50000 418.400000
9936 15666 10224 1 109.50000 418.400000
9936 15666 10578 1 109.50000 418.400000
10224 15666 10578 1 109.50000 418.400000
5342 15667 9497 1 109.50000 418.400000
5342 15667 10782 1 109.50000 418.400000
5342 15667 10787 1 109.50000 418.400000
9497 15667 10782 1 109.50000 418.400000
9497 15667 10787 1 109.50000 418.400000
10782 15667 10787 1 109.50000 418.400000
220 15668 3423 1 109.50000 418.400000
220 15668 8220 1 109.50000 418.400000
220 15668 9328 1 109.50000 418.400000
3423 15668 8220 1 109.50000 418.400000
3423 15668 9328 1 109.50000 418.400000
8220 15668 9328 1 109.50000 418.400000
2558 15669 8416 1 109.50000 418.400000
2558 15669 8968 1 109.50000 418.400000
2558 15669 10740 1 109.50000 418.400000
8416 15669 8968 1 109.50000 418.400000
8416 15669 10740 1 109.50000 418.400000
8968 15669 10740 1 109.50000 418.400000
896 15670 4550 1 109.50000 418.400000
896 15670 7220 1 109.50000 418.400000
896 15670 11207 1 109.50000 418.400000
4550 15670 7220 1 109.50000 418.400000
4550 15670 11207 1 109.50000 418.400000
7220 15670 11207 1 109.50000 418.400000
6473 15671 9153 1 109.50000 418.400000
6473 15671 10099 1 109.50000 418.400000
6473 15671 10788 1 109.50000 418.400000
9153 15671 10099 1 109.50000 418.400000
9153 15671 10788 1 109.50000 418.400000
10099 15671 10788 1 109.50000 418.400000
6859 15672 7753 1 109.50000 418.400000
6859 15672 9027 1 109.50000 418.400000
6859 15672 9613 1 109.50000 418.400000
7753 15672 9027 1 109.50000 418.400000
7753 15672 9613 1 109.50000 418.400000
9027 15672 9613 1 109.50000 418.400000
4518 15673 8633 1 109.50000 418.400000
4518 15673 10783 1 109.50000 418.400000
4518 15673 10789 1 109.50000 418.400000
8633 15673 10783 1 109.50000 418.400000
8633 15673 10789 1 109.50000 418.400000
10783 15673 10789 1 109.50000 418.400000
357 15674 6595 1 109.50000 418.400000
357 15674 10790 1 109.50000 418.400000
357 15674 11147 1 109.50000 418.400000
6595 15674 10790 1 109.50000 418.400000
6595 15674 11147 1 109.50000 418.400000
10790 15674 11147 1 109.50000 418.400000
3869 15675 8207 1 109.50000 418.400000
3869 15675 9952 1 109.50000 418.400000
3869 15675 10791 1 109.50000 418.400000
8207 15675 9952 1 109.50000 418.400000
8207 15675 10791 1 109.50000 418.400000
9952 15675 10791 1 109.50000 418.400000
1589 15676 4739 1 109.50000 418.400000
1589 15676 10792 1 109.50000 418.400000
1589 15676 10793 1 109.50000 418.400000
4739 15676 10792 1 109.50000 418.400000
4739 15676 10793 1 109.50000 418.400000
10792 15676 10793 1 109.50000 418.400000
9555 15677 9944 1 109.50000 418.400000
9555 15677 10237 1 109.50000 418.400000
9555 15677 10794 1 109.50000 418.400000
9944 15677 10237 1 109.50000 418.400000
9944 15677 10794 1 109.50000 418.400000
10237 15677 10794 1 109.50000 418.400000
1013 15678 7856 1 109.50000 418.400000
1013 15678 10399 1 109.50000 418.400000
1013 15678 10796 1 109.50000 418.400000
7856 15678 10399 1 109.50000 418.400000
7856 15678 10796 1 109.50000 418.400000
10399 15678 10796 1 109.50000 418.400000
7811 15679 9697 1 109.50000 418.400000
7811 15679 10797 1 109.50000 418.400000
7811 15679 10798 1 109.50000 418.400000
9697 15679 10797 1 109.50000 418.400000
9697 15679 10798 1 109.50000 418.400000
10797 15679 10798 1 109.50000 418.400000
4063 15680 8707 1 109.50000 418.400000
4063 15680 10461 1 109.50000 418.400000
4063 15680 10549 1 109.50000 418.400000
8707 15680 10461 1 109.50000 418.400000
8707 15680 10549 1 109.50000 418.400000
10461 15680 10549 1 109.50000 418.400000
188 15681 9410 1 109.50000 418.400000
188 15681 9711 1 109.50000 418.400000
188 15681 10799 1 109.50000 418.400000
9410 15681 9711 1 109.50000 418.400000
9410 15681 10799 1 109.50000 418.400000
9711 15681 10799 1 109.50000 418.400000
6900 15682 7459 1 109.50000 418.400000
6900 15682 7668 1 109.50000 418.400000
6900 15682 8008 1 109.50000 418.400000
7459 15682 7668 1 109.50000 418.400000
7459 15682 8008 1 109.50000 418.400000
7668 15682 8008 1 109.50000 418.400000
2784 15683 2905 1 109.50000 418.400000
2784 15683 6807 1 109.50000 418.400000
2784 15683 8728 1 109.50000 418.400000
2905 15683 6807 1 109.50000 418.400000
2905 15683 8728 1 109.50000 418.400000
6807 15683 8728 1 109.50000 418.400000
8223 15684 9616 1 109.50000 418.400000
8223 15684 10800 1 109.50000 418.400000
8223 15684 10801 1 109.50000 418.400000
9616 15684 10800 1 109.50000 418.400000
9616 15684 10801 1 109.50000 418.400000
10800 15684 10801 1 109.50000 418.400000
1438 15685 9146 1 109.50000 418.400000
1438 15685 9147 1 109.50000 418.400000
1438 15685 9148 1 109.50000 418.400000
9146 15685 9147 1 109.50000 418.400000
9146 15685 9148 1 109.50000 418.400000
9147 15685 9148 1 109.50000 418.400000
2884 15686 9804 1 109.50000 418.400000
2884 15686 10802 1 109.50000 418.400000
2884 15686 11338 1 109.50000 418.400000
9804 15686 10802 1 109.50000 418.400000
9804 15686 11338 1 109.50000 418.400000
10802 15686 11338 1 109.50000 418.400000
6879 15687 7011 1 109.50000 418.400000
6879 15687 7744 1 109.50000 418.400000
6879 15687 10547 1 109.50000 418.400000
7011 15687 7744 1 109.50000 418.400000
7011 15687 10547 1 109.50000 418.400000
7744 15687 10547 1 109.50000 418.400000
737 15688 6181 1 109.50000 418.400000
737 15688 6248 1 109.50000 418.400000
737 15688 7720 1 109.50000 418.400000
6181 15688 6248 1 109.50000 418.400000
6181 15688 7720 1 109.50000 418.400000
6248 15688 7720 1 109.50000 418.400000
631 15689 1244 1 109.50000 418.400000
631 15689 8077 1 109.50000 418.400000
631 15689 8982 1 109.50000 418.400000
1244 15689 8077 1 109.50000 418.400000
1244 15689 8982 1 109.50000 418.400000
8077 15689 8982 1 109.50000 418.400000
332 15690 1050 1 109.50000 418.400000
332 15690 8787 1 109.50000 418.400000
332 15690 10803 1 109.50000 418.400000
1050 15690 8787 1 109.50000 418.400000
1050 15690 10803 1 109.50000 418.400000
8787 15690 10803 1 109.50000 418.400000
5343 15691 6942 1 109.50000 418.400000
5343 15691 7676 1 109.50000 418.400000
5343 15691 10805 1 109.50000 418.400000
6942 15691 7676 1 109.50000 418.400000
6942 15691 10805 1 109.50000 418.400000
7676 15691 10805 1 109.50000 418.400000
5565 15692 6070 1 109.50000 418.400000
5565 15692 6548 1 109.50000 418.400000
5565 15692 8222 1 109.50000 418.400000
6070 15692 6548 1 109.50000 418.400000
6070 15692 8222 1 109.50000 418.400000
6548 15692 8222 1 109.50000 418.400000
1694 15693 3638 1 109.50000 418.400000
1694 15693 9215 1 109.50000 418.400000
1694 15693 10806 1 109.50000 418.400000
3638 15693 9215 1 109.50000 418.400000
3638 15693 10806 1 109.50000 418.400000
9215 15693 10806 1 109.50000 418.400000
4129 15694 4944 1 109.50000 418.400000
4129 15694 8746 1 109.50000 418.400000
4129 15694 10605 1 109.50000 418.400000
4944 15694 8746 1 109.50000 418.400000
4944 15694 10605 1 109.50000 418.400000
8746 15694 10605 1 109.50000 418.400000
2227 15695 2916 1 109.50000 418.400000
2227 15695 9156 1 109.50000 418.400000
2227 15695 9326 1 109.50000 418.400000
2916 15695 9156 1 109.50000 418.400000
2916 15695 9326 1 109.50000 418.400000
9156 15695 9326 1 109.50000 418.400000
2537 15696 5170 1 109.50000 418.400000
2537 15696 10625 1 109.50000 418.400000
2537 15696 10807 1 109.50000 418.400000
5170 15696 10625 1 109.50000 418.400000
5170 15696 10807 1 109.50000 418.400000
10625 15696 10807 1 109.50000 418.400000
8174 15697 9670 1 109.50000 418.400000
8174 15697 10400 1 109.50000 418.400000
8174 15697 10808 1 109.50000 418.400000
9670 15697 10400 1 109.50000 418.400000
9670 15697 10808 1 109.50000 418.400000
10400 15697 10808 1 109.50000 418.400000
8107 15698 10521 1 109.50000 418.400000
8107 15698 10809 1 109.50000 418.400000
8107 15698 10810 1 109.50000 418.400000
10521 15698 10809 1 109.50000 418.400000
10521 15698 10810 1 109.50000 418.400000
10809 15698 10810 1 109.50000 418.400000
1894 15699 2390 1 109.50000 418.400000
1894 15699 6700 1 109.50000 418.400000
1894 15699 8457 1 109.50000 418.400000
2390 15699 6700 1 109.50000 418.400000
2390 15699 8457 1 109.50000 418.400000
6700 15699 8457 1 109.50000 418.400000
3622 15700 3662 1 109.50000 418.400000
3622 15700 6627 1 109.50000 418.400000
3622 15700 9615 1 109.50000 418.400000
3662 15700 6627 1 109.50000 418.400000
3662 15700 9615 1 109.50000 418.400000
6627 15700 9615 1 109.50000 418.400000
988 15701 6614 1 109.50000 418.400000
988 15701 9531 1 109.50000 418.400000
988 15701 10811 1 109.50000 418.400000
6614 15701 9531 1 109.50000 418.400000
6614 15701 10811 1 109.50000 418.400000
9531 15701 10811 1 109.50000 418.400000
6042 15702 6356 1 109.50000 418.400000
6042 15702 9834 1 109.50000 418.400000
6042 15702 10189 1 109.50000 418.400000
6356 15702 9834 1 109.50000 418.400000
6356 15702 10189 1 109.50000 418.400000
9834 15702 10189 1 109.50000 418.400000
5379 15703 9715 1 109.50000 418.400000
5379 15703 10448 1 109.50000 418.400000
5379 15703 10812 1 109.50000 418.400000
9715 15703 10448 1 109.50000 418.400000
9715 15703 10812 1 109.50000 418.400000
10448 15703 10812 1 109.50000 418.400000
8234 15704 9048 1 109.50000 418.400000
8234 15704 11280 1 109.50000 418.400000
8234 15704 11354 1 109.50000 418.400000
9048 15704 11280 1 109.50000 418.400000
9048 15704 11354 1 109.50000 418.400000
11280 15704 11354 1 109.50000 418.400000
3581 15705 5810 1 109.50000 418.400000
3581 15705 9248 1 109.50000 418.400000
3581 15705 9416 1 109.50000 418.400000
5810 15705 9248 1 109.50000 418.400000
5810 15705 9416 1 109.50000 418.400000
9248 15705 9416 1 109.50000 418.400000
8138 15706 8514 1 109.50000 418.400000
8138 15706 9860 1 109.50000 418.400000
8138 15706 10324 1 109.50000 418.400000
8514 15706 9860 1 109.50000 418.400000
8514 15706 10324 1 109.50000 418.400000
9860 15706 10324 1 109.50000 418.400000
6826 15707 7396 1 109.50000 418.400000
6826 15707 10105 1 109.50000 418.400000
6826 15707 10813 1 109.50000 418.400000
7396 15707 10105 1 109.50000 418.400000
7396 15707 10813 1 109.50000 418.400000
10105 15707 10813 1 109.50000 418.400000
3689 15708 6670 1 109.50000 418.400000
3689 15708 9731 1 109.50000 418.400000
3689 15708 10200 1 109.50000 418.400000
6670 15708 9731 1 109.50000 418.400000
6670 15708 10200 1 109.50000 418.400000
9731 15708 10200 1 109.50000 418.400000
7387 15709 8750 1 109.50000 418.400000
7387 15709 10541 1 109.50000 418.400000
7387 15709 10725 1 109.50000 418.400000
8750 15709 10541 1 109.50000 418.400000
8750 15709 10725 1 109.50000 418.400000
10541 15709 10725 1 109.50000 418.400000
7 15710 7221 1 109.50000 418.400000
7 15710 10404 1 109.50000 418.400000
7 15710 10667 1 109.50000 418.400000
7221 15710 10404 1 109.50000 418.400000
7221 15710 10667 1 109.50000 418.400000
10404 15710 10667 1 109.50000 418.400000
802 15711 4611 1 109.50000 418.400000
802 15711 8038 1 109.50000 418.400000
802 15711 10472 1 109.50000 418.400000
4611 15711 8038 1 109.50000 418.400000
4611 15711 10472 1 109.50000 418.400000
8038 15711 10472 1 109.50000 418.400000
1122 15712 6507 1 109.50000 418.400000
1122 15712 10259 1 109.50000 418.400000
1122 15712 10815 1 109.50000 418.400000
6507 15712 10259 1 109.50000 418.400000
6507 15712 10815 1 109.50000 418.400000
10259 15712 10815 1 109.50000 418.400000
2016 15713 4308 1 109.50000 418.400000
2016 15713 9290 1 109.50000 418.400000
2016 15713 10816 1 109.50000 418.400000
4308 15713 9290 1 109.50000 418.400000
4308 15713 10816 1 109.50000 418.400000
9290 15713 10816 1 109.50000 418.400000
1349 15714 3639 1 109.50000 418.400000
1349 15714 5176 1 109.50000 418.400000
1349 15714 9973 1 109.50000 418.400000
3639 15714 5176 1 109.50000 418.400000
3639 15714 9973 1 109.50000 418.400000
5176 15714 9973 1 109.50000 418.400000
6223 15715 8596 1 109.50000 418.400000
6223 15715 10817 1 109.50000 418.400000
6223 15715 10818 1 109.50000 418.400000
8596 15715 10817 1 109.50000 418.400000
8596 15715 10818 1 109.50000 418.400000
10817 15715 10818 1 109.50000 418.400000
1895 15716 9507 1 109.50000 418.400000
1895 15716 9984 1 109.50000 418.400000
1895 15716 10161 1 109.50000 418.400000
9507 15716 9984 1 109.50000 418.400000
9507 15716 10161 1 109.50000 418.400000
9984 15716 10161 1 109.50000 418.400000
2754 15717 5618 1 109.50000 418.400000
2754 15717 8708 1 109.50000 418.400000
2754 15717 10819 1 109.50000 418.400000
5618 15717 8708 1 109.50000 418.400000
5618 15717 10819 1 109.50000 418.400000
8708 15717 10819 1 109.50000 418.400000
6745 15718 9154 1 109.50000 418.400000
6745 15718 9391 1 109.50000 418.400000
6745 15718 10100 1 109.50000 418.400000
9154 15718 9391 1 109.50000 418.400000
9154 15718 10100 1 109.50000 418.400000
9391 15718 10100 1 109.50000 418.400000
540 15719 835 1 109.50000 418.400000
540 15719 10231 1 109.50000 418.400000
540 15719 10820 1 109.50000 418.400000
835 15719 10231 1 109.50000 418.400000
835 15719 10820 1 109.50000 418.400000
10231 15719 10820 1 109.50000 418.400000
211 15720 2609 1 109.50000 418.400000
211 15720 7355 1 109.50000 418.400000
211 15720 9361 1 109.50000 418.400000
2609 15720 7355 1 109.50000 418.400000
2609 15720 9361 1 109.50000 418.400000
7355 15720 9361 1 109.50000 418.400000
1612 15721 1838 1 109.50000 418.400000
1612 15721 4372 1 109.50000 418.400000
1612 15721 6162 1 109.50000 418.400000
1838 15721 4372 1 109.50000 418.400000
1838 15721 6162 1 109.50000 418.400000
4372 15721 6162 1 109.50000 418.400000
532 15722 5600 1 109.50000 418.400000
532 15722 6344 1 109.50000 418.400000
532 15722 6360 1 109.50000 418.400000
5600 15722 6344 1 109.50000 418.400000
5600 15722 6360 1 109.50000 418.400000
6344 15722 6360 1 109.50000 418.400000
9306 15723 9594 1 109.50000 418.400000
9306 15723 10823 1 109.50000 418.400000
9306 15723 10824 1 109.50000 418.400000
9594 15723 10823 1 109.50000 418.400000
9594 15723 10824 1 109.50000 418.400000
10823 15723 10824 1 109.50000 418.400000
6272 15724 9914 1 109.50000 418.400000
6272 15724 10479 1 109.50000 418.400000
6272 15724 10825 1 109.50000 418.400000
9914 15724 10479 1 109.50000 418.400000
9914 15724 10825 1 109.50000 418.400000
10479 15724 10825 1 109.50000 418.400000
2635 15725 3456 1 109.50000 418.400000
2635 15725 9961 1 109.50000 418.400000
2635 15725 10826 1 109.50000 418.400000
3456 15725 9961 1 109.50000 418.400000
3456 15725 10826 1 109.50000 418.400000
9961 15725 10826 1 109.50000 418.400000
3276 15726 6908 1 109.50000 418.400000
3276 15726 8179 1 109.50000 418.400000
3276 15726 10546 1 109.50000 418.400000
6908 15726 8179 1 109.50000 418.400000
6908 15726 10546 1 109.50000 418.400000
8179 15726 10546 1 109.50000 418.400000
4781 15727 4783 1 109.50000 418.400000
4781 15727 9045 1 109.50000 418.400000
4781 15727 10720 1 109.50000 418.400000
4783 15727 9045 1 109.50000 418.400000
4783 15727 10720 1 109.50000 418.400000
9045 15727 10720 1 109.50000 418.400000
6605 15728 7983 1 109.50000 418.400000
6605 15728 9637 1 109.50000 418.400000
6605 15728 10499 1 109.50000 418.400000
7983 15728 9637 1 109.50000 418.400000
7983 15728 10499 1 109.50000 418.400000
9637 15728 10499 1 109.50000 418.400000
2493 15729 10813 1 109.50000 418.400000
2493 15729 10827 1 109.50000 418.400000
2493 15729 11286 1 109.50000 418.400000
10813 15729 10827 1 109.50000 418.400000
10813 15729 11286 1 109.50000 418.400000
10827 15729 11286 1 109.50000 418.400000
1222 15730 10802 1 109.50000 418.400000
1222 15730 10828 1 109.50000 418.400000
1222 15730 11368 1 109.50000 418.400000
10802 15730 10828 1 109.50000 418.400000
10802 15730 11368 1 109.50000 418.400000
10828 15730 11368 1 109.50000 418.400000
1411 15731 4673 1 109.50000 418.400000
1411 15731 6860 1 109.50000 418.400000
1411 15731 8689 1 109.50000 418.400000
4673 15731 6860 1 109.50000 418.400000
4673 15731 8689 1 109.50000 418.400000
6860 15731 8689 1 109.50000 418.400000
5252 15732 6953 1 109.50000 418.400000
5252 15732 7774 1 109.50000 418.400000
5252 15732 7776 1 109.50000 418.400000
6953 15732 7774 1 109.50000 418.400000
6953 15732 7776 1 109.50000 418.400000
7774 15732 7776 1 109.50000 418.400000
5153 15733 9356 1 109.50000 418.400000
5153 15733 10268 1 109.50000 418.400000
5153 15733 10588 1 109.50000 418.400000
9356 15733 10268 1 109.50000 418.400000
9356 15733 10588 1 109.50000 418.400000
10268 15733 10588 1 109.50000 418.400000
1023 15734 4198 1 109.50000 418.400000
1023 15734 5365 1 109.50000 418.400000
1023 15734 6261 1 109.50000 418.400000
4198 15734 5365 1 109.50000 418.400000
4198 15734 6261 1 109.50000 418.400000
5365 15734 6261 1 109.50000 418.400000
874 15735 7003 1 109.50000 418.400000
874 15735 7121 1 109.50000 418.400000
874 15735 7760 1 109.50000 418.400000
7003 15735 7121 1 109.50000 418.400000
7003 15735 7760 1 109.50000 418.400000
7121 15735 7760 1 109.50000 418.400000
4450 15736 9493 1 109.50000 418.400000
4450 15736 9517 1 109.50000 418.400000
4450 15736 10829 1 109.50000 418.400000
9493 15736 9517 1 109.50000 418.400000
9493 15736 10829 1 109.50000 418.400000
9517 15736 10829 1 109.50000 418.400000
2516 15737 2744 1 109.50000 418.400000
2516 15737 9283 1 109.50000 418.400000
2516 15737 9795 1 109.50000 418.400000
2744 15737 9283 1 109.50000 418.400000
2744 15737 9795 1 109.50000 418.400000
9283 15737 9795 1 109.50000 418.400000
2949 15738 5368 1 109.50000 418.400000
2949 15738 9710 1 109.50000 418.400000
2949 15738 9728 1 109.50000 418.400000
5368 15738 9710 1 109.50000 418.400000
5368 15738 9728 1 109.50000 418.400000
9710 15738 9728 1 109.50000 418.400000
4573 15739 5767 1 109.50000 418.400000
4573 15739 7701 1 109.50000 418.400000
4573 15739 10830 1 109.50000 418.400000
5767 15739 7701 1 109.50000 418.400000
5767 15739 10830 1 109.50000 418.400000
7701 15739 10830 1 109.50000 418.400000
2992 15740 2993 1 109.50000 418.400000
2992 15740 2994 1 109.50000 418.400000
2992 15740 2995 1 109.50000 418.400000
2993 15740 2994 1 109.50000 418.400000
2993 15740 2995 1 109.50000 418.400000
2994 15740 2995 1 109.50000 418.400000
1060 15741 1062 1 109.50000 418.400000
1060 15741 9158 1 109.50000 418.400000
1060 15741 9327 1 109.50000 418.400000
1062 15741 9158 1 109.50000 418.400000
1062 15741 9327 1 109.50000 418.400000
9158 15741 9327 1 109.50000 418.400000
9258 15742 9632 1 109.50000 418.400000
9258 15742 9633 1 109.50000 418.400000
9258 15742 10831 1 109.50000 418.400000
9632 15742 9633 1 109.50000 418.400000
9632 15742 10831 1 109.50000 418.400000
9633 15742 10831 1 109.50000 418.400000
613 15743 9277 1 109.50000 418.400000
613 15743 10785 1 109.50000 418.400000
613 15743 10832 1 109.50000 418.400000
9277 15743 10785 1 109.50000 418.400000
9277 15743 10832 1 109.50000 418.400000
10785 15743 10832 1 109.50000 418.400000
3624 15744 3625 1 109.50000 418.400000
3624 15744 5320 1 109.50000 418.400000
3624 15744 7063 1 109.50000 418.400000
3625 15744 5320 1 109.50000 418.400000
3625 15744 7063 1 109.50000 418.400000
5320 15744 7063 1 109.50000 418.400000
1713 15745 9018 1 109.50000 418.400000
1713 15745 10491 1 109.50000 418.400000
1713 15745 10833 1 109.50000 418.400000
9018 15745 10491 1 109.50000 418.400000
9018 15745 10833 1 109.50000 418.400000
10491 15745 10833 1 109.50000 418.400000
2779 15746 6399 1 109.50000 418.400000
2779 15746 9815 1 109.50000 418.400000
2779 15746 10392 1 109.50000 418.400000
6399 15746 9815 1 109.50000 418.400000
6399 15746 10392 1 109.50000 418.400000
9815 15746 10392 1 109.50000 418.400000
6455 15747 8047 1 109.50000 418.400000
6455 15747 10834 1 109.50000 418.400000
6455 15747 10835 1 109.50000 418.400000
8047 15747 10834 1 109.50000 418.400000
8047 15747 10835 1 109.50000 418.400000
10834 15747 10835 1 109.50000 418.400000
2702 15748 6941 1 109.50000 418.400000
2702 15748 8650 1 109.50000 418.400000
2702 15748 10787 1 109.50000 418.400000
6941 15748 8650 1 109.50000 418.400000
6941 15748 10787 1 109.50000 418.400000
8650 15748 10787 1 109.50000 418.400000
2688 15749 4833 1 109.50000 418.400000
2688 15749 10836 1 109.50000 418.400000
2688 15749 10837 1 109.50000 418.400000
4833 15749 10836 1 109.50000 418.400000
4833 15749 10837 1 109.50000 418.400000
10836 15749 10837 1 109.50000 418.400000
7289 15750 7291 1 109.50000 418.400000
7289 15750 9510 1 109.50000 418.400000
7289 15750 10838 1 109.50000 418.400000
7291 15750 9510 1 109.50000 418.400000
7291 15750 10838 1 109.50000 418.400000
9510 15750 10838 1 109.50000 418.400000
2649 15751 8048 1 109.50000 418.400000
2649 15751 8580 1 109.50000 418.400000
2649 15751 9272 1 109.50000 418.400000
8048 15751 8580 1 109.50000 418.400000
8048 15751 9272 1 109.50000 418.400000
8580 15751 9272 1 109.50000 418.400000
4501 15752 10840 1 109.50000 418.400000
4501 15752 10841 1 109.50000 418.400000
4501 15752 11336 1 109.50000 418.400000
10840 15752 10841 1 109.50000 418.400000
10840 15752 11336 1 109.50000 418.400000
10841 15752 11336 1 109.50000 418.400000
4612 15753 7935 1 109.50000 418.400000
4612 15753 10842 1 109.50000 418.400000
4612 15753 10843 1 109.50000 418.400000
7935 15753 10842 1 109.50000 418.400000
7935 15753 10843 1 109.50000 418.400000
10842 15753 10843 1 109.50000 418.400000
4527 15754 8423 1 109.50000 418.400000
4527 15754 10339 1 109.50000 418.400000
4527 15754 10340 1 109.50000 418.400000
8423 15754 10339 1 109.50000 418.400000
8423 15754 10340 1 109.50000 418.400000
10339 15754 10340 1 109.50000 418.400000
5082 15755 6147 1 109.50000 418.400000
5082 15755 9168 1 109.50000 418.400000
5082 15755 10701 1 109.50000 418.400000
6147 15755 9168 1 109.50000 418.400000
6147 15755 10701 1 109.50000 418.400000
9168 15755 10701 1 109.50000 418.400000
2548 15756 8998 1 109.50000 418.400000
2548 15756 9337 1 109.50000 418.400000
2548 15756 10844 1 109.50000 418.400000
8998 15756 9337 1 109.50000 418.400000
8998 15756 10844 1 109.50000 418.400000
9337 15756 10844 1 109.50000 418.400000
1573 15757 9266 1 109.50000 418.400000
1573 15757 10845 1 109.50000 418.400000
1573 15757 10846 1 109.50000 418.400000
9266 15757 10845 1 109.50000 418.400000
9266 15757 10846 1 109.50000 418.400000
10845 15757 10846 1 109.50000 418.400000
1942 15758 6428 1 109.50000 418.400000
1942 15758 9150 1 109.50000 418.400000
1942 15758 10847 1 109.50000 418.400000
6428 15758 9150 1 109.50000 418.400000
6428 15758 10847 1 109.50000 418.400000
9150 15758 10847 1 109.50000 418.400000
1973 15759 1974 1 109.50000 418.400000
1973 15759 10405 1 109.50000 418.400000
1973 15759 10773 1 109.50000 418.400000
1974 15759 10405 1 109.50000 418.400000
1974 15759 10773 1 109.50000 418.400000
10405 15759 10773 1 109.50000 418.400000
6475 15760 6744 1 109.50000 418.400000
6475 15760 10710 1 109.50000 418.400000
6475 15760 10848 1 109.50000 418.400000
6744 15760 10710 1 109.50000 418.400000
6744 15760 10848 1 109.50000 418.400000
10710 15760 10848 1 109.50000 418.400000
3254 15761 5660 1 109.50000 418.400000
3254 15761 6674 1 109.50000 418.400000
3254 15761 10731 1 109.50000 418.400000
5660 15761 6674 1 109.50000 418.400000
5660 15761 10731 1 109.50000 418.400000
6674 15761 10731 1 109.50000 418.400000
434 15762 8884 1 109.50000 418.400000
434 15762 9954 1 109.50000 418.400000
434 15762 10564 1 109.50000 418.400000
8884 15762 9954 1 109.50000 418.400000
8884 15762 10564 1 109.50000 418.400000
9954 15762 10564 1 109.50000 418.400000
76 15763 2970 1 109.50000 418.400000
76 15763 5209 1 109.50000 418.400000
76 15763 10849 1 109.50000 418.400000
2970 15763 5209 1 109.50000 418.400000
2970 15763 10849 1 109.50000 418.400000
5209 15763 10849 1 109.50000 418.400000
7024 15764 7076 1 109.50000 418.400000
7024 15764 9866 1 109.50000 418.400000
7024 15764 10267 1 109.50000 418.400000
7076 15764 9866 1 109.50000 418.400000
7076 15764 10267 1 109.50000 418.400000
9866 15764 10267 1 109.50000 418.400000
632 15765 3895 1 109.50000 418.400000
632 15765 10192 1 109.50000 418.400000
632 15765 10839 1 109.50000 418.400000
3895 15765 10192 1 109.50000 418.400000
3895 15765 10839 1 109.50000 418.400000
10192 15765 10839 1 109.50000 418.400000
89 15766 929 1 109.50000 418.400000
89 15766 4657 1 109.50000 418.400000
89 15766 10708 1 109.50000 418.400000
929 15766 4657 1 109.50000 418.400000
929 15766 10708 1 109.50000 418.400000
4657 15766 10708 1 109.50000 418.400000
3050 15767 5924 1 109.50000 418.400000
3050 15767 7157 1 109.50000 418.400000
3050 15767 9365 1 109.50000 418.400000
5924 15767 7157 1 109.50000 418.400000
5924 15767 9365 1 109.50000 418.400000
7157 15767 9365 1 109.50000 418.400000
764 15768 2808 1 109.50000 418.400000
764 15768 10850 1 109.50000 418.400000
764 15768 10851 1 109.50000 418.400000
2808 15768 10850 1 109.50000 418.400000
2808 15768 10851 1 109.50000 418.400000
10850 15768 10851 1 109.50000 418.400000
444 15769 1081 1 109.50000 418.400000
444 15769 6772 1 109.50000 418.400000
444 15769 10470 1 109.50000 418.400000
1081 15769 6772 1 109.50000 418.400000
1081 15769 10470 1 109.50000 418.400000
6772 15769 10470 1 109.50000 418.400000
3287 15770 6885 1 109.50000 418.400000
3287 15770 9951 1 109.50000 418.400000
3287 15770 10178 1 109.50000 418.400000
6885 15770 9951 1 109.50000 418.400000
6885 15770 10178 1 109.50000 418.400000
9951 15770 10178 1 109.50000 418.400000
1754 15771 3370 1 109.50000 418.400000
1754 15771 4968 1 109.50000 418.400000
1754 15771 9407 1 109.50000 418.400000
3370 15771 4968 1 109.50000 418.400000
3370 15771 9407 1 109.50000 418.400000
4968 15771 9407 1 109.50000 418.400000
55 15772 8096 1 109.50000 418.400000
55 15772 10658 1 109.50000 418.400000
55 15772 10852 1 109.50000 418.400000
8096 15772 10658 1 109.50000 418.400000
8096 15772 10852 1 109.50000 418.400000
10658 15772 10852 1 109.50000 418.400000
4848 15773 5735 1 109.50000 418.400000
4848 15773 7309 1 109.50000 418.400000
4848 15773 11341 1 109.50000 418.400000
5735 15773 7309 1 109.50000 418.400000
5735 15773 11341 1 109.50000 418.400000
7309 15773 11341 1 109.50000 418.400000
7997 15774 8736 1 109.50000 418.400000
7997 15774 10066 1 109.50000 418.400000
7997 15774 10853 1 109.50000 418.400000
8736 15774 10066 1 109.50000 418.400000
8736 15774 10853 1 109.50000 418.400000
10066 15774 10853 1 109.50000 418.400000
9560 15775 9685 1 109.50000 418.400000
9560 15775 10854 1 109.50000 418.400000
9560 15775 10901 1 109.50000 418.400000
9685 15775 10854 1 109.50000 418.400000
9685 15775 10901 1 109.50000 418.400000
10854 15775 10901 1 109.50000 418.400000
4159 15776 5857 1 109.50000 418.400000
4159 15776 6855 1 109.50000 418.400000
4159 15776 10855 1 109.50000 418.400000
5857 15776 6855 1 109.50000 418.400000
5857 15776 10855 1 109.50000 418.400000
6855 15776 10855 1 109.50000 418.400000
4066 15777 4067 1 109.50000 418.400000
4066 15777 8150 1 109.50000 418.400000
4066 15777 8440 1 109.50000 418.400000
4067 15777 8150 1 109.50000 418.400000
4067 15777 8440 1 109.50000 418.400000
8150 15777 8440 1 109.50000 418.400000
4379 15778 8713 1 109.50000 418.400000
4379 15778 10856 1 109.50000 418.400000
4379 15778 10857 1 109.50000 418.400000
8713 15778 10856 1 109.50000 418.400000
8713 15778 10857 1 109.50000 418.400000
10856 15778 10857 1 109.50000 418.400000
4497 15779 5673 1 109.50000 418.400000
4497 15779 10858 1 109.50000 418.400000
4497 15779 11340 1 109.50000 418.400000
5673 15779 10858 1 109.50000 418.400000
5673 15779 11340 1 109.50000 418.400000
10858 15779 11340 1 109.50000 418.400000
665 15780 666 1 109.50000 418.400000
665 15780 5447 1 109.50000 418.400000
665 15780 10859 1 109.50000 418.400000
666 15780 5447 1 109.50000 418.400000
666 15780 10859 1 109.50000 418.400000
5447 15780 10859 1 109.50000 418.400000
10300 15781 10302 1 109.50000 418.400000
10300 15781 10860 1 109.50000 418.400000
10300 15781 10861 1 109.50000 418.400000
10302 15781 10860 1 109.50000 418.400000
10302 15781 10861 1 109.50000 418.400000
10860 15781 10861 1 109.50000 418.400000
319 15782 839 1 109.50000 418.400000
319 15782 7000 1 109.50000 418.400000
319 15782 10145 1 109.50000 418.400000
839 15782 7000 1 109.50000 418.400000
839 15782 10145 1 109.50000 418.400000
7000 15782 10145 1 109.50000 418.400000
6391 15783 7276 1 109.50000 418.400000
6391 15783 9687 1 109.50000 418.400000
6391 15783 10859 1 109.50000 418.400000
7276 15783 9687 1 109.50000 418.400000
7276 15783 10859 1 109.50000 418.400000
9687 15783 10859 1 109.50000 418.400000
2689 15784 7068 1 109.50000 418.400000
2689 15784 8826 1 109.50000 418.400000
2689 15784 10862 1 109.50000 418.400000
7068 15784 8826 1 109.50000 418.400000
7068 15784 10862 1 109.50000 418.400000
8826 15784 10862 1 109.50000 418.400000
2682 15785 2683 1 109.50000 418.400000
2682 15785 3534 1 109.50000 418.400000
2682 15785 4979 1 109.50000 418.400000
2683 15785 3534 1 109.50000 418.400000
2683 15785 4979 1 109.50000 418.400000
3534 15785 4979 1 109.50000 418.400000
1760 15786 8105 1 109.50000 418.400000
1760 15786 9004 1 109.50000 418.400000
1760 15786 11152 1 109.50000 418.400000
8105 15786 9004 1 109.50000 418.400000
8105 15786 11152 1 109.50000 418.400000
9004 15786 11152 1 109.50000 418.400000
554 15787 2181 1 109.50000 418.400000
554 15787 6780 1 109.50000 418.400000
554 15787 10863 1 109.50000 418.400000
2181 15787 6780 1 109.50000 418.400000
2181 15787 10863 1 109.50000 418.400000
6780 15787 10863 1 109.50000 418.400000
3 15788 2221 1 109.50000 418.400000
3 15788 2491 1 109.50000 418.400000
3 15788 5872 1 109.50000 418.400000
2221 15788 2491 1 109.50000 418.400000
2221 15788 5872 1 109.50000 418.400000
2491 15788 5872 1 109.50000 418.400000
1389 15789 2641 1 109.50000 418.400000
1389 15789 7408 1 109.50000 418.400000
1389 15789 7410 1 109.50000 418.400000
2641 15789 7408 1 109.50000 418.400000
2641 15789 7410 1 109.50000 418.400000
7408 15789 7410 1 109.50000 418.400000
8449 15790 8450 1 109.50000 418.400000
8449 15790 9655 1 109.50000 418.400000
8449 15790 9656 1 109.50000 418.400000
8450 15790 9655 1 109.50000 418.400000
8450 15790 9656 1 109.50000 418.400000
9655 15790 9656 1 109.50000 418.400000
6684 15791 8316 1 109.50000 418.400000
6684 15791 10209 1 109.50000 418.400000
6684 15791 10865 1 109.50000 418.400000
8316 15791 10209 1 109.50000 418.400000
8316 15791 10865 1 109.50000 418.400000
10209 15791 10865 1 109.50000 418.400000
5516 15792 6417 1 109.50000 418.400000
5516 15792 6418 1 109.50000 418.400000
5516 15792 6795 1 109.50000 418.400000
6417 15792 6418 1 109.50000 418.400000
6417 15792 6795 1 109.50000 418.400000
6418 15792 6795 1 109.50000 418.400000
6045 15793 6856 1 109.50000 418.400000
6045 15793 7588 1 109.50000 418.400000
6045 15793 8284 1 109.50000 418.400000
6856 15793 7588 1 109.50000 418.400000
6856 15793 8284 1 109.50000 418.400000
7588 15793 8284 1 109.50000 418.400000
8459 15794 10864 1 109.50000 418.400000
8459 15794 10867 1 109.50000 418.400000
8459 15794 11329 1 109.50000 418.400000
10864 15794 10867 1 109.50000 418.400000
10864 15794 11329 1 109.50000 418.400000
10867 15794 11329 1 109.50000 418.400000
9876 15795 9977 1 109.50000 418.400000
9876 15795 10349 1 109.50000 418.400000
9876 15795 10870 1 109.50000 418.400000
9977 15795 10349 1 109.50000 418.400000
9977 15795 10870 1 109.50000 418.400000
10349 15795 10870 1 109.50000 418.400000
8597 15796 8932 1 109.50000 418.400000
8597 15796 9397 1 109.50000 418.400000
8597 15796 9472 1 109.50000 418.400000
8932 15796 9397 1 109.50000 418.400000
8932 15796 9472 1 109.50000 418.400000
9397 15796 9472 1 109.50000 418.400000
7461 15797 7814 1 109.50000 418.400000
7461 15797 10212 1 109.50000 418.400000
7461 15797 10753 1 109.50000 418.400000
7814 15797 10212 1 109.50000 418.400000
7814 15797 10753 1 109.50000 418.400000
10212 15797 10753 1 109.50000 418.400000
2751 15798 6833 1 109.50000 418.400000
2751 15798 10381 1 109.50000 418.400000
2751 15798 10539 1 109.50000 418.400000
6833 15798 10381 1 109.50000 418.400000
6833 15798 10539 1 109.50000 418.400000
10381 15798 10539 1 109.50000 418.400000
2636 15799 4620 1 109.50000 418.400000
2636 15799 5686 1 109.50000 418.400000
2636 15799 10771 1 109.50000 418.400000
4620 15799 5686 1 109.50000 418.400000
4620 15799 10771 1 109.50000 418.400000
5686 15799 10771 1 109.50000 418.400000
2507 15800 4879 1 109.50000 418.400000
2507 15800 9747 1 109.50000 418.400000
2507 15800 10768 1 109.50000 418.400000
4879 15800 9747 1 109.50000 418.400000
4879 15800 10768 1 109.50000 418.400000
9747 15800 10768 1 109.50000 418.400000
7644 15801 7645 1 109.50000 418.400000
7644 15801 10534 1 109.50000 418.400000
7644 15801 10871 1 109.50000 418.400000
7645 15801 10534 1 109.50000 418.400000
7645 15801 10871 1 109.50000 418.400000
10534 15801 10871 1 109.50000 418.400000
10437 15802 10873 1 109.50000 418.400000
10437 15802 10874 1 109.50000 418.400000
10437 15802 11378 1 109.50000 418.400000
10873 15802 10874 1 109.50000 418.400000
10873 15802 11378 1 109.50000 418.400000
10874 15802 11378 1 109.50000 418.400000
8723 15803 9467 1 109.50000 418.400000
8723 15803 10774 1 109.50000 418.400000
8723 15803 10875 1 109.50000 418.400000
9467 15803 10774 1 109.50000 418.400000
9467 15803 10875 1 109.50000 418.400000
10774 15803 10875 1 109.50000 418.400000
5409 15804 6266 1 109.50000 418.400000
5409 15804 10241 1 109.50000 418.400000
5409 15804 10876 1 109.50000 418.400000
6266 15804 10241 1 109.50000 418.400000
6266 15804 10876 1 109.50000 418.400000
10241 15804 10876 1 109.50000 418.400000
3211 15805 10459 1 109.50000 418.400000
3211 15805 10698 1 109.50000 418.400000
3211 15805 10749 1 109.50000 418.400000
10459 15805 10698 1 109.50000 418.400000
10459 15805 10749 1 109.50000 418.400000
10698 15805 10749 1 109.50000 418.400000
3099 15806 7458 1 109.50000 418.400000
3099 15806 8901 1 109.50000 418.400000
3099 15806 9649 1 109.50000 418.400000
7458 15806 8901 1 109.50000 418.400000
7458 15806 9649 1 109.50000 418.400000
8901 15806 9649 1 109.50000 418.400000
6632 15807 8328 1 109.50000 418.400000
6632 15807 8761 1 109.50000 418.400000
6632 15807 10828 1 109.50000 418.400000
8328 15807 8761 1 109.50000 418.400000
8328 15807 10828 1 109.50000 418.400000
8761 15807 10828 1 109.50000 418.400000
688 15808 6412 1 109.50000 418.400000
688 15808 6413 1 109.50000 418.400000
688 15808 6414 1 109.50000 418.400000
6412 15808 6413 1 109.50000 418.400000
6412 15808 6414 1 109.50000 418.400000
6413 15808 6414 1 109.50000 418.400000
6913 15809 7711 1 109.50000 418.400000
6913 15809 7861 1 109.50000 418.400000
6913 15809 11337 1 109.50000 418.400000
7711 15809 7861 1 109.50000 418.400000
7711 15809 11337 1 109.50000 418.400000
7861 15809 11337 1 109.50000 418.400000
112 15810 2871 1 109.50000 418.400000
112 15810 10878 1 109.50000 418.400000
112 15810 10879 1 109.50000 418.400000
2871 15810 10878 1 109.50000 418.400000
2871 15810 10879 1 109.50000 418.400000
10878 15810 10879 1 109.50000 418.400000
3158 15811 7183 1 109.50000 418.400000
3158 15811 10184 1 109.50000 418.400000
3158 15811 10880 1 109.50000 418.400000
7183 15811 10184 1 109.50000 418.400000
7183 15811 10880 1 109.50000 418.400000
10184 15811 10880 1 109.50000 418.400000
1498 15812 4158 1 109.50000 418.400000
1498 15812 10060 1 109.50000 418.400000
1498 15812 10881 1 109.50000 418.400000
4158 15812 10060 1 109.50000 418.400000
4158 15812 10881 1 109.50000 418.400000
10060 15812 10881 1 109.50000 418.400000
6411 15813 8063 1 109.50000 418.400000
6411 15813 8344 1 109.50000 418.400000
6411 15813 8830 1 109.50000 418.400000
8063 15813 8344 1 109.50000 418.400000
8063 15813 8830 1 109.50000 418.400000
8344 15813 8830 1 109.50000 418.400000
536 15814 3497 1 109.50000 418.400000
536 15814 7195 1 109.50000 418.400000
536 15814 8572 1 109.50000 418.400000
3497 15814 7195 1 109.50000 418.400000
3497 15814 8572 1 109.50000 418.400000
7195 15814 8572 1 109.50000 418.400000
2196 15815 2308 1 109.50000 418.400000
2196 15815 4635 1 109.50000 418.400000
2196 15815 10882 1 109.50000 418.400000
2308 15815 4635 1 109.50000 418.400000
2308 15815 10882 1 109.50000 418.400000
4635 15815 10882 1 109.50000 418.400000
8679 15816 8680 1 109.50000 418.400000
8679 15816 10883 1 109.50000 418.400000
8679 15816 10885 1 109.50000 418.400000
8680 15816 10883 1 109.50000 418.400000
8680 15816 10885 1 109.50000 418.400000
10883 15816 10885 1 109.50000 418.400000
240 15817 6907 1 109.50000 418.400000
240 15817 10718 1 109.50000 418.400000
240 15817 10886 1 109.50000 418.400000
6907 15817 10718 1 109.50000 418.400000
6907 15817 10886 1 109.50000 418.400000
10718 15817 10886 1 109.50000 418.400000
4333 15818 6286 1 109.50000 418.400000
4333 15818 7937 1 109.50000 418.400000
4333 15818 10575 1 109.50000 418.400000
6286 15818 7937 1 109.50000 418.400000
6286 15818 10575 1 109.50000 418.400000
7937 15818 10575 1 109.50000 418.400000
1674 15819 6466 1 109.50000 418.400000
1674 15819 8379 1 109.50000 418.400000
1674 15819 10390 1 109.50000 418.400000
6466 15819 8379 1 109.50000 418.400000
6466 15819 10390 1 109.50000 418.400000
8379 15819 10390 1 109.50000 418.400000
2407 15820 6119 1 109.50000 418.400000
2407 15820 9161 1 109.50000 418.400000
2407 15820 10464 1 109.50000 418.400000
6119 15820 9161 1 109.50000 418.400000
6119 15820 10464 1 109.50000 418.400000
9161 15820 10464 1 109.50000 418.400000
681 15821 1046 1 109.50000 418.400000
681 15821 7032 1 109.50000 418.400000
681 15821 9532 1 109.50000 418.400000
1046 15821 7032 1 109.50000 418.400000
1046 15821 9532 1 109.50000 418.400000
7032 15821 9532 1 109.50000 418.400000
2152 15822 5190 1 109.50000 418.400000
2152 15822 8272 1 109.50000 418.400000
2152 15822 10882 1 109.50000 418.400000
5190 15822 8272 1 109.50000 418.400000
5190 15822 10882 1 109.50000 418.400000
8272 15822 10882 1 109.50000 418.400000
8032 15823 9905 1 109.50000 418.400000
8032 15823 10644 1 109.50000 418.400000
8032 15823 10888 1 109.50000 418.400000
9905 15823 10644 1 109.50000 418.400000
9905 15823 10888 1 109.50000 418.400000
10644 15823 10888 1 109.50000 418.400000
970 15824 7607 1 109.50000 418.400000
970 15824 10240 1 109.50000 418.400000
970 15824 10889 1 109.50000 418.400000
7607 15824 10240 1 109.50000 418.400000
7607 15824 10889 1 109.50000 418.400000
10240 15824 10889 1 109.50000 418.400000
8887 15825 9233 1 109.50000 418.400000
8887 15825 10089 1 109.50000 418.400000
8887 15825 10890 1 109.50000 418.400000
9233 15825 10089 1 109.50000 418.400000
9233 15825 10890 1 109.50000 418.400000
10089 15825 10890 1 109.50000 418.400000
4694 15826 5411 1 109.50000 418.400000
4694 15826 7096 1 109.50000 418.400000
4694 15826 9232 1 109.50000 418.400000
5411 15826 7096 1 109.50000 418.400000
5411 15826 9232 1 109.50000 418.400000
7096 15826 9232 1 109.50000 418.400000
9719 15827 10892 1 109.50000 418.400000
9719 15827 10893 1 109.50000 418.400000
9719 15827 10894 1 109.50000 418.400000
10892 15827 10893 1 109.50000 418.400000
10892 15827 10894 1 109.50000 418.400000
10893 15827 10894 1 109.50000 418.400000
5738 15828 7691 1 109.50000 418.400000
5738 15828 10772 1 109.50000 418.400000
5738 15828 10895 1 109.50000 418.400000
7691 15828 10772 1 109.50000 418.400000
7691 15828 10895 1 109.50000 418.400000
10772 15828 10895 1 109.50000 418.400000
6296 15829 7705 1 109.50000 418.400000
6296 15829 7886 1 109.50000 418.400000
6296 15829 10321 1 109.50000 418.400000
7705 15829 7886 1 109.50000 418.400000
7705 15829 10321 1 109.50000 418.400000
7886 15829 10321 1 109.50000 418.400000
3462 15830 9082 1 109.50000 418.400000
3462 15830 9083 1 109.50000 418.400000
3462 15830 9911 1 109.50000 418.400000
9082 15830 9083 1 109.50000 418.400000
9082 15830 9911 1 109.50000 418.400000
9083 15830 9911 1 109.50000 418.400000
1137 15831 2092 1 109.50000 418.400000
1137 15831 9448 1 109.50000 418.400000
1137 15831 10896 1 109.50000 418.400000
2092 15831 9448 1 109.50000 418.400000
2092 15831 10896 1 109.50000 418.400000
9448 15831 10896 1 109.50000 418.400000
810 15832 811 1 109.50000 418.400000
810 15832 812 1 109.50000 418.400000
810 15832 813 1 109.50000 418.400000
811 15832 812 1 109.50000 418.400000
811 15832 813 1 109.50000 418.400000
812 15832 813 1 109.50000 418.400000
2927 15833 3343 1 109.50000 418.400000
2927 15833 4403 1 109.50000 418.400000
2927 15833 10416 1 109.50000 418.400000
3343 15833 4403 1 109.50000 418.400000
3343 15833 10416 1 109.50000 418.400000
4403 15833 10416 1 109.50000 418.400000
43 15834 2074 1 109.50000 418.400000
43 15834 8661 1 109.50000 418.400000
43 15834 9958 1 109.50000 418.400000
2074 15834 8661 1 109.50000 418.400000
2074 15834 9958 1 109.50000 418.400000
8661 15834 9958 1 109.50000 418.400000
1630 15835 5698 1 109.50000 418.400000
1630 15835 9236 1 109.50000 418.400000
1630 15835 10897 1 109.50000 418.400000
5698 15835 9236 1 109.50000 418.400000
5698 15835 10897 1 109.50000 418.400000
9236 15835 10897 1 109.50000 418.400000
4826 15836 9994 1 109.50000 418.400000
4826 15836 9995 1 109.50000 418.400000
4826 15836 10868 1 109.50000 418.400000
9994 15836 9995 1 109.50000 418.400000
9994 15836 10868 1 109.50000 418.400000
9995 15836 10868 1 109.50000 418.400000
6581 15837 10870 1 109.50000 418.400000
6581 15837 10898 1 109.50000 418.400000
6581 15837 10899 1 109.50000 418.400000
10870 15837 10898 1 109.50000 418.400000
10870 15837 10899 1 109.50000 418.400000
10898 15837 10899 1 109.50000 418.400000
1031 15838 8769 1 109.50000 418.400000
1031 15838 10865 1 109.50000 418.400000
1031 15838 10900 1 109.50000 418.400000
8769 15838 10865 1 109.50000 418.400000
8769 15838 10900 1 109.50000 418.400000
10865 15838 10900 1 109.50000 418.400000
8012 15839 9286 1 109.50000 418.400000
8012 15839 9606 1 109.50000 418.400000
8012 15839 9724 1 109.50000 418.400000
9286 15839 9606 1 109.50000 418.400000
9286 15839 9724 1 109.50000 418.400000
9606 15839 9724 1 109.50000 418.400000
1738 15840 1740 1 109.50000 418.400000
1738 15840 7174 1 109.50000 418.400000
1738 15840 10854 1 109.50000 418.400000
1740 15840 7174 1 109.50000 418.400000
1740 15840 10854 1 109.50000 418.400000
7174 15840 10854 1 109.50000 418.400000
1340 15841 4200 1 109.50000 418.400000
1340 15841 8003 1 109.50000 418.400000
1340 15841 8345 1 109.50000 418.400000
4200 15841 8003 1 109.50000 418.400000
4200 15841 8345 1 109.50000 418.400000
8003 15841 8345 1 109.50000 418.400000
7544 15842 9126 1 109.50000 418.400000
7544 15842 9296 1 109.50000 418.400000
7544 15842 10673 1 109.50000 418.400000
9126 15842 9296 1 109.50000 418.400000
9126 15842 10673 1 109.50000 418.400000
9296 15842 10673 1 109.50000 418.400000
3521 15843 5349 1 109.50000 418.400000
3521 15843 7816 1 109.50000 418.400000
3521 15843 8221 1 109.50000 418.400000
5349 15843 7816 1 109.50000 418.400000
5349 15843 8221 1 109.50000 418.400000
7816 15843 8221 1 109.50000 418.400000
8120 15844 8780 1 109.50000 418.400000
8120 15844 10855 1 109.50000 418.400000
8120 15844 10903 1 109.50000 418.400000
8780 15844 10855 1 109.50000 418.400000
8780 15844 10903 1 109.50000 418.400000
10855 15844 10903 1 109.50000 418.400000
942 15845 1593 1 109.50000 418.400000
942 15845 10403 1 109.50000 418.400000
942 15845 10779 1 109.50000 418.400000
1593 15845 10403 1 109.50000 418.400000
1593 15845 10779 1 109.50000 418.400000
10403 15845 10779 1 109.50000 418.400000
859 15846 6760 1 109.50000 418.400000
859 15846 10904 1 109.50000 418.400000
859 15846 10905 1 109.50000 418.400000
6760 15846 10904 1 109.50000 418.400000
6760 15846 10905 1 109.50000 418.400000
10904 15846 10905 1 109.50000 418.400000
494 15847 3029 1 109.50000 418.400000
494 15847 9585 1 109.50000 418.400000
494 15847 10906 1 109.50000 418.400000
3029 15847 9585 1 109.50000 418.400000
3029 15847 10906 1 109.50000 418.400000
9585 15847 10906 1 109.50000 418.400000
6158 15848 8858 1 109.50000 418.400000
6158 15848 9775 1 109.50000 418.400000
6158 15848 10908 1 109.50000 418.400000
8858 15848 9775 1 109.50000 418.400000
8858 15848 10908 1 109.50000 418.400000
9775 15848 10908 1 109.50000 418.400000
2969 15849 8399 1 109.50000 418.400000
2969 15849 10909 1 109.50000 418.400000
2969 15849 10910 1 109.50000 418.400000
8399 15849 10909 1 109.50000 418.400000
8399 15849 10910 1 109.50000 418.400000
10909 15849 10910 1 109.50000 418.400000
6480 15850 8869 1 109.50000 418.400000
6480 15850 10867 1 109.50000 418.400000
6480 15850 10912 1 109.50000 418.400000
8869 15850 10867 1 109.50000 418.400000
8869 15850 10912 1 109.50000 418.400000
10867 15850 10912 1 109.50000 418.400000
2790 15851 2799 1 109.50000 418.400000
2790 15851 4006 1 109.50000 418.400000
2790 15851 10617 1 109.50000 418.400000
2799 15851 4006 1 109.50000 418.400000
2799 15851 10617 1 109.50000 418.400000
4006 15851 10617 1 109.50000 418.400000
3041 15852 6187 1 109.50000 418.400000
3041 15852 11198 1 109.50000 418.400000
3041 15852 11199 1 109.50000 418.400000
6187 15852 11198 1 109.50000 418.400000
6187 15852 11199 1 109.50000 418.400000
11198 15852 11199 1 109.50000 418.400000
6330 15853 6891 1 109.50000 418.400000
6330 15853 9789 1 109.50000 418.400000
6330 15853 9819 1 109.50000 418.400000
6891 15853 9789 1 109.50000 418.400000
6891 15853 9819 1 109.50000 418.400000
9789 15853 9819 1 109.50000 418.400000
4697 15854 8967 1 109.50000 418.400000
4697 15854 10889 1 109.50000 418.400000
4697 15854 10914 1 109.50000 418.400000
8967 15854 10889 1 109.50000 418.400000
8967 15854 10914 1 109.50000 418.400000
10889 15854 10914 1 109.50000 418.400000
2103 15855 2411 1 109.50000 418.400000
2103 15855 8577 1 109.50000 418.400000
2103 15855 8706 1 109.50000 418.400000
2411 15855 8577 1 109.50000 418.400000
2411 15855 8706 1 109.50000 418.400000
8577 15855 8706 1 109.50000 418.400000
2102 15856 3651 1 109.50000 418.400000
2102 15856 5999 1 109.50000 418.400000
2102 15856 10884 1 109.50000 418.400000
3651 15856 5999 1 109.50000 418.400000
3651 15856 10884 1 109.50000 418.400000
5999 15856 10884 1 109.50000 418.400000
8911 15857 9425 1 109.50000 418.400000
8911 15857 10211 1 109.50000 418.400000
8911 15857 10915 1 109.50000 418.400000
9425 15857 10211 1 109.50000 418.400000
9425 15857 10915 1 109.50000 418.400000
10211 15857 10915 1 109.50000 418.400000
9582 15858 9593 1 109.50000 418.400000
9582 15858 10832 1 109.50000 418.400000
9582 15858 10916 1 109.50000 418.400000
9593 15858 10832 1 109.50000 418.400000
9593 15858 10916 1 109.50000 418.400000
10832 15858 10916 1 109.50000 418.400000
2373 15859 4155 1 109.50000 418.400000
2373 15859 10138 1 109.50000 418.400000
2373 15859 10917 1 109.50000 418.400000
4155 15859 10138 1 109.50000 418.400000
4155 15859 10917 1 109.50000 418.400000
10138 15859 10917 1 109.50000 418.400000
2769 15860 6783 1 109.50000 418.400000
2769 15860 9772 1 109.50000 418.400000
2769 15860 10714 1 109.50000 418.400000
6783 15860 9772 1 109.50000 418.400000
6783 15860 10714 1 109.50000 418.400000
9772 15860 10714 1 109.50000 418.400000
3149 15861 7071 1 109.50000 418.400000
3149 15861 8531 1 109.50000 418.400000
3149 15861 10282 1 109.50000 418.400000
7071 15861 8531 1 109.50000 418.400000
7071 15861 10282 1 109.50000 418.400000
8531 15861 10282 1 109.50000 418.400000
3060 15862 9600 1 109.50000 418.400000
3060 15862 10597 1 109.50000 418.400000
3060 15862 10918 1 109.50000 418.400000
9600 15862 10597 1 109.50000 418.400000
9600 15862 10918 1 109.50000 418.400000
10597 15862 10918 1 109.50000 418.400000
1876 15863 8050 1 109.50000 418.400000
1876 15863 9047 1 109.50000 418.400000
1876 15863 10581 1 109.50000 418.400000
8050 15863 9047 1 109.50000 418.400000
8050 15863 10581 1 109.50000 418.400000
9047 15863 10581 1 109.50000 418.400000
427 15864 7259 1 109.50000 418.400000
427 15864 7685 1 109.50000 418.400000
427 15864 10797 1 109.50000 418.400000
7259 15864 7685 1 109.50000 418.400000
7259 15864 10797 1 109.50000 418.400000
7685 15864 10797 1 109.50000 418.400000
385 15865 4541 1 109.50000 418.400000
385 15865 8253 1 109.50000 418.400000
385 15865 9618 1 109.50000 418.400000
4541 15865 8253 1 109.50000 418.400000
4541 15865 9618 1 109.50000 418.400000
8253 15865 9618 1 109.50000 418.400000
4529 15866 9957 1 109.50000 418.400000
4529 15866 10150 1 109.50000 418.400000
4529 15866 10151 1 109.50000 418.400000
9957 15866 10150 1 109.50000 418.400000
9957 15866 10151 1 109.50000 418.400000
10150 15866 10151 1 109.50000 418.400000
551 15867 2245 1 109.50000 418.400000
551 15867 4003 1 109.50000 418.400000
551 15867 6297 1 109.50000 418.400000
2245 15867 4003 1 109.50000 418.400000
2245 15867 6297 1 109.50000 418.400000
4003 15867 6297 1 109.50000 418.400000
5049 15868 9041 1 109.50000 418.400000
5049 15868 9042 1 109.50000 418.400000
5049 15868 10919 1 109.50000 418.400000
9041 15868 9042 1 109.50000 418.400000
9041 15868 10919 1 109.50000 418.400000
9042 15868 10919 1 109.50000 418.400000
91 15869 9216 1 109.50000 418.400000
91 15869 9362 1 109.50000 418.400000
91 15869 10903 1 109.50000 418.400000
9216 15869 9362 1 109.50000 418.400000
9216 15869 10903 1 109.50000 418.400000
9362 15869 10903 1 109.50000 418.400000
6200 15870 7505 1 109.50000 418.400000
6200 15870 10687 1 109.50000 418.400000
6200 15870 10876 1 109.50000 418.400000
7505 15870 10687 1 109.50000 418.400000
7505 15870 10876 1 109.50000 418.400000
10687 15870 10876 1 109.50000 418.400000
4825 15871 6168 1 109.50000 418.400000
4825 15871 9103 1 109.50000 418.400000
4825 15871 10532 1 109.50000 418.400000
6168 15871 9103 1 109.50000 418.400000
6168 15871 10532 1 109.50000 418.400000
9103 15871 10532 1 109.50000 418.400000
7407 15872 8716 1 109.50000 418.400000
7407 15872 10921 1 109.50000 418.400000
7407 15872 10922 1 109.50000 418.400000
8716 15872 10921 1 109.50000 418.400000
8716 15872 10922 1 109.50000 418.400000
10921 15872 10922 1 109.50000 418.400000
8799 15873 10705 1 109.50000 418.400000
8799 15873 10923 1 109.50000 418.400000
8799 15873 11303 1 109.50000 418.400000
10705 15873 10923 1 109.50000 418.400000
10705 15873 11303 1 109.50000 418.400000
10923 15873 11303 1 109.50000 418.400000
5252 15874 5253 1 109.50000 418.400000
5252 15874 6619 1 109.50000 418.400000
5252 15874 10001 1 109.50000 418.400000
5253 15874 6619 1 109.50000 418.400000
5253 15874 10001 1 109.50000 418.400000
6619 15874 10001 1 109.50000 418.400000
2523 15875 6872 1 109.50000 418.400000
2523 15875 8185 1 109.50000 418.400000
2523 15875 9259 1 109.50000 418.400000
6872 15875 8185 1 109.50000 418.400000
6872 15875 9259 1 109.50000 418.400000
8185 15875 9259 1 109.50000 418.400000
3509 15876 5943 1 109.50000 418.400000
3509 15876 5944 1 109.50000 418.400000
3509 15876 5945 1 109.50000 418.400000
5943 15876 5944 1 109.50000 418.400000
5943 15876 5945 1 109.50000 418.400000
5944 15876 5945 1 109.50000 418.400000
7975 15877 9989 1 109.50000 418.400000
7975 15877 10269 1 109.50000 418.400000
7975 15877 10924 1 109.50000 418.400000
9989 15877 10269 1 109.50000 418.400000
9989 15877 10924 1 109.50000 418.400000
10269 15877 10924 1 109.50000 418.400000
3889 15878 6295 1 109.50000 418.400000
3889 15878 7887 1 109.50000 418.400000
3889 15878 8411 1 109.50000 418.400000
6295 15878 7887 1 109.50000 418.400000
6295 15878 8411 1 109.50000 418.400000
7887 15878 8411 1 109.50000 418.400000
3570 15879 8709 1 109.50000 418.400000
3570 15879 9743 1 109.50000 418.400000
3570 15879 11366 1 109.50000 418.400000
8709 15879 9743 1 109.50000 418.400000
8709 15879 11366 1 109.50000 418.400000
9743 15879 11366 1 109.50000 418.400000
5237 15880 6122 1 109.50000 418.400000
5237 15880 6784 1 109.50000 418.400000
5237 15880 10629 1 109.50000 418.400000
6122 15880 6784 1 109.50000 418.400000
6122 15880 10629 1 109.50000 418.400000
6784 15880 10629 1 109.50000 418.400000
4279 15881 6109 1 109.50000 418.400000
4279 15881 10376 1 109.50000 418.400000
4279 15881 10925 1 109.50000 418.400000
6109 15881 10376 1 109.50000 418.400000
6109 15881 10925 1 109.50000 418.400000
10376 15881 10925 1 109.50000 418.400000
1436 15882 4389 1 109.50000 418.400000
1436 15882 8757 1 109.50000 418.400000
1436 15882 10712 1 109.50000 418.400000
4389 15882 8757 1 109.50000 418.400000
4389 15882 10712 1 109.50000 418.400000
8757 15882 10712 1 109.50000 418.400000
1870 15883 2546 1 109.50000 418.400000
1870 15883 9122 1 109.50000 418.400000
1870 15883 9518 1 109.50000 418.400000
2546 15883 9122 1 109.50000 418.400000
2546 15883 9518 1 109.50000 418.400000
9122 15883 9518 1 109.50000 418.400000
1844 15884 10453 1 109.50000 418.400000
1844 15884 10908 1 109.50000 418.400000
1844 15884 10927 1 109.50000 418.400000
10453 15884 10908 1 109.50000 418.400000
10453 15884 10927 1 109.50000 418.400000
10908 15884 10927 1 109.50000 418.400000
4031 15885 7264 1 109.50000 418.400000
4031 15885 10488 1 109.50000 418.400000
4031 15885 11356 1 109.50000 418.400000
7264 15885 10488 1 109.50000 418.400000
7264 15885 11356 1 109.50000 418.400000
10488 15885 11356 1 109.50000 418.400000
5550 15886 7615 1 109.50000 418.400000
5550 15886 10928 1 109.50000 418.400000
5550 15886 10929 1 109.50000 418.400000
7615 15886 10928 1 109.50000 418.400000
7615 15886 10929 1 109.50000 418.400000
10928 15886 10929 1 109.50000 418.400000
9300 15887 9349 1 109.50000 418.400000
9300 15887 10930 1 109.50000 418.400000
9300 15887 11017 1 109.50000 418.400000
9349 15887 10930 1 109.50000 418.400000
9349 15887 11017 1 109.50000 418.400000
10930 15887 11017 1 109.50000 418.400000
1462 15888 8608 1 109.50000 418.400000
1462 15888 9525 1 109.50000 418.400000
1462 15888 9947 1 109.50000 418.400000
8608 15888 9525 1 109.50000 418.400000
8608 15888 9947 1 109.50000 418.400000
9525 15888 9947 1 109.50000 418.400000
2156 15889 4857 1 109.50000 418.400000
2156 15889 9074 1 109.50000 418.400000
2156 15889 10426 1 109.50000 418.400000
4857 15889 9074 1 109.50000 418.400000
4857 15889 10426 1 109.50000 418.400000
9074 15889 10426 1 109.50000 418.400000
1828 15890 2231 1 109.50000 418.400000
1828 15890 5705 1 109.50000 418.400000
1828 15890 10042 1 109.50000 418.400000
2231 15890 5705 1 109.50000 418.400000
2231 15890 10042 1 109.50000 418.400000
5705 15890 10042 1 109.50000 418.400000
2028 15891 3313 1 109.50000 418.400000
2028 15891 7727 1 109.50000 418.400000
2028 15891 9359 1 109.50000 418.400000
3313 15891 7727 1 109.50000 418.400000
3313 15891 9359 1 109.50000 418.400000
7727 15891 9359 1 109.50000 418.400000
1452 15892 9647 1 109.50000 418.400000
1452 15892 10487 1 109.50000 418.400000
1452 15892 10657 1 109.50000 418.400000
9647 15892 10487 1 109.50000 418.400000
9647 15892 10657 1 109.50000 418.400000
10487 15892 10657 1 109.50000 418.400000
3043 15893 3046 1 109.50000 418.400000
3043 15893 8683 1 109.50000 418.400000
3043 15893 10025 1 109.50000 418.400000
3046 15893 8683 1 109.50000 418.400000
3046 15893 10025 1 109.50000 418.400000
8683 15893 10025 1 109.50000 418.400000
7435 15894 9528 1 109.50000 418.400000
7435 15894 10334 1 109.50000 418.400000
7435 15894 10931 1 109.50000 418.400000
9528 15894 10334 1 109.50000 418.400000
9528 15894 10931 1 109.50000 418.400000
10334 15894 10931 1 109.50000 418.400000
6047 15895 6552 1 109.50000 418.400000
6047 15895 6587 1 109.50000 418.400000
6047 15895 7963 1 109.50000 418.400000
6552 15895 6587 1 109.50000 418.400000
6552 15895 7963 1 109.50000 418.400000
6587 15895 7963 1 109.50000 418.400000
1362 15896 7116 1 109.50000 418.400000
1362 15896 9829 1 109.50000 418.400000
1362 15896 10732 1 109.50000 418.400000
7116 15896 9829 1 109.50000 418.400000
7116 15896 10732 1 109.50000 418.400000
9829 15896 10732 1 109.50000 418.400000
1149 15897 4240 1 109.50000 418.400000
1149 15897 7147 1 109.50000 418.400000
1149 15897 10834 1 109.50000 418.400000
4240 15897 7147 1 109.50000 418.400000
4240 15897 10834 1 109.50000 418.400000
7147 15897 10834 1 109.50000 418.400000
5381 15898 8630 1 109.50000 418.400000
5381 15898 8700 1 109.50000 418.400000
5381 15898 10932 1 109.50000 418.400000
8630 15898 8700 1 109.50000 418.400000
8630 15898 10932 1 109.50000 418.400000
8700 15898 10932 1 109.50000 418.400000
206 15899 4662 1 109.50000 418.400000
206 15899 10277 1 109.50000 418.400000
206 15899 10737 1 109.50000 418.400000
4662 15899 10277 1 109.50000 418.400000
4662 15899 10737 1 109.50000 418.400000
10277 15899 10737 1 109.50000 418.400000
3515 15900 3826 1 109.50000 418.400000
3515 15900 5072 1 109.50000 418.400000
3515 15900 6175 1 109.50000 418.400000
3826 15900 5072 1 109.50000 418.400000
3826 15900 6175 1 109.50000 418.400000
5072 15900 6175 1 109.50000 418.400000
361 15901 2397 1 109.50000 418.400000
361 15901 10504 1 109.50000 418.400000
361 15901 10933 1 109.50000 418.400000
2397 15901 10504 1 109.50000 418.400000
2397 15901 10933 1 109.50000 418.400000
10504 15901 10933 1 109.50000 418.400000
6108 15902 6197 1 109.50000 418.400000
6108 15902 10801 1 109.50000 418.400000
6108 15902 11264 1 109.50000 418.400000
6197 15902 10801 1 109.50000 418.400000
6197 15902 11264 1 109.50000 418.400000
10801 15902 11264 1 109.50000 418.400000
1294 15903 1443 1 109.50000 418.400000
1294 15903 3468 1 109.50000 418.400000
1294 15903 9661 1 109.50000 418.400000
1443 15903 3468 1 109.50000 418.400000
1443 15903 9661 1 109.50000 418.400000
3468 15903 9661 1 109.50000 418.400000
1904 15904 9358 1 109.50000 418.400000
1904 15904 9901 1 109.50000 418.400000
1904 15904 10934 1 109.50000 418.400000
9358 15904 9901 1 109.50000 418.400000
9358 15904 10934 1 109.50000 418.400000
9901 15904 10934 1 109.50000 418.400000
73 15905 3562 1 109.50000 418.400000
73 15905 3564 1 109.50000 418.400000
73 15905 3565 1 109.50000 418.400000
3562 15905 3564 1 109.50000 418.400000
3562 15905 3565 1 109.50000 418.400000
3564 15905 3565 1 109.50000 418.400000
1975 15906 1977 1 109.50000 418.400000
1975 15906 6247 1 109.50000 418.400000
1975 15906 10636 1 109.50000 418.400000
1977 15906 6247 1 109.50000 418.400000
1977 15906 10636 1 109.50000 418.400000
6247 15906 10636 1 109.50000 418.400000
538 15907 6125 1 109.50000 418.400000
538 15907 7819 1 109.50000 418.400000
538 15907 10443 1 109.50000 418.400000
6125 15907 7819 1 109.50000 418.400000
6125 15907 10443 1 109.50000 418.400000
7819 15907 10443 1 109.50000 418.400000
1176 15908 3705 1 109.50000 418.400000
1176 15908 7655 1 109.50000 418.400000
1176 15908 10493 1 109.50000 418.400000
3705 15908 7655 1 109.50000 418.400000
3705 15908 10493 1 109.50000 418.400000
7655 15908 10493 1 109.50000 418.400000
6317 15909 10681 1 109.50000 418.400000
6317 15909 10863 1 109.50000 418.400000
6317 15909 10935 1 109.50000 418.400000
10681 15909 10863 1 109.50000 418.400000
10681 15909 10935 1 109.50000 418.400000
10863 15909 10935 1 109.50000 418.400000
1357 15910 5585 1 109.50000 418.400000
1357 15910 6812 1 109.50000 418.400000
1357 15910 8417 1 109.50000 418.400000
5585 15910 6812 1 109.50000 418.400000
5585 15910 8417 1 109.50000 418.400000
6812 15910 8417 1 109.50000 418.400000
1575 15911 1576 1 109.50000 418.400000
1575 15911 8450 1 109.50000 418.400000
1575 15911 9851 1 109.50000 418.400000
1576 15911 8450 1 109.50000 418.400000
1576 15911 9851 1 109.50000 418.400000
8450 15911 9851 1 109.50000 418.400000
1485 15912 3481 1 109.50000 418.400000
1485 15912 6803 1 109.50000 418.400000
1485 15912 9706 1 109.50000 418.400000
3481 15912 6803 1 109.50000 418.400000
3481 15912 9706 1 109.50000 418.400000
6803 15912 9706 1 109.50000 418.400000
452 15913 6068 1 109.50000 418.400000
452 15913 8026 1 109.50000 418.400000
452 15913 10878 1 109.50000 418.400000
6068 15913 8026 1 109.50000 418.400000
6068 15913 10878 1 109.50000 418.400000
8026 15913 10878 1 109.50000 418.400000
320 15914 3192 1 109.50000 418.400000
320 15914 7764 1 109.50000 418.400000
320 15914 10337 1 109.50000 418.400000
3192 15914 7764 1 109.50000 418.400000
3192 15914 10337 1 109.50000 418.400000
7764 15914 10337 1 109.50000 418.400000
5505 15915 7125 1 109.50000 418.400000
5505 15915 7222 1 109.50000 418.400000
5505 15915 9985 1 109.50000 418.400000
7125 15915 7222 1 109.50000 418.400000
7125 15915 9985 1 109.50000 418.400000
7222 15915 9985 1 109.50000 418.400000
1070 15916 5255 1 109.50000 418.400000
1070 15916 9608 1 109.50000 418.400000
1070 15916 10875 1 109.50000 418.400000
5255 15916 9608 1 109.50000 418.400000
5255 15916 10875 1 109.50000 418.400000
9608 15916 10875 1 109.50000 418.400000
3388 15917 5659 1 109.50000 418.400000
3388 15917 9333 1 109.50000 418.400000
3388 15917 10045 1 109.50000 418.400000
5659 15917 9333 1 109.50000 418.400000
5659 15917 10045 1 109.50000 418.400000
9333 15917 10045 1 109.50000 418.400000
1632 15918 8767 1 109.50000 418.400000
1632 15918 10715 1 109.50000 418.400000
1632 15918 10936 1 109.50000 418.400000
8767 15918 10715 1 109.50000 418.400000
8767 15918 10936 1 109.50000 418.400000
10715 15918 10936 1 109.50000 418.400000
3801 15919 4804 1 109.50000 418.400000
3801 15919 7027 1 109.50000 418.400000
3801 15919 10683 1 109.50000 418.400000
4804 15919 7027 1 109.50000 418.400000
4804 15919 10683 1 109.50000 418.400000
7027 15919 10683 1 109.50000 418.400000
8611 15920 8614 1 109.50000 418.400000
8611 15920 8840 1 109.50000 418.400000
8611 15920 10937 1 109.50000 418.400000
8614 15920 8840 1 109.50000 418.400000
8614 15920 10937 1 109.50000 418.400000
8840 15920 10937 1 109.50000 418.400000
6142 15921 6337 1 109.50000 418.400000
6142 15921 7735 1 109.50000 418.400000
6142 15921 10938 1 109.50000 418.400000
6337 15921 7735 1 109.50000 418.400000
6337 15921 10938 1 109.50000 418.400000
7735 15921 10938 1 109.50000 418.400000
3318 15922 5479 1 109.50000 418.400000
3318 15922 6064 1 109.50000 418.400000
3318 15922 10320 1 109.50000 418.400000
5479 15922 6064 1 109.50000 418.400000
5479 15922 10320 1 109.50000 418.400000
6064 15922 10320 1 109.50000 418.400000
1178 15923 6597 1 109.50000 418.400000
1178 15923 7702 1 109.50000 418.400000
1178 15923 9832 1 109.50000 418.400000
6597 15923 7702 1 109.50000 418.400000
6597 15923 9832 1 109.50000 418.400000
7702 15923 9832 1 109.50000 418.400000
352 15924 1479 1 109.50000 418.400000
352 15924 7944 1 109.50000 418.400000
352 15924 10939 1 109.50000 418.400000
1479 15924 7944 1 109.50000 418.400000
1479 15924 10939 1 109.50000 418.400000
7944 15924 10939 1 109.50000 418.400000
3844 15925 6584 1 109.50000 418.400000
3844 15925 9265 1 109.50000 418.400000
3844 15925 10941 1 109.50000 418.400000
6584 15925 9265 1 109.50000 418.400000
6584 15925 10941 1 109.50000 418.400000
9265 15925 10941 1 109.50000 418.400000
2961 15926 7423 1 109.50000 418.400000
2961 15926 9013 1 109.50000 418.400000
2961 15926 9369 1 109.50000 418.400000
7423 15926 9013 1 109.50000 418.400000
7423 15926 9369 1 109.50000 418.400000
9013 15926 9369 1 109.50000 418.400000
5567 15927 7131 1 109.50000 418.400000
5567 15927 7132 1 109.50000 418.400000
5567 15927 10084 1 109.50000 418.400000
7131 15927 7132 1 109.50000 418.400000
7131 15927 10084 1 109.50000 418.400000
7132 15927 10084 1 109.50000 418.400000
7825 15928 10058 1 109.50000 418.400000
7825 15928 10217 1 109.50000 418.400000
7825 15928 10456 1 109.50000 418.400000
10058 15928 10217 1 109.50000 418.400000
10058 15928 10456 1 109.50000 418.400000
10217 15928 10456 1 109.50000 418.400000
2629 15929 5862 1 109.50000 418.400000
2629 15929 10943 1 109.50000 418.400000
2629 15929 10944 1 109.50000 418.400000
5862 15929 10943 1 109.50000 418.400000
5862 15929 10944 1 109.50000 418.400000
10943 15929 10944 1 109.50000 418.400000
3737 15930 6679 1 109.50000 418.400000
3737 15930 7679 1 109.50000 418.400000
3737 15930 9708 1 109.50000 418.400000
6679 15930 7679 1 109.50000 418.400000
6679 15930 9708 1 109.50000 418.400000
7679 15930 9708 1 109.50000 418.400000
976 15931 3014 1 109.50000 418.400000
976 15931 10811 1 109.50000 418.400000
976 15931 10945 1 109.50000 418.400000
3014 15931 10811 1 109.50000 418.400000
3014 15931 10945 1 109.50000 418.400000
10811 15931 10945 1 109.50000 418.400000
7228 15932 8653 1 109.50000 418.400000
7228 15932 9113 1 109.50000 418.400000
7228 15932 10946 1 109.50000 418.400000
8653 15932 9113 1 109.50000 418.400000
8653 15932 10946 1 109.50000 418.400000
9113 15932 10946 1 109.50000 418.400000
3716 15933 6459 1 109.50000 418.400000
3716 15933 9341 1 109.50000 418.400000
3716 15933 10947 1 109.50000 418.400000
6459 15933 9341 1 109.50000 418.400000
6459 15933 10947 1 109.50000 418.400000
9341 15933 10947 1 109.50000 418.400000
2822 15934 4848 1 109.50000 418.400000
2822 15934 4849 1 109.50000 418.400000
2822 15934 10948 1 109.50000 418.400000
4848 15934 4849 1 109.50000 418.400000
4848 15934 10948 1 109.50000 418.400000
4849 15934 10948 1 109.50000 418.400000
107 15935 2062 1 109.50000 418.400000
107 15935 2768 1 109.50000 418.400000
107 15935 10527 1 109.50000 418.400000
2062 15935 2768 1 109.50000 418.400000
2062 15935 10527 1 109.50000 418.400000
2768 15935 10527 1 109.50000 418.400000
518 15936 9247 1 109.50000 418.400000
518 15936 9744 1 109.50000 418.400000
518 15936 11307 1 109.50000 418.400000
9247 15936 9744 1 109.50000 418.400000
9247 15936 11307 1 109.50000 418.400000
9744 15936 11307 1 109.50000 418.400000
1017 15937 8550 1 109.50000 418.400000
1017 15937 10475 1 109.50000 418.400000
1017 15937 10857 1 109.50000 418.400000
8550 15937 10475 1 109.50000 418.400000
8550 15937 10857 1 109.50000 418.400000
10475 15937 10857 1 109.50000 418.400000
10219 15938 10860 1 109.50000 418.400000
10219 15938 10951 1 109.50000 418.400000
10219 15938 10952 1 109.50000 418.400000
10860 15938 10951 1 109.50000 418.400000
10860 15938 10952 1 109.50000 418.400000
10951 15938 10952 1 109.50000 418.400000
9066 15939 9976 1 109.50000 418.400000
9066 15939 10348 1 109.50000 418.400000
9066 15939 10953 1 109.50000 418.400000
9976 15939 10348 1 109.50000 418.400000
9976 15939 10953 1 109.50000 418.400000
10348 15939 10953 1 109.50000 418.400000
836 15940 4727 1 109.50000 418.400000
836 15940 10013 1 109.50000 418.400000
836 15940 10900 1 109.50000 418.400000
4727 15940 10013 1 109.50000 418.400000
4727 15940 10900 1 109.50000 418.400000
10013 15940 10900 1 109.50000 418.400000
4139 15941 4361 1 109.50000 418.400000
4139 15941 5260 1 109.50000 418.400000
4139 15941 9654 1 109.50000 418.400000
4361 15941 5260 1 109.50000 418.400000
4361 15941 9654 1 109.50000 418.400000
5260 15941 9654 1 109.50000 418.400000
1826 15942 1989 1 109.50000 418.400000
1826 15942 8164 1 109.50000 418.400000
1826 15942 10954 1 109.50000 418.400000
1989 15942 8164 1 109.50000 418.400000
1989 15942 10954 1 109.50000 418.400000
8164 15942 10954 1 109.50000 418.400000
5545 15943 5547 1 109.50000 418.400000
5545 15943 7949 1 109.50000 418.400000
5545 15943 10955 1 109.50000 418.400000
5547 15943 7949 1 109.50000 418.400000
5547 15943 10955 1 109.50000 418.400000
7949 15943 10955 1 109.50000 418.400000
4955 15944 8067 1 109.50000 418.400000
4955 15944 10686 1 109.50000 418.400000
4955 15944 11325 1 109.50000 418.400000
8067 15944 10686 1 109.50000 418.400000
8067 15944 11325 1 109.50000 418.400000
10686 15944 11325 1 109.50000 418.400000
3075 15945 7994 1 109.50000 418.400000
3075 15945 9302 1 109.50000 418.400000
3075 15945 10640 1 109.50000 418.400000
7994 15945 9302 1 109.50000 418.400000
7994 15945 10640 1 109.50000 418.400000
9302 15945 10640 1 109.50000 418.400000
1057 15946 5507 1 109.50000 418.400000
1057 15946 8477 1 109.50000 418.400000
1057 15946 10956 1 109.50000 418.400000
5507 15946 8477 1 109.50000 418.400000
5507 15946 10956 1 109.50000 418.400000
8477 15946 10956 1 109.50000 418.400000
2816 15947 3206 1 109.50000 418.400000
2816 15947 9998 1 109.50000 418.400000
2816 15947 10141 1 109.50000 418.400000
3206 15947 9998 1 109.50000 418.400000
3206 15947 10141 1 109.50000 418.400000
9998 15947 10141 1 109.50000 418.400000
3855 15948 6298 1 109.50000 418.400000
3855 15948 7566 1 109.50000 418.400000
3855 15948 10242 1 109.50000 418.400000
6298 15948 7566 1 109.50000 418.400000
6298 15948 10242 1 109.50000 418.400000
7566 15948 10242 1 109.50000 418.400000
2206 15949 4940 1 109.50000 418.400000
2206 15949 10074 1 109.50000 418.400000
2206 15949 10825 1 109.50000 418.400000
4940 15949 10074 1 109.50000 418.400000
4940 15949 10825 1 109.50000 418.400000
10074 15949 10825 1 109.50000 418.400000
1419 15950 6711 1 109.50000 418.400000
1419 15950 8831 1 109.50000 418.400000
1419 15950 9121 1 109.50000 418.400000
6711 15950 8831 1 109.50000 418.400000
6711 15950 9121 1 109.50000 418.400000
8831 15950 9121 1 109.50000 418.400000
3524 15951 5373 1 109.50000 418.400000
3524 15951 5772 1 109.50000 418.400000
3524 15951 9263 1 109.50000 418.400000
5373 15951 5772 1 109.50000 418.400000
5373 15951 9263 1 109.50000 418.400000
5772 15951 9263 1 109.50000 418.400000
4265 15952 6654 1 109.50000 418.400000
4265 15952 7372 1 109.50000 418.400000
4265 15952 7750 1 109.50000 418.400000
6654 15952 7372 1 109.50000 418.400000
6654 15952 7750 1 109.50000 418.400000
7372 15952 7750 1 109.50000 418.400000
3987 15953 7079 1 109.50000 418.400000
3987 15953 8625 1 109.50000 418.400000
3987 15953 10631 1 109.50000 418.400000
7079 15953 8625 1 109.50000 418.400000
7079 15953 10631 1 109.50000 418.400000
8625 15953 10631 1 109.50000 418.400000
6724 15954 6974 1 109.50000 418.400000
6724 15954 7164 1 109.50000 418.400000
6724 15954 10958 1 109.50000 418.400000
6974 15954 7164 1 109.50000 418.400000
6974 15954 10958 1 109.50000 418.400000
7164 15954 10958 1 109.50000 418.400000
6390 15955 7754 1 109.50000 418.400000
6390 15955 10565 1 109.50000 418.400000
6390 15955 10842 1 109.50000 418.400000
7754 15955 10565 1 109.50000 418.400000
7754 15955 10842 1 109.50000 418.400000
10565 15955 10842 1 109.50000 418.400000
8492 15956 10959 1 109.50000 418.400000
8492 15956 10960 1 109.50000 418.400000
8492 15956 10961 1 109.50000 418.400000
10959 15956 10960 1 109.50000 418.400000
10959 15956 10961 1 109.50000 418.400000
10960 15956 10961 1 109.50000 418.400000
3137 15957 3523 1 109.50000 418.400000
3137 15957 8977 1 109.50000 418.400000
3137 15957 10962 1 109.50000 418.400000
3523 15957 8977 1 109.50000 418.400000
3523 15957 10962 1 109.50000 418.400000
8977 15957 10962 1 109.50000 418.400000
826 15958 2854 1 109.50000 418.400000
826 15958 5089 1 109.50000 418.400000
826 15958 10223 1 109.50000 418.400000
2854 15958 5089 1 109.50000 418.400000
2854 15958 10223 1 109.50000 418.400000
5089 15958 10223 1 109.50000 418.400000
4818 15959 6211 1 109.50000 418.400000
4818 15959 8183 1 109.50000 418.400000
4818 15959 10963 1 109.50000 418.400000
6211 15959 8183 1 109.50000 418.400000
6211 15959 10963 1 109.50000 418.400000
8183 15959 10963 1 109.50000 418.400000
3683 15960 5574 1 109.50000 418.400000
3683 15960 6864 1 109.50000 418.400000
3683 15960 10966 1 109.50000 418.400000
5574 15960 6864 1 109.50000 418.400000
5574 15960 10966 1 109.50000 418.400000
6864 15960 10966 1 109.50000 418.400000
2519 15961 8821 1 109.50000 418.400000
2519 15961 9714 1 109.50000 418.400000
2519 15961 10113 1 109.50000 418.400000
8821 15961 9714 1 109.50000 418.400000
8821 15961 10113 1 109.50000 418.400000
9714 15961 10113 1 109.50000 418.400000
7033 15962 9109 1 109.50000 418.400000
7033 15962 10729 1 109.50000 418.400000
7033 15962 10967 1 109.50000 418.400000
9109 15962 10729 1 109.50000 418.400000
9109 15962 10967 1 109.50000 418.400000
10729 15962 10967 1 109.50000 418.400000
795 15963 5177 1 109.50000 418.400000
795 15963 10806 1 109.50000 418.400000
795 15963 10968 1 109.50000 418.400000
5177 15963 10806 1 109.50000 418.400000
5177 15963 10968 1 109.50000 418.400000
10806 15963 10968 1 109.50000 418.400000
8740 15964 10744 1 109.50000 418.400000
8740 15964 10824 1 109.50000 418.400000
8740 15964 10969 1 109.50000 418.400000
10744 15964 10824 1 109.50000 418.400000
10744 15964 10969 1 109.50000 418.400000
10824 15964 10969 1 109.50000 418.400000
7733 15965 7877 1 109.50000 418.400000
7733 15965 10940 1 109.50000 418.400000
7733 15965 11280 1 109.50000 418.400000
7877 15965 10940 1 109.50000 418.400000
7877 15965 11280 1 109.50000 418.400000
10940 15965 11280 1 109.50000 418.400000
5353 15966 8112 1 109.50000 418.400000
5353 15966 9774 1 109.50000 418.400000
5353 15966 10970 1 109.50000 418.400000
8112 15966 9774 1 109.50000 418.400000
8112 15966 10970 1 109.50000 418.400000
9774 15966 10970 1 109.50000 418.400000
7758 15967 10365 1 109.50000 418.400000
7758 15967 10388 1 109.50000 418.400000
7758 15967 10971 1 109.50000 418.400000
10365 15967 10388 1 109.50000 418.400000
10365 15967 10971 1 109.50000 418.400000
10388 15967 10971 1 109.50000 418.400000
8233 15968 9723 1 109.50000 418.400000
8233 15968 10130 1 109.50000 418.400000
8233 15968 10972 1 109.50000 418.400000
9723 15968 10130 1 109.50000 418.400000
9723 15968 10972 1 109.50000 418.400000
10130 15968 10972 1 109.50000 418.400000
4243 15969 4965 1 109.50000 418.400000
4243 15969 6556 1 109.50000 418.400000
4243 15969 8993 1 109.50000 418.400000
4965 15969 6556 1 109.50000 418.400000
4965 15969 8993 1 109.50000 418.400000
6556 15969 8993 1 109.50000 418.400000
1104 15970 6947 1 109.50000 418.400000
1104 15970 8109 1 109.50000 418.400000
1104 15970 10128 1 109.50000 418.400000
6947 15970 8109 1 109.50000 418.400000
6947 15970 10128 1 109.50000 418.400000
8109 15970 10128 1 109.50000 418.400000
1989 15971 1990 1 109.50000 418.400000
1989 15971 7199 1 109.50000 418.400000
1989 15971 10973 1 109.50000 418.400000
1990 15971 7199 1 109.50000 418.400000
1990 15971 10973 1 109.50000 418.400000
7199 15971 10973 1 109.50000 418.400000
66 15972 5220 1 109.50000 418.400000
66 15972 8262 1 109.50000 418.400000
66 15972 11349 1 109.50000 418.400000
5220 15972 8262 1 109.50000 418.400000
5220 15972 11349 1 109.50000 418.400000
8262 15972 11349 1 109.50000 418.400000
1306 15973 2398 1 109.50000 418.400000
1306 15973 2401 1 109.50000 418.400000
1306 15973 4936 1 109.50000 418.400000
2398 15973 2401 1 109.50000 418.400000
2398 15973 4936 1 109.50000 418.400000
2401 15973 4936 1 109.50000 418.400000
5454 15974 6877 1 109.50000 418.400000
5454 15974 10020 1 109.50000 418.400000
5454 15974 10975 1 109.50000 418.400000
6877 15974 10020 1 109.50000 418.400000
6877 15974 10975 1 109.50000 418.400000
10020 15974 10975 1 109.50000 418.400000
1572 15975 2632 1 109.50000 418.400000
1572 15975 4967 1 109.50000 418.400000
1572 15975 9026 1 109.50000 418.400000
2632 15975 4967 1 109.50000 418.400000
2632 15975 9026 1 109.50000 418.400000
4967 15975 9026 1 109.50000 418.400000
7881 15976 8818 1 109.50000 418.400000
7881 15976 10205 1 109.50000 418.400000
7881 15976 10763 1 109.50000 418.400000
8818 15976 10205 1 109.50000 418.400000
8818 15976 10763 1 109.50000 418.400000
10205 15976 10763 1 109.50000 418.400000
5394 15977 10592 1 109.50000 418.400000
5394 15977 10976 1 109.50000 418.400000
5394 15977 11372 1 109.50000 418.400000
10592 15977 10976 1 109.50000 418.400000
10592 15977 11372 1 109.50000 418.400000
10976 15977 11372 1 109.50000 418.400000
3224 15978 4080 1 109.50000 418.400000
3224 15978 4495 1 109.50000 418.400000
3224 15978 10736 1 109.50000 418.400000
4080 15978 4495 1 109.50000 418.400000
4080 15978 10736 1 109.50000 418.400000
4495 15978 10736 1 109.50000 418.400000
3467 15979 5385 1 109.50000 418.400000
3467 15979 9023 1 109.50000 418.400000
3467 15979 10769 1 109.50000 418.400000
5385 15979 9023 1 109.50000 418.400000
5385 15979 10769 1 109.50000 418.400000
9023 15979 10769 1 109.50000 418.400000
4613 15980 10919 1 109.50000 418.400000
4613 15980 10977 1 109.50000 418.400000
4613 15980 10978 1 109.50000 418.400000
10919 15980 10977 1 109.50000 418.400000
10919 15980 10978 1 109.50000 418.400000
10977 15980 10978 1 109.50000 418.400000
264 15981 1732 1 109.50000 418.400000
264 15981 10494 1 109.50000 418.400000
264 15981 10979 1 109.50000 418.400000
1732 15981 10494 1 109.50000 418.400000
1732 15981 10979 1 109.50000 418.400000
10494 15981 10979 1 109.50000 418.400000
7021 15982 7345 1 109.50000 418.400000
7021 15982 10964 1 109.50000 418.400000
7021 15982 10981 1 109.50000 418.400000
7345 15982 10964 1 109.50000 418.400000
7345 15982 10981 1 109.50000 418.400000
10964 15982 10981 1 109.50000 418.400000
4856 15983 4889 1 109.50000 418.400000
4856 15983 10367 1 109.50000 418.400000
4856 15983 10982 1 109.50000 418.400000
4889 15983 10367 1 109.50000 418.400000
4889 15983 10982 1 109.50000 418.400000
10367 15983 10982 1 109.50000 418.400000
1221 15984 2349 1 109.50000 418.400000
1221 15984 2602 1 109.50000 418.400000
1221 15984 10694 1 109.50000 418.400000
2349 15984 2602 1 109.50000 418.400000
2349 15984 10694 1 109.50000 418.400000
2602 15984 10694 1 109.50000 418.400000
4605 15985 8535 1 109.50000 418.400000
4605 15985 9573 1 109.50000 418.400000
4605 15985 9855 1 109.50000 418.400000
8535 15985 9573 1 109.50000 418.400000
8535 15985 9855 1 109.50000 418.400000
9573 15985 9855 1 109.50000 418.400000
1125 15986 4127 1 109.50000 418.400000
1125 15986 8807 1 109.50000 418.400000
1125 15986 10676 1 109.50000 418.400000
4127 15986 8807 1 109.50000 418.400000
4127 15986 10676 1 109.50000 418.400000
8807 15986 10676 1 109.50000 418.400000
7390 15987 10983 1 109.50000 418.400000
7390 15987 10984 1 109.50000 418.400000
7390 15987 10985 1 109.50000 418.400000
10983 15987 10984 1 109.50000 418.400000
10983 15987 10985 1 109.50000 418.400000
10984 15987 10985 1 109.50000 418.400000
3428 15988 8103 1 109.50000 418.400000
3428 15988 9157 1 109.50000 418.400000
3428 15988 10986 1 109.50000 418.400000
8103 15988 9157 1 109.50000 418.400000
8103 15988 10986 1 109.50000 418.400000
9157 15988 10986 1 109.50000 418.400000
242 15989 3690 1 109.50000 418.400000
242 15989 4646 1 109.50000 418.400000
242 15989 7486 1 109.50000 418.400000
3690 15989 4646 1 109.50000 418.400000
3690 15989 7486 1 109.50000 418.400000
4646 15989 7486 1 109.50000 418.400000
3546 15990 3888 1 109.50000 418.400000
3546 15990 6828 1 109.50000 418.400000
3546 15990 9203 1 109.50000 418.400000
3888 15990 6828 1 109.50000 418.400000
3888 15990 9203 1 109.50000 418.400000
6828 15990 9203 1 109.50000 418.400000
1528 15991 7517 1 109.50000 418.400000
1528 15991 8509 1 109.50000 418.400000
1528 15991 10874 1 109.50000 418.400000
7517 15991 8509 1 109.50000 418.400000
7517 15991 10874 1 109.50000 418.400000
8509 15991 10874 1 109.50000 418.400000
6531 15992 10395 1 109.50000 418.400000
6531 15992 10780 1 109.50000 418.400000
6531 15992 10987 1 109.50000 418.400000
10395 15992 10780 1 109.50000 418.400000
10395 15992 10987 1 109.50000 418.400000
10780 15992 10987 1 109.50000 418.400000
2639 15993 9480 1 109.50000 418.400000
2639 15993 10956 1 109.50000 418.400000
2639 15993 10989 1 109.50000 418.400000
9480 15993 10956 1 109.50000 418.400000
9480 15993 10989 1 109.50000 418.400000
10956 15993 10989 1 109.50000 418.400000
4504 15994 6012 1 109.50000 418.400000
4504 15994 8560 1 109.50000 418.400000
4504 15994 9704 1 109.50000 418.400000
6012 15994 8560 1 109.50000 418.400000
6012 15994 9704 1 109.50000 418.400000
8560 15994 9704 1 109.50000 418.400000
5816 15995 6239 1 109.50000 418.400000
5816 15995 6378 1 109.50000 418.400000
5816 15995 8142 1 109.50000 418.400000
6239 15995 6378 1 109.50000 418.400000
6239 15995 8142 1 109.50000 418.400000
6378 15995 8142 1 109.50000 418.400000
3242 15996 6114 1 109.50000 418.400000
3242 15996 7513 1 109.50000 418.400000
3242 15996 10669 1 109.50000 418.400000
6114 15996 7513 1 109.50000 418.400000
6114 15996 10669 1 109.50000 418.400000
7513 15996 10669 1 109.50000 418.400000
776 15997 7745 1 109.50000 418.400000
776 15997 9363 1 109.50000 418.400000
776 15997 10990 1 109.50000 418.400000
7745 15997 9363 1 109.50000 418.400000
7745 15997 10990 1 109.50000 418.400000
9363 15997 10990 1 109.50000 418.400000
6287 15998 8544 1 109.50000 418.400000
6287 15998 9431 1 109.50000 418.400000
6287 15998 10692 1 109.50000 418.400000
8544 15998 9431 1 109.50000 418.400000
8544 15998 10692 1 109.50000 418.400000
9431 15998 10692 1 109.50000 418.400000
516 15999 3339 1 109.50000 418.400000
516 15999 3596 1 109.50000 418.400000
516 15999 10982 1 109.50000 418.400000
3339 15999 3596 1 109.50000 418.400000
3339 15999 10982 1 109.50000 418.400000
3596 15999 10982 1 109.50000 418.400000
295 16000 7237 1 109.50000 418.400000
295 16000 9160 1 109.50000 418.400000
295 16000 10775 1 109.50000 418.400000
7237 16000 9160 1 109.50000 418.400000
7237 16000 10775 1 109.50000 418.400000
9160 16000 10775 1 109.50000 418.400000
4863 16001 10333 1 109.50000 418.400000
4863 16001 10444 1 109.50000 418.400000
4863 16001 10724 1 109.50000 418.400000
10333 16001 10444 1 109.50000 418.400000
10333 16001 10724 1 109.50000 418.400000
10444 16001 10724 1 109.50000 418.400000
3785 16002 6140 1 109.50000 418.400000
3785 16002 6252 1 109.50000 418.400000
3785 16002 6504 1 109.50000 418.400000
6140 16002 6252 1 109.50000 418.400000
6140 16002 6504 1 109.50000 418.400000
6252 16002 6504 1 109.50000 418.400000
5923 16003 6104 1 109.50000 418.400000
5923 16003 8209 1 109.50000 418.400000
5923 16003 10951 1 109.50000 418.400000
6104 16003 8209 1 109.50000 418.400000
6104 16003 10951 1 109.50000 418.400000
8209 16003 10951 1 109.50000 418.400000
6564 16004 7545 1 109.50000 418.400000
6564 16004 7599 1 109.50000 418.400000
6564 16004 7998 1 109.50000 418.400000
7545 16004 7599 1 109.50000 418.400000
7545 16004 7998 1 109.50000 418.400000
7599 16004 7998 1 109.50000 418.400000
2119 16005 8387 1 109.50000 418.400000
2119 16005 8690 1 109.50000 418.400000
2119 16005 10641 1 109.50000 418.400000
8387 16005 8690 1 109.50000 418.400000
8387 16005 10641 1 109.50000 418.400000
8690 16005 10641 1 109.50000 418.400000
2056 16006 3636 1 109.50000 418.400000
2056 16006 8099 1 109.50000 418.400000
2056 16006 8101 1 109.50000 418.400000
3636 16006 8099 1 109.50000 418.400000
3636 16006 8101 1 109.50000 418.400000
8099 16006 8101 1 109.50000 418.400000
9199 16007 9595 1 109.50000 418.400000
9199 16007 9597 1 109.50000 418.400000
9199 16007 10643 1 109.50000 418.400000
9595 16007 9597 1 109.50000 418.400000
9595 16007 10643 1 109.50000 418.400000
9597 16007 10643 1 109.50000 418.400000
9200 16008 9871 1 109.50000 418.400000
9200 16008 9894 1 109.50000 418.400000
9200 16008 10531 1 109.50000 418.400000
9871 16008 9894 1 109.50000 418.400000
9871 16008 10531 1 109.50000 418.400000
9894 16008 10531 1 109.50000 418.400000
3033 16009 4759 1 109.50000 418.400000
3033 16009 10622 1 109.50000 418.400000
3033 16009 10662 1 109.50000 418.400000
4759 16009 10622 1 109.50000 418.400000
4759 16009 10662 1 109.50000 418.400000
10622 16009 10662 1 109.50000 418.400000
7752 16010 10460 1 109.50000 418.400000
7752 16010 10663 1 109.50000 418.400000
7752 16010 10992 1 109.50000 418.400000
10460 16010 10663 1 109.50000 418.400000
10460 16010 10992 1 109.50000 418.400000
10663 16010 10992 1 109.50000 418.400000
2737 16011 5238 1 109.50000 418.400000
2737 16011 5239 1 109.50000 418.400000
2737 16011 9820 1 109.50000 418.400000
5238 16011 5239 1 109.50000 418.400000
5238 16011 9820 1 109.50000 418.400000
5239 16011 9820 1 109.50000 418.400000
6644 16012 8276 1 109.50000 418.400000
6644 16012 9778 1 109.50000 418.400000
6644 16012 10838 1 109.50000 418.400000
8276 16012 9778 1 109.50000 418.400000
8276 16012 10838 1 109.50000 418.400000
9778 16012 10838 1 109.50000 418.400000
5886 16013 8266 1 109.50000 418.400000
5886 16013 10738 1 109.50000 418.400000
5886 16013 10993 1 109.50000 418.400000
8266 16013 10738 1 109.50000 418.400000
8266 16013 10993 1 109.50000 418.400000
10738 16013 10993 1 109.50000 418.400000
3314 16014 6979 1 109.50000 418.400000
3314 16014 8698 1 109.50000 418.400000
3314 16014 9409 1 109.50000 418.400000
6979 16014 8698 1 109.50000 418.400000
6979 16014 9409 1 109.50000 418.400000
8698 16014 9409 1 109.50000 418.400000
5850 16015 6958 1 109.50000 418.400000
5850 16015 10727 1 109.50000 418.400000
5850 16015 10994 1 109.50000 418.400000
6958 16015 10727 1 109.50000 418.400000
6958 16015 10994 1 109.50000 418.400000
10727 16015 10994 1 109.50000 418.400000
67 16016 1300 1 109.50000 418.400000
67 16016 6408 1 109.50000 418.400000
67 16016 10816 1 109.50000 418.400000
1300 16016 6408 1 109.50000 418.400000
1300 16016 10816 1 109.50000 418.400000
6408 16016 10816 1 109.50000 418.400000
182 16017 8148 1 109.50000 418.400000
182 16017 8149 1 109.50000 418.400000
182 16017 10970 1 109.50000 418.400000
8148 16017 8149 1 109.50000 418.400000
8148 16017 10970 1 109.50000 418.400000
8149 16017 10970 1 109.50000 418.400000
3085 16018 5476 1 109.50000 418.400000
3085 16018 5553 1 109.50000 418.400000
3085 16018 8907 1 109.50000 418.400000
5476 16018 5553 1 109.50000 418.400000
5476 16018 8907 1 109.50000 418.400000
5553 16018 8907 1 109.50000 418.400000
2113 16019 7148 1 109.50000 418.400000
2113 16019 9667 1 109.50000 418.400000
2113 16019 9920 1 109.50000 418.400000
7148 16019 9667 1 109.50000 418.400000
7148 16019 9920 1 109.50000 418.400000
9667 16019 9920 1 109.50000 418.400000
7917 16020 8894 1 109.50000 418.400000
7917 16020 9196 1 109.50000 418.400000
7917 16020 10434 1 109.50000 418.400000
8894 16020 9196 1 109.50000 418.400000
8894 16020 10434 1 109.50000 418.400000
9196 16020 10434 1 109.50000 418.400000
852 16021 7932 1 109.50000 418.400000
852 16021 9921 1 109.50000 418.400000
852 16021 10635 1 109.50000 418.400000
7932 16021 9921 1 109.50000 418.400000
7932 16021 10635 1 109.50000 418.400000
9921 16021 10635 1 109.50000 418.400000
5362 16022 6722 1 109.50000 418.400000
5362 16022 7263 1 109.50000 418.400000
5362 16022 10656 1 109.50000 418.400000
6722 16022 7263 1 109.50000 418.400000
6722 16022 10656 1 109.50000 418.400000
7263 16022 10656 1 109.50000 418.400000
3080 16023 8376 1 109.50000 418.400000
3080 16023 9345 1 109.50000 418.400000
3080 16023 10612 1 109.50000 418.400000
8376 16023 9345 1 109.50000 418.400000
8376 16023 10612 1 109.50000 418.400000
9345 16023 10612 1 109.50000 418.400000
7575 16024 9945 1 109.50000 418.400000
7575 16024 10018 1 109.50000 418.400000
7575 16024 10109 1 109.50000 418.400000
9945 16024 10018 1 109.50000 418.400000
9945 16024 10109 1 109.50000 418.400000
10018 16024 10109 1 109.50000 418.400000
730 16025 6566 1 109.50000 418.400000
730 16025 10067 1 109.50000 418.400000
730 16025 10996 1 109.50000 418.400000
6566 16025 10067 1 109.50000 418.400000
6566 16025 10996 1 109.50000 418.400000
10067 16025 10996 1 109.50000 418.400000
1488 16026 3765 1 109.50000 418.400000
1488 16026 10469 1 109.50000 418.400000
1488 16026 10997 1 109.50000 418.400000
3765 16026 10469 1 109.50000 418.400000
3765 16026 10997 1 109.50000 418.400000
10469 16026 10997 1 109.50000 418.400000
1637 16027 5766 1 109.50000 418.400000
1637 16027 5989 1 109.50000 418.400000
1637 16027 9182 1 109.50000 418.400000
5766 16027 5989 1 109.50000 418.400000
5766 16027 9182 1 109.50000 418.400000
5989 16027 9182 1 109.50000 418.400000
4339 16028 9625 1 109.50000 418.400000
4339 16028 10427 1 109.50000 418.400000
4339 16028 10820 1 109.50000 418.400000
9625 16028 10427 1 109.50000 418.400000
9625 16028 10820 1 109.50000 418.400000
10427 16028 10820 1 109.50000 418.400000
4380 16029 5548 1 109.50000 418.400000
4380 16029 9705 1 109.50000 418.400000
4380 16029 9707 1 109.50000 418.400000
5548 16029 9705 1 109.50000 418.400000
5548 16029 9707 1 109.50000 418.400000
9705 16029 9707 1 109.50000 418.400000
1183 16030 6799 1 109.50000 418.400000
1183 16030 7163 1 109.50000 418.400000
1183 16030 10977 1 109.50000 418.400000
6799 16030 7163 1 109.50000 418.400000
6799 16030 10977 1 109.50000 418.400000
7163 16030 10977 1 109.50000 418.400000
4190 16031 7090 1 109.50000 418.400000
4190 16031 7634 1 109.50000 418.400000
4190 16031 10599 1 109.50000 418.400000
7090 16031 7634 1 109.50000 418.400000
7090 16031 10599 1 109.50000 418.400000
7634 16031 10599 1 109.50000 418.400000
4217 16032 6060 1 109.50000 418.400000
4217 16032 10735 1 109.50000 418.400000
4217 16032 10998 1 109.50000 418.400000
6060 16032 10735 1 109.50000 418.400000
6060 16032 10998 1 109.50000 418.400000
10735 16032 10998 1 109.50000 418.400000
100 16033 4258 1 109.50000 418.400000
100 16033 7890 1 109.50000 418.400000
100 16033 9996 1 109.50000 418.400000
4258 16033 7890 1 109.50000 418.400000
4258 16033 9996 1 109.50000 418.400000
7890 16033 9996 1 109.50000 418.400000
5289 16034 7853 1 109.50000 418.400000
5289 16034 10999 1 109.50000 418.400000
5289 16034 11000 1 109.50000 418.400000
7853 16034 10999 1 109.50000 418.400000
7853 16034 11000 1 109.50000 418.400000
10999 16034 11000 1 109.50000 418.400000
7047 16035 7541 1 109.50000 418.400000
7047 16035 11001 1 109.50000 418.400000
7047 16035 11002 1 109.50000 418.400000
7541 16035 11001 1 109.50000 418.400000
7541 16035 11002 1 109.50000 418.400000
11001 16035 11002 1 109.50000 418.400000
1179 16036 5263 1 109.50000 418.400000
1179 16036 5636 1 109.50000 418.400000
1179 16036 7160 1 109.50000 418.400000
5263 16036 5636 1 109.50000 418.400000
5263 16036 7160 1 109.50000 418.400000
5636 16036 7160 1 109.50000 418.400000
2409 16037 4398 1 109.50000 418.400000
2409 16037 11003 1 109.50000 418.400000
2409 16037 11004 1 109.50000 418.400000
4398 16037 11003 1 109.50000 418.400000
4398 16037 11004 1 109.50000 418.400000
11003 16037 11004 1 109.50000 418.400000
5244 16038 6271 1 109.50000 418.400000
5244 16038 9675 1 109.50000 418.400000
5244 16038 10204 1 109.50000 418.400000
6271 16038 9675 1 109.50000 418.400000
6271 16038 10204 1 109.50000 418.400000
9675 16038 10204 1 109.50000 418.400000
6144 16039 6987 1 109.50000 418.400000
6144 16039 8304 1 109.50000 418.400000
6144 16039 11339 1 109.50000 418.400000
6987 16039 8304 1 109.50000 418.400000
6987 16039 11339 1 109.50000 418.400000
8304 16039 11339 1 109.50000 418.400000
901 16040 4360 1 109.50000 418.400000
901 16040 6944 1 109.50000 418.400000
901 16040 8640 1 109.50000 418.400000
4360 16040 6944 1 109.50000 418.400000
4360 16040 8640 1 109.50000 418.400000
6944 16040 8640 1 109.50000 418.400000
6432 16041 8889 1 109.50000 418.400000
6432 16041 9221 1 109.50000 418.400000
6432 16041 9786 1 109.50000 418.400000
8889 16041 9221 1 109.50000 418.400000
8889 16041 9786 1 109.50000 418.400000
9221 16041 9786 1 109.50000 418.400000
231 16042 6718 1 109.50000 418.400000
231 16042 9372 1 109.50000 418.400000
231 16042 10016 1 109.50000 418.400000
6718 16042 9372 1 109.50000 418.400000
6718 16042 10016 1 109.50000 418.400000
9372 16042 10016 1 109.50000 418.400000
1784 16043 2536 1 109.50000 418.400000
1784 16043 4410 1 109.50000 418.400000
1784 16043 4757 1 109.50000 418.400000
2536 16043 4410 1 109.50000 418.400000
2536 16043 4757 1 109.50000 418.400000
4410 16043 4757 1 109.50000 418.400000
1728 16044 9257 1 109.50000 418.400000
1728 16044 9435 1 109.50000 418.400000
1728 16044 9726 1 109.50000 418.400000
9257 16044 9435 1 109.50000 418.400000
9257 16044 9726 1 109.50000 418.400000
9435 16044 9726 1 109.50000 418.400000
1700 16045 3399 1 109.50000 418.400000
1700 16045 10535 1 109.50000 418.400000
1700 16045 11005 1 109.50000 418.400000
3399 16045 10535 1 109.50000 418.400000
3399 16045 11005 1 109.50000 418.400000
10535 16045 11005 1 109.50000 418.400000
6680 16046 7140 1 109.50000 418.400000
6680 16046 10926 1 109.50000 418.400000
6680 16046 10928 1 109.50000 418.400000
7140 16046 10926 1 109.50000 418.400000
7140 16046 10928 1 109.50000 418.400000
10926 16046 10928 1 109.50000 418.400000
3795 16047 4990 1 109.50000 418.400000
3795 16047 8824 1 109.50000 418.400000
3795 16047 10962 1 109.50000 418.400000
4990 16047 8824 1 109.50000 418.400000
4990 16047 10962 1 109.50000 418.400000
8824 16047 10962 1 109.50000 418.400000
2259 16048 5129 1 109.50000 418.400000
2259 16048 7335 1 109.50000 418.400000
2259 16048 9294 1 109.50000 418.400000
5129 16048 7335 1 109.50000 418.400000
5129 16048 9294 1 109.50000 418.400000
7335 16048 9294 1 109.50000 418.400000
708 16049 7806 1 109.50000 418.400000
708 16049 10841 1 109.50000 418.400000
708 16049 11221 1 109.50000 418.400000
7806 16049 10841 1 109.50000 418.400000
7806 16049 11221 1 109.50000 418.400000
10841 16049 11221 1 109.50000 418.400000
2198 16050 3711 1 109.50000 418.400000
2198 16050 6114 1 109.50000 418.400000
2198 16050 10275 1 109.50000 418.400000
3711 16050 6114 1 109.50000 418.400000
3711 16050 10275 1 109.50000 418.400000
6114 16050 10275 1 109.50000 418.400000
4852 16051 8378 1 109.50000 418.400000
4852 16051 8933 1 109.50000 418.400000
4852 16051 9279 1 109.50000 418.400000
8378 16051 8933 1 109.50000 418.400000
8378 16051 9279 1 109.50000 418.400000
8933 16051 9279 1 109.50000 418.400000
8429 16052 11007 1 109.50000 418.400000
8429 16052 11008 1 109.50000 418.400000
8429 16052 11228 1 109.50000 418.400000
11007 16052 11008 1 109.50000 418.400000
11007 16052 11228 1 109.50000 418.400000
11008 16052 11228 1 109.50000 418.400000
1293 16053 8472 1 109.50000 418.400000
1293 16053 9646 1 109.50000 418.400000
1293 16053 10563 1 109.50000 418.400000
8472 16053 9646 1 109.50000 418.400000
8472 16053 10563 1 109.50000 418.400000
9646 16053 10563 1 109.50000 418.400000
789 16054 1245 1 109.50000 418.400000
789 16054 10484 1 109.50000 418.400000
789 16054 10955 1 109.50000 418.400000
1245 16054 10484 1 109.50000 418.400000
1245 16054 10955 1 109.50000 418.400000
10484 16054 10955 1 109.50000 418.400000
5058 16055 9500 1 109.50000 418.400000
5058 16055 9650 1 109.50000 418.400000
5058 16055 10758 1 109.50000 418.400000
9500 16055 9650 1 109.50000 418.400000
9500 16055 10758 1 109.50000 418.400000
9650 16055 10758 1 109.50000 418.400000
6091 16056 8522 1 109.50000 418.400000
6091 16056 8902 1 109.50000 418.400000
6091 16056 10925 1 109.50000 418.400000
8522 16056 8902 1 109.50000 418.400000
8522 16056 10925 1 109.50000 418.400000
8902 16056 10925 1 109.50000 418.400000
2354 16057 6078 1 109.50000 418.400000
2354 16057 9913 1 109.50000 418.400000
2354 16057 10969 1 109.50000 418.400000
6078 16057 9913 1 109.50000 418.400000
6078 16057 10969 1 109.50000 418.400000
9913 16057 10969 1 109.50000 418.400000
2518 16058 3100 1 109.50000 418.400000
2518 16058 10950 1 109.50000 418.400000
2518 16058 11143 1 109.50000 418.400000
3100 16058 10950 1 109.50000 418.400000
3100 16058 11143 1 109.50000 418.400000
10950 16058 11143 1 109.50000 418.400000
4416 16059 8402 1 109.50000 418.400000
4416 16059 10187 1 109.50000 418.400000
4416 16059 10435 1 109.50000 418.400000
8402 16059 10187 1 109.50000 418.400000
8402 16059 10435 1 109.50000 418.400000
10187 16059 10435 1 109.50000 418.400000
5080 16060 7318 1 109.50000 418.400000
5080 16060 8888 1 109.50000 418.400000
5080 16060 10543 1 109.50000 418.400000
7318 16060 8888 1 109.50000 418.400000
7318 16060 10543 1 109.50000 418.400000
8888 16060 10543 1 109.50000 418.400000
4899 16061 10466 1 109.50000 418.400000
4899 16061 10523 1 109.50000 418.400000
4899 16061 11010 1 109.50000 418.400000
10466 16061 10523 1 109.50000 418.400000
10466 16061 11010 1 109.50000 418.400000
10523 16061 11010 1 109.50000 418.400000
998 16062 2402 1 109.50000 418.400000
998 16062 8006 1 109.50000 418.400000
998 16062 9185 1 109.50000 418.400000
2402 16062 8006 1 109.50000 418.400000
2402 16062 9185 1 109.50000 418.400000
8006 16062 9185 1 109.50000 418.400000
8574 16063 8583 1 109.50000 418.400000
8574 16063 9543 1 109.50000 418.400000
8574 16063 10905 1 109.50000 418.400000
8583 16063 9543 1 109.50000 418.400000
8583 16063 10905 1 109.50000 418.400000
9543 16063 10905 1 109.50000 418.400000
2599 16064 5100 1 109.50000 418.400000
2599 16064 11011 1 109.50000 418.400000
2599 16064 11072 1 109.50000 418.400000
5100 16064 11011 1 109.50000 418.400000
5100 16064 11072 1 109.50000 418.400000
11011 16064 11072 1 109.50000 418.400000
879 16065 5096 1 109.50000 418.400000
879 16065 7642 1 109.50000 418.400000
879 16065 10136 1 109.50000 418.400000
5096 16065 7642 1 109.50000 418.400000
5096 16065 10136 1 109.50000 418.400000
7642 16065 10136 1 109.50000 418.400000
1967 16066 4386 1 109.50000 418.400000
1967 16066 8123 1 109.50000 418.400000
1967 16066 9794 1 109.50000 418.400000
4386 16066 8123 1 109.50000 418.400000
4386 16066 9794 1 109.50000 418.400000
8123 16066 9794 1 109.50000 418.400000
548 16067 1880 1 109.50000 418.400000
548 16067 3857 1 109.50000 418.400000
548 16067 11012 1 109.50000 418.400000
1880 16067 3857 1 109.50000 418.400000
1880 16067 11012 1 109.50000 418.400000
3857 16067 11012 1 109.50000 418.400000
2242 16068 9120 1 109.50000 418.400000
2242 16068 10927 1 109.50000 418.400000
2242 16068 11013 1 109.50000 418.400000
9120 16068 10927 1 109.50000 418.400000
9120 16068 11013 1 109.50000 418.400000
10927 16068 11013 1 109.50000 418.400000
5366 16069 5725 1 109.50000 418.400000
5366 16069 10980 1 109.50000 418.400000
5366 16069 11014 1 109.50000 418.400000
5725 16069 10980 1 109.50000 418.400000
5725 16069 11014 1 109.50000 418.400000
10980 16069 11014 1 109.50000 418.400000
5632 16070 5633 1 109.50000 418.400000
5632 16070 10169 1 109.50000 418.400000
5632 16070 11015 1 109.50000 418.400000
5633 16070 10169 1 109.50000 418.400000
5633 16070 11015 1 109.50000 418.400000
10169 16070 11015 1 109.50000 418.400000
2006 16071 7362 1 109.50000 418.400000
2006 16071 7915 1 109.50000 418.400000
2006 16071 11016 1 109.50000 418.400000
7362 16071 7915 1 109.50000 418.400000
7362 16071 11016 1 109.50000 418.400000
7915 16071 11016 1 109.50000 418.400000
1403 16072 4357 1 109.50000 418.400000
1403 16072 10739 1 109.50000 418.400000
1403 16072 10930 1 109.50000 418.400000
4357 16072 10739 1 109.50000 418.400000
4357 16072 10930 1 109.50000 418.400000
10739 16072 10930 1 109.50000 418.400000
9604 16073 10163 1 109.50000 418.400000
9604 16073 11018 1 109.50000 418.400000
9604 16073 11019 1 109.50000 418.400000
10163 16073 11018 1 109.50000 418.400000
10163 16073 11019 1 109.50000 418.400000
11018 16073 11019 1 109.50000 418.400000
6848 16074 7155 1 109.50000 418.400000
6848 16074 10697 1 109.50000 418.400000
6848 16074 10952 1 109.50000 418.400000
7155 16074 10697 1 109.50000 418.400000
7155 16074 10952 1 109.50000 418.400000
10697 16074 10952 1 109.50000 418.400000
661 16075 1304 1 109.50000 418.400000
661 16075 7350 1 109.50000 418.400000
661 16075 10338 1 109.50000 418.400000
1304 16075 7350 1 109.50000 418.400000
1304 16075 10338 1 109.50000 418.400000
7350 16075 10338 1 109.50000 418.400000
3021 16076 7052 1 109.50000 418.400000
3021 16076 9781 1 109.50000 418.400000
3021 16076 9930 1 109.50000 418.400000
7052 16076 9781 1 109.50000 418.400000
7052 16076 9930 1 109.50000 418.400000
9781 16076 9930 1 109.50000 418.400000
4790 16077 9021 1 109.50000 418.400000
4790 16077 10756 1 109.50000 418.400000
4790 16077 11290 1 109.50000 418.400000
9021 16077 10756 1 109.50000 418.400000
9021 16077 11290 1 109.50000 418.400000
10756 16077 11290 1 109.50000 418.400000
7091 16078 7092 1 109.50000 418.400000
7091 16078 8208 1 109.50000 418.400000
7091 16078 10301 1 109.50000 418.400000
7092 16078 8208 1 109.50000 418.400000
7092 16078 10301 1 109.50000 418.400000
8208 16078 10301 1 109.50000 418.400000
5699 16079 8064 1 109.50000 418.400000
5699 16079 10372 1 109.50000 418.400000
5699 16079 10936 1 109.50000 418.400000
8064 16079 10372 1 109.50000 418.400000
8064 16079 10936 1 109.50000 418.400000
10372 16079 10936 1 109.50000 418.400000
919 16080 2926 1 109.50000 418.400000
919 16080 9611 1 109.50000 418.400000
919 16080 10260 1 109.50000 418.400000
2926 16080 9611 1 109.50000 418.400000
2926 16080 10260 1 109.50000 418.400000
9611 16080 10260 1 109.50000 418.400000
8274 16081 8943 1 109.50000 418.400000
8274 16081 10730 1 109.50000 418.400000
8274 16081 11020 1 109.50000 418.400000
8943 16081 10730 1 109.50000 418.400000
8943 16081 11020 1 109.50000 418.400000
10730 16081 11020 1 109.50000 418.400000
5695 16082 8490 1 109.50000 418.400000
5695 16082 10319 1 109.50000 418.400000
5695 16082 11022 1 109.50000 418.400000
8490 16082 10319 1 109.50000 418.400000
8490 16082 11022 1 109.50000 418.400000
10319 16082 11022 1 109.50000 418.400000
183 16083 9733 1 109.50000 418.400000
183 16083 10364 1 109.50000 418.400000
183 16083 11023 1 109.50000 418.400000
9733 16083 10364 1 109.50000 418.400000
9733 16083 11023 1 109.50000 418.400000
10364 16083 11023 1 109.50000 418.400000
7108 16084 7789 1 109.50000 418.400000
7108 16084 10915 1 109.50000 418.400000
7108 16084 10966 1 109.50000 418.400000
7789 16084 10915 1 109.50000 418.400000
7789 16084 10966 1 109.50000 418.400000
10915 16084 10966 1 109.50000 418.400000
585 16085 2153 1 109.50000 418.400000
585 16085 2204 1 109.50000 418.400000
585 16085 2820 1 109.50000 418.400000
2153 16085 2204 1 109.50000 418.400000
2153 16085 2820 1 109.50000 418.400000
2204 16085 2820 1 109.50000 418.400000
4585 16086 7277 1 109.50000 418.400000
4585 16086 7279 1 109.50000 418.400000
4585 16086 10346 1 109.50000 418.400000
7277 16086 7279 1 109.50000 418.400000
7277 16086 10346 1 109.50000 418.400000
7279 16086 10346 1 109.50000 418.400000
2430 16087 2946 1 109.50000 418.400000
2430 16087 4298 1 109.50000 418.400000
2430 16087 7417 1 109.50000 418.400000
2946 16087 4298 1 109.50000 418.400000
2946 16087 7417 1 109.50000 418.400000
4298 16087 7417 1 109.50000 418.400000
115 16088 4165 1 109.50000 418.400000
115 16088 8098 1 109.50000 418.400000
115 16088 10208 1 109.50000 418.400000
4165 16088 8098 1 109.50000 418.400000
4165 16088 10208 1 109.50000 418.400000
8098 16088 10208 1 109.50000 418.400000
2742 16089 9553 1 109.50000 418.400000
2742 16089 11024 1 109.50000 418.400000
2742 16089 11025 1 109.50000 418.400000
9553 16089 11024 1 109.50000 418.400000
9553 16089 11025 1 109.50000 418.400000
11024 16089 11025 1 109.50000 418.400000
5755 16090 6206 1 109.50000 418.400000
5755 16090 9536 1 109.50000 418.400000
5755 16090 11026 1 109.50000 418.400000
6206 16090 9536 1 109.50000 418.400000
6206 16090 11026 1 109.50000 418.400000
9536 16090 11026 1 109.50000 418.400000
7473 16091 8803 1 109.50000 418.400000
7473 16091 10091 1 109.50000 418.400000
7473 16091 10871 1 109.50000 418.400000
8803 16091 10091 1 109.50000 418.400000
8803 16091 10871 1 109.50000 418.400000
10091 16091 10871 1 109.50000 418.400000
7060 16092 7649 1 109.50000 418.400000
7060 16092 9462 1 109.50000 418.400000
7060 16092 10458 1 109.50000 418.400000
7649 16092 9462 1 109.50000 418.400000
7649 16092 10458 1 109.50000 418.400000
9462 16092 10458 1 109.50000 418.400000
7586 16093 9111 1 109.50000 418.400000
7586 16093 10442 1 109.50000 418.400000
7586 16093 10607 1 109.50000 418.400000
9111 16093 10442 1 109.50000 418.400000
9111 16093 10607 1 109.50000 418.400000
10442 16093 10607 1 109.50000 418.400000
7924 16094 8988 1 109.50000 418.400000
7924 16094 10490 1 109.50000 418.400000
7924 16094 11027 1 109.50000 418.400000
8988 16094 10490 1 109.50000 418.400000
8988 16094 11027 1 109.50000 418.400000
10490 16094 11027 1 109.50000 418.400000
7411 16095 8403 1 109.50000 418.400000
7411 16095 9134 1 109.50000 418.400000
7411 16095 10305 1 109.50000 418.400000
8403 16095 9134 1 109.50000 418.400000
8403 16095 10305 1 109.50000 418.400000
9134 16095 10305 1 109.50000 418.400000
1930 16096 9177 1 109.50000 418.400000
1930 16096 10318 1 109.50000 418.400000
1930 16096 11028 1 109.50000 418.400000
9177 16096 10318 1 109.50000 418.400000
9177 16096 11028 1 109.50000 418.400000
10318 16096 11028 1 109.50000 418.400000
7472 16097 7895 1 109.50000 418.400000
7472 16097 11029 1 109.50000 418.400000
7472 16097 11030 1 109.50000 418.400000
7895 16097 11029 1 109.50000 418.400000
7895 16097 11030 1 109.50000 418.400000
11029 16097 11030 1 109.50000 418.400000
9108 16098 10483 1 109.50000 418.400000
9108 16098 10498 1 109.50000 418.400000
9108 16098 11031 1 109.50000 418.400000
10483 16098 10498 1 109.50000 418.400000
10483 16098 11031 1 109.50000 418.400000
10498 16098 11031 1 109.50000 418.400000
2086 16099 9664 1 109.50000 418.400000
2086 16099 10655 1 109.50000 418.400000
2086 16099 10770 1 109.50000 418.400000
9664 16099 10655 1 109.50000 418.400000
9664 16099 10770 1 109.50000 418.400000
10655 16099 10770 1 109.50000 418.400000
1871 16100 6659 1 109.50000 418.400000
1871 16100 7015 1 109.50000 418.400000
1871 16100 7723 1 109.50000 418.400000
6659 16100 7015 1 109.50000 418.400000
6659 16100 7723 1 109.50000 418.400000
7015 16100 7723 1 109.50000 418.400000
1623 16101 9645 1 109.50000 418.400000
1623 16101 11032 1 109.50000 418.400000
1623 16101 11322 1 109.50000 418.400000
9645 16101 11032 1 109.50000 418.400000
9645 16101 11322 1 109.50000 418.400000
11032 16101 11322 1 109.50000 418.400000
110 16102 1198 1 109.50000 418.400000
110 16102 4754 1 109.50000 418.400000
110 16102 4755 1 109.50000 418.400000
1198 16102 4754 1 109.50000 418.400000
1198 16102 4755 1 109.50000 418.400000
4754 16102 4755 1 109.50000 418.400000
5867 16103 10177 1 109.50000 418.400000
5867 16103 10520 1 109.50000 418.400000
5867 16103 10893 1 109.50000 418.400000
10177 16103 10520 1 109.50000 418.400000
10177 16103 10893 1 109.50000 418.400000
10520 16103 10893 1 109.50000 418.400000
3742 16104 8121 1 109.50000 418.400000
3742 16104 11012 1 109.50000 418.400000
3742 16104 11033 1 109.50000 418.400000
8121 16104 11012 1 109.50000 418.400000
8121 16104 11033 1 109.50000 418.400000
11012 16104 11033 1 109.50000 418.400000
1614 16105 6305 1 109.50000 418.400000
1614 16105 6993 1 109.50000 418.400000
1614 16105 10751 1 109.50000 418.400000
6305 16105 6993 1 109.50000 418.400000
6305 16105 10751 1 109.50000 418.400000
6993 16105 10751 1 109.50000 418.400000
7874 16106 10144 1 109.50000 418.400000
7874 16106 10462 1 109.50000 418.400000
7874 16106 10831 1 109.50000 418.400000
10144 16106 10462 1 109.50000 418.400000
10144 16106 10831 1 109.50000 418.400000
10462 16106 10831 1 109.50000 418.400000
2106 16107 5597 1 109.50000 418.400000
2106 16107 7319 1 109.50000 418.400000
2106 16107 10856 1 109.50000 418.400000
5597 16107 7319 1 109.50000 418.400000
5597 16107 10856 1 109.50000 418.400000
7319 16107 10856 1 109.50000 418.400000
4176 16108 5339 1 109.50000 418.400000
4176 16108 9155 1 109.50000 418.400000
4176 16108 10693 1 109.50000 418.400000
5339 16108 9155 1 109.50000 418.400000
5339 16108 10693 1 109.50000 418.400000
9155 16108 10693 1 109.50000 418.400000
1932 16109 3611 1 109.50000 418.400000
1932 16109 9101 1 109.50000 418.400000
1932 16109 10999 1 109.50000 418.400000
3611 16109 9101 1 109.50000 418.400000
3611 16109 10999 1 109.50000 418.400000
9101 16109 10999 1 109.50000 418.400000
2904 16110 7294 1 109.50000 418.400000
2904 16110 8561 1 109.50000 418.400000
2904 16110 10061 1 109.50000 418.400000
7294 16110 8561 1 109.50000 418.400000
7294 16110 10061 1 109.50000 418.400000
8561 16110 10061 1 109.50000 418.400000
165 16111 2621 1 109.50000 418.400000
165 16111 3505 1 109.50000 418.400000
165 16111 10182 1 109.50000 418.400000
2621 16111 3505 1 109.50000 418.400000
2621 16111 10182 1 109.50000 418.400000
3505 16111 10182 1 109.50000 418.400000
6118 16112 8756 1 109.50000 418.400000
6118 16112 9208 1 109.50000 418.400000
6118 16112 11034 1 109.50000 418.400000
8756 16112 9208 1 109.50000 418.400000
8756 16112 11034 1 109.50000 418.400000
9208 16112 11034 1 109.50000 418.400000
1853 16113 6289 1 109.50000 418.400000
1853 16113 6316 1 109.50000 418.400000
1853 16113 10883 1 109.50000 418.400000
6289 16113 6316 1 109.50000 418.400000
6289 16113 10883 1 109.50000 418.400000
6316 16113 10883 1 109.50000 418.400000
1323 16114 1342 1 109.50000 418.400000
1323 16114 2830 1 109.50000 418.400000
1323 16114 9036 1 109.50000 418.400000
1342 16114 2830 1 109.50000 418.400000
1342 16114 9036 1 109.50000 418.400000
2830 16114 9036 1 109.50000 418.400000
5702 16115 8566 1 109.50000 418.400000
5702 16115 9367 1 109.50000 418.400000
5702 16115 10890 1 109.50000 418.400000
8566 16115 9367 1 109.50000 418.400000
8566 16115 10890 1 109.50000 418.400000
9367 16115 10890 1 109.50000 418.400000
1157 16116 1468 1 109.50000 418.400000
1157 16116 8843 1 109.50000 418.400000
1157 16116 10143 1 109.50000 418.400000
1468 16116 8843 1 109.50000 418.400000
1468 16116 10143 1 109.50000 418.400000
8843 16116 10143 1 109.50000 418.400000
6570 16117 8267 1 109.50000 418.400000
6570 16117 9478 1 109.50000 418.400000
6570 16117 11004 1 109.50000 418.400000
8267 16117 9478 1 109.50000 418.400000
8267 16117 11004 1 109.50000 418.400000
9478 16117 11004 1 109.50000 418.400000
1521 16118 10452 1 109.50000 418.400000
1521 16118 10879 1 109.50000 418.400000
1521 16118 11035 1 109.50000 418.400000
10452 16118 10879 1 109.50000 418.400000
10452 16118 11035 1 109.50000 418.400000
10879 16118 11035 1 109.50000 418.400000
3671 16119 3763 1 109.50000 418.400000
3671 16119 4800 1 109.50000 418.400000
3671 16119 9444 1 109.50000 418.400000
3763 16119 4800 1 109.50000 418.400000
3763 16119 9444 1 109.50000 418.400000
4800 16119 9444 1 109.50000 418.400000
1310 16120 3155 1 109.50000 418.400000
1310 16120 7965 1 109.50000 418.400000
1310 16120 11036 1 109.50000 418.400000
3155 16120 7965 1 109.50000 418.400000
3155 16120 11036 1 109.50000 418.400000
7965 16120 11036 1 109.50000 418.400000
7639 16121 9055 1 109.50000 418.400000
7639 16121 9587 1 109.50000 418.400000
7639 16121 10679 1 109.50000 418.400000
9055 16121 9587 1 109.50000 418.400000
9055 16121 10679 1 109.50000 418.400000
9587 16121 10679 1 109.50000 418.400000
913 16122 8250 1 109.50000 418.400000
913 16122 10236 1 109.50000 418.400000
913 16122 11037 1 109.50000 418.400000
8250 16122 10236 1 109.50000 418.400000
8250 16122 11037 1 109.50000 418.400000
10236 16122 11037 1 109.50000 418.400000
2724 16123 4970 1 109.50000 418.400000
2724 16123 8598 1 109.50000 418.400000
2724 16123 9599 1 109.50000 418.400000
4970 16123 8598 1 109.50000 418.400000
4970 16123 9599 1 109.50000 418.400000
8598 16123 9599 1 109.50000 418.400000
607 16124 7211 1 109.50000 418.400000
607 16124 8921 1 109.50000 418.400000
607 16124 11038 1 109.50000 418.400000
7211 16124 8921 1 109.50000 418.400000
7211 16124 11038 1 109.50000 418.400000
8921 16124 11038 1 109.50000 418.400000
23 16125 10199 1 109.50000 418.400000
23 16125 10685 1 109.50000 418.400000
23 16125 10971 1 109.50000 418.400000
10199 16125 10685 1 109.50000 418.400000
10199 16125 10971 1 109.50000 418.400000
10685 16125 10971 1 109.50000 418.400000
6617 16126 8588 1 109.50000 418.400000
6617 16126 9756 1 109.50000 418.400000
6617 16126 11307 1 109.50000 418.400000
8588 16126 9756 1 109.50000 418.400000
8588 16126 11307 1 109.50000 418.400000
9756 16126 11307 1 109.50000 418.400000
1721 16127 5573 1 109.50000 418.400000
1721 16127 8732 1 109.50000 418.400000
1721 16127 10064 1 109.50000 418.400000
5573 16127 8732 1 109.50000 418.400000
5573 16127 10064 1 109.50000 418.400000
8732 16127 10064 1 109.50000 418.400000
6031 16128 6032 1 109.50000 418.400000
6031 16128 6494 1 109.50000 418.400000
6031 16128 10495 1 109.50000 418.400000
6032 16128 6494 1 109.50000 418.400000
6032 16128 10495 1 109.50000 418.400000
6494 16128 10495 1 109.50000 418.400000
2262 16129 8745 1 109.50000 418.400000
2262 16129 9373 1 109.50000 418.400000
2262 16129 10308 1 109.50000 418.400000
8745 16129 9373 1 109.50000 418.400000
8745 16129 10308 1 109.50000 418.400000
9373 16129 10308 1 109.50000 418.400000
1024 16130 1908 1 109.50000 418.400000
1024 16130 4101 1 109.50000 418.400000
1024 16130 10728 1 109.50000 418.400000
1908 16130 4101 1 109.50000 418.400000
1908 16130 10728 1 109.50000 418.400000
4101 16130 10728 1 109.50000 418.400000
233 16131 3059 1 109.50000 418.400000
233 16131 4478 1 109.50000 418.400000
233 16131 10185 1 109.50000 418.400000
3059 16131 4478 1 109.50000 418.400000
3059 16131 10185 1 109.50000 418.400000
4478 16131 10185 1 109.50000 418.400000
2539 16132 4469 1 109.50000 418.400000
2539 16132 10958 1 109.50000 418.400000
2539 16132 11039 1 109.50000 418.400000
4469 16132 10958 1 109.50000 418.400000
4469 16132 11039 1 109.50000 418.400000
10958 16132 11039 1 109.50000 418.400000
7130 16133 8470 1 109.50000 418.400000
7130 16133 8990 1 109.50000 418.400000
7130 16133 10946 1 109.50000 418.400000
8470 16133 8990 1 109.50000 418.400000
8470 16133 10946 1 109.50000 418.400000
8990 16133 10946 1 109.50000 418.400000
5635 16134 5805 1 109.50000 418.400000
5635 16134 10473 1 109.50000 418.400000
5635 16134 10810 1 109.50000 418.400000
5805 16134 10473 1 109.50000 418.400000
5805 16134 10810 1 109.50000 418.400000
10473 16134 10810 1 109.50000 418.400000
3159 16135 6420 1 109.50000 418.400000
3159 16135 7240 1 109.50000 418.400000
3159 16135 7241 1 109.50000 418.400000
6420 16135 7240 1 109.50000 418.400000
6420 16135 7241 1 109.50000 418.400000
7240 16135 7241 1 109.50000 418.400000
2129 16136 3870 1 109.50000 418.400000
2129 16136 4465 1 109.50000 418.400000
2129 16136 8486 1 109.50000 418.400000
3870 16136 4465 1 109.50000 418.400000
3870 16136 8486 1 109.50000 418.400000
4465 16136 8486 1 109.50000 418.400000
1509 16137 5818 1 109.50000 418.400000
1509 16137 10387 1 109.50000 418.400000
1509 16137 10885 1 109.50000 418.400000
5818 16137 10387 1 109.50000 418.400000
5818 16137 10885 1 109.50000 418.400000
10387 16137 10885 1 109.50000 418.400000
4316 16138 5316 1 109.50000 418.400000
4316 16138 6284 1 109.50000 418.400000
4316 16138 8992 1 109.50000 418.400000
5316 16138 6284 1 109.50000 418.400000
5316 16138 8992 1 109.50000 418.400000
6284 16138 8992 1 109.50000 418.400000
4022 16139 4025 1 109.50000 418.400000
4022 16139 9388 1 109.50000 418.400000
4022 16139 11040 1 109.50000 418.400000
4025 16139 9388 1 109.50000 418.400000
4025 16139 11040 1 109.50000 418.400000
9388 16139 11040 1 109.50000 418.400000
4505 16140 8126 1 109.50000 418.400000
4505 16140 8270 1 109.50000 418.400000
4505 16140 8495 1 109.50000 418.400000
8126 16140 8270 1 109.50000 418.400000
8126 16140 8495 1 109.50000 418.400000
8270 16140 8495 1 109.50000 418.400000
179 16141 4317 1 109.50000 418.400000
179 16141 8773 1 109.50000 418.400000
179 16141 10777 1 109.50000 418.400000
4317 16141 8773 1 109.50000 418.400000
4317 16141 10777 1 109.50000 418.400000
8773 16141 10777 1 109.50000 418.400000
3861 16142 10761 1 109.50000 418.400000
3861 16142 10924 1 109.50000 418.400000
3861 16142 10963 1 109.50000 418.400000
10761 16142 10924 1 109.50000 418.400000
10761 16142 10963 1 109.50000 418.400000
10924 16142 10963 1 109.50000 418.400000
4695 16143 9933 1 109.50000 418.400000
4695 16143 11041 1 109.50000 418.400000
4695 16143 11042 1 109.50000 418.400000
9933 16143 11041 1 109.50000 418.400000
9933 16143 11042 1 109.50000 418.400000
11041 16143 11042 1 109.50000 418.400000
4763 16144 5742 1 109.50000 418.400000
4763 16144 5744 1 109.50000 418.400000
4763 16144 9888 1 109.50000 418.400000
5742 16144 5744 1 109.50000 418.400000
5742 16144 9888 1 109.50000 418.400000
5744 16144 9888 1 109.50000 418.400000
2346 16145 4641 1 109.50000 418.400000
2346 16145 6227 1 109.50000 418.400000
2346 16145 7082 1 109.50000 418.400000
4641 16145 6227 1 109.50000 418.400000
4641 16145 7082 1 109.50000 418.400000
6227 16145 7082 1 109.50000 418.400000
1933 16146 10313 1 109.50000 418.400000
1933 16146 10721 1 109.50000 418.400000
1933 16146 10746 1 109.50000 418.400000
10313 16146 10721 1 109.50000 418.400000
10313 16146 10746 1 109.50000 418.400000
10721 16146 10746 1 109.50000 418.400000
309 16147 938 1 109.50000 418.400000
309 16147 11003 1 109.50000 418.400000
309 16147 11161 1 109.50000 418.400000
938 16147 11003 1 109.50000 418.400000
938 16147 11161 1 109.50000 418.400000
11003 16147 11161 1 109.50000 418.400000
964 16148 4784 1 109.50000 418.400000
964 16148 5898 1 109.50000 418.400000
964 16148 11043 1 109.50000 418.400000
4784 16148 5898 1 109.50000 418.400000
4784 16148 11043 1 109.50000 418.400000
5898 16148 11043 1 109.50000 418.400000
819 16149 6030 1 109.50000 418.400000
819 16149 9470 1 109.50000 418.400000
819 16149 10826 1 109.50000 418.400000
6030 16149 9470 1 109.50000 418.400000
6030 16149 10826 1 109.50000 418.400000
9470 16149 10826 1 109.50000 418.400000
2057 16150 4117 1 109.50000 418.400000
2057 16150 10343 1 109.50000 418.400000
2057 16150 10613 1 109.50000 418.400000
4117 16150 10343 1 109.50000 418.400000
4117 16150 10613 1 109.50000 418.400000
10343 16150 10613 1 109.50000 418.400000
8647 16151 10085 1 109.50000 418.400000
8647 16151 10303 1 109.50000 418.400000
8647 16151 11045 1 109.50000 418.400000
10085 16151 10303 1 109.50000 418.400000
10085 16151 11045 1 109.50000 418.400000
10303 16151 11045 1 109.50000 418.400000
4725 16152 7388 1 109.50000 418.400000
4725 16152 10070 1 109.50000 418.400000
4725 16152 10210 1 109.50000 418.400000
7388 16152 10070 1 109.50000 418.400000
7388 16152 10210 1 109.50000 418.400000
10070 16152 10210 1 109.50000 418.400000
5928 16153 7858 1 109.50000 418.400000
5928 16153 7896 1 109.50000 418.400000
5928 16153 8295 1 109.50000 418.400000
7858 16153 7896 1 109.50000 418.400000
7858 16153 8295 1 109.50000 418.400000
7896 16153 8295 1 109.50000 418.400000
6304 16154 10619 1 109.50000 418.400000
6304 16154 11046 1 109.50000 418.400000
6304 16154 11047 1 109.50000 418.400000
10619 16154 11046 1 109.50000 418.400000
10619 16154 11047 1 109.50000 418.400000
11046 16154 11047 1 109.50000 418.400000
1915 16155 6291 1 109.50000 418.400000
1915 16155 8446 1 109.50000 418.400000
1915 16155 10794 1 109.50000 418.400000
6291 16155 8446 1 109.50000 418.400000
6291 16155 10794 1 109.50000 418.400000
8446 16155 10794 1 109.50000 418.400000
9928 16156 10702 1 109.50000 418.400000
9928 16156 10745 1 109.50000 418.400000
9928 16156 11048 1 109.50000 418.400000
10702 16156 10745 1 109.50000 418.400000
10702 16156 11048 1 109.50000 418.400000
10745 16156 11048 1 109.50000 418.400000
3494 16157 5449 1 109.50000 418.400000
3494 16157 8321 1 109.50000 418.400000
3494 16157 11049 1 109.50000 418.400000
5449 16157 8321 1 109.50000 418.400000
5449 16157 11049 1 109.50000 418.400000
8321 16157 11049 1 109.50000 418.400000
1568 16158 2824 1 109.50000 418.400000
1568 16158 8451 1 109.50000 418.400000
1568 16158 8454 1 109.50000 418.400000
2824 16158 8451 1 109.50000 418.400000
2824 16158 8454 1 109.50000 418.400000
8451 16158 8454 1 109.50000 418.400000
1002 16159 2189 1 109.50000 418.400000
1002 16159 10799 1 109.50000 418.400000
1002 16159 11050 1 109.50000 418.400000
2189 16159 10799 1 109.50000 418.400000
2189 16159 11050 1 109.50000 418.400000
10799 16159 11050 1 109.50000 418.400000
2915 16160 7696 1 109.50000 418.400000
2915 16160 10529 1 109.50000 418.400000
2915 16160 10778 1 109.50000 418.400000
7696 16160 10529 1 109.50000 418.400000
7696 16160 10778 1 109.50000 418.400000
10529 16160 10778 1 109.50000 418.400000
3140 16161 6874 1 109.50000 418.400000
3140 16161 8903 1 109.50000 418.400000
3140 16161 9242 1 109.50000 418.400000
6874 16161 8903 1 109.50000 418.400000
6874 16161 9242 1 109.50000 418.400000
8903 16161 9242 1 109.50000 418.400000
8922 16162 9295 1 109.50000 418.400000
8922 16162 10273 1 109.50000 418.400000
8922 16162 10645 1 109.50000 418.400000
9295 16162 10273 1 109.50000 418.400000
9295 16162 10645 1 109.50000 418.400000
10273 16162 10645 1 109.50000 418.400000
791 16163 4491 1 109.50000 418.400000
791 16163 5413 1 109.50000 418.400000
791 16163 10230 1 109.50000 418.400000
4491 16163 5413 1 109.50000 418.400000
4491 16163 10230 1 109.50000 418.400000
5413 16163 10230 1 109.50000 418.400000
834 16164 1924 1 109.50000 418.400000
834 16164 8236 1 109.50000 418.400000
834 16164 10660 1 109.50000 418.400000
1924 16164 8236 1 109.50000 418.400000
1924 16164 10660 1 109.50000 418.400000
8236 16164 10660 1 109.50000 418.400000
7716 16165 8712 1 109.50000 418.400000
7716 16165 10553 1 109.50000 418.400000
7716 16165 11051 1 109.50000 418.400000
8712 16165 10553 1 109.50000 418.400000
8712 16165 11051 1 109.50000 418.400000
10553 16165 11051 1 109.50000 418.400000
4538 16166 5790 1 109.50000 418.400000
4538 16166 6640 1 109.50000 418.400000
4538 16166 8656 1 109.50000 418.400000
5790 16166 6640 1 109.50000 418.400000
5790 16166 8656 1 109.50000 418.400000
6640 16166 8656 1 109.50000 418.400000
95 16167 495 1 109.50000 418.400000
95 16167 4558 1 109.50000 418.400000
95 16167 9552 1 109.50000 418.400000
495 16167 4558 1 109.50000 418.400000
495 16167 9552 1 109.50000 418.400000
4558 16167 9552 1 109.50000 418.400000
2907 16168 2908 1 109.50000 418.400000
2907 16168 8540 1 109.50000 418.400000
2907 16168 10378 1 109.50000 418.400000
2908 16168 8540 1 109.50000 418.400000
2908 16168 10378 1 109.50000 418.400000
8540 16168 10378 1 109.50000 418.400000
4651 16169 10422 1 109.50000 418.400000
4651 16169 10760 1 109.50000 418.400000
4651 16169 11023 1 109.50000 418.400000
10422 16169 10760 1 109.50000 418.400000
10422 16169 11023 1 109.50000 418.400000
10760 16169 11023 1 109.50000 418.400000
10389 16170 10594 1 109.50000 418.400000
10389 16170 11020 1 109.50000 418.400000
10389 16170 11021 1 109.50000 418.400000
10594 16170 11020 1 109.50000 418.400000
10594 16170 11021 1 109.50000 418.400000
11020 16170 11021 1 109.50000 418.400000
4961 16171 10119 1 109.50000 418.400000
4961 16171 10306 1 109.50000 418.400000
4961 16171 11052 1 109.50000 418.400000
10119 16171 10306 1 109.50000 418.400000
10119 16171 11052 1 109.50000 418.400000
10306 16171 11052 1 109.50000 418.400000
2687 16172 4740 1 109.50000 418.400000
2687 16172 9745 1 109.50000 418.400000
2687 16172 11053 1 109.50000 418.400000
4740 16172 9745 1 109.50000 418.400000
4740 16172 11053 1 109.50000 418.400000
9745 16172 11053 1 109.50000 418.400000
4480 16173 4481 1 109.50000 418.400000
4480 16173 6824 1 109.50000 418.400000
4480 16173 11008 1 109.50000 418.400000
4481 16173 6824 1 109.50000 418.400000
4481 16173 11008 1 109.50000 418.400000
6824 16173 11008 1 109.50000 418.400000
5483 16174 8119 1 109.50000 418.400000
5483 16174 8947 1 109.50000 418.400000
5483 16174 9630 1 109.50000 418.400000
8119 16174 8947 1 109.50000 418.400000
8119 16174 9630 1 109.50000 418.400000
8947 16174 9630 1 109.50000 418.400000
7405 16175 9609 1 109.50000 418.400000
7405 16175 9610 1 109.50000 418.400000
7405 16175 9611 1 109.50000 418.400000
9609 16175 9610 1 109.50000 418.400000
9609 16175 9611 1 109.50000 418.400000
9610 16175 9611 1 109.50000 418.400000
104 16176 7826 1 109.50000 418.400000
104 16176 9079 1 109.50000 418.400000
104 16176 11056 1 109.50000 418.400000
7826 16176 9079 1 109.50000 418.400000
7826 16176 11056 1 109.50000 418.400000
9079 16176 11056 1 109.50000 418.400000
4423 16177 5226 1 109.50000 418.400000
4423 16177 5956 1 109.50000 418.400000
4423 16177 9872 1 109.50000 418.400000
5226 16177 5956 1 109.50000 418.400000
5226 16177 9872 1 109.50000 418.400000
5956 16177 9872 1 109.50000 418.400000
2456 16178 6621 1 109.50000 418.400000
2456 16178 8648 1 109.50000 418.400000
2456 16178 10357 1 109.50000 418.400000
6621 16178 8648 1 109.50000 418.400000
6621 16178 10357 1 109.50000 418.400000
8648 16178 10357 1 109.50000 418.400000
108 16179 170 1 109.50000 418.400000
108 16179 3078 1 109.50000 418.400000
108 16179 8065 1 109.50000 418.400000
170 16179 3078 1 109.50000 418.400000
170 16179 8065 1 109.50000 418.400000
3078 16179 8065 1 109.50000 418.400000
7761 16180 7829 1 109.50000 418.400000
7761 16180 8613 1 109.50000 418.400000
7761 16180 11038 1 109.50000 418.400000
7829 16180 8613 1 109.50000 418.400000
7829 16180 11038 1 109.50000 418.400000
8613 16180 11038 1 109.50000 418.400000
3194 16181 3196 1 109.50000 418.400000
3194 16181 8374 1 109.50000 418.400000
3194 16181 11037 1 109.50000 418.400000
3196 16181 8374 1 109.50000 418.400000
3196 16181 11037 1 109.50000 418.400000
8374 16181 11037 1 109.50000 418.400000
7869 16182 9450 1 109.50000 418.400000
7869 16182 10227 1 109.50000 418.400000
7869 16182 11006 1 109.50000 418.400000
9450 16182 10227 1 109.50000 418.400000
9450 16182 11006 1 109.50000 418.400000
10227 16182 11006 1 109.50000 418.400000
2929 16183 5227 1 109.50000 418.400000
2929 16183 9353 1 109.50000 418.400000
2929 16183 10190 1 109.50000 418.400000
5227 16183 9353 1 109.50000 418.400000
5227 16183 10190 1 109.50000 418.400000
9353 16183 10190 1 109.50000 418.400000
3321 16184 3718 1 109.50000 418.400000
3321 16184 10630 1 109.50000 418.400000
3321 16184 11057 1 109.50000 418.400000
3718 16184 10630 1 109.50000 418.400000
3718 16184 11057 1 109.50000 418.400000
10630 16184 11057 1 109.50000 418.400000
7095 16185 7670 1 109.50000 418.400000
7095 16185 9443 1 109.50000 418.400000
7095 16185 10722 1 109.50000 418.400000
7670 16185 9443 1 109.50000 418.400000
7670 16185 10722 1 109.50000 418.400000
9443 16185 10722 1 109.50000 418.400000
892 16186 8281 1 109.50000 418.400000
892 16186 10401 1 109.50000 418.400000
892 16186 11058 1 109.50000 418.400000
8281 16186 10401 1 109.50000 418.400000
8281 16186 11058 1 109.50000 418.400000
10401 16186 11058 1 109.50000 418.400000
4745 16187 8610 1 109.50000 418.400000
4745 16187 9692 1 109.50000 418.400000
4745 16187 10501 1 109.50000 418.400000
8610 16187 9692 1 109.50000 418.400000
8610 16187 10501 1 109.50000 418.400000
9692 16187 10501 1 109.50000 418.400000
2305 16188 8861 1 109.50000 418.400000
2305 16188 8970 1 109.50000 418.400000
2305 16188 11059 1 109.50000 418.400000
8861 16188 8970 1 109.50000 418.400000
8861 16188 11059 1 109.50000 418.400000
8970 16188 11059 1 109.50000 418.400000
9668 16189 10569 1 109.50000 418.400000
9668 16189 10902 1 109.50000 418.400000
9668 16189 11260 1 109.50000 418.400000
10569 16189 10902 1 109.50000 418.400000
10569 16189 11260 1 109.50000 418.400000
10902 16189 11260 1 109.50000 418.400000
7526 16190 9050 1 109.50000 418.400000
7526 16190 11060 1 109.50000 418.400000
7526 16190 11061 1 109.50000 418.400000
9050 16190 11060 1 109.50000 418.400000
9050 16190 11061 1 109.50000 418.400000
11060 16190 11061 1 109.50000 418.400000
1615 16191 3457 1 109.50000 418.400000
1615 16191 9099 1 109.50000 418.400000
1615 16191 10339 1 109.50000 418.400000
3457 16191 9099 1 109.50000 418.400000
3457 16191 10339 1 109.50000 418.400000
9099 16191 10339 1 109.50000 418.400000
3082 16192 7300 1 109.50000 418.400000
3082 16192 9941 1 109.50000 418.400000
3082 16192 11063 1 109.50000 418.400000
7300 16192 9941 1 109.50000 418.400000
7300 16192 11063 1 109.50000 418.400000
9941 16192 11063 1 109.50000 418.400000
3355 16193 5225 1 109.50000 418.400000
3355 16193 8226 1 109.50000 418.400000
3355 16193 10803 1 109.50000 418.400000
5225 16193 8226 1 109.50000 418.400000
5225 16193 10803 1 109.50000 418.400000
8226 16193 10803 1 109.50000 418.400000
7357 16194 8145 1 109.50000 418.400000
7357 16194 10354 1 109.50000 418.400000
7357 16194 10700 1 109.50000 418.400000
8145 16194 10354 1 109.50000 418.400000
8145 16194 10700 1 109.50000 418.400000
10354 16194 10700 1 109.50000 418.400000
3757 16195 8606 1 109.50000 418.400000
3757 16195 8691 1 109.50000 418.400000
3757 16195 10505 1 109.50000 418.400000
8606 16195 8691 1 109.50000 418.400000
8606 16195 10505 1 109.50000 418.400000
8691 16195 10505 1 109.50000 418.400000
2564 16196 3312 1 109.50000 418.400000
2564 16196 3684 1 109.50000 418.400000
2564 16196 8882 1 109.50000 418.400000
3312 16196 3684 1 109.50000 418.400000
3312 16196 8882 1 109.50000 418.400000
3684 16196 8882 1 109.50000 418.400000
2083 16197 2339 1 109.50000 418.400000
2083 16197 3316 1 109.50000 418.400000
2083 16197 11064 1 109.50000 418.400000
2339 16197 3316 1 109.50000 418.400000
2339 16197 11064 1 109.50000 418.400000
3316 16197 11064 1 109.50000 418.400000
489 16198 7798 1 109.50000 418.400000
489 16198 9610 1 109.50000 418.400000
489 16198 10642 1 109.50000 418.400000
7798 16198 9610 1 109.50000 418.400000
7798 16198 10642 1 109.50000 418.400000
9610 16198 10642 1 109.50000 418.400000
4373 16199 5576 1 109.50000 418.400000
4373 16199 7904 1 109.50000 418.400000
4373 16199 11065 1 109.50000 418.400000
5576 16199 7904 1 109.50000 418.400000
5576 16199 11065 1 109.50000 418.400000
7904 16199 11065 1 109.50000 418.400000
5195 16200 5503 1 109.50000 418.400000
5195 16200 9375 1 109.50000 418.400000
5195 16200 10561 1 109.50000 418.400000
5503 16200 9375 1 109.50000 418.400000
5503 16200 10561 1 109.50000 418.400000
9375 16200 10561 1 109.50000 418.400000
6571 16201 10073 1 109.50000 418.400000
6571 16201 10976 1 109.50000 418.400000
6571 16201 11066 1 109.50000 418.400000
10073 16201 10976 1 109.50000 418.400000
10073 16201 11066 1 109.50000 418.400000
10976 16201 11066 1 109.50000 418.400000
5680 16202 8147 1 109.50000 418.400000
5680 16202 9141 1 109.50000 418.400000
5680 16202 10524 1 109.50000 418.400000
8147 16202 9141 1 109.50000 418.400000
8147 16202 10524 1 109.50000 418.400000
9141 16202 10524 1 109.50000 418.400000
44 16203 807 1 109.50000 418.400000
44 16203 4858 1 109.50000 418.400000
44 16203 4988 1 109.50000 418.400000
807 16203 4858 1 109.50000 418.400000
807 16203 4988 1 109.50000 418.400000
4858 16203 4988 1 109.50000 418.400000
6059 16204 10041 1 109.50000 418.400000
6059 16204 10379 1 109.50000 418.400000
6059 16204 11068 1 109.50000 418.400000
10041 16204 10379 1 109.50000 418.400000
10041 16204 11068 1 109.50000 418.400000
10379 16204 11068 1 109.50000 418.400000
3529 16205 7111 1 109.50000 418.400000
3529 16205 8333 1 109.50000 418.400000
3529 16205 10682 1 109.50000 418.400000
7111 16205 8333 1 109.50000 418.400000
7111 16205 10682 1 109.50000 418.400000
8333 16205 10682 1 109.50000 418.400000
10030 16206 10544 1 109.50000 418.400000
10030 16206 11069 1 109.50000 418.400000
10030 16206 11243 1 109.50000 418.400000
10544 16206 11069 1 109.50000 418.400000
10544 16206 11243 1 109.50000 418.400000
11069 16206 11243 1 109.50000 418.400000
3406 16207 5580 1 109.50000 418.400000
3406 16207 6416 1 109.50000 418.400000
3406 16207 11070 1 109.50000 418.400000
5580 16207 6416 1 109.50000 418.400000
5580 16207 11070 1 109.50000 418.400000
6416 16207 11070 1 109.50000 418.400000
1092 16208 9907 1 109.50000 418.400000
1092 16208 10160 1 109.50000 418.400000
1092 16208 11071 1 109.50000 418.400000
9907 16208 10160 1 109.50000 418.400000
9907 16208 11071 1 109.50000 418.400000
10160 16208 11071 1 109.50000 418.400000
6863 16209 10933 1 109.50000 418.400000
6863 16209 11072 1 109.50000 418.400000
6863 16209 11073 1 109.50000 418.400000
10933 16209 11072 1 109.50000 418.400000
10933 16209 11073 1 109.50000 418.400000
11072 16209 11073 1 109.50000 418.400000
323 16210 2317 1 109.50000 418.400000
323 16210 5853 1 109.50000 418.400000
323 16210 11050 1 109.50000 418.400000
2317 16210 5853 1 109.50000 418.400000
2317 16210 11050 1 109.50000 418.400000
5853 16210 11050 1 109.50000 418.400000
8454 16211 10608 1 109.50000 418.400000
8454 16211 10943 1 109.50000 418.400000
8454 16211 10948 1 109.50000 418.400000
10608 16211 10943 1 109.50000 418.400000
10608 16211 10948 1 109.50000 418.400000
10943 16211 10948 1 109.50000 418.400000
4507 16212 7643 1 109.50000 418.400000
4507 16212 10095 1 109.50000 418.400000
4507 16212 10798 1 109.50000 418.400000
7643 16212 10095 1 109.50000 418.400000
7643 16212 10798 1 109.50000 418.400000
10095 16212 10798 1 109.50000 418.400000
833 16213 1720 1 109.50000 418.400000
833 16213 3848 1 109.50000 418.400000
833 16213 9624 1 109.50000 418.400000
1720 16213 3848 1 109.50000 418.400000
1720 16213 9624 1 109.50000 418.400000
3848 16213 9624 1 109.50000 418.400000
5544 16214 6401 1 109.50000 418.400000
5544 16214 7038 1 109.50000 418.400000
5544 16214 11074 1 109.50000 418.400000
6401 16214 7038 1 109.50000 418.400000
6401 16214 11074 1 109.50000 418.400000
7038 16214 11074 1 109.50000 418.400000
721 16215 4292 1 109.50000 418.400000
721 16215 11075 1 109.50000 418.400000
721 16215 11340 1 109.50000 418.400000
4292 16215 11075 1 109.50000 418.400000
4292 16215 11340 1 109.50000 418.400000
11075 16215 11340 1 109.50000 418.400000
7982 16216 8934 1 109.50000 418.400000
7982 16216 9862 1 109.50000 418.400000
7982 16216 10429 1 109.50000 418.400000
8934 16216 9862 1 109.50000 418.400000
8934 16216 10429 1 109.50000 418.400000
9862 16216 10429 1 109.50000 418.400000
2522 16217 4681 1 109.50000 418.400000
2522 16217 7190 1 109.50000 418.400000
2522 16217 10717 1 109.50000 418.400000
4681 16217 7190 1 109.50000 418.400000
4681 16217 10717 1 109.50000 418.400000
7190 16217 10717 1 109.50000 418.400000
4106 16218 6040 1 109.50000 418.400000
4106 16218 9125 1 109.50000 418.400000
4106 16218 9126 1 109.50000 418.400000
6040 16218 9125 1 109.50000 418.400000
6040 16218 9126 1 109.50000 418.400000
9125 16218 9126 1 109.50000 418.400000
7802 16219 8130 1 109.50000 418.400000
7802 16219 9818 1 109.50000 418.400000
7802 16219 10968 1 109.50000 418.400000
8130 16219 9818 1 109.50000 418.400000
8130 16219 10968 1 109.50000 418.400000
9818 16219 10968 1 109.50000 418.400000
4748 16220 8538 1 109.50000 418.400000
4748 16220 9332 1 109.50000 418.400000
4748 16220 9863 1 109.50000 418.400000
8538 16220 9332 1 109.50000 418.400000
8538 16220 9863 1 109.50000 418.400000
9332 16220 9863 1 109.50000 418.400000
9064 16221 10861 1 109.50000 418.400000
9064 16221 10895 1 109.50000 418.400000
9064 16221 10975 1 109.50000 418.400000
10861 16221 10895 1 109.50000 418.400000
10861 16221 10975 1 109.50000 418.400000
10895 16221 10975 1 109.50000 418.400000
1257 16222 1577 1 109.50000 418.400000
1257 16222 8612 1 109.50000 418.400000
1257 16222 11076 1 109.50000 418.400000
1577 16222 8612 1 109.50000 418.400000
1577 16222 11076 1 109.50000 418.400000
8612 16222 11076 1 109.50000 418.400000
2500 16223 2921 1 109.50000 418.400000
2500 16223 7708 1 109.50000 418.400000
2500 16223 11200 1 109.50000 418.400000
2921 16223 7708 1 109.50000 418.400000
2921 16223 11200 1 109.50000 418.400000
7708 16223 11200 1 109.50000 418.400000
9139 16224 10411 1 109.50000 418.400000
9139 16224 10858 1 109.50000 418.400000
9139 16224 11075 1 109.50000 418.400000
10411 16224 10858 1 109.50000 418.400000
10411 16224 11075 1 109.50000 418.400000
10858 16224 11075 1 109.50000 418.400000
4074 16225 4313 1 109.50000 418.400000
4074 16225 4680 1 109.50000 418.400000
4074 16225 5906 1 109.50000 418.400000
4313 16225 4680 1 109.50000 418.400000
4313 16225 5906 1 109.50000 418.400000
4680 16225 5906 1 109.50000 418.400000
8228 16226 8812 1 109.50000 418.400000
8228 16226 10528 1 109.50000 418.400000
8228 16226 11028 1 109.50000 418.400000
8812 16226 10528 1 109.50000 418.400000
8812 16226 11028 1 109.50000 418.400000
10528 16226 11028 1 109.50000 418.400000
2355 16227 4004 1 109.50000 418.400000
2355 16227 9117 1 109.50000 418.400000
2355 16227 9285 1 109.50000 418.400000
4004 16227 9117 1 109.50000 418.400000
4004 16227 9285 1 109.50000 418.400000
9117 16227 9285 1 109.50000 418.400000
7536 16228 9106 1 109.50000 418.400000
7536 16228 10279 1 109.50000 418.400000
7536 16228 10310 1 109.50000 418.400000
9106 16228 10279 1 109.50000 418.400000
9106 16228 10310 1 109.50000 418.400000
10279 16228 10310 1 109.50000 418.400000
6302 16229 11009 1 109.50000 418.400000
6302 16229 11052 1 109.50000 418.400000
6302 16229 11327 1 109.50000 418.400000
11009 16229 11052 1 109.50000 418.400000
11009 16229 11327 1 109.50000 418.400000
11052 16229 11327 1 109.50000 418.400000
912 16230 2798 1 109.50000 418.400000
912 16230 6520 1 109.50000 418.400000
912 16230 11000 1 109.50000 418.400000
2798 16230 6520 1 109.50000 418.400000
2798 16230 11000 1 109.50000 418.400000
6520 16230 11000 1 109.50000 418.400000
3007 16231 5512 1 109.50000 418.400000
3007 16231 7916 1 109.50000 418.400000
3007 16231 11077 1 109.50000 418.400000
5512 16231 7916 1 109.50000 418.400000
5512 16231 11077 1 109.50000 418.400000
7916 16231 11077 1 109.50000 418.400000
1758 16232 5737 1 109.50000 418.400000
1758 16232 8731 1 109.50000 418.400000
1758 16232 9623 1 109.50000 418.400000
5737 16232 8731 1 109.50000 418.400000
5737 16232 9623 1 109.50000 418.400000
8731 16232 9623 1 109.50000 418.400000
3841 16233 7004 1 109.50000 418.400000
3841 16233 10904 1 109.50000 418.400000
3841 16233 10994 1 109.50000 418.400000
7004 16233 10904 1 109.50000 418.400000
7004 16233 10994 1 109.50000 418.400000
10904 16233 10994 1 109.50000 418.400000
365 16234 556 1 109.50000 418.400000
365 16234 1992 1 109.50000 418.400000
365 16234 10840 1 109.50000 418.400000
556 16234 1992 1 109.50000 418.400000
556 16234 10840 1 109.50000 418.400000
1992 16234 10840 1 109.50000 418.400000
6353 16235 8303 1 109.50000 418.400000
6353 16235 8809 1 109.50000 418.400000
6353 16235 10807 1 109.50000 418.400000
8303 16235 8809 1 109.50000 418.400000
8303 16235 10807 1 109.50000 418.400000
8809 16235 10807 1 109.50000 418.400000
1260 16236 4517 1 109.50000 418.400000
1260 16236 9202 1 109.50000 418.400000
1260 16236 11324 1 109.50000 418.400000
4517 16236 9202 1 109.50000 418.400000
4517 16236 11324 1 109.50000 418.400000
9202 16236 11324 1 109.50000 418.400000
3107 16237 8975 1 109.50000 418.400000
3107 16237 10194 1 109.50000 418.400000
3107 16237 10195 1 109.50000 418.400000
8975 16237 10194 1 109.50000 418.400000
8975 16237 10195 1 109.50000 418.400000
10194 16237 10195 1 109.50000 418.400000
2318 16238 3731 1 109.50000 418.400000
2318 16238 9396 1 109.50000 418.400000
2318 16238 10987 1 109.50000 418.400000
3731 16238 9396 1 109.50000 418.400000
3731 16238 10987 1 109.50000 418.400000
9396 16238 10987 1 109.50000 418.400000
5536 16239 9566 1 109.50000 418.400000
5536 16239 10918 1 109.50000 418.400000
5536 16239 11035 1 109.50000 418.400000
9566 16239 10918 1 109.50000 418.400000
9566 16239 11035 1 109.50000 418.400000
10918 16239 11035 1 109.50000 418.400000
8817 16240 9689 1 109.50000 418.400000
8817 16240 9890 1 109.50000 418.400000
8817 16240 10935 1 109.50000 418.400000
9689 16240 9890 1 109.50000 418.400000
9689 16240 10935 1 109.50000 418.400000
9890 16240 10935 1 109.50000 418.400000
6931 16241 10047 1 109.50000 418.400000
6931 16241 11078 1 109.50000 418.400000
6931 16241 11292 1 109.50000 418.400000
10047 16241 11078 1 109.50000 418.400000
10047 16241 11292 1 109.50000 418.400000
11078 16241 11292 1 109.50000 418.400000
7471 16242 8124 1 109.50000 418.400000
7471 16242 9317 1 109.50000 418.400000
7471 16242 10096 1 109.50000 418.400000
8124 16242 9317 1 109.50000 418.400000
8124 16242 10096 1 109.50000 418.400000
9317 16242 10096 1 109.50000 418.400000
4337 16243 11071 1 109.50000 418.400000
4337 16243 11079 1 109.50000 418.400000
4337 16243 11080 1 109.50000 418.400000
11071 16243 11079 1 109.50000 418.400000
11071 16243 11080 1 109.50000 418.400000
11079 16243 11080 1 109.50000 418.400000
5701 16244 7692 1 109.50000 418.400000
5701 16244 9217 1 109.50000 418.400000
5701 16244 9917 1 109.50000 418.400000
7692 16244 9217 1 109.50000 418.400000
7692 16244 9917 1 109.50000 418.400000
9217 16244 9917 1 109.50000 418.400000
2457 16245 2708 1 109.50000 418.400000
2457 16245 4603 1 109.50000 418.400000
2457 16245 11081 1 109.50000 418.400000
2708 16245 4603 1 109.50000 418.400000
2708 16245 11081 1 109.50000 418.400000
4603 16245 11081 1 109.50000 418.400000
2437 16246 3256 1 109.50000 418.400000
2437 16246 9826 1 109.50000 418.400000
2437 16246 10005 1 109.50000 418.400000
3256 16246 9826 1 109.50000 418.400000
3256 16246 10005 1 109.50000 418.400000
9826 16246 10005 1 109.50000 418.400000
5116 16247 9651 1 109.50000 418.400000
5116 16247 9700 1 109.50000 418.400000
5116 16247 11077 1 109.50000 418.400000
9651 16247 9700 1 109.50000 418.400000
9651 16247 11077 1 109.50000 418.400000
9700 16247 11077 1 109.50000 418.400000
4940 16248 4942 1 109.50000 418.400000
4940 16248 8358 1 109.50000 418.400000
4940 16248 10481 1 109.50000 418.400000
4942 16248 8358 1 109.50000 418.400000
4942 16248 10481 1 109.50000 418.400000
8358 16248 10481 1 109.50000 418.400000
4045 16249 5614 1 109.50000 418.400000
4045 16249 10595 1 109.50000 418.400000
4045 16249 11082 1 109.50000 418.400000
5614 16249 10595 1 109.50000 418.400000
5614 16249 11082 1 109.50000 418.400000
10595 16249 11082 1 109.50000 418.400000
5691 16250 7796 1 109.50000 418.400000
5691 16250 9382 1 109.50000 418.400000
5691 16250 11080 1 109.50000 418.400000
7796 16250 9382 1 109.50000 418.400000
7796 16250 11080 1 109.50000 418.400000
9382 16250 11080 1 109.50000 418.400000
5282 16251 5376 1 109.50000 418.400000
5282 16251 8870 1 109.50000 418.400000
5282 16251 10216 1 109.50000 418.400000
5376 16251 8870 1 109.50000 418.400000
5376 16251 10216 1 109.50000 418.400000
8870 16251 10216 1 109.50000 418.400000
812 16252 5064 1 109.50000 418.400000
812 16252 8201 1 109.50000 418.400000
812 16252 10017 1 109.50000 418.400000
5064 16252 8201 1 109.50000 418.400000
5064 16252 10017 1 109.50000 418.400000
8201 16252 10017 1 109.50000 418.400000
3640 16253 9376 1 109.50000 418.400000
3640 16253 10913 1 109.50000 418.400000
3640 16253 10920 1 109.50000 418.400000
9376 16253 10913 1 109.50000 418.400000
9376 16253 10920 1 109.50000 418.400000
10913 16253 10920 1 109.50000 418.400000
1797 16254 5186 1 109.50000 418.400000
1797 16254 6339 1 109.50000 418.400000
1797 16254 10846 1 109.50000 418.400000
5186 16254 6339 1 109.50000 418.400000
5186 16254 10846 1 109.50000 418.400000
6339 16254 10846 1 109.50000 418.400000
1127 16255 7880 1 109.50000 418.400000
1127 16255 9660 1 109.50000 418.400000
1127 16255 11083 1 109.50000 418.400000
7880 16255 9660 1 109.50000 418.400000
7880 16255 11083 1 109.50000 418.400000
9660 16255 11083 1 109.50000 418.400000
731 16256 6766 1 109.50000 418.400000
731 16256 10228 1 109.50000 418.400000
731 16256 10568 1 109.50000 418.400000
6766 16256 10228 1 109.50000 418.400000
6766 16256 10568 1 109.50000 418.400000
10228 16256 10568 1 109.50000 418.400000
6150 16257 7638 1 109.50000 418.400000
6150 16257 11014 1 109.50000 418.400000
6150 16257 11311 1 109.50000 418.400000
7638 16257 11014 1 109.50000 418.400000
7638 16257 11311 1 109.50000 418.400000
11014 16257 11311 1 109.50000 418.400000
235 16258 842 1 109.50000 418.400000
235 16258 9780 1 109.50000 418.400000
235 16258 10691 1 109.50000 418.400000
842 16258 9780 1 109.50000 418.400000
842 16258 10691 1 109.50000 418.400000
9780 16258 10691 1 109.50000 418.400000
1384 16259 4385 1 109.50000 418.400000
1384 16259 5213 1 109.50000 418.400000
1384 16259 6280 1 109.50000 418.400000
4385 16259 5213 1 109.50000 418.400000
4385 16259 6280 1 109.50000 418.400000
5213 16259 6280 1 109.50000 418.400000
4969 16260 8335 1 109.50000 418.400000
4969 16260 9962 1 109.50000 418.400000
4969 16260 10653 1 109.50000 418.400000
8335 16260 9962 1 109.50000 418.400000
8335 16260 10653 1 109.50000 418.400000
9962 16260 10653 1 109.50000 418.400000
6046 16261 6381 1 109.50000 418.400000
6046 16261 9612 1 109.50000 418.400000
6046 16261 10696 1 109.50000 418.400000
6381 16261 9612 1 109.50000 418.400000
6381 16261 10696 1 109.50000 418.400000
9612 16261 10696 1 109.50000 418.400000
1230 16262 8864 1 109.50000 418.400000
1230 16262 11025 1 109.50000 418.400000
1230 16262 11045 1 109.50000 418.400000
8864 16262 11025 1 109.50000 418.400000
8864 16262 11045 1 109.50000 418.400000
11025 16262 11045 1 109.50000 418.400000
1531 16263 2481 1 109.50000 418.400000
1531 16263 8352 1 109.50000 418.400000
1531 16263 9342 1 109.50000 418.400000
2481 16263 8352 1 109.50000 418.400000
2481 16263 9342 1 109.50000 418.400000
8352 16263 9342 1 109.50000 418.400000
6992 16264 7845 1 109.50000 418.400000
6992 16264 8420 1 109.50000 418.400000
6992 16264 11084 1 109.50000 418.400000
7845 16264 8420 1 109.50000 418.400000
7845 16264 11084 1 109.50000 418.400000
8420 16264 11084 1 109.50000 418.400000
3410 16265 8170 1 109.50000 418.400000
3410 16265 8346 1 109.50000 418.400000
3410 16265 9626 1 109.50000 418.400000
8170 16265 8346 1 109.50000 418.400000
8170 16265 9626 1 109.50000 418.400000
8346 16265 9626 1 109.50000 418.400000
7244 16266 7464 1 109.50000 418.400000
7244 16266 8015 1 109.50000 418.400000
7244 16266 11085 1 109.50000 418.400000
7464 16266 8015 1 109.50000 418.400000
7464 16266 11085 1 109.50000 418.400000
8015 16266 11085 1 109.50000 418.400000
8166 16267 8434 1 109.50000 418.400000
8166 16267 8436 1 109.50000 418.400000
8166 16267 9790 1 109.50000 418.400000
8434 16267 8436 1 109.50000 418.400000
8434 16267 9790 1 109.50000 418.400000
8436 16267 9790 1 109.50000 418.400000
368 16268 369 1 109.50000 418.400000
368 16268 370 1 109.50000 418.400000
368 16268 9982 1 109.50000 418.400000
369 16268 370 1 109.50000 418.400000
369 16268 9982 1 109.50000 418.400000
370 16268 9982 1 109.50000 418.400000
1901 16269 5626 1 109.50000 418.400000
1901 16269 9931 1 109.50000 418.400000
1901 16269 10294 1 109.50000 418.400000
5626 16269 9931 1 109.50000 418.400000
5626 16269 10294 1 109.50000 418.400000
9931 16269 10294 1 109.50000 418.400000
4160 16270 4215 1 109.50000 418.400000
4160 16270 10057 1 109.50000 418.400000
4160 16270 11086 1 109.50000 418.400000
4215 16270 10057 1 109.50000 418.400000
4215 16270 11086 1 109.50000 418.400000
10057 16270 11086 1 109.50000 418.400000
1095 16271 4802 1 109.50000 418.400000
1095 16271 10726 1 109.50000 418.400000
1095 16271 10937 1 109.50000 418.400000
4802 16271 10726 1 109.50000 418.400000
4802 16271 10937 1 109.50000 418.400000
10726 16271 10937 1 109.50000 418.400000
6177 16272 8820 1 109.50000 418.400000
6177 16272 10026 1 109.50000 418.400000
6177 16272 11087 1 109.50000 418.400000
8820 16272 10026 1 109.50000 418.400000
8820 16272 11087 1 109.50000 418.400000
10026 16272 11087 1 109.50000 418.400000
5943 16273 7934 1 109.50000 418.400000
5943 16273 9268 1 109.50000 418.400000
5943 16273 9408 1 109.50000 418.400000
7934 16273 9268 1 109.50000 418.400000
7934 16273 9408 1 109.50000 418.400000
9268 16273 9408 1 109.50000 418.400000
2610 16274 4204 1 109.50000 418.400000
2610 16274 6245 1 109.50000 418.400000
2610 16274 9411 1 109.50000 418.400000
4204 16274 6245 1 109.50000 418.400000
4204 16274 9411 1 109.50000 418.400000
6245 16274 9411 1 109.50000 418.400000
3854 16275 5842 1 109.50000 418.400000
3854 16275 10170 1 109.50000 418.400000
3854 16275 10285 1 109.50000 418.400000
5842 16275 10170 1 109.50000 418.400000
5842 16275 10285 1 109.50000 418.400000
10170 16275 10285 1 109.50000 418.400000
4208 16276 8473 1 109.50000 418.400000
4208 16276 9009 1 109.50000 418.400000
4208 16276 10424 1 109.50000 418.400000
8473 16276 9009 1 109.50000 418.400000
8473 16276 10424 1 109.50000 418.400000
9009 16276 10424 1 109.50000 418.400000
7882 16277 10620 1 109.50000 418.400000
7882 16277 10851 1 109.50000 418.400000
7882 16277 11088 1 109.50000 418.400000
10620 16277 10851 1 109.50000 418.400000
10620 16277 11088 1 109.50000 418.400000
10851 16277 11088 1 109.50000 418.400000
3580 16278 7041 1 109.50000 418.400000
3580 16278 9959 1 109.50000 418.400000
3580 16278 10941 1 109.50000 418.400000
7041 16278 9959 1 109.50000 418.400000
7041 16278 10941 1 109.50000 418.400000
9959 16278 10941 1 109.50000 418.400000
9857 16279 10719 1 109.50000 418.400000
9857 16279 11089 1 109.50000 418.400000
9857 16279 11090 1 109.50000 418.400000
10719 16279 11089 1 109.50000 418.400000
10719 16279 11090 1 109.50000 418.400000
11089 16279 11090 1 109.50000 418.400000
1215 16280 3499 1 109.50000 418.400000
1215 16280 9825 1 109.50000 418.400000
1215 16280 11091 1 109.50000 418.400000
3499 16280 9825 1 109.50000 418.400000
3499 16280 11091 1 109.50000 418.400000
9825 16280 11091 1 109.50000 418.400000
1843 16281 5477 1 109.50000 418.400000
1843 16281 10823 1 109.50000 418.400000
1843 16281 11051 1 109.50000 418.400000
5477 16281 10823 1 109.50000 418.400000
5477 16281 11051 1 109.50000 418.400000
10823 16281 11051 1 109.50000 418.400000
2279 16282 3225 1 109.50000 418.400000
2279 16282 6345 1 109.50000 418.400000
2279 16282 9291 1 109.50000 418.400000
3225 16282 6345 1 109.50000 418.400000
3225 16282 9291 1 109.50000 418.400000
6345 16282 9291 1 109.50000 418.400000
4029 16283 7771 1 109.50000 418.400000
4029 16283 8373 1 109.50000 418.400000
4029 16283 10415 1 109.50000 418.400000
7771 16283 8373 1 109.50000 418.400000
7771 16283 10415 1 109.50000 418.400000
8373 16283 10415 1 109.50000 418.400000
735 16284 3185 1 109.50000 418.400000
735 16284 10191 1 109.50000 418.400000
735 16284 10393 1 109.50000 418.400000
3185 16284 10191 1 109.50000 418.400000
3185 16284 10393 1 109.50000 418.400000
10191 16284 10393 1 109.50000 418.400000
1231 16285 3418 1 109.50000 418.400000
1231 16285 11171 1 109.50000 418.400000
1231 16285 11331 1 109.50000 418.400000
3418 16285 11171 1 109.50000 418.400000
3418 16285 11331 1 109.50000 418.400000
11171 16285 11331 1 109.50000 418.400000
4668 16286 6117 1 109.50000 418.400000
4668 16286 9254 1 109.50000 418.400000
4668 16286 10898 1 109.50000 418.400000
6117 16286 9254 1 109.50000 418.400000
6117 16286 10898 1 109.50000 418.400000
9254 16286 10898 1 109.50000 418.400000
466 16287 6821 1 109.50000 418.400000
466 16287 8167 1 109.50000 418.400000
466 16287 11061 1 109.50000 418.400000
6821 16287 8167 1 109.50000 418.400000
6821 16287 11061 1 109.50000 418.400000
8167 16287 11061 1 109.50000 418.400000
1750 16288 10502 1 109.50000 418.400000
1750 16288 10574 1 109.50000 418.400000
1750 16288 10583 1 109.50000 418.400000
10502 16288 10574 1 109.50000 418.400000
10502 16288 10583 1 109.50000 418.400000
10574 16288 10583 1 109.50000 418.400000
2300 16289 7197 1 109.50000 418.400000
2300 16289 8846 1 109.50000 418.400000
2300 16289 11093 1 109.50000 418.400000
7197 16289 8846 1 109.50000 418.400000
7197 16289 11093 1 109.50000 418.400000
8846 16289 11093 1 109.50000 418.400000
412 16290 1026 1 109.50000 418.400000
412 16290 2829 1 109.50000 418.400000
412 16290 5278 1 109.50000 418.400000
1026 16290 2829 1 109.50000 418.400000
1026 16290 5278 1 109.50000 418.400000
2829 16290 5278 1 109.50000 418.400000
3052 16291 7671 1 109.50000 418.400000
3052 16291 7672 1 109.50000 418.400000
3052 16291 10366 1 109.50000 418.400000
7671 16291 7672 1 109.50000 418.400000
7671 16291 10366 1 109.50000 418.400000
7672 16291 10366 1 109.50000 418.400000
2678 16292 4864 1 109.50000 418.400000
2678 16292 8945 1 109.50000 418.400000
2678 16292 10445 1 109.50000 418.400000
4864 16292 8945 1 109.50000 418.400000
4864 16292 10445 1 109.50000 418.400000
8945 16292 10445 1 109.50000 418.400000
1227 16293 1319 1 109.50000 418.400000
1227 16293 3083 1 109.50000 418.400000
1227 16293 3653 1 109.50000 418.400000
1319 16293 3083 1 109.50000 418.400000
1319 16293 3653 1 109.50000 418.400000
3083 16293 3653 1 109.50000 418.400000
928 16294 1014 1 109.50000 418.400000
928 16294 5720 1 109.50000 418.400000
928 16294 10198 1 109.50000 418.400000
1014 16294 5720 1 109.50000 418.400000
1014 16294 10198 1 109.50000 418.400000
5720 16294 10198 1 109.50000 418.400000
6095 16295 8537 1 109.50000 418.400000
6095 16295 8854 1 109.50000 418.400000
6095 16295 9096 1 109.50000 418.400000
8537 16295 8854 1 109.50000 418.400000
8537 16295 9096 1 109.50000 418.400000
8854 16295 9096 1 109.50000 418.400000
4607 16296 6525 1 109.50000 418.400000
4607 16296 8280 1 109.50000 418.400000
4607 16296 9313 1 109.50000 418.400000
6525 16296 8280 1 109.50000 418.400000
6525 16296 9313 1 109.50000 418.400000
8280 16296 9313 1 109.50000 418.400000
6782 16297 7105 1 109.50000 418.400000
6782 16297 9420 1 109.50000 418.400000
6782 16297 10249 1 109.50000 418.400000
7105 16297 9420 1 109.50000 418.400000
7105 16297 10249 1 109.50000 418.400000
9420 16297 10249 1 109.50000 418.400000
5417 16298 7568 1 109.50000 418.400000
5417 16298 9505 1 109.50000 418.400000
5417 16298 10795 1 109.50000 418.400000
7568 16298 9505 1 109.50000 418.400000
7568 16298 10795 1 109.50000 418.400000
9505 16298 10795 1 109.50000 418.400000
9399 16299 10762 1 109.50000 418.400000
9399 16299 10818 1 109.50000 418.400000
9399 16299 10979 1 109.50000 418.400000
10762 16299 10818 1 109.50000 418.400000
10762 16299 10979 1 109.50000 418.400000
10818 16299 10979 1 109.50000 418.400000
3974 16300 4432 1 109.50000 418.400000
3974 16300 4519 1 109.50000 418.400000
3974 16300 11332 1 109.50000 418.400000
4432 16300 4519 1 109.50000 418.400000
4432 16300 11332 1 109.50000 418.400000
4519 16300 11332 1 109.50000 418.400000
7863 16301 10587 1 109.50000 418.400000
7863 16301 11241 1 109.50000 418.400000
7863 16301 11306 1 109.50000 418.400000
10587 16301 11241 1 109.50000 418.400000
10587 16301 11306 1 109.50000 418.400000
11241 16301 11306 1 109.50000 418.400000
3658 16302 5167 1 109.50000 418.400000
3658 16302 6505 1 109.50000 418.400000
3658 16302 8860 1 109.50000 418.400000
5167 16302 6505 1 109.50000 418.400000
5167 16302 8860 1 109.50000 418.400000
6505 16302 8860 1 109.50000 418.400000
1631 16303 1633 1 109.50000 418.400000
1631 16303 2956 1 109.50000 418.400000
1631 16303 11057 1 109.50000 418.400000
1633 16303 2956 1 109.50000 418.400000
1633 16303 11057 1 109.50000 418.400000
2956 16303 11057 1 109.50000 418.400000
2462 16304 8028 1 109.50000 418.400000
2462 16304 8308 1 109.50000 418.400000
2462 16304 10330 1 109.50000 418.400000
8028 16304 8308 1 109.50000 418.400000
8028 16304 10330 1 109.50000 418.400000
8308 16304 10330 1 109.50000 418.400000
2461 16305 8205 1 109.50000 418.400000
2461 16305 10562 1 109.50000 418.400000
2461 16305 11094 1 109.50000 418.400000
8205 16305 10562 1 109.50000 418.400000
8205 16305 11094 1 109.50000 418.400000
10562 16305 11094 1 109.50000 418.400000
1696 16306 2144 1 109.50000 418.400000
1696 16306 9002 1 109.50000 418.400000
1696 16306 9181 1 109.50000 418.400000
2144 16306 9002 1 109.50000 418.400000
2144 16306 9181 1 109.50000 418.400000
9002 16306 9181 1 109.50000 418.400000
3784 16307 7442 1 109.50000 418.400000
3784 16307 10533 1 109.50000 418.400000
3784 16307 10572 1 109.50000 418.400000
7442 16307 10533 1 109.50000 418.400000
7442 16307 10572 1 109.50000 418.400000
10533 16307 10572 1 109.50000 418.400000
4404 16308 5045 1 109.50000 418.400000
4404 16308 6021 1 109.50000 418.400000
4404 16308 10646 1 109.50000 418.400000
5045 16308 6021 1 109.50000 418.400000
5045 16308 10646 1 109.50000 418.400000
6021 16308 10646 1 109.50000 418.400000
6801 16309 7522 1 109.50000 418.400000
6801 16309 8845 1 109.50000 418.400000
6801 16309 10901 1 109.50000 418.400000
7522 16309 8845 1 109.50000 418.400000
7522 16309 10901 1 109.50000 418.400000
8845 16309 10901 1 109.50000 418.400000
544 16310 9461 1 109.50000 418.400000
544 16310 10877 1 109.50000 418.400000
544 16310 11002 1 109.50000 418.400000
9461 16310 10877 1 109.50000 418.400000
9461 16310 11002 1 109.50000 418.400000
10877 16310 11002 1 109.50000 418.400000
1190 16311 9058 1 109.50000 418.400000
1190 16311 10589 1 109.50000 418.400000
1190 16311 10983 1 109.50000 418.400000
9058 16311 10589 1 109.50000 418.400000
9058 16311 10983 1 109.50000 418.400000
10589 16311 10983 1 109.50000 418.400000
6182 16312 6886 1 109.50000 418.400000
6182 16312 10288 1 109.50000 418.400000
6182 16312 10791 1 109.50000 418.400000
6886 16312 10288 1 109.50000 418.400000
6886 16312 10791 1 109.50000 418.400000
10288 16312 10791 1 109.50000 418.400000
7229 16313 7784 1 109.50000 418.400000
7229 16313 9589 1 109.50000 418.400000
7229 16313 11095 1 109.50000 418.400000
7784 16313 9589 1 109.50000 418.400000
7784 16313 11095 1 109.50000 418.400000
9589 16313 11095 1 109.50000 418.400000
2384 16314 9588 1 109.50000 418.400000
2384 16314 10580 1 109.50000 418.400000
2384 16314 11086 1 109.50000 418.400000
9588 16314 10580 1 109.50000 418.400000
9588 16314 11086 1 109.50000 418.400000
10580 16314 11086 1 109.50000 418.400000
2104 16315 5823 1 109.50000 418.400000
2104 16315 8139 1 109.50000 418.400000
2104 16315 9831 1 109.50000 418.400000
5823 16315 8139 1 109.50000 418.400000
5823 16315 9831 1 109.50000 418.400000
8139 16315 9831 1 109.50000 418.400000
2157 16316 2435 1 109.50000 418.400000
2157 16316 3800 1 109.50000 418.400000
2157 16316 5721 1 109.50000 418.400000
2435 16316 3800 1 109.50000 418.400000
2435 16316 5721 1 109.50000 418.400000
3800 16316 5721 1 109.50000 418.400000
2868 16317 4881 1 109.50000 418.400000
2868 16317 5560 1 109.50000 418.400000
2868 16317 7631 1 109.50000 418.400000
4881 16317 5560 1 109.50000 418.400000
4881 16317 7631 1 109.50000 418.400000
5560 16317 7631 1 109.50000 418.400000
1355 16318 7690 1 109.50000 418.400000
1355 16318 8314 1 109.50000 418.400000
1355 16318 11096 1 109.50000 418.400000
7690 16318 8314 1 109.50000 418.400000
7690 16318 11096 1 109.50000 418.400000
8314 16318 11096 1 109.50000 418.400000
1165 16319 3860 1 109.50000 418.400000
1165 16319 9135 1 109.50000 418.400000
1165 16319 10637 1 109.50000 418.400000
3860 16319 9135 1 109.50000 418.400000
3860 16319 10637 1 109.50000 418.400000
9135 16319 10637 1 109.50000 418.400000
8311 16320 9474 1 109.50000 418.400000
8311 16320 10990 1 109.50000 418.400000
8311 16320 11011 1 109.50000 418.400000
9474 16320 10990 1 109.50000 418.400000
9474 16320 11011 1 109.50000 418.400000
10990 16320 11011 1 109.50000 418.400000
6748 16321 6775 1 109.50000 418.400000
6748 16321 8432 1 109.50000 418.400000
6748 16321 9231 1 109.50000 418.400000
6775 16321 8432 1 109.50000 418.400000
6775 16321 9231 1 109.50000 418.400000
8432 16321 9231 1 109.50000 418.400000
590 16322 3761 1 109.50000 418.400000
590 16322 8966 1 109.50000 418.400000
590 16322 10235 1 109.50000 418.400000
3761 16322 8966 1 109.50000 418.400000
3761 16322 10235 1 109.50000 418.400000
8966 16322 10235 1 109.50000 418.400000
72 16323 5126 1 109.50000 418.400000
72 16323 8720 1 109.50000 418.400000
72 16323 11034 1 109.50000 418.400000
5126 16323 8720 1 109.50000 418.400000
5126 16323 11034 1 109.50000 418.400000
8720 16323 11034 1 109.50000 418.400000
3362 16324 6823 1 109.50000 418.400000
3362 16324 8429 1 109.50000 418.400000
3362 16324 8431 1 109.50000 418.400000
6823 16324 8429 1 109.50000 418.400000
6823 16324 8431 1 109.50000 418.400000
8429 16324 8431 1 109.50000 418.400000
3576 16325 4257 1 109.50000 418.400000
3576 16325 6043 1 109.50000 418.400000
3576 16325 10845 1 109.50000 418.400000
4257 16325 6043 1 109.50000 418.400000
4257 16325 10845 1 109.50000 418.400000
6043 16325 10845 1 109.50000 418.400000
2155 16326 7531 1 109.50000 418.400000
2155 16326 7592 1 109.50000 418.400000
2155 16326 10615 1 109.50000 418.400000
7531 16326 7592 1 109.50000 418.400000
7531 16326 10615 1 109.50000 418.400000
7592 16326 10615 1 109.50000 418.400000
4682 16327 6393 1 109.50000 418.400000
4682 16327 6866 1 109.50000 418.400000
4682 16327 10754 1 109.50000 418.400000
6393 16327 6866 1 109.50000 418.400000
6393 16327 10754 1 109.50000 418.400000
6866 16327 10754 1 109.50000 418.400000
4718 16328 6260 1 109.50000 418.400000
4718 16328 6805 1 109.50000 418.400000
4718 16328 10922 1 109.50000 418.400000
6260 16328 6805 1 109.50000 418.400000
6260 16328 10922 1 109.50000 418.400000
6805 16328 10922 1 109.50000 418.400000
1442 16329 8676 1 109.50000 418.400000
1442 16329 10967 1 109.50000 418.400000
1442 16329 10997 1 109.50000 418.400000
8676 16329 10967 1 109.50000 418.400000
8676 16329 10997 1 109.50000 418.400000
10967 16329 10997 1 109.50000 418.400000
7551 16330 8520 1 109.50000 418.400000
7551 16330 11148 1 109.50000 418.400000
7551 16330 11317 1 109.50000 418.400000
8520 16330 11148 1 109.50000 418.400000
8520 16330 11317 1 109.50000 418.400000
11148 16330 11317 1 109.50000 418.400000
3066 16331 5551 1 109.50000 418.400000
3066 16331 8013 1 109.50000 418.400000
3066 16331 9808 1 109.50000 418.400000
5551 16331 8013 1 109.50000 418.400000
5551 16331 9808 1 109.50000 418.400000
8013 16331 9808 1 109.50000 418.400000
7338 16332 8532 1 109.50000 418.400000
7338 16332 9895 1 109.50000 418.400000
7338 16332 11098 1 109.50000 418.400000
8532 16332 9895 1 109.50000 418.400000
8532 16332 11098 1 109.50000 418.400000
9895 16332 11098 1 109.50000 418.400000
525 16333 969 1 109.50000 418.400000
525 16333 5525 1 109.50000 418.400000
525 16333 6559 1 109.50000 418.400000
969 16333 5525 1 109.50000 418.400000
969 16333 6559 1 109.50000 418.400000
5525 16333 6559 1 109.50000 418.400000
5012 16334 5013 1 109.50000 418.400000
5012 16334 7621 1 109.50000 418.400000
5012 16334 7828 1 109.50000 418.400000
5013 16334 7621 1 109.50000 418.400000
5013 16334 7828 1 109.50000 418.400000
7621 16334 7828 1 109.50000 418.400000
7192 16335 8326 1 109.50000 418.400000
7192 16335 10650 1 109.50000 418.400000
7192 16335 10716 1 109.50000 418.400000
8326 16335 10650 1 109.50000 418.400000
8326 16335 10716 1 109.50000 418.400000
10650 16335 10716 1 109.50000 418.400000
2950 16336 5643 1 109.50000 418.400000
2950 16336 10980 1 109.50000 418.400000
2950 16336 10981 1 109.50000 418.400000
5643 16336 10980 1 109.50000 418.400000
5643 16336 10981 1 109.50000 418.400000
10980 16336 10981 1 109.50000 418.400000
2694 16337 7097 1 109.50000 418.400000
2694 16337 9966 1 109.50000 418.400000
2694 16337 11041 1 109.50000 418.400000
7097 16337 9966 1 109.50000 418.400000
7097 16337 11041 1 109.50000 418.400000
9966 16337 11041 1 109.50000 418.400000
978 16338 2313 1 109.50000 418.400000
978 16338 4530 1 109.50000 418.400000
978 16338 11176 1 109.50000 418.400000
2313 16338 4530 1 109.50000 418.400000
2313 16338 11176 1 109.50000 418.400000
4530 16338 11176 1 109.50000 418.400000
862 16339 1274 1 109.50000 418.400000
862 16339 1914 1 109.50000 418.400000
862 16339 10577 1 109.50000 418.400000
1274 16339 1914 1 109.50000 418.400000
1274 16339 10577 1 109.50000 418.400000
1914 16339 10577 1 109.50000 418.400000
1780 16340 3555 1 109.50000 418.400000
1780 16340 8772 1 109.50000 418.400000
1780 16340 8940 1 109.50000 418.400000
3555 16340 8772 1 109.50000 418.400000
3555 16340 8940 1 109.50000 418.400000
8772 16340 8940 1 109.50000 418.400000
1348 16341 1459 1 109.50000 418.400000
1348 16341 4992 1 109.50000 418.400000
1348 16341 8734 1 109.50000 418.400000
1459 16341 4992 1 109.50000 418.400000
1459 16341 8734 1 109.50000 418.400000
4992 16341 8734 1 109.50000 418.400000
4911 16342 4948 1 109.50000 418.400000
4911 16342 6213 1 109.50000 418.400000
4911 16342 7216 1 109.50000 418.400000
4948 16342 6213 1 109.50000 418.400000
4948 16342 7216 1 109.50000 418.400000
6213 16342 7216 1 109.50000 418.400000
1562 16343 7902 1 109.50000 418.400000
1562 16343 8187 1 109.50000 418.400000
1562 16343 11099 1 109.50000 418.400000
7902 16343 8187 1 109.50000 418.400000
7902 16343 11099 1 109.50000 418.400000
8187 16343 11099 1 109.50000 418.400000
212 16344 1875 1 109.50000 418.400000
212 16344 10098 1 109.50000 418.400000
212 16344 11100 1 109.50000 418.400000
1875 16344 10098 1 109.50000 418.400000
1875 16344 11100 1 109.50000 418.400000
10098 16344 11100 1 109.50000 418.400000
481 16345 7280 1 109.50000 418.400000
481 16345 9238 1 109.50000 418.400000
481 16345 10557 1 109.50000 418.400000
7280 16345 9238 1 109.50000 418.400000
7280 16345 10557 1 109.50000 418.400000
9238 16345 10557 1 109.50000 418.400000
3413 16346 7957 1 109.50000 418.400000
3413 16346 11101 1 109.50000 418.400000
3413 16346 11102 1 109.50000 418.400000
7957 16346 11101 1 109.50000 418.400000
7957 16346 11102 1 109.50000 418.400000
11101 16346 11102 1 109.50000 418.400000
355 16347 3513 1 109.50000 418.400000
355 16347 3829 1 109.50000 418.400000
355 16347 11103 1 109.50000 418.400000
3513 16347 3829 1 109.50000 418.400000
3513 16347 11103 1 109.50000 418.400000
3829 16347 11103 1 109.50000 418.400000
7951 16348 8929 1 109.50000 418.400000
7951 16348 11074 1 109.50000 418.400000
7951 16348 11104 1 109.50000 418.400000
8929 16348 11074 1 109.50000 418.400000
8929 16348 11104 1 109.50000 418.400000
11074 16348 11104 1 109.50000 418.400000
2193 16349 4831 1 109.50000 418.400000
2193 16349 8666 1 109.50000 418.400000
2193 16349 8826 1 109.50000 418.400000
4831 16349 8666 1 109.50000 418.400000
4831 16349 8826 1 109.50000 418.400000
8666 16349 8826 1 109.50000 418.400000
1928 16350 6167 1 109.50000 418.400000
1928 16350 7245 1 109.50000 418.400000
1928 16350 11105 1 109.50000 418.400000
6167 16350 7245 1 109.50000 418.400000
6167 16350 11105 1 109.50000 418.400000
7245 16350 11105 1 109.50000 418.400000
790 16351 8671 1 109.50000 418.400000
790 16351 8984 1 109.50000 418.400000
790 16351 11106 1 109.50000 418.400000
8671 16351 8984 1 109.50000 418.400000
8671 16351 11106 1 109.50000 418.400000
8984 16351 11106 1 109.50000 418.400000
3587 16352 4365 1 109.50000 418.400000
3587 16352 6308 1 109.50000 418.400000
3587 16352 7463 1 109.50000 418.400000
4365 16352 6308 1 109.50000 418.400000
4365 16352 7463 1 109.50000 418.400000
6308 16352 7463 1 109.50000 418.400000
197 16353 9584 1 109.50000 418.400000
197 16353 10623 1 109.50000 418.400000
197 16353 11107 1 109.50000 418.400000
9584 16353 10623 1 109.50000 418.400000
9584 16353 11107 1 109.50000 418.400000
10623 16353 11107 1 109.50000 418.400000
2271 16354 6811 1 109.50000 418.400000
2271 16354 10117 1 109.50000 418.400000
2271 16354 10628 1 109.50000 418.400000
6811 16354 10117 1 109.50000 418.400000
6811 16354 10628 1 109.50000 418.400000
10117 16354 10628 1 109.50000 418.400000
5057 16355 6019 1 109.50000 418.400000
5057 16355 6189 1 109.50000 418.400000
5057 16355 8900 1 109.50000 418.400000
6019 16355 6189 1 109.50000 418.400000
6019 16355 8900 1 109.50000 418.400000
6189 16355 8900 1 109.50000 418.400000
5059 16356 8895 1 109.50000 418.400000
5059 16356 10077 1 109.50000 418.400000
5059 16356 11073 1 109.50000 418.400000
8895 16356 10077 1 109.50000 418.400000
8895 16356 11073 1 109.50000 418.400000
10077 16356 11073 1 109.50000 418.400000
223 16357 6437 1 109.50000 418.400000
223 16357 9978 1 109.50000 418.400000
223 16357 10023 1 109.50000 418.400000
6437 16357 9978 1 109.50000 418.400000
6437 16357 10023 1 109.50000 418.400000
9978 16357 10023 1 109.50000 418.400000
7909 16358 10821 1 109.50000 418.400000
7909 16358 11237 1 109.50000 418.400000
7909 16358 11319 1 109.50000 418.400000
10821 16358 11237 1 109.50000 418.400000
10821 16358 11319 1 109.50000 418.400000
11237 16358 11319 1 109.50000 418.400000
8867 16359 10043 1 109.50000 418.400000
8867 16359 10954 1 109.50000 418.400000
8867 16359 11304 1 109.50000 418.400000
10043 16359 10954 1 109.50000 418.400000
10043 16359 11304 1 109.50000 418.400000
10954 16359 11304 1 109.50000 418.400000
4125 16360 10512 1 109.50000 418.400000
4125 16360 10992 1 109.50000 418.400000
4125 16360 11083 1 109.50000 418.400000
10512 16360 10992 1 109.50000 418.400000
10512 16360 11083 1 109.50000 418.400000
10992 16360 11083 1 109.50000 418.400000
4021 16361 6994 1 109.50000 418.400000
4021 16361 8603 1 109.50000 418.400000
4021 16361 11108 1 109.50000 418.400000
6994 16361 8603 1 109.50000 418.400000
6994 16361 11108 1 109.50000 418.400000
8603 16361 11108 1 109.50000 418.400000
4027 16362 4145 1 109.50000 418.400000
4027 16362 10684 1 109.50000 418.400000
4027 16362 11107 1 109.50000 418.400000
4145 16362 10684 1 109.50000 418.400000
4145 16362 11107 1 109.50000 418.400000
10684 16362 11107 1 109.50000 418.400000
934 16363 1361 1 109.50000 418.400000
934 16363 8687 1 109.50000 418.400000
934 16363 9354 1 109.50000 418.400000
1361 16363 8687 1 109.50000 418.400000
1361 16363 9354 1 109.50000 418.400000
8687 16363 9354 1 109.50000 418.400000
1446 16364 8380 1 109.50000 418.400000
1446 16364 11021 1 109.50000 418.400000
1446 16364 11098 1 109.50000 418.400000
8380 16364 11021 1 109.50000 418.400000
8380 16364 11098 1 109.50000 418.400000
11021 16364 11098 1 109.50000 418.400000
1920 16365 8426 1 109.50000 418.400000
1920 16365 8427 1 109.50000 418.400000
1920 16365 8428 1 109.50000 418.400000
8426 16365 8427 1 109.50000 418.400000
8426 16365 8428 1 109.50000 418.400000
8427 16365 8428 1 109.50000 418.400000
2710 16366 4978 1 109.50000 418.400000
2710 16366 6332 1 109.50000 418.400000
2710 16366 11104 1 109.50000 418.400000
4978 16366 6332 1 109.50000 418.400000
4978 16366 11104 1 109.50000 418.400000
6332 16366 11104 1 109.50000 418.400000
459 16367 817 1 109.50000 418.400000
459 16367 8365 1 109.50000 418.400000
459 16367 10833 1 109.50000 418.400000
817 16367 8365 1 109.50000 418.400000
817 16367 10833 1 109.50000 418.400000
8365 16367 10833 1 109.50000 418.400000
1415 16368 7911 1 109.50000 418.400000
1415 16368 10264 1 109.50000 418.400000
1415 16368 11109 1 109.50000 418.400000
7911 16368 10264 1 109.50000 418.400000
7911 16368 11109 1 109.50000 418.400000
10264 16368 11109 1 109.50000 418.400000
9100 16369 9146 1 109.50000 418.400000
9100 16369 9960 1 109.50000 418.400000
9100 16369 11046 1 109.50000 418.400000
9146 16369 9960 1 109.50000 418.400000
9146 16369 11046 1 109.50000 418.400000
9960 16369 11046 1 109.50000 418.400000
5919 16370 9644 1 109.50000 418.400000
5919 16370 11042 1 109.50000 418.400000
5919 16370 11110 1 109.50000 418.400000
9644 16370 11042 1 109.50000 418.400000
9644 16370 11110 1 109.50000 418.400000
11042 16370 11110 1 109.50000 418.400000
2194 16371 2195 1 109.50000 418.400000
2194 16371 7368 1 109.50000 418.400000
2194 16371 10609 1 109.50000 418.400000
2195 16371 7368 1 109.50000 418.400000
2195 16371 10609 1 109.50000 418.400000
7368 16371 10609 1 109.50000 418.400000
5995 16372 8663 1 109.50000 418.400000
5995 16372 10394 1 109.50000 418.400000
5995 16372 10892 1 109.50000 418.400000
8663 16372 10394 1 109.50000 418.400000
8663 16372 10892 1 109.50000 418.400000
10394 16372 10892 1 109.50000 418.400000
6575 16373 8460 1 109.50000 418.400000
6575 16373 8461 1 109.50000 418.400000
6575 16373 10172 1 109.50000 418.400000
8460 16373 8461 1 109.50000 418.400000
8460 16373 10172 1 109.50000 418.400000
8461 16373 10172 1 109.50000 418.400000
4195 16374 4251 1 109.50000 418.400000
4195 16374 5222 1 109.50000 418.400000
4195 16374 10910 1 109.50000 418.400000
4251 16374 5222 1 109.50000 418.400000
4251 16374 10910 1 109.50000 418.400000
5222 16374 10910 1 109.50000 418.400000
1113 16375 1114 1 109.50000 418.400000
1113 16375 1314 1 109.50000 418.400000
1113 16375 6693 1 109.50000 418.400000
1114 16375 1314 1 109.50000 418.400000
1114 16375 6693 1 109.50000 418.400000
1314 16375 6693 1 109.50000 418.400000
2557 16376 2928 1 109.50000 418.400000
2557 16376 6921 1 109.50000 418.400000
2557 16376 10942 1 109.50000 418.400000
2928 16376 6921 1 109.50000 418.400000
2928 16376 10942 1 109.50000 418.400000
6921 16376 10942 1 109.50000 418.400000
10707 16377 10844 1 109.50000 418.400000
10707 16377 11027 1 109.50000 418.400000
10707 16377 11111 1 109.50000 418.400000
10844 16377 11027 1 109.50000 418.400000
10844 16377 11111 1 109.50000 418.400000
11027 16377 11111 1 109.50000 418.400000
4916 16378 7700 1 109.50000 418.400000
4916 16378 9309 1 109.50000 418.400000
4916 16378 11103 1 109.50000 418.400000
7700 16378 9309 1 109.50000 418.400000
7700 16378 11103 1 109.50000 418.400000
9309 16378 11103 1 109.50000 418.400000
3110 16379 7832 1 109.50000 418.400000
3110 16379 8559 1 109.50000 418.400000
3110 16379 10610 1 109.50000 418.400000
7832 16379 8559 1 109.50000 418.400000
7832 16379 10610 1 109.50000 418.400000
8559 16379 10610 1 109.50000 418.400000
3162 16380 5481 1 109.50000 418.400000
3162 16380 6512 1 109.50000 418.400000
3162 16380 7360 1 109.50000 418.400000
5481 16380 6512 1 109.50000 418.400000
5481 16380 7360 1 109.50000 418.400000
6512 16380 7360 1 109.50000 418.400000
227 16381 4639 1 109.50000 418.400000
227 16381 4910 1 109.50000 418.400000
227 16381 11001 1 109.50000 418.400000
4639 16381 4910 1 109.50000 418.400000
4639 16381 11001 1 109.50000 418.400000
4910 16381 11001 1 109.50000 418.400000
10542 16382 10706 1 109.50000 418.400000
10542 16382 11067 1 109.50000 418.400000
10542 16382 11112 1 109.50000 418.400000
10706 16382 11067 1 109.50000 418.400000
10706 16382 11112 1 109.50000 418.400000
11067 16382 11112 1 109.50000 418.400000
3676 16383 10932 1 109.50000 418.400000
3676 16383 11092 1 109.50000 418.400000
3676 16383 11113 1 109.50000 418.400000
10932 16383 11092 1 109.50000 418.400000
10932 16383 11113 1 109.50000 418.400000
11092 16383 11113 1 109.50000 418.400000
7583 16384 9243 1 109.50000 418.400000
7583 16384 10525 1 109.50000 418.400000
7583 16384 11114 1 109.50000 418.400000
9243 16384 10525 1 109.50000 418.400000
9243 16384 11114 1 109.50000 418.400000
10525 16384 11114 1 109.50000 418.400000
6776 16385 7030 1 109.50000 418.400000
6776 16385 10284 1 109.50000 418.400000
6776 16385 11030 1 109.50000 418.400000
7030 16385 10284 1 109.50000 418.400000
7030 16385 11030 1 109.50000 418.400000
10284 16385 11030 1 109.50000 418.400000
3557 16386 4786 1 109.50000 418.400000
3557 16386 5423 1 109.50000 418.400000
3557 16386 5869 1 109.50000 418.400000
4786 16386 5423 1 109.50000 418.400000
4786 16386 5869 1 109.50000 418.400000
5423 16386 5869 1 109.50000 418.400000
4531 16387 6578 1 109.50000 418.400000
4531 16387 7072 1 109.50000 418.400000
4531 16387 11106 1 109.50000 418.400000
6578 16387 7072 1 109.50000 418.400000
6578 16387 11106 1 109.50000 418.400000
7072 16387 11106 1 109.50000 418.400000
863 16388 2511 1 109.50000 418.400000
863 16388 9891 1 109.50000 418.400000
863 16388 11060 1 109.50000 418.400000
2511 16388 9891 1 109.50000 418.400000
2511 16388 11060 1 109.50000 418.400000
9891 16388 11060 1 109.50000 418.400000
527 16389 9008 1 109.50000 418.400000
527 16389 10986 1 109.50000 418.400000
527 16389 11026 1 109.50000 418.400000
9008 16389 10986 1 109.50000 418.400000
9008 16389 11026 1 109.50000 418.400000
10986 16389 11026 1 109.50000 418.400000
2520 16390 8218 1 109.50000 418.400000
2520 16390 8931 1 109.50000 418.400000
2520 16390 9387 1 109.50000 418.400000
8218 16390 8931 1 109.50000 418.400000
8218 16390 9387 1 109.50000 418.400000
8931 16390 9387 1 109.50000 418.400000
5324 16391 7154 1 109.50000 418.400000
5324 16391 8979 1 109.50000 418.400000
5324 16391 10556 1 109.50000 418.400000
7154 16391 8979 1 109.50000 418.400000
7154 16391 10556 1 109.50000 418.400000
8979 16391 10556 1 109.50000 418.400000
5819 16392 8576 1 109.50000 418.400000
5819 16392 10065 1 109.50000 418.400000
5819 16392 11115 1 109.50000 418.400000
8576 16392 10065 1 109.50000 418.400000
8576 16392 11115 1 109.50000 418.400000
10065 16392 11115 1 109.50000 418.400000
6698 16393 11049 1 109.50000 418.400000
6698 16393 11116 1 109.50000 418.400000
6698 16393 11252 1 109.50000 418.400000
11049 16393 11116 1 109.50000 418.400000
11049 16393 11252 1 109.50000 418.400000
11116 16393 11252 1 109.50000 418.400000
1818 16394 2863 1 109.50000 418.400000
1818 16394 3073 1 109.50000 418.400000
1818 16394 10891 1 109.50000 418.400000
2863 16394 3073 1 109.50000 418.400000
2863 16394 10891 1 109.50000 418.400000
3073 16394 10891 1 109.50000 418.400000
5332 16395 9586 1 109.50000 418.400000
5332 16395 10788 1 109.50000 418.400000
5332 16395 11063 1 109.50000 418.400000
9586 16395 10788 1 109.50000 418.400000
9586 16395 11063 1 109.50000 418.400000
10788 16395 11063 1 109.50000 418.400000
997 16396 4485 1 109.50000 418.400000
997 16396 8556 1 109.50000 418.400000
997 16396 10225 1 109.50000 418.400000
4485 16396 8556 1 109.50000 418.400000
4485 16396 10225 1 109.50000 418.400000
8556 16396 10225 1 109.50000 418.400000
2711 16397 4976 1 109.50000 418.400000
2711 16397 9912 1 109.50000 418.400000
2711 16397 11117 1 109.50000 418.400000
4976 16397 9912 1 109.50000 418.400000
4976 16397 11117 1 109.50000 418.400000
9912 16397 11117 1 109.50000 418.400000
572 16398 1188 1 109.50000 418.400000
572 16398 8563 1 109.50000 418.400000
572 16398 10972 1 109.50000 418.400000
1188 16398 8563 1 109.50000 418.400000
1188 16398 10972 1 109.50000 418.400000
8563 16398 10972 1 109.50000 418.400000
680 16399 1538 1 109.50000 418.400000
680 16399 6543 1 109.50000 418.400000
680 16399 8073 1 109.50000 418.400000
1538 16399 6543 1 109.50000 418.400000
1538 16399 8073 1 109.50000 418.400000
6543 16399 8073 1 109.50000 418.400000
1651 16400 8398 1 109.50000 418.400000
1651 16400 8564 1 109.50000 418.400000
1651 16400 11069 1 109.50000 418.400000
8398 16400 8564 1 109.50000 418.400000
8398 16400 11069 1 109.50000 418.400000
8564 16400 11069 1 109.50000 418.400000
4549 16401 6861 1 109.50000 418.400000
4549 16401 8819 1 109.50000 418.400000
4549 16401 11093 1 109.50000 418.400000
6861 16401 8819 1 109.50000 418.400000
6861 16401 11093 1 109.50000 418.400000
8819 16401 11093 1 109.50000 418.400000
3694 16402 4683 1 109.50000 418.400000
3694 16402 8517 1 109.50000 418.400000
3694 16402 11118 1 109.50000 418.400000
4683 16402 8517 1 109.50000 418.400000
4683 16402 11118 1 109.50000 418.400000
8517 16402 11118 1 109.50000 418.400000
2150 16403 3626 1 109.50000 418.400000
2150 16403 11110 1 109.50000 418.400000
2150 16403 11322 1 109.50000 418.400000
3626 16403 11110 1 109.50000 418.400000
3626 16403 11322 1 109.50000 418.400000
11110 16403 11322 1 109.50000 418.400000
8240 16404 8242 1 109.50000 418.400000
8240 16404 9782 1 109.50000 418.400000
8240 16404 10044 1 109.50000 418.400000
8242 16404 9782 1 109.50000 418.400000
8242 16404 10044 1 109.50000 418.400000
9782 16404 10044 1 109.50000 418.400000
1108 16405 2925 1 109.50000 418.400000
1108 16405 6072 1 109.50000 418.400000
1108 16405 6322 1 109.50000 418.400000
2925 16405 6072 1 109.50000 418.400000
2925 16405 6322 1 109.50000 418.400000
6072 16405 6322 1 109.50000 418.400000
2951 16406 2952 1 109.50000 418.400000
2951 16406 2953 1 109.50000 418.400000
2951 16406 2954 1 109.50000 418.400000
2952 16406 2953 1 109.50000 418.400000
2952 16406 2954 1 109.50000 418.400000
2953 16406 2954 1 109.50000 418.400000
8605 16407 8693 1 109.50000 418.400000
8605 16407 9171 1 109.50000 418.400000
8605 16407 11119 1 109.50000 418.400000
8693 16407 9171 1 109.50000 418.400000
8693 16407 11119 1 109.50000 418.400000
9171 16407 11119 1 109.50000 418.400000
5103 16408 10078 1 109.50000 418.400000
5103 16408 11102 1 109.50000 418.400000
5103 16408 11120 1 109.50000 418.400000
10078 16408 11102 1 109.50000 418.400000
10078 16408 11120 1 109.50000 418.400000
11102 16408 11120 1 109.50000 418.400000
1726 16409 2981 1 109.50000 418.400000
1726 16409 7778 1 109.50000 418.400000
1726 16409 10651 1 109.50000 418.400000
2981 16409 7778 1 109.50000 418.400000
2981 16409 10651 1 109.50000 418.400000
7778 16409 10651 1 109.50000 418.400000
5500 16410 7929 1 109.50000 418.400000
5500 16410 9783 1 109.50000 418.400000
5500 16410 10914 1 109.50000 418.400000
7929 16410 9783 1 109.50000 418.400000
7929 16410 10914 1 109.50000 418.400000
9783 16410 10914 1 109.50000 418.400000
29 16411 782 1 109.50000 418.400000
29 16411 11070 1 109.50000 418.400000
29 16411 11121 1 109.50000 418.400000
782 16411 11070 1 109.50000 418.400000
782 16411 11121 1 109.50000 418.400000
11070 16411 11121 1 109.50000 418.400000
3027 16412 6288 1 109.50000 418.400000
3027 16412 9017 1 109.50000 418.400000
3027 16412 10363 1 109.50000 418.400000
6288 16412 9017 1 109.50000 418.400000
6288 16412 10363 1 109.50000 418.400000
9017 16412 10363 1 109.50000 418.400000
5839 16413 5840 1 109.50000 418.400000
5839 16413 5841 1 109.50000 418.400000
5839 16413 5842 1 109.50000 418.400000
5840 16413 5841 1 109.50000 418.400000
5840 16413 5842 1 109.50000 418.400000
5841 16413 5842 1 109.50000 418.400000
7782 16414 10299 1 109.50000 418.400000
7782 16414 10420 1 109.50000 418.400000
7782 16414 10872 1 109.50000 418.400000
10299 16414 10420 1 109.50000 418.400000
10299 16414 10872 1 109.50000 418.400000
10420 16414 10872 1 109.50000 418.400000
989 16415 3441 1 109.50000 418.400000
989 16415 4555 1 109.50000 418.400000
989 16415 11005 1 109.50000 418.400000
3441 16415 4555 1 109.50000 418.400000
3441 16415 11005 1 109.50000 418.400000
4555 16415 11005 1 109.50000 418.400000
4452 16416 8927 1 109.50000 418.400000
4452 16416 10776 1 109.50000 418.400000
4452 16416 11225 1 109.50000 418.400000
8927 16416 10776 1 109.50000 418.400000
8927 16416 11225 1 109.50000 418.400000
10776 16416 11225 1 109.50000 418.400000
1706 16417 2034 1 109.50000 418.400000
1706 16417 3366 1 109.50000 418.400000
1706 16417 8133 1 109.50000 418.400000
2034 16417 3366 1 109.50000 418.400000
2034 16417 8133 1 109.50000 418.400000
3366 16417 8133 1 109.50000 418.400000
3198 16418 8534 1 109.50000 418.400000
3198 16418 9524 1 109.50000 418.400000
3198 16418 9845 1 109.50000 418.400000
8534 16418 9524 1 109.50000 418.400000
8534 16418 9845 1 109.50000 418.400000
9524 16418 9845 1 109.50000 418.400000
1146 16419 2648 1 109.50000 418.400000
1146 16419 2649 1 109.50000 418.400000
1146 16419 5400 1 109.50000 418.400000
2648 16419 2649 1 109.50000 418.400000
2648 16419 5400 1 109.50000 418.400000
2649 16419 5400 1 109.50000 418.400000
825 16420 826 1 109.50000 418.400000
825 16420 8046 1 109.50000 418.400000
825 16420 8595 1 109.50000 418.400000
826 16420 8046 1 109.50000 418.400000
826 16420 8595 1 109.50000 418.400000
8046 16420 8595 1 109.50000 418.400000
3697 16421 5445 1 109.50000 418.400000
3697 16421 5931 1 109.50000 418.400000
3697 16421 9762 1 109.50000 418.400000
5445 16421 5931 1 109.50000 418.400000
5445 16421 9762 1 109.50000 418.400000
5931 16421 9762 1 109.50000 418.400000
6290 16422 6374 1 109.50000 418.400000
6290 16422 7955 1 109.50000 418.400000
6290 16422 8488 1 109.50000 418.400000
6374 16422 7955 1 109.50000 418.400000
6374 16422 8488 1 109.50000 418.400000
7955 16422 8488 1 109.50000 418.400000
6268 16423 8904 1 109.50000 418.400000
6268 16423 10127 1 109.50000 418.400000
6268 16423 11109 1 109.50000 418.400000
8904 16423 10127 1 109.50000 418.400000
8904 16423 11109 1 109.50000 418.400000
10127 16423 11109 1 109.50000 418.400000
1596 16424 3116 1 109.50000 418.400000
1596 16424 7715 1 109.50000 418.400000
1596 16424 8738 1 109.50000 418.400000
3116 16424 7715 1 109.50000 418.400000
3116 16424 8738 1 109.50000 418.400000
7715 16424 8738 1 109.50000 418.400000
419 16425 1168 1 109.50000 418.400000
419 16425 4116 1 109.50000 418.400000
419 16425 9673 1 109.50000 418.400000
1168 16425 4116 1 109.50000 418.400000
1168 16425 9673 1 109.50000 418.400000
4116 16425 9673 1 109.50000 418.400000
5496 16426 7539 1 109.50000 418.400000
5496 16426 9565 1 109.50000 418.400000
5496 16426 11013 1 109.50000 418.400000
7539 16426 9565 1 109.50000 418.400000
7539 16426 11013 1 109.50000 418.400000
9565 16426 11013 1 109.50000 418.400000
920 16427 8578 1 109.50000 418.400000
920 16427 11055 1 109.50000 418.400000
920 16427 11122 1 109.50000 418.400000
8578 16427 11055 1 109.50000 418.400000
8578 16427 11122 1 109.50000 418.400000
11055 16427 11122 1 109.50000 418.400000
1458 16428 5012 1 109.50000 418.400000
1458 16428 10734 1 109.50000 418.400000
1458 16428 11076 1 109.50000 418.400000
5012 16428 10734 1 109.50000 418.400000
5012 16428 11076 1 109.50000 418.400000
10734 16428 11076 1 109.50000 418.400000
2538 16429 6352 1 109.50000 418.400000
2538 16429 6530 1 109.50000 418.400000
2538 16429 7018 1 109.50000 418.400000
6352 16429 6530 1 109.50000 418.400000
6352 16429 7018 1 109.50000 418.400000
6530 16429 7018 1 109.50000 418.400000
1966 16430 3814 1 109.50000 418.400000
1966 16430 10103 1 109.50000 418.400000
1966 16430 11123 1 109.50000 418.400000
3814 16430 10103 1 109.50000 418.400000
3814 16430 11123 1 109.50000 418.400000
10103 16430 11123 1 109.50000 418.400000
2098 16431 2099 1 109.50000 418.400000
2098 16431 5776 1 109.50000 418.400000
2098 16431 10419 1 109.50000 418.400000
2099 16431 5776 1 109.50000 418.400000
2099 16431 10419 1 109.50000 418.400000
5776 16431 10419 1 109.50000 418.400000
3062 16432 5161 1 109.50000 418.400000
3062 16432 5162 1 109.50000 418.400000
3062 16432 10984 1 109.50000 418.400000
5161 16432 5162 1 109.50000 418.400000
5161 16432 10984 1 109.50000 418.400000
5162 16432 10984 1 109.50000 418.400000
4205 16433 7226 1 109.50000 418.400000
4205 16433 9368 1 109.50000 418.400000
4205 16433 11010 1 109.50000 418.400000
7226 16433 9368 1 109.50000 418.400000
7226 16433 11010 1 109.50000 418.400000
9368 16433 11010 1 109.50000 418.400000
994 16434 6005 1 109.50000 418.400000
994 16434 10929 1 109.50000 418.400000
994 16434 10960 1 109.50000 418.400000
6005 16434 10929 1 109.50000 418.400000
6005 16434 10960 1 109.50000 418.400000
10929 16434 10960 1 109.50000 418.400000
2934 16435 9186 1 109.50000 418.400000
2934 16435 10261 1 109.50000 418.400000
2934 16435 10351 1 109.50000 418.400000
9186 16435 10261 1 109.50000 418.400000
9186 16435 10351 1 109.50000 418.400000
10261 16435 10351 1 109.50000 418.400000
1656 16436 5198 1 109.50000 418.400000
1656 16436 8110 1 109.50000 418.400000
1656 16436 9833 1 109.50000 418.400000
5198 16436 8110 1 109.50000 418.400000
5198 16436 9833 1 109.50000 418.400000
8110 16436 9833 1 109.50000 418.400000
2619 16437 3128 1 109.50000 418.400000
2619 16437 7023 1 109.50000 418.400000
2619 16437 10965 1 109.50000 418.400000
3128 16437 7023 1 109.50000 418.400000
3128 16437 10965 1 109.50000 418.400000
7023 16437 10965 1 109.50000 418.400000
428 16438 4508 1 109.50000 418.400000
428 16438 5681 1 109.50000 418.400000
428 16438 11087 1 109.50000 418.400000
4508 16438 5681 1 109.50000 418.400000
4508 16438 11087 1 109.50000 418.400000
5681 16438 11087 1 109.50000 418.400000
4414 16439 5987 1 109.50000 418.400000
4414 16439 8401 1 109.50000 418.400000
4414 16439 10624 1 109.50000 418.400000
5987 16439 8401 1 109.50000 418.400000
5987 16439 10624 1 109.50000 418.400000
8401 16439 10624 1 109.50000 418.400000
5015 16440 7322 1 109.50000 418.400000
5015 16440 7889 1 109.50000 418.400000
5015 16440 10973 1 109.50000 418.400000
7322 16440 7889 1 109.50000 418.400000
7322 16440 10973 1 109.50000 418.400000
7889 16440 10973 1 109.50000 418.400000
3411 16441 10079 1 109.50000 418.400000
3411 16441 10680 1 109.50000 418.400000
3411 16441 11053 1 109.50000 418.400000
10079 16441 10680 1 109.50000 418.400000
10079 16441 11053 1 109.50000 418.400000
10680 16441 11053 1 109.50000 418.400000
2940 16442 4320 1 109.50000 418.400000
2940 16442 4652 1 109.50000 418.400000
2940 16442 9735 1 109.50000 418.400000
4320 16442 4652 1 109.50000 418.400000
4320 16442 9735 1 109.50000 418.400000
4652 16442 9735 1 109.50000 418.400000
520 16443 2176 1 109.50000 418.400000
520 16443 2178 1 109.50000 418.400000
520 16443 11124 1 109.50000 418.400000
2176 16443 2178 1 109.50000 418.400000
2176 16443 11124 1 109.50000 418.400000
2178 16443 11124 1 109.50000 418.400000
10377 16444 10639 1 109.50000 418.400000
10377 16444 11054 1 109.50000 418.400000
10377 16444 11115 1 109.50000 418.400000
10639 16444 11054 1 109.50000 418.400000
10639 16444 11115 1 109.50000 418.400000
11054 16444 11115 1 109.50000 418.400000
3837 16445 7972 1 109.50000 418.400000
3837 16445 7973 1 109.50000 418.400000
3837 16445 7974 1 109.50000 418.400000
7972 16445 7973 1 109.50000 418.400000
7972 16445 7974 1 109.50000 418.400000
7973 16445 7974 1 109.50000 418.400000
85 16446 2406 1 109.50000 418.400000
85 16446 6731 1 109.50000 418.400000
85 16446 10062 1 109.50000 418.400000
2406 16446 6731 1 109.50000 418.400000
2406 16446 10062 1 109.50000 418.400000
6731 16446 10062 1 109.50000 418.400000
3489 16447 9205 1 109.50000 418.400000
3489 16447 10386 1 109.50000 418.400000
3489 16447 10907 1 109.50000 418.400000
9205 16447 10386 1 109.50000 418.400000
9205 16447 10907 1 109.50000 418.400000
10386 16447 10907 1 109.50000 418.400000
2108 16448 3589 1 109.50000 418.400000
2108 16448 5844 1 109.50000 418.400000
2108 16448 8994 1 109.50000 418.400000
3589 16448 5844 1 109.50000 418.400000
3589 16448 8994 1 109.50000 418.400000
5844 16448 8994 1 109.50000 418.400000
6648 16449 7954 1 109.50000 418.400000
6648 16449 10359 1 109.50000 418.400000
6648 16449 10537 1 109.50000 418.400000
7954 16449 10359 1 109.50000 418.400000
7954 16449 10537 1 109.50000 418.400000
10359 16449 10537 1 109.50000 418.400000
6778 16450 9546 1 109.50000 418.400000
6778 16450 9814 1 109.50000 418.400000
6778 16450 10510 1 109.50000 418.400000
9546 16450 9814 1 109.50000 418.400000
9546 16450 10510 1 109.50000 418.400000
9814 16450 10510 1 109.50000 418.400000
1543 16451 9207 1 109.50000 418.400000
1543 16451 9274 1 109.50000 418.400000
1543 16451 10850 1 109.50000 418.400000
9207 16451 9274 1 109.50000 418.400000
9207 16451 10850 1 109.50000 418.400000
9274 16451 10850 1 109.50000 418.400000
824 16452 6394 1 109.50000 418.400000
824 16452 10601 1 109.50000 418.400000
824 16452 11065 1 109.50000 418.400000
6394 16452 10601 1 109.50000 418.400000
6394 16452 11065 1 109.50000 418.400000
10601 16452 11065 1 109.50000 418.400000
1284 16453 1285 1 109.50000 418.400000
1284 16453 5949 1 109.50000 418.400000
1284 16453 10699 1 109.50000 418.400000
1285 16453 5949 1 109.50000 418.400000
1285 16453 10699 1 109.50000 418.400000
5949 16453 10699 1 109.50000 418.400000
4105 16454 5215 1 109.50000 418.400000
4105 16454 9539 1 109.50000 418.400000
4105 16454 11018 1 109.50000 418.400000
5215 16454 9539 1 109.50000 418.400000
5215 16454 11018 1 109.50000 418.400000
9539 16454 11018 1 109.50000 418.400000
7523 16455 9123 1 109.50000 418.400000
7523 16455 10809 1 109.50000 418.400000
7523 16455 11082 1 109.50000 418.400000
9123 16455 10809 1 109.50000 418.400000
9123 16455 11082 1 109.50000 418.400000
10809 16455 11082 1 109.50000 418.400000
338 16456 4532 1 109.50000 418.400000
338 16456 8670 1 109.50000 418.400000
338 16456 9680 1 109.50000 418.400000
4532 16456 8670 1 109.50000 418.400000
4532 16456 9680 1 109.50000 418.400000
8670 16456 9680 1 109.50000 418.400000
382 16457 10509 1 109.50000 418.400000
382 16457 10796 1 109.50000 418.400000
382 16457 10978 1 109.50000 418.400000
10509 16457 10796 1 109.50000 418.400000
10509 16457 10978 1 109.50000 418.400000
10796 16457 10978 1 109.50000 418.400000
1295 16458 2041 1 109.50000 418.400000
1295 16458 3752 1 109.50000 418.400000
1295 16458 4326 1 109.50000 418.400000
2041 16458 3752 1 109.50000 418.400000
2041 16458 4326 1 109.50000 418.400000
3752 16458 4326 1 109.50000 418.400000
1449 16459 5760 1 109.50000 418.400000
1449 16459 5815 1 109.50000 418.400000
1449 16459 7336 1 109.50000 418.400000
5760 16459 5815 1 109.50000 418.400000
5760 16459 7336 1 109.50000 418.400000
5815 16459 7336 1 109.50000 418.400000
2173 16460 7382 1 109.50000 418.400000
2173 16460 8025 1 109.50000 418.400000
2173 16460 10039 1 109.50000 418.400000
7382 16460 8025 1 109.50000 418.400000
7382 16460 10039 1 109.50000 418.400000
8025 16460 10039 1 109.50000 418.400000
247 16461 587 1 109.50000 418.400000
247 16461 7961 1 109.50000 418.400000
247 16461 10709 1 109.50000 418.400000
587 16461 7961 1 109.50000 418.400000
587 16461 10709 1 109.50000 418.400000
7961 16461 10709 1 109.50000 418.400000
947 16462 2466 1 109.50000 418.400000
947 16462 6955 1 109.50000 418.400000
947 16462 9488 1 109.50000 418.400000
2466 16462 6955 1 109.50000 418.400000
2466 16462 9488 1 109.50000 418.400000
6955 16462 9488 1 109.50000 418.400000
4107 16463 8159 1 109.50000 418.400000
4107 16463 10436 1 109.50000 418.400000
4107 16463 11126 1 109.50000 418.400000
8159 16463 10436 1 109.50000 418.400000
8159 16463 11126 1 109.50000 418.400000
10436 16463 11126 1 109.50000 418.400000
2395 16464 2397 1 109.50000 418.400000
2395 16464 4283 1 109.50000 418.400000
2395 16464 8310 1 109.50000 418.400000
2397 16464 4283 1 109.50000 418.400000
2397 16464 8310 1 109.50000 418.400000
4283 16464 8310 1 109.50000 418.400000
364 16465 4503 1 109.50000 418.400000
364 16465 6325 1 109.50000 418.400000
364 16465 7134 1 109.50000 418.400000
4503 16465 6325 1 109.50000 418.400000
4503 16465 7134 1 109.50000 418.400000
6325 16465 7134 1 109.50000 418.400000
5435 16466 6804 1 109.50000 418.400000
5435 16466 7587 1 109.50000 418.400000
5435 16466 10921 1 109.50000 418.400000
6804 16466 7587 1 109.50000 418.400000
6804 16466 10921 1 109.50000 418.400000
7587 16466 10921 1 109.50000 418.400000
1103 16467 7537 1 109.50000 418.400000
1103 16467 10107 1 109.50000 418.400000
1103 16467 11127 1 109.50000 418.400000
7537 16467 10107 1 109.50000 418.400000
7537 16467 11127 1 109.50000 418.400000
10107 16467 11127 1 109.50000 418.400000
1079 16468 1890 1 109.50000 418.400000
1079 16468 7150 1 109.50000 418.400000
1079 16468 7759 1 109.50000 418.400000
1890 16468 7150 1 109.50000 418.400000
1890 16468 7759 1 109.50000 418.400000
7150 16468 7759 1 109.50000 418.400000
6328 16469 8332 1 109.50000 418.400000
6328 16469 9638 1 109.50000 418.400000
6328 16469 11128 1 109.50000 418.400000
8332 16469 9638 1 109.50000 418.400000
8332 16469 11128 1 109.50000 418.400000
9638 16469 11128 1 109.50000 418.400000
6278 16470 9381 1 109.50000 418.400000
6278 16470 10102 1 109.50000 418.400000
6278 16470 10897 1 109.50000 418.400000
9381 16470 10102 1 109.50000 418.400000
9381 16470 10897 1 109.50000 418.400000
10102 16470 10897 1 109.50000 418.400000
2980 16471 9149 1 109.50000 418.400000
2980 16471 11017 1 109.50000 418.400000
2980 16471 11129 1 109.50000 418.400000
9149 16471 11017 1 109.50000 418.400000
9149 16471 11129 1 109.50000 418.400000
11017 16471 11129 1 109.50000 418.400000
2477 16472 2479 1 109.50000 418.400000
2477 16472 3081 1 109.50000 418.400000
2477 16472 9339 1 109.50000 418.400000
2479 16472 3081 1 109.50000 418.400000
2479 16472 9339 1 109.50000 418.400000
3081 16472 9339 1 109.50000 418.400000
6061 16473 7684 1 109.50000 418.400000
6061 16473 10847 1 109.50000 418.400000
6061 16473 11031 1 109.50000 418.400000
7684 16473 10847 1 109.50000 418.400000
7684 16473 11031 1 109.50000 418.400000
10847 16473 11031 1 109.50000 418.400000
2634 16474 7729 1 109.50000 418.400000
2634 16474 9088 1 109.50000 418.400000
2634 16474 9868 1 109.50000 418.400000
7729 16474 9088 1 109.50000 418.400000
7729 16474 9868 1 109.50000 418.400000
9088 16474 9868 1 109.50000 418.400000
2828 16475 4120 1 109.50000 418.400000
2828 16475 9523 1 109.50000 418.400000
2828 16475 11114 1 109.50000 418.400000
4120 16475 9523 1 109.50000 418.400000
4120 16475 11114 1 109.50000 418.400000
9523 16475 11114 1 109.50000 418.400000
10579 16476 10887 1 109.50000 418.400000
10579 16476 11095 1 109.50000 418.400000
10579 16476 11097 1 109.50000 418.400000
10887 16476 11095 1 109.50000 418.400000
10887 16476 11097 1 109.50000 418.400000
11095 16476 11097 1 109.50000 418.400000
6241 16477 6351 1 109.50000 418.400000
6241 16477 6404 1 109.50000 418.400000
6241 16477 9875 1 109.50000 418.400000
6351 16477 6404 1 109.50000 418.400000
6351 16477 9875 1 109.50000 418.400000
6404 16477 9875 1 109.50000 418.400000
124 16478 2331 1 109.50000 418.400000
124 16478 8116 1 109.50000 418.400000
124 16478 11130 1 109.50000 418.400000
2331 16478 8116 1 109.50000 418.400000
2331 16478 11130 1 109.50000 418.400000
8116 16478 11130 1 109.50000 418.400000
8735 16479 10446 1 109.50000 418.400000
8735 16479 10733 1 109.50000 418.400000
8735 16479 11113 1 109.50000 418.400000
10446 16479 10733 1 109.50000 418.400000
10446 16479 11113 1 109.50000 418.400000
10733 16479 11113 1 109.50000 418.400000
2608 16480 3982 1 109.50000 418.400000
2608 16480 10848 1 109.50000 418.400000
2608 16480 11100 1 109.50000 418.400000
3982 16480 10848 1 109.50000 418.400000
3982 16480 11100 1 109.50000 418.400000
10848 16480 11100 1 109.50000 418.400000
3732 16481 10938 1 109.50000 418.400000
3732 16481 10989 1 109.50000 418.400000
3732 16481 11066 1 109.50000 418.400000
10938 16481 10989 1 109.50000 418.400000
10938 16481 11066 1 109.50000 418.400000
10989 16481 11066 1 109.50000 418.400000
2124 16482 3528 1 109.50000 418.400000
2124 16482 7972 1 109.50000 418.400000
2124 16482 10156 1 109.50000 418.400000
3528 16482 7972 1 109.50000 418.400000
3528 16482 10156 1 109.50000 418.400000
7972 16482 10156 1 109.50000 418.400000
1001 16483 4931 1 109.50000 418.400000
1001 16483 9451 1 109.50000 418.400000
1001 16483 10909 1 109.50000 418.400000
4931 16483 9451 1 109.50000 418.400000
4931 16483 10909 1 109.50000 418.400000
9451 16483 10909 1 109.50000 418.400000
2291 16484 9617 1 109.50000 418.400000
2291 16484 10215 1 109.50000 418.400000
2291 16484 10812 1 109.50000 418.400000
9617 16484 10215 1 109.50000 418.400000
9617 16484 10812 1 109.50000 418.400000
10215 16484 10812 1 109.50000 418.400000
4300 16485 4445 1 109.50000 418.400000
4300 16485 8557 1 109.50000 418.400000
4300 16485 11127 1 109.50000 418.400000
4445 16485 8557 1 109.50000 418.400000
4445 16485 11127 1 109.50000 418.400000
8557 16485 11127 1 109.50000 418.400000
3865 16486 5537 1 109.50000 418.400000
3865 16486 5668 1 109.50000 418.400000
3865 16486 8996 1 109.50000 418.400000
5537 16486 5668 1 109.50000 418.400000
5537 16486 8996 1 109.50000 418.400000
5668 16486 8996 1 109.50000 418.400000
5623 16487 9503 1 109.50000 418.400000
5623 16487 9924 1 109.50000 418.400000
5623 16487 11048 1 109.50000 418.400000
9503 16487 9924 1 109.50000 418.400000
9503 16487 11048 1 109.50000 418.400000
9924 16487 11048 1 109.50000 418.400000
4520 16488 8697 1 109.50000 418.400000
4520 16488 10827 1 109.50000 418.400000
4520 16488 11131 1 109.50000 418.400000
8697 16488 10827 1 109.50000 418.400000
8697 16488 11131 1 109.50000 418.400000
10827 16488 11131 1 109.50000 418.400000
4726 16489 7378 1 109.50000 418.400000
4726 16489 8319 1 109.50000 418.400000
4726 16489 8516 1 109.50000 418.400000
7378 16489 8319 1 109.50000 418.400000
7378 16489 8516 1 109.50000 418.400000
8319 16489 8516 1 109.50000 418.400000
1287 16490 1897 1 109.50000 418.400000
1287 16490 3833 1 109.50000 418.400000
1287 16490 10899 1 109.50000 418.400000
1897 16490 3833 1 109.50000 418.400000
1897 16490 10899 1 109.50000 418.400000
3833 16490 10899 1 109.50000 418.400000
7654 16491 8739 1 109.50000 418.400000
7654 16491 10454 1 109.50000 418.400000
7654 16491 11096 1 109.50000 418.400000
8739 16491 10454 1 109.50000 418.400000
8739 16491 11096 1 109.50000 418.400000
10454 16491 11096 1 109.50000 418.400000
465 16492 8347 1 109.50000 418.400000
465 16492 10007 1 109.50000 418.400000
465 16492 10792 1 109.50000 418.400000
8347 16492 10007 1 109.50000 418.400000
8347 16492 10792 1 109.50000 418.400000
10007 16492 10792 1 109.50000 418.400000
2269 16493 2270 1 109.50000 418.400000
2269 16493 6796 1 109.50000 418.400000
2269 16493 11123 1 109.50000 418.400000
2270 16493 6796 1 109.50000 418.400000
2270 16493 11123 1 109.50000 418.400000
6796 16493 11123 1 109.50000 418.400000
4119 16494 6915 1 109.50000 418.400000
4119 16494 10371 1 109.50000 418.400000
4119 16494 11352 1 109.50000 418.400000
6915 16494 10371 1 109.50000 418.400000
6915 16494 11352 1 109.50000 418.400000
10371 16494 11352 1 109.50000 418.400000
2951 16495 5399 1 109.50000 418.400000
2951 16495 10106 1 109.50000 418.400000
2951 16495 10596 1 109.50000 418.400000
5399 16495 10106 1 109.50000 418.400000
5399 16495 10596 1 109.50000 418.400000
10106 16495 10596 1 109.50000 418.400000
4277 16496 8607 1 109.50000 418.400000
4277 16496 10503 1 109.50000 418.400000
4277 16496 10548 1 109.50000 418.400000
8607 16496 10503 1 109.50000 418.400000
8607 16496 10548 1 109.50000 418.400000
10503 16496 10548 1 109.50000 418.400000
6673 16497 7561 1 109.50000 418.400000
6673 16497 9850 1 109.50000 418.400000
6673 16497 11079 1 109.50000 418.400000
7561 16497 9850 1 109.50000 418.400000
7561 16497 11079 1 109.50000 418.400000
9850 16497 11079 1 109.50000 418.400000
3398 16498 8542 1 109.50000 418.400000
3398 16498 11084 1 109.50000 418.400000
3398 16498 11130 1 109.50000 418.400000
8542 16498 11084 1 109.50000 418.400000
8542 16498 11130 1 109.50000 418.400000
11084 16498 11130 1 109.50000 418.400000
2989 16499 4560 1 109.50000 418.400000
2989 16499 5262 1 109.50000 418.400000
2989 16499 5266 1 109.50000 418.400000
4560 16499 5262 1 109.50000 418.400000
4560 16499 5266 1 109.50000 418.400000
5262 16499 5266 1 109.50000 418.400000
6529 16500 10287 1 109.50000 418.400000
6529 16500 10789 1 109.50000 418.400000
6529 16500 11132 1 109.50000 418.400000
10287 16500 10789 1 109.50000 418.400000
10287 16500 11132 1 109.50000 418.400000
10789 16500 11132 1 109.50000 418.400000
2162 16501 2595 1 109.50000 418.400000
2162 16501 9456 1 109.50000 418.400000
2162 16501 11007 1 109.50000 418.400000
2595 16501 9456 1 109.50000 418.400000
2595 16501 11007 1 109.50000 418.400000
9456 16501 11007 1 109.50000 418.400000
224 16502 3114 1 109.50000 418.400000
224 16502 6829 1 109.50000 418.400000
224 16502 10455 1 109.50000 418.400000
3114 16502 6829 1 109.50000 418.400000
3114 16502 10455 1 109.50000 418.400000
6829 16502 10455 1 109.50000 418.400000
1071 16503 6221 1 109.50000 418.400000
1071 16503 9174 1 109.50000 418.400000
1071 16503 10115 1 109.50000 418.400000
6221 16503 9174 1 109.50000 418.400000
6221 16503 10115 1 109.50000 418.400000
9174 16503 10115 1 109.50000 418.400000
1262 16504 5418 1 109.50000 418.400000
1262 16504 6751 1 109.50000 418.400000
1262 16504 9880 1 109.50000 418.400000
5418 16504 6751 1 109.50000 418.400000
5418 16504 9880 1 109.50000 418.400000
6751 16504 9880 1 109.50000 418.400000
7988 16505 8127 1 109.50000 418.400000
7988 16505 10234 1 109.50000 418.400000
7988 16505 11129 1 109.50000 418.400000
8127 16505 10234 1 109.50000 418.400000
8127 16505 11129 1 109.50000 418.400000
10234 16505 11129 1 109.50000 418.400000
2999 16506 3997 1 109.50000 418.400000
2999 16506 8855 1 109.50000 418.400000
2999 16506 10245 1 109.50000 418.400000
3997 16506 8855 1 109.50000 418.400000
3997 16506 10245 1 109.50000 418.400000
8855 16506 10245 1 109.50000 418.400000
8210 16507 9001 1 109.50000 418.400000
8210 16507 10356 1 109.50000 418.400000
8210 16507 11230 1 109.50000 418.400000
9001 16507 10356 1 109.50000 418.400000
9001 16507 11230 1 109.50000 418.400000
10356 16507 11230 1 109.50000 418.400000
3748 16508 4413 1 109.50000 418.400000
3748 16508 10093 1 109.50000 418.400000
3748 16508 11126 1 109.50000 418.400000
4413 16508 10093 1 109.50000 418.400000
4413 16508 11126 1 109.50000 418.400000
10093 16508 11126 1 109.50000 418.400000
213 16509 2717 1 109.50000 418.400000
213 16509 5168 1 109.50000 418.400000
213 16509 7175 1 109.50000 418.400000
2717 16509 5168 1 109.50000 418.400000
2717 16509 7175 1 109.50000 418.400000
5168 16509 7175 1 109.50000 418.400000
122 16510 867 1 109.50000 418.400000
122 16510 10945 1 109.50000 418.400000
122 16510 11346 1 109.50000 418.400000
867 16510 10945 1 109.50000 418.400000
867 16510 11346 1 109.50000 418.400000
10945 16510 11346 1 109.50000 418.400000
2657 16511 6688 1 109.50000 418.400000
2657 16511 10353 1 109.50000 418.400000
2657 16511 11122 1 109.50000 418.400000
6688 16511 10353 1 109.50000 418.400000
6688 16511 11122 1 109.50000 418.400000
10353 16511 11122 1 109.50000 418.400000
4977 16512 8238 1 109.50000 418.400000
4977 16512 10024 1 109.50000 418.400000
4977 16512 10272 1 109.50000 418.400000
8238 16512 10024 1 109.50000 418.400000
8238 16512 10272 1 109.50000 418.400000
10024 16512 10272 1 109.50000 418.400000
2826 16513 8949 1 109.50000 418.400000
2826 16513 10011 1 109.50000 418.400000
2826 16513 10993 1 109.50000 418.400000
8949 16513 10011 1 109.50000 418.400000
8949 16513 10993 1 109.50000 418.400000
10011 16513 10993 1 109.50000 418.400000
7258 16514 7940 1 109.50000 418.400000
7258 16514 9297 1 109.50000 418.400000
7258 16514 9696 1 109.50000 418.400000
7940 16514 9297 1 109.50000 418.400000
7940 16514 9696 1 109.50000 418.400000
9297 16514 9696 1 109.50000 418.400000
2598 16515 7439 1 109.50000 418.400000
2598 16515 10101 1 109.50000 418.400000
2598 16515 11120 1 109.50000 418.400000
7439 16515 10101 1 109.50000 418.400000
7439 16515 11120 1 109.50000 418.400000
10101 16515 11120 1 109.50000 418.400000
3282 16516 4561 1 109.50000 418.400000
3282 16516 9683 1 109.50000 418.400000
3282 16516 11085 1 109.50000 418.400000
4561 16516 9683 1 109.50000 418.400000
4561 16516 11085 1 109.50000 418.400000
9683 16516 11085 1 109.50000 418.400000
1587 16517 1588 1 109.50000 418.400000
1587 16517 9166 1 109.50000 418.400000
1587 16517 11089 1 109.50000 418.400000
1588 16517 9166 1 109.50000 418.400000
1588 16517 11089 1 109.50000 418.400000
9166 16517 11089 1 109.50000 418.400000
5649 16518 7718 1 109.50000 418.400000
5649 16518 8206 1 109.50000 418.400000
5649 16518 9620 1 109.50000 418.400000
7718 16518 8206 1 109.50000 418.400000
7718 16518 9620 1 109.50000 418.400000
8206 16518 9620 1 109.50000 418.400000
3129 16519 7347 1 109.50000 418.400000
3129 16519 10931 1 109.50000 418.400000
3129 16519 10985 1 109.50000 418.400000
7347 16519 10931 1 109.50000 418.400000
7347 16519 10985 1 109.50000 418.400000
10931 16519 10985 1 109.50000 418.400000
9319 16520 9776 1 109.50000 418.400000
9319 16520 10375 1 109.50000 418.400000
9319 16520 11133 1 109.50000 418.400000
9776 16520 10375 1 109.50000 418.400000
9776 16520 11133 1 109.50000 418.400000
10375 16520 11133 1 109.50000 418.400000
7757 16521 10606 1 109.50000 418.400000
7757 16521 10742 1 109.50000 418.400000
7757 16521 11125 1 109.50000 418.400000
10606 16521 10742 1 109.50000 418.400000
10606 16521 11125 1 109.50000 418.400000
10742 16521 11125 1 109.50000 418.400000
3735 16522 9853 1 109.50000 418.400000
3735 16522 10593 1 109.50000 418.400000
3735 16522 10991 1 109.50000 418.400000
9853 16522 10593 1 109.50000 418.400000
9853 16522 10991 1 109.50000 418.400000
10593 16522 10991 1 109.50000 418.400000
2078 16523 3750 1 109.50000 418.400000
2078 16523 10368 1 109.50000 418.400000
2078 16523 10703 1 109.50000 418.400000
3750 16523 10368 1 109.50000 418.400000
3750 16523 10703 1 109.50000 418.400000
10368 16523 10703 1 109.50000 418.400000
210 16524 6704 1 109.50000 418.400000
210 16524 9070 1 109.50000 418.400000
210 16524 9127 1 109.50000 418.400000
6704 16524 9070 1 109.50000 418.400000
6704 16524 9127 1 109.50000 418.400000
9070 16524 9127 1 109.50000 418.400000
562 16525 7447 1 109.50000 418.400000
562 16525 8946 1 109.50000 418.400000
562 16525 9577 1 109.50000 418.400000
7447 16525 8946 1 109.50000 418.400000
7447 16525 9577 1 109.50000 418.400000
8946 16525 9577 1 109.50000 418.400000
2125 16526 4502 1 109.50000 418.400000
2125 16526 6562 1 109.50000 418.400000
2125 16526 6867 1 109.50000 418.400000
4502 16526 6562 1 109.50000 418.400000
4502 16526 6867 1 109.50000 418.400000
6562 16526 6867 1 109.50000 418.400000
3047 16527 6001 1 109.50000 418.400000
3047 16527 8554 1 109.50000 418.400000
3047 16527 10888 1 109.50000 418.400000
6001 16527 8554 1 109.50000 418.400000
6001 16527 10888 1 109.50000 418.400000
8554 16527 10888 1 109.50000 418.400000
1153 16528 6016 1 109.50000 418.400000
1153 16528 11101 1 109.50000 418.400000
1153 16528 11124 1 109.50000 418.400000
6016 16528 11101 1 109.50000 418.400000
6016 16528 11124 1 109.50000 418.400000
11101 16528 11124 1 109.50000 418.400000
5358 16529 9748 1 109.50000 418.400000
5358 16529 10497 1 109.50000 418.400000
5358 16529 11091 1 109.50000 418.400000
9748 16529 10497 1 109.50000 418.400000
9748 16529 11091 1 109.50000 418.400000
10497 16529 11091 1 109.50000 418.400000
4667 16530 6066 1 109.50000 418.400000
4667 16530 8216 1 109.50000 418.400000
4667 16530 8925 1 109.50000 418.400000
6066 16530 8216 1 109.50000 418.400000
6066 16530 8925 1 109.50000 418.400000
8216 16530 8925 1 109.50000 418.400000
9812 16531 10052 1 109.50000 418.400000
9812 16531 11064 1 109.50000 418.400000
9812 16531 11134 1 109.50000 418.400000
10052 16531 11064 1 109.50000 418.400000
10052 16531 11134 1 109.50000 418.400000
11064 16531 11134 1 109.50000 418.400000
662 16532 663 1 109.50000 418.400000
662 16532 6282 1 109.50000 418.400000
662 16532 7349 1 109.50000 418.400000
663 16532 6282 1 109.50000 418.400000
663 16532 7349 1 109.50000 418.400000
6282 16532 7349 1 109.50000 418.400000
313 16533 3016 1 109.50000 418.400000
313 16533 6103 1 109.50000 418.400000
313 16533 11135 1 109.50000 418.400000
3016 16533 6103 1 109.50000 418.400000
3016 16533 11135 1 109.50000 418.400000
6103 16533 11135 1 109.50000 418.400000
2556 16534 6329 1 109.50000 418.400000
2556 16534 10602 1 109.50000 418.400000
2556 16534 10953 1 109.50000 418.400000
6329 16534 10602 1 109.50000 418.400000
6329 16534 10953 1 109.50000 418.400000
10602 16534 10953 1 109.50000 418.400000
6050 16535 8783 1 109.50000 418.400000
6050 16535 8965 1 109.50000 418.400000
6050 16535 9693 1 109.50000 418.400000
8783 16535 8965 1 109.50000 418.400000
8783 16535 9693 1 109.50000 418.400000
8965 16535 9693 1 109.50000 418.400000
4489 16536 6242 1 109.50000 418.400000
4489 16536 6880 1 109.50000 418.400000
4489 16536 9749 1 109.50000 418.400000
6242 16536 6880 1 109.50000 418.400000
6242 16536 9749 1 109.50000 418.400000
6880 16536 9749 1 109.50000 418.400000
7535 16537 8020 1 109.50000 418.400000
7535 16537 10781 1 109.50000 418.400000
7535 16537 11056 1 109.50000 418.400000
8020 16537 10781 1 109.50000 418.400000
8020 16537 11056 1 109.50000 418.400000
10781 16537 11056 1 109.50000 418.400000
8 16538 2247 1 109.50000 418.400000
8 16538 5024 1 109.50000 418.400000
8 16538 9052 1 109.50000 418.400000
2247 16538 5024 1 109.50000 418.400000
2247 16538 9052 1 109.50000 418.400000
5024 16538 9052 1 109.50000 418.400000
3921 16539 4342 1 109.50000 418.400000
3921 16539 10695 1 109.50000 418.400000
3921 16539 10849 1 109.50000 418.400000
4342 16539 10695 1 109.50000 418.400000
4342 16539 10849 1 109.50000 418.400000
10695 16539 10849 1 109.50000 418.400000
3538 16540 6348 1 109.50000 418.400000
3538 16540 7868 1 109.50000 418.400000
3538 16540 11121 1 109.50000 418.400000
6348 16540 7868 1 109.50000 418.400000
6348 16540 11121 1 109.50000 418.400000
7868 16540 11121 1 109.50000 418.400000
3562 16541 5652 1 109.50000 418.400000
3562 16541 7962 1 109.50000 418.400000
3562 16541 11094 1 109.50000 418.400000
5652 16541 7962 1 109.50000 418.400000
5652 16541 11094 1 109.50000 418.400000
7962 16541 11094 1 109.50000 418.400000
526 16542 8467 1 109.50000 418.400000
526 16542 9195 1 109.50000 418.400000
526 16542 10056 1 109.50000 418.400000
8467 16542 9195 1 109.50000 418.400000
8467 16542 10056 1 109.50000 418.400000
9195 16542 10056 1 109.50000 418.400000
2725 16543 3394 1 109.50000 418.400000
2725 16543 8850 1 109.50000 418.400000
2725 16543 10805 1 109.50000 418.400000
3394 16543 8850 1 109.50000 418.400000
3394 16543 10805 1 109.50000 418.400000
8850 16543 10805 1 109.50000 418.400000
330 16544 996 1 109.50000 418.400000
330 16544 10347 1 109.50000 418.400000
330 16544 10959 1 109.50000 418.400000
996 16544 10347 1 109.50000 418.400000
996 16544 10959 1 109.50000 418.400000
10347 16544 10959 1 109.50000 418.400000
106 16545 7827 1 109.50000 418.400000
106 16545 10374 1 109.50000 418.400000
106 16545 10880 1 109.50000 418.400000
7827 16545 10374 1 109.50000 418.400000
7827 16545 10880 1 109.50000 418.400000
10374 16545 10880 1 109.50000 418.400000
2413 16546 7984 1 109.50000 418.400000
2413 16546 10614 1 109.50000 418.400000
2413 16546 11058 1 109.50000 418.400000
7984 16546 10614 1 109.50000 418.400000
7984 16546 11058 1 109.50000 418.400000
10614 16546 11058 1 109.50000 418.400000
9293 16547 9484 1 109.50000 418.400000
9293 16547 9516 1 109.50000 418.400000
9293 16547 10894 1 109.50000 418.400000
9484 16547 9516 1 109.50000 418.400000
9484 16547 10894 1 109.50000 418.400000
9516 16547 10894 1 109.50000 418.400000
403 16548 9687 1 109.50000 418.400000
403 16548 9688 1 109.50000 418.400000
403 16548 10600 1 109.50000 418.400000
9687 16548 9688 1 109.50000 418.400000
9687 16548 10600 1 109.50000 418.400000
9688 16548 10600 1 109.50000 418.400000
8930 16549 9281 1 109.50000 418.400000
8930 16549 9385 1 109.50000 418.400000
8930 16549 10817 1 109.50000 418.400000
9281 16549 9385 1 109.50000 418.400000
9281 16549 10817 1 109.50000 418.400000
9385 16549 10817 1 109.50000 418.400000
2215 16550 7755 1 109.50000 418.400000
2215 16550 9211 1 109.50000 418.400000
2215 16550 10590 1 109.50000 418.400000
7755 16550 9211 1 109.50000 418.400000
7755 16550 10590 1 109.50000 418.400000
9211 16550 10590 1 109.50000 418.400000
3458 16551 10713 1 109.50000 418.400000
3458 16551 11047 1 109.50000 418.400000
3458 16551 11108 1 109.50000 418.400000
10713 16551 11047 1 109.50000 418.400000
10713 16551 11108 1 109.50000 418.400000
11047 16551 11108 1 109.50000 418.400000
1968 16552 2771 1 109.50000 418.400000
1968 16552 7055 1 109.50000 418.400000
1968 16552 9322 1 109.50000 418.400000
2771 16552 7055 1 109.50000 418.400000
2771 16552 9322 1 109.50000 418.400000
7055 16552 9322 1 109.50000 418.400000
7697 16553 7699 1 109.50000 418.400000
7697 16553 9436 1 109.50000 418.400000
7697 16553 9634 1 109.50000 418.400000
7699 16553 9436 1 109.50000 418.400000
7699 16553 9634 1 109.50000 418.400000
9436 16553 9634 1 109.50000 418.400000
5415 16554 9807 1 109.50000 418.400000
5415 16554 10083 1 109.50000 418.400000
5415 16554 11352 1 109.50000 418.400000
9807 16554 10083 1 109.50000 418.400000
9807 16554 11352 1 109.50000 418.400000
10083 16554 11352 1 109.50000 418.400000
3901 16555 9639 1 109.50000 418.400000
3901 16555 10757 1 109.50000 418.400000
3901 16555 11039 1 109.50000 418.400000
9639 16555 10757 1 109.50000 418.400000
9639 16555 11039 1 109.50000 418.400000
10757 16555 11039 1 109.50000 418.400000
7240 16556 7304 1 109.50000 418.400000
7240 16556 8480 1 109.50000 418.400000
7240 16556 11024 1 109.50000 418.400000
7304 16556 8480 1 109.50000 418.400000
7304 16556 11024 1 109.50000 418.400000
8480 16556 11024 1 109.50000 418.400000
4218 16557 7824 1 109.50000 418.400000
4218 16557 9986 1 109.50000 418.400000
4218 16557 10559 1 109.50000 418.400000
7824 16557 9986 1 109.50000 418.400000
7824 16557 10559 1 109.50000 418.400000
9986 16557 10559 1 109.50000 418.400000
2192 16558 2653 1 109.50000 418.400000
2192 16558 8291 1 109.50000 418.400000
2192 16558 10837 1 109.50000 418.400000
2653 16558 8291 1 109.50000 418.400000
2653 16558 10837 1 109.50000 418.400000
8291 16558 10837 1 109.50000 418.400000
1263 16559 7341 1 109.50000 418.400000
1263 16559 8672 1 109.50000 418.400000
1263 16559 10554 1 109.50000 418.400000
7341 16559 8672 1 109.50000 418.400000
7341 16559 10554 1 109.50000 418.400000
8672 16559 10554 1 109.50000 418.400000
1869 16560 8017 1 109.50000 418.400000
1869 16560 8627 1 109.50000 418.400000
1869 16560 11111 1 109.50000 418.400000
8017 16560 8627 1 109.50000 418.400000
8017 16560 11111 1 109.50000 418.400000
8627 16560 11111 1 109.50000 418.400000
2748 16561 10317 1 109.50000 418.400000
2748 16561 11043 1 109.50000 418.400000
2748 16561 11208 1 109.50000 418.400000
10317 16561 11043 1 109.50000 418.400000
10317 16561 11208 1 109.50000 418.400000
11043 16561 11208 1 109.50000 418.400000
7353 16562 8230 1 109.50000 418.400000
7353 16562 10465 1 109.50000 418.400000
7353 16562 11136 1 109.50000 418.400000
8230 16562 10465 1 109.50000 418.400000
8230 16562 11136 1 109.50000 418.400000
10465 16562 11136 1 109.50000 418.400000
3710 16563 10743 1 109.50000 418.400000
3710 16563 10873 1 109.50000 418.400000
3710 16563 10988 1 109.50000 418.400000
10743 16563 10873 1 109.50000 418.400000
10743 16563 10988 1 109.50000 418.400000
10873 16563 10988 1 109.50000 418.400000
1866 16564 2606 1 109.50000 418.400000
1866 16564 2607 1 109.50000 418.400000
1866 16564 11128 1 109.50000 418.400000
2606 16564 2607 1 109.50000 418.400000
2606 16564 11128 1 109.50000 418.400000
2607 16564 11128 1 109.50000 418.400000
3048 16565 8030 1 109.50000 418.400000
3048 16565 8715 1 109.50000 418.400000
3048 16565 11116 1 109.50000 418.400000
8030 16565 8715 1 109.50000 418.400000
8030 16565 11116 1 109.50000 418.400000
8715 16565 11116 1 109.50000 418.400000
2186 16566 10689 1 109.50000 418.400000
2186 16566 10853 1 109.50000 418.400000
2186 16566 11016 1 109.50000 418.400000
10689 16566 10853 1 109.50000 418.400000
10689 16566 11016 1 109.50000 418.400000
10853 16566 11016 1 109.50000 418.400000
68 16567 121 1 109.50000 418.400000
68 16567 9771 1 109.50000 418.400000
68 16567 11137 1 109.50000 418.400000
121 16567 9771 1 109.50000 418.400000
121 16567 11137 1 109.50000 418.400000
9771 16567 11137 1 109.50000 418.400000
414 16568 493 1 109.50000 418.400000
414 16568 3746 1 109.50000 418.400000
414 16568 4109 1 109.50000 418.400000
493 16568 3746 1 109.50000 418.400000
493 16568 4109 1 109.50000 418.400000
3746 16568 4109 1 109.50000 418.400000
266 16569 8394 1 109.50000 418.400000
266 16569 8905 1 109.50000 418.400000
266 16569 10830 1 109.50000 418.400000
8394 16569 8905 1 109.50000 418.400000
8394 16569 10830 1 109.50000 418.400000
8905 16569 10830 1 109.50000 418.400000
4570 16570 9007 1 109.50000 418.400000
4570 16570 9580 1 109.50000 418.400000
4570 16570 11117 1 109.50000 418.400000
9007 16570 9580 1 109.50000 418.400000
9007 16570 11117 1 109.50000 418.400000
9580 16570 11117 1 109.50000 418.400000
4660 16571 5456 1 109.50000 418.400000
4660 16571 5517 1 109.50000 418.400000
4660 16571 8952 1 109.50000 418.400000
5456 16571 5517 1 109.50000 418.400000
5456 16571 8952 1 109.50000 418.400000
5517 16571 8952 1 109.50000 418.400000
4037 16572 5590 1 109.50000 418.400000
4037 16572 9133 1 109.50000 418.400000
4037 16572 9534 1 109.50000 418.400000
5590 16572 9133 1 109.50000 418.400000
5590 16572 9534 1 109.50000 418.400000
9133 16572 9534 1 109.50000 418.400000
5049 16573 5050 1 109.50000 418.400000
5049 16573 6764 1 109.50000 418.400000
5049 16573 7554 1 109.50000 418.400000
5050 16573 6764 1 109.50000 418.400000
5050 16573 7554 1 109.50000 418.400000
6764 16573 7554 1 109.50000 418.400000
6809 16574 7056 1 109.50000 418.400000
6809 16574 7794 1 109.50000 418.400000
6809 16574 10152 1 109.50000 418.400000
7056 16574 7794 1 109.50000 418.400000
7056 16574 10152 1 109.50000 418.400000
7794 16574 10152 1 109.50000 418.400000
2743 16575 3812 1 109.50000 418.400000
2743 16575 8479 1 109.50000 418.400000
2743 16575 10255 1 109.50000 418.400000
3812 16575 8479 1 109.50000 418.400000
3812 16575 10255 1 109.50000 418.400000
8479 16575 10255 1 109.50000 418.400000
6838 16576 7425 1 109.50000 418.400000
6838 16576 10449 1 109.50000 418.400000
6838 16576 10912 1 109.50000 418.400000
7425 16576 10449 1 109.50000 418.400000
7425 16576 10912 1 109.50000 418.400000
10449 16576 10912 1 109.50000 418.400000
3738 16577 4384 1 109.50000 418.400000
3738 16577 5974 1 109.50000 418.400000
3738 16577 11259 1 109.50000 418.400000
4384 16577 5974 1 109.50000 418.400000
4384 16577 11259 1 109.50000 418.400000
5974 16577 11259 1 109.50000 418.400000
1106 16578 5200 1 109.50000 418.400000
1106 16578 9078 1 109.50000 418.400000
1106 16578 11133 1 109.50000 418.400000
5200 16578 9078 1 109.50000 418.400000
5200 16578 11133 1 109.50000 418.400000
9078 16578 11133 1 109.50000 418.400000
3161 16579 5611 1 109.50000 418.400000
3161 16579 8406 1 109.50000 418.400000
3161 16579 10688 1 109.50000 418.400000
5611 16579 8406 1 109.50000 418.400000
5611 16579 10688 1 109.50000 418.400000
8406 16579 10688 1 109.50000 418.400000
2887 16580 8382 1 109.50000 418.400000
2887 16580 9886 1 109.50000 418.400000
2887 16580 11068 1 109.50000 418.400000
8382 16580 9886 1 109.50000 418.400000
8382 16580 11068 1 109.50000 418.400000
9886 16580 11068 1 109.50000 418.400000
1428 16581 2920 1 109.50000 418.400000
1428 16581 3069 1 109.50000 418.400000
1428 16581 9897 1 109.50000 418.400000
2920 16581 3069 1 109.50000 418.400000
2920 16581 9897 1 109.50000 418.400000
3069 16581 9897 1 109.50000 418.400000
4264 16582 9434 1 109.50000 418.400000
4264 16582 9854 1 109.50000 418.400000
4264 16582 11112 1 109.50000 418.400000
9434 16582 9854 1 109.50000 418.400000
9434 16582 11112 1 109.50000 418.400000
9854 16582 11112 1 109.50000 418.400000
7348 16583 7864 1 109.50000 418.400000
7348 16583 9885 1 109.50000 418.400000
7348 16583 10804 1 109.50000 418.400000
7864 16583 9885 1 109.50000 418.400000
7864 16583 10804 1 109.50000 418.400000
9885 16583 10804 1 109.50000 418.400000
4836 16584 8688 1 109.50000 418.400000
4836 16584 9253 1 109.50000 418.400000
4836 16584 9923 1 109.50000 418.400000
8688 16584 9253 1 109.50000 418.400000
8688 16584 9923 1 109.50000 418.400000
9253 16584 9923 1 109.50000 418.400000
4477 16585 6230 1 109.50000 418.400000
4477 16585 10274 1 109.50000 418.400000
4477 16585 11059 1 109.50000 418.400000
6230 16585 10274 1 109.50000 418.400000
6230 16585 11059 1 109.50000 418.400000
10274 16585 11059 1 109.50000 418.400000
7400 16586 7765 1 109.50000 418.400000
7400 16586 7790 1 109.50000 418.400000
7400 16586 10258 1 109.50000 418.400000
7765 16586 7790 1 109.50000 418.400000
7765 16586 10258 1 109.50000 418.400000
7790 16586 10258 1 109.50000 418.400000
7242 16587 10168 1 109.50000 418.400000
7242 16587 10183 1 109.50000 418.400000
7242 16587 11118 1 109.50000 418.400000
10168 16587 10183 1 109.50000 418.400000
10168 16587 11118 1 109.50000 418.400000
10183 16587 11118 1 109.50000 418.400000
1670 16588 5285 1 109.50000 418.400000
1670 16588 10180 1 109.50000 418.400000
1670 16588 10391 1 109.50000 418.400000
5285 16588 10180 1 109.50000 418.400000
5285 16588 10391 1 109.50000 418.400000
10180 16588 10391 1 109.50000 418.400000
1878 16589 4887 1 109.50000 418.400000
1878 16589 7927 1 109.50000 418.400000
1878 16589 8571 1 109.50000 418.400000
4887 16589 7927 1 109.50000 418.400000
4887 16589 8571 1 109.50000 418.400000
7927 16589 8571 1 109.50000 418.400000
3013 16590 11137 1 109.50000 418.400000
3013 16590 11242 1 109.50000 418.400000
3013 16590 11346 1 109.50000 418.400000
11137 16590 11242 1 109.50000 418.400000
11137 16590 11346 1 109.50000 418.400000
11242 16590 11346 1 109.50000 418.400000
1739 16591 1741 1 109.50000 418.400000
1739 16591 6036 1 109.50000 418.400000
1739 16591 11088 1 109.50000 418.400000
1741 16591 6036 1 109.50000 418.400000
1741 16591 11088 1 109.50000 418.400000
6036 16591 11088 1 109.50000 418.400000
9278 16592 10174 1 109.50000 418.400000
9278 16592 11019 1 109.50000 418.400000
9278 16592 11135 1 109.50000 418.400000
10174 16592 11019 1 109.50000 418.400000
10174 16592 11135 1 109.50000 418.400000
11019 16592 11135 1 109.50000 418.400000
77 16593 6088 1 109.50000 418.400000
77 16593 10869 1 109.50000 418.400000
77 16593 11105 1 109.50000 418.400000
6088 16593 10869 1 109.50000 418.400000
6088 16593 11105 1 109.50000 418.400000
10869 16593 11105 1 109.50000 418.400000
3275 16594 4647 1 109.50000 418.400000
3275 16594 9806 1 109.50000 418.400000
3275 16594 10886 1 109.50000 418.400000
4647 16594 9806 1 109.50000 418.400000
4647 16594 10886 1 109.50000 418.400000
9806 16594 10886 1 109.50000 418.400000
712 16595 8255 1 109.50000 418.400000
712 16595 8336 1 109.50000 418.400000
712 16595 10881 1 109.50000 418.400000
8255 16595 8336 1 109.50000 418.400000
8255 16595 10881 1 109.50000 418.400000
8336 16595 10881 1 109.50000 418.400000
83 16596 9429 1 109.50000 418.400000
83 16596 9716 1 109.50000 418.400000
83 16596 10157 1 109.50000 418.400000
9429 16596 9716 1 109.50000 418.400000
9429 16596 10157 1 109.50000 418.400000
9716 16596 10157 1 109.50000 418.400000
10280 16597 10298 1 109.50000 418.400000
10280 16597 10309 1 109.50000 418.400000
10280 16597 10748 1 109.50000 418.400000
10298 16597 10309 1 109.50000 418.400000
10298 16597 10748 1 109.50000 418.400000
10309 16597 10748 1 109.50000 418.400000
6076 16598 7112 1 109.50000 418.400000
6076 16598 8312 1 109.50000 418.400000
6076 16598 10939 1 109.50000 418.400000
7112 16598 8312 1 109.50000 418.400000
7112 16598 10939 1 109.50000 418.400000
8312 16598 10939 1 109.50000 418.400000
7616 16599 10226 1 109.50000 418.400000
7616 16599 10896 1 109.50000 418.400000
7616 16599 10961 1 109.50000 418.400000
10226 16599 10896 1 109.50000 418.400000
10226 16599 10961 1 109.50000 418.400000
10896 16599 10961 1 109.50000 418.400000
2389 16600 10037 1 109.50000 418.400000
2389 16600 11131 1 109.50000 418.400000
2389 16600 11132 1 109.50000 418.400000
10037 16600 11131 1 109.50000 418.400000
10037 16600 11132 1 109.50000 418.400000
11131 16600 11132 1 109.50000 418.400000
614 16601 7832 1 109.50000 418.400000
614 16601 7833 1 109.50000 418.400000
614 16601 10256 1 109.50000 418.400000
7832 16601 7833 1 109.50000 418.400000
7832 16601 10256 1 109.50000 418.400000
7833 16601 10256 1 109.50000 418.400000
5117 16602 5513 1 109.50000 418.400000
5117 16602 8971 1 109.50000 418.400000
5117 16602 10350 1 109.50000 418.400000
5513 16602 8971 1 109.50000 418.400000
5513 16602 10350 1 109.50000 418.400000
8971 16602 10350 1 109.50000 418.400000
8225 16603 10196 1 109.50000 418.400000
8225 16603 10573 1 109.50000 418.400000
8225 16603 11015 1 109.50000 418.400000
10196 16603 10573 1 109.50000 418.400000
10196 16603 11015 1 109.50000 418.400000
10573 16603 11015 1 109.50000 418.400000
990 16604 3918 1 109.50000 418.400000
990 16604 5487 1 109.50000 418.400000
990 16604 7552 1 109.50000 418.400000
3918 16604 5487 1 109.50000 418.400000
3918 16604 7552 1 109.50000 418.400000
5487 16604 7552 1 109.50000 418.400000
2823 16605 3283 1 109.50000 418.400000
2823 16605 8524 1 109.50000 418.400000
2823 16605 8987 1 109.50000 418.400000
3283 16605 8524 1 109.50000 418.400000
3283 16605 8987 1 109.50000 418.400000
8524 16605 8987 1 109.50000 418.400000
6677 16606 10059 1 109.50000 418.400000
6677 16606 11033 1 109.50000 418.400000
6677 16606 11099 1 109.50000 418.400000
10059 16606 11033 1 109.50000 418.400000
10059 16606 11099 1 109.50000 418.400000
11033 16606 11099 1 109.50000 418.400000
2663 16607 6355 1 109.50000 418.400000
2663 16607 6959 1 109.50000 418.400000
2663 16607 8963 1 109.50000 418.400000
6355 16607 6959 1 109.50000 418.400000
6355 16607 8963 1 109.50000 418.400000
6959 16607 8963 1 109.50000 418.400000
660 16608 1902 1 109.50000 418.400000
660 16608 10934 1 109.50000 418.400000
660 16608 11134 1 109.50000 418.400000
1902 16608 10934 1 109.50000 418.400000
1902 16608 11134 1 109.50000 418.400000
10934 16608 11134 1 109.50000 418.400000
2923 16609 5081 1 109.50000 418.400000
2923 16609 5436 1 109.50000 418.400000
2923 16609 9475 1 109.50000 418.400000
5081 16609 5436 1 109.50000 418.400000
5081 16609 9475 1 109.50000 418.400000
5436 16609 9475 1 109.50000 418.400000
1776 16610 3011 1 109.50000 418.400000
1776 16610 8518 1 109.50000 418.400000
1776 16610 10947 1 109.50000 418.400000
3011 16610 8518 1 109.50000 418.400000
3011 16610 10947 1 109.50000 418.400000
8518 16610 10947 1 109.50000 418.400000
2644 16611 3986 1 109.50000 418.400000
2644 16611 6752 1 109.50000 418.400000
2644 16611 9439 1 109.50000 418.400000
3986 16611 6752 1 109.50000 418.400000
3986 16611 9439 1 109.50000 418.400000
6752 16611 9439 1 109.50000 418.400000
1074 16612 1661 1 109.50000 418.400000
1074 16612 4448 1 109.50000 418.400000
1074 16612 11036 1 109.50000 418.400000
1661 16612 4448 1 109.50000 418.400000
1661 16612 11036 1 109.50000 418.400000
4448 16612 11036 1 109.50000 418.400000
6151 16613 8081 1 109.50000 418.400000
6151 16613 10148 1 109.50000 418.400000
6151 16613 11312 1 109.50000 418.400000
8081 16613 10148 1 109.50000 418.400000
8081 16613 11312 1 109.50000 418.400000
10148 16613 11312 1 109.50000 418.400000
4661 16614 5106 1 109.50000 418.400000
4661 16614 7454 1 109.50000 418.400000
4661 16614 8268 1 109.50000 418.400000
5106 16614 7454 1 109.50000 418.400000
5106 16614 8268 1 109.50000 418.400000
7454 16614 8268 1 109.50000 418.400000
3485 16615 3536 1 109.50000 418.400000
3485 16615 4290 1 109.50000 418.400000
3485 16615 10360 1 109.50000 418.400000
3536 16615 4290 1 109.50000 418.400000
3536 16615 10360 1 109.50000 418.400000
4290 16615 10360 1 109.50000 418.400000
177 16616 1271 1 109.50000 418.400000
177 16616 1805 1 109.50000 418.400000
177 16616 3357 1 109.50000 418.400000
1271 16616 1805 1 109.50000 418.400000
1271 16616 3357 1 109.50000 418.400000
1805 16616 3357 1 109.50000 418.400000
948 16617 6340 1 109.50000 418.400000
948 16617 8958 1 109.50000 418.400000
948 16617 10292 1 109.50000 418.400000
6340 16617 8958 1 109.50000 418.400000
6340 16617 10292 1 109.50000 418.400000
8958 16617 10292 1 109.50000 418.400000
645 16618 2721 1 109.50000 418.400000
645 16618 6714 1 109.50000 418.400000
645 16618 9793 1 109.50000 418.400000
2721 16618 6714 1 109.50000 418.400000
2721 16618 9793 1 109.50000 418.400000
6714 16618 9793 1 109.50000 418.400000
5591 16619 7331 1 109.50000 418.400000
5591 16619 10202 1 109.50000 418.400000
5591 16619 11136 1 109.50000 418.400000
7331 16619 10202 1 109.50000 418.400000
7331 16619 11136 1 109.50000 418.400000
10202 16619 11136 1 109.50000 418.400000
1447 16620 1824 1 109.50000 418.400000
1447 16620 2794 1 109.50000 418.400000
1447 16620 3201 1 109.50000 418.400000
1824 16620 2794 1 109.50000 418.400000
1824 16620 3201 1 109.50000 418.400000
2794 16620 3201 1 109.50000 418.400000
9165 16621 10229 1 109.50000 418.400000
9165 16621 10402 1 109.50000 418.400000
9165 16621 10800 1 109.50000 418.400000
10229 16621 10402 1 109.50000 418.400000
10229 16621 10800 1 109.50000 418.400000
10402 16621 10800 1 109.50000 418.400000
8160 16622 9522 1 109.50000 418.400000
8160 16622 10244 1 109.50000 418.400000
8160 16622 11119 1 109.50000 418.400000
9522 16622 10244 1 109.50000 418.400000
9522 16622 11119 1 109.50000 418.400000
10244 16622 11119 1 109.50000 418.400000
4866 16623 5887 1 109.50000 418.400000
4866 16623 7830 1 109.50000 418.400000
4866 16623 10996 1 109.50000 418.400000
5887 16623 7830 1 109.50000 418.400000
5887 16623 10996 1 109.50000 418.400000
7830 16623 10996 1 109.50000 418.400000
3238 16624 4431 1 109.50000 418.400000
3238 16624 9080 1 109.50000 418.400000
3238 16624 10297 1 109.50000 418.400000
4431 16624 9080 1 109.50000 418.400000
4431 16624 10297 1 109.50000 418.400000
9080 16624 10297 1 109.50000 418.400000
8273 16625 9095 1 109.50000 418.400000
8273 16625 9418 1 109.50000 418.400000
8273 16625 10344 1 109.50000 418.400000
9095 16625 9418 1 109.50000 418.400000
9095 16625 10344 1 109.50000 418.400000
9418 16625 10344 1 109.50000 418.400000
5071 16626 6175 1 109.50000 418.400000
5071 16626 6178 1 109.50000 418.400000
5071 16626 6787 1 109.50000 418.400000
6175 16626 6178 1 109.50000 418.400000
6175 16626 6787 1 109.50000 418.400000
6178 16626 6787 1 109.50000 418.400000
16627 16628 16629 1 119.8800511 375.723200
16627 16628 16637 1 119.8800511 375.723200
16629 16628 16637 1 120.0200517 532.790560
16628 16629 16630 1 121.3800518 83.010560
16628 16629 16631 1 120.0200517 532.790560
16630 16629 16631 1 121.3800518 83.010560
8865 16630 9164 1 109.50000 418.400000
8865 16630 16629 1 103.70004 836.800000
8865 16630 16639 1 109.50000 418.400000
9164 16630 16629 1 103.70004 836.800000
9164 16630 16639 1 109.50000 418.400000
16629 16630 16639 1 103.70004 1034.033760
16629 16631 16632 1 119.8800511 375.723200
16629 16631 16633 1 120.0200517 532.790560
16632 16631 16633 1 119.8800511 375.723200
16631 16633 16634 1 119.8800511 375.723200
16631 16633 16635 1 120.0200517 532.790560
16634 16633 16635 1 119.8800511 375.723200
16633 16635 16636 1 119.8800511 375.723200
16633 16635 16637 1 120.0200517 532.790560
16636 16635 16637 1 119.8800511 375.723200
16628 16637 16635 1 120.0200517 532.790560
16628 16637 16638 1 119.8800511 375.723200
16635 16637 16638 1 119.8800511 375.723200
16630 16639 16640 1 115.00000 209.200000
16641 16642 16643 1 119.8800511 375.723200
16641 16642 16651 1 119.8800511 375.723200
16643 16642 16651 1 120.0200517 532.790560
16642 16643 16644 1 121.3800518 83.010560
16642 16643 16645 1 120.0200517 532.790560
16644 16643 16645 1 121.3800518 83.010560
2684 16644 4172 1 109.50000 418.400000
2684 16644 16643 1 103.70004 836.800000
2684 16644 16653 1 109.50000 418.400000
4172 16644 16643 1 103.70004 836.800000
4172 16644 16653 1 109.50000 418.400000
16643 16644 16653 1 103.70004 1034.033760
16643 16645 16646 1 119.8800511 375.723200
16643 16645 16647 1 120.0200517 532.790560
16646 16645 16647 1 119.8800511 375.723200
16645 16647 16648 1 119.8800511 375.723200
16645 16647 16649 1 120.0200517 532.790560
16648 16647 16649 1 119.8800511 375.723200
16647 16649 16650 1 119.8800511 375.723200
16647 16649 16651 1 120.0200517 532.790560
16650 16649 16651 1 119.8800511 375.723200
16642 16651 16649 1 120.0200517 532.790560
16642 16651 16652 1 119.8800511 375.723200
16649 16651 16652 1 119.8800511 375.723200
16644 16653 16654 1 115.00000 209.200000
16655 16656 16657 1 119.8800511 375.723200
16655 16656 16665 1 119.8800511 375.723200
16657 16656 16665 1 120.0200517 532.790560
16656 16657 16658 1 121.3800518 83.010560
16656 16657 16659 1 120.0200517 532.790560
16658 16657 16659 1 121.3800518 83.010560
2217 16658 4435 1 109.50000 418.400000
2217 16658 16657 1 103.70004 836.800000
2217 16658 16667 1 109.50000 418.400000
4435 16658 16657 1 103.70004 836.800000
4435 16658 16667 1 109.50000 418.400000
16657 16658 16667 1 103.70004 1034.033760
16657 16659 16660 1 119.8800511 375.723200
16657 16659 16661 1 120.0200517 532.790560
16660 16659 16661 1 119.8800511 375.723200
16659 16661 16662 1 119.8800511 375.723200
16659 16661 16663 1 120.0200517 532.790560
16662 16661 16663 1 119.8800511 375.723200
16661 16663 16664 1 119.8800511 375.723200
16661 16663 16665 1 120.0200517 532.790560
16664 16663 16665 1 119.8800511 375.723200
16656 16665 16663 1 120.0200517 532.790560
16656 16665 16666 1 119.8800511 375.723200
16663 16665 16666 1 119.8800511 375.723200
16658 16667 16668 1 115.00000 209.200000
16669 16670 16671 1 119.8800511 375.723200
16669 16670 16679 1 119.8800511 375.723200
16671 16670 16679 1 120.0200517 532.790560
16670 16671 16672 1 121.3800518 83.010560
16670 16671 16673 1 120.0200517 532.790560
16672 16671 16673 1 121.3800518 83.010560
3223 16672 3224 1 109.50000 418.400000
3223 16672 16671 1 103.70004 836.800000
3223 16672 16681 1 109.50000 418.400000
3224 16672 16671 1 103.70004 836.800000
3224 16672 16681 1 109.50000 418.400000
16671 16672 16681 1 103.70004 1034.033760
16671 16673 16674 1 119.8800511 375.723200
16671 16673 16675 1 120.0200517 532.790560
16674 16673 16675 1 119.8800511 375.723200
16673 16675 16676 1 119.8800511 375.723200
16673 16675 16677 1 120.0200517 532.790560
16676 16675 16677 1 119.8800511 375.723200
16675 16677 16678 1 119.8800511 375.723200
16675 16677 16679 1 120.0200517 532.790560
16678 16677 16679 1 119.8800511 375.723200
16670 16679 16677 1 120.0200517 532.790560
16670 16679 16680 1 119.8800511 375.723200
16677 16679 16680 1 119.8800511 375.723200
16672 16681 16682 1 115.00000 209.200000
16683 16684 16685 1 119.8800511 375.723200
16683 16684 16693 1 119.8800511 375.723200
16685 16684 16693 1 120.0200517 532.790560
16684 16685 16686 1 121.3800518 83.010560
16684 16685 16687 1 120.0200517 532.790560
16686 16685 16687 1 121.3800518 83.010560
9189 16686 10440 1 109.50000 418.400000
9189 16686 16685 1 103.70004 836.800000
9189 16686 16695 1 109.50000 418.400000
10440 16686 16685 1 103.70004 836.800000
10440 16686 16695 1 109.50000 418.400000
16685 16686 16695 1 103.70004 1034.033760
16685 16687 16688 1 119.8800511 375.723200
16685 16687 16689 1 120.0200517 532.790560
16688 16687 16689 1 119.8800511 375.723200
16687 16689 16690 1 119.8800511 375.723200
16687 16689 16691 1 120.0200517 532.790560
16690 16689 16691 1 119.8800511 375.723200
16689 16691 16692 1 119.8800511 375.723200
16689 16691 16693 1 120.0200517 532.790560
16692 16691 16693 1 119.8800511 375.723200
16684 16693 16691 1 120.0200517 532.790560
16684 16693 16694 1 119.8800511 375.723200
16691 16693 16694 1 119.8800511 375.723200
16686 16695 16696 1 115.00000 209.200000
16697 16698 16699 1 119.8800511 375.723200
16697 16698 16707 1 119.8800511 375.723200
16699 16698 16707 1 120.0200517 532.790560
16698 16699 16700 1 121.3800518 83.010560
16698 16699 16701 1 120.0200517 532.790560
16700 16699 16701 1 121.3800518 83.010560
2500 16700 2501 1 109.50000 418.400000
2500 16700 16699 1 103.70004 836.800000
2500 16700 16709 1 109.50000 418.400000
2501 16700 16699 1 103.70004 836.800000
2501 16700 16709 1 109.50000 418.400000
16699 16700 16709 1 103.70004 1034.033760
16699 16701 16702 1 119.8800511 375.723200
16699 16701 16703 1 120.0200517 532.790560
16702 16701 16703 1 119.8800511 375.723200
16701 16703 16704 1 119.8800511 375.723200
16701 16703 16705 1 120.0200517 532.790560
16704 16703 16705 1 119.8800511 375.723200
16703 16705 16706 1 119.8800511 375.723200
16703 16705 16707 1 120.0200517 532.790560
16706 16705 16707 1 119.8800511 375.723200
16698 16707 16705 1 120.0200517 532.790560
16698 16707 16708 1 119.8800511 375.723200
16705 16707 16708 1 119.8800511 375.723200
16700 16709 16710 1 115.00000 209.200000
16711 16712 16713 1 119.8800511 375.723200
16711 16712 16721 1 119.8800511 375.723200
16713 16712 16721 1 120.0200517 532.790560
16712 16713 16714 1 121.3800518 83.010560
16712 16713 16715 1 120.0200517 532.790560
16714 16713 16715 1 121.3800518 83.010560
5000 16714 6267 1 109.50000 418.400000
5000 16714 16713 1 103.70004 836.800000
5000 16714 16723 1 109.50000 418.400000
6267 16714 16713 1 103.70004 836.800000
6267 16714 16723 1 109.50000 418.400000
16713 16714 16723 1 103.70004 1034.033760
16713 16715 16716 1 119.8800511 375.723200
16713 16715 16717 1 120.0200517 532.790560
16716 16715 16717 1 119.8800511 375.723200
16715 16717 16718 1 119.8800511 375.723200
16715 16717 16719 1 120.0200517 532.790560
16718 16717 16719 1 119.8800511 375.723200
16717 16719 16720 1 119.8800511 375.723200
16717 16719 16721 1 120.0200517 532.790560
16720 16719 16721 1 119.8800511 375.723200
16712 16721 16719 1 120.0200517 532.790560
16712 16721 16722 1 119.8800511 375.723200
16719 16721 16722 1 119.8800511 375.723200
16714 16723 16724 1 115.00000 209.200000
16725 16726 16727 1 119.8800511 375.723200
16725 16726 16735 1 119.8800511 375.723200
16727 16726 16735 1 120.0200517 532.790560
16726 16727 16728 1 121.3800518 83.010560
16726 16727 16729 1 120.0200517 532.790560
16728 16727 16729 1 121.3800518 83.010560
4650 16728 5919 1 109.50000 418.400000
4650 16728 16727 1 103.70004 836.800000
4650 16728 16737 1 109.50000 418.400000
5919 16728 16727 1 103.70004 836.800000
5919 16728 16737 1 109.50000 418.400000
16727 16728 16737 1 103.70004 1034.033760
16727 16729 16730 1 119.8800511 375.723200
16727 16729 16731 1 120.0200517 532.790560
16730 16729 16731 1 119.8800511 375.723200
16729 16731 16732 1 119.8800511 375.723200
16729 16731 16733 1 120.0200517 532.790560
16732 16731 16733 1 119.8800511 375.723200
16731 16733 16734 1 119.8800511 375.723200
16731 16733 16735 1 120.0200517 532.790560
16734 16733 16735 1 119.8800511 375.723200
16726 16735 16733 1 120.0200517 532.790560
16726 16735 16736 1 119.8800511 375.723200
16733 16735 16736 1 119.8800511 375.723200
16728 16737 16738 1 115.00000 209.200000
16739 16740 16741 1 119.8800511 375.723200
16739 16740 16749 1 119.8800511 375.723200
16741 16740 16749 1 120.0200517 532.790560
16740 16741 16742 1 121.3800518 83.010560
16740 16741 16743 1 120.0200517 532.790560
16742 16741 16743 1 121.3800518 83.010560
1414 16742 4971 1 109.50000 418.400000
1414 16742 16741 1 103.70004 836.800000
1414 16742 16751 1 109.50000 418.400000
4971 16742 16741 1 103.70004 836.800000
4971 16742 16751 1 109.50000 418.400000
16741 16742 16751 1 103.70004 1034.033760
16741 16743 16744 1 119.8800511 375.723200
16741 16743 16745 1 120.0200517 532.790560
16744 16743 16745 1 119.8800511 375.723200
16743 16745 16746 1 119.8800511 375.723200
16743 16745 16747 1 120.0200517 532.790560
16746 16745 16747 1 119.8800511 375.723200
16745 16747 16748 1 119.8800511 375.723200
16745 16747 16749 1 120.0200517 532.790560
16748 16747 16749 1 119.8800511 375.723200
16740 16749 16747 1 120.0200517 532.790560
16740 16749 16750 1 119.8800511 375.723200
16747 16749 16750 1 119.8800511 375.723200
16742 16751 16752 1 115.00000 209.200000
16753 16754 16755 1 119.8800511 375.723200
16753 16754 16763 1 119.8800511 375.723200
16755 16754 16763 1 120.0200517 532.790560
16754 16755 16756 1 121.3800518 83.010560
16754 16755 16757 1 120.0200517 532.790560
16756 16755 16757 1 121.3800518 83.010560
145 16756 4849 1 109.50000 418.400000
145 16756 16755 1 103.70004 836.800000
145 16756 16765 1 109.50000 418.400000
4849 16756 16755 1 103.70004 836.800000
4849 16756 16765 1 109.50000 418.400000
16755 16756 16765 1 103.70004 1034.033760
16755 16757 16758 1 119.8800511 375.723200
16755 16757 16759 1 120.0200517 532.790560
16758 16757 16759 1 119.8800511 375.723200
16757 16759 16760 1 119.8800511 375.723200
16757 16759 16761 1 120.0200517 532.790560
16760 16759 16761 1 119.8800511 375.723200
16759 16761 16762 1 119.8800511 375.723200
16759 16761 16763 1 120.0200517 532.790560
16762 16761 16763 1 119.8800511 375.723200
16754 16763 16761 1 120.0200517 532.790560
16754 16763 16764 1 119.8800511 375.723200
16761 16763 16764 1 119.8800511 375.723200
16756 16765 16766 1 115.00000 209.200000
16767 16768 16769 1 119.8800511 375.723200
16767 16768 16777 1 119.8800511 375.723200
16769 16768 16777 1 120.0200517 532.790560
16768 16769 16770 1 121.3800518 83.010560
16768 16769 16771 1 120.0200517 532.790560
16770 16769 16771 1 121.3800518 83.010560
7812 16770 7813 1 109.50000 418.400000
7812 16770 16769 1 103.70004 836.800000
7812 16770 16779 1 109.50000 418.400000
7813 16770 16769 1 103.70004 836.800000
7813 16770 16779 1 109.50000 418.400000
16769 16770 16779 1 103.70004 1034.033760
16769 16771 16772 1 119.8800511 375.723200
16769 16771 16773 1 120.0200517 532.790560
16772 16771 16773 1 119.8800511 375.723200
16771 16773 16774 1 119.8800511 375.723200
16771 16773 16775 1 120.0200517 532.790560
16774 16773 16775 1 119.8800511 375.723200
16773 16775 16776 1 119.8800511 375.723200
16773 16775 16777 1 120.0200517 532.790560
16776 16775 16777 1 119.8800511 375.723200
16768 16777 16775 1 120.0200517 532.790560
16768 16777 16778 1 119.8800511 375.723200
16775 16777 16778 1 119.8800511 375.723200
16770 16779 16780 1 115.00000 209.200000
16781 16782 16783 1 119.8800511 375.723200
16781 16782 16791 1 119.8800511 375.723200
16783 16782 16791 1 120.0200517 532.790560
16782 16783 16784 1 121.3800518 83.010560
16782 16783 16785 1 120.0200517 532.790560
16784 16783 16785 1 121.3800518 83.010560
24 16784 8067 1 109.50000 418.400000
24 16784 16783 1 103.70004 836.800000
24 16784 16793 1 109.50000 418.400000
8067 16784 16783 1 103.70004 836.800000
8067 16784 16793 1 109.50000 418.400000
16783 16784 16793 1 103.70004 1034.033760
16783 16785 16786 1 119.8800511 375.723200
16783 16785 16787 1 120.0200517 532.790560
16786 16785 16787 1 119.8800511 375.723200
16785 16787 16788 1 119.8800511 375.723200
16785 16787 16789 1 120.0200517 532.790560
16788 16787 16789 1 119.8800511 375.723200
16787 16789 16790 1 119.8800511 375.723200
16787 16789 16791 1 120.0200517 532.790560
16790 16789 16791 1 119.8800511 375.723200
16782 16791 16789 1 120.0200517 532.790560
16782 16791 16792 1 119.8800511 375.723200
16789 16791 16792 1 119.8800511 375.723200
16784 16793 16794 1 115.00000 209.200000
16795 16796 16797 1 119.8800511 375.723200
16795 16796 16805 1 119.8800511 375.723200
16797 16796 16805 1 120.0200517 532.790560
16796 16797 16798 1 121.3800518 83.010560
16796 16797 16799 1 120.0200517 532.790560
16798 16797 16799 1 121.3800518 83.010560
348 16798 5444 1 109.50000 418.400000
348 16798 16797 1 103.70004 836.800000
348 16798 16807 1 109.50000 418.400000
5444 16798 16797 1 103.70004 836.800000
5444 16798 16807 1 109.50000 418.400000
16797 16798 16807 1 103.70004 1034.033760
16797 16799 16800 1 119.8800511 375.723200
16797 16799 16801 1 120.0200517 532.790560
16800 16799 16801 1 119.8800511 375.723200
16799 16801 16802 1 119.8800511 375.723200
16799 16801 16803 1 120.0200517 532.790560
16802 16801 16803 1 119.8800511 375.723200
16801 16803 16804 1 119.8800511 375.723200
16801 16803 16805 1 120.0200517 532.790560
16804 16803 16805 1 119.8800511 375.723200
16796 16805 16803 1 120.0200517 532.790560
16796 16805 16806 1 119.8800511 375.723200
16803 16805 16806 1 119.8800511 375.723200
16798 16807 16808 1 115.00000 209.200000
16809 16810 16811 1 119.8800511 375.723200
16809 16810 16819 1 119.8800511 375.723200
16811 16810 16819 1 120.0200517 532.790560
16810 16811 16812 1 121.3800518 83.010560
16810 16811 16813 1 120.0200517 532.790560
16812 16811 16813 1 121.3800518 83.010560
320 16812 1044 1 109.50000 418.400000
320 16812 16811 1 103.70004 836.800000
320 16812 16821 1 109.50000 418.400000
1044 16812 16811 1 103.70004 836.800000
1044 16812 16821 1 109.50000 418.400000
16811 16812 16821 1 103.70004 1034.033760
16811 16813 16814 1 119.8800511 375.723200
16811 16813 16815 1 120.0200517 532.790560
16814 16813 16815 1 119.8800511 375.723200
16813 16815 16816 1 119.8800511 375.723200
16813 16815 16817 1 120.0200517 532.790560
16816 16815 16817 1 119.8800511 375.723200
16815 16817 16818 1 119.8800511 375.723200
16815 16817 16819 1 120.0200517 532.790560
16818 16817 16819 1 119.8800511 375.723200
16810 16819 16817 1 120.0200517 532.790560
16810 16819 16820 1 119.8800511 375.723200
16817 16819 16820 1 119.8800511 375.723200
16812 16821 16822 1 115.00000 209.200000
16823 16824 16825 1 119.8800511 375.723200
16823 16824 16833 1 119.8800511 375.723200
16825 16824 16833 1 120.0200517 532.790560
16824 16825 16826 1 121.3800518 83.010560
16824 16825 16827 1 120.0200517 532.790560
16826 16825 16827 1 121.3800518 83.010560
374 16826 1718 1 109.50000 418.400000
374 16826 16825 1 103.70004 836.800000
374 16826 16835 1 109.50000 418.400000
1718 16826 16825 1 103.70004 836.800000
1718 16826 16835 1 109.50000 418.400000
16825 16826 16835 1 103.70004 1034.033760
16825 16827 16828 1 119.8800511 375.723200
16825 16827 16829 1 120.0200517 532.790560
16828 16827 16829 1 119.8800511 375.723200
16827 16829 16830 1 119.8800511 375.723200
16827 16829 16831 1 120.0200517 532.790560
16830 16829 16831 1 119.8800511 375.723200
16829 16831 16832 1 119.8800511 375.723200
16829 16831 16833 1 120.0200517 532.790560
16832 16831 16833 1 119.8800511 375.723200
16824 16833 16831 1 120.0200517 532.790560
16824 16833 16834 1 119.8800511 375.723200
16831 16833 16834 1 119.8800511 375.723200
16826 16835 16836 1 115.00000 209.200000
16837 16838 16839 1 119.8800511 375.723200
16837 16838 16847 1 119.8800511 375.723200
16839 16838 16847 1 120.0200517 532.790560
16838 16839 16840 1 121.3800518 83.010560
16838 16839 16841 1 120.0200517 532.790560
16840 16839 16841 1 121.3800518 83.010560
1683 16840 7171 1 109.50000 418.400000
1683 16840 16839 1 103.70004 836.800000
1683 16840 16849 1 109.50000 418.400000
7171 16840 16839 1 103.70004 836.800000
7171 16840 16849 1 109.50000 418.400000
16839 16840 16849 1 103.70004 1034.033760
16839 16841 16842 1 119.8800511 375.723200
16839 16841 16843 1 120.0200517 532.790560
16842 16841 16843 1 119.8800511 375.723200
16841 16843 16844 1 119.8800511 375.723200
16841 16843 16845 1 120.0200517 532.790560
16844 16843 16845 1 119.8800511 375.723200
16843 16845 16846 1 119.8800511 375.723200
16843 16845 16847 1 120.0200517 532.790560
16846 16845 16847 1 119.8800511 375.723200
16838 16847 16845 1 120.0200517 532.790560
16838 16847 16848 1 119.8800511 375.723200
16845 16847 16848 1 119.8800511 375.723200
16840 16849 16850 1 115.00000 209.200000
16851 16852 16853 1 119.8800511 375.723200
16851 16852 16861 1 119.8800511 375.723200
16853 16852 16861 1 120.0200517 532.790560
16852 16853 16854 1 121.3800518 83.010560
16852 16853 16855 1 120.0200517 532.790560
16854 16853 16855 1 121.3800518 83.010560
4861 16854 4862 1 109.50000 418.400000
4861 16854 16853 1 103.70004 836.800000
4861 16854 16863 1 109.50000 418.400000
4862 16854 16853 1 103.70004 836.800000
4862 16854 16863 1 109.50000 418.400000
16853 16854 16863 1 103.70004 1034.033760
16853 16855 16856 1 119.8800511 375.723200
16853 16855 16857 1 120.0200517 532.790560
16856 16855 16857 1 119.8800511 375.723200
16855 16857 16858 1 119.8800511 375.723200
16855 16857 16859 1 120.0200517 532.790560
16858 16857 16859 1 119.8800511 375.723200
16857 16859 16860 1 119.8800511 375.723200
16857 16859 16861 1 120.0200517 532.790560
16860 16859 16861 1 119.8800511 375.723200
16852 16861 16859 1 120.0200517 532.790560
16852 16861 16862 1 119.8800511 375.723200
16859 16861 16862 1 119.8800511 375.723200
16854 16863 16864 1 115.00000 209.200000
16865 16866 16867 1 119.8800511 375.723200
16865 16866 16875 1 119.8800511 375.723200
16867 16866 16875 1 120.0200517 532.790560
16866 16867 16868 1 121.3800518 83.010560
16866 16867 16869 1 120.0200517 532.790560
16868 16867 16869 1 121.3800518 83.010560
7286 16868 8822 1 109.50000 418.400000
7286 16868 16867 1 103.70004 836.800000
7286 16868 16877 1 109.50000 418.400000
8822 16868 16867 1 103.70004 836.800000
8822 16868 16877 1 109.50000 418.400000
16867 16868 16877 1 103.70004 1034.033760
16867 16869 16870 1 119.8800511 375.723200
16867 16869 16871 1 120.0200517 532.790560
16870 16869 16871 1 119.8800511 375.723200
16869 16871 16872 1 119.8800511 375.723200
16869 16871 16873 1 120.0200517 532.790560
16872 16871 16873 1 119.8800511 375.723200
16871 16873 16874 1 119.8800511 375.723200
16871 16873 16875 1 120.0200517 532.790560
16874 16873 16875 1 119.8800511 375.723200
16866 16875 16873 1 120.0200517 532.790560
16866 16875 16876 1 119.8800511 375.723200
16873 16875 16876 1 119.8800511 375.723200
16868 16877 16878 1 115.00000 209.200000
16879 16880 16881 1 119.8800511 375.723200
16879 16880 16889 1 119.8800511 375.723200
16881 16880 16889 1 120.0200517 532.790560
16880 16881 16882 1 121.3800518 83.010560
16880 16881 16883 1 120.0200517 532.790560
16882 16881 16883 1 121.3800518 83.010560
3109 16882 3161 1 109.50000 418.400000
3109 16882 16881 1 103.70004 836.800000
3109 16882 16891 1 109.50000 418.400000
3161 16882 16881 1 103.70004 836.800000
3161 16882 16891 1 109.50000 418.400000
16881 16882 16891 1 103.70004 1034.033760
16881 16883 16884 1 119.8800511 375.723200
16881 16883 16885 1 120.0200517 532.790560
16884 16883 16885 1 119.8800511 375.723200
16883 16885 16886 1 119.8800511 375.723200
16883 16885 16887 1 120.0200517 532.790560
16886 16885 16887 1 119.8800511 375.723200
16885 16887 16888 1 119.8800511 375.723200
16885 16887 16889 1 120.0200517 532.790560
16888 16887 16889 1 119.8800511 375.723200
16880 16889 16887 1 120.0200517 532.790560
16880 16889 16890 1 119.8800511 375.723200
16887 16889 16890 1 119.8800511 375.723200
16882 16891 16892 1 115.00000 209.200000
16893 16894 16895 1 119.8800511 375.723200
16893 16894 16903 1 119.8800511 375.723200
16895 16894 16903 1 120.0200517 532.790560
16894 16895 16896 1 121.3800518 83.010560
16894 16895 16897 1 120.0200517 532.790560
16896 16895 16897 1 121.3800518 83.010560
2233 16896 2234 1 109.50000 418.400000
2233 16896 16895 1 103.70004 836.800000
2233 16896 16905 1 109.50000 418.400000
2234 16896 16895 1 103.70004 836.800000
2234 16896 16905 1 109.50000 418.400000
16895 16896 16905 1 103.70004 1034.033760
16895 16897 16898 1 119.8800511 375.723200
16895 16897 16899 1 120.0200517 532.790560
16898 16897 16899 1 119.8800511 375.723200
16897 16899 16900 1 119.8800511 375.723200
16897 16899 16901 1 120.0200517 532.790560
16900 16899 16901 1 119.8800511 375.723200
16899 16901 16902 1 119.8800511 375.723200
16899 16901 16903 1 120.0200517 532.790560
16902 16901 16903 1 119.8800511 375.723200
16894 16903 16901 1 120.0200517 532.790560
16894 16903 16904 1 119.8800511 375.723200
16901 16903 16904 1 119.8800511 375.723200
16896 16905 16906 1 115.00000 209.200000
16907 16908 16909 1 119.8800511 375.723200
16907 16908 16917 1 119.8800511 375.723200
16909 16908 16917 1 120.0200517 532.790560
16908 16909 16910 1 121.3800518 83.010560
16908 16909 16911 1 120.0200517 532.790560
16910 16909 16911 1 121.3800518 83.010560
1717 16910 6926 1 109.50000 418.400000
1717 16910 16909 1 103.70004 836.800000
1717 16910 16919 1 109.50000 418.400000
6926 16910 16909 1 103.70004 836.800000
6926 16910 16919 1 109.50000 418.400000
16909 16910 16919 1 103.70004 1034.033760
16909 16911 16912 1 119.8800511 375.723200
16909 16911 16913 1 120.0200517 532.790560
16912 16911 16913 1 119.8800511 375.723200
16911 16913 16914 1 119.8800511 375.723200
16911 16913 16915 1 120.0200517 532.790560
16914 16913 16915 1 119.8800511 375.723200
16913 16915 16916 1 119.8800511 375.723200
16913 16915 16917 1 120.0200517 532.790560
16916 16915 16917 1 119.8800511 375.723200
16908 16917 16915 1 120.0200517 532.790560
16908 16917 16918 1 119.8800511 375.723200
16915 16917 16918 1 119.8800511 375.723200
16910 16919 16920 1 115.00000 209.200000
16921 16922 16923 1 119.8800511 375.723200
16921 16922 16931 1 119.8800511 375.723200
16923 16922 16931 1 120.0200517 532.790560
16922 16923 16924 1 121.3800518 83.010560
16922 16923 16925 1 120.0200517 532.790560
16924 16923 16925 1 121.3800518 83.010560
4032 16924 4817 1 109.50000 418.400000
4032 16924 16923 1 103.70004 836.800000
4032 16924 16933 1 109.50000 418.400000
4817 16924 16923 1 103.70004 836.800000
4817 16924 16933 1 109.50000 418.400000
16923 16924 16933 1 103.70004 1034.033760
16923 16925 16926 1 119.8800511 375.723200
16923 16925 16927 1 120.0200517 532.790560
16926 16925 16927 1 119.8800511 375.723200
16925 16927 16928 1 119.8800511 375.723200
16925 16927 16929 1 120.0200517 532.790560
16928 16927 16929 1 119.8800511 375.723200
16927 16929 16930 1 119.8800511 375.723200
16927 16929 16931 1 120.0200517 532.790560
16930 16929 16931 1 119.8800511 375.723200
16922 16931 16929 1 120.0200517 532.790560
16922 16931 16932 1 119.8800511 375.723200
16929 16931 16932 1 119.8800511 375.723200
16924 16933 16934 1 115.00000 209.200000
16935 16936 16937 1 119.8800511 375.723200
16935 16936 16945 1 119.8800511 375.723200
16937 16936 16945 1 120.0200517 532.790560
16936 16937 16938 1 121.3800518 83.010560
16936 16937 16939 1 120.0200517 532.790560
16938 16937 16939 1 121.3800518 83.010560
2432 16938 2433 1 109.50000 418.400000
2432 16938 16937 1 103.70004 836.800000
2432 16938 16947 1 109.50000 418.400000
2433 16938 16937 1 103.70004 836.800000
2433 16938 16947 1 109.50000 418.400000
16937 16938 16947 1 103.70004 1034.033760
16937 16939 16940 1 119.8800511 375.723200
16937 16939 16941 1 120.0200517 532.790560
16940 16939 16941 1 119.8800511 375.723200
16939 16941 16942 1 119.8800511 375.723200
16939 16941 16943 1 120.0200517 532.790560
16942 16941 16943 1 119.8800511 375.723200
16941 16943 16944 1 119.8800511 375.723200
16941 16943 16945 1 120.0200517 532.790560
16944 16943 16945 1 119.8800511 375.723200
16936 16945 16943 1 120.0200517 532.790560
16936 16945 16946 1 119.8800511 375.723200
16943 16945 16946 1 119.8800511 375.723200
16938 16947 16948 1 115.00000 209.200000
16949 16950 16951 1 119.8800511 375.723200
16949 16950 16959 1 119.8800511 375.723200
16951 16950 16959 1 120.0200517 532.790560
16950 16951 16952 1 121.3800518 83.010560
16950 16951 16953 1 120.0200517 532.790560
16952 16951 16953 1 121.3800518 83.010560
1866 16952 1867 1 109.50000 418.400000
1866 16952 16951 1 103.70004 836.800000
1866 16952 16961 1 109.50000 418.400000
1867 16952 16951 1 103.70004 836.800000
1867 16952 16961 1 109.50000 418.400000
16951 16952 16961 1 103.70004 1034.033760
16951 16953 16954 1 119.8800511 375.723200
16951 16953 16955 1 120.0200517 532.790560
16954 16953 16955 1 119.8800511 375.723200
16953 16955 16956 1 119.8800511 375.723200
16953 16955 16957 1 120.0200517 532.790560
16956 16955 16957 1 119.8800511 375.723200
16955 16957 16958 1 119.8800511 375.723200
16955 16957 16959 1 120.0200517 532.790560
16958 16957 16959 1 119.8800511 375.723200
16950 16959 16957 1 120.0200517 532.790560
16950 16959 16960 1 119.8800511 375.723200
16957 16959 16960 1 119.8800511 375.723200
16952 16961 16962 1 115.00000 209.200000
16963 16964 16965 1 119.8800511 375.723200
16963 16964 16973 1 119.8800511 375.723200
16965 16964 16973 1 120.0200517 532.790560
16964 16965 16966 1 121.3800518 83.010560
16964 16965 16967 1 120.0200517 532.790560
16966 16965 16967 1 121.3800518 83.010560
499 16966 6558 1 109.50000 418.400000
499 16966 16965 1 103.70004 836.800000
499 16966 16975 1 109.50000 418.400000
6558 16966 16965 1 103.70004 836.800000
6558 16966 16975 1 109.50000 418.400000
16965 16966 16975 1 103.70004 1034.033760
16965 16967 16968 1 119.8800511 375.723200
16965 16967 16969 1 120.0200517 532.790560
16968 16967 16969 1 119.8800511 375.723200
16967 16969 16970 1 119.8800511 375.723200
16967 16969 16971 1 120.0200517 532.790560
16970 16969 16971 1 119.8800511 375.723200
16969 16971 16972 1 119.8800511 375.723200
16969 16971 16973 1 120.0200517 532.790560
16972 16971 16973 1 119.8800511 375.723200
16964 16973 16971 1 120.0200517 532.790560
16964 16973 16974 1 119.8800511 375.723200
16971 16973 16974 1 119.8800511 375.723200
16966 16975 16976 1 115.00000 209.200000
16977 16978 16979 1 119.8800511 375.723200
16977 16978 16987 1 119.8800511 375.723200
16979 16978 16987 1 120.0200517 532.790560
16978 16979 16980 1 121.3800518 83.010560
16978 16979 16981 1 120.0200517 532.790560
16980 16979 16981 1 121.3800518 83.010560
3184 16980 6126 1 109.50000 418.400000
3184 16980 16979 1 103.70004 836.800000
3184 16980 16989 1 109.50000 418.400000
6126 16980 16979 1 103.70004 836.800000
6126 16980 16989 1 109.50000 418.400000
16979 16980 16989 1 103.70004 1034.033760
16979 16981 16982 1 119.8800511 375.723200
16979 16981 16983 1 120.0200517 532.790560
16982 16981 16983 1 119.8800511 375.723200
16981 16983 16984 1 119.8800511 375.723200
16981 16983 16985 1 120.0200517 532.790560
16984 16983 16985 1 119.8800511 375.723200
16983 16985 16986 1 119.8800511 375.723200
16983 16985 16987 1 120.0200517 532.790560
16986 16985 16987 1 119.8800511 375.723200
16978 16987 16985 1 120.0200517 532.790560
16978 16987 16988 1 119.8800511 375.723200
16985 16987 16988 1 119.8800511 375.723200
16980 16989 16990 1 115.00000 209.200000
16991 16992 16993 1 119.8800511 375.723200
16991 16992 17001 1 119.8800511 375.723200
16993 16992 17001 1 120.0200517 532.790560
16992 16993 16994 1 121.3800518 83.010560
16992 16993 16995 1 120.0200517 532.790560
16994 16993 16995 1 121.3800518 83.010560
5462 16994 9563 1 109.50000 418.400000
5462 16994 16993 1 103.70004 836.800000
5462 16994 17003 1 109.50000 418.400000
9563 16994 16993 1 103.70004 836.800000
9563 16994 17003 1 109.50000 418.400000
16993 16994 17003 1 103.70004 1034.033760
16993 16995 16996 1 119.8800511 375.723200
16993 16995 16997 1 120.0200517 532.790560
16996 16995 16997 1 119.8800511 375.723200
16995 16997 16998 1 119.8800511 375.723200
16995 16997 16999 1 120.0200517 532.790560
16998 16997 16999 1 119.8800511 375.723200
16997 16999 17000 1 119.8800511 375.723200
16997 16999 17001 1 120.0200517 532.790560
17000 16999 17001 1 119.8800511 375.723200
16992 17001 16999 1 120.0200517 532.790560
16992 17001 17002 1 119.8800511 375.723200
16999 17001 17002 1 119.8800511 375.723200
16994 17003 17004 1 115.00000 209.200000
17005 17006 17007 1 119.8800511 375.723200
17005 17006 17015 1 119.8800511 375.723200
17007 17006 17015 1 120.0200517 532.790560
17006 17007 17008 1 121.3800518 83.010560
17006 17007 17009 1 120.0200517 532.790560
17008 17007 17009 1 121.3800518 83.010560
1742 17008 4270 1 109.50000 418.400000
1742 17008 17007 1 103.70004 836.800000
1742 17008 17017 1 109.50000 418.400000
4270 17008 17007 1 103.70004 836.800000
4270 17008 17017 1 109.50000 418.400000
17007 17008 17017 1 103.70004 1034.033760
17007 17009 17010 1 119.8800511 375.723200
17007 17009 17011 1 120.0200517 532.790560
17010 17009 17011 1 119.8800511 375.723200
17009 17011 17012 1 119.8800511 375.723200
17009 17011 17013 1 120.0200517 532.790560
17012 17011 17013 1 119.8800511 375.723200
17011 17013 17014 1 119.8800511 375.723200
17011 17013 17015 1 120.0200517 532.790560
17014 17013 17015 1 119.8800511 375.723200
17006 17015 17013 1 120.0200517 532.790560
17006 17015 17016 1 119.8800511 375.723200
17013 17015 17016 1 119.8800511 375.723200
17008 17017 17018 1 115.00000 209.200000
17019 17020 17021 1 119.8800511 375.723200
17019 17020 17029 1 119.8800511 375.723200
17021 17020 17029 1 120.0200517 532.790560
17020 17021 17022 1 121.3800518 83.010560
17020 17021 17023 1 120.0200517 532.790560
17022 17021 17023 1 121.3800518 83.010560
5997 17022 10786 1 109.50000 418.400000
5997 17022 17021 1 103.70004 836.800000
5997 17022 17031 1 109.50000 418.400000
10786 17022 17021 1 103.70004 836.800000
10786 17022 17031 1 109.50000 418.400000
17021 17022 17031 1 103.70004 1034.033760
17021 17023 17024 1 119.8800511 375.723200
17021 17023 17025 1 120.0200517 532.790560
17024 17023 17025 1 119.8800511 375.723200
17023 17025 17026 1 119.8800511 375.723200
17023 17025 17027 1 120.0200517 532.790560
17026 17025 17027 1 119.8800511 375.723200
17025 17027 17028 1 119.8800511 375.723200
17025 17027 17029 1 120.0200517 532.790560
17028 17027 17029 1 119.8800511 375.723200
17020 17029 17027 1 120.0200517 532.790560
17020 17029 17030 1 119.8800511 375.723200
17027 17029 17030 1 119.8800511 375.723200
17022 17031 17032 1 115.00000 209.200000
17033 17034 17035 1 119.8800511 375.723200
17033 17034 17043 1 119.8800511 375.723200
17035 17034 17043 1 120.0200517 532.790560
17034 17035 17036 1 121.3800518 83.010560
17034 17035 17037 1 120.0200517 532.790560
17036 17035 17037 1 121.3800518 83.010560
1481 17036 3644 1 109.50000 418.400000
1481 17036 17035 1 103.70004 836.800000
1481 17036 17045 1 109.50000 418.400000
3644 17036 17035 1 103.70004 836.800000
3644 17036 17045 1 109.50000 418.400000
17035 17036 17045 1 103.70004 1034.033760
17035 17037 17038 1 119.8800511 375.723200
17035 17037 17039 1 120.0200517 532.790560
17038 17037 17039 1 119.8800511 375.723200
17037 17039 17040 1 119.8800511 375.723200
17037 17039 17041 1 120.0200517 532.790560
17040 17039 17041 1 119.8800511 375.723200
17039 17041 17042 1 119.8800511 375.723200
17039 17041 17043 1 120.0200517 532.790560
17042 17041 17043 1 119.8800511 375.723200
17034 17043 17041 1 120.0200517 532.790560
17034 17043 17044 1 119.8800511 375.723200
17041 17043 17044 1 119.8800511 375.723200
17036 17045 17046 1 115.00000 209.200000
17047 17048 17049 1 119.8800511 375.723200
17047 17048 17057 1 119.8800511 375.723200
17049 17048 17057 1 120.0200517 532.790560
17048 17049 17050 1 121.3800518 83.010560
17048 17049 17051 1 120.0200517 532.790560
17050 17049 17051 1 121.3800518 83.010560
5258 17050 6199 1 109.50000 418.400000
5258 17050 17049 1 103.70004 836.800000
5258 17050 17059 1 109.50000 418.400000
6199 17050 17049 1 103.70004 836.800000
6199 17050 17059 1 109.50000 418.400000
17049 17050 17059 1 103.70004 1034.033760
17049 17051 17052 1 119.8800511 375.723200
17049 17051 17053 1 120.0200517 532.790560
17052 17051 17053 1 119.8800511 375.723200
17051 17053 17054 1 119.8800511 375.723200
17051 17053 17055 1 120.0200517 532.790560
17054 17053 17055 1 119.8800511 375.723200
17053 17055 17056 1 119.8800511 375.723200
17053 17055 17057 1 120.0200517 532.790560
17056 17055 17057 1 119.8800511 375.723200
17048 17057 17055 1 120.0200517 532.790560
17048 17057 17058 1 119.8800511 375.723200
17055 17057 17058 1 119.8800511 375.723200
17050 17059 17060 1 115.00000 209.200000
17061 17062 17063 1 119.8800511 375.723200
17061 17062 17071 1 119.8800511 375.723200
17063 17062 17071 1 120.0200517 532.790560
17062 17063 17064 1 121.3800518 83.010560
17062 17063 17065 1 120.0200517 532.790560
17064 17063 17065 1 121.3800518 83.010560
7066 17064 7470 1 109.50000 418.400000
7066 17064 17063 1 103.70004 836.800000
7066 17064 17073 1 109.50000 418.400000
7470 17064 17063 1 103.70004 836.800000
7470 17064 17073 1 109.50000 418.400000
17063 17064 17073 1 103.70004 1034.033760
17063 17065 17066 1 119.8800511 375.723200
17063 17065 17067 1 120.0200517 532.790560
17066 17065 17067 1 119.8800511 375.723200
17065 17067 17068 1 119.8800511 375.723200
17065 17067 17069 1 120.0200517 532.790560
17068 17067 17069 1 119.8800511 375.723200
17067 17069 17070 1 119.8800511 375.723200
17067 17069 17071 1 120.0200517 532.790560
17070 17069 17071 1 119.8800511 375.723200
17062 17071 17069 1 120.0200517 532.790560
17062 17071 17072 1 119.8800511 375.723200
17069 17071 17072 1 119.8800511 375.723200
17064 17073 17074 1 115.00000 209.200000
17075 17076 17077 1 119.8800511 375.723200
17075 17076 17085 1 119.8800511 375.723200
17077 17076 17085 1 120.0200517 532.790560
17076 17077 17078 1 121.3800518 83.010560
17076 17077 17079 1 120.0200517 532.790560
17078 17077 17079 1 121.3800518 83.010560
8173 17078 9098 1 109.50000 418.400000
8173 17078 17077 1 103.70004 836.800000
8173 17078 17087 1 109.50000 418.400000
9098 17078 17077 1 103.70004 836.800000
9098 17078 17087 1 109.50000 418.400000
17077 17078 17087 1 103.70004 1034.033760
17077 17079 17080 1 119.8800511 375.723200
17077 17079 17081 1 120.0200517 532.790560
17080 17079 17081 1 119.8800511 375.723200
17079 17081 17082 1 119.8800511 375.723200
17079 17081 17083 1 120.0200517 532.790560
17082 17081 17083 1 119.8800511 375.723200
17081 17083 17084 1 119.8800511 375.723200
17081 17083 17085 1 120.0200517 532.790560
17084 17083 17085 1 119.8800511 375.723200
17076 17085 17083 1 120.0200517 532.790560
17076 17085 17086 1 119.8800511 375.723200
17083 17085 17086 1 119.8800511 375.723200
17078 17087 17088 1 115.00000 209.200000
17089 17090 17091 1 119.8800511 375.723200
17089 17090 17099 1 119.8800511 375.723200
17091 17090 17099 1 120.0200517 532.790560
17090 17091 17092 1 121.3800518 83.010560
17090 17091 17093 1 120.0200517 532.790560
17092 17091 17093 1 121.3800518 83.010560
1455 17092 7180 1 109.50000 418.400000
1455 17092 17091 1 103.70004 836.800000
1455 17092 17101 1 109.50000 418.400000
7180 17092 17091 1 103.70004 836.800000
7180 17092 17101 1 109.50000 418.400000
17091 17092 17101 1 103.70004 1034.033760
17091 17093 17094 1 119.8800511 375.723200
17091 17093 17095 1 120.0200517 532.790560
17094 17093 17095 1 119.8800511 375.723200
17093 17095 17096 1 119.8800511 375.723200
17093 17095 17097 1 120.0200517 532.790560
17096 17095 17097 1 119.8800511 375.723200
17095 17097 17098 1 119.8800511 375.723200
17095 17097 17099 1 120.0200517 532.790560
17098 17097 17099 1 119.8800511 375.723200
17090 17099 17097 1 120.0200517 532.790560
17090 17099 17100 1 119.8800511 375.723200
17097 17099 17100 1 119.8800511 375.723200
17092 17101 17102 1 115.00000 209.200000
17103 17104 17105 1 119.8800511 375.723200
17103 17104 17113 1 119.8800511 375.723200
17105 17104 17113 1 120.0200517 532.790560
17104 17105 17106 1 121.3800518 83.010560
17104 17105 17107 1 120.0200517 532.790560
17106 17105 17107 1 121.3800518 83.010560
4701 17106 7064 1 109.50000 418.400000
4701 17106 17105 1 103.70004 836.800000
4701 17106 17115 1 109.50000 418.400000
7064 17106 17105 1 103.70004 836.800000
7064 17106 17115 1 109.50000 418.400000
17105 17106 17115 1 103.70004 1034.033760
17105 17107 17108 1 119.8800511 375.723200
17105 17107 17109 1 120.0200517 532.790560
17108 17107 17109 1 119.8800511 375.723200
17107 17109 17110 1 119.8800511 375.723200
17107 17109 17111 1 120.0200517 532.790560
17110 17109 17111 1 119.8800511 375.723200
17109 17111 17112 1 119.8800511 375.723200
17109 17111 17113 1 120.0200517 532.790560
17112 17111 17113 1 119.8800511 375.723200
17104 17113 17111 1 120.0200517 532.790560
17104 17113 17114 1 119.8800511 375.723200
17111 17113 17114 1 119.8800511 375.723200
17106 17115 17116 1 115.00000 209.200000
17117 17118 17119 1 119.8800511 375.723200
17117 17118 17127 1 119.8800511 375.723200
17119 17118 17127 1 120.0200517 532.790560
17118 17119 17120 1 121.3800518 83.010560
17118 17119 17121 1 120.0200517 532.790560
17120 17119 17121 1 121.3800518 83.010560
3284 17120 3285 1 109.50000 418.400000
3284 17120 17119 1 103.70004 836.800000
3284 17120 17129 1 109.50000 418.400000
3285 17120 17119 1 103.70004 836.800000
3285 17120 17129 1 109.50000 418.400000
17119 17120 17129 1 103.70004 1034.033760
17119 17121 17122 1 119.8800511 375.723200
17119 17121 17123 1 120.0200517 532.790560
17122 17121 17123 1 119.8800511 375.723200
17121 17123 17124 1 119.8800511 375.723200
17121 17123 17125 1 120.0200517 532.790560
17124 17123 17125 1 119.8800511 375.723200
17123 17125 17126 1 119.8800511 375.723200
17123 17125 17127 1 120.0200517 532.790560
17126 17125 17127 1 119.8800511 375.723200
17118 17127 17125 1 120.0200517 532.790560
17118 17127 17128 1 119.8800511 375.723200
17125 17127 17128 1 119.8800511 375.723200
17120 17129 17130 1 115.00000 209.200000
17131 17132 17133 1 119.8800511 375.723200
17131 17132 17141 1 119.8800511 375.723200
17133 17132 17141 1 120.0200517 532.790560
17132 17133 17134 1 121.3800518 83.010560
17132 17133 17135 1 120.0200517 532.790560
17134 17133 17135 1 121.3800518 83.010560
1969 17134 3039 1 109.50000 418.400000
1969 17134 17133 1 103.70004 836.800000
1969 17134 17143 1 109.50000 418.400000
3039 17134 17133 1 103.70004 836.800000
3039 17134 17143 1 109.50000 418.400000
17133 17134 17143 1 103.70004 1034.033760
17133 17135 17136 1 119.8800511 375.723200
17133 17135 17137 1 120.0200517 532.790560
17136 17135 17137 1 119.8800511 375.723200
17135 17137 17138 1 119.8800511 375.723200
17135 17137 17139 1 120.0200517 532.790560
17138 17137 17139 1 119.8800511 375.723200
17137 17139 17140 1 119.8800511 375.723200
17137 17139 17141 1 120.0200517 532.790560
17140 17139 17141 1 119.8800511 375.723200
17132 17141 17139 1 120.0200517 532.790560
17132 17141 17142 1 119.8800511 375.723200
17139 17141 17142 1 119.8800511 375.723200
17134 17143 17144 1 115.00000 209.200000
17145 17146 17147 1 119.8800511 375.723200
17145 17146 17155 1 119.8800511 375.723200
17147 17146 17155 1 120.0200517 532.790560
17146 17147 17148 1 121.3800518 83.010560
17146 17147 17149 1 120.0200517 532.790560
17148 17147 17149 1 121.3800518 83.010560
775 17148 8265 1 109.50000 418.400000
775 17148 17147 1 103.70004 836.800000
775 17148 17157 1 109.50000 418.400000
8265 17148 17147 1 103.70004 836.800000
8265 17148 17157 1 109.50000 418.400000
17147 17148 17157 1 103.70004 1034.033760
17147 17149 17150 1 119.8800511 375.723200
17147 17149 17151 1 120.0200517 532.790560
17150 17149 17151 1 119.8800511 375.723200
17149 17151 17152 1 119.8800511 375.723200
17149 17151 17153 1 120.0200517 532.790560
17152 17151 17153 1 119.8800511 375.723200
17151 17153 17154 1 119.8800511 375.723200
17151 17153 17155 1 120.0200517 532.790560
17154 17153 17155 1 119.8800511 375.723200
17146 17155 17153 1 120.0200517 532.790560
17146 17155 17156 1 119.8800511 375.723200
17153 17155 17156 1 119.8800511 375.723200
17148 17157 17158 1 115.00000 209.200000
17159 17160 17161 1 119.8800511 375.723200
17159 17160 17169 1 119.8800511 375.723200
17161 17160 17169 1 120.0200517 532.790560
17160 17161 17162 1 121.3800518 83.010560
17160 17161 17163 1 120.0200517 532.790560
17162 17161 17163 1 121.3800518 83.010560
1382 17162 10701 1 109.50000 418.400000
1382 17162 17161 1 103.70004 836.800000
1382 17162 17171 1 109.50000 418.400000
10701 17162 17161 1 103.70004 836.800000
10701 17162 17171 1 109.50000 418.400000
17161 17162 17171 1 103.70004 1034.033760
17161 17163 17164 1 119.8800511 375.723200
17161 17163 17165 1 120.0200517 532.790560
17164 17163 17165 1 119.8800511 375.723200
17163 17165 17166 1 119.8800511 375.723200
17163 17165 17167 1 120.0200517 532.790560
17166 17165 17167 1 119.8800511 375.723200
17165 17167 17168 1 119.8800511 375.723200
17165 17167 17169 1 120.0200517 532.790560
17168 17167 17169 1 119.8800511 375.723200
17160 17169 17167 1 120.0200517 532.790560
17160 17169 17170 1 119.8800511 375.723200
17167 17169 17170 1 119.8800511 375.723200
17162 17171 17172 1 115.00000 209.200000
17173 17174 17175 1 119.8800511 375.723200
17173 17174 17183 1 119.8800511 375.723200
17175 17174 17183 1 120.0200517 532.790560
17174 17175 17176 1 121.3800518 83.010560
17174 17175 17177 1 120.0200517 532.790560
17176 17175 17177 1 121.3800518 83.010560
6737 17176 9405 1 109.50000 418.400000
6737 17176 17175 1 103.70004 836.800000
6737 17176 17185 1 109.50000 418.400000
9405 17176 17175 1 103.70004 836.800000
9405 17176 17185 1 109.50000 418.400000
17175 17176 17185 1 103.70004 1034.033760
17175 17177 17178 1 119.8800511 375.723200
17175 17177 17179 1 120.0200517 532.790560
17178 17177 17179 1 119.8800511 375.723200
17177 17179 17180 1 119.8800511 375.723200
17177 17179 17181 1 120.0200517 532.790560
17180 17179 17181 1 119.8800511 375.723200
17179 17181 17182 1 119.8800511 375.723200
17179 17181 17183 1 120.0200517 532.790560
17182 17181 17183 1 119.8800511 375.723200
17174 17183 17181 1 120.0200517 532.790560
17174 17183 17184 1 119.8800511 375.723200
17181 17183 17184 1 119.8800511 375.723200
17176 17185 17186 1 115.00000 209.200000
17187 17188 17189 1 119.8800511 375.723200
17187 17188 17197 1 119.8800511 375.723200
17189 17188 17197 1 120.0200517 532.790560
17188 17189 17190 1 121.3800518 83.010560
17188 17189 17191 1 120.0200517 532.790560
17190 17189 17191 1 121.3800518 83.010560
598 17190 9194 1 109.50000 418.400000
598 17190 17189 1 103.70004 836.800000
598 17190 17199 1 109.50000 418.400000
9194 17190 17189 1 103.70004 836.800000
9194 17190 17199 1 109.50000 418.400000
17189 17190 17199 1 103.70004 1034.033760
17189 17191 17192 1 119.8800511 375.723200
17189 17191 17193 1 120.0200517 532.790560
17192 17191 17193 1 119.8800511 375.723200
17191 17193 17194 1 119.8800511 375.723200
17191 17193 17195 1 120.0200517 532.790560
17194 17193 17195 1 119.8800511 375.723200
17193 17195 17196 1 119.8800511 375.723200
17193 17195 17197 1 120.0200517 532.790560
17196 17195 17197 1 119.8800511 375.723200
17188 17197 17195 1 120.0200517 532.790560
17188 17197 17198 1 119.8800511 375.723200
17195 17197 17198 1 119.8800511 375.723200
17190 17199 17200 1 115.00000 209.200000
17201 17202 17203 1 119.8800511 375.723200
17201 17202 17211 1 119.8800511 375.723200
17203 17202 17211 1 120.0200517 532.790560
17202 17203 17204 1 121.3800518 83.010560
17202 17203 17205 1 120.0200517 532.790560
17204 17203 17205 1 121.3800518 83.010560
4087 17204 10165 1 109.50000 418.400000
4087 17204 17203 1 103.70004 836.800000
4087 17204 17213 1 109.50000 418.400000
10165 17204 17203 1 103.70004 836.800000
10165 17204 17213 1 109.50000 418.400000
17203 17204 17213 1 103.70004 1034.033760
17203 17205 17206 1 119.8800511 375.723200
17203 17205 17207 1 120.0200517 532.790560
17206 17205 17207 1 119.8800511 375.723200
17205 17207 17208 1 119.8800511 375.723200
17205 17207 17209 1 120.0200517 532.790560
17208 17207 17209 1 119.8800511 375.723200
17207 17209 17210 1 119.8800511 375.723200
17207 17209 17211 1 120.0200517 532.790560
17210 17209 17211 1 119.8800511 375.723200
17202 17211 17209 1 120.0200517 532.790560
17202 17211 17212 1 119.8800511 375.723200
17209 17211 17212 1 119.8800511 375.723200
17204 17213 17214 1 115.00000 209.200000
17215 17216 17217 1 119.8800511 375.723200
17215 17216 17225 1 119.8800511 375.723200
17217 17216 17225 1 120.0200517 532.790560
17216 17217 17218 1 121.3800518 83.010560
17216 17217 17219 1 120.0200517 532.790560
17218 17217 17219 1 121.3800518 83.010560
1327 17218 10140 1 109.50000 418.400000
1327 17218 17217 1 103.70004 836.800000
1327 17218 17227 1 109.50000 418.400000
10140 17218 17217 1 103.70004 836.800000
10140 17218 17227 1 109.50000 418.400000
17217 17218 17227 1 103.70004 1034.033760
17217 17219 17220 1 119.8800511 375.723200
17217 17219 17221 1 120.0200517 532.790560
17220 17219 17221 1 119.8800511 375.723200
17219 17221 17222 1 119.8800511 375.723200
17219 17221 17223 1 120.0200517 532.790560
17222 17221 17223 1 119.8800511 375.723200
17221 17223 17224 1 119.8800511 375.723200
17221 17223 17225 1 120.0200517 532.790560
17224 17223 17225 1 119.8800511 375.723200
17216 17225 17223 1 120.0200517 532.790560
17216 17225 17226 1 119.8800511 375.723200
17223 17225 17226 1 119.8800511 375.723200
17218 17227 17228 1 115.00000 209.200000
17229 17230 17231 1 119.8800511 375.723200
17229 17230 17239 1 119.8800511 375.723200
17231 17230 17239 1 120.0200517 532.790560
17230 17231 17232 1 121.3800518 83.010560
17230 17231 17233 1 120.0200517 532.790560
17232 17231 17233 1 121.3800518 83.010560
7598 17232 10808 1 109.50000 418.400000
7598 17232 17231 1 103.70004 836.800000
7598 17232 17241 1 109.50000 418.400000
10808 17232 17231 1 103.70004 836.800000
10808 17232 17241 1 109.50000 418.400000
17231 17232 17241 1 103.70004 1034.033760
17231 17233 17234 1 119.8800511 375.723200
17231 17233 17235 1 120.0200517 532.790560
17234 17233 17235 1 119.8800511 375.723200
17233 17235 17236 1 119.8800511 375.723200
17233 17235 17237 1 120.0200517 532.790560
17236 17235 17237 1 119.8800511 375.723200
17235 17237 17238 1 119.8800511 375.723200
17235 17237 17239 1 120.0200517 532.790560
17238 17237 17239 1 119.8800511 375.723200
17230 17239 17237 1 120.0200517 532.790560
17230 17239 17240 1 119.8800511 375.723200
17237 17239 17240 1 119.8800511 375.723200
17232 17241 17242 1 115.00000 209.200000
17243 17244 17245 1 119.8800511 375.723200
17243 17244 17253 1 119.8800511 375.723200
17245 17244 17253 1 120.0200517 532.790560
17244 17245 17246 1 121.3800518 83.010560
17244 17245 17247 1 120.0200517 532.790560
17246 17245 17247 1 121.3800518 83.010560
2107 17246 2108 1 109.50000 418.400000
2107 17246 17245 1 103.70004 836.800000
2107 17246 17255 1 109.50000 418.400000
2108 17246 17245 1 103.70004 836.800000
2108 17246 17255 1 109.50000 418.400000
17245 17246 17255 1 103.70004 1034.033760
17245 17247 17248 1 119.8800511 375.723200
17245 17247 17249 1 120.0200517 532.790560
17248 17247 17249 1 119.8800511 375.723200
17247 17249 17250 1 119.8800511 375.723200
17247 17249 17251 1 120.0200517 532.790560
17250 17249 17251 1 119.8800511 375.723200
17249 17251 17252 1 119.8800511 375.723200
17249 17251 17253 1 120.0200517 532.790560
17252 17251 17253 1 119.8800511 375.723200
17244 17253 17251 1 120.0200517 532.790560
17244 17253 17254 1 119.8800511 375.723200
17251 17253 17254 1 119.8800511 375.723200
17246 17255 17256 1 115.00000 209.200000
17257 17258 17259 1 119.8800511 375.723200
17257 17258 17267 1 119.8800511 375.723200
17259 17258 17267 1 120.0200517 532.790560
17258 17259 17260 1 121.3800518 83.010560
17258 17259 17261 1 120.0200517 532.790560
17260 17259 17261 1 121.3800518 83.010560
1180 17260 2990 1 109.50000 418.400000
1180 17260 17259 1 103.70004 836.800000
1180 17260 17269 1 109.50000 418.400000
2990 17260 17259 1 103.70004 836.800000
2990 17260 17269 1 109.50000 418.400000
17259 17260 17269 1 103.70004 1034.033760
17259 17261 17262 1 119.8800511 375.723200
17259 17261 17263 1 120.0200517 532.790560
17262 17261 17263 1 119.8800511 375.723200
17261 17263 17264 1 119.8800511 375.723200
17261 17263 17265 1 120.0200517 532.790560
17264 17263 17265 1 119.8800511 375.723200
17263 17265 17266 1 119.8800511 375.723200
17263 17265 17267 1 120.0200517 532.790560
17266 17265 17267 1 119.8800511 375.723200
17258 17267 17265 1 120.0200517 532.790560
17258 17267 17268 1 119.8800511 375.723200
17265 17267 17268 1 119.8800511 375.723200
17260 17269 17270 1 115.00000 209.200000
17271 17272 17273 1 119.8800511 375.723200
17271 17272 17281 1 119.8800511 375.723200
17273 17272 17281 1 120.0200517 532.790560
17272 17273 17274 1 121.3800518 83.010560
17272 17273 17275 1 120.0200517 532.790560
17274 17273 17275 1 121.3800518 83.010560
61 17274 8916 1 109.50000 418.400000
61 17274 17273 1 103.70004 836.800000
61 17274 17283 1 109.50000 418.400000
8916 17274 17273 1 103.70004 836.800000
8916 17274 17283 1 109.50000 418.400000
17273 17274 17283 1 103.70004 1034.033760
17273 17275 17276 1 119.8800511 375.723200
17273 17275 17277 1 120.0200517 532.790560
17276 17275 17277 1 119.8800511 375.723200
17275 17277 17278 1 119.8800511 375.723200
17275 17277 17279 1 120.0200517 532.790560
17278 17277 17279 1 119.8800511 375.723200
17277 17279 17280 1 119.8800511 375.723200
17277 17279 17281 1 120.0200517 532.790560
17280 17279 17281 1 119.8800511 375.723200
17272 17281 17279 1 120.0200517 532.790560
17272 17281 17282 1 119.8800511 375.723200
17279 17281 17282 1 119.8800511 375.723200
17274 17283 17284 1 115.00000 209.200000
17285 17286 17287 1 119.8800511 375.723200
17285 17286 17295 1 119.8800511 375.723200
17287 17286 17295 1 120.0200517 532.790560
17286 17287 17288 1 121.3800518 83.010560
17286 17287 17289 1 120.0200517 532.790560
17288 17287 17289 1 121.3800518 83.010560
1960 17288 9622 1 109.50000 418.400000
1960 17288 17287 1 103.70004 836.800000
1960 17288 17297 1 109.50000 418.400000
9622 17288 17287 1 103.70004 836.800000
9622 17288 17297 1 109.50000 418.400000
17287 17288 17297 1 103.70004 1034.033760
17287 17289 17290 1 119.8800511 375.723200
17287 17289 17291 1 120.0200517 532.790560
17290 17289 17291 1 119.8800511 375.723200
17289 17291 17292 1 119.8800511 375.723200
17289 17291 17293 1 120.0200517 532.790560
17292 17291 17293 1 119.8800511 375.723200
17291 17293 17294 1 119.8800511 375.723200
17291 17293 17295 1 120.0200517 532.790560
17294 17293 17295 1 119.8800511 375.723200
17286 17295 17293 1 120.0200517 532.790560
17286 17295 17296 1 119.8800511 375.723200
17293 17295 17296 1 119.8800511 375.723200
17288 17297 17298 1 115.00000 209.200000
17299 17300 17301 1 119.8800511 375.723200
17299 17300 17309 1 119.8800511 375.723200
17301 17300 17309 1 120.0200517 532.790560
17300 17301 17302 1 121.3800518 83.010560
17300 17301 17303 1 120.0200517 532.790560
17302 17301 17303 1 121.3800518 83.010560
306 17302 8635 1 109.50000 418.400000
306 17302 17301 1 103.70004 836.800000
306 17302 17311 1 109.50000 418.400000
8635 17302 17301 1 103.70004 836.800000
8635 17302 17311 1 109.50000 418.400000
17301 17302 17311 1 103.70004 1034.033760
17301 17303 17304 1 119.8800511 375.723200
17301 17303 17305 1 120.0200517 532.790560
17304 17303 17305 1 119.8800511 375.723200
17303 17305 17306 1 119.8800511 375.723200
17303 17305 17307 1 120.0200517 532.790560
17306 17305 17307 1 119.8800511 375.723200
17305 17307 17308 1 119.8800511 375.723200
17305 17307 17309 1 120.0200517 532.790560
17308 17307 17309 1 119.8800511 375.723200
17300 17309 17307 1 120.0200517 532.790560
17300 17309 17310 1 119.8800511 375.723200
17307 17309 17310 1 119.8800511 375.723200
17302 17311 17312 1 115.00000 209.200000
17313 17314 17315 1 119.8800511 375.723200
17313 17314 17323 1 119.8800511 375.723200
17315 17314 17323 1 120.0200517 532.790560
17314 17315 17316 1 121.3800518 83.010560
17314 17315 17317 1 120.0200517 532.790560
17316 17315 17317 1 121.3800518 83.010560
4338 17316 5737 1 109.50000 418.400000
4338 17316 17315 1 103.70004 836.800000
4338 17316 17325 1 109.50000 418.400000
5737 17316 17315 1 103.70004 836.800000
5737 17316 17325 1 109.50000 418.400000
17315 17316 17325 1 103.70004 1034.033760
17315 17317 17318 1 119.8800511 375.723200
17315 17317 17319 1 120.0200517 532.790560
17318 17317 17319 1 119.8800511 375.723200
17317 17319 17320 1 119.8800511 375.723200
17317 17319 17321 1 120.0200517 532.790560
17320 17319 17321 1 119.8800511 375.723200
17319 17321 17322 1 119.8800511 375.723200
17319 17321 17323 1 120.0200517 532.790560
17322 17321 17323 1 119.8800511 375.723200
17314 17323 17321 1 120.0200517 532.790560
17314 17323 17324 1 119.8800511 375.723200
17321 17323 17324 1 119.8800511 375.723200
17316 17325 17326 1 115.00000 209.200000
17327 17328 17329 1 119.8800511 375.723200
17327 17328 17337 1 119.8800511 375.723200
17329 17328 17337 1 120.0200517 532.790560
17328 17329 17330 1 121.3800518 83.010560
17328 17329 17331 1 120.0200517 532.790560
17330 17329 17331 1 121.3800518 83.010560
1476 17330 1477 1 109.50000 418.400000
1476 17330 17329 1 103.70004 836.800000
1476 17330 17339 1 109.50000 418.400000
1477 17330 17329 1 103.70004 836.800000
1477 17330 17339 1 109.50000 418.400000
17329 17330 17339 1 103.70004 1034.033760
17329 17331 17332 1 119.8800511 375.723200
17329 17331 17333 1 120.0200517 532.790560
17332 17331 17333 1 119.8800511 375.723200
17331 17333 17334 1 119.8800511 375.723200
17331 17333 17335 1 120.0200517 532.790560
17334 17333 17335 1 119.8800511 375.723200
17333 17335 17336 1 119.8800511 375.723200
17333 17335 17337 1 120.0200517 532.790560
17336 17335 17337 1 119.8800511 375.723200
17328 17337 17335 1 120.0200517 532.790560
17328 17337 17338 1 119.8800511 375.723200
17335 17337 17338 1 119.8800511 375.723200
17330 17339 17340 1 115.00000 209.200000
17341 17342 17343 1 119.8800511 375.723200
17341 17342 17351 1 119.8800511 375.723200
17343 17342 17351 1 120.0200517 532.790560
17342 17343 17344 1 121.3800518 83.010560
17342 17343 17345 1 120.0200517 532.790560
17344 17343 17345 1 121.3800518 83.010560
8412 17344 10940 1 109.50000 418.400000
8412 17344 17343 1 103.70004 836.800000
8412 17344 17353 1 109.50000 418.400000
10940 17344 17343 1 103.70004 836.800000
10940 17344 17353 1 109.50000 418.400000
17343 17344 17353 1 103.70004 1034.033760
17343 17345 17346 1 119.8800511 375.723200
17343 17345 17347 1 120.0200517 532.790560
17346 17345 17347 1 119.8800511 375.723200
17345 17347 17348 1 119.8800511 375.723200
17345 17347 17349 1 120.0200517 532.790560
17348 17347 17349 1 119.8800511 375.723200
17347 17349 17350 1 119.8800511 375.723200
17347 17349 17351 1 120.0200517 532.790560
17350 17349 17351 1 119.8800511 375.723200
17342 17351 17349 1 120.0200517 532.790560
17342 17351 17352 1 119.8800511 375.723200
17349 17351 17352 1 119.8800511 375.723200
17344 17353 17354 1 115.00000 209.200000
17355 17356 17357 1 119.8800511 375.723200
17355 17356 17365 1 119.8800511 375.723200
17357 17356 17365 1 120.0200517 532.790560
17356 17357 17358 1 121.3800518 83.010560
17356 17357 17359 1 120.0200517 532.790560
17358 17357 17359 1 121.3800518 83.010560
21 17358 8550 1 109.50000 418.400000
21 17358 17357 1 103.70004 836.800000
21 17358 17367 1 109.50000 418.400000
8550 17358 17357 1 103.70004 836.800000
8550 17358 17367 1 109.50000 418.400000
17357 17358 17367 1 103.70004 1034.033760
17357 17359 17360 1 119.8800511 375.723200
17357 17359 17361 1 120.0200517 532.790560
17360 17359 17361 1 119.8800511 375.723200
17359 17361 17362 1 119.8800511 375.723200
17359 17361 17363 1 120.0200517 532.790560
17362 17361 17363 1 119.8800511 375.723200
17361 17363 17364 1 119.8800511 375.723200
17361 17363 17365 1 120.0200517 532.790560
17364 17363 17365 1 119.8800511 375.723200
17356 17365 17363 1 120.0200517 532.790560
17356 17365 17366 1 119.8800511 375.723200
17363 17365 17366 1 119.8800511 375.723200
17358 17367 17368 1 115.00000 209.200000
17369 17370 17371 1 119.8800511 375.723200
17369 17370 17379 1 119.8800511 375.723200
17371 17370 17379 1 120.0200517 532.790560
17370 17371 17372 1 121.3800518 83.010560
17370 17371 17373 1 120.0200517 532.790560
17372 17371 17373 1 121.3800518 83.010560
8363 17372 9558 1 109.50000 418.400000
8363 17372 17371 1 103.70004 836.800000
8363 17372 17381 1 109.50000 418.400000
9558 17372 17371 1 103.70004 836.800000
9558 17372 17381 1 109.50000 418.400000
17371 17372 17381 1 103.70004 1034.033760
17371 17373 17374 1 119.8800511 375.723200
17371 17373 17375 1 120.0200517 532.790560
17374 17373 17375 1 119.8800511 375.723200
17373 17375 17376 1 119.8800511 375.723200
17373 17375 17377 1 120.0200517 532.790560
17376 17375 17377 1 119.8800511 375.723200
17375 17377 17378 1 119.8800511 375.723200
17375 17377 17379 1 120.0200517 532.790560
17378 17377 17379 1 119.8800511 375.723200
17370 17379 17377 1 120.0200517 532.790560
17370 17379 17380 1 119.8800511 375.723200
17377 17379 17380 1 119.8800511 375.723200
17372 17381 17382 1 115.00000 209.200000
17383 17384 17385 1 119.8800511 375.723200
17383 17384 17393 1 119.8800511 375.723200
17385 17384 17393 1 120.0200517 532.790560
17384 17385 17386 1 121.3800518 83.010560
17384 17385 17387 1 120.0200517 532.790560
17386 17385 17387 1 121.3800518 83.010560
8841 17386 10957 1 109.50000 418.400000
8841 17386 17385 1 103.70004 836.800000
8841 17386 17395 1 109.50000 418.400000
10957 17386 17385 1 103.70004 836.800000
10957 17386 17395 1 109.50000 418.400000
17385 17386 17395 1 103.70004 1034.033760
17385 17387 17388 1 119.8800511 375.723200
17385 17387 17389 1 120.0200517 532.790560
17388 17387 17389 1 119.8800511 375.723200
17387 17389 17390 1 119.8800511 375.723200
17387 17389 17391 1 120.0200517 532.790560
17390 17389 17391 1 119.8800511 375.723200
17389 17391 17392 1 119.8800511 375.723200
17389 17391 17393 1 120.0200517 532.790560
17392 17391 17393 1 119.8800511 375.723200
17384 17393 17391 1 120.0200517 532.790560
17384 17393 17394 1 119.8800511 375.723200
17391 17393 17394 1 119.8800511 375.723200
17386 17395 17396 1 115.00000 209.200000
17397 17398 17399 1 119.8800511 375.723200
17397 17398 17407 1 119.8800511 375.723200
17399 17398 17407 1 120.0200517 532.790560
17398 17399 17400 1 121.3800518 83.010560
17398 17399 17401 1 120.0200517 532.790560
17400 17399 17401 1 121.3800518 83.010560
3993 17400 8879 1 109.50000 418.400000
3993 17400 17399 1 103.70004 836.800000
3993 17400 17409 1 109.50000 418.400000
8879 17400 17399 1 103.70004 836.800000
8879 17400 17409 1 109.50000 418.400000
17399 17400 17409 1 103.70004 1034.033760
17399 17401 17402 1 119.8800511 375.723200
17399 17401 17403 1 120.0200517 532.790560
17402 17401 17403 1 119.8800511 375.723200
17401 17403 17404 1 119.8800511 375.723200
17401 17403 17405 1 120.0200517 532.790560
17404 17403 17405 1 119.8800511 375.723200
17403 17405 17406 1 119.8800511 375.723200
17403 17405 17407 1 120.0200517 532.790560
17406 17405 17407 1 119.8800511 375.723200
17398 17407 17405 1 120.0200517 532.790560
17398 17407 17408 1 119.8800511 375.723200
17405 17407 17408 1 119.8800511 375.723200
17400 17409 17410 1 115.00000 209.200000
17411 17412 17413 1 119.8800511 375.723200
17411 17412 17421 1 119.8800511 375.723200
17413 17412 17421 1 120.0200517 532.790560
17412 17413 17414 1 121.3800518 83.010560
17412 17413 17415 1 120.0200517 532.790560
17414 17413 17415 1 121.3800518 83.010560
442 17414 5141 1 109.50000 418.400000
442 17414 17413 1 103.70004 836.800000
442 17414 17423 1 109.50000 418.400000
5141 17414 17413 1 103.70004 836.800000
5141 17414 17423 1 109.50000 418.400000
17413 17414 17423 1 103.70004 1034.033760
17413 17415 17416 1 119.8800511 375.723200
17413 17415 17417 1 120.0200517 532.790560
17416 17415 17417 1 119.8800511 375.723200
17415 17417 17418 1 119.8800511 375.723200
17415 17417 17419 1 120.0200517 532.790560
17418 17417 17419 1 119.8800511 375.723200
17417 17419 17420 1 119.8800511 375.723200
17417 17419 17421 1 120.0200517 532.790560
17420 17419 17421 1 119.8800511 375.723200
17412 17421 17419 1 120.0200517 532.790560
17412 17421 17422 1 119.8800511 375.723200
17419 17421 17422 1 119.8800511 375.723200
17414 17423 17424 1 115.00000 209.200000
17425 17426 17427 1 119.8800511 375.723200
17425 17426 17435 1 119.8800511 375.723200
17427 17426 17435 1 120.0200517 532.790560
17426 17427 17428 1 121.3800518 83.010560
17426 17427 17429 1 120.0200517 532.790560
17428 17427 17429 1 121.3800518 83.010560
4050 17428 10033 1 109.50000 418.400000
4050 17428 17427 1 103.70004 836.800000
4050 17428 17437 1 109.50000 418.400000
10033 17428 17427 1 103.70004 836.800000
10033 17428 17437 1 109.50000 418.400000
17427 17428 17437 1 103.70004 1034.033760
17427 17429 17430 1 119.8800511 375.723200
17427 17429 17431 1 120.0200517 532.790560
17430 17429 17431 1 119.8800511 375.723200
17429 17431 17432 1 119.8800511 375.723200
17429 17431 17433 1 120.0200517 532.790560
17432 17431 17433 1 119.8800511 375.723200
17431 17433 17434 1 119.8800511 375.723200
17431 17433 17435 1 120.0200517 532.790560
17434 17433 17435 1 119.8800511 375.723200
17426 17435 17433 1 120.0200517 532.790560
17426 17435 17436 1 119.8800511 375.723200
17433 17435 17436 1 119.8800511 375.723200
17428 17437 17438 1 115.00000 209.200000
17439 17440 17441 1 119.8800511 375.723200
17439 17440 17449 1 119.8800511 375.723200
17441 17440 17449 1 120.0200517 532.790560
17440 17441 17442 1 121.3800518 83.010560
17440 17441 17443 1 120.0200517 532.790560
17442 17441 17443 1 121.3800518 83.010560
5019 17442 5344 1 109.50000 418.400000
5019 17442 17441 1 103.70004 836.800000
5019 17442 17451 1 109.50000 418.400000
5344 17442 17441 1 103.70004 836.800000
5344 17442 17451 1 109.50000 418.400000
17441 17442 17451 1 103.70004 1034.033760
17441 17443 17444 1 119.8800511 375.723200
17441 17443 17445 1 120.0200517 532.790560
17444 17443 17445 1 119.8800511 375.723200
17443 17445 17446 1 119.8800511 375.723200
17443 17445 17447 1 120.0200517 532.790560
17446 17445 17447 1 119.8800511 375.723200
17445 17447 17448 1 119.8800511 375.723200
17445 17447 17449 1 120.0200517 532.790560
17448 17447 17449 1 119.8800511 375.723200
17440 17449 17447 1 120.0200517 532.790560
17440 17449 17450 1 119.8800511 375.723200
17447 17449 17450 1 119.8800511 375.723200
17442 17451 17452 1 115.00000 209.200000
17453 17454 17455 1 119.8800511 375.723200
17453 17454 17463 1 119.8800511 375.723200
17455 17454 17463 1 120.0200517 532.790560
17454 17455 17456 1 121.3800518 83.010560
17454 17455 17457 1 120.0200517 532.790560
17456 17455 17457 1 121.3800518 83.010560
601 17456 8459 1 109.50000 418.400000
601 17456 17455 1 103.70004 836.800000
601 17456 17465 1 109.50000 418.400000
8459 17456 17455 1 103.70004 836.800000
8459 17456 17465 1 109.50000 418.400000
17455 17456 17465 1 103.70004 1034.033760
17455 17457 17458 1 119.8800511 375.723200
17455 17457 17459 1 120.0200517 532.790560
17458 17457 17459 1 119.8800511 375.723200
17457 17459 17460 1 119.8800511 375.723200
17457 17459 17461 1 120.0200517 532.790560
17460 17459 17461 1 119.8800511 375.723200
17459 17461 17462 1 119.8800511 375.723200
17459 17461 17463 1 120.0200517 532.790560
17462 17461 17463 1 119.8800511 375.723200
17454 17463 17461 1 120.0200517 532.790560
17454 17463 17464 1 119.8800511 375.723200
17461 17463 17464 1 119.8800511 375.723200
17456 17465 17466 1 115.00000 209.200000
17467 17468 17469 1 119.8800511 375.723200
17467 17468 17477 1 119.8800511 375.723200
17469 17468 17477 1 120.0200517 532.790560
17468 17469 17470 1 121.3800518 83.010560
17468 17469 17471 1 120.0200517 532.790560
17470 17469 17471 1 121.3800518 83.010560
9263 17470 9264 1 109.50000 418.400000
9263 17470 17469 1 103.70004 836.800000
9263 17470 17479 1 109.50000 418.400000
9264 17470 17469 1 103.70004 836.800000
9264 17470 17479 1 109.50000 418.400000
17469 17470 17479 1 103.70004 1034.033760
17469 17471 17472 1 119.8800511 375.723200
17469 17471 17473 1 120.0200517 532.790560
17472 17471 17473 1 119.8800511 375.723200
17471 17473 17474 1 119.8800511 375.723200
17471 17473 17475 1 120.0200517 532.790560
17474 17473 17475 1 119.8800511 375.723200
17473 17475 17476 1 119.8800511 375.723200
17473 17475 17477 1 120.0200517 532.790560
17476 17475 17477 1 119.8800511 375.723200
17468 17477 17475 1 120.0200517 532.790560
17468 17477 17478 1 119.8800511 375.723200
17475 17477 17478 1 119.8800511 375.723200
17470 17479 17480 1 115.00000 209.200000
17481 17482 17483 1 119.8800511 375.723200
17481 17482 17491 1 119.8800511 375.723200
17483 17482 17491 1 120.0200517 532.790560
17482 17483 17484 1 121.3800518 83.010560
17482 17483 17485 1 120.0200517 532.790560
17484 17483 17485 1 121.3800518 83.010560
8276 17484 10397 1 109.50000 418.400000
8276 17484 17483 1 103.70004 836.800000
8276 17484 17493 1 109.50000 418.400000
10397 17484 17483 1 103.70004 836.800000
10397 17484 17493 1 109.50000 418.400000
17483 17484 17493 1 103.70004 1034.033760
17483 17485 17486 1 119.8800511 375.723200
17483 17485 17487 1 120.0200517 532.790560
17486 17485 17487 1 119.8800511 375.723200
17485 17487 17488 1 119.8800511 375.723200
17485 17487 17489 1 120.0200517 532.790560
17488 17487 17489 1 119.8800511 375.723200
17487 17489 17490 1 119.8800511 375.723200
17487 17489 17491 1 120.0200517 532.790560
17490 17489 17491 1 119.8800511 375.723200
17482 17491 17489 1 120.0200517 532.790560
17482 17491 17492 1 119.8800511 375.723200
17489 17491 17492 1 119.8800511 375.723200
17484 17493 17494 1 115.00000 209.200000
17495 17496 17497 1 119.8800511 375.723200
17495 17496 17505 1 119.8800511 375.723200
17497 17496 17505 1 120.0200517 532.790560
17496 17497 17498 1 121.3800518 83.010560
17496 17497 17499 1 120.0200517 532.790560
17498 17497 17499 1 121.3800518 83.010560
6646 17498 8043 1 109.50000 418.400000
6646 17498 17497 1 103.70004 836.800000
6646 17498 17507 1 109.50000 418.400000
8043 17498 17497 1 103.70004 836.800000
8043 17498 17507 1 109.50000 418.400000
17497 17498 17507 1 103.70004 1034.033760
17497 17499 17500 1 119.8800511 375.723200
17497 17499 17501 1 120.0200517 532.790560
17500 17499 17501 1 119.8800511 375.723200
17499 17501 17502 1 119.8800511 375.723200
17499 17501 17503 1 120.0200517 532.790560
17502 17501 17503 1 119.8800511 375.723200
17501 17503 17504 1 119.8800511 375.723200
17501 17503 17505 1 120.0200517 532.790560
17504 17503 17505 1 119.8800511 375.723200
17496 17505 17503 1 120.0200517 532.790560
17496 17505 17506 1 119.8800511 375.723200
17503 17505 17506 1 119.8800511 375.723200
17498 17507 17508 1 115.00000 209.200000
17509 17510 17511 1 119.8800511 375.723200
17509 17510 17519 1 119.8800511 375.723200
17511 17510 17519 1 120.0200517 532.790560
17510 17511 17512 1 121.3800518 83.010560
17510 17511 17513 1 120.0200517 532.790560
17512 17511 17513 1 121.3800518 83.010560
845 17512 2299 1 109.50000 418.400000
845 17512 17511 1 103.70004 836.800000
845 17512 17521 1 109.50000 418.400000
2299 17512 17511 1 103.70004 836.800000
2299 17512 17521 1 109.50000 418.400000
17511 17512 17521 1 103.70004 1034.033760
17511 17513 17514 1 119.8800511 375.723200
17511 17513 17515 1 120.0200517 532.790560
17514 17513 17515 1 119.8800511 375.723200
17513 17515 17516 1 119.8800511 375.723200
17513 17515 17517 1 120.0200517 532.790560
17516 17515 17517 1 119.8800511 375.723200
17515 17517 17518 1 119.8800511 375.723200
17515 17517 17519 1 120.0200517 532.790560
17518 17517 17519 1 119.8800511 375.723200
17510 17519 17517 1 120.0200517 532.790560
17510 17519 17520 1 119.8800511 375.723200
17517 17519 17520 1 119.8800511 375.723200
17512 17521 17522 1 115.00000 209.200000
17523 17524 17525 1 119.8800511 375.723200
17523 17524 17533 1 119.8800511 375.723200
17525 17524 17533 1 120.0200517 532.790560
17524 17525 17526 1 121.3800518 83.010560
17524 17525 17527 1 120.0200517 532.790560
17526 17525 17527 1 121.3800518 83.010560
178 17526 6130 1 109.50000 418.400000
178 17526 17525 1 103.70004 836.800000
178 17526 17535 1 109.50000 418.400000
6130 17526 17525 1 103.70004 836.800000
6130 17526 17535 1 109.50000 418.400000
17525 17526 17535 1 103.70004 1034.033760
17525 17527 17528 1 119.8800511 375.723200
17525 17527 17529 1 120.0200517 532.790560
17528 17527 17529 1 119.8800511 375.723200
17527 17529 17530 1 119.8800511 375.723200
17527 17529 17531 1 120.0200517 532.790560
17530 17529 17531 1 119.8800511 375.723200
17529 17531 17532 1 119.8800511 375.723200
17529 17531 17533 1 120.0200517 532.790560
17532 17531 17533 1 119.8800511 375.723200
17524 17533 17531 1 120.0200517 532.790560
17524 17533 17534 1 119.8800511 375.723200
17531 17533 17534 1 119.8800511 375.723200
17526 17535 17536 1 115.00000 209.200000
17537 17538 17539 1 119.8800511 375.723200
17537 17538 17547 1 119.8800511 375.723200
17539 17538 17547 1 120.0200517 532.790560
17538 17539 17540 1 121.3800518 83.010560
17538 17539 17541 1 120.0200517 532.790560
17540 17539 17541 1 121.3800518 83.010560
7528 17540 7529 1 109.50000 418.400000
7528 17540 17539 1 103.70004 836.800000
7528 17540 17549 1 109.50000 418.400000
7529 17540 17539 1 103.70004 836.800000
7529 17540 17549 1 109.50000 418.400000
17539 17540 17549 1 103.70004 1034.033760
17539 17541 17542 1 119.8800511 375.723200
17539 17541 17543 1 120.0200517 532.790560
17542 17541 17543 1 119.8800511 375.723200
17541 17543 17544 1 119.8800511 375.723200
17541 17543 17545 1 120.0200517 532.790560
17544 17543 17545 1 119.8800511 375.723200
17543 17545 17546 1 119.8800511 375.723200
17543 17545 17547 1 120.0200517 532.790560
17546 17545 17547 1 119.8800511 375.723200
17538 17547 17545 1 120.0200517 532.790560
17538 17547 17548 1 119.8800511 375.723200
17545 17547 17548 1 119.8800511 375.723200
17540 17549 17550 1 115.00000 209.200000
17551 17552 17553 1 119.8800511 375.723200
17551 17552 17561 1 119.8800511 375.723200
17553 17552 17561 1 120.0200517 532.790560
17552 17553 17554 1 121.3800518 83.010560
17552 17553 17555 1 120.0200517 532.790560
17554 17553 17555 1 121.3800518 83.010560
4811 17554 9464 1 109.50000 418.400000
4811 17554 17553 1 103.70004 836.800000
4811 17554 17563 1 109.50000 418.400000
9464 17554 17553 1 103.70004 836.800000
9464 17554 17563 1 109.50000 418.400000
17553 17554 17563 1 103.70004 1034.033760
17553 17555 17556 1 119.8800511 375.723200
17553 17555 17557 1 120.0200517 532.790560
17556 17555 17557 1 119.8800511 375.723200
17555 17557 17558 1 119.8800511 375.723200
17555 17557 17559 1 120.0200517 532.790560
17558 17557 17559 1 119.8800511 375.723200
17557 17559 17560 1 119.8800511 375.723200
17557 17559 17561 1 120.0200517 532.790560
17560 17559 17561 1 119.8800511 375.723200
17552 17561 17559 1 120.0200517 532.790560
17552 17561 17562 1 119.8800511 375.723200
17559 17561 17562 1 119.8800511 375.723200
17554 17563 17564 1 115.00000 209.200000
17565 17566 17567 1 119.8800511 375.723200
17565 17566 17575 1 119.8800511 375.723200
17567 17566 17575 1 120.0200517 532.790560
17566 17567 17568 1 121.3800518 83.010560
17566 17567 17569 1 120.0200517 532.790560
17568 17567 17569 1 121.3800518 83.010560
2498 17568 9568 1 109.50000 418.400000
2498 17568 17567 1 103.70004 836.800000
2498 17568 17577 1 109.50000 418.400000
9568 17568 17567 1 103.70004 836.800000
9568 17568 17577 1 109.50000 418.400000
17567 17568 17577 1 103.70004 1034.033760
17567 17569 17570 1 119.8800511 375.723200
17567 17569 17571 1 120.0200517 532.790560
17570 17569 17571 1 119.8800511 375.723200
17569 17571 17572 1 119.8800511 375.723200
17569 17571 17573 1 120.0200517 532.790560
17572 17571 17573 1 119.8800511 375.723200
17571 17573 17574 1 119.8800511 375.723200
17571 17573 17575 1 120.0200517 532.790560
17574 17573 17575 1 119.8800511 375.723200
17566 17575 17573 1 120.0200517 532.790560
17566 17575 17576 1 119.8800511 375.723200
17573 17575 17576 1 119.8800511 375.723200
17568 17577 17578 1 115.00000 209.200000
17579 17580 17581 1 119.8800511 375.723200
17579 17580 17589 1 119.8800511 375.723200
17581 17580 17589 1 120.0200517 532.790560
17580 17581 17582 1 121.3800518 83.010560
17580 17581 17583 1 120.0200517 532.790560
17582 17581 17583 1 121.3800518 83.010560
2014 17582 5038 1 109.50000 418.400000
2014 17582 17581 1 103.70004 836.800000
2014 17582 17591 1 109.50000 418.400000
5038 17582 17581 1 103.70004 836.800000
5038 17582 17591 1 109.50000 418.400000
17581 17582 17591 1 103.70004 1034.033760
17581 17583 17584 1 119.8800511 375.723200
17581 17583 17585 1 120.0200517 532.790560
17584 17583 17585 1 119.8800511 375.723200
17583 17585 17586 1 119.8800511 375.723200
17583 17585 17587 1 120.0200517 532.790560
17586 17585 17587 1 119.8800511 375.723200
17585 17587 17588 1 119.8800511 375.723200
17585 17587 17589 1 120.0200517 532.790560
17588 17587 17589 1 119.8800511 375.723200
17580 17589 17587 1 120.0200517 532.790560
17580 17589 17590 1 119.8800511 375.723200
17587 17589 17590 1 119.8800511 375.723200
17582 17591 17592 1 115.00000 209.200000
17593 17594 17595 1 119.8800511 375.723200
17593 17594 17603 1 119.8800511 375.723200
17595 17594 17603 1 120.0200517 532.790560
17594 17595 17596 1 121.3800518 83.010560
17594 17595 17597 1 120.0200517 532.790560
17596 17595 17597 1 121.3800518 83.010560
6383 17596 6658 1 109.50000 418.400000
6383 17596 17595 1 103.70004 836.800000
6383 17596 17605 1 109.50000 418.400000
6658 17596 17595 1 103.70004 836.800000
6658 17596 17605 1 109.50000 418.400000
17595 17596 17605 1 103.70004 1034.033760
17595 17597 17598 1 119.8800511 375.723200
17595 17597 17599 1 120.0200517 532.790560
17598 17597 17599 1 119.8800511 375.723200
17597 17599 17600 1 119.8800511 375.723200
17597 17599 17601 1 120.0200517 532.790560
17600 17599 17601 1 119.8800511 375.723200
17599 17601 17602 1 119.8800511 375.723200
17599 17601 17603 1 120.0200517 532.790560
17602 17601 17603 1 119.8800511 375.723200
17594 17603 17601 1 120.0200517 532.790560
17594 17603 17604 1 119.8800511 375.723200
17601 17603 17604 1 119.8800511 375.723200
17596 17605 17606 1 115.00000 209.200000
17607 17608 17609 1 119.8800511 375.723200
17607 17608 17617 1 119.8800511 375.723200
17609 17608 17617 1 120.0200517 532.790560
17608 17609 17610 1 121.3800518 83.010560
17608 17609 17611 1 120.0200517 532.790560
17610 17609 17611 1 121.3800518 83.010560
460 17610 4886 1 109.50000 418.400000
460 17610 17609 1 103.70004 836.800000
460 17610 17619 1 109.50000 418.400000
4886 17610 17609 1 103.70004 836.800000
4886 17610 17619 1 109.50000 418.400000
17609 17610 17619 1 103.70004 1034.033760
17609 17611 17612 1 119.8800511 375.723200
17609 17611 17613 1 120.0200517 532.790560
17612 17611 17613 1 119.8800511 375.723200
17611 17613 17614 1 119.8800511 375.723200
17611 17613 17615 1 120.0200517 532.790560
17614 17613 17615 1 119.8800511 375.723200
17613 17615 17616 1 119.8800511 375.723200
17613 17615 17617 1 120.0200517 532.790560
17616 17615 17617 1 119.8800511 375.723200
17608 17617 17615 1 120.0200517 532.790560
17608 17617 17618 1 119.8800511 375.723200
17615 17617 17618 1 119.8800511 375.723200
17610 17619 17620 1 115.00000 209.200000
17621 17622 17623 1 119.8800511 375.723200
17621 17622 17631 1 119.8800511 375.723200
17623 17622 17631 1 120.0200517 532.790560
17622 17623 17624 1 121.3800518 83.010560
17622 17623 17625 1 120.0200517 532.790560
17624 17623 17625 1 121.3800518 83.010560
4419 17624 4577 1 109.50000 418.400000
4419 17624 17623 1 103.70004 836.800000
4419 17624 17633 1 109.50000 418.400000
4577 17624 17623 1 103.70004 836.800000
4577 17624 17633 1 109.50000 418.400000
17623 17624 17633 1 103.70004 1034.033760
17623 17625 17626 1 119.8800511 375.723200
17623 17625 17627 1 120.0200517 532.790560
17626 17625 17627 1 119.8800511 375.723200
17625 17627 17628 1 119.8800511 375.723200
17625 17627 17629 1 120.0200517 532.790560
17628 17627 17629 1 119.8800511 375.723200
17627 17629 17630 1 119.8800511 375.723200
17627 17629 17631 1 120.0200517 532.790560
17630 17629 17631 1 119.8800511 375.723200
17622 17631 17629 1 120.0200517 532.790560
17622 17631 17632 1 119.8800511 375.723200
17629 17631 17632 1 119.8800511 375.723200
17624 17633 17634 1 115.00000 209.200000
17635 17636 17637 1 119.8800511 375.723200
17635 17636 17645 1 119.8800511 375.723200
17637 17636 17645 1 120.0200517 532.790560
17636 17637 17638 1 121.3800518 83.010560
17636 17637 17639 1 120.0200517 532.790560
17638 17637 17639 1 121.3800518 83.010560
1526 17638 5356 1 109.50000 418.400000
1526 17638 17637 1 103.70004 836.800000
1526 17638 17647 1 109.50000 418.400000
5356 17638 17637 1 103.70004 836.800000
5356 17638 17647 1 109.50000 418.400000
17637 17638 17647 1 103.70004 1034.033760
17637 17639 17640 1 119.8800511 375.723200
17637 17639 17641 1 120.0200517 532.790560
17640 17639 17641 1 119.8800511 375.723200
17639 17641 17642 1 119.8800511 375.723200
17639 17641 17643 1 120.0200517 532.790560
17642 17641 17643 1 119.8800511 375.723200
17641 17643 17644 1 119.8800511 375.723200
17641 17643 17645 1 120.0200517 532.790560
17644 17643 17645 1 119.8800511 375.723200
17636 17645 17643 1 120.0200517 532.790560
17636 17645 17646 1 119.8800511 375.723200
17643 17645 17646 1 119.8800511 375.723200
17638 17647 17648 1 115.00000 209.200000
17649 17650 17651 1 119.8800511 375.723200
17649 17650 17659 1 119.8800511 375.723200
17651 17650 17659 1 120.0200517 532.790560
17650 17651 17652 1 121.3800518 83.010560
17650 17651 17653 1 120.0200517 532.790560
17652 17651 17653 1 121.3800518 83.010560
8288 17652 8289 1 109.50000 418.400000
8288 17652 17651 1 103.70004 836.800000
8288 17652 17661 1 109.50000 418.400000
8289 17652 17651 1 103.70004 836.800000
8289 17652 17661 1 109.50000 418.400000
17651 17652 17661 1 103.70004 1034.033760
17651 17653 17654 1 119.8800511 375.723200
17651 17653 17655 1 120.0200517 532.790560
17654 17653 17655 1 119.8800511 375.723200
17653 17655 17656 1 119.8800511 375.723200
17653 17655 17657 1 120.0200517 532.790560
17656 17655 17657 1 119.8800511 375.723200
17655 17657 17658 1 119.8800511 375.723200
17655 17657 17659 1 120.0200517 532.790560
17658 17657 17659 1 119.8800511 375.723200
17650 17659 17657 1 120.0200517 532.790560
17650 17659 17660 1 119.8800511 375.723200
17657 17659 17660 1 119.8800511 375.723200
17652 17661 17662 1 115.00000 209.200000
17663 17664 17665 1 119.8800511 375.723200
17663 17664 17673 1 119.8800511 375.723200
17665 17664 17673 1 120.0200517 532.790560
17664 17665 17666 1 121.3800518 83.010560
17664 17665 17667 1 120.0200517 532.790560
17666 17665 17667 1 121.3800518 83.010560
68 17666 69 1 109.50000 418.400000
68 17666 17665 1 103.70004 836.800000
68 17666 17675 1 109.50000 418.400000
69 17666 17665 1 103.70004 836.800000
69 17666 17675 1 109.50000 418.400000
17665 17666 17675 1 103.70004 1034.033760
17665 17667 17668 1 119.8800511 375.723200
17665 17667 17669 1 120.0200517 532.790560
17668 17667 17669 1 119.8800511 375.723200
17667 17669 17670 1 119.8800511 375.723200
17667 17669 17671 1 120.0200517 532.790560
17670 17669 17671 1 119.8800511 375.723200
17669 17671 17672 1 119.8800511 375.723200
17669 17671 17673 1 120.0200517 532.790560
17672 17671 17673 1 119.8800511 375.723200
17664 17673 17671 1 120.0200517 532.790560
17664 17673 17674 1 119.8800511 375.723200
17671 17673 17674 1 119.8800511 375.723200
17666 17675 17676 1 115.00000 209.200000
17677 17678 17679 1 119.8800511 375.723200
17677 17678 17687 1 119.8800511 375.723200
17679 17678 17687 1 120.0200517 532.790560
17678 17679 17680 1 121.3800518 83.010560
17678 17679 17681 1 120.0200517 532.790560
17680 17679 17681 1 121.3800518 83.010560
2624 17680 10143 1 109.50000 418.400000
2624 17680 17679 1 103.70004 836.800000
2624 17680 17689 1 109.50000 418.400000
10143 17680 17679 1 103.70004 836.800000
10143 17680 17689 1 109.50000 418.400000
17679 17680 17689 1 103.70004 1034.033760
17679 17681 17682 1 119.8800511 375.723200
17679 17681 17683 1 120.0200517 532.790560
17682 17681 17683 1 119.8800511 375.723200
17681 17683 17684 1 119.8800511 375.723200
17681 17683 17685 1 120.0200517 532.790560
17684 17683 17685 1 119.8800511 375.723200
17683 17685 17686 1 119.8800511 375.723200
17683 17685 17687 1 120.0200517 532.790560
17686 17685 17687 1 119.8800511 375.723200
17678 17687 17685 1 120.0200517 532.790560
17678 17687 17688 1 119.8800511 375.723200
17685 17687 17688 1 119.8800511 375.723200
17680 17689 17690 1 115.00000 209.200000
17691 17692 17693 1 119.8800511 375.723200
17691 17692 17701 1 119.8800511 375.723200
17693 17692 17701 1 120.0200517 532.790560
17692 17693 17694 1 121.3800518 83.010560
17692 17693 17695 1 120.0200517 532.790560
17694 17693 17695 1 121.3800518 83.010560
10433 17694 10815 1 109.50000 418.400000
10433 17694 17693 1 103.70004 836.800000
10433 17694 17703 1 109.50000 418.400000
10815 17694 17693 1 103.70004 836.800000
10815 17694 17703 1 109.50000 418.400000
17693 17694 17703 1 103.70004 1034.033760
17693 17695 17696 1 119.8800511 375.723200
17693 17695 17697 1 120.0200517 532.790560
17696 17695 17697 1 119.8800511 375.723200
17695 17697 17698 1 119.8800511 375.723200
17695 17697 17699 1 120.0200517 532.790560
17698 17697 17699 1 119.8800511 375.723200
17697 17699 17700 1 119.8800511 375.723200
17697 17699 17701 1 120.0200517 532.790560
17700 17699 17701 1 119.8800511 375.723200
17692 17701 17699 1 120.0200517 532.790560
17692 17701 17702 1 119.8800511 375.723200
17699 17701 17702 1 119.8800511 375.723200
17694 17703 17704 1 115.00000 209.200000
17705 17706 17707 1 119.8800511 375.723200
17705 17706 17715 1 119.8800511 375.723200
17707 17706 17715 1 120.0200517 532.790560
17706 17707 17708 1 121.3800518 83.010560
17706 17707 17709 1 120.0200517 532.790560
17708 17707 17709 1 121.3800518 83.010560
4870 17708 4871 1 109.50000 418.400000
4870 17708 17707 1 103.70004 836.800000
4870 17708 17717 1 109.50000 418.400000
4871 17708 17707 1 103.70004 836.800000
4871 17708 17717 1 109.50000 418.400000
17707 17708 17717 1 103.70004 1034.033760
17707 17709 17710 1 119.8800511 375.723200
17707 17709 17711 1 120.0200517 532.790560
17710 17709 17711 1 119.8800511 375.723200
17709 17711 17712 1 119.8800511 375.723200
17709 17711 17713 1 120.0200517 532.790560
17712 17711 17713 1 119.8800511 375.723200
17711 17713 17714 1 119.8800511 375.723200
17711 17713 17715 1 120.0200517 532.790560
17714 17713 17715 1 119.8800511 375.723200
17706 17715 17713 1 120.0200517 532.790560
17706 17715 17716 1 119.8800511 375.723200
17713 17715 17716 1 119.8800511 375.723200
17708 17717 17718 1 115.00000 209.200000
17719 17720 17721 1 119.8800511 375.723200
17719 17720 17729 1 119.8800511 375.723200
17721 17720 17729 1 120.0200517 532.790560
17720 17721 17722 1 121.3800518 83.010560
17720 17721 17723 1 120.0200517 532.790560
17722 17721 17723 1 121.3800518 83.010560
9402 17722 11097 1 109.50000 418.400000
9402 17722 17721 1 103.70004 836.800000
9402 17722 17731 1 109.50000 418.400000
11097 17722 17721 1 103.70004 836.800000
11097 17722 17731 1 109.50000 418.400000
17721 17722 17731 1 103.70004 1034.033760
17721 17723 17724 1 119.8800511 375.723200
17721 17723 17725 1 120.0200517 532.790560
17724 17723 17725 1 119.8800511 375.723200
17723 17725 17726 1 119.8800511 375.723200
17723 17725 17727 1 120.0200517 532.790560
17726 17725 17727 1 119.8800511 375.723200
17725 17727 17728 1 119.8800511 375.723200
17725 17727 17729 1 120.0200517 532.790560
17728 17727 17729 1 119.8800511 375.723200
17720 17729 17727 1 120.0200517 532.790560
17720 17729 17730 1 119.8800511 375.723200
17727 17729 17730 1 119.8800511 375.723200
17722 17731 17732 1 115.00000 209.200000
17733 17734 17735 1 119.8800511 375.723200
17733 17734 17743 1 119.8800511 375.723200
17735 17734 17743 1 120.0200517 532.790560
17734 17735 17736 1 121.3800518 83.010560
17734 17735 17737 1 120.0200517 532.790560
17736 17735 17737 1 121.3800518 83.010560
837 17736 4795 1 109.50000 418.400000
837 17736 17735 1 103.70004 836.800000
837 17736 17745 1 109.50000 418.400000
4795 17736 17735 1 103.70004 836.800000
4795 17736 17745 1 109.50000 418.400000
17735 17736 17745 1 103.70004 1034.033760
17735 17737 17738 1 119.8800511 375.723200
17735 17737 17739 1 120.0200517 532.790560
17738 17737 17739 1 119.8800511 375.723200
17737 17739 17740 1 119.8800511 375.723200
17737 17739 17741 1 120.0200517 532.790560
17740 17739 17741 1 119.8800511 375.723200
17739 17741 17742 1 119.8800511 375.723200
17739 17741 17743 1 120.0200517 532.790560
17742 17741 17743 1 119.8800511 375.723200
17734 17743 17741 1 120.0200517 532.790560
17734 17743 17744 1 119.8800511 375.723200
17741 17743 17744 1 119.8800511 375.723200
17736 17745 17746 1 115.00000 209.200000
17747 17748 17749 1 119.8800511 375.723200
17747 17748 17757 1 119.8800511 375.723200
17749 17748 17757 1 120.0200517 532.790560
17748 17749 17750 1 121.3800518 83.010560
17748 17749 17751 1 120.0200517 532.790560
17750 17749 17751 1 121.3800518 83.010560
5373 17750 5374 1 109.50000 418.400000
5373 17750 17749 1 103.70004 836.800000
5373 17750 17759 1 109.50000 418.400000
5374 17750 17749 1 103.70004 836.800000
5374 17750 17759 1 109.50000 418.400000
17749 17750 17759 1 103.70004 1034.033760
17749 17751 17752 1 119.8800511 375.723200
17749 17751 17753 1 120.0200517 532.790560
17752 17751 17753 1 119.8800511 375.723200
17751 17753 17754 1 119.8800511 375.723200
17751 17753 17755 1 120.0200517 532.790560
17754 17753 17755 1 119.8800511 375.723200
17753 17755 17756 1 119.8800511 375.723200
17753 17755 17757 1 120.0200517 532.790560
17756 17755 17757 1 119.8800511 375.723200
17748 17757 17755 1 120.0200517 532.790560
17748 17757 17758 1 119.8800511 375.723200
17755 17757 17758 1 119.8800511 375.723200
17750 17759 17760 1 115.00000 209.200000
17761 17762 17763 1 119.8800511 375.723200
17761 17762 17771 1 119.8800511 375.723200
17763 17762 17771 1 120.0200517 532.790560
17762 17763 17764 1 121.3800518 83.010560
17762 17763 17765 1 120.0200517 532.790560
17764 17763 17765 1 121.3800518 83.010560
459 17764 460 1 109.50000 418.400000
459 17764 17763 1 103.70004 836.800000
459 17764 17773 1 109.50000 418.400000
460 17764 17763 1 103.70004 836.800000
460 17764 17773 1 109.50000 418.400000
17763 17764 17773 1 103.70004 1034.033760
17763 17765 17766 1 119.8800511 375.723200
17763 17765 17767 1 120.0200517 532.790560
17766 17765 17767 1 119.8800511 375.723200
17765 17767 17768 1 119.8800511 375.723200
17765 17767 17769 1 120.0200517 532.790560
17768 17767 17769 1 119.8800511 375.723200
17767 17769 17770 1 119.8800511 375.723200
17767 17769 17771 1 120.0200517 532.790560
17770 17769 17771 1 119.8800511 375.723200
17762 17771 17769 1 120.0200517 532.790560
17762 17771 17772 1 119.8800511 375.723200
17769 17771 17772 1 119.8800511 375.723200
17764 17773 17774 1 115.00000 209.200000
17775 17776 17777 1 119.8800511 375.723200
17775 17776 17785 1 119.8800511 375.723200
17777 17776 17785 1 120.0200517 532.790560
17776 17777 17778 1 121.3800518 83.010560
17776 17777 17779 1 120.0200517 532.790560
17778 17777 17779 1 121.3800518 83.010560
1742 17778 8259 1 109.50000 418.400000
1742 17778 17777 1 103.70004 836.800000
1742 17778 17787 1 109.50000 418.400000
8259 17778 17777 1 103.70004 836.800000
8259 17778 17787 1 109.50000 418.400000
17777 17778 17787 1 103.70004 1034.033760
17777 17779 17780 1 119.8800511 375.723200
17777 17779 17781 1 120.0200517 532.790560
17780 17779 17781 1 119.8800511 375.723200
17779 17781 17782 1 119.8800511 375.723200
17779 17781 17783 1 120.0200517 532.790560
17782 17781 17783 1 119.8800511 375.723200
17781 17783 17784 1 119.8800511 375.723200
17781 17783 17785 1 120.0200517 532.790560
17784 17783 17785 1 119.8800511 375.723200
17776 17785 17783 1 120.0200517 532.790560
17776 17785 17786 1 119.8800511 375.723200
17783 17785 17786 1 119.8800511 375.723200
17778 17787 17788 1 115.00000 209.200000
17789 17790 17791 1 119.8800511 375.723200
17789 17790 17799 1 119.8800511 375.723200
17791 17790 17799 1 120.0200517 532.790560
17790 17791 17792 1 121.3800518 83.010560
17790 17791 17793 1 120.0200517 532.790560
17792 17791 17793 1 121.3800518 83.010560
3956 17792 4014 1 109.50000 418.400000
3956 17792 17791 1 103.70004 836.800000
3956 17792 17801 1 109.50000 418.400000
4014 17792 17791 1 103.70004 836.800000
4014 17792 17801 1 109.50000 418.400000
17791 17792 17801 1 103.70004 1034.033760
17791 17793 17794 1 119.8800511 375.723200
17791 17793 17795 1 120.0200517 532.790560
17794 17793 17795 1 119.8800511 375.723200
17793 17795 17796 1 119.8800511 375.723200
17793 17795 17797 1 120.0200517 532.790560
17796 17795 17797 1 119.8800511 375.723200
17795 17797 17798 1 119.8800511 375.723200
17795 17797 17799 1 120.0200517 532.790560
17798 17797 17799 1 119.8800511 375.723200
17790 17799 17797 1 120.0200517 532.790560
17790 17799 17800 1 119.8800511 375.723200
17797 17799 17800 1 119.8800511 375.723200
17792 17801 17802 1 115.00000 209.200000
17803 17804 17805 1 119.8800511 375.723200
17803 17804 17813 1 119.8800511 375.723200
17805 17804 17813 1 120.0200517 532.790560
17804 17805 17806 1 121.3800518 83.010560
17804 17805 17807 1 120.0200517 532.790560
17806 17805 17807 1 121.3800518 83.010560
7813 17806 10355 1 109.50000 418.400000
7813 17806 17805 1 103.70004 836.800000
7813 17806 17815 1 109.50000 418.400000
10355 17806 17805 1 103.70004 836.800000
10355 17806 17815 1 109.50000 418.400000
17805 17806 17815 1 103.70004 1034.033760
17805 17807 17808 1 119.8800511 375.723200
17805 17807 17809 1 120.0200517 532.790560
17808 17807 17809 1 119.8800511 375.723200
17807 17809 17810 1 119.8800511 375.723200
17807 17809 17811 1 120.0200517 532.790560
17810 17809 17811 1 119.8800511 375.723200
17809 17811 17812 1 119.8800511 375.723200
17809 17811 17813 1 120.0200517 532.790560
17812 17811 17813 1 119.8800511 375.723200
17804 17813 17811 1 120.0200517 532.790560
17804 17813 17814 1 119.8800511 375.723200
17811 17813 17814 1 119.8800511 375.723200
17806 17815 17816 1 115.00000 209.200000
17817 17818 17819 1 119.8800511 375.723200
17817 17818 17827 1 119.8800511 375.723200
17819 17818 17827 1 120.0200517 532.790560
17818 17819 17820 1 121.3800518 83.010560
17818 17819 17821 1 120.0200517 532.790560
17820 17819 17821 1 121.3800518 83.010560
5173 17820 5174 1 109.50000 418.400000
5173 17820 17819 1 103.70004 836.800000
5173 17820 17829 1 109.50000 418.400000
5174 17820 17819 1 103.70004 836.800000
5174 17820 17829 1 109.50000 418.400000
17819 17820 17829 1 103.70004 1034.033760
17819 17821 17822 1 119.8800511 375.723200
17819 17821 17823 1 120.0200517 532.790560
17822 17821 17823 1 119.8800511 375.723200
17821 17823 17824 1 119.8800511 375.723200
17821 17823 17825 1 120.0200517 532.790560
17824 17823 17825 1 119.8800511 375.723200
17823 17825 17826 1 119.8800511 375.723200
17823 17825 17827 1 120.0200517 532.790560
17826 17825 17827 1 119.8800511 375.723200
17818 17827 17825 1 120.0200517 532.790560
17818 17827 17828 1 119.8800511 375.723200
17825 17827 17828 1 119.8800511 375.723200
17820 17829 17830 1 115.00000 209.200000
17831 17832 17833 1 119.8800511 375.723200
17831 17832 17841 1 119.8800511 375.723200
17833 17832 17841 1 120.0200517 532.790560
17832 17833 17834 1 121.3800518 83.010560
17832 17833 17835 1 120.0200517 532.790560
17834 17833 17835 1 121.3800518 83.010560
8095 17834 10083 1 109.50000 418.400000
8095 17834 17833 1 103.70004 836.800000
8095 17834 17843 1 109.50000 418.400000
10083 17834 17833 1 103.70004 836.800000
10083 17834 17843 1 109.50000 418.400000
17833 17834 17843 1 103.70004 1034.033760
17833 17835 17836 1 119.8800511 375.723200
17833 17835 17837 1 120.0200517 532.790560
17836 17835 17837 1 119.8800511 375.723200
17835 17837 17838 1 119.8800511 375.723200
17835 17837 17839 1 120.0200517 532.790560
17838 17837 17839 1 119.8800511 375.723200
17837 17839 17840 1 119.8800511 375.723200
17837 17839 17841 1 120.0200517 532.790560
17840 17839 17841 1 119.8800511 375.723200
17832 17841 17839 1 120.0200517 532.790560
17832 17841 17842 1 119.8800511 375.723200
17839 17841 17842 1 119.8800511 375.723200
17834 17843 17844 1 115.00000 209.200000
17845 17846 17847 1 119.8800511 375.723200
17845 17846 17855 1 119.8800511 375.723200
17847 17846 17855 1 120.0200517 532.790560
17846 17847 17848 1 121.3800518 83.010560
17846 17847 17849 1 120.0200517 532.790560
17848 17847 17849 1 121.3800518 83.010560
10829 17848 10957 1 109.50000 418.400000
10829 17848 17847 1 103.70004 836.800000
10829 17848 17857 1 109.50000 418.400000
10957 17848 17847 1 103.70004 836.800000
10957 17848 17857 1 109.50000 418.400000
17847 17848 17857 1 103.70004 1034.033760
17847 17849 17850 1 119.8800511 375.723200
17847 17849 17851 1 120.0200517 532.790560
17850 17849 17851 1 119.8800511 375.723200
17849 17851 17852 1 119.8800511 375.723200
17849 17851 17853 1 120.0200517 532.790560
17852 17851 17853 1 119.8800511 375.723200
17851 17853 17854 1 119.8800511 375.723200
17851 17853 17855 1 120.0200517 532.790560
17854 17853 17855 1 119.8800511 375.723200
17846 17855 17853 1 120.0200517 532.790560
17846 17855 17856 1 119.8800511 375.723200
17853 17855 17856 1 119.8800511 375.723200
17848 17857 17858 1 115.00000 209.200000
17859 17860 17861 1 119.8800511 375.723200
17859 17860 17869 1 119.8800511 375.723200
17861 17860 17869 1 120.0200517 532.790560
17860 17861 17862 1 121.3800518 83.010560
17860 17861 17863 1 120.0200517 532.790560
17862 17861 17863 1 121.3800518 83.010560
8962 17862 9672 1 109.50000 418.400000
8962 17862 17861 1 103.70004 836.800000
8962 17862 17871 1 109.50000 418.400000
9672 17862 17861 1 103.70004 836.800000
9672 17862 17871 1 109.50000 418.400000
17861 17862 17871 1 103.70004 1034.033760
17861 17863 17864 1 119.8800511 375.723200
17861 17863 17865 1 120.0200517 532.790560
17864 17863 17865 1 119.8800511 375.723200
17863 17865 17866 1 119.8800511 375.723200
17863 17865 17867 1 120.0200517 532.790560
17866 17865 17867 1 119.8800511 375.723200
17865 17867 17868 1 119.8800511 375.723200
17865 17867 17869 1 120.0200517 532.790560
17868 17867 17869 1 119.8800511 375.723200
17860 17869 17867 1 120.0200517 532.790560
17860 17869 17870 1 119.8800511 375.723200
17867 17869 17870 1 119.8800511 375.723200
17862 17871 17872 1 115.00000 209.200000
17873 17874 17875 1 119.8800511 375.723200
17873 17874 17883 1 119.8800511 375.723200
17875 17874 17883 1 120.0200517 532.790560
17874 17875 17876 1 121.3800518 83.010560
17874 17875 17877 1 120.0200517 532.790560
17876 17875 17877 1 121.3800518 83.010560
5540 17876 5541 1 109.50000 418.400000
5540 17876 17875 1 103.70004 836.800000
5540 17876 17885 1 109.50000 418.400000
5541 17876 17875 1 103.70004 836.800000
5541 17876 17885 1 109.50000 418.400000
17875 17876 17885 1 103.70004 1034.033760
17875 17877 17878 1 119.8800511 375.723200
17875 17877 17879 1 120.0200517 532.790560
17878 17877 17879 1 119.8800511 375.723200
17877 17879 17880 1 119.8800511 375.723200
17877 17879 17881 1 120.0200517 532.790560
17880 17879 17881 1 119.8800511 375.723200
17879 17881 17882 1 119.8800511 375.723200
17879 17881 17883 1 120.0200517 532.790560
17882 17881 17883 1 119.8800511 375.723200
17874 17883 17881 1 120.0200517 532.790560
17874 17883 17884 1 119.8800511 375.723200
17881 17883 17884 1 119.8800511 375.723200
17876 17885 17886 1 115.00000 209.200000
17887 17888 17889 1 119.8800511 375.723200
17887 17888 17897 1 119.8800511 375.723200
17889 17888 17897 1 120.0200517 532.790560
17888 17889 17890 1 121.3800518 83.010560
17888 17889 17891 1 120.0200517 532.790560
17890 17889 17891 1 121.3800518 83.010560
3569 17890 8097 1 109.50000 418.400000
3569 17890 17889 1 103.70004 836.800000
3569 17890 17899 1 109.50000 418.400000
8097 17890 17889 1 103.70004 836.800000
8097 17890 17899 1 109.50000 418.400000
17889 17890 17899 1 103.70004 1034.033760
17889 17891 17892 1 119.8800511 375.723200
17889 17891 17893 1 120.0200517 532.790560
17892 17891 17893 1 119.8800511 375.723200
17891 17893 17894 1 119.8800511 375.723200
17891 17893 17895 1 120.0200517 532.790560
17894 17893 17895 1 119.8800511 375.723200
17893 17895 17896 1 119.8800511 375.723200
17893 17895 17897 1 120.0200517 532.790560
17896 17895 17897 1 119.8800511 375.723200
17888 17897 17895 1 120.0200517 532.790560
17888 17897 17898 1 119.8800511 375.723200
17895 17897 17898 1 119.8800511 375.723200
17890 17899 17900 1 115.00000 209.200000
17901 17902 17903 1 119.8800511 375.723200
17901 17902 17911 1 119.8800511 375.723200
17903 17902 17911 1 120.0200517 532.790560
17902 17903 17904 1 121.3800518 83.010560
17902 17903 17905 1 120.0200517 532.790560
17904 17903 17905 1 121.3800518 83.010560
9764 17904 9765 1 109.50000 418.400000
9764 17904 17903 1 103.70004 836.800000
9764 17904 17913 1 109.50000 418.400000
9765 17904 17903 1 103.70004 836.800000
9765 17904 17913 1 109.50000 418.400000
17903 17904 17913 1 103.70004 1034.033760
17903 17905 17906 1 119.8800511 375.723200
17903 17905 17907 1 120.0200517 532.790560
17906 17905 17907 1 119.8800511 375.723200
17905 17907 17908 1 119.8800511 375.723200
17905 17907 17909 1 120.0200517 532.790560
17908 17907 17909 1 119.8800511 375.723200
17907 17909 17910 1 119.8800511 375.723200
17907 17909 17911 1 120.0200517 532.790560
17910 17909 17911 1 119.8800511 375.723200
17902 17911 17909 1 120.0200517 532.790560
17902 17911 17912 1 119.8800511 375.723200
17909 17911 17912 1 119.8800511 375.723200
17904 17913 17914 1 115.00000 209.200000
17915 17916 17917 1 119.8800511 375.723200
17915 17916 17925 1 119.8800511 375.723200
17917 17916 17925 1 120.0200517 532.790560
17916 17917 17918 1 121.3800518 83.010560
17916 17917 17919 1 120.0200517 532.790560
17918 17917 17919 1 121.3800518 83.010560
2240 17918 6978 1 109.50000 418.400000
2240 17918 17917 1 103.70004 836.800000
2240 17918 17927 1 109.50000 418.400000
6978 17918 17917 1 103.70004 836.800000
6978 17918 17927 1 109.50000 418.400000
17917 17918 17927 1 103.70004 1034.033760
17917 17919 17920 1 119.8800511 375.723200
17917 17919 17921 1 120.0200517 532.790560
17920 17919 17921 1 119.8800511 375.723200
17919 17921 17922 1 119.8800511 375.723200
17919 17921 17923 1 120.0200517 532.790560
17922 17921 17923 1 119.8800511 375.723200
17921 17923 17924 1 119.8800511 375.723200
17921 17923 17925 1 120.0200517 532.790560
17924 17923 17925 1 119.8800511 375.723200
17916 17925 17923 1 120.0200517 532.790560
17916 17925 17926 1 119.8800511 375.723200
17923 17925 17926 1 119.8800511 375.723200
17918 17927 17928 1 115.00000 209.200000
17929 17930 17931 1 119.8800511 375.723200
17929 17930 17939 1 119.8800511 375.723200
17931 17930 17939 1 120.0200517 532.790560
17930 17931 17932 1 121.3800518 83.010560
17930 17931 17933 1 120.0200517 532.790560
17932 17931 17933 1 121.3800518 83.010560
147 17932 4539 1 109.50000 418.400000
147 17932 17931 1 103.70004 836.800000
147 17932 17941 1 109.50000 418.400000
4539 17932 17931 1 103.70004 836.800000
4539 17932 17941 1 109.50000 418.400000
17931 17932 17941 1 103.70004 1034.033760
17931 17933 17934 1 119.8800511 375.723200
17931 17933 17935 1 120.0200517 532.790560
17934 17933 17935 1 119.8800511 375.723200
17933 17935 17936 1 119.8800511 375.723200
17933 17935 17937 1 120.0200517 532.790560
17936 17935 17937 1 119.8800511 375.723200
17935 17937 17938 1 119.8800511 375.723200
17935 17937 17939 1 120.0200517 532.790560
17938 17937 17939 1 119.8800511 375.723200
17930 17939 17937 1 120.0200517 532.790560
17930 17939 17940 1 119.8800511 375.723200
17937 17939 17940 1 119.8800511 375.723200
17932 17941 17942 1 115.00000 209.200000
17943 17944 17945 1 119.8800511 375.723200
17943 17944 17953 1 119.8800511 375.723200
17945 17944 17953 1 120.0200517 532.790560
17944 17945 17946 1 121.3800518 83.010560
17944 17945 17947 1 120.0200517 532.790560
17946 17945 17947 1 121.3800518 83.010560
5173 17946 9032 1 109.50000 418.400000
5173 17946 17945 1 103.70004 836.800000
5173 17946 17955 1 109.50000 418.400000
9032 17946 17945 1 103.70004 836.800000
9032 17946 17955 1 109.50000 418.400000
17945 17946 17955 1 103.70004 1034.033760
17945 17947 17948 1 119.8800511 375.723200
17945 17947 17949 1 120.0200517 532.790560
17948 17947 17949 1 119.8800511 375.723200
17947 17949 17950 1 119.8800511 375.723200
17947 17949 17951 1 120.0200517 532.790560
17950 17949 17951 1 119.8800511 375.723200
17949 17951 17952 1 119.8800511 375.723200
17949 17951 17953 1 120.0200517 532.790560
17952 17951 17953 1 119.8800511 375.723200
17944 17953 17951 1 120.0200517 532.790560
17944 17953 17954 1 119.8800511 375.723200
17951 17953 17954 1 119.8800511 375.723200
17946 17955 17956 1 115.00000 209.200000
17957 17958 17959 1 119.8800511 375.723200
17957 17958 17967 1 119.8800511 375.723200
17959 17958 17967 1 120.0200517 532.790560
17958 17959 17960 1 121.3800518 83.010560
17958 17959 17961 1 120.0200517 532.790560
17960 17959 17961 1 121.3800518 83.010560
2431 17960 5578 1 109.50000 418.400000
2431 17960 17959 1 103.70004 836.800000
2431 17960 17969 1 109.50000 418.400000
5578 17960 17959 1 103.70004 836.800000
5578 17960 17969 1 109.50000 418.400000
17959 17960 17969 1 103.70004 1034.033760
17959 17961 17962 1 119.8800511 375.723200
17959 17961 17963 1 120.0200517 532.790560
17962 17961 17963 1 119.8800511 375.723200
17961 17963 17964 1 119.8800511 375.723200
17961 17963 17965 1 120.0200517 532.790560
17964 17963 17965 1 119.8800511 375.723200
17963 17965 17966 1 119.8800511 375.723200
17963 17965 17967 1 120.0200517 532.790560
17966 17965 17967 1 119.8800511 375.723200
17958 17967 17965 1 120.0200517 532.790560
17958 17967 17968 1 119.8800511 375.723200
17965 17967 17968 1 119.8800511 375.723200
17960 17969 17970 1 115.00000 209.200000
17971 17972 17973 1 119.8800511 375.723200
17971 17972 17981 1 119.8800511 375.723200
17973 17972 17981 1 120.0200517 532.790560
17972 17973 17974 1 121.3800518 83.010560
17972 17973 17975 1 120.0200517 532.790560
17974 17973 17975 1 121.3800518 83.010560
3490 17974 10069 1 109.50000 418.400000
3490 17974 17973 1 103.70004 836.800000
3490 17974 17983 1 109.50000 418.400000
10069 17974 17973 1 103.70004 836.800000
10069 17974 17983 1 109.50000 418.400000
17973 17974 17983 1 103.70004 1034.033760
17973 17975 17976 1 119.8800511 375.723200
17973 17975 17977 1 120.0200517 532.790560
17976 17975 17977 1 119.8800511 375.723200
17975 17977 17978 1 119.8800511 375.723200
17975 17977 17979 1 120.0200517 532.790560
17978 17977 17979 1 119.8800511 375.723200
17977 17979 17980 1 119.8800511 375.723200
17977 17979 17981 1 120.0200517 532.790560
17980 17979 17981 1 119.8800511 375.723200
17972 17981 17979 1 120.0200517 532.790560
17972 17981 17982 1 119.8800511 375.723200
17979 17981 17982 1 119.8800511 375.723200
17974 17983 17984 1 115.00000 209.200000
17985 17986 17987 1 119.8800511 375.723200
17985 17986 17995 1 119.8800511 375.723200
17987 17986 17995 1 120.0200517 532.790560
17986 17987 17988 1 121.3800518 83.010560
17986 17987 17989 1 120.0200517 532.790560
17988 17987 17989 1 121.3800518 83.010560
3148 17988 3149 1 109.50000 418.400000
3148 17988 17987 1 103.70004 836.800000
3148 17988 17997 1 109.50000 418.400000
3149 17988 17987 1 103.70004 836.800000
3149 17988 17997 1 109.50000 418.400000
17987 17988 17997 1 103.70004 1034.033760
17987 17989 17990 1 119.8800511 375.723200
17987 17989 17991 1 120.0200517 532.790560
17990 17989 17991 1 119.8800511 375.723200
17989 17991 17992 1 119.8800511 375.723200
17989 17991 17993 1 120.0200517 532.790560
17992 17991 17993 1 119.8800511 375.723200
17991 17993 17994 1 119.8800511 375.723200
17991 17993 17995 1 120.0200517 532.790560
17994 17993 17995 1 119.8800511 375.723200
17986 17995 17993 1 120.0200517 532.790560
17986 17995 17996 1 119.8800511 375.723200
17993 17995 17996 1 119.8800511 375.723200
17988 17997 17998 1 115.00000 209.200000
17999 18000 18001 1 119.8800511 375.723200
17999 18000 18009 1 119.8800511 375.723200
18001 18000 18009 1 120.0200517 532.790560
18000 18001 18002 1 121.3800518 83.010560
18000 18001 18003 1 120.0200517 532.790560
18002 18001 18003 1 121.3800518 83.010560
285 18002 6031 1 109.50000 418.400000
285 18002 18001 1 103.70004 836.800000
285 18002 18011 1 109.50000 418.400000
6031 18002 18001 1 103.70004 836.800000
6031 18002 18011 1 109.50000 418.400000
18001 18002 18011 1 103.70004 1034.033760
18001 18003 18004 1 119.8800511 375.723200
18001 18003 18005 1 120.0200517 532.790560
18004 18003 18005 1 119.8800511 375.723200
18003 18005 18006 1 119.8800511 375.723200
18003 18005 18007 1 120.0200517 532.790560
18006 18005 18007 1 119.8800511 375.723200
18005 18007 18008 1 119.8800511 375.723200
18005 18007 18009 1 120.0200517 532.790560
18008 18007 18009 1 119.8800511 375.723200
18000 18009 18007 1 120.0200517 532.790560
18000 18009 18010 1 119.8800511 375.723200
18007 18009 18010 1 119.8800511 375.723200
18002 18011 18012 1 115.00000 209.200000
18013 18014 18015 1 119.8800511 375.723200
18013 18014 18023 1 119.8800511 375.723200
18015 18014 18023 1 120.0200517 532.790560
18014 18015 18016 1 121.3800518 83.010560
18014 18015 18017 1 120.0200517 532.790560
18016 18015 18017 1 121.3800518 83.010560
2148 18016 8296 1 109.50000 418.400000
2148 18016 18015 1 103.70004 836.800000
2148 18016 18025 1 109.50000 418.400000
8296 18016 18015 1 103.70004 836.800000
8296 18016 18025 1 109.50000 418.400000
18015 18016 18025 1 103.70004 1034.033760
18015 18017 18018 1 119.8800511 375.723200
18015 18017 18019 1 120.0200517 532.790560
18018 18017 18019 1 119.8800511 375.723200
18017 18019 18020 1 119.8800511 375.723200
18017 18019 18021 1 120.0200517 532.790560
18020 18019 18021 1 119.8800511 375.723200
18019 18021 18022 1 119.8800511 375.723200
18019 18021 18023 1 120.0200517 532.790560
18022 18021 18023 1 119.8800511 375.723200
18014 18023 18021 1 120.0200517 532.790560
18014 18023 18024 1 119.8800511 375.723200
18021 18023 18024 1 119.8800511 375.723200
18016 18025 18026 1 115.00000 209.200000
18027 18028 18029 1 119.8800511 375.723200
18027 18028 18037 1 119.8800511 375.723200
18029 18028 18037 1 120.0200517 532.790560
18028 18029 18030 1 121.3800518 83.010560
18028 18029 18031 1 120.0200517 532.790560
18030 18029 18031 1 121.3800518 83.010560
7980 18030 8501 1 109.50000 418.400000
7980 18030 18029 1 103.70004 836.800000
7980 18030 18039 1 109.50000 418.400000
8501 18030 18029 1 103.70004 836.800000
8501 18030 18039 1 109.50000 418.400000
18029 18030 18039 1 103.70004 1034.033760
18029 18031 18032 1 119.8800511 375.723200
18029 18031 18033 1 120.0200517 532.790560
18032 18031 18033 1 119.8800511 375.723200
18031 18033 18034 1 119.8800511 375.723200
18031 18033 18035 1 120.0200517 532.790560
18034 18033 18035 1 119.8800511 375.723200
18033 18035 18036 1 119.8800511 375.723200
18033 18035 18037 1 120.0200517 532.790560
18036 18035 18037 1 119.8800511 375.723200
18028 18037 18035 1 120.0200517 532.790560
18028 18037 18038 1 119.8800511 375.723200
18035 18037 18038 1 119.8800511 375.723200
18030 18039 18040 1 115.00000 209.200000
18041 18042 18043 1 119.8800511 375.723200
18041 18042 18051 1 119.8800511 375.723200
18043 18042 18051 1 120.0200517 532.790560
18042 18043 18044 1 121.3800518 83.010560
18042 18043 18045 1 120.0200517 532.790560
18044 18043 18045 1 121.3800518 83.010560
5030 18044 5268 1 109.50000 418.400000
5030 18044 18043 1 103.70004 836.800000
5030 18044 18053 1 109.50000 418.400000
5268 18044 18043 1 103.70004 836.800000
5268 18044 18053 1 109.50000 418.400000
18043 18044 18053 1 103.70004 1034.033760
18043 18045 18046 1 119.8800511 375.723200
18043 18045 18047 1 120.0200517 532.790560
18046 18045 18047 1 119.8800511 375.723200
18045 18047 18048 1 119.8800511 375.723200
18045 18047 18049 1 120.0200517 532.790560
18048 18047 18049 1 119.8800511 375.723200
18047 18049 18050 1 119.8800511 375.723200
18047 18049 18051 1 120.0200517 532.790560
18050 18049 18051 1 119.8800511 375.723200
18042 18051 18049 1 120.0200517 532.790560
18042 18051 18052 1 119.8800511 375.723200
18049 18051 18052 1 119.8800511 375.723200
18044 18053 18054 1 115.00000 209.200000
18055 18056 18057 1 119.8800511 375.723200
18055 18056 18065 1 119.8800511 375.723200
18057 18056 18065 1 120.0200517 532.790560
18056 18057 18058 1 121.3800518 83.010560
18056 18057 18059 1 120.0200517 532.790560
18058 18057 18059 1 121.3800518 83.010560
1450 18058 6725 1 109.50000 418.400000
1450 18058 18057 1 103.70004 836.800000
1450 18058 18067 1 109.50000 418.400000
6725 18058 18057 1 103.70004 836.800000
6725 18058 18067 1 109.50000 418.400000
18057 18058 18067 1 103.70004 1034.033760
18057 18059 18060 1 119.8800511 375.723200
18057 18059 18061 1 120.0200517 532.790560
18060 18059 18061 1 119.8800511 375.723200
18059 18061 18062 1 119.8800511 375.723200
18059 18061 18063 1 120.0200517 532.790560
18062 18061 18063 1 119.8800511 375.723200
18061 18063 18064 1 119.8800511 375.723200
18061 18063 18065 1 120.0200517 532.790560
18064 18063 18065 1 119.8800511 375.723200
18056 18065 18063 1 120.0200517 532.790560
18056 18065 18066 1 119.8800511 375.723200
18063 18065 18066 1 119.8800511 375.723200
18058 18067 18068 1 115.00000 209.200000
18069 18070 18071 1 119.8800511 375.723200
18069 18070 18079 1 119.8800511 375.723200
18071 18070 18079 1 120.0200517 532.790560
18070 18071 18072 1 121.3800518 83.010560
18070 18071 18073 1 120.0200517 532.790560
18072 18071 18073 1 121.3800518 83.010560
3379 18072 3380 1 109.50000 418.400000
3379 18072 18071 1 103.70004 836.800000
3379 18072 18081 1 109.50000 418.400000
3380 18072 18071 1 103.70004 836.800000
3380 18072 18081 1 109.50000 418.400000
18071 18072 18081 1 103.70004 1034.033760
18071 18073 18074 1 119.8800511 375.723200
18071 18073 18075 1 120.0200517 532.790560
18074 18073 18075 1 119.8800511 375.723200
18073 18075 18076 1 119.8800511 375.723200
18073 18075 18077 1 120.0200517 532.790560
18076 18075 18077 1 119.8800511 375.723200
18075 18077 18078 1 119.8800511 375.723200
18075 18077 18079 1 120.0200517 532.790560
18078 18077 18079 1 119.8800511 375.723200
18070 18079 18077 1 120.0200517 532.790560
18070 18079 18080 1 119.8800511 375.723200
18077 18079 18080 1 119.8800511 375.723200
18072 18081 18082 1 115.00000 209.200000
18083 18084 18085 1 119.8800511 375.723200
18083 18084 18093 1 119.8800511 375.723200
18085 18084 18093 1 120.0200517 532.790560
18084 18085 18086 1 121.3800518 83.010560
18084 18085 18087 1 120.0200517 532.790560
18086 18085 18087 1 121.3800518 83.010560
985 18086 10949 1 109.50000 418.400000
985 18086 18085 1 103.70004 836.800000
985 18086 18095 1 109.50000 418.400000
10949 18086 18085 1 103.70004 836.800000
10949 18086 18095 1 109.50000 418.400000
18085 18086 18095 1 103.70004 1034.033760
18085 18087 18088 1 119.8800511 375.723200
18085 18087 18089 1 120.0200517 532.790560
18088 18087 18089 1 119.8800511 375.723200
18087 18089 18090 1 119.8800511 375.723200
18087 18089 18091 1 120.0200517 532.790560
18090 18089 18091 1 119.8800511 375.723200
18089 18091 18092 1 119.8800511 375.723200
18089 18091 18093 1 120.0200517 532.790560
18092 18091 18093 1 119.8800511 375.723200
18084 18093 18091 1 120.0200517 532.790560
18084 18093 18094 1 119.8800511 375.723200
18091 18093 18094 1 119.8800511 375.723200
18086 18095 18096 1 115.00000 209.200000
18097 18098 18099 1 119.8800511 375.723200
18097 18098 18107 1 119.8800511 375.723200
18099 18098 18107 1 120.0200517 532.790560
18098 18099 18100 1 121.3800518 83.010560
18098 18099 18101 1 120.0200517 532.790560
18100 18099 18101 1 121.3800518 83.010560
3207 18100 9561 1 109.50000 418.400000
3207 18100 18099 1 103.70004 836.800000
3207 18100 18109 1 109.50000 418.400000
9561 18100 18099 1 103.70004 836.800000
9561 18100 18109 1 109.50000 418.400000
18099 18100 18109 1 103.70004 1034.033760
18099 18101 18102 1 119.8800511 375.723200
18099 18101 18103 1 120.0200517 532.790560
18102 18101 18103 1 119.8800511 375.723200
18101 18103 18104 1 119.8800511 375.723200
18101 18103 18105 1 120.0200517 532.790560
18104 18103 18105 1 119.8800511 375.723200
18103 18105 18106 1 119.8800511 375.723200
18103 18105 18107 1 120.0200517 532.790560
18106 18105 18107 1 119.8800511 375.723200
18098 18107 18105 1 120.0200517 532.790560
18098 18107 18108 1 119.8800511 375.723200
18105 18107 18108 1 119.8800511 375.723200
18100 18109 18110 1 115.00000 209.200000
18111 18112 18113 1 119.8800511 375.723200
18111 18112 18121 1 119.8800511 375.723200
18113 18112 18121 1 120.0200517 532.790560
18112 18113 18114 1 121.3800518 83.010560
18112 18113 18115 1 120.0200517 532.790560
18114 18113 18115 1 121.3800518 83.010560
8289 18114 9035 1 109.50000 418.400000
8289 18114 18113 1 103.70004 836.800000
8289 18114 18123 1 109.50000 418.400000
9035 18114 18113 1 103.70004 836.800000
9035 18114 18123 1 109.50000 418.400000
18113 18114 18123 1 103.70004 1034.033760
18113 18115 18116 1 119.8800511 375.723200
18113 18115 18117 1 120.0200517 532.790560
18116 18115 18117 1 119.8800511 375.723200
18115 18117 18118 1 119.8800511 375.723200
18115 18117 18119 1 120.0200517 532.790560
18118 18117 18119 1 119.8800511 375.723200
18117 18119 18120 1 119.8800511 375.723200
18117 18119 18121 1 120.0200517 532.790560
18120 18119 18121 1 119.8800511 375.723200
18112 18121 18119 1 120.0200517 532.790560
18112 18121 18122 1 119.8800511 375.723200
18119 18121 18122 1 119.8800511 375.723200
18114 18123 18124 1 115.00000 209.200000
18125 18126 18127 1 119.8800511 375.723200
18125 18126 18135 1 119.8800511 375.723200
18127 18126 18135 1 120.0200517 532.790560
18126 18127 18128 1 121.3800518 83.010560
18126 18127 18129 1 120.0200517 532.790560
18128 18127 18129 1 121.3800518 83.010560
4771 18128 4772 1 109.50000 418.400000
4771 18128 18127 1 103.70004 836.800000
4771 18128 18137 1 109.50000 418.400000
4772 18128 18127 1 103.70004 836.800000
4772 18128 18137 1 109.50000 418.400000
18127 18128 18137 1 103.70004 1034.033760
18127 18129 18130 1 119.8800511 375.723200
18127 18129 18131 1 120.0200517 532.790560
18130 18129 18131 1 119.8800511 375.723200
18129 18131 18132 1 119.8800511 375.723200
18129 18131 18133 1 120.0200517 532.790560
18132 18131 18133 1 119.8800511 375.723200
18131 18133 18134 1 119.8800511 375.723200
18131 18133 18135 1 120.0200517 532.790560
18134 18133 18135 1 119.8800511 375.723200
18126 18135 18133 1 120.0200517 532.790560
18126 18135 18136 1 119.8800511 375.723200
18133 18135 18136 1 119.8800511 375.723200
18128 18137 18138 1 115.00000 209.200000
18139 18140 18141 1 119.8800511 375.723200
18139 18140 18149 1 119.8800511 375.723200
18141 18140 18149 1 120.0200517 532.790560
18140 18141 18142 1 121.3800518 83.010560
18140 18141 18143 1 120.0200517 532.790560
18142 18141 18143 1 121.3800518 83.010560
7065 18142 7066 1 109.50000 418.400000
7065 18142 18141 1 103.70004 836.800000
7065 18142 18151 1 109.50000 418.400000
7066 18142 18141 1 103.70004 836.800000
7066 18142 18151 1 109.50000 418.400000
18141 18142 18151 1 103.70004 1034.033760
18141 18143 18144 1 119.8800511 375.723200
18141 18143 18145 1 120.0200517 532.790560
18144 18143 18145 1 119.8800511 375.723200
18143 18145 18146 1 119.8800511 375.723200
18143 18145 18147 1 120.0200517 532.790560
18146 18145 18147 1 119.8800511 375.723200
18145 18147 18148 1 119.8800511 375.723200
18145 18147 18149 1 120.0200517 532.790560
18148 18147 18149 1 119.8800511 375.723200
18140 18149 18147 1 120.0200517 532.790560
18140 18149 18150 1 119.8800511 375.723200
18147 18149 18150 1 119.8800511 375.723200
18142 18151 18152 1 115.00000 209.200000
18153 18154 18155 1 119.8800511 375.723200
18153 18154 18163 1 119.8800511 375.723200
18155 18154 18163 1 120.0200517 532.790560
18154 18155 18156 1 121.3800518 83.010560
18154 18155 18157 1 120.0200517 532.790560
18156 18155 18157 1 121.3800518 83.010560
1684 18156 5566 1 109.50000 418.400000
1684 18156 18155 1 103.70004 836.800000
1684 18156 18165 1 109.50000 418.400000
5566 18156 18155 1 103.70004 836.800000
5566 18156 18165 1 109.50000 418.400000
18155 18156 18165 1 103.70004 1034.033760
18155 18157 18158 1 119.8800511 375.723200
18155 18157 18159 1 120.0200517 532.790560
18158 18157 18159 1 119.8800511 375.723200
18157 18159 18160 1 119.8800511 375.723200
18157 18159 18161 1 120.0200517 532.790560
18160 18159 18161 1 119.8800511 375.723200
18159 18161 18162 1 119.8800511 375.723200
18159 18161 18163 1 120.0200517 532.790560
18162 18161 18163 1 119.8800511 375.723200
18154 18163 18161 1 120.0200517 532.790560
18154 18163 18164 1 119.8800511 375.723200
18161 18163 18164 1 119.8800511 375.723200
18156 18165 18166 1 115.00000 209.200000
18167 18168 18169 1 119.8800511 375.723200
18167 18168 18177 1 119.8800511 375.723200
18169 18168 18177 1 120.0200517 532.790560
18168 18169 18170 1 121.3800518 83.010560
18168 18169 18171 1 120.0200517 532.790560
18170 18169 18171 1 121.3800518 83.010560
2517 18170 4894 1 109.50000 418.400000
2517 18170 18169 1 103.70004 836.800000
2517 18170 18179 1 109.50000 418.400000
4894 18170 18169 1 103.70004 836.800000
4894 18170 18179 1 109.50000 418.400000
18169 18170 18179 1 103.70004 1034.033760
18169 18171 18172 1 119.8800511 375.723200
18169 18171 18173 1 120.0200517 532.790560
18172 18171 18173 1 119.8800511 375.723200
18171 18173 18174 1 119.8800511 375.723200
18171 18173 18175 1 120.0200517 532.790560
18174 18173 18175 1 119.8800511 375.723200
18173 18175 18176 1 119.8800511 375.723200
18173 18175 18177 1 120.0200517 532.790560
18176 18175 18177 1 119.8800511 375.723200
18168 18177 18175 1 120.0200517 532.790560
18168 18177 18178 1 119.8800511 375.723200
18175 18177 18178 1 119.8800511 375.723200
18170 18179 18180 1 115.00000 209.200000
18181 18182 18183 1 119.8800511 375.723200
18181 18182 18191 1 119.8800511 375.723200
18183 18182 18191 1 120.0200517 532.790560
18182 18183 18184 1 121.3800518 83.010560
18182 18183 18185 1 120.0200517 532.790560
18184 18183 18185 1 121.3800518 83.010560
3303 18184 3365 1 109.50000 418.400000
3303 18184 18183 1 103.70004 836.800000
3303 18184 18193 1 109.50000 418.400000
3365 18184 18183 1 103.70004 836.800000
3365 18184 18193 1 109.50000 418.400000
18183 18184 18193 1 103.70004 1034.033760
18183 18185 18186 1 119.8800511 375.723200
18183 18185 18187 1 120.0200517 532.790560
18186 18185 18187 1 119.8800511 375.723200
18185 18187 18188 1 119.8800511 375.723200
18185 18187 18189 1 120.0200517 532.790560
18188 18187 18189 1 119.8800511 375.723200
18187 18189 18190 1 119.8800511 375.723200
18187 18189 18191 1 120.0200517 532.790560
18190 18189 18191 1 119.8800511 375.723200
18182 18191 18189 1 120.0200517 532.790560
18182 18191 18192 1 119.8800511 375.723200
18189 18191 18192 1 119.8800511 375.723200
18184 18193 18194 1 115.00000 209.200000
18195 18196 18197 1 119.8800511 375.723200
18195 18196 18205 1 119.8800511 375.723200
18197 18196 18205 1 120.0200517 532.790560
18196 18197 18198 1 121.3800518 83.010560
18196 18197 18199 1 120.0200517 532.790560
18198 18197 18199 1 121.3800518 83.010560
1772 18198 7302 1 109.50000 418.400000
1772 18198 18197 1 103.70004 836.800000
1772 18198 18207 1 109.50000 418.400000
7302 18198 18197 1 103.70004 836.800000
7302 18198 18207 1 109.50000 418.400000
18197 18198 18207 1 103.70004 1034.033760
18197 18199 18200 1 119.8800511 375.723200
18197 18199 18201 1 120.0200517 532.790560
18200 18199 18201 1 119.8800511 375.723200
18199 18201 18202 1 119.8800511 375.723200
18199 18201 18203 1 120.0200517 532.790560
18202 18201 18203 1 119.8800511 375.723200
18201 18203 18204 1 119.8800511 375.723200
18201 18203 18205 1 120.0200517 532.790560
18204 18203 18205 1 119.8800511 375.723200
18196 18205 18203 1 120.0200517 532.790560
18196 18205 18206 1 119.8800511 375.723200
18203 18205 18206 1 119.8800511 375.723200
18198 18207 18208 1 115.00000 209.200000
18209 18210 18211 1 119.8800511 375.723200
18209 18210 18219 1 119.8800511 375.723200
18211 18210 18219 1 120.0200517 532.790560
18210 18211 18212 1 121.3800518 83.010560
18210 18211 18213 1 120.0200517 532.790560
18212 18211 18213 1 121.3800518 83.010560
395 18212 9825 1 109.50000 418.400000
395 18212 18211 1 103.70004 836.800000
395 18212 18221 1 109.50000 418.400000
9825 18212 18211 1 103.70004 836.800000
9825 18212 18221 1 109.50000 418.400000
18211 18212 18221 1 103.70004 1034.033760
18211 18213 18214 1 119.8800511 375.723200
18211 18213 18215 1 120.0200517 532.790560
18214 18213 18215 1 119.8800511 375.723200
18213 18215 18216 1 119.8800511 375.723200
18213 18215 18217 1 120.0200517 532.790560
18216 18215 18217 1 119.8800511 375.723200
18215 18217 18218 1 119.8800511 375.723200
18215 18217 18219 1 120.0200517 532.790560
18218 18217 18219 1 119.8800511 375.723200
18210 18219 18217 1 120.0200517 532.790560
18210 18219 18220 1 119.8800511 375.723200
18217 18219 18220 1 119.8800511 375.723200
18212 18221 18222 1 115.00000 209.200000
18223 18224 18225 1 119.8800511 375.723200
18223 18224 18233 1 119.8800511 375.723200
18225 18224 18233 1 120.0200517 532.790560
18224 18225 18226 1 121.3800518 83.010560
18224 18225 18227 1 120.0200517 532.790560
18226 18225 18227 1 121.3800518 83.010560
512 18226 6639 1 109.50000 418.400000
512 18226 18225 1 103.70004 836.800000
512 18226 18235 1 109.50000 418.400000
6639 18226 18225 1 103.70004 836.800000
6639 18226 18235 1 109.50000 418.400000
18225 18226 18235 1 103.70004 1034.033760
18225 18227 18228 1 119.8800511 375.723200
18225 18227 18229 1 120.0200517 532.790560
18228 18227 18229 1 119.8800511 375.723200
18227 18229 18230 1 119.8800511 375.723200
18227 18229 18231 1 120.0200517 532.790560
18230 18229 18231 1 119.8800511 375.723200
18229 18231 18232 1 119.8800511 375.723200
18229 18231 18233 1 120.0200517 532.790560
18232 18231 18233 1 119.8800511 375.723200
18224 18233 18231 1 120.0200517 532.790560
18224 18233 18234 1 119.8800511 375.723200
18231 18233 18234 1 119.8800511 375.723200
18226 18235 18236 1 115.00000 209.200000
18237 18238 18239 1 119.8800511 375.723200
18237 18238 18247 1 119.8800511 375.723200
18239 18238 18247 1 120.0200517 532.790560
18238 18239 18240 1 121.3800518 83.010560
18238 18239 18241 1 120.0200517 532.790560
18240 18239 18241 1 121.3800518 83.010560
5472 18240 6051 1 109.50000 418.400000
5472 18240 18239 1 103.70004 836.800000
5472 18240 18249 1 109.50000 418.400000
6051 18240 18239 1 103.70004 836.800000
6051 18240 18249 1 109.50000 418.400000
18239 18240 18249 1 103.70004 1034.033760
18239 18241 18242 1 119.8800511 375.723200
18239 18241 18243 1 120.0200517 532.790560
18242 18241 18243 1 119.8800511 375.723200
18241 18243 18244 1 119.8800511 375.723200
18241 18243 18245 1 120.0200517 532.790560
18244 18243 18245 1 119.8800511 375.723200
18243 18245 18246 1 119.8800511 375.723200
18243 18245 18247 1 120.0200517 532.790560
18246 18245 18247 1 119.8800511 375.723200
18238 18247 18245 1 120.0200517 532.790560
18238 18247 18248 1 119.8800511 375.723200
18245 18247 18248 1 119.8800511 375.723200
18240 18249 18250 1 115.00000 209.200000
18251 18252 18253 1 119.8800511 375.723200
18251 18252 18261 1 119.8800511 375.723200
18253 18252 18261 1 120.0200517 532.790560
18252 18253 18254 1 121.3800518 83.010560
18252 18253 18255 1 120.0200517 532.790560
18254 18253 18255 1 121.3800518 83.010560
4363 18254 9648 1 109.50000 418.400000
4363 18254 18253 1 103.70004 836.800000
4363 18254 18263 1 109.50000 418.400000
9648 18254 18253 1 103.70004 836.800000
9648 18254 18263 1 109.50000 418.400000
18253 18254 18263 1 103.70004 1034.033760
18253 18255 18256 1 119.8800511 375.723200
18253 18255 18257 1 120.0200517 532.790560
18256 18255 18257 1 119.8800511 375.723200
18255 18257 18258 1 119.8800511 375.723200
18255 18257 18259 1 120.0200517 532.790560
18258 18257 18259 1 119.8800511 375.723200
18257 18259 18260 1 119.8800511 375.723200
18257 18259 18261 1 120.0200517 532.790560
18260 18259 18261 1 119.8800511 375.723200
18252 18261 18259 1 120.0200517 532.790560
18252 18261 18262 1 119.8800511 375.723200
18259 18261 18262 1 119.8800511 375.723200
18254 18263 18264 1 115.00000 209.200000
18265 18266 18267 1 119.8800511 375.723200
18265 18266 18275 1 119.8800511 375.723200
18267 18266 18275 1 120.0200517 532.790560
18266 18267 18268 1 121.3800518 83.010560
18266 18267 18269 1 120.0200517 532.790560
18268 18267 18269 1 121.3800518 83.010560
4895 18268 4896 1 109.50000 418.400000
4895 18268 18267 1 103.70004 836.800000
4895 18268 18277 1 109.50000 418.400000
4896 18268 18267 1 103.70004 836.800000
4896 18268 18277 1 109.50000 418.400000
18267 18268 18277 1 103.70004 1034.033760
18267 18269 18270 1 119.8800511 375.723200
18267 18269 18271 1 120.0200517 532.790560
18270 18269 18271 1 119.8800511 375.723200
18269 18271 18272 1 119.8800511 375.723200
18269 18271 18273 1 120.0200517 532.790560
18272 18271 18273 1 119.8800511 375.723200
18271 18273 18274 1 119.8800511 375.723200
18271 18273 18275 1 120.0200517 532.790560
18274 18273 18275 1 119.8800511 375.723200
18266 18275 18273 1 120.0200517 532.790560
18266 18275 18276 1 119.8800511 375.723200
18273 18275 18276 1 119.8800511 375.723200
18268 18277 18278 1 115.00000 209.200000
18279 18280 18281 1 119.8800511 375.723200
18279 18280 18289 1 119.8800511 375.723200
18281 18280 18289 1 120.0200517 532.790560
18280 18281 18282 1 121.3800518 83.010560
18280 18281 18283 1 120.0200517 532.790560
18282 18281 18283 1 121.3800518 83.010560
9691 18282 10852 1 109.50000 418.400000
9691 18282 18281 1 103.70004 836.800000
9691 18282 18291 1 109.50000 418.400000
10852 18282 18281 1 103.70004 836.800000
10852 18282 18291 1 109.50000 418.400000
18281 18282 18291 1 103.70004 1034.033760
18281 18283 18284 1 119.8800511 375.723200
18281 18283 18285 1 120.0200517 532.790560
18284 18283 18285 1 119.8800511 375.723200
18283 18285 18286 1 119.8800511 375.723200
18283 18285 18287 1 120.0200517 532.790560
18286 18285 18287 1 119.8800511 375.723200
18285 18287 18288 1 119.8800511 375.723200
18285 18287 18289 1 120.0200517 532.790560
18288 18287 18289 1 119.8800511 375.723200
18280 18289 18287 1 120.0200517 532.790560
18280 18289 18290 1 119.8800511 375.723200
18287 18289 18290 1 119.8800511 375.723200
18282 18291 18292 1 115.00000 209.200000
18293 18294 18295 1 119.8800511 375.723200
18293 18294 18303 1 119.8800511 375.723200
18295 18294 18303 1 120.0200517 532.790560
18294 18295 18296 1 121.3800518 83.010560
18294 18295 18297 1 120.0200517 532.790560
18296 18295 18297 1 121.3800518 83.010560
8942 18296 10276 1 109.50000 418.400000
8942 18296 18295 1 103.70004 836.800000
8942 18296 18305 1 109.50000 418.400000
10276 18296 18295 1 103.70004 836.800000
10276 18296 18305 1 109.50000 418.400000
18295 18296 18305 1 103.70004 1034.033760
18295 18297 18298 1 119.8800511 375.723200
18295 18297 18299 1 120.0200517 532.790560
18298 18297 18299 1 119.8800511 375.723200
18297 18299 18300 1 119.8800511 375.723200
18297 18299 18301 1 120.0200517 532.790560
18300 18299 18301 1 119.8800511 375.723200
18299 18301 18302 1 119.8800511 375.723200
18299 18301 18303 1 120.0200517 532.790560
18302 18301 18303 1 119.8800511 375.723200
18294 18303 18301 1 120.0200517 532.790560
18294 18303 18304 1 119.8800511 375.723200
18301 18303 18304 1 119.8800511 375.723200
18296 18305 18306 1 115.00000 209.200000
18307 18308 18309 1 119.8800511 375.723200
18307 18308 18317 1 119.8800511 375.723200
18309 18308 18317 1 120.0200517 532.790560
18308 18309 18310 1 121.3800518 83.010560
18308 18309 18311 1 120.0200517 532.790560
18310 18309 18311 1 121.3800518 83.010560
395 18310 396 1 109.50000 418.400000
395 18310 18309 1 103.70004 836.800000
395 18310 18319 1 109.50000 418.400000
396 18310 18309 1 103.70004 836.800000
396 18310 18319 1 109.50000 418.400000
18309 18310 18319 1 103.70004 1034.033760
18309 18311 18312 1 119.8800511 375.723200
18309 18311 18313 1 120.0200517 532.790560
18312 18311 18313 1 119.8800511 375.723200
18311 18313 18314 1 119.8800511 375.723200
18311 18313 18315 1 120.0200517 532.790560
18314 18313 18315 1 119.8800511 375.723200
18313 18315 18316 1 119.8800511 375.723200
18313 18315 18317 1 120.0200517 532.790560
18316 18315 18317 1 119.8800511 375.723200
18308 18317 18315 1 120.0200517 532.790560
18308 18317 18318 1 119.8800511 375.723200
18315 18317 18318 1 119.8800511 375.723200
18310 18319 18320 1 115.00000 209.200000
18321 18322 18323 1 119.8800511 375.723200
18321 18322 18331 1 119.8800511 375.723200
18323 18322 18331 1 120.0200517 532.790560
18322 18323 18324 1 121.3800518 83.010560
18322 18323 18325 1 120.0200517 532.790560
18324 18323 18325 1 121.3800518 83.010560
6379 18324 7686 1 109.50000 418.400000
6379 18324 18323 1 103.70004 836.800000
6379 18324 18333 1 109.50000 418.400000
7686 18324 18323 1 103.70004 836.800000
7686 18324 18333 1 109.50000 418.400000
18323 18324 18333 1 103.70004 1034.033760
18323 18325 18326 1 119.8800511 375.723200
18323 18325 18327 1 120.0200517 532.790560
18326 18325 18327 1 119.8800511 375.723200
18325 18327 18328 1 119.8800511 375.723200
18325 18327 18329 1 120.0200517 532.790560
18328 18327 18329 1 119.8800511 375.723200
18327 18329 18330 1 119.8800511 375.723200
18327 18329 18331 1 120.0200517 532.790560
18330 18329 18331 1 119.8800511 375.723200
18322 18331 18329 1 120.0200517 532.790560
18322 18331 18332 1 119.8800511 375.723200
18329 18331 18332 1 119.8800511 375.723200
18324 18333 18334 1 115.00000 209.200000
18335 18336 18337 1 119.8800511 375.723200
18335 18336 18345 1 119.8800511 375.723200
18337 18336 18345 1 120.0200517 532.790560
18336 18337 18338 1 121.3800518 83.010560
18336 18337 18339 1 120.0200517 532.790560
18338 18337 18339 1 121.3800518 83.010560
9456 18338 10397 1 109.50000 418.400000
9456 18338 18337 1 103.70004 836.800000
9456 18338 18347 1 109.50000 418.400000
10397 18338 18337 1 103.70004 836.800000
10397 18338 18347 1 109.50000 418.400000
18337 18338 18347 1 103.70004 1034.033760
18337 18339 18340 1 119.8800511 375.723200
18337 18339 18341 1 120.0200517 532.790560
18340 18339 18341 1 119.8800511 375.723200
18339 18341 18342 1 119.8800511 375.723200
18339 18341 18343 1 120.0200517 532.790560
18342 18341 18343 1 119.8800511 375.723200
18341 18343 18344 1 119.8800511 375.723200
18341 18343 18345 1 120.0200517 532.790560
18344 18343 18345 1 119.8800511 375.723200
18336 18345 18343 1 120.0200517 532.790560
18336 18345 18346 1 119.8800511 375.723200
18343 18345 18346 1 119.8800511 375.723200
18338 18347 18348 1 115.00000 209.200000
18349 18350 18351 1 119.8800511 375.723200
18349 18350 18359 1 119.8800511 375.723200
18351 18350 18359 1 120.0200517 532.790560
18350 18351 18352 1 121.3800518 83.010560
18350 18351 18353 1 120.0200517 532.790560
18352 18351 18353 1 121.3800518 83.010560
8045 18352 8851 1 109.50000 418.400000
8045 18352 18351 1 103.70004 836.800000
8045 18352 18361 1 109.50000 418.400000
8851 18352 18351 1 103.70004 836.800000
8851 18352 18361 1 109.50000 418.400000
18351 18352 18361 1 103.70004 1034.033760
18351 18353 18354 1 119.8800511 375.723200
18351 18353 18355 1 120.0200517 532.790560
18354 18353 18355 1 119.8800511 375.723200
18353 18355 18356 1 119.8800511 375.723200
18353 18355 18357 1 120.0200517 532.790560
18356 18355 18357 1 119.8800511 375.723200
18355 18357 18358 1 119.8800511 375.723200
18355 18357 18359 1 120.0200517 532.790560
18358 18357 18359 1 119.8800511 375.723200
18350 18359 18357 1 120.0200517 532.790560
18350 18359 18360 1 119.8800511 375.723200
18357 18359 18360 1 119.8800511 375.723200
18352 18361 18362 1 115.00000 209.200000
18363 18364 18365 1 119.8800511 375.723200
18363 18364 18373 1 119.8800511 375.723200
18365 18364 18373 1 120.0200517 532.790560
18364 18365 18366 1 121.3800518 83.010560
18364 18365 18367 1 120.0200517 532.790560
18366 18365 18367 1 121.3800518 83.010560
3633 18366 3635 1 109.50000 418.400000
3633 18366 18365 1 103.70004 836.800000
3633 18366 18375 1 109.50000 418.400000
3635 18366 18365 1 103.70004 836.800000
3635 18366 18375 1 109.50000 418.400000
18365 18366 18375 1 103.70004 1034.033760
18365 18367 18368 1 119.8800511 375.723200
18365 18367 18369 1 120.0200517 532.790560
18368 18367 18369 1 119.8800511 375.723200
18367 18369 18370 1 119.8800511 375.723200
18367 18369 18371 1 120.0200517 532.790560
18370 18369 18371 1 119.8800511 375.723200
18369 18371 18372 1 119.8800511 375.723200
18369 18371 18373 1 120.0200517 532.790560
18372 18371 18373 1 119.8800511 375.723200
18364 18373 18371 1 120.0200517 532.790560
18364 18373 18374 1 119.8800511 375.723200
18371 18373 18374 1 119.8800511 375.723200
18366 18375 18376 1 115.00000 209.200000
18377 18378 18379 1 119.8800511 375.723200
18377 18378 18387 1 119.8800511 375.723200
18379 18378 18387 1 120.0200517 532.790560
18378 18379 18380 1 121.3800518 83.010560
18378 18379 18381 1 120.0200517 532.790560
18380 18379 18381 1 121.3800518 83.010560
4815 18380 4816 1 109.50000 418.400000
4815 18380 18379 1 103.70004 836.800000
4815 18380 18389 1 109.50000 418.400000
4816 18380 18379 1 103.70004 836.800000
4816 18380 18389 1 109.50000 418.400000
18379 18380 18389 1 103.70004 1034.033760
18379 18381 18382 1 119.8800511 375.723200
18379 18381 18383 1 120.0200517 532.790560
18382 18381 18383 1 119.8800511 375.723200
18381 18383 18384 1 119.8800511 375.723200
18381 18383 18385 1 120.0200517 532.790560
18384 18383 18385 1 119.8800511 375.723200
18383 18385 18386 1 119.8800511 375.723200
18383 18385 18387 1 120.0200517 532.790560
18386 18385 18387 1 119.8800511 375.723200
18378 18387 18385 1 120.0200517 532.790560
18378 18387 18388 1 119.8800511 375.723200
18385 18387 18388 1 119.8800511 375.723200
18380 18389 18390 1 115.00000 209.200000
18391 18392 18393 1 119.8800511 375.723200
18391 18392 18401 1 119.8800511 375.723200
18393 18392 18401 1 120.0200517 532.790560
18392 18393 18394 1 121.3800518 83.010560
18392 18393 18395 1 120.0200517 532.790560
18394 18393 18395 1 121.3800518 83.010560
6642 18394 10330 1 109.50000 418.400000
6642 18394 11216 1 109.50000 418.400000
6642 18394 18393 1 103.70004 836.800000
10330 18394 11216 1 109.50000 418.400000
10330 18394 18393 1 103.70004 836.800000
11216 18394 18393 1 103.70004 836.800000
18393 18395 18396 1 119.8800511 375.723200
18393 18395 18397 1 120.0200517 532.790560
18396 18395 18397 1 119.8800511 375.723200
18395 18397 18398 1 119.8800511 375.723200
18395 18397 18399 1 120.0200517 532.790560
18398 18397 18399 1 119.8800511 375.723200
18397 18399 18400 1 119.8800511 375.723200
18397 18399 18401 1 120.0200517 532.790560
18400 18399 18401 1 119.8800511 375.723200
18392 18401 18399 1 120.0200517 532.790560
18392 18401 18402 1 119.8800511 375.723200
18399 18401 18402 1 119.8800511 375.723200
18403 18404 18405 1 119.8800511 375.723200
18403 18404 18413 1 119.8800511 375.723200
18405 18404 18413 1 120.0200517 532.790560
18404 18405 18406 1 121.3800518 83.010560
18404 18405 18407 1 120.0200517 532.790560
18406 18405 18407 1 121.3800518 83.010560
3443 18406 8413 1 109.50000 418.400000
3443 18406 9048 1 109.50000 418.400000
3443 18406 18405 1 103.70004 836.800000
8413 18406 9048 1 109.50000 418.400000
8413 18406 18405 1 103.70004 836.800000
9048 18406 18405 1 103.70004 836.800000
18405 18407 18408 1 119.8800511 375.723200
18405 18407 18409 1 120.0200517 532.790560
18408 18407 18409 1 119.8800511 375.723200
18407 18409 18410 1 119.8800511 375.723200
18407 18409 18411 1 120.0200517 532.790560
18410 18409 18411 1 119.8800511 375.723200
18409 18411 18412 1 119.8800511 375.723200
18409 18411 18413 1 120.0200517 532.790560
18412 18411 18413 1 119.8800511 375.723200
18404 18413 18411 1 120.0200517 532.790560
18404 18413 18414 1 119.8800511 375.723200
18411 18413 18414 1 119.8800511 375.723200
18415 18416 18417 1 119.8800511 375.723200
18415 18416 18425 1 119.8800511 375.723200
18417 18416 18425 1 120.0200517 532.790560
18416 18417 18418 1 121.3800518 83.010560
18416 18417 18419 1 120.0200517 532.790560
18418 18417 18419 1 121.3800518 83.010560
168 18418 4102 1 109.50000 418.400000
168 18418 4103 1 109.50000 418.400000
168 18418 18417 1 103.70004 836.800000
4102 18418 4103 1 109.50000 418.400000
4102 18418 18417 1 103.70004 836.800000
4103 18418 18417 1 103.70004 836.800000
18417 18419 18420 1 119.8800511 375.723200
18417 18419 18421 1 120.0200517 532.790560
18420 18419 18421 1 119.8800511 375.723200
18419 18421 18422 1 119.8800511 375.723200
18419 18421 18423 1 120.0200517 532.790560
18422 18421 18423 1 119.8800511 375.723200
18421 18423 18424 1 119.8800511 375.723200
18421 18423 18425 1 120.0200517 532.790560
18424 18423 18425 1 119.8800511 375.723200
18416 18425 18423 1 120.0200517 532.790560
18416 18425 18426 1 119.8800511 375.723200
18423 18425 18426 1 119.8800511 375.723200
18427 18428 18429 1 119.8800511 375.723200
18427 18428 18437 1 119.8800511 375.723200
18429 18428 18437 1 120.0200517 532.790560
18428 18429 18430 1 121.3800518 83.010560
18428 18429 18431 1 120.0200517 532.790560
18430 18429 18431 1 121.3800518 83.010560
121 18430 122 1 109.50000 418.400000
121 18430 11295 1 109.50000 418.400000
121 18430 18429 1 103.70004 836.800000
122 18430 11295 1 109.50000 418.400000
122 18430 18429 1 103.70004 836.800000
11295 18430 18429 1 103.70004 836.800000
18429 18431 18432 1 119.8800511 375.723200
18429 18431 18433 1 120.0200517 532.790560
18432 18431 18433 1 119.8800511 375.723200
18431 18433 18434 1 119.8800511 375.723200
18431 18433 18435 1 120.0200517 532.790560
18434 18433 18435 1 119.8800511 375.723200
18433 18435 18436 1 119.8800511 375.723200
18433 18435 18437 1 120.0200517 532.790560
18436 18435 18437 1 119.8800511 375.723200
18428 18437 18435 1 120.0200517 532.790560
18428 18437 18438 1 119.8800511 375.723200
18435 18437 18438 1 119.8800511 375.723200
18439 18440 18441 1 119.8800511 375.723200
18439 18440 18449 1 119.8800511 375.723200
18441 18440 18449 1 120.0200517 532.790560
18440 18441 18442 1 121.3800518 83.010560
18440 18441 18443 1 120.0200517 532.790560
18442 18441 18443 1 121.3800518 83.010560
3345 18442 4952 1 109.50000 418.400000
3345 18442 10104 1 109.50000 418.400000
3345 18442 18441 1 103.70004 836.800000
4952 18442 10104 1 109.50000 418.400000
4952 18442 18441 1 103.70004 836.800000
10104 18442 18441 1 103.70004 836.800000
18441 18443 18444 1 119.8800511 375.723200
18441 18443 18445 1 120.0200517 532.790560
18444 18443 18445 1 119.8800511 375.723200
18443 18445 18446 1 119.8800511 375.723200
18443 18445 18447 1 120.0200517 532.790560
18446 18445 18447 1 119.8800511 375.723200
18445 18447 18448 1 119.8800511 375.723200
18445 18447 18449 1 120.0200517 532.790560
18448 18447 18449 1 119.8800511 375.723200
18440 18449 18447 1 120.0200517 532.790560
18440 18449 18450 1 119.8800511 375.723200
18447 18449 18450 1 119.8800511 375.723200
18451 18452 18453 1 119.8800511 375.723200
18451 18452 18461 1 119.8800511 375.723200
18453 18452 18461 1 120.0200517 532.790560
18452 18453 18454 1 121.3800518 83.010560
18452 18453 18455 1 120.0200517 532.790560
18454 18453 18455 1 121.3800518 83.010560
4168 18454 9877 1 109.50000 418.400000
4168 18454 11160 1 109.50000 418.400000
4168 18454 18453 1 103.70004 836.800000
9877 18454 11160 1 109.50000 418.400000
9877 18454 18453 1 103.70004 836.800000
11160 18454 18453 1 103.70004 836.800000
18453 18455 18456 1 119.8800511 375.723200
18453 18455 18457 1 120.0200517 532.790560
18456 18455 18457 1 119.8800511 375.723200
18455 18457 18458 1 119.8800511 375.723200
18455 18457 18459 1 120.0200517 532.790560
18458 18457 18459 1 119.8800511 375.723200
18457 18459 18460 1 119.8800511 375.723200
18457 18459 18461 1 120.0200517 532.790560
18460 18459 18461 1 119.8800511 375.723200
18452 18461 18459 1 120.0200517 532.790560
18452 18461 18462 1 119.8800511 375.723200
18459 18461 18462 1 119.8800511 375.723200
18463 18464 18465 1 119.8800511 375.723200
18463 18464 18473 1 119.8800511 375.723200
18465 18464 18473 1 120.0200517 532.790560
18464 18465 18466 1 121.3800518 83.010560
18464 18465 18467 1 120.0200517 532.790560
18466 18465 18467 1 121.3800518 83.010560
19 18466 4534 1 109.50000 418.400000
19 18466 9768 1 109.50000 418.400000
19 18466 18465 1 103.70004 836.800000
4534 18466 9768 1 109.50000 418.400000
4534 18466 18465 1 103.70004 836.800000
9768 18466 18465 1 103.70004 836.800000
18465 18467 18468 1 119.8800511 375.723200
18465 18467 18469 1 120.0200517 532.790560
18468 18467 18469 1 119.8800511 375.723200
18467 18469 18470 1 119.8800511 375.723200
18467 18469 18471 1 120.0200517 532.790560
18470 18469 18471 1 119.8800511 375.723200
18469 18471 18472 1 119.8800511 375.723200
18469 18471 18473 1 120.0200517 532.790560
18472 18471 18473 1 119.8800511 375.723200
18464 18473 18471 1 120.0200517 532.790560
18464 18473 18474 1 119.8800511 375.723200
18471 18473 18474 1 119.8800511 375.723200
18475 18476 18477 1 119.8800511 375.723200
18475 18476 18485 1 119.8800511 375.723200
18477 18476 18485 1 120.0200517 532.790560
18476 18477 18478 1 121.3800518 83.010560
18476 18477 18479 1 120.0200517 532.790560
18478 18477 18479 1 121.3800518 83.010560
1922 18478 5841 1 109.50000 418.400000
1922 18478 6262 1 109.50000 418.400000
1922 18478 18477 1 103.70004 836.800000
5841 18478 6262 1 109.50000 418.400000
5841 18478 18477 1 103.70004 836.800000
6262 18478 18477 1 103.70004 836.800000
18477 18479 18480 1 119.8800511 375.723200
18477 18479 18481 1 120.0200517 532.790560
18480 18479 18481 1 119.8800511 375.723200
18479 18481 18482 1 119.8800511 375.723200
18479 18481 18483 1 120.0200517 532.790560
18482 18481 18483 1 119.8800511 375.723200
18481 18483 18484 1 119.8800511 375.723200
18481 18483 18485 1 120.0200517 532.790560
18484 18483 18485 1 119.8800511 375.723200
18476 18485 18483 1 120.0200517 532.790560
18476 18485 18486 1 119.8800511 375.723200
18483 18485 18486 1 119.8800511 375.723200
18487 18488 18489 1 119.8800511 375.723200
18487 18488 18497 1 119.8800511 375.723200
18489 18488 18497 1 120.0200517 532.790560
18488 18489 18490 1 121.3800518 83.010560
18488 18489 18491 1 120.0200517 532.790560
18490 18489 18491 1 121.3800518 83.010560
9460 18490 10148 1 109.50000 418.400000
9460 18490 10149 1 109.50000 418.400000
9460 18490 18489 1 103.70004 836.800000
10148 18490 10149 1 109.50000 418.400000
10148 18490 18489 1 103.70004 836.800000
10149 18490 18489 1 103.70004 836.800000
18489 18491 18492 1 119.8800511 375.723200
18489 18491 18493 1 120.0200517 532.790560
18492 18491 18493 1 119.8800511 375.723200
18491 18493 18494 1 119.8800511 375.723200
18491 18493 18495 1 120.0200517 532.790560
18494 18493 18495 1 119.8800511 375.723200
18493 18495 18496 1 119.8800511 375.723200
18493 18495 18497 1 120.0200517 532.790560
18496 18495 18497 1 119.8800511 375.723200
18488 18497 18495 1 120.0200517 532.790560
18488 18497 18498 1 119.8800511 375.723200
18495 18497 18498 1 119.8800511 375.723200
18499 18500 18501 1 119.8800511 375.723200
18499 18500 18509 1 119.8800511 375.723200
18501 18500 18509 1 120.0200517 532.790560
18500 18501 18502 1 121.3800518 83.010560
18500 18501 18503 1 120.0200517 532.790560
18502 18501 18503 1 121.3800518 83.010560
2899 18502 7932 1 109.50000 418.400000
2899 18502 7933 1 109.50000 418.400000
2899 18502 18501 1 103.70004 836.800000
7932 18502 7933 1 109.50000 418.400000
7932 18502 18501 1 103.70004 836.800000
7933 18502 18501 1 103.70004 836.800000
18501 18503 18504 1 119.8800511 375.723200
18501 18503 18505 1 120.0200517 532.790560
18504 18503 18505 1 119.8800511 375.723200
18503 18505 18506 1 119.8800511 375.723200
18503 18505 18507 1 120.0200517 532.790560
18506 18505 18507 1 119.8800511 375.723200
18505 18507 18508 1 119.8800511 375.723200
18505 18507 18509 1 120.0200517 532.790560
18508 18507 18509 1 119.8800511 375.723200
18500 18509 18507 1 120.0200517 532.790560
18500 18509 18510 1 119.8800511 375.723200
18507 18509 18510 1 119.8800511 375.723200
18511 18512 18513 1 119.8800511 375.723200
18511 18512 18521 1 119.8800511 375.723200
18513 18512 18521 1 120.0200517 532.790560
18512 18513 18514 1 121.3800518 83.010560
18512 18513 18515 1 120.0200517 532.790560
18514 18513 18515 1 121.3800518 83.010560
5468 18514 8361 1 109.50000 418.400000
5468 18514 11029 1 109.50000 418.400000
5468 18514 18513 1 103.70004 836.800000
8361 18514 11029 1 109.50000 418.400000
8361 18514 18513 1 103.70004 836.800000
11029 18514 18513 1 103.70004 836.800000
18513 18515 18516 1 119.8800511 375.723200
18513 18515 18517 1 120.0200517 532.790560
18516 18515 18517 1 119.8800511 375.723200
18515 18517 18518 1 119.8800511 375.723200
18515 18517 18519 1 120.0200517 532.790560
18518 18517 18519 1 119.8800511 375.723200
18517 18519 18520 1 119.8800511 375.723200
18517 18519 18521 1 120.0200517 532.790560
18520 18519 18521 1 119.8800511 375.723200
18512 18521 18519 1 120.0200517 532.790560
18512 18521 18522 1 119.8800511 375.723200
18519 18521 18522 1 119.8800511 375.723200
18523 18524 18525 1 119.8800511 375.723200
18523 18524 18533 1 119.8800511 375.723200
18525 18524 18533 1 120.0200517 532.790560
18524 18525 18526 1 121.3800518 83.010560
18524 18525 18527 1 120.0200517 532.790560
18526 18525 18527 1 121.3800518 83.010560
783 18526 784 1 109.50000 418.400000
783 18526 785 1 109.50000 418.400000
783 18526 18525 1 103.70004 836.800000
784 18526 785 1 109.50000 418.400000
784 18526 18525 1 103.70004 836.800000
785 18526 18525 1 103.70004 836.800000
18525 18527 18528 1 119.8800511 375.723200
18525 18527 18529 1 120.0200517 532.790560
18528 18527 18529 1 119.8800511 375.723200
18527 18529 18530 1 119.8800511 375.723200
18527 18529 18531 1 120.0200517 532.790560
18530 18529 18531 1 119.8800511 375.723200
18529 18531 18532 1 119.8800511 375.723200
18529 18531 18533 1 120.0200517 532.790560
18532 18531 18533 1 119.8800511 375.723200
18524 18533 18531 1 120.0200517 532.790560
18524 18533 18534 1 119.8800511 375.723200
18531 18533 18534 1 119.8800511 375.723200
18535 18536 18537 1 119.8800511 375.723200
18535 18536 18545 1 119.8800511 375.723200
18537 18536 18545 1 120.0200517 532.790560
18536 18537 18538 1 121.3800518 83.010560
18536 18537 18539 1 120.0200517 532.790560
18538 18537 18539 1 121.3800518 83.010560
6492 18538 10307 1 109.50000 418.400000
6492 18538 11257 1 109.50000 418.400000
6492 18538 18537 1 103.70004 836.800000
10307 18538 11257 1 109.50000 418.400000
10307 18538 18537 1 103.70004 836.800000
11257 18538 18537 1 103.70004 836.800000
18537 18539 18540 1 119.8800511 375.723200
18537 18539 18541 1 120.0200517 532.790560
18540 18539 18541 1 119.8800511 375.723200
18539 18541 18542 1 119.8800511 375.723200
18539 18541 18543 1 120.0200517 532.790560
18542 18541 18543 1 119.8800511 375.723200
18541 18543 18544 1 119.8800511 375.723200
18541 18543 18545 1 120.0200517 532.790560
18544 18543 18545 1 119.8800511 375.723200
18536 18545 18543 1 120.0200517 532.790560
18536 18545 18546 1 119.8800511 375.723200
18543 18545 18546 1 119.8800511 375.723200
18547 18548 18549 1 119.8800511 375.723200
18547 18548 18557 1 119.8800511 375.723200
18549 18548 18557 1 120.0200517 532.790560
18548 18549 18550 1 121.3800518 83.010560
18548 18549 18551 1 120.0200517 532.790560
18550 18549 18551 1 121.3800518 83.010560
1993 18550 10550 1 109.50000 418.400000
1993 18550 11273 1 109.50000 418.400000
1993 18550 18549 1 103.70004 836.800000
10550 18550 11273 1 109.50000 418.400000
10550 18550 18549 1 103.70004 836.800000
11273 18550 18549 1 103.70004 836.800000
18549 18551 18552 1 119.8800511 375.723200
18549 18551 18553 1 120.0200517 532.790560
18552 18551 18553 1 119.8800511 375.723200
18551 18553 18554 1 119.8800511 375.723200
18551 18553 18555 1 120.0200517 532.790560
18554 18553 18555 1 119.8800511 375.723200
18553 18555 18556 1 119.8800511 375.723200
18553 18555 18557 1 120.0200517 532.790560
18556 18555 18557 1 119.8800511 375.723200
18548 18557 18555 1 120.0200517 532.790560
18548 18557 18558 1 119.8800511 375.723200
18555 18557 18558 1 119.8800511 375.723200
18559 18560 18561 1 119.8800511 375.723200
18559 18560 18569 1 119.8800511 375.723200
18561 18560 18569 1 120.0200517 532.790560
18560 18561 18562 1 121.3800518 83.010560
18560 18561 18563 1 120.0200517 532.790560
18562 18561 18563 1 121.3800518 83.010560
2450 18562 2451 1 109.50000 418.400000
2450 18562 2452 1 109.50000 418.400000
2450 18562 18561 1 103.70004 836.800000
2451 18562 2452 1 109.50000 418.400000
2451 18562 18561 1 103.70004 836.800000
2452 18562 18561 1 103.70004 836.800000
18561 18563 18564 1 119.8800511 375.723200
18561 18563 18565 1 120.0200517 532.790560
18564 18563 18565 1 119.8800511 375.723200
18563 18565 18566 1 119.8800511 375.723200
18563 18565 18567 1 120.0200517 532.790560
18566 18565 18567 1 119.8800511 375.723200
18565 18567 18568 1 119.8800511 375.723200
18565 18567 18569 1 120.0200517 532.790560
18568 18567 18569 1 119.8800511 375.723200
18560 18569 18567 1 120.0200517 532.790560
18560 18569 18570 1 119.8800511 375.723200
18567 18569 18570 1 119.8800511 375.723200
18571 18572 18573 1 119.8800511 375.723200
18571 18572 18581 1 119.8800511 375.723200
18573 18572 18581 1 120.0200517 532.790560
18572 18573 18574 1 121.3800518 83.010560
18572 18573 18575 1 120.0200517 532.790560
18574 18573 18575 1 121.3800518 83.010560
8473 18574 8474 1 109.50000 418.400000
8473 18574 8829 1 109.50000 418.400000
8473 18574 18573 1 103.70004 836.800000
8474 18574 8829 1 109.50000 418.400000
8474 18574 18573 1 103.70004 836.800000
8829 18574 18573 1 103.70004 836.800000
18573 18575 18576 1 119.8800511 375.723200
18573 18575 18577 1 120.0200517 532.790560
18576 18575 18577 1 119.8800511 375.723200
18575 18577 18578 1 119.8800511 375.723200
18575 18577 18579 1 120.0200517 532.790560
18578 18577 18579 1 119.8800511 375.723200
18577 18579 18580 1 119.8800511 375.723200
18577 18579 18581 1 120.0200517 532.790560
18580 18579 18581 1 119.8800511 375.723200
18572 18581 18579 1 120.0200517 532.790560
18572 18581 18582 1 119.8800511 375.723200
18579 18581 18582 1 119.8800511 375.723200
18583 18584 18585 1 119.8800511 375.723200
18583 18584 18593 1 119.8800511 375.723200
18585 18584 18593 1 120.0200517 532.790560
18584 18585 18586 1 121.3800518 83.010560
18584 18585 18587 1 120.0200517 532.790560
18586 18585 18587 1 121.3800518 83.010560
3148 18586 7375 1 109.50000 418.400000
3148 18586 7376 1 109.50000 418.400000
3148 18586 18585 1 103.70004 836.800000
7375 18586 7376 1 109.50000 418.400000
7375 18586 18585 1 103.70004 836.800000
7376 18586 18585 1 103.70004 836.800000
18585 18587 18588 1 119.8800511 375.723200
18585 18587 18589 1 120.0200517 532.790560
18588 18587 18589 1 119.8800511 375.723200
18587 18589 18590 1 119.8800511 375.723200
18587 18589 18591 1 120.0200517 532.790560
18590 18589 18591 1 119.8800511 375.723200
18589 18591 18592 1 119.8800511 375.723200
18589 18591 18593 1 120.0200517 532.790560
18592 18591 18593 1 119.8800511 375.723200
18584 18593 18591 1 120.0200517 532.790560
18584 18593 18594 1 119.8800511 375.723200
18591 18593 18594 1 119.8800511 375.723200
18595 18596 18597 1 119.8800511 375.723200
18595 18596 18605 1 119.8800511 375.723200
18597 18596 18605 1 120.0200517 532.790560
18596 18597 18598 1 121.3800518 83.010560
18596 18597 18599 1 120.0200517 532.790560
18598 18597 18599 1 121.3800518 83.010560
1380 18598 1381 1 109.50000 418.400000
1380 18598 1382 1 109.50000 418.400000
1380 18598 18597 1 103.70004 836.800000
1381 18598 1382 1 109.50000 418.400000
1381 18598 18597 1 103.70004 836.800000
1382 18598 18597 1 103.70004 836.800000
18597 18599 18600 1 119.8800511 375.723200
18597 18599 18601 1 120.0200517 532.790560
18600 18599 18601 1 119.8800511 375.723200
18599 18601 18602 1 119.8800511 375.723200
18599 18601 18603 1 120.0200517 532.790560
18602 18601 18603 1 119.8800511 375.723200
18601 18603 18604 1 119.8800511 375.723200
18601 18603 18605 1 120.0200517 532.790560
18604 18603 18605 1 119.8800511 375.723200
18596 18605 18603 1 120.0200517 532.790560
18596 18605 18606 1 119.8800511 375.723200
18603 18605 18606 1 119.8800511 375.723200
18607 18608 18609 1 119.8800511 375.723200
18607 18608 18617 1 119.8800511 375.723200
18609 18608 18617 1 120.0200517 532.790560
18608 18609 18610 1 121.3800518 83.010560
18608 18609 18611 1 120.0200517 532.790560
18610 18609 18611 1 121.3800518 83.010560
4330 18610 6695 1 109.50000 418.400000
4330 18610 8777 1 109.50000 418.400000
4330 18610 18609 1 103.70004 836.800000
6695 18610 8777 1 109.50000 418.400000
6695 18610 18609 1 103.70004 836.800000
8777 18610 18609 1 103.70004 836.800000
18609 18611 18612 1 119.8800511 375.723200
18609 18611 18613 1 120.0200517 532.790560
18612 18611 18613 1 119.8800511 375.723200
18611 18613 18614 1 119.8800511 375.723200
18611 18613 18615 1 120.0200517 532.790560
18614 18613 18615 1 119.8800511 375.723200
18613 18615 18616 1 119.8800511 375.723200
18613 18615 18617 1 120.0200517 532.790560
18616 18615 18617 1 119.8800511 375.723200
18608 18617 18615 1 120.0200517 532.790560
18608 18617 18618 1 119.8800511 375.723200
18615 18617 18618 1 119.8800511 375.723200
18619 18620 18621 1 119.8800511 375.723200
18619 18620 18629 1 119.8800511 375.723200
18621 18620 18629 1 120.0200517 532.790560
18620 18621 18622 1 121.3800518 83.010560
18620 18621 18623 1 120.0200517 532.790560
18622 18621 18623 1 121.3800518 83.010560
7008 18622 7978 1 109.50000 418.400000
7008 18622 10582 1 109.50000 418.400000
7008 18622 18621 1 103.70004 836.800000
7978 18622 10582 1 109.50000 418.400000
7978 18622 18621 1 103.70004 836.800000
10582 18622 18621 1 103.70004 836.800000
18621 18623 18624 1 119.8800511 375.723200
18621 18623 18625 1 120.0200517 532.790560
18624 18623 18625 1 119.8800511 375.723200
18623 18625 18626 1 119.8800511 375.723200
18623 18625 18627 1 120.0200517 532.790560
18626 18625 18627 1 119.8800511 375.723200
18625 18627 18628 1 119.8800511 375.723200
18625 18627 18629 1 120.0200517 532.790560
18628 18627 18629 1 119.8800511 375.723200
18620 18629 18627 1 120.0200517 532.790560
18620 18629 18630 1 119.8800511 375.723200
18627 18629 18630 1 119.8800511 375.723200
18631 18632 18633 1 119.8800511 375.723200
18631 18632 18641 1 119.8800511 375.723200
18633 18632 18641 1 120.0200517 532.790560
18632 18633 18634 1 121.3800518 83.010560
18632 18633 18635 1 120.0200517 532.790560
18634 18633 18635 1 121.3800518 83.010560
2419 18634 3922 1 109.50000 418.400000
2419 18634 7908 1 109.50000 418.400000
2419 18634 18633 1 103.70004 836.800000
3922 18634 7908 1 109.50000 418.400000
3922 18634 18633 1 103.70004 836.800000
7908 18634 18633 1 103.70004 836.800000
18633 18635 18636 1 119.8800511 375.723200
18633 18635 18637 1 120.0200517 532.790560
18636 18635 18637 1 119.8800511 375.723200
18635 18637 18638 1 119.8800511 375.723200
18635 18637 18639 1 120.0200517 532.790560
18638 18637 18639 1 119.8800511 375.723200
18637 18639 18640 1 119.8800511 375.723200
18637 18639 18641 1 120.0200517 532.790560
18640 18639 18641 1 119.8800511 375.723200
18632 18641 18639 1 120.0200517 532.790560
18632 18641 18642 1 119.8800511 375.723200
18639 18641 18642 1 119.8800511 375.723200
18643 18644 18645 1 119.8800511 375.723200
18643 18644 18653 1 119.8800511 375.723200
18645 18644 18653 1 120.0200517 532.790560
18644 18645 18646 1 121.3800518 83.010560
18644 18645 18647 1 120.0200517 532.790560
18646 18645 18647 1 121.3800518 83.010560
3879 18646 3880 1 109.50000 418.400000
3879 18646 3881 1 109.50000 418.400000
3879 18646 18645 1 103.70004 836.800000
3880 18646 3881 1 109.50000 418.400000
3880 18646 18645 1 103.70004 836.800000
3881 18646 18645 1 103.70004 836.800000
18645 18647 18648 1 119.8800511 375.723200
18645 18647 18649 1 120.0200517 532.790560
18648 18647 18649 1 119.8800511 375.723200
18647 18649 18650 1 119.8800511 375.723200
18647 18649 18651 1 120.0200517 532.790560
18650 18649 18651 1 119.8800511 375.723200
18649 18651 18652 1 119.8800511 375.723200
18649 18651 18653 1 120.0200517 532.790560
18652 18651 18653 1 119.8800511 375.723200
18644 18653 18651 1 120.0200517 532.790560
18644 18653 18654 1 119.8800511 375.723200
18651 18653 18654 1 119.8800511 375.723200
18655 18656 18657 1 119.8800511 375.723200
18655 18656 18665 1 119.8800511 375.723200
18657 18656 18665 1 120.0200517 532.790560
18656 18657 18658 1 121.3800518 83.010560
18656 18657 18659 1 120.0200517 532.790560
18658 18657 18659 1 121.3800518 83.010560
7624 18658 7625 1 109.50000 418.400000
7624 18658 7626 1 109.50000 418.400000
7624 18658 18657 1 103.70004 836.800000
7625 18658 7626 1 109.50000 418.400000
7625 18658 18657 1 103.70004 836.800000
7626 18658 18657 1 103.70004 836.800000
18657 18659 18660 1 119.8800511 375.723200
18657 18659 18661 1 120.0200517 532.790560
18660 18659 18661 1 119.8800511 375.723200
18659 18661 18662 1 119.8800511 375.723200
18659 18661 18663 1 120.0200517 532.790560
18662 18661 18663 1 119.8800511 375.723200
18661 18663 18664 1 119.8800511 375.723200
18661 18663 18665 1 120.0200517 532.790560
18664 18663 18665 1 119.8800511 375.723200
18656 18665 18663 1 120.0200517 532.790560
18656 18665 18666 1 119.8800511 375.723200
18663 18665 18666 1 119.8800511 375.723200
18667 18668 18669 1 119.8800511 375.723200
18667 18668 18677 1 119.8800511 375.723200
18669 18668 18677 1 120.0200517 532.790560
18668 18669 18670 1 121.3800518 83.010560
18668 18669 18671 1 120.0200517 532.790560
18670 18669 18671 1 121.3800518 83.010560
2298 18670 9090 1 109.50000 418.400000
2298 18670 11170 1 109.50000 418.400000
2298 18670 18669 1 103.70004 836.800000
9090 18670 11170 1 109.50000 418.400000
9090 18670 18669 1 103.70004 836.800000
11170 18670 18669 1 103.70004 836.800000
18669 18671 18672 1 119.8800511 375.723200
18669 18671 18673 1 120.0200517 532.790560
18672 18671 18673 1 119.8800511 375.723200
18671 18673 18674 1 119.8800511 375.723200
18671 18673 18675 1 120.0200517 532.790560
18674 18673 18675 1 119.8800511 375.723200
18673 18675 18676 1 119.8800511 375.723200
18673 18675 18677 1 120.0200517 532.790560
18676 18675 18677 1 119.8800511 375.723200
18668 18677 18675 1 120.0200517 532.790560
18668 18677 18678 1 119.8800511 375.723200
18675 18677 18678 1 119.8800511 375.723200
18679 18680 18681 1 119.8800511 375.723200
18679 18680 18689 1 119.8800511 375.723200
18681 18680 18689 1 120.0200517 532.790560
18680 18681 18682 1 121.3800518 83.010560
18680 18681 18683 1 120.0200517 532.790560
18682 18681 18683 1 121.3800518 83.010560
4391 18682 4392 1 109.50000 418.400000
4391 18682 7180 1 109.50000 418.400000
4391 18682 18681 1 103.70004 836.800000
4392 18682 7180 1 109.50000 418.400000
4392 18682 18681 1 103.70004 836.800000
7180 18682 18681 1 103.70004 836.800000
18681 18683 18684 1 119.8800511 375.723200
18681 18683 18685 1 120.0200517 532.790560
18684 18683 18685 1 119.8800511 375.723200
18683 18685 18686 1 119.8800511 375.723200
18683 18685 18687 1 120.0200517 532.790560
18686 18685 18687 1 119.8800511 375.723200
18685 18687 18688 1 119.8800511 375.723200
18685 18687 18689 1 120.0200517 532.790560
18688 18687 18689 1 119.8800511 375.723200
18680 18689 18687 1 120.0200517 532.790560
18680 18689 18690 1 119.8800511 375.723200
18687 18689 18690 1 119.8800511 375.723200
18691 18692 18693 1 119.8800511 375.723200
18691 18692 18701 1 119.8800511 375.723200
18693 18692 18701 1 120.0200517 532.790560
18692 18693 18694 1 121.3800518 83.010560
18692 18693 18695 1 120.0200517 532.790560
18694 18693 18695 1 121.3800518 83.010560
3376 18694 3377 1 109.50000 418.400000
3376 18694 3378 1 109.50000 418.400000
3376 18694 18693 1 103.70004 836.800000
3377 18694 3378 1 109.50000 418.400000
3377 18694 18693 1 103.70004 836.800000
3378 18694 18693 1 103.70004 836.800000
18693 18695 18696 1 119.8800511 375.723200
18693 18695 18697 1 120.0200517 532.790560
18696 18695 18697 1 119.8800511 375.723200
18695 18697 18698 1 119.8800511 375.723200
18695 18697 18699 1 120.0200517 532.790560
18698 18697 18699 1 119.8800511 375.723200
18697 18699 18700 1 119.8800511 375.723200
18697 18699 18701 1 120.0200517 532.790560
18700 18699 18701 1 119.8800511 375.723200
18692 18701 18699 1 120.0200517 532.790560
18692 18701 18702 1 119.8800511 375.723200
18699 18701 18702 1 119.8800511 375.723200
18703 18704 18705 1 119.8800511 375.723200
18703 18704 18713 1 119.8800511 375.723200
18705 18704 18713 1 120.0200517 532.790560
18704 18705 18706 1 121.3800518 83.010560
18704 18705 18707 1 120.0200517 532.790560
18706 18705 18707 1 121.3800518 83.010560
3604 18706 5991 1 109.50000 418.400000
3604 18706 5992 1 109.50000 418.400000
3604 18706 18705 1 103.70004 836.800000
5991 18706 5992 1 109.50000 418.400000
5991 18706 18705 1 103.70004 836.800000
5992 18706 18705 1 103.70004 836.800000
18705 18707 18708 1 119.8800511 375.723200
18705 18707 18709 1 120.0200517 532.790560
18708 18707 18709 1 119.8800511 375.723200
18707 18709 18710 1 119.8800511 375.723200
18707 18709 18711 1 120.0200517 532.790560
18710 18709 18711 1 119.8800511 375.723200
18709 18711 18712 1 119.8800511 375.723200
18709 18711 18713 1 120.0200517 532.790560
18712 18711 18713 1 119.8800511 375.723200
18704 18713 18711 1 120.0200517 532.790560
18704 18713 18714 1 119.8800511 375.723200
18711 18713 18714 1 119.8800511 375.723200
18715 18716 18717 1 119.8800511 375.723200
18715 18716 18725 1 119.8800511 375.723200
18717 18716 18725 1 120.0200517 532.790560
18716 18717 18718 1 121.3800518 83.010560
18716 18717 18719 1 120.0200517 532.790560
18718 18717 18719 1 121.3800518 83.010560
1407 18718 10329 1 109.50000 418.400000
1407 18718 10385 1 109.50000 418.400000
1407 18718 18717 1 103.70004 836.800000
10329 18718 10385 1 109.50000 418.400000
10329 18718 18717 1 103.70004 836.800000
10385 18718 18717 1 103.70004 836.800000
18717 18719 18720 1 119.8800511 375.723200
18717 18719 18721 1 120.0200517 532.790560
18720 18719 18721 1 119.8800511 375.723200
18719 18721 18722 1 119.8800511 375.723200
18719 18721 18723 1 120.0200517 532.790560
18722 18721 18723 1 119.8800511 375.723200
18721 18723 18724 1 119.8800511 375.723200
18721 18723 18725 1 120.0200517 532.790560
18724 18723 18725 1 119.8800511 375.723200
18716 18725 18723 1 120.0200517 532.790560
18716 18725 18726 1 119.8800511 375.723200
18723 18725 18726 1 119.8800511 375.723200
18727 18728 18729 1 119.8800511 375.723200
18727 18728 18737 1 119.8800511 375.723200
18729 18728 18737 1 120.0200517 532.790560
18728 18729 18730 1 121.3800518 83.010560
18728 18729 18731 1 120.0200517 532.790560
18730 18729 18731 1 121.3800518 83.010560
5506 18730 5579 1 109.50000 418.400000
5506 18730 5581 1 109.50000 418.400000
5506 18730 18729 1 103.70004 836.800000
5579 18730 5581 1 109.50000 418.400000
5579 18730 18729 1 103.70004 836.800000
5581 18730 18729 1 103.70004 836.800000
18729 18731 18732 1 119.8800511 375.723200
18729 18731 18733 1 120.0200517 532.790560
18732 18731 18733 1 119.8800511 375.723200
18731 18733 18734 1 119.8800511 375.723200
18731 18733 18735 1 120.0200517 532.790560
18734 18733 18735 1 119.8800511 375.723200
18733 18735 18736 1 119.8800511 375.723200
18733 18735 18737 1 120.0200517 532.790560
18736 18735 18737 1 119.8800511 375.723200
18728 18737 18735 1 120.0200517 532.790560
18728 18737 18738 1 119.8800511 375.723200
18735 18737 18738 1 119.8800511 375.723200
18739 18740 18741 1 119.8800511 375.723200
18739 18740 18749 1 119.8800511 375.723200
18741 18740 18749 1 120.0200517 532.790560
18740 18741 18742 1 121.3800518 83.010560
18740 18741 18743 1 120.0200517 532.790560
18742 18741 18743 1 121.3800518 83.010560
262 18742 9690 1 109.50000 418.400000
262 18742 10891 1 109.50000 418.400000
262 18742 18741 1 103.70004 836.800000
9690 18742 10891 1 109.50000 418.400000
9690 18742 18741 1 103.70004 836.800000
10891 18742 18741 1 103.70004 836.800000
18741 18743 18744 1 119.8800511 375.723200
18741 18743 18745 1 120.0200517 532.790560
18744 18743 18745 1 119.8800511 375.723200
18743 18745 18746 1 119.8800511 375.723200
18743 18745 18747 1 120.0200517 532.790560
18746 18745 18747 1 119.8800511 375.723200
18745 18747 18748 1 119.8800511 375.723200
18745 18747 18749 1 120.0200517 532.790560
18748 18747 18749 1 119.8800511 375.723200
18740 18749 18747 1 120.0200517 532.790560
18740 18749 18750 1 119.8800511 375.723200
18747 18749 18750 1 119.8800511 375.723200
18751 18752 18753 1 119.8800511 375.723200
18751 18752 18761 1 119.8800511 375.723200
18753 18752 18761 1 120.0200517 532.790560
18752 18753 18754 1 121.3800518 83.010560
18752 18753 18755 1 120.0200517 532.790560
18754 18753 18755 1 121.3800518 83.010560
5333 18754 8617 1 109.50000 418.400000
5333 18754 11262 1 109.50000 418.400000
5333 18754 18753 1 103.70004 836.800000
8617 18754 11262 1 109.50000 418.400000
8617 18754 18753 1 103.70004 836.800000
11262 18754 18753 1 103.70004 836.800000
18753 18755 18756 1 119.8800511 375.723200
18753 18755 18757 1 120.0200517 532.790560
18756 18755 18757 1 119.8800511 375.723200
18755 18757 18758 1 119.8800511 375.723200
18755 18757 18759 1 120.0200517 532.790560
18758 18757 18759 1 119.8800511 375.723200
18757 18759 18760 1 119.8800511 375.723200
18757 18759 18761 1 120.0200517 532.790560
18760 18759 18761 1 119.8800511 375.723200
18752 18761 18759 1 120.0200517 532.790560
18752 18761 18762 1 119.8800511 375.723200
18759 18761 18762 1 119.8800511 375.723200
18763 18764 18765 1 119.8800511 375.723200
18763 18764 18773 1 119.8800511 375.723200
18765 18764 18773 1 120.0200517 532.790560
18764 18765 18766 1 121.3800518 83.010560
18764 18765 18767 1 120.0200517 532.790560
18766 18765 18767 1 121.3800518 83.010560
3479 18766 7341 1 109.50000 418.400000
3479 18766 7342 1 109.50000 418.400000
3479 18766 18765 1 103.70004 836.800000
7341 18766 7342 1 109.50000 418.400000
7341 18766 18765 1 103.70004 836.800000
7342 18766 18765 1 103.70004 836.800000
18765 18767 18768 1 119.8800511 375.723200
18765 18767 18769 1 120.0200517 532.790560
18768 18767 18769 1 119.8800511 375.723200
18767 18769 18770 1 119.8800511 375.723200
18767 18769 18771 1 120.0200517 532.790560
18770 18769 18771 1 119.8800511 375.723200
18769 18771 18772 1 119.8800511 375.723200
18769 18771 18773 1 120.0200517 532.790560
18772 18771 18773 1 119.8800511 375.723200
18764 18773 18771 1 120.0200517 532.790560
18764 18773 18774 1 119.8800511 375.723200
18771 18773 18774 1 119.8800511 375.723200
18775 18776 18777 1 119.8800511 375.723200
18775 18776 18785 1 119.8800511 375.723200
18777 18776 18785 1 120.0200517 532.790560
18776 18777 18778 1 121.3800518 83.010560
18776 18777 18779 1 120.0200517 532.790560
18778 18777 18779 1 121.3800518 83.010560
4051 18778 10314 1 109.50000 418.400000
4051 18778 11265 1 109.50000 418.400000
4051 18778 18777 1 103.70004 836.800000
10314 18778 11265 1 109.50000 418.400000
10314 18778 18777 1 103.70004 836.800000
11265 18778 18777 1 103.70004 836.800000
18777 18779 18780 1 119.8800511 375.723200
18777 18779 18781 1 120.0200517 532.790560
18780 18779 18781 1 119.8800511 375.723200
18779 18781 18782 1 119.8800511 375.723200
18779 18781 18783 1 120.0200517 532.790560
18782 18781 18783 1 119.8800511 375.723200
18781 18783 18784 1 119.8800511 375.723200
18781 18783 18785 1 120.0200517 532.790560
18784 18783 18785 1 119.8800511 375.723200
18776 18785 18783 1 120.0200517 532.790560
18776 18785 18786 1 119.8800511 375.723200
18783 18785 18786 1 119.8800511 375.723200
18787 18788 18789 1 119.8800511 375.723200
18787 18788 18797 1 119.8800511 375.723200
18789 18788 18797 1 120.0200517 532.790560
18788 18789 18790 1 121.3800518 83.010560
18788 18789 18791 1 120.0200517 532.790560
18790 18789 18791 1 121.3800518 83.010560
6230 18790 6231 1 109.50000 418.400000
6230 18790 6232 1 109.50000 418.400000
6230 18790 18789 1 103.70004 836.800000
6231 18790 6232 1 109.50000 418.400000
6231 18790 18789 1 103.70004 836.800000
6232 18790 18789 1 103.70004 836.800000
18789 18791 18792 1 119.8800511 375.723200
18789 18791 18793 1 120.0200517 532.790560
18792 18791 18793 1 119.8800511 375.723200
18791 18793 18794 1 119.8800511 375.723200
18791 18793 18795 1 120.0200517 532.790560
18794 18793 18795 1 119.8800511 375.723200
18793 18795 18796 1 119.8800511 375.723200
18793 18795 18797 1 120.0200517 532.790560
18796 18795 18797 1 119.8800511 375.723200
18788 18797 18795 1 120.0200517 532.790560
18788 18797 18798 1 119.8800511 375.723200
18795 18797 18798 1 119.8800511 375.723200
18799 18800 18801 1 119.8800511 375.723200
18799 18800 18809 1 119.8800511 375.723200
18801 18800 18809 1 120.0200517 532.790560
18800 18801 18802 1 121.3800518 83.010560
18800 18801 18803 1 120.0200517 532.790560
18802 18801 18803 1 121.3800518 83.010560
1755 18802 10306 1 109.50000 418.400000
1755 18802 10307 1 109.50000 418.400000
1755 18802 18801 1 103.70004 836.800000
10306 18802 10307 1 109.50000 418.400000
10306 18802 18801 1 103.70004 836.800000
10307 18802 18801 1 103.70004 836.800000
18801 18803 18804 1 119.8800511 375.723200
18801 18803 18805 1 120.0200517 532.790560
18804 18803 18805 1 119.8800511 375.723200
18803 18805 18806 1 119.8800511 375.723200
18803 18805 18807 1 120.0200517 532.790560
18806 18805 18807 1 119.8800511 375.723200
18805 18807 18808 1 119.8800511 375.723200
18805 18807 18809 1 120.0200517 532.790560
18808 18807 18809 1 119.8800511 375.723200
18800 18809 18807 1 120.0200517 532.790560
18800 18809 18810 1 119.8800511 375.723200
18807 18809 18810 1 119.8800511 375.723200
18811 18812 18813 1 119.8800511 375.723200
18811 18812 18821 1 119.8800511 375.723200
18813 18812 18821 1 120.0200517 532.790560
18812 18813 18814 1 121.3800518 83.010560
18812 18813 18815 1 120.0200517 532.790560
18814 18813 18815 1 121.3800518 83.010560
3106 18814 5095 1 109.50000 418.400000
3106 18814 5501 1 109.50000 418.400000
3106 18814 18813 1 103.70004 836.800000
5095 18814 5501 1 109.50000 418.400000
5095 18814 18813 1 103.70004 836.800000
5501 18814 18813 1 103.70004 836.800000
18813 18815 18816 1 119.8800511 375.723200
18813 18815 18817 1 120.0200517 532.790560
18816 18815 18817 1 119.8800511 375.723200
18815 18817 18818 1 119.8800511 375.723200
18815 18817 18819 1 120.0200517 532.790560
18818 18817 18819 1 119.8800511 375.723200
18817 18819 18820 1 119.8800511 375.723200
18817 18819 18821 1 120.0200517 532.790560
18820 18819 18821 1 119.8800511 375.723200
18812 18821 18819 1 120.0200517 532.790560
18812 18821 18822 1 119.8800511 375.723200
18819 18821 18822 1 119.8800511 375.723200
18823 18824 18825 1 119.8800511 375.723200
18823 18824 18833 1 119.8800511 375.723200
18825 18824 18833 1 120.0200517 532.790560
18824 18825 18826 1 121.3800518 83.010560
18824 18825 18827 1 120.0200517 532.790560
18826 18825 18827 1 121.3800518 83.010560
6648 18826 6649 1 109.50000 418.400000
6648 18826 6650 1 109.50000 418.400000
6648 18826 18825 1 103.70004 836.800000
6649 18826 6650 1 109.50000 418.400000
6649 18826 18825 1 103.70004 836.800000
6650 18826 18825 1 103.70004 836.800000
18825 18827 18828 1 119.8800511 375.723200
18825 18827 18829 1 120.0200517 532.790560
18828 18827 18829 1 119.8800511 375.723200
18827 18829 18830 1 119.8800511 375.723200
18827 18829 18831 1 120.0200517 532.790560
18830 18829 18831 1 119.8800511 375.723200
18829 18831 18832 1 119.8800511 375.723200
18829 18831 18833 1 120.0200517 532.790560
18832 18831 18833 1 119.8800511 375.723200
18824 18833 18831 1 120.0200517 532.790560
18824 18833 18834 1 119.8800511 375.723200
18831 18833 18834 1 119.8800511 375.723200
18835 18836 18837 1 119.8800511 375.723200
18835 18836 18845 1 119.8800511 375.723200
18837 18836 18845 1 120.0200517 532.790560
18836 18837 18838 1 121.3800518 83.010560
18836 18837 18839 1 120.0200517 532.790560
18838 18837 18839 1 121.3800518 83.010560
9191 18838 10671 1 109.50000 418.400000
9191 18838 10988 1 109.50000 418.400000
9191 18838 18837 1 103.70004 836.800000
10671 18838 10988 1 109.50000 418.400000
10671 18838 18837 1 103.70004 836.800000
10988 18838 18837 1 103.70004 836.800000
18837 18839 18840 1 119.8800511 375.723200
18837 18839 18841 1 120.0200517 532.790560
18840 18839 18841 1 119.8800511 375.723200
18839 18841 18842 1 119.8800511 375.723200
18839 18841 18843 1 120.0200517 532.790560
18842 18841 18843 1 119.8800511 375.723200
18841 18843 18844 1 119.8800511 375.723200
18841 18843 18845 1 120.0200517 532.790560
18844 18843 18845 1 119.8800511 375.723200
18836 18845 18843 1 120.0200517 532.790560
18836 18845 18846 1 119.8800511 375.723200
18843 18845 18846 1 119.8800511 375.723200
18847 18848 18849 1 119.8800511 375.723200
18847 18848 18857 1 119.8800511 375.723200
18849 18848 18857 1 120.0200517 532.790560
18848 18849 18850 1 121.3800518 83.010560
18848 18849 18851 1 120.0200517 532.790560
18850 18849 18851 1 121.3800518 83.010560
9405 18850 9993 1 109.50000 418.400000
9405 18850 9995 1 109.50000 418.400000
9405 18850 18849 1 103.70004 836.800000
9993 18850 9995 1 109.50000 418.400000
9993 18850 18849 1 103.70004 836.800000
9995 18850 18849 1 103.70004 836.800000
18849 18851 18852 1 119.8800511 375.723200
18849 18851 18853 1 120.0200517 532.790560
18852 18851 18853 1 119.8800511 375.723200
18851 18853 18854 1 119.8800511 375.723200
18851 18853 18855 1 120.0200517 532.790560
18854 18853 18855 1 119.8800511 375.723200
18853 18855 18856 1 119.8800511 375.723200
18853 18855 18857 1 120.0200517 532.790560
18856 18855 18857 1 119.8800511 375.723200
18848 18857 18855 1 120.0200517 532.790560
18848 18857 18858 1 119.8800511 375.723200
18855 18857 18858 1 119.8800511 375.723200
18859 18860 18861 1 119.8800511 375.723200
18859 18860 18869 1 119.8800511 375.723200
18861 18860 18869 1 120.0200517 532.790560
18860 18861 18862 1 121.3800518 83.010560
18860 18861 18863 1 120.0200517 532.790560
18862 18861 18863 1 121.3800518 83.010560
4589 18862 5472 1 109.50000 418.400000
4589 18862 5473 1 109.50000 418.400000
4589 18862 18861 1 103.70004 836.800000
5472 18862 5473 1 109.50000 418.400000
5472 18862 18861 1 103.70004 836.800000
5473 18862 18861 1 103.70004 836.800000
18861 18863 18864 1 119.8800511 375.723200
18861 18863 18865 1 120.0200517 532.790560
18864 18863 18865 1 119.8800511 375.723200
18863 18865 18866 1 119.8800511 375.723200
18863 18865 18867 1 120.0200517 532.790560
18866 18865 18867 1 119.8800511 375.723200
18865 18867 18868 1 119.8800511 375.723200
18865 18867 18869 1 120.0200517 532.790560
18868 18867 18869 1 119.8800511 375.723200
18860 18869 18867 1 120.0200517 532.790560
18860 18869 18870 1 119.8800511 375.723200
18867 18869 18870 1 119.8800511 375.723200
18871 18872 18873 1 119.8800511 375.723200
18871 18872 18881 1 119.8800511 375.723200
18873 18872 18881 1 120.0200517 532.790560
18872 18873 18874 1 121.3800518 83.010560
18872 18873 18875 1 120.0200517 532.790560
18874 18873 18875 1 121.3800518 83.010560
1970 18874 3493 1 109.50000 418.400000
1970 18874 6263 1 109.50000 418.400000
1970 18874 18873 1 103.70004 836.800000
3493 18874 6263 1 109.50000 418.400000
3493 18874 18873 1 103.70004 836.800000
6263 18874 18873 1 103.70004 836.800000
18873 18875 18876 1 119.8800511 375.723200
18873 18875 18877 1 120.0200517 532.790560
18876 18875 18877 1 119.8800511 375.723200
18875 18877 18878 1 119.8800511 375.723200
18875 18877 18879 1 120.0200517 532.790560
18878 18877 18879 1 119.8800511 375.723200
18877 18879 18880 1 119.8800511 375.723200
18877 18879 18881 1 120.0200517 532.790560
18880 18879 18881 1 119.8800511 375.723200
18872 18881 18879 1 120.0200517 532.790560
18872 18881 18882 1 119.8800511 375.723200
18879 18881 18882 1 119.8800511 375.723200
18883 18884 18885 1 119.8800511 375.723200
18883 18884 18893 1 119.8800511 375.723200
18885 18884 18893 1 120.0200517 532.790560
18884 18885 18886 1 121.3800518 83.010560
18884 18885 18887 1 120.0200517 532.790560
18886 18885 18887 1 121.3800518 83.010560
8985 18886 10238 1 109.50000 418.400000
8985 18886 10239 1 109.50000 418.400000
8985 18886 18885 1 103.70004 836.800000
10238 18886 10239 1 109.50000 418.400000
10238 18886 18885 1 103.70004 836.800000
10239 18886 18885 1 103.70004 836.800000
18885 18887 18888 1 119.8800511 375.723200
18885 18887 18889 1 120.0200517 532.790560
18888 18887 18889 1 119.8800511 375.723200
18887 18889 18890 1 119.8800511 375.723200
18887 18889 18891 1 120.0200517 532.790560
18890 18889 18891 1 119.8800511 375.723200
18889 18891 18892 1 119.8800511 375.723200
18889 18891 18893 1 120.0200517 532.790560
18892 18891 18893 1 119.8800511 375.723200
18884 18893 18891 1 120.0200517 532.790560
18884 18893 18894 1 119.8800511 375.723200
18891 18893 18894 1 119.8800511 375.723200
18895 18896 18897 1 119.8800511 375.723200
18895 18896 18905 1 119.8800511 375.723200
18897 18896 18905 1 120.0200517 532.790560
18896 18897 18898 1 121.3800518 83.010560
18896 18897 18899 1 120.0200517 532.790560
18898 18897 18899 1 121.3800518 83.010560
2045 18898 6197 1 109.50000 418.400000
2045 18898 6198 1 109.50000 418.400000
2045 18898 18897 1 103.70004 836.800000
6197 18898 6198 1 109.50000 418.400000
6197 18898 18897 1 103.70004 836.800000
6198 18898 18897 1 103.70004 836.800000
18897 18899 18900 1 119.8800511 375.723200
18897 18899 18901 1 120.0200517 532.790560
18900 18899 18901 1 119.8800511 375.723200
18899 18901 18902 1 119.8800511 375.723200
18899 18901 18903 1 120.0200517 532.790560
18902 18901 18903 1 119.8800511 375.723200
18901 18903 18904 1 119.8800511 375.723200
18901 18903 18905 1 120.0200517 532.790560
18904 18903 18905 1 119.8800511 375.723200
18896 18905 18903 1 120.0200517 532.790560
18896 18905 18906 1 119.8800511 375.723200
18903 18905 18906 1 119.8800511 375.723200
18907 18908 18909 1 119.8800511 375.723200
18907 18908 18917 1 119.8800511 375.723200
18909 18908 18917 1 120.0200517 532.790560
18908 18909 18910 1 121.3800518 83.010560
18908 18909 18911 1 120.0200517 532.790560
18910 18909 18911 1 121.3800518 83.010560
9029 18910 10046 1 109.50000 418.400000
9029 18910 10047 1 109.50000 418.400000
9029 18910 18909 1 103.70004 836.800000
10046 18910 10047 1 109.50000 418.400000
10046 18910 18909 1 103.70004 836.800000
10047 18910 18909 1 103.70004 836.800000
18909 18911 18912 1 119.8800511 375.723200
18909 18911 18913 1 120.0200517 532.790560
18912 18911 18913 1 119.8800511 375.723200
18911 18913 18914 1 119.8800511 375.723200
18911 18913 18915 1 120.0200517 532.790560
18914 18913 18915 1 119.8800511 375.723200
18913 18915 18916 1 119.8800511 375.723200
18913 18915 18917 1 120.0200517 532.790560
18916 18915 18917 1 119.8800511 375.723200
18908 18917 18915 1 120.0200517 532.790560
18908 18917 18918 1 119.8800511 375.723200
18915 18917 18918 1 119.8800511 375.723200
18919 18920 18921 1 119.8800511 375.723200
18919 18920 18929 1 119.8800511 375.723200
18921 18920 18929 1 120.0200517 532.790560
18920 18921 18922 1 121.3800518 83.010560
18920 18921 18923 1 120.0200517 532.790560
18922 18921 18923 1 121.3800518 83.010560
3358 18922 5974 1 109.50000 418.400000
3358 18922 5975 1 109.50000 418.400000
3358 18922 18921 1 103.70004 836.800000
5974 18922 5975 1 109.50000 418.400000
5974 18922 18921 1 103.70004 836.800000
5975 18922 18921 1 103.70004 836.800000
18921 18923 18924 1 119.8800511 375.723200
18921 18923 18925 1 120.0200517 532.790560
18924 18923 18925 1 119.8800511 375.723200
18923 18925 18926 1 119.8800511 375.723200
18923 18925 18927 1 120.0200517 532.790560
18926 18925 18927 1 119.8800511 375.723200
18925 18927 18928 1 119.8800511 375.723200
18925 18927 18929 1 120.0200517 532.790560
18928 18927 18929 1 119.8800511 375.723200
18920 18929 18927 1 120.0200517 532.790560
18920 18929 18930 1 119.8800511 375.723200
18927 18929 18930 1 119.8800511 375.723200
18931 18932 18933 1 119.8800511 375.723200
18931 18932 18941 1 119.8800511 375.723200
18933 18932 18941 1 120.0200517 532.790560
18932 18933 18934 1 121.3800518 83.010560
18932 18933 18935 1 120.0200517 532.790560
18934 18933 18935 1 121.3800518 83.010560
7805 18934 8404 1 109.50000 418.400000
7805 18934 8405 1 109.50000 418.400000
7805 18934 18933 1 103.70004 836.800000
8404 18934 8405 1 109.50000 418.400000
8404 18934 18933 1 103.70004 836.800000
8405 18934 18933 1 103.70004 836.800000
18933 18935 18936 1 119.8800511 375.723200
18933 18935 18937 1 120.0200517 532.790560
18936 18935 18937 1 119.8800511 375.723200
18935 18937 18938 1 119.8800511 375.723200
18935 18937 18939 1 120.0200517 532.790560
18938 18937 18939 1 119.8800511 375.723200
18937 18939 18940 1 119.8800511 375.723200
18937 18939 18941 1 120.0200517 532.790560
18940 18939 18941 1 119.8800511 375.723200
18932 18941 18939 1 120.0200517 532.790560
18932 18941 18942 1 119.8800511 375.723200
18939 18941 18942 1 119.8800511 375.723200
18943 18944 18945 1 119.8800511 375.723200
18943 18944 18953 1 119.8800511 375.723200
18945 18944 18953 1 120.0200517 532.790560
18944 18945 18946 1 121.3800518 83.010560
18944 18945 18947 1 120.0200517 532.790560
18946 18945 18947 1 121.3800518 83.010560
7510 18946 8407 1 109.50000 418.400000
7510 18946 8927 1 109.50000 418.400000
7510 18946 18945 1 103.70004 836.800000
8407 18946 8927 1 109.50000 418.400000
8407 18946 18945 1 103.70004 836.800000
8927 18946 18945 1 103.70004 836.800000
18945 18947 18948 1 119.8800511 375.723200
18945 18947 18949 1 120.0200517 532.790560
18948 18947 18949 1 119.8800511 375.723200
18947 18949 18950 1 119.8800511 375.723200
18947 18949 18951 1 120.0200517 532.790560
18950 18949 18951 1 119.8800511 375.723200
18949 18951 18952 1 119.8800511 375.723200
18949 18951 18953 1 120.0200517 532.790560
18952 18951 18953 1 119.8800511 375.723200
18944 18953 18951 1 120.0200517 532.790560
18944 18953 18954 1 119.8800511 375.723200
18951 18953 18954 1 119.8800511 375.723200
18955 18956 18957 1 119.8800511 375.723200
18955 18956 18965 1 119.8800511 375.723200
18957 18956 18965 1 120.0200517 532.790560
18956 18957 18958 1 121.3800518 83.010560
18956 18957 18959 1 120.0200517 532.790560
18958 18957 18959 1 121.3800518 83.010560
9189 18958 9190 1 109.50000 418.400000
9189 18958 9191 1 109.50000 418.400000
9189 18958 18957 1 103.70004 836.800000
9190 18958 9191 1 109.50000 418.400000
9190 18958 18957 1 103.70004 836.800000
9191 18958 18957 1 103.70004 836.800000
18957 18959 18960 1 119.8800511 375.723200
18957 18959 18961 1 120.0200517 532.790560
18960 18959 18961 1 119.8800511 375.723200
18959 18961 18962 1 119.8800511 375.723200
18959 18961 18963 1 120.0200517 532.790560
18962 18961 18963 1 119.8800511 375.723200
18961 18963 18964 1 119.8800511 375.723200
18961 18963 18965 1 120.0200517 532.790560
18964 18963 18965 1 119.8800511 375.723200
18956 18965 18963 1 120.0200517 532.790560
18956 18965 18966 1 119.8800511 375.723200
18963 18965 18966 1 119.8800511 375.723200
18967 18968 18969 1 119.8800511 375.723200
18967 18968 18977 1 119.8800511 375.723200
18969 18968 18977 1 120.0200517 532.790560
18968 18969 18970 1 121.3800518 83.010560
18968 18969 18971 1 120.0200517 532.790560
18970 18969 18971 1 121.3800518 83.010560
7661 18970 7663 1 109.50000 418.400000
7661 18970 10213 1 109.50000 418.400000
7661 18970 18969 1 103.70004 836.800000
7663 18970 10213 1 109.50000 418.400000
7663 18970 18969 1 103.70004 836.800000
10213 18970 18969 1 103.70004 836.800000
18969 18971 18972 1 119.8800511 375.723200
18969 18971 18973 1 120.0200517 532.790560
18972 18971 18973 1 119.8800511 375.723200
18971 18973 18974 1 119.8800511 375.723200
18971 18973 18975 1 120.0200517 532.790560
18974 18973 18975 1 119.8800511 375.723200
18973 18975 18976 1 119.8800511 375.723200
18973 18975 18977 1 120.0200517 532.790560
18976 18975 18977 1 119.8800511 375.723200
18968 18977 18975 1 120.0200517 532.790560
18968 18977 18978 1 119.8800511 375.723200
18975 18977 18978 1 119.8800511 375.723200
18979 18980 18981 1 119.8800511 375.723200
18979 18980 18989 1 119.8800511 375.723200
18981 18980 18989 1 120.0200517 532.790560
18980 18981 18982 1 121.3800518 83.010560
18980 18981 18983 1 120.0200517 532.790560
18982 18981 18983 1 121.3800518 83.010560
6108 18982 6109 1 109.50000 418.400000
6108 18982 6110 1 109.50000 418.400000
6108 18982 18981 1 103.70004 836.800000
6109 18982 6110 1 109.50000 418.400000
6109 18982 18981 1 103.70004 836.800000
6110 18982 18981 1 103.70004 836.800000
18981 18983 18984 1 119.8800511 375.723200
18981 18983 18985 1 120.0200517 532.790560
18984 18983 18985 1 119.8800511 375.723200
18983 18985 18986 1 119.8800511 375.723200
18983 18985 18987 1 120.0200517 532.790560
18986 18985 18987 1 119.8800511 375.723200
18985 18987 18988 1 119.8800511 375.723200
18985 18987 18989 1 120.0200517 532.790560
18988 18987 18989 1 119.8800511 375.723200
18980 18989 18987 1 120.0200517 532.790560
18980 18989 18990 1 119.8800511 375.723200
18987 18989 18990 1 119.8800511 375.723200
18991 18992 18993 1 119.8800511 375.723200
18991 18992 19001 1 119.8800511 375.723200
18993 18992 19001 1 120.0200517 532.790560
18992 18993 18994 1 121.3800518 83.010560
18992 18993 18995 1 120.0200517 532.790560
18994 18993 18995 1 121.3800518 83.010560
1889 18994 7433 1 109.50000 418.400000
1889 18994 9269 1 109.50000 418.400000
1889 18994 18993 1 103.70004 836.800000
7433 18994 9269 1 109.50000 418.400000
7433 18994 18993 1 103.70004 836.800000
9269 18994 18993 1 103.70004 836.800000
18993 18995 18996 1 119.8800511 375.723200
18993 18995 18997 1 120.0200517 532.790560
18996 18995 18997 1 119.8800511 375.723200
18995 18997 18998 1 119.8800511 375.723200
18995 18997 18999 1 120.0200517 532.790560
18998 18997 18999 1 119.8800511 375.723200
18997 18999 19000 1 119.8800511 375.723200
18997 18999 19001 1 120.0200517 532.790560
19000 18999 19001 1 119.8800511 375.723200
18992 19001 18999 1 120.0200517 532.790560
18992 19001 19002 1 119.8800511 375.723200
18999 19001 19002 1 119.8800511 375.723200
19003 19004 19005 1 119.8800511 375.723200
19003 19004 19013 1 119.8800511 375.723200
19005 19004 19013 1 120.0200517 532.790560
19004 19005 19006 1 121.3800518 83.010560
19004 19005 19007 1 120.0200517 532.790560
19006 19005 19007 1 121.3800518 83.010560
1863 19006 1864 1 109.50000 418.400000
1863 19006 1865 1 109.50000 418.400000
1863 19006 19005 1 103.70004 836.800000
1864 19006 1865 1 109.50000 418.400000
1864 19006 19005 1 103.70004 836.800000
1865 19006 19005 1 103.70004 836.800000
19005 19007 19008 1 119.8800511 375.723200
19005 19007 19009 1 120.0200517 532.790560
19008 19007 19009 1 119.8800511 375.723200
19007 19009 19010 1 119.8800511 375.723200
19007 19009 19011 1 120.0200517 532.790560
19010 19009 19011 1 119.8800511 375.723200
19009 19011 19012 1 119.8800511 375.723200
19009 19011 19013 1 120.0200517 532.790560
19012 19011 19013 1 119.8800511 375.723200
19004 19013 19011 1 120.0200517 532.790560
19004 19013 19014 1 119.8800511 375.723200
19011 19013 19014 1 119.8800511 375.723200
19015 19016 19017 1 119.8800511 375.723200
19015 19016 19025 1 119.8800511 375.723200
19017 19016 19025 1 120.0200517 532.790560
19016 19017 19018 1 121.3800518 83.010560
19016 19017 19019 1 120.0200517 532.790560
19018 19017 19019 1 121.3800518 83.010560
5356 19018 9950 1 109.50000 418.400000
5356 19018 10911 1 109.50000 418.400000
5356 19018 19017 1 103.70004 836.800000
9950 19018 10911 1 109.50000 418.400000
9950 19018 19017 1 103.70004 836.800000
10911 19018 19017 1 103.70004 836.800000
19017 19019 19020 1 119.8800511 375.723200
19017 19019 19021 1 120.0200517 532.790560
19020 19019 19021 1 119.8800511 375.723200
19019 19021 19022 1 119.8800511 375.723200
19019 19021 19023 1 120.0200517 532.790560
19022 19021 19023 1 119.8800511 375.723200
19021 19023 19024 1 119.8800511 375.723200
19021 19023 19025 1 120.0200517 532.790560
19024 19023 19025 1 119.8800511 375.723200
19016 19025 19023 1 120.0200517 532.790560
19016 19025 19026 1 119.8800511 375.723200
19023 19025 19026 1 119.8800511 375.723200
19027 19028 19029 1 119.8800511 375.723200
19027 19028 19037 1 119.8800511 375.723200
19029 19028 19037 1 120.0200517 532.790560
19028 19029 19030 1 121.3800518 83.010560
19028 19029 19031 1 120.0200517 532.790560
19030 19029 19031 1 121.3800518 83.010560
7981 19030 9990 1 109.50000 418.400000
7981 19030 11151 1 109.50000 418.400000
7981 19030 19029 1 103.70004 836.800000
9990 19030 11151 1 109.50000 418.400000
9990 19030 19029 1 103.70004 836.800000
11151 19030 19029 1 103.70004 836.800000
19029 19031 19032 1 119.8800511 375.723200
19029 19031 19033 1 120.0200517 532.790560
19032 19031 19033 1 119.8800511 375.723200
19031 19033 19034 1 119.8800511 375.723200
19031 19033 19035 1 120.0200517 532.790560
19034 19033 19035 1 119.8800511 375.723200
19033 19035 19036 1 119.8800511 375.723200
19033 19035 19037 1 120.0200517 532.790560
19036 19035 19037 1 119.8800511 375.723200
19028 19037 19035 1 120.0200517 532.790560
19028 19037 19038 1 119.8800511 375.723200
19035 19037 19038 1 119.8800511 375.723200
19039 19040 19041 1 119.8800511 375.723200
19039 19040 19049 1 119.8800511 375.723200
19041 19040 19049 1 120.0200517 532.790560
19040 19041 19042 1 121.3800518 83.010560
19040 19041 19043 1 120.0200517 532.790560
19042 19041 19043 1 121.3800518 83.010560
1635 19042 10513 1 109.50000 418.400000
1635 19042 10514 1 109.50000 418.400000
1635 19042 19041 1 103.70004 836.800000
10513 19042 10514 1 109.50000 418.400000
10513 19042 19041 1 103.70004 836.800000
10514 19042 19041 1 103.70004 836.800000
19041 19043 19044 1 119.8800511 375.723200
19041 19043 19045 1 120.0200517 532.790560
19044 19043 19045 1 119.8800511 375.723200
19043 19045 19046 1 119.8800511 375.723200
19043 19045 19047 1 120.0200517 532.790560
19046 19045 19047 1 119.8800511 375.723200
19045 19047 19048 1 119.8800511 375.723200
19045 19047 19049 1 120.0200517 532.790560
19048 19047 19049 1 119.8800511 375.723200
19040 19049 19047 1 120.0200517 532.790560
19040 19049 19050 1 119.8800511 375.723200
19047 19049 19050 1 119.8800511 375.723200
19051 19052 19053 1 119.8800511 375.723200
19051 19052 19061 1 119.8800511 375.723200
19053 19052 19061 1 120.0200517 532.790560
19052 19053 19054 1 121.3800518 83.010560
19052 19053 19055 1 120.0200517 532.790560
19054 19053 19055 1 121.3800518 83.010560
6 19054 7818 1 109.50000 418.400000
6 19054 7819 1 109.50000 418.400000
6 19054 19053 1 103.70004 836.800000
7818 19054 7819 1 109.50000 418.400000
7818 19054 19053 1 103.70004 836.800000
7819 19054 19053 1 103.70004 836.800000
19053 19055 19056 1 119.8800511 375.723200
19053 19055 19057 1 120.0200517 532.790560
19056 19055 19057 1 119.8800511 375.723200
19055 19057 19058 1 119.8800511 375.723200
19055 19057 19059 1 120.0200517 532.790560
19058 19057 19059 1 119.8800511 375.723200
19057 19059 19060 1 119.8800511 375.723200
19057 19059 19061 1 120.0200517 532.790560
19060 19059 19061 1 119.8800511 375.723200
19052 19061 19059 1 120.0200517 532.790560
19052 19061 19062 1 119.8800511 375.723200
19059 19061 19062 1 119.8800511 375.723200
19063 19064 19065 1 119.8800511 375.723200
19063 19064 19073 1 119.8800511 375.723200
19065 19064 19073 1 120.0200517 532.790560
19064 19065 19066 1 121.3800518 83.010560
19064 19065 19067 1 120.0200517 532.790560
19066 19065 19067 1 121.3800518 83.010560
6538 19066 10087 1 109.50000 418.400000
6538 19066 10670 1 109.50000 418.400000
6538 19066 19065 1 103.70004 836.800000
10087 19066 10670 1 109.50000 418.400000
10087 19066 19065 1 103.70004 836.800000
10670 19066 19065 1 103.70004 836.800000
19065 19067 19068 1 119.8800511 375.723200
19065 19067 19069 1 120.0200517 532.790560
19068 19067 19069 1 119.8800511 375.723200
19067 19069 19070 1 119.8800511 375.723200
19067 19069 19071 1 120.0200517 532.790560
19070 19069 19071 1 119.8800511 375.723200
19069 19071 19072 1 119.8800511 375.723200
19069 19071 19073 1 120.0200517 532.790560
19072 19071 19073 1 119.8800511 375.723200
19064 19073 19071 1 120.0200517 532.790560
19064 19073 19074 1 119.8800511 375.723200
19071 19073 19074 1 119.8800511 375.723200
19075 19076 19077 1 119.8800511 375.723200
19075 19076 19085 1 119.8800511 375.723200
19077 19076 19085 1 120.0200517 532.790560
19076 19077 19078 1 121.3800518 83.010560
19076 19077 19079 1 120.0200517 532.790560
19078 19077 19079 1 121.3800518 83.010560
1224 19078 4238 1 109.50000 418.400000
1224 19078 8760 1 109.50000 418.400000
1224 19078 19077 1 103.70004 836.800000
4238 19078 8760 1 109.50000 418.400000
4238 19078 19077 1 103.70004 836.800000
8760 19078 19077 1 103.70004 836.800000
19077 19079 19080 1 119.8800511 375.723200
19077 19079 19081 1 120.0200517 532.790560
19080 19079 19081 1 119.8800511 375.723200
19079 19081 19082 1 119.8800511 375.723200
19079 19081 19083 1 120.0200517 532.790560
19082 19081 19083 1 119.8800511 375.723200
19081 19083 19084 1 119.8800511 375.723200
19081 19083 19085 1 120.0200517 532.790560
19084 19083 19085 1 119.8800511 375.723200
19076 19085 19083 1 120.0200517 532.790560
19076 19085 19086 1 119.8800511 375.723200
19083 19085 19086 1 119.8800511 375.723200
19087 19088 19089 1 119.8800511 375.723200
19087 19088 19097 1 119.8800511 375.723200
19089 19088 19097 1 120.0200517 532.790560
19088 19089 19090 1 121.3800518 83.010560
19088 19089 19091 1 120.0200517 532.790560
19090 19089 19091 1 121.3800518 83.010560
2558 19090 2559 1 109.50000 418.400000
2558 19090 2560 1 109.50000 418.400000
2558 19090 19089 1 103.70004 836.800000
2559 19090 2560 1 109.50000 418.400000
2559 19090 19089 1 103.70004 836.800000
2560 19090 19089 1 103.70004 836.800000
19089 19091 19092 1 119.8800511 375.723200
19089 19091 19093 1 120.0200517 532.790560
19092 19091 19093 1 119.8800511 375.723200
19091 19093 19094 1 119.8800511 375.723200
19091 19093 19095 1 120.0200517 532.790560
19094 19093 19095 1 119.8800511 375.723200
19093 19095 19096 1 119.8800511 375.723200
19093 19095 19097 1 120.0200517 532.790560
19096 19095 19097 1 119.8800511 375.723200
19088 19097 19095 1 120.0200517 532.790560
19088 19097 19098 1 119.8800511 375.723200
19095 19097 19098 1 119.8800511 375.723200
19099 19100 19101 1 119.8800511 375.723200
19099 19100 19109 1 119.8800511 375.723200
19101 19100 19109 1 120.0200517 532.790560
19100 19101 19102 1 121.3800518 83.010560
19100 19101 19103 1 120.0200517 532.790560
19102 19101 19103 1 121.3800518 83.010560
5540 19102 8923 1 109.50000 418.400000
5540 19102 10632 1 109.50000 418.400000
5540 19102 19101 1 103.70004 836.800000
8923 19102 10632 1 109.50000 418.400000
8923 19102 19101 1 103.70004 836.800000
10632 19102 19101 1 103.70004 836.800000
19101 19103 19104 1 119.8800511 375.723200
19101 19103 19105 1 120.0200517 532.790560
19104 19103 19105 1 119.8800511 375.723200
19103 19105 19106 1 119.8800511 375.723200
19103 19105 19107 1 120.0200517 532.790560
19106 19105 19107 1 119.8800511 375.723200
19105 19107 19108 1 119.8800511 375.723200
19105 19107 19109 1 120.0200517 532.790560
19108 19107 19109 1 119.8800511 375.723200
19100 19109 19107 1 120.0200517 532.790560
19100 19109 19110 1 119.8800511 375.723200
19107 19109 19110 1 119.8800511 375.723200
19111 19112 19113 1 119.8800511 375.723200
19111 19112 19121 1 119.8800511 375.723200
19113 19112 19121 1 120.0200517 532.790560
19112 19113 19114 1 121.3800518 83.010560
19112 19113 19115 1 120.0200517 532.790560
19114 19113 19115 1 121.3800518 83.010560
4617 19114 4929 1 109.50000 418.400000
4617 19114 4930 1 109.50000 418.400000
4617 19114 19113 1 103.70004 836.800000
4929 19114 4930 1 109.50000 418.400000
4929 19114 19113 1 103.70004 836.800000
4930 19114 19113 1 103.70004 836.800000
19113 19115 19116 1 119.8800511 375.723200
19113 19115 19117 1 120.0200517 532.790560
19116 19115 19117 1 119.8800511 375.723200
19115 19117 19118 1 119.8800511 375.723200
19115 19117 19119 1 120.0200517 532.790560
19118 19117 19119 1 119.8800511 375.723200
19117 19119 19120 1 119.8800511 375.723200
19117 19119 19121 1 120.0200517 532.790560
19120 19119 19121 1 119.8800511 375.723200
19112 19121 19119 1 120.0200517 532.790560
19112 19121 19122 1 119.8800511 375.723200
19119 19121 19122 1 119.8800511 375.723200
19123 19124 19125 1 119.8800511 375.723200
19123 19124 19133 1 119.8800511 375.723200
19125 19124 19133 1 120.0200517 532.790560
19124 19125 19126 1 121.3800518 83.010560
19124 19125 19127 1 120.0200517 532.790560
19126 19125 19127 1 121.3800518 83.010560
7843 19126 7844 1 109.50000 418.400000
7843 19126 7845 1 109.50000 418.400000
7843 19126 19125 1 103.70004 836.800000
7844 19126 7845 1 109.50000 418.400000
7844 19126 19125 1 103.70004 836.800000
7845 19126 19125 1 103.70004 836.800000
19125 19127 19128 1 119.8800511 375.723200
19125 19127 19129 1 120.0200517 532.790560
19128 19127 19129 1 119.8800511 375.723200
19127 19129 19130 1 119.8800511 375.723200
19127 19129 19131 1 120.0200517 532.790560
19130 19129 19131 1 119.8800511 375.723200
19129 19131 19132 1 119.8800511 375.723200
19129 19131 19133 1 120.0200517 532.790560
19132 19131 19133 1 119.8800511 375.723200
19124 19133 19131 1 120.0200517 532.790560
19124 19133 19134 1 119.8800511 375.723200
19131 19133 19134 1 119.8800511 375.723200
19135 19136 19137 1 119.8800511 375.723200
19135 19136 19145 1 119.8800511 375.723200
19137 19136 19145 1 120.0200517 532.790560
19136 19137 19138 1 121.3800518 83.010560
19136 19137 19139 1 120.0200517 532.790560
19138 19137 19139 1 121.3800518 83.010560
2455 19138 8091 1 109.50000 418.400000
2455 19138 9654 1 109.50000 418.400000
2455 19138 19137 1 103.70004 836.800000
8091 19138 9654 1 109.50000 418.400000
8091 19138 19137 1 103.70004 836.800000
9654 19138 19137 1 103.70004 836.800000
19137 19139 19140 1 119.8800511 375.723200
19137 19139 19141 1 120.0200517 532.790560
19140 19139 19141 1 119.8800511 375.723200
19139 19141 19142 1 119.8800511 375.723200
19139 19141 19143 1 120.0200517 532.790560
19142 19141 19143 1 119.8800511 375.723200
19141 19143 19144 1 119.8800511 375.723200
19141 19143 19145 1 120.0200517 532.790560
19144 19143 19145 1 119.8800511 375.723200
19136 19145 19143 1 120.0200517 532.790560
19136 19145 19146 1 119.8800511 375.723200
19143 19145 19146 1 119.8800511 375.723200
19147 19148 19149 1 119.8800511 375.723200
19147 19148 19157 1 119.8800511 375.723200
19149 19148 19157 1 120.0200517 532.790560
19148 19149 19150 1 121.3800518 83.010560
19148 19149 19151 1 120.0200517 532.790560
19150 19149 19151 1 121.3800518 83.010560
7763 19150 7783 1 109.50000 418.400000
7763 19150 7785 1 109.50000 418.400000
7763 19150 19149 1 103.70004 836.800000
7783 19150 7785 1 109.50000 418.400000
7783 19150 19149 1 103.70004 836.800000
7785 19150 19149 1 103.70004 836.800000
19149 19151 19152 1 119.8800511 375.723200
19149 19151 19153 1 120.0200517 532.790560
19152 19151 19153 1 119.8800511 375.723200
19151 19153 19154 1 119.8800511 375.723200
19151 19153 19155 1 120.0200517 532.790560
19154 19153 19155 1 119.8800511 375.723200
19153 19155 19156 1 119.8800511 375.723200
19153 19155 19157 1 120.0200517 532.790560
19156 19155 19157 1 119.8800511 375.723200
19148 19157 19155 1 120.0200517 532.790560
19148 19157 19158 1 119.8800511 375.723200
19155 19157 19158 1 119.8800511 375.723200
19159 19160 19161 1 119.8800511 375.723200
19159 19160 19169 1 119.8800511 375.723200
19161 19160 19169 1 120.0200517 532.790560
19160 19161 19162 1 121.3800518 83.010560
19160 19161 19163 1 120.0200517 532.790560
19162 19161 19163 1 121.3800518 83.010560
4208 19162 4209 1 109.50000 418.400000
4208 19162 11178 1 109.50000 418.400000
4208 19162 19161 1 103.70004 836.800000
4209 19162 11178 1 109.50000 418.400000
4209 19162 19161 1 103.70004 836.800000
11178 19162 19161 1 103.70004 836.800000
19161 19163 19164 1 119.8800511 375.723200
19161 19163 19165 1 120.0200517 532.790560
19164 19163 19165 1 119.8800511 375.723200
19163 19165 19166 1 119.8800511 375.723200
19163 19165 19167 1 120.0200517 532.790560
19166 19165 19167 1 119.8800511 375.723200
19165 19167 19168 1 119.8800511 375.723200
19165 19167 19169 1 120.0200517 532.790560
19168 19167 19169 1 119.8800511 375.723200
19160 19169 19167 1 120.0200517 532.790560
19160 19169 19170 1 119.8800511 375.723200
19167 19169 19170 1 119.8800511 375.723200
19171 19172 19173 1 119.8800511 375.723200
19171 19172 19181 1 119.8800511 375.723200
19173 19172 19181 1 120.0200517 532.790560
19172 19173 19174 1 121.3800518 83.010560
19172 19173 19175 1 120.0200517 532.790560
19174 19173 19175 1 121.3800518 83.010560
785 19174 3463 1 109.50000 418.400000
785 19174 6500 1 109.50000 418.400000
785 19174 19173 1 103.70004 836.800000
3463 19174 6500 1 109.50000 418.400000
3463 19174 19173 1 103.70004 836.800000
6500 19174 19173 1 103.70004 836.800000
19173 19175 19176 1 119.8800511 375.723200
19173 19175 19177 1 120.0200517 532.790560
19176 19175 19177 1 119.8800511 375.723200
19175 19177 19178 1 119.8800511 375.723200
19175 19177 19179 1 120.0200517 532.790560
19178 19177 19179 1 119.8800511 375.723200
19177 19179 19180 1 119.8800511 375.723200
19177 19179 19181 1 120.0200517 532.790560
19180 19179 19181 1 119.8800511 375.723200
19172 19181 19179 1 120.0200517 532.790560
19172 19181 19182 1 119.8800511 375.723200
19179 19181 19182 1 119.8800511 375.723200
19183 19184 19185 1 119.8800511 375.723200
19183 19184 19193 1 119.8800511 375.723200
19185 19184 19193 1 120.0200517 532.790560
19184 19185 19186 1 121.3800518 83.010560
19184 19185 19187 1 120.0200517 532.790560
19186 19185 19187 1 121.3800518 83.010560
1711 19186 1712 1 109.50000 418.400000
1711 19186 10508 1 109.50000 418.400000
1711 19186 19185 1 103.70004 836.800000
1712 19186 10508 1 109.50000 418.400000
1712 19186 19185 1 103.70004 836.800000
10508 19186 19185 1 103.70004 836.800000
19185 19187 19188 1 119.8800511 375.723200
19185 19187 19189 1 120.0200517 532.790560
19188 19187 19189 1 119.8800511 375.723200
19187 19189 19190 1 119.8800511 375.723200
19187 19189 19191 1 120.0200517 532.790560
19190 19189 19191 1 119.8800511 375.723200
19189 19191 19192 1 119.8800511 375.723200
19189 19191 19193 1 120.0200517 532.790560
19192 19191 19193 1 119.8800511 375.723200
19184 19193 19191 1 120.0200517 532.790560
19184 19193 19194 1 119.8800511 375.723200
19191 19193 19194 1 119.8800511 375.723200
19195 19196 19197 1 119.8800511 375.723200
19195 19196 19205 1 119.8800511 375.723200
19197 19196 19205 1 120.0200517 532.790560
19196 19197 19198 1 121.3800518 83.010560
19196 19197 19199 1 120.0200517 532.790560
19198 19197 19199 1 121.3800518 83.010560
377 19198 1381 1 109.50000 418.400000
377 19198 2295 1 109.50000 418.400000
377 19198 19197 1 103.70004 836.800000
1381 19198 2295 1 109.50000 418.400000
1381 19198 19197 1 103.70004 836.800000
2295 19198 19197 1 103.70004 836.800000
19197 19199 19200 1 119.8800511 375.723200
19197 19199 19201 1 120.0200517 532.790560
19200 19199 19201 1 119.8800511 375.723200
19199 19201 19202 1 119.8800511 375.723200
19199 19201 19203 1 120.0200517 532.790560
19202 19201 19203 1 119.8800511 375.723200
19201 19203 19204 1 119.8800511 375.723200
19201 19203 19205 1 120.0200517 532.790560
19204 19203 19205 1 119.8800511 375.723200
19196 19205 19203 1 120.0200517 532.790560
19196 19205 19206 1 119.8800511 375.723200
19203 19205 19206 1 119.8800511 375.723200
19207 19208 19209 1 119.8800511 375.723200
19207 19208 19217 1 119.8800511 375.723200
19209 19208 19217 1 120.0200517 532.790560
19208 19209 19210 1 121.3800518 83.010560
19208 19209 19211 1 120.0200517 532.790560
19210 19209 19211 1 121.3800518 83.010560
5786 19210 9740 1 109.50000 418.400000
5786 19210 10814 1 109.50000 418.400000
5786 19210 19209 1 103.70004 836.800000
9740 19210 10814 1 109.50000 418.400000
9740 19210 19209 1 103.70004 836.800000
10814 19210 19209 1 103.70004 836.800000
19209 19211 19212 1 119.8800511 375.723200
19209 19211 19213 1 120.0200517 532.790560
19212 19211 19213 1 119.8800511 375.723200
19211 19213 19214 1 119.8800511 375.723200
19211 19213 19215 1 120.0200517 532.790560
19214 19213 19215 1 119.8800511 375.723200
19213 19215 19216 1 119.8800511 375.723200
19213 19215 19217 1 120.0200517 532.790560
19216 19215 19217 1 119.8800511 375.723200
19208 19217 19215 1 120.0200517 532.790560
19208 19217 19218 1 119.8800511 375.723200
19215 19217 19218 1 119.8800511 375.723200
19219 19220 19221 1 119.8800511 375.723200
19219 19220 19229 1 119.8800511 375.723200
19221 19220 19229 1 120.0200517 532.790560
19220 19221 19222 1 121.3800518 83.010560
19220 19221 19223 1 120.0200517 532.790560
19222 19221 19223 1 121.3800518 83.010560
1751 19222 4604 1 109.50000 418.400000
1751 19222 10764 1 109.50000 418.400000
1751 19222 19221 1 103.70004 836.800000
4604 19222 10764 1 109.50000 418.400000
4604 19222 19221 1 103.70004 836.800000
10764 19222 19221 1 103.70004 836.800000
19221 19223 19224 1 119.8800511 375.723200
19221 19223 19225 1 120.0200517 532.790560
19224 19223 19225 1 119.8800511 375.723200
19223 19225 19226 1 119.8800511 375.723200
19223 19225 19227 1 120.0200517 532.790560
19226 19225 19227 1 119.8800511 375.723200
19225 19227 19228 1 119.8800511 375.723200
19225 19227 19229 1 120.0200517 532.790560
19228 19227 19229 1 119.8800511 375.723200
19220 19229 19227 1 120.0200517 532.790560
19220 19229 19230 1 119.8800511 375.723200
19227 19229 19230 1 119.8800511 375.723200
19231 19232 19233 1 119.8800511 375.723200
19231 19232 19241 1 119.8800511 375.723200
19233 19232 19241 1 120.0200517 532.790560
19232 19233 19234 1 121.3800518 83.010560
19232 19233 19235 1 120.0200517 532.790560
19234 19233 19235 1 121.3800518 83.010560
5854 19234 7800 1 109.50000 418.400000
5854 19234 8247 1 109.50000 418.400000
5854 19234 19233 1 103.70004 836.800000
7800 19234 8247 1 109.50000 418.400000
7800 19234 19233 1 103.70004 836.800000
8247 19234 19233 1 103.70004 836.800000
19233 19235 19236 1 119.8800511 375.723200
19233 19235 19237 1 120.0200517 532.790560
19236 19235 19237 1 119.8800511 375.723200
19235 19237 19238 1 119.8800511 375.723200
19235 19237 19239 1 120.0200517 532.790560
19238 19237 19239 1 119.8800511 375.723200
19237 19239 19240 1 119.8800511 375.723200
19237 19239 19241 1 120.0200517 532.790560
19240 19239 19241 1 119.8800511 375.723200
19232 19241 19239 1 120.0200517 532.790560
19232 19241 19242 1 119.8800511 375.723200
19239 19241 19242 1 119.8800511 375.723200
19243 19244 19245 1 119.8800511 375.723200
19243 19244 19253 1 119.8800511 375.723200
19245 19244 19253 1 120.0200517 532.790560
19244 19245 19246 1 121.3800518 83.010560
19244 19245 19247 1 120.0200517 532.790560
19246 19245 19247 1 121.3800518 83.010560
895 19246 2602 1 109.50000 418.400000
895 19246 2603 1 109.50000 418.400000
895 19246 19245 1 103.70004 836.800000
2602 19246 2603 1 109.50000 418.400000
2602 19246 19245 1 103.70004 836.800000
2603 19246 19245 1 103.70004 836.800000
19245 19247 19248 1 119.8800511 375.723200
19245 19247 19249 1 120.0200517 532.790560
19248 19247 19249 1 119.8800511 375.723200
19247 19249 19250 1 119.8800511 375.723200
19247 19249 19251 1 120.0200517 532.790560
19250 19249 19251 1 119.8800511 375.723200
19249 19251 19252 1 119.8800511 375.723200
19249 19251 19253 1 120.0200517 532.790560
19252 19251 19253 1 119.8800511 375.723200
19244 19253 19251 1 120.0200517 532.790560
19244 19253 19254 1 119.8800511 375.723200
19251 19253 19254 1 119.8800511 375.723200
19255 19256 19257 1 119.8800511 375.723200
19255 19256 19265 1 119.8800511 375.723200
19257 19256 19265 1 120.0200517 532.790560
19256 19257 19258 1 121.3800518 83.010560
19256 19257 19259 1 120.0200517 532.790560
19258 19257 19259 1 121.3800518 83.010560
178 19258 179 1 109.50000 418.400000
178 19258 11225 1 109.50000 418.400000
178 19258 19257 1 103.70004 836.800000
179 19258 11225 1 109.50000 418.400000
179 19258 19257 1 103.70004 836.800000
11225 19258 19257 1 103.70004 836.800000
19257 19259 19260 1 119.8800511 375.723200
19257 19259 19261 1 120.0200517 532.790560
19260 19259 19261 1 119.8800511 375.723200
19259 19261 19262 1 119.8800511 375.723200
19259 19261 19263 1 120.0200517 532.790560
19262 19261 19263 1 119.8800511 375.723200
19261 19263 19264 1 119.8800511 375.723200
19261 19263 19265 1 120.0200517 532.790560
19264 19263 19265 1 119.8800511 375.723200
19256 19265 19263 1 120.0200517 532.790560
19256 19265 19266 1 119.8800511 375.723200
19263 19265 19266 1 119.8800511 375.723200
19267 19268 19269 1 119.8800511 375.723200
19267 19268 19277 1 119.8800511 375.723200
19269 19268 19277 1 120.0200517 532.790560
19268 19269 19270 1 121.3800518 83.010560
19268 19269 19271 1 120.0200517 532.790560
19270 19269 19271 1 121.3800518 83.010560
1701 19270 4553 1 109.50000 418.400000
1701 19270 8520 1 109.50000 418.400000
1701 19270 19269 1 103.70004 836.800000
4553 19270 8520 1 109.50000 418.400000
4553 19270 19269 1 103.70004 836.800000
8520 19270 19269 1 103.70004 836.800000
19269 19271 19272 1 119.8800511 375.723200
19269 19271 19273 1 120.0200517 532.790560
19272 19271 19273 1 119.8800511 375.723200
19271 19273 19274 1 119.8800511 375.723200
19271 19273 19275 1 120.0200517 532.790560
19274 19273 19275 1 119.8800511 375.723200
19273 19275 19276 1 119.8800511 375.723200
19273 19275 19277 1 120.0200517 532.790560
19276 19275 19277 1 119.8800511 375.723200
19268 19277 19275 1 120.0200517 532.790560
19268 19277 19278 1 119.8800511 375.723200
19275 19277 19278 1 119.8800511 375.723200
19279 19280 19281 1 119.8800511 375.723200
19279 19280 19289 1 119.8800511 375.723200
19281 19280 19289 1 120.0200517 532.790560
19280 19281 19282 1 121.3800518 83.010560
19280 19281 19283 1 120.0200517 532.790560
19282 19281 19283 1 121.3800518 83.010560
2110 19282 5221 1 109.50000 418.400000
2110 19282 10907 1 109.50000 418.400000
2110 19282 19281 1 103.70004 836.800000
5221 19282 10907 1 109.50000 418.400000
5221 19282 19281 1 103.70004 836.800000
10907 19282 19281 1 103.70004 836.800000
19281 19283 19284 1 119.8800511 375.723200
19281 19283 19285 1 120.0200517 532.790560
19284 19283 19285 1 119.8800511 375.723200
19283 19285 19286 1 119.8800511 375.723200
19283 19285 19287 1 120.0200517 532.790560
19286 19285 19287 1 119.8800511 375.723200
19285 19287 19288 1 119.8800511 375.723200
19285 19287 19289 1 120.0200517 532.790560
19288 19287 19289 1 119.8800511 375.723200
19280 19289 19287 1 120.0200517 532.790560
19280 19289 19290 1 119.8800511 375.723200
19287 19289 19290 1 119.8800511 375.723200
19291 19292 19293 1 119.8800511 375.723200
19291 19292 19301 1 119.8800511 375.723200
19293 19292 19301 1 120.0200517 532.790560
19292 19293 19294 1 121.3800518 83.010560
19292 19293 19295 1 120.0200517 532.790560
19294 19293 19295 1 121.3800518 83.010560
2177 19294 4737 1 109.50000 418.400000
2177 19294 8153 1 109.50000 418.400000
2177 19294 19293 1 103.70004 836.800000
4737 19294 8153 1 109.50000 418.400000
4737 19294 19293 1 103.70004 836.800000
8153 19294 19293 1 103.70004 836.800000
19293 19295 19296 1 119.8800511 375.723200
19293 19295 19297 1 120.0200517 532.790560
19296 19295 19297 1 119.8800511 375.723200
19295 19297 19298 1 119.8800511 375.723200
19295 19297 19299 1 120.0200517 532.790560
19298 19297 19299 1 119.8800511 375.723200
19297 19299 19300 1 119.8800511 375.723200
19297 19299 19301 1 120.0200517 532.790560
19300 19299 19301 1 119.8800511 375.723200
19292 19301 19299 1 120.0200517 532.790560
19292 19301 19302 1 119.8800511 375.723200
19299 19301 19302 1 119.8800511 375.723200
19303 19304 19305 1 119.8800511 375.723200
19303 19304 19313 1 119.8800511 375.723200
19305 19304 19313 1 120.0200517 532.790560
19304 19305 19306 1 121.3800518 83.010560
19304 19305 19307 1 120.0200517 532.790560
19306 19305 19307 1 121.3800518 83.010560
7742 19306 9665 1 109.50000 418.400000
7742 19306 9806 1 109.50000 418.400000
7742 19306 19305 1 103.70004 836.800000
9665 19306 9806 1 109.50000 418.400000
9665 19306 19305 1 103.70004 836.800000
9806 19306 19305 1 103.70004 836.800000
19305 19307 19308 1 119.8800511 375.723200
19305 19307 19309 1 120.0200517 532.790560
19308 19307 19309 1 119.8800511 375.723200
19307 19309 19310 1 119.8800511 375.723200
19307 19309 19311 1 120.0200517 532.790560
19310 19309 19311 1 119.8800511 375.723200
19309 19311 19312 1 119.8800511 375.723200
19309 19311 19313 1 120.0200517 532.790560
19312 19311 19313 1 119.8800511 375.723200
19304 19313 19311 1 120.0200517 532.790560
19304 19313 19314 1 119.8800511 375.723200
19311 19313 19314 1 119.8800511 375.723200
19315 19316 19317 1 119.8800511 375.723200
19315 19316 19325 1 119.8800511 375.723200
19317 19316 19325 1 120.0200517 532.790560
19316 19317 19318 1 121.3800518 83.010560
19316 19317 19319 1 120.0200517 532.790560
19318 19317 19319 1 121.3800518 83.010560
4023 19318 5727 1 109.50000 418.400000
4023 19318 8081 1 109.50000 418.400000
4023 19318 19317 1 103.70004 836.800000
5727 19318 8081 1 109.50000 418.400000
5727 19318 19317 1 103.70004 836.800000
8081 19318 19317 1 103.70004 836.800000
19317 19319 19320 1 119.8800511 375.723200
19317 19319 19321 1 120.0200517 532.790560
19320 19319 19321 1 119.8800511 375.723200
19319 19321 19322 1 119.8800511 375.723200
19319 19321 19323 1 120.0200517 532.790560
19322 19321 19323 1 119.8800511 375.723200
19321 19323 19324 1 119.8800511 375.723200
19321 19323 19325 1 120.0200517 532.790560
19324 19323 19325 1 119.8800511 375.723200
19316 19325 19323 1 120.0200517 532.790560
19316 19325 19326 1 119.8800511 375.723200
19323 19325 19326 1 119.8800511 375.723200
19327 19328 19329 1 119.8800511 375.723200
19327 19328 19337 1 119.8800511 375.723200
19329 19328 19337 1 120.0200517 532.790560
19328 19329 19330 1 121.3800518 83.010560
19328 19329 19331 1 120.0200517 532.790560
19330 19329 19331 1 121.3800518 83.010560
241 19330 9643 1 109.50000 418.400000
241 19330 11165 1 109.50000 418.400000
241 19330 19329 1 103.70004 836.800000
9643 19330 11165 1 109.50000 418.400000
9643 19330 19329 1 103.70004 836.800000
11165 19330 19329 1 103.70004 836.800000
19329 19331 19332 1 119.8800511 375.723200
19329 19331 19333 1 120.0200517 532.790560
19332 19331 19333 1 119.8800511 375.723200
19331 19333 19334 1 119.8800511 375.723200
19331 19333 19335 1 120.0200517 532.790560
19334 19333 19335 1 119.8800511 375.723200
19333 19335 19336 1 119.8800511 375.723200
19333 19335 19337 1 120.0200517 532.790560
19336 19335 19337 1 119.8800511 375.723200
19328 19337 19335 1 120.0200517 532.790560
19328 19337 19338 1 119.8800511 375.723200
19335 19337 19338 1 119.8800511 375.723200
19339 19340 19341 1 119.8800511 375.723200
19339 19340 19349 1 119.8800511 375.723200
19341 19340 19349 1 120.0200517 532.790560
19340 19341 19342 1 121.3800518 83.010560
19340 19341 19343 1 120.0200517 532.790560
19342 19341 19343 1 121.3800518 83.010560
2452 19342 8619 1 109.50000 418.400000
2452 19342 8954 1 109.50000 418.400000
2452 19342 19341 1 103.70004 836.800000
8619 19342 8954 1 109.50000 418.400000
8619 19342 19341 1 103.70004 836.800000
8954 19342 19341 1 103.70004 836.800000
19341 19343 19344 1 119.8800511 375.723200
19341 19343 19345 1 120.0200517 532.790560
19344 19343 19345 1 119.8800511 375.723200
19343 19345 19346 1 119.8800511 375.723200
19343 19345 19347 1 120.0200517 532.790560
19346 19345 19347 1 119.8800511 375.723200
19345 19347 19348 1 119.8800511 375.723200
19345 19347 19349 1 120.0200517 532.790560
19348 19347 19349 1 119.8800511 375.723200
19340 19349 19347 1 120.0200517 532.790560
19340 19349 19350 1 119.8800511 375.723200
19347 19349 19350 1 119.8800511 375.723200
19351 19352 19353 1 119.8800511 375.723200
19351 19352 19361 1 119.8800511 375.723200
19353 19352 19361 1 120.0200517 532.790560
19352 19353 19354 1 121.3800518 83.010560
19352 19353 19355 1 120.0200517 532.790560
19354 19353 19355 1 121.3800518 83.010560
1179 19354 1180 1 109.50000 418.400000
1179 19354 11254 1 109.50000 418.400000
1179 19354 19353 1 103.70004 836.800000
1180 19354 11254 1 109.50000 418.400000
1180 19354 19353 1 103.70004 836.800000
11254 19354 19353 1 103.70004 836.800000
19353 19355 19356 1 119.8800511 375.723200
19353 19355 19357 1 120.0200517 532.790560
19356 19355 19357 1 119.8800511 375.723200
19355 19357 19358 1 119.8800511 375.723200
19355 19357 19359 1 120.0200517 532.790560
19358 19357 19359 1 119.8800511 375.723200
19357 19359 19360 1 119.8800511 375.723200
19357 19359 19361 1 120.0200517 532.790560
19360 19359 19361 1 119.8800511 375.723200
19352 19361 19359 1 120.0200517 532.790560
19352 19361 19362 1 119.8800511 375.723200
19359 19361 19362 1 119.8800511 375.723200
19363 19364 19365 1 119.8800511 375.723200
19363 19364 19373 1 119.8800511 375.723200
19365 19364 19373 1 120.0200517 532.790560
19364 19365 19366 1 121.3800518 83.010560
19364 19365 19367 1 120.0200517 532.790560
19366 19365 19367 1 121.3800518 83.010560
7908 19366 10711 1 109.50000 418.400000
7908 19366 11044 1 109.50000 418.400000
7908 19366 19365 1 103.70004 836.800000
10711 19366 11044 1 109.50000 418.400000
10711 19366 19365 1 103.70004 836.800000
11044 19366 19365 1 103.70004 836.800000
19365 19367 19368 1 119.8800511 375.723200
19365 19367 19369 1 120.0200517 532.790560
19368 19367 19369 1 119.8800511 375.723200
19367 19369 19370 1 119.8800511 375.723200
19367 19369 19371 1 120.0200517 532.790560
19370 19369 19371 1 119.8800511 375.723200
19369 19371 19372 1 119.8800511 375.723200
19369 19371 19373 1 120.0200517 532.790560
19372 19371 19373 1 119.8800511 375.723200
19364 19373 19371 1 120.0200517 532.790560
19364 19373 19374 1 119.8800511 375.723200
19371 19373 19374 1 119.8800511 375.723200
19375 19376 19377 1 119.8800511 375.723200
19375 19376 19385 1 119.8800511 375.723200
19377 19376 19385 1 120.0200517 532.790560
19376 19377 19378 1 121.3800518 83.010560
19376 19377 19379 1 120.0200517 532.790560
19378 19377 19379 1 121.3800518 83.010560
1237 19378 1238 1 109.50000 418.400000
1237 19378 1239 1 109.50000 418.400000
1237 19378 19377 1 103.70004 836.800000
1238 19378 1239 1 109.50000 418.400000
1238 19378 19377 1 103.70004 836.800000
1239 19378 19377 1 103.70004 836.800000
19377 19379 19380 1 119.8800511 375.723200
19377 19379 19381 1 120.0200517 532.790560
19380 19379 19381 1 119.8800511 375.723200
19379 19381 19382 1 119.8800511 375.723200
19379 19381 19383 1 120.0200517 532.790560
19382 19381 19383 1 119.8800511 375.723200
19381 19383 19384 1 119.8800511 375.723200
19381 19383 19385 1 120.0200517 532.790560
19384 19383 19385 1 119.8800511 375.723200
19376 19385 19383 1 120.0200517 532.790560
19376 19385 19386 1 119.8800511 375.723200
19383 19385 19386 1 119.8800511 375.723200
19387 19388 19389 1 119.8800511 375.723200
19387 19388 19397 1 119.8800511 375.723200
19389 19388 19397 1 120.0200517 532.790560
19388 19389 19390 1 121.3800518 83.010560
19388 19389 19391 1 120.0200517 532.790560
19390 19389 19391 1 121.3800518 83.010560
3333 19390 3930 1 109.50000 418.400000
3333 19390 8975 1 109.50000 418.400000
3333 19390 19389 1 103.70004 836.800000
3930 19390 8975 1 109.50000 418.400000
3930 19390 19389 1 103.70004 836.800000
8975 19390 19389 1 103.70004 836.800000
19389 19391 19392 1 119.8800511 375.723200
19389 19391 19393 1 120.0200517 532.790560
19392 19391 19393 1 119.8800511 375.723200
19391 19393 19394 1 119.8800511 375.723200
19391 19393 19395 1 120.0200517 532.790560
19394 19393 19395 1 119.8800511 375.723200
19393 19395 19396 1 119.8800511 375.723200
19393 19395 19397 1 120.0200517 532.790560
19396 19395 19397 1 119.8800511 375.723200
19388 19397 19395 1 120.0200517 532.790560
19388 19397 19398 1 119.8800511 375.723200
19395 19397 19398 1 119.8800511 375.723200
19399 19400 19401 1 119.8800511 375.723200
19399 19400 19409 1 119.8800511 375.723200
19401 19400 19409 1 120.0200517 532.790560
19400 19401 19402 1 121.3800518 83.010560
19400 19401 19403 1 120.0200517 532.790560
19402 19401 19403 1 121.3800518 83.010560
5709 19402 6741 1 109.50000 418.400000
5709 19402 11279 1 109.50000 418.400000
5709 19402 19401 1 103.70004 836.800000
6741 19402 11279 1 109.50000 418.400000
6741 19402 19401 1 103.70004 836.800000
11279 19402 19401 1 103.70004 836.800000
19401 19403 19404 1 119.8800511 375.723200
19401 19403 19405 1 120.0200517 532.790560
19404 19403 19405 1 119.8800511 375.723200
19403 19405 19406 1 119.8800511 375.723200
19403 19405 19407 1 120.0200517 532.790560
19406 19405 19407 1 119.8800511 375.723200
19405 19407 19408 1 119.8800511 375.723200
19405 19407 19409 1 120.0200517 532.790560
19408 19407 19409 1 119.8800511 375.723200
19400 19409 19407 1 120.0200517 532.790560
19400 19409 19410 1 119.8800511 375.723200
19407 19409 19410 1 119.8800511 375.723200
19411 19412 19413 1 119.8800511 375.723200
19411 19412 19421 1 119.8800511 375.723200
19413 19412 19421 1 120.0200517 532.790560
19412 19413 19414 1 121.3800518 83.010560
19412 19413 19415 1 120.0200517 532.790560
19414 19413 19415 1 121.3800518 83.010560
5141 19414 5142 1 109.50000 418.400000
5141 19414 5143 1 109.50000 418.400000
5141 19414 19413 1 103.70004 836.800000
5142 19414 5143 1 109.50000 418.400000
5142 19414 19413 1 103.70004 836.800000
5143 19414 19413 1 103.70004 836.800000
19413 19415 19416 1 119.8800511 375.723200
19413 19415 19417 1 120.0200517 532.790560
19416 19415 19417 1 119.8800511 375.723200
19415 19417 19418 1 119.8800511 375.723200
19415 19417 19419 1 120.0200517 532.790560
19418 19417 19419 1 119.8800511 375.723200
19417 19419 19420 1 119.8800511 375.723200
19417 19419 19421 1 120.0200517 532.790560
19420 19419 19421 1 119.8800511 375.723200
19412 19421 19419 1 120.0200517 532.790560
19412 19421 19422 1 119.8800511 375.723200
19419 19421 19422 1 119.8800511 375.723200
19423 19424 19425 1 119.8800511 375.723200
19423 19424 19433 1 119.8800511 375.723200
19425 19424 19433 1 120.0200517 532.790560
19424 19425 19426 1 121.3800518 83.010560
19424 19425 19427 1 120.0200517 532.790560
19426 19425 19427 1 121.3800518 83.010560
3922 19426 3923 1 109.50000 418.400000
3922 19426 8923 1 109.50000 418.400000
3922 19426 19425 1 103.70004 836.800000
3923 19426 8923 1 109.50000 418.400000
3923 19426 19425 1 103.70004 836.800000
8923 19426 19425 1 103.70004 836.800000
19425 19427 19428 1 119.8800511 375.723200
19425 19427 19429 1 120.0200517 532.790560
19428 19427 19429 1 119.8800511 375.723200
19427 19429 19430 1 119.8800511 375.723200
19427 19429 19431 1 120.0200517 532.790560
19430 19429 19431 1 119.8800511 375.723200
19429 19431 19432 1 119.8800511 375.723200
19429 19431 19433 1 120.0200517 532.790560
19432 19431 19433 1 119.8800511 375.723200
19424 19433 19431 1 120.0200517 532.790560
19424 19433 19434 1 119.8800511 375.723200
19431 19433 19434 1 119.8800511 375.723200
19435 19436 19437 1 119.8800511 375.723200
19435 19436 19445 1 119.8800511 375.723200
19437 19436 19445 1 120.0200517 532.790560
19436 19437 19438 1 121.3800518 83.010560
19436 19437 19439 1 120.0200517 532.790560
19438 19437 19439 1 121.3800518 83.010560
5324 19438 5325 1 109.50000 418.400000
5324 19438 11274 1 109.50000 418.400000
5324 19438 19437 1 103.70004 836.800000
5325 19438 11274 1 109.50000 418.400000
5325 19438 19437 1 103.70004 836.800000
11274 19438 19437 1 103.70004 836.800000
19437 19439 19440 1 119.8800511 375.723200
19437 19439 19441 1 120.0200517 532.790560
19440 19439 19441 1 119.8800511 375.723200
19439 19441 19442 1 119.8800511 375.723200
19439 19441 19443 1 120.0200517 532.790560
19442 19441 19443 1 119.8800511 375.723200
19441 19443 19444 1 119.8800511 375.723200
19441 19443 19445 1 120.0200517 532.790560
19444 19443 19445 1 119.8800511 375.723200
19436 19445 19443 1 120.0200517 532.790560
19436 19445 19446 1 119.8800511 375.723200
19443 19445 19446 1 119.8800511 375.723200
19447 19448 19449 1 119.8800511 375.723200
19447 19448 19457 1 119.8800511 375.723200
19449 19448 19457 1 120.0200517 532.790560
19448 19449 19450 1 121.3800518 83.010560
19448 19449 19451 1 120.0200517 532.790560
19450 19449 19451 1 121.3800518 83.010560
1652 19450 1653 1 109.50000 418.400000
1652 19450 1654 1 109.50000 418.400000
1652 19450 19449 1 103.70004 836.800000
1653 19450 1654 1 109.50000 418.400000
1653 19450 19449 1 103.70004 836.800000
1654 19450 19449 1 103.70004 836.800000
19449 19451 19452 1 119.8800511 375.723200
19449 19451 19453 1 120.0200517 532.790560
19452 19451 19453 1 119.8800511 375.723200
19451 19453 19454 1 119.8800511 375.723200
19451 19453 19455 1 120.0200517 532.790560
19454 19453 19455 1 119.8800511 375.723200
19453 19455 19456 1 119.8800511 375.723200
19453 19455 19457 1 120.0200517 532.790560
19456 19455 19457 1 119.8800511 375.723200
19448 19457 19455 1 120.0200517 532.790560
19448 19457 19458 1 119.8800511 375.723200
19455 19457 19458 1 119.8800511 375.723200
19459 19460 19461 1 119.8800511 375.723200
19459 19460 19469 1 119.8800511 375.723200
19461 19460 19469 1 120.0200517 532.790560
19460 19461 19462 1 121.3800518 83.010560
19460 19461 19463 1 120.0200517 532.790560
19462 19461 19463 1 121.3800518 83.010560
1939 19462 2165 1 109.50000 418.400000
1939 19462 7449 1 109.50000 418.400000
1939 19462 19461 1 103.70004 836.800000
2165 19462 7449 1 109.50000 418.400000
2165 19462 19461 1 103.70004 836.800000
7449 19462 19461 1 103.70004 836.800000
19461 19463 19464 1 119.8800511 375.723200
19461 19463 19465 1 120.0200517 532.790560
19464 19463 19465 1 119.8800511 375.723200
19463 19465 19466 1 119.8800511 375.723200
19463 19465 19467 1 120.0200517 532.790560
19466 19465 19467 1 119.8800511 375.723200
19465 19467 19468 1 119.8800511 375.723200
19465 19467 19469 1 120.0200517 532.790560
19468 19467 19469 1 119.8800511 375.723200
19460 19469 19467 1 120.0200517 532.790560
19460 19469 19470 1 119.8800511 375.723200
19467 19469 19470 1 119.8800511 375.723200
19471 19472 19473 1 119.8800511 375.723200
19471 19472 19481 1 119.8800511 375.723200
19473 19472 19481 1 120.0200517 532.790560
19472 19473 19474 1 121.3800518 83.010560
19472 19473 19475 1 120.0200517 532.790560
19474 19473 19475 1 121.3800518 83.010560
2944 19474 2945 1 109.50000 418.400000
2944 19474 2946 1 109.50000 418.400000
2944 19474 19473 1 103.70004 836.800000
2945 19474 2946 1 109.50000 418.400000
2945 19474 19473 1 103.70004 836.800000
2946 19474 19473 1 103.70004 836.800000
19473 19475 19476 1 119.8800511 375.723200
19473 19475 19477 1 120.0200517 532.790560
19476 19475 19477 1 119.8800511 375.723200
19475 19477 19478 1 119.8800511 375.723200
19475 19477 19479 1 120.0200517 532.790560
19478 19477 19479 1 119.8800511 375.723200
19477 19479 19480 1 119.8800511 375.723200
19477 19479 19481 1 120.0200517 532.790560
19480 19479 19481 1 119.8800511 375.723200
19472 19481 19479 1 120.0200517 532.790560
19472 19481 19482 1 119.8800511 375.723200
19479 19481 19482 1 119.8800511 375.723200
19483 19484 19485 1 119.8800511 375.723200
19483 19484 19493 1 119.8800511 375.723200
19485 19484 19493 1 120.0200517 532.790560
19484 19485 19486 1 121.3800518 83.010560
19484 19485 19487 1 120.0200517 532.790560
19486 19485 19487 1 121.3800518 83.010560
5592 19486 9575 1 109.50000 418.400000
5592 19486 9642 1 109.50000 418.400000
5592 19486 19485 1 103.70004 836.800000
9575 19486 9642 1 109.50000 418.400000
9575 19486 19485 1 103.70004 836.800000
9642 19486 19485 1 103.70004 836.800000
19485 19487 19488 1 119.8800511 375.723200
19485 19487 19489 1 120.0200517 532.790560
19488 19487 19489 1 119.8800511 375.723200
19487 19489 19490 1 119.8800511 375.723200
19487 19489 19491 1 120.0200517 532.790560
19490 19489 19491 1 119.8800511 375.723200
19489 19491 19492 1 119.8800511 375.723200
19489 19491 19493 1 120.0200517 532.790560
19492 19491 19493 1 119.8800511 375.723200
19484 19493 19491 1 120.0200517 532.790560
19484 19493 19494 1 119.8800511 375.723200
19491 19493 19494 1 119.8800511 375.723200
19495 19496 19497 1 119.8800511 375.723200
19495 19496 19505 1 119.8800511 375.723200
19497 19496 19505 1 120.0200517 532.790560
19496 19497 19498 1 121.3800518 83.010560
19496 19497 19499 1 120.0200517 532.790560
19498 19497 19499 1 121.3800518 83.010560
3543 19498 11092 1 109.50000 418.400000
3543 19498 11168 1 109.50000 418.400000
3543 19498 19497 1 103.70004 836.800000
11092 19498 11168 1 109.50000 418.400000
11092 19498 19497 1 103.70004 836.800000
11168 19498 19497 1 103.70004 836.800000
19497 19499 19500 1 119.8800511 375.723200
19497 19499 19501 1 120.0200517 532.790560
19500 19499 19501 1 119.8800511 375.723200
19499 19501 19502 1 119.8800511 375.723200
19499 19501 19503 1 120.0200517 532.790560
19502 19501 19503 1 119.8800511 375.723200
19501 19503 19504 1 119.8800511 375.723200
19501 19503 19505 1 120.0200517 532.790560
19504 19503 19505 1 119.8800511 375.723200
19496 19505 19503 1 120.0200517 532.790560
19496 19505 19506 1 119.8800511 375.723200
19503 19505 19506 1 119.8800511 375.723200
19507 19508 19509 1 119.8800511 375.723200
19507 19508 19517 1 119.8800511 375.723200
19509 19508 19517 1 120.0200517 532.790560
19508 19509 19510 1 121.3800518 83.010560
19508 19509 19511 1 120.0200517 532.790560
19510 19509 19511 1 121.3800518 83.010560
5171 19510 5287 1 109.50000 418.400000
5171 19510 5288 1 109.50000 418.400000
5171 19510 19509 1 103.70004 836.800000
5287 19510 5288 1 109.50000 418.400000
5287 19510 19509 1 103.70004 836.800000
5288 19510 19509 1 103.70004 836.800000
19509 19511 19512 1 119.8800511 375.723200
19509 19511 19513 1 120.0200517 532.790560
19512 19511 19513 1 119.8800511 375.723200
19511 19513 19514 1 119.8800511 375.723200
19511 19513 19515 1 120.0200517 532.790560
19514 19513 19515 1 119.8800511 375.723200
19513 19515 19516 1 119.8800511 375.723200
19513 19515 19517 1 120.0200517 532.790560
19516 19515 19517 1 119.8800511 375.723200
19508 19517 19515 1 120.0200517 532.790560
19508 19517 19518 1 119.8800511 375.723200
19515 19517 19518 1 119.8800511 375.723200
19519 19520 19521 1 119.8800511 375.723200
19519 19520 19529 1 119.8800511 375.723200
19521 19520 19529 1 120.0200517 532.790560
19520 19521 19522 1 121.3800518 83.010560
19520 19521 19523 1 120.0200517 532.790560
19522 19521 19523 1 121.3800518 83.010560
8091 19522 8092 1 109.50000 418.400000
8091 19522 8093 1 109.50000 418.400000
8091 19522 19521 1 103.70004 836.800000
8092 19522 8093 1 109.50000 418.400000
8092 19522 19521 1 103.70004 836.800000
8093 19522 19521 1 103.70004 836.800000
19521 19523 19524 1 119.8800511 375.723200
19521 19523 19525 1 120.0200517 532.790560
19524 19523 19525 1 119.8800511 375.723200
19523 19525 19526 1 119.8800511 375.723200
19523 19525 19527 1 120.0200517 532.790560
19526 19525 19527 1 119.8800511 375.723200
19525 19527 19528 1 119.8800511 375.723200
19525 19527 19529 1 120.0200517 532.790560
19528 19527 19529 1 119.8800511 375.723200
19520 19529 19527 1 120.0200517 532.790560
19520 19529 19530 1 119.8800511 375.723200
19527 19529 19530 1 119.8800511 375.723200
19531 19532 19533 1 119.8800511 375.723200
19531 19532 19541 1 119.8800511 375.723200
19533 19532 19541 1 120.0200517 532.790560
19532 19533 19534 1 121.3800518 83.010560
19532 19533 19535 1 120.0200517 532.790560
19534 19533 19535 1 121.3800518 83.010560
221 19534 5234 1 109.50000 418.400000
221 19534 6192 1 109.50000 418.400000
221 19534 19533 1 103.70004 836.800000
5234 19534 6192 1 109.50000 418.400000
5234 19534 19533 1 103.70004 836.800000
6192 19534 19533 1 103.70004 836.800000
19533 19535 19536 1 119.8800511 375.723200
19533 19535 19537 1 120.0200517 532.790560
19536 19535 19537 1 119.8800511 375.723200
19535 19537 19538 1 119.8800511 375.723200
19535 19537 19539 1 120.0200517 532.790560
19538 19537 19539 1 119.8800511 375.723200
19537 19539 19540 1 119.8800511 375.723200
19537 19539 19541 1 120.0200517 532.790560
19540 19539 19541 1 119.8800511 375.723200
19532 19541 19539 1 120.0200517 532.790560
19532 19541 19542 1 119.8800511 375.723200
19539 19541 19542 1 119.8800511 375.723200
19543 19544 19545 1 119.8800511 375.723200
19543 19544 19553 1 119.8800511 375.723200
19545 19544 19553 1 120.0200517 532.790560
19544 19545 19546 1 121.3800518 83.010560
19544 19545 19547 1 120.0200517 532.790560
19546 19545 19547 1 121.3800518 83.010560
10053 19546 10545 1 109.50000 418.400000
10053 19546 11232 1 109.50000 418.400000
10053 19546 19545 1 103.70004 836.800000
10545 19546 11232 1 109.50000 418.400000
10545 19546 19545 1 103.70004 836.800000
11232 19546 19545 1 103.70004 836.800000
19545 19547 19548 1 119.8800511 375.723200
19545 19547 19549 1 120.0200517 532.790560
19548 19547 19549 1 119.8800511 375.723200
19547 19549 19550 1 119.8800511 375.723200
19547 19549 19551 1 120.0200517 532.790560
19550 19549 19551 1 119.8800511 375.723200
19549 19551 19552 1 119.8800511 375.723200
19549 19551 19553 1 120.0200517 532.790560
19552 19551 19553 1 119.8800511 375.723200
19544 19553 19551 1 120.0200517 532.790560
19544 19553 19554 1 119.8800511 375.723200
19551 19553 19554 1 119.8800511 375.723200
19555 19556 19557 1 119.8800511 375.723200
19555 19556 19565 1 119.8800511 375.723200
19557 19556 19565 1 120.0200517 532.790560
19556 19557 19558 1 121.3800518 83.010560
19556 19557 19559 1 120.0200517 532.790560
19558 19557 19559 1 121.3800518 83.010560
3486 19558 3487 1 109.50000 418.400000
3486 19558 3488 1 109.50000 418.400000
3486 19558 19557 1 103.70004 836.800000
3487 19558 3488 1 109.50000 418.400000
3487 19558 19557 1 103.70004 836.800000
3488 19558 19557 1 103.70004 836.800000
19557 19559 19560 1 119.8800511 375.723200
19557 19559 19561 1 120.0200517 532.790560
19560 19559 19561 1 119.8800511 375.723200
19559 19561 19562 1 119.8800511 375.723200
19559 19561 19563 1 120.0200517 532.790560
19562 19561 19563 1 119.8800511 375.723200
19561 19563 19564 1 119.8800511 375.723200
19561 19563 19565 1 120.0200517 532.790560
19564 19563 19565 1 119.8800511 375.723200
19556 19565 19563 1 120.0200517 532.790560
19556 19565 19566 1 119.8800511 375.723200
19563 19565 19566 1 119.8800511 375.723200
19567 19568 19569 1 119.8800511 375.723200
19567 19568 19577 1 119.8800511 375.723200
19569 19568 19577 1 120.0200517 532.790560
19568 19569 19570 1 121.3800518 83.010560
19568 19569 19571 1 120.0200517 532.790560
19570 19569 19571 1 121.3800518 83.010560
417 19570 9344 1 109.50000 418.400000
417 19570 10804 1 109.50000 418.400000
417 19570 19569 1 103.70004 836.800000
9344 19570 10804 1 109.50000 418.400000
9344 19570 19569 1 103.70004 836.800000
10804 19570 19569 1 103.70004 836.800000
19569 19571 19572 1 119.8800511 375.723200
19569 19571 19573 1 120.0200517 532.790560
19572 19571 19573 1 119.8800511 375.723200
19571 19573 19574 1 119.8800511 375.723200
19571 19573 19575 1 120.0200517 532.790560
19574 19573 19575 1 119.8800511 375.723200
19573 19575 19576 1 119.8800511 375.723200
19573 19575 19577 1 120.0200517 532.790560
19576 19575 19577 1 119.8800511 375.723200
19568 19577 19575 1 120.0200517 532.790560
19568 19577 19578 1 119.8800511 375.723200
19575 19577 19578 1 119.8800511 375.723200
19579 19580 19581 1 119.8800511 375.723200
19579 19580 19589 1 119.8800511 375.723200
19581 19580 19589 1 120.0200517 532.790560
19580 19581 19582 1 121.3800518 83.010560
19580 19581 19583 1 120.0200517 532.790560
19582 19581 19583 1 121.3800518 83.010560
3776 19582 6735 1 109.50000 418.400000
3776 19582 10626 1 109.50000 418.400000
3776 19582 19581 1 103.70004 836.800000
6735 19582 10626 1 109.50000 418.400000
6735 19582 19581 1 103.70004 836.800000
10626 19582 19581 1 103.70004 836.800000
19581 19583 19584 1 119.8800511 375.723200
19581 19583 19585 1 120.0200517 532.790560
19584 19583 19585 1 119.8800511 375.723200
19583 19585 19586 1 119.8800511 375.723200
19583 19585 19587 1 120.0200517 532.790560
19586 19585 19587 1 119.8800511 375.723200
19585 19587 19588 1 119.8800511 375.723200
19585 19587 19589 1 120.0200517 532.790560
19588 19587 19589 1 119.8800511 375.723200
19580 19589 19587 1 120.0200517 532.790560
19580 19589 19590 1 119.8800511 375.723200
19587 19589 19590 1 119.8800511 375.723200
19591 19592 19593 1 119.8800511 375.723200
19591 19592 19601 1 119.8800511 375.723200
19593 19592 19601 1 120.0200517 532.790560
19592 19593 19594 1 121.3800518 83.010560
19592 19593 19595 1 120.0200517 532.790560
19594 19593 19595 1 121.3800518 83.010560
1829 19594 1830 1 109.50000 418.400000
1829 19594 1831 1 109.50000 418.400000
1829 19594 19593 1 103.70004 836.800000
1830 19594 1831 1 109.50000 418.400000
1830 19594 19593 1 103.70004 836.800000
1831 19594 19593 1 103.70004 836.800000
19593 19595 19596 1 119.8800511 375.723200
19593 19595 19597 1 120.0200517 532.790560
19596 19595 19597 1 119.8800511 375.723200
19595 19597 19598 1 119.8800511 375.723200
19595 19597 19599 1 120.0200517 532.790560
19598 19597 19599 1 119.8800511 375.723200
19597 19599 19600 1 119.8800511 375.723200
19597 19599 19601 1 120.0200517 532.790560
19600 19599 19601 1 119.8800511 375.723200
19592 19601 19599 1 120.0200517 532.790560
19592 19601 19602 1 119.8800511 375.723200
19599 19601 19602 1 119.8800511 375.723200
19603 19604 19605 1 119.8800511 375.723200
19603 19604 19613 1 119.8800511 375.723200
19605 19604 19613 1 120.0200517 532.790560
19604 19605 19606 1 121.3800518 83.010560
19604 19605 19607 1 120.0200517 532.790560
19606 19605 19607 1 121.3800518 83.010560
2100 19606 5001 1 109.50000 418.400000
2100 19606 11219 1 109.50000 418.400000
2100 19606 19605 1 103.70004 836.800000
5001 19606 11219 1 109.50000 418.400000
5001 19606 19605 1 103.70004 836.800000
11219 19606 19605 1 103.70004 836.800000
19605 19607 19608 1 119.8800511 375.723200
19605 19607 19609 1 120.0200517 532.790560
19608 19607 19609 1 119.8800511 375.723200
19607 19609 19610 1 119.8800511 375.723200
19607 19609 19611 1 120.0200517 532.790560
19610 19609 19611 1 119.8800511 375.723200
19609 19611 19612 1 119.8800511 375.723200
19609 19611 19613 1 120.0200517 532.790560
19612 19611 19613 1 119.8800511 375.723200
19604 19613 19611 1 120.0200517 532.790560
19604 19613 19614 1 119.8800511 375.723200
19611 19613 19614 1 119.8800511 375.723200
19615 19616 19617 1 119.8800511 375.723200
19615 19616 19625 1 119.8800511 375.723200
19617 19616 19625 1 120.0200517 532.790560
19616 19617 19618 1 121.3800518 83.010560
19616 19617 19619 1 120.0200517 532.790560
19618 19617 19619 1 121.3800518 83.010560
4494 19618 8043 1 109.50000 418.400000
4494 19618 8044 1 109.50000 418.400000
4494 19618 19617 1 103.70004 836.800000
8043 19618 8044 1 109.50000 418.400000
8043 19618 19617 1 103.70004 836.800000
8044 19618 19617 1 103.70004 836.800000
19617 19619 19620 1 119.8800511 375.723200
19617 19619 19621 1 120.0200517 532.790560
19620 19619 19621 1 119.8800511 375.723200
19619 19621 19622 1 119.8800511 375.723200
19619 19621 19623 1 120.0200517 532.790560
19622 19621 19623 1 119.8800511 375.723200
19621 19623 19624 1 119.8800511 375.723200
19621 19623 19625 1 120.0200517 532.790560
19624 19623 19625 1 119.8800511 375.723200
19616 19625 19623 1 120.0200517 532.790560
19616 19625 19626 1 119.8800511 375.723200
19623 19625 19626 1 119.8800511 375.723200
19627 19628 19629 1 119.8800511 375.723200
19627 19628 19637 1 119.8800511 375.723200
19629 19628 19637 1 120.0200517 532.790560
19628 19629 19630 1 121.3800518 83.010560
19628 19629 19631 1 120.0200517 532.790560
19630 19629 19631 1 121.3800518 83.010560
4018 19630 4082 1 109.50000 418.400000
4018 19630 10560 1 109.50000 418.400000
4018 19630 19629 1 103.70004 836.800000
4082 19630 10560 1 109.50000 418.400000
4082 19630 19629 1 103.70004 836.800000
10560 19630 19629 1 103.70004 836.800000
19629 19631 19632 1 119.8800511 375.723200
19629 19631 19633 1 120.0200517 532.790560
19632 19631 19633 1 119.8800511 375.723200
19631 19633 19634 1 119.8800511 375.723200
19631 19633 19635 1 120.0200517 532.790560
19634 19633 19635 1 119.8800511 375.723200
19633 19635 19636 1 119.8800511 375.723200
19633 19635 19637 1 120.0200517 532.790560
19636 19635 19637 1 119.8800511 375.723200
19628 19637 19635 1 120.0200517 532.790560
19628 19637 19638 1 119.8800511 375.723200
19635 19637 19638 1 119.8800511 375.723200
19639 19640 19641 1 119.8800511 375.723200
19639 19640 19649 1 119.8800511 375.723200
19641 19640 19649 1 120.0200517 532.790560
19640 19641 19642 1 121.3800518 83.010560
19640 19641 19643 1 120.0200517 532.790560
19642 19641 19643 1 121.3800518 83.010560
441 19642 7427 1 109.50000 418.400000
441 19642 11185 1 109.50000 418.400000
441 19642 19641 1 103.70004 836.800000
7427 19642 11185 1 109.50000 418.400000
7427 19642 19641 1 103.70004 836.800000
11185 19642 19641 1 103.70004 836.800000
19641 19643 19644 1 119.8800511 375.723200
19641 19643 19645 1 120.0200517 532.790560
19644 19643 19645 1 119.8800511 375.723200
19643 19645 19646 1 119.8800511 375.723200
19643 19645 19647 1 120.0200517 532.790560
19646 19645 19647 1 119.8800511 375.723200
19645 19647 19648 1 119.8800511 375.723200
19645 19647 19649 1 120.0200517 532.790560
19648 19647 19649 1 119.8800511 375.723200
19640 19649 19647 1 120.0200517 532.790560
19640 19649 19650 1 119.8800511 375.723200
19647 19649 19650 1 119.8800511 375.723200
19651 19652 19653 1 119.8800511 375.723200
19651 19652 19661 1 119.8800511 375.723200
19653 19652 19661 1 120.0200517 532.790560
19652 19653 19654 1 121.3800518 83.010560
19652 19653 19655 1 120.0200517 532.790560
19654 19653 19655 1 121.3800518 83.010560
1984 19654 3195 1 109.50000 418.400000
1984 19654 10747 1 109.50000 418.400000
1984 19654 19653 1 103.70004 836.800000
3195 19654 10747 1 109.50000 418.400000
3195 19654 19653 1 103.70004 836.800000
10747 19654 19653 1 103.70004 836.800000
19653 19655 19656 1 119.8800511 375.723200
19653 19655 19657 1 120.0200517 532.790560
19656 19655 19657 1 119.8800511 375.723200
19655 19657 19658 1 119.8800511 375.723200
19655 19657 19659 1 120.0200517 532.790560
19658 19657 19659 1 119.8800511 375.723200
19657 19659 19660 1 119.8800511 375.723200
19657 19659 19661 1 120.0200517 532.790560
19660 19659 19661 1 119.8800511 375.723200
19652 19661 19659 1 120.0200517 532.790560
19652 19661 19662 1 119.8800511 375.723200
19659 19661 19662 1 119.8800511 375.723200
19663 19664 19665 1 119.8800511 375.723200
19663 19664 19673 1 119.8800511 375.723200
19665 19664 19673 1 120.0200517 532.790560
19664 19665 19666 1 121.3800518 83.010560
19664 19665 19667 1 120.0200517 532.790560
19666 19665 19667 1 121.3800518 83.010560
5473 19666 9104 1 109.50000 418.400000
5473 19666 9471 1 109.50000 418.400000
5473 19666 19665 1 103.70004 836.800000
9104 19666 9471 1 109.50000 418.400000
9104 19666 19665 1 103.70004 836.800000
9471 19666 19665 1 103.70004 836.800000
19665 19667 19668 1 119.8800511 375.723200
19665 19667 19669 1 120.0200517 532.790560
19668 19667 19669 1 119.8800511 375.723200
19667 19669 19670 1 119.8800511 375.723200
19667 19669 19671 1 120.0200517 532.790560
19670 19669 19671 1 119.8800511 375.723200
19669 19671 19672 1 119.8800511 375.723200
19669 19671 19673 1 120.0200517 532.790560
19672 19671 19673 1 119.8800511 375.723200
19664 19673 19671 1 120.0200517 532.790560
19664 19673 19674 1 119.8800511 375.723200
19671 19673 19674 1 119.8800511 375.723200
19675 19676 19677 1 119.8800511 375.723200
19675 19676 19685 1 119.8800511 375.723200
19677 19676 19685 1 120.0200517 532.790560
19676 19677 19678 1 121.3800518 83.010560
19676 19677 19679 1 120.0200517 532.790560
19678 19677 19679 1 121.3800518 83.010560
5671 19678 7291 1 109.50000 418.400000
5671 19678 10536 1 109.50000 418.400000
5671 19678 19677 1 103.70004 836.800000
7291 19678 10536 1 109.50000 418.400000
7291 19678 19677 1 103.70004 836.800000
10536 19678 19677 1 103.70004 836.800000
19677 19679 19680 1 119.8800511 375.723200
19677 19679 19681 1 120.0200517 532.790560
19680 19679 19681 1 119.8800511 375.723200
19679 19681 19682 1 119.8800511 375.723200
19679 19681 19683 1 120.0200517 532.790560
19682 19681 19683 1 119.8800511 375.723200
19681 19683 19684 1 119.8800511 375.723200
19681 19683 19685 1 120.0200517 532.790560
19684 19683 19685 1 119.8800511 375.723200
19676 19685 19683 1 120.0200517 532.790560
19676 19685 19686 1 119.8800511 375.723200
19683 19685 19686 1 119.8800511 375.723200
19687 19688 19689 1 119.8800511 375.723200
19687 19688 19697 1 119.8800511 375.723200
19689 19688 19697 1 120.0200517 532.790560
19688 19689 19690 1 121.3800518 83.010560
19688 19689 19691 1 120.0200517 532.790560
19690 19689 19691 1 121.3800518 83.010560
8298 19690 10570 1 109.50000 418.400000
8298 19690 10926 1 109.50000 418.400000
8298 19690 19689 1 103.70004 836.800000
10570 19690 10926 1 109.50000 418.400000
10570 19690 19689 1 103.70004 836.800000
10926 19690 19689 1 103.70004 836.800000
19689 19691 19692 1 119.8800511 375.723200
19689 19691 19693 1 120.0200517 532.790560
19692 19691 19693 1 119.8800511 375.723200
19691 19693 19694 1 119.8800511 375.723200
19691 19693 19695 1 120.0200517 532.790560
19694 19693 19695 1 119.8800511 375.723200
19693 19695 19696 1 119.8800511 375.723200
19693 19695 19697 1 120.0200517 532.790560
19696 19695 19697 1 119.8800511 375.723200
19688 19697 19695 1 120.0200517 532.790560
19688 19697 19698 1 119.8800511 375.723200
19695 19697 19698 1 119.8800511 375.723200
19699 19700 19701 1 119.8800511 375.723200
19699 19700 19709 1 119.8800511 375.723200
19701 19700 19709 1 120.0200517 532.790560
19700 19701 19702 1 121.3800518 83.010560
19700 19701 19703 1 120.0200517 532.790560
19702 19701 19703 1 121.3800518 83.010560
458 19702 3771 1 109.50000 418.400000
458 19702 3772 1 109.50000 418.400000
458 19702 19701 1 103.70004 836.800000
3771 19702 3772 1 109.50000 418.400000
3771 19702 19701 1 103.70004 836.800000
3772 19702 19701 1 103.70004 836.800000
19701 19703 19704 1 119.8800511 375.723200
19701 19703 19705 1 120.0200517 532.790560
19704 19703 19705 1 119.8800511 375.723200
19703 19705 19706 1 119.8800511 375.723200
19703 19705 19707 1 120.0200517 532.790560
19706 19705 19707 1 119.8800511 375.723200
19705 19707 19708 1 119.8800511 375.723200
19705 19707 19709 1 120.0200517 532.790560
19708 19707 19709 1 119.8800511 375.723200
19700 19709 19707 1 120.0200517 532.790560
19700 19709 19710 1 119.8800511 375.723200
19707 19709 19710 1 119.8800511 375.723200
19711 19712 19713 1 119.8800511 375.723200
19711 19712 19721 1 119.8800511 375.723200
19713 19712 19721 1 120.0200517 532.790560
19712 19713 19714 1 121.3800518 83.010560
19712 19713 19715 1 120.0200517 532.790560
19714 19713 19715 1 121.3800518 83.010560
4586 19714 4587 1 109.50000 418.400000
4586 19714 4588 1 109.50000 418.400000
4586 19714 19713 1 103.70004 836.800000
4587 19714 4588 1 109.50000 418.400000
4587 19714 19713 1 103.70004 836.800000
4588 19714 19713 1 103.70004 836.800000
19713 19715 19716 1 119.8800511 375.723200
19713 19715 19717 1 120.0200517 532.790560
19716 19715 19717 1 119.8800511 375.723200
19715 19717 19718 1 119.8800511 375.723200
19715 19717 19719 1 120.0200517 532.790560
19718 19717 19719 1 119.8800511 375.723200
19717 19719 19720 1 119.8800511 375.723200
19717 19719 19721 1 120.0200517 532.790560
19720 19719 19721 1 119.8800511 375.723200
19712 19721 19719 1 120.0200517 532.790560
19712 19721 19722 1 119.8800511 375.723200
19719 19721 19722 1 119.8800511 375.723200
19723 19724 19725 1 119.8800511 375.723200
19723 19724 19733 1 119.8800511 375.723200
19725 19724 19733 1 120.0200517 532.790560
19724 19725 19726 1 121.3800518 83.010560
19724 19725 19727 1 120.0200517 532.790560
19726 19725 19727 1 121.3800518 83.010560
3537 19726 9859 1 109.50000 418.400000
3537 19726 11258 1 109.50000 418.400000
3537 19726 19725 1 103.70004 836.800000
9859 19726 11258 1 109.50000 418.400000
9859 19726 19725 1 103.70004 836.800000
11258 19726 19725 1 103.70004 836.800000
19725 19727 19728 1 119.8800511 375.723200
19725 19727 19729 1 120.0200517 532.790560
19728 19727 19729 1 119.8800511 375.723200
19727 19729 19730 1 119.8800511 375.723200
19727 19729 19731 1 120.0200517 532.790560
19730 19729 19731 1 119.8800511 375.723200
19729 19731 19732 1 119.8800511 375.723200
19729 19731 19733 1 120.0200517 532.790560
19732 19731 19733 1 119.8800511 375.723200
19724 19733 19731 1 120.0200517 532.790560
19724 19733 19734 1 119.8800511 375.723200
19731 19733 19734 1 119.8800511 375.723200
19735 19736 19737 1 119.8800511 375.723200
19735 19736 19745 1 119.8800511 375.723200
19737 19736 19745 1 120.0200517 532.790560
19736 19737 19738 1 121.3800518 83.010560
19736 19737 19739 1 120.0200517 532.790560
19738 19737 19739 1 121.3800518 83.010560
3527 19738 5392 1 109.50000 418.400000
3527 19738 6928 1 109.50000 418.400000
3527 19738 19737 1 103.70004 836.800000
5392 19738 6928 1 109.50000 418.400000
5392 19738 19737 1 103.70004 836.800000
6928 19738 19737 1 103.70004 836.800000
19737 19739 19740 1 119.8800511 375.723200
19737 19739 19741 1 120.0200517 532.790560
19740 19739 19741 1 119.8800511 375.723200
19739 19741 19742 1 119.8800511 375.723200
19739 19741 19743 1 120.0200517 532.790560
19742 19741 19743 1 119.8800511 375.723200
19741 19743 19744 1 119.8800511 375.723200
19741 19743 19745 1 120.0200517 532.790560
19744 19743 19745 1 119.8800511 375.723200
19736 19745 19743 1 120.0200517 532.790560
19736 19745 19746 1 119.8800511 375.723200
19743 19745 19746 1 119.8800511 375.723200
19747 19748 19749 1 119.8800511 375.723200
19747 19748 19757 1 119.8800511 375.723200
19749 19748 19757 1 120.0200517 532.790560
19748 19749 19750 1 121.3800518 83.010560
19748 19749 19751 1 120.0200517 532.790560
19750 19749 19751 1 121.3800518 83.010560
4929 19750 10286 1 109.50000 418.400000
4929 19750 10500 1 109.50000 418.400000
4929 19750 19749 1 103.70004 836.800000
10286 19750 10500 1 109.50000 418.400000
10286 19750 19749 1 103.70004 836.800000
10500 19750 19749 1 103.70004 836.800000
19749 19751 19752 1 119.8800511 375.723200
19749 19751 19753 1 120.0200517 532.790560
19752 19751 19753 1 119.8800511 375.723200
19751 19753 19754 1 119.8800511 375.723200
19751 19753 19755 1 120.0200517 532.790560
19754 19753 19755 1 119.8800511 375.723200
19753 19755 19756 1 119.8800511 375.723200
19753 19755 19757 1 120.0200517 532.790560
19756 19755 19757 1 119.8800511 375.723200
19748 19757 19755 1 120.0200517 532.790560
19748 19757 19758 1 119.8800511 375.723200
19755 19757 19758 1 119.8800511 375.723200
19759 19760 19761 1 119.8800511 375.723200
19759 19760 19769 1 119.8800511 375.723200
19761 19760 19769 1 120.0200517 532.790560
19760 19761 19762 1 121.3800518 83.010560
19760 19761 19763 1 120.0200517 532.790560
19762 19761 19763 1 121.3800518 83.010560
3189 19762 6057 1 109.50000 418.400000
3189 19762 11251 1 109.50000 418.400000
3189 19762 19761 1 103.70004 836.800000
6057 19762 11251 1 109.50000 418.400000
6057 19762 19761 1 103.70004 836.800000
11251 19762 19761 1 103.70004 836.800000
19761 19763 19764 1 119.8800511 375.723200
19761 19763 19765 1 120.0200517 532.790560
19764 19763 19765 1 119.8800511 375.723200
19763 19765 19766 1 119.8800511 375.723200
19763 19765 19767 1 120.0200517 532.790560
19766 19765 19767 1 119.8800511 375.723200
19765 19767 19768 1 119.8800511 375.723200
19765 19767 19769 1 120.0200517 532.790560
19768 19767 19769 1 119.8800511 375.723200
19760 19769 19767 1 120.0200517 532.790560
19760 19769 19770 1 119.8800511 375.723200
19767 19769 19770 1 119.8800511 375.723200
19771 19772 19773 1 119.8800511 375.723200
19771 19772 19781 1 119.8800511 375.723200
19773 19772 19781 1 120.0200517 532.790560
19772 19773 19774 1 121.3800518 83.010560
19772 19773 19775 1 120.0200517 532.790560
19774 19773 19775 1 121.3800518 83.010560
3353 19774 10075 1 109.50000 418.400000
3353 19774 10974 1 109.50000 418.400000
3353 19774 19773 1 103.70004 836.800000
10075 19774 10974 1 109.50000 418.400000
10075 19774 19773 1 103.70004 836.800000
10974 19774 19773 1 103.70004 836.800000
19773 19775 19776 1 119.8800511 375.723200
19773 19775 19777 1 120.0200517 532.790560
19776 19775 19777 1 119.8800511 375.723200
19775 19777 19778 1 119.8800511 375.723200
19775 19777 19779 1 120.0200517 532.790560
19778 19777 19779 1 119.8800511 375.723200
19777 19779 19780 1 119.8800511 375.723200
19777 19779 19781 1 120.0200517 532.790560
19780 19779 19781 1 119.8800511 375.723200
19772 19781 19779 1 120.0200517 532.790560
19772 19781 19782 1 119.8800511 375.723200
19779 19781 19782 1 119.8800511 375.723200
19783 19784 19785 1 119.8800511 375.723200
19783 19784 19793 1 119.8800511 375.723200
19785 19784 19793 1 120.0200517 532.790560
19784 19785 19786 1 121.3800518 83.010560
19784 19785 19787 1 120.0200517 532.790560
19786 19785 19787 1 121.3800518 83.010560
8873 19786 8874 1 109.50000 418.400000
8873 19786 8875 1 109.50000 418.400000
8873 19786 19785 1 103.70004 836.800000
8874 19786 8875 1 109.50000 418.400000
8874 19786 19785 1 103.70004 836.800000
8875 19786 19785 1 103.70004 836.800000
19785 19787 19788 1 119.8800511 375.723200
19785 19787 19789 1 120.0200517 532.790560
19788 19787 19789 1 119.8800511 375.723200
19787 19789 19790 1 119.8800511 375.723200
19787 19789 19791 1 120.0200517 532.790560
19790 19789 19791 1 119.8800511 375.723200
19789 19791 19792 1 119.8800511 375.723200
19789 19791 19793 1 120.0200517 532.790560
19792 19791 19793 1 119.8800511 375.723200
19784 19793 19791 1 120.0200517 532.790560
19784 19793 19794 1 119.8800511 375.723200
19791 19793 19794 1 119.8800511 375.723200
19795 19796 19797 1 119.8800511 375.723200
19795 19796 19805 1 119.8800511 375.723200
19797 19796 19805 1 120.0200517 532.790560
19796 19797 19798 1 121.3800518 83.010560
19796 19797 19799 1 120.0200517 532.790560
19798 19797 19799 1 121.3800518 83.010560
6572 19798 6574 1 109.50000 418.400000
6572 19798 10081 1 109.50000 418.400000
6572 19798 19797 1 103.70004 836.800000
6574 19798 10081 1 109.50000 418.400000
6574 19798 19797 1 103.70004 836.800000
10081 19798 19797 1 103.70004 836.800000
19797 19799 19800 1 119.8800511 375.723200
19797 19799 19801 1 120.0200517 532.790560
19800 19799 19801 1 119.8800511 375.723200
19799 19801 19802 1 119.8800511 375.723200
19799 19801 19803 1 120.0200517 532.790560
19802 19801 19803 1 119.8800511 375.723200
19801 19803 19804 1 119.8800511 375.723200
19801 19803 19805 1 120.0200517 532.790560
19804 19803 19805 1 119.8800511 375.723200
19796 19805 19803 1 120.0200517 532.790560
19796 19805 19806 1 119.8800511 375.723200
19803 19805 19806 1 119.8800511 375.723200
19807 19808 19809 1 119.8800511 375.723200
19807 19808 19817 1 119.8800511 375.723200
19809 19808 19817 1 120.0200517 532.790560
19808 19809 19810 1 121.3800518 83.010560
19808 19809 19811 1 120.0200517 532.790560
19810 19809 19811 1 121.3800518 83.010560
10435 19810 10436 1 109.50000 418.400000
10435 19810 10836 1 109.50000 418.400000
10435 19810 19809 1 103.70004 836.800000
10436 19810 10836 1 109.50000 418.400000
10436 19810 19809 1 103.70004 836.800000
10836 19810 19809 1 103.70004 836.800000
19809 19811 19812 1 119.8800511 375.723200
19809 19811 19813 1 120.0200517 532.790560
19812 19811 19813 1 119.8800511 375.723200
19811 19813 19814 1 119.8800511 375.723200
19811 19813 19815 1 120.0200517 532.790560
19814 19813 19815 1 119.8800511 375.723200
19813 19815 19816 1 119.8800511 375.723200
19813 19815 19817 1 120.0200517 532.790560
19816 19815 19817 1 119.8800511 375.723200
19808 19817 19815 1 120.0200517 532.790560
19808 19817 19818 1 119.8800511 375.723200
19815 19817 19818 1 119.8800511 375.723200
19819 19820 19821 1 119.8800511 375.723200
19819 19820 19829 1 119.8800511 375.723200
19821 19820 19829 1 120.0200517 532.790560
19820 19821 19822 1 121.3800518 83.010560
19820 19821 19823 1 120.0200517 532.790560
19822 19821 19823 1 121.3800518 83.010560
2042 19822 7343 1 109.50000 418.400000
2042 19822 10425 1 109.50000 418.400000
2042 19822 19821 1 103.70004 836.800000
7343 19822 10425 1 109.50000 418.400000
7343 19822 19821 1 103.70004 836.800000
10425 19822 19821 1 103.70004 836.800000
19821 19823 19824 1 119.8800511 375.723200
19821 19823 19825 1 120.0200517 532.790560
19824 19823 19825 1 119.8800511 375.723200
19823 19825 19826 1 119.8800511 375.723200
19823 19825 19827 1 120.0200517 532.790560
19826 19825 19827 1 119.8800511 375.723200
19825 19827 19828 1 119.8800511 375.723200
19825 19827 19829 1 120.0200517 532.790560
19828 19827 19829 1 119.8800511 375.723200
19820 19829 19827 1 120.0200517 532.790560
19820 19829 19830 1 119.8800511 375.723200
19827 19829 19830 1 119.8800511 375.723200
19831 19832 19833 1 119.8800511 375.723200
19831 19832 19841 1 119.8800511 375.723200
19833 19832 19841 1 120.0200517 532.790560
19832 19833 19834 1 121.3800518 83.010560
19832 19833 19835 1 120.0200517 532.790560
19834 19833 19835 1 121.3800518 83.010560
7661 19834 7662 1 109.50000 418.400000
7661 19834 11267 1 109.50000 418.400000
7661 19834 19833 1 103.70004 836.800000
7662 19834 11267 1 109.50000 418.400000
7662 19834 19833 1 103.70004 836.800000
11267 19834 19833 1 103.70004 836.800000
19833 19835 19836 1 119.8800511 375.723200
19833 19835 19837 1 120.0200517 532.790560
19836 19835 19837 1 119.8800511 375.723200
19835 19837 19838 1 119.8800511 375.723200
19835 19837 19839 1 120.0200517 532.790560
19838 19837 19839 1 119.8800511 375.723200
19837 19839 19840 1 119.8800511 375.723200
19837 19839 19841 1 120.0200517 532.790560
19840 19839 19841 1 119.8800511 375.723200
19832 19841 19839 1 120.0200517 532.790560
19832 19841 19842 1 119.8800511 375.723200
19839 19841 19842 1 119.8800511 375.723200
19843 19844 19845 1 119.8800511 375.723200
19843 19844 19853 1 119.8800511 375.723200
19845 19844 19853 1 120.0200517 532.790560
19844 19845 19846 1 121.3800518 83.010560
19844 19845 19847 1 120.0200517 532.790560
19846 19845 19847 1 121.3800518 83.010560
2952 19846 6931 1 109.50000 418.400000
2952 19846 6932 1 109.50000 418.400000
2952 19846 19845 1 103.70004 836.800000
6931 19846 6932 1 109.50000 418.400000
6931 19846 19845 1 103.70004 836.800000
6932 19846 19845 1 103.70004 836.800000
19845 19847 19848 1 119.8800511 375.723200
19845 19847 19849 1 120.0200517 532.790560
19848 19847 19849 1 119.8800511 375.723200
19847 19849 19850 1 119.8800511 375.723200
19847 19849 19851 1 120.0200517 532.790560
19850 19849 19851 1 119.8800511 375.723200
19849 19851 19852 1 119.8800511 375.723200
19849 19851 19853 1 120.0200517 532.790560
19852 19851 19853 1 119.8800511 375.723200
19844 19853 19851 1 120.0200517 532.790560
19844 19853 19854 1 119.8800511 375.723200
19851 19853 19854 1 119.8800511 375.723200
19855 19856 19857 1 119.8800511 375.723200
19855 19856 19865 1 119.8800511 375.723200
19857 19856 19865 1 120.0200517 532.790560
19856 19857 19858 1 121.3800518 83.010560
19856 19857 19859 1 120.0200517 532.790560
19858 19857 19859 1 121.3800518 83.010560
3385 19858 3386 1 109.50000 418.400000
3385 19858 3387 1 109.50000 418.400000
3385 19858 19857 1 103.70004 836.800000
3386 19858 3387 1 109.50000 418.400000
3386 19858 19857 1 103.70004 836.800000
3387 19858 19857 1 103.70004 836.800000
19857 19859 19860 1 119.8800511 375.723200
19857 19859 19861 1 120.0200517 532.790560
19860 19859 19861 1 119.8800511 375.723200
19859 19861 19862 1 119.8800511 375.723200
19859 19861 19863 1 120.0200517 532.790560
19862 19861 19863 1 119.8800511 375.723200
19861 19863 19864 1 119.8800511 375.723200
19861 19863 19865 1 120.0200517 532.790560
19864 19863 19865 1 119.8800511 375.723200
19856 19865 19863 1 120.0200517 532.790560
19856 19865 19866 1 119.8800511 375.723200
19863 19865 19866 1 119.8800511 375.723200
19867 19868 19869 1 119.8800511 375.723200
19867 19868 19877 1 119.8800511 375.723200
19869 19868 19877 1 120.0200517 532.790560
19868 19869 19870 1 121.3800518 83.010560
19868 19869 19871 1 120.0200517 532.790560
19870 19869 19871 1 121.3800518 83.010560
4900 19870 4901 1 109.50000 418.400000
4900 19870 8815 1 109.50000 418.400000
4900 19870 19869 1 103.70004 836.800000
4901 19870 8815 1 109.50000 418.400000
4901 19870 19869 1 103.70004 836.800000
8815 19870 19869 1 103.70004 836.800000
19869 19871 19872 1 119.8800511 375.723200
19869 19871 19873 1 120.0200517 532.790560
19872 19871 19873 1 119.8800511 375.723200
19871 19873 19874 1 119.8800511 375.723200
19871 19873 19875 1 120.0200517 532.790560
19874 19873 19875 1 119.8800511 375.723200
19873 19875 19876 1 119.8800511 375.723200
19873 19875 19877 1 120.0200517 532.790560
19876 19875 19877 1 119.8800511 375.723200
19868 19877 19875 1 120.0200517 532.790560
19868 19877 19878 1 119.8800511 375.723200
19875 19877 19878 1 119.8800511 375.723200
19879 19880 19881 1 119.8800511 375.723200
19879 19880 19889 1 119.8800511 375.723200
19881 19880 19889 1 120.0200517 532.790560
19880 19881 19882 1 121.3800518 83.010560
19880 19881 19883 1 120.0200517 532.790560
19882 19881 19883 1 121.3800518 83.010560
837 19882 838 1 109.50000 418.400000
837 19882 839 1 109.50000 418.400000
837 19882 19881 1 103.70004 836.800000
838 19882 839 1 109.50000 418.400000
838 19882 19881 1 103.70004 836.800000
839 19882 19881 1 103.70004 836.800000
19881 19883 19884 1 119.8800511 375.723200
19881 19883 19885 1 120.0200517 532.790560
19884 19883 19885 1 119.8800511 375.723200
19883 19885 19886 1 119.8800511 375.723200
19883 19885 19887 1 120.0200517 532.790560
19886 19885 19887 1 119.8800511 375.723200
19885 19887 19888 1 119.8800511 375.723200
19885 19887 19889 1 120.0200517 532.790560
19888 19887 19889 1 119.8800511 375.723200
19880 19889 19887 1 120.0200517 532.790560
19880 19889 19890 1 119.8800511 375.723200
19887 19889 19890 1 119.8800511 375.723200
19891 19892 19893 1 119.8800511 375.723200
19891 19892 19901 1 119.8800511 375.723200
19893 19892 19901 1 120.0200517 532.790560
19892 19893 19894 1 121.3800518 83.010560
19892 19893 19895 1 120.0200517 532.790560
19894 19893 19895 1 121.3800518 83.010560
978 19894 979 1 109.50000 418.400000
978 19894 980 1 109.50000 418.400000
978 19894 19893 1 103.70004 836.800000
979 19894 980 1 109.50000 418.400000
979 19894 19893 1 103.70004 836.800000
980 19894 19893 1 103.70004 836.800000
19893 19895 19896 1 119.8800511 375.723200
19893 19895 19897 1 120.0200517 532.790560
19896 19895 19897 1 119.8800511 375.723200
19895 19897 19898 1 119.8800511 375.723200
19895 19897 19899 1 120.0200517 532.790560
19898 19897 19899 1 119.8800511 375.723200
19897 19899 19900 1 119.8800511 375.723200
19897 19899 19901 1 120.0200517 532.790560
19900 19899 19901 1 119.8800511 375.723200
19892 19901 19899 1 120.0200517 532.790560
19892 19901 19902 1 119.8800511 375.723200
19899 19901 19902 1 119.8800511 375.723200
19903 19904 19905 1 119.8800511 375.723200
19903 19904 19913 1 119.8800511 375.723200
19905 19904 19913 1 120.0200517 532.790560
19904 19905 19906 1 121.3800518 83.010560
19904 19905 19907 1 120.0200517 532.790560
19906 19905 19907 1 121.3800518 83.010560
1034 19906 4378 1 109.50000 418.400000
1034 19906 11236 1 109.50000 418.400000
1034 19906 19905 1 103.70004 836.800000
4378 19906 11236 1 109.50000 418.400000
4378 19906 19905 1 103.70004 836.800000
11236 19906 19905 1 103.70004 836.800000
19905 19907 19908 1 119.8800511 375.723200
19905 19907 19909 1 120.0200517 532.790560
19908 19907 19909 1 119.8800511 375.723200
19907 19909 19910 1 119.8800511 375.723200
19907 19909 19911 1 120.0200517 532.790560
19910 19909 19911 1 119.8800511 375.723200
19909 19911 19912 1 119.8800511 375.723200
19909 19911 19913 1 120.0200517 532.790560
19912 19911 19913 1 119.8800511 375.723200
19904 19913 19911 1 120.0200517 532.790560
19904 19913 19914 1 119.8800511 375.723200
19911 19913 19914 1 119.8800511 375.723200
19915 19916 19917 1 119.8800511 375.723200
19915 19916 19925 1 119.8800511 375.723200
19917 19916 19925 1 120.0200517 532.790560
19916 19917 19918 1 121.3800518 83.010560
19916 19917 19919 1 120.0200517 532.790560
19918 19917 19919 1 121.3800518 83.010560
2036 19918 9578 1 109.50000 418.400000
2036 19918 10004 1 109.50000 418.400000
2036 19918 19917 1 103.70004 836.800000
9578 19918 10004 1 109.50000 418.400000
9578 19918 19917 1 103.70004 836.800000
10004 19918 19917 1 103.70004 836.800000
19917 19919 19920 1 119.8800511 375.723200
19917 19919 19921 1 120.0200517 532.790560
19920 19919 19921 1 119.8800511 375.723200
19919 19921 19922 1 119.8800511 375.723200
19919 19921 19923 1 120.0200517 532.790560
19922 19921 19923 1 119.8800511 375.723200
19921 19923 19924 1 119.8800511 375.723200
19921 19923 19925 1 120.0200517 532.790560
19924 19923 19925 1 119.8800511 375.723200
19916 19925 19923 1 120.0200517 532.790560
19916 19925 19926 1 119.8800511 375.723200
19923 19925 19926 1 119.8800511 375.723200
19927 19928 19929 1 119.8800511 375.723200
19927 19928 19937 1 119.8800511 375.723200
19929 19928 19937 1 120.0200517 532.790560
19928 19929 19930 1 121.3800518 83.010560
19928 19929 19931 1 120.0200517 532.790560
19930 19929 19931 1 121.3800518 83.010560
8275 19930 10439 1 109.50000 418.400000
8275 19930 10911 1 109.50000 418.400000
8275 19930 19929 1 103.70004 836.800000
10439 19930 10911 1 109.50000 418.400000
10439 19930 19929 1 103.70004 836.800000
10911 19930 19929 1 103.70004 836.800000
19929 19931 19932 1 119.8800511 375.723200
19929 19931 19933 1 120.0200517 532.790560
19932 19931 19933 1 119.8800511 375.723200
19931 19933 19934 1 119.8800511 375.723200
19931 19933 19935 1 120.0200517 532.790560
19934 19933 19935 1 119.8800511 375.723200
19933 19935 19936 1 119.8800511 375.723200
19933 19935 19937 1 120.0200517 532.790560
19936 19935 19937 1 119.8800511 375.723200
19928 19937 19935 1 120.0200517 532.790560
19928 19937 19938 1 119.8800511 375.723200
19935 19937 19938 1 119.8800511 375.723200
19939 19940 19941 1 119.8800511 375.723200
19939 19940 19949 1 119.8800511 375.723200
19941 19940 19949 1 120.0200517 532.790560
19940 19941 19942 1 121.3800518 83.010560
19940 19941 19943 1 120.0200517 532.790560
19942 19941 19943 1 121.3800518 83.010560
369 19942 8212 1 109.50000 418.400000
369 19942 9394 1 109.50000 418.400000
369 19942 19941 1 103.70004 836.800000
8212 19942 9394 1 109.50000 418.400000
8212 19942 19941 1 103.70004 836.800000
9394 19942 19941 1 103.70004 836.800000
19941 19943 19944 1 119.8800511 375.723200
19941 19943 19945 1 120.0200517 532.790560
19944 19943 19945 1 119.8800511 375.723200
19943 19945 19946 1 119.8800511 375.723200
19943 19945 19947 1 120.0200517 532.790560
19946 19945 19947 1 119.8800511 375.723200
19945 19947 19948 1 119.8800511 375.723200
19945 19947 19949 1 120.0200517 532.790560
19948 19947 19949 1 119.8800511 375.723200
19940 19949 19947 1 120.0200517 532.790560
19940 19949 19950 1 119.8800511 375.723200
19947 19949 19950 1 119.8800511 375.723200
19951 19952 19953 1 119.8800511 375.723200
19951 19952 19961 1 119.8800511 375.723200
19953 19952 19961 1 120.0200517 532.790560
19952 19953 19954 1 121.3800518 83.010560
19952 19953 19955 1 120.0200517 532.790560
19954 19953 19955 1 121.3800518 83.010560
1864 19954 1987 1 109.50000 418.400000
1864 19954 11164 1 109.50000 418.400000
1864 19954 19953 1 103.70004 836.800000
1987 19954 11164 1 109.50000 418.400000
1987 19954 19953 1 103.70004 836.800000
11164 19954 19953 1 103.70004 836.800000
19953 19955 19956 1 119.8800511 375.723200
19953 19955 19957 1 120.0200517 532.790560
19956 19955 19957 1 119.8800511 375.723200
19955 19957 19958 1 119.8800511 375.723200
19955 19957 19959 1 120.0200517 532.790560
19958 19957 19959 1 119.8800511 375.723200
19957 19959 19960 1 119.8800511 375.723200
19957 19959 19961 1 120.0200517 532.790560
19960 19959 19961 1 119.8800511 375.723200
19952 19961 19959 1 120.0200517 532.790560
19952 19961 19962 1 119.8800511 375.723200
19959 19961 19962 1 119.8800511 375.723200
19963 19964 19965 1 119.8800511 375.723200
19963 19964 19973 1 119.8800511 375.723200
19965 19964 19973 1 120.0200517 532.790560
19964 19965 19966 1 121.3800518 83.010560
19964 19965 19967 1 120.0200517 532.790560
19966 19965 19967 1 121.3800518 83.010560
6219 19966 10329 1 109.50000 418.400000
6219 19966 11263 1 109.50000 418.400000
6219 19966 19965 1 103.70004 836.800000
10329 19966 11263 1 109.50000 418.400000
10329 19966 19965 1 103.70004 836.800000
11263 19966 19965 1 103.70004 836.800000
19965 19967 19968 1 119.8800511 375.723200
19965 19967 19969 1 120.0200517 532.790560
19968 19967 19969 1 119.8800511 375.723200
19967 19969 19970 1 119.8800511 375.723200
19967 19969 19971 1 120.0200517 532.790560
19970 19969 19971 1 119.8800511 375.723200
19969 19971 19972 1 119.8800511 375.723200
19969 19971 19973 1 120.0200517 532.790560
19972 19971 19973 1 119.8800511 375.723200
19964 19973 19971 1 120.0200517 532.790560
19964 19973 19974 1 119.8800511 375.723200
19971 19973 19974 1 119.8800511 375.723200
19975 19976 19977 1 119.8800511 375.723200
19975 19976 19985 1 119.8800511 375.723200
19977 19976 19985 1 120.0200517 532.790560
19976 19977 19978 1 121.3800518 83.010560
19976 19977 19979 1 120.0200517 532.790560
19978 19977 19979 1 121.3800518 83.010560
4553 19978 4556 1 109.50000 418.400000
4553 19978 9672 1 109.50000 418.400000
4553 19978 19977 1 103.70004 836.800000
4556 19978 9672 1 109.50000 418.400000
4556 19978 19977 1 103.70004 836.800000
9672 19978 19977 1 103.70004 836.800000
19977 19979 19980 1 119.8800511 375.723200
19977 19979 19981 1 120.0200517 532.790560
19980 19979 19981 1 119.8800511 375.723200
19979 19981 19982 1 119.8800511 375.723200
19979 19981 19983 1 120.0200517 532.790560
19982 19981 19983 1 119.8800511 375.723200
19981 19983 19984 1 119.8800511 375.723200
19981 19983 19985 1 120.0200517 532.790560
19984 19983 19985 1 119.8800511 375.723200
19976 19985 19983 1 120.0200517 532.790560
19976 19985 19986 1 119.8800511 375.723200
19983 19985 19986 1 119.8800511 375.723200
19987 19988 19989 1 119.8800511 375.723200
19987 19988 19997 1 119.8800511 375.723200
19989 19988 19997 1 120.0200517 532.790560
19988 19989 19990 1 121.3800518 83.010560
19988 19989 19991 1 120.0200517 532.790560
19990 19989 19991 1 121.3800518 83.010560
5427 19990 8058 1 109.50000 418.400000
5427 19990 9727 1 109.50000 418.400000
5427 19990 19989 1 103.70004 836.800000
8058 19990 9727 1 109.50000 418.400000
8058 19990 19989 1 103.70004 836.800000
9727 19990 19989 1 103.70004 836.800000
19989 19991 19992 1 119.8800511 375.723200
19989 19991 19993 1 120.0200517 532.790560
19992 19991 19993 1 119.8800511 375.723200
19991 19993 19994 1 119.8800511 375.723200
19991 19993 19995 1 120.0200517 532.790560
19994 19993 19995 1 119.8800511 375.723200
19993 19995 19996 1 119.8800511 375.723200
19993 19995 19997 1 120.0200517 532.790560
19996 19995 19997 1 119.8800511 375.723200
19988 19997 19995 1 120.0200517 532.790560
19988 19997 19998 1 119.8800511 375.723200
19995 19997 19998 1 119.8800511 375.723200
19999 20000 20001 1 119.8800511 375.723200
19999 20000 20009 1 119.8800511 375.723200
20001 20000 20009 1 120.0200517 532.790560
20000 20001 20002 1 121.3800518 83.010560
20000 20001 20003 1 120.0200517 532.790560
20002 20001 20003 1 121.3800518 83.010560
2200 20002 2201 1 109.50000 418.400000
2200 20002 11296 1 109.50000 418.400000
2200 20002 20001 1 103.70004 836.800000
2201 20002 11296 1 109.50000 418.400000
2201 20002 20001 1 103.70004 836.800000
11296 20002 20001 1 103.70004 836.800000
20001 20003 20004 1 119.8800511 375.723200
20001 20003 20005 1 120.0200517 532.790560
20004 20003 20005 1 119.8800511 375.723200
20003 20005 20006 1 119.8800511 375.723200
20003 20005 20007 1 120.0200517 532.790560
20006 20005 20007 1 119.8800511 375.723200
20005 20007 20008 1 119.8800511 375.723200
20005 20007 20009 1 120.0200517 532.790560
20008 20007 20009 1 119.8800511 375.723200
20000 20009 20007 1 120.0200517 532.790560
20000 20009 20010 1 119.8800511 375.723200
20007 20009 20010 1 119.8800511 375.723200
20011 20012 20013 1 119.8800511 375.723200
20011 20012 20021 1 119.8800511 375.723200
20013 20012 20021 1 120.0200517 532.790560
20012 20013 20014 1 121.3800518 83.010560
20012 20013 20015 1 120.0200517 532.790560
20014 20013 20015 1 121.3800518 83.010560
8011 20014 9479 1 109.50000 418.400000
8011 20014 9526 1 109.50000 418.400000
8011 20014 20013 1 103.70004 836.800000
9479 20014 9526 1 109.50000 418.400000
9479 20014 20013 1 103.70004 836.800000
9526 20014 20013 1 103.70004 836.800000
20013 20015 20016 1 119.8800511 375.723200
20013 20015 20017 1 120.0200517 532.790560
20016 20015 20017 1 119.8800511 375.723200
20015 20017 20018 1 119.8800511 375.723200
20015 20017 20019 1 120.0200517 532.790560
20018 20017 20019 1 119.8800511 375.723200
20017 20019 20020 1 119.8800511 375.723200
20017 20019 20021 1 120.0200517 532.790560
20020 20019 20021 1 119.8800511 375.723200
20012 20021 20019 1 120.0200517 532.790560
20012 20021 20022 1 119.8800511 375.723200
20019 20021 20022 1 119.8800511 375.723200
20023 20024 20025 1 119.8800511 375.723200
20023 20024 20033 1 119.8800511 375.723200
20025 20024 20033 1 120.0200517 532.790560
20024 20025 20026 1 121.3800518 83.010560
20024 20025 20027 1 120.0200517 532.790560
20026 20025 20027 1 121.3800518 83.010560
4102 20026 9375 1 109.50000 418.400000
4102 20026 11223 1 109.50000 418.400000
4102 20026 20025 1 103.70004 836.800000
9375 20026 11223 1 109.50000 418.400000
9375 20026 20025 1 103.70004 836.800000
11223 20026 20025 1 103.70004 836.800000
20025 20027 20028 1 119.8800511 375.723200
20025 20027 20029 1 120.0200517 532.790560
20028 20027 20029 1 119.8800511 375.723200
20027 20029 20030 1 119.8800511 375.723200
20027 20029 20031 1 120.0200517 532.790560
20030 20029 20031 1 119.8800511 375.723200
20029 20031 20032 1 119.8800511 375.723200
20029 20031 20033 1 120.0200517 532.790560
20032 20031 20033 1 119.8800511 375.723200
20024 20033 20031 1 120.0200517 532.790560
20024 20033 20034 1 119.8800511 375.723200
20031 20033 20034 1 119.8800511 375.723200
20035 20036 20037 1 119.8800511 375.723200
20035 20036 20045 1 119.8800511 375.723200
20037 20036 20045 1 120.0200517 532.790560
20036 20037 20038 1 121.3800518 83.010560
20036 20037 20039 1 120.0200517 532.790560
20038 20037 20039 1 121.3800518 83.010560
3302 20038 4511 1 109.50000 418.400000
3302 20038 6423 1 109.50000 418.400000
3302 20038 20037 1 103.70004 836.800000
4511 20038 6423 1 109.50000 418.400000
4511 20038 20037 1 103.70004 836.800000
6423 20038 20037 1 103.70004 836.800000
20037 20039 20040 1 119.8800511 375.723200
20037 20039 20041 1 120.0200517 532.790560
20040 20039 20041 1 119.8800511 375.723200
20039 20041 20042 1 119.8800511 375.723200
20039 20041 20043 1 120.0200517 532.790560
20042 20041 20043 1 119.8800511 375.723200
20041 20043 20044 1 119.8800511 375.723200
20041 20043 20045 1 120.0200517 532.790560
20044 20043 20045 1 119.8800511 375.723200
20036 20045 20043 1 120.0200517 532.790560
20036 20045 20046 1 119.8800511 375.723200
20043 20045 20046 1 119.8800511 375.723200
20047 20048 20049 1 119.8800511 375.723200
20047 20048 20057 1 119.8800511 375.723200
20049 20048 20057 1 120.0200517 532.790560
20048 20049 20050 1 121.3800518 83.010560
20048 20049 20051 1 120.0200517 532.790560
20050 20049 20051 1 121.3800518 83.010560
3603 20050 5997 1 109.50000 418.400000
3603 20050 5998 1 109.50000 418.400000
3603 20050 20049 1 103.70004 836.800000
5997 20050 5998 1 109.50000 418.400000
5997 20050 20049 1 103.70004 836.800000
5998 20050 20049 1 103.70004 836.800000
20049 20051 20052 1 119.8800511 375.723200
20049 20051 20053 1 120.0200517 532.790560
20052 20051 20053 1 119.8800511 375.723200
20051 20053 20054 1 119.8800511 375.723200
20051 20053 20055 1 120.0200517 532.790560
20054 20053 20055 1 119.8800511 375.723200
20053 20055 20056 1 119.8800511 375.723200
20053 20055 20057 1 120.0200517 532.790560
20056 20055 20057 1 119.8800511 375.723200
20048 20057 20055 1 120.0200517 532.790560
20048 20057 20058 1 119.8800511 375.723200
20055 20057 20058 1 119.8800511 375.723200
20059 20060 20061 1 119.8800511 375.723200
20059 20060 20069 1 119.8800511 375.723200
20061 20060 20069 1 120.0200517 532.790560
20060 20061 20062 1 121.3800518 83.010560
20060 20061 20063 1 120.0200517 532.790560
20062 20061 20063 1 121.3800518 83.010560
8172 20062 8173 1 109.50000 418.400000
8172 20062 8174 1 109.50000 418.400000
8172 20062 20061 1 103.70004 836.800000
8173 20062 8174 1 109.50000 418.400000
8173 20062 20061 1 103.70004 836.800000
8174 20062 20061 1 103.70004 836.800000
20061 20063 20064 1 119.8800511 375.723200
20061 20063 20065 1 120.0200517 532.790560
20064 20063 20065 1 119.8800511 375.723200
20063 20065 20066 1 119.8800511 375.723200
20063 20065 20067 1 120.0200517 532.790560
20066 20065 20067 1 119.8800511 375.723200
20065 20067 20068 1 119.8800511 375.723200
20065 20067 20069 1 120.0200517 532.790560
20068 20067 20069 1 119.8800511 375.723200
20060 20069 20067 1 120.0200517 532.790560
20060 20069 20070 1 119.8800511 375.723200
20067 20069 20070 1 119.8800511 375.723200
20071 20072 20073 1 119.8800511 375.723200
20071 20072 20081 1 119.8800511 375.723200
20073 20072 20081 1 120.0200517 532.790560
20072 20073 20074 1 121.3800518 83.010560
20072 20073 20075 1 120.0200517 532.790560
20074 20073 20075 1 121.3800518 83.010560
6366 20074 8054 1 109.50000 418.400000
6366 20074 8213 1 109.50000 418.400000
6366 20074 20073 1 103.70004 836.800000
8054 20074 8213 1 109.50000 418.400000
8054 20074 20073 1 103.70004 836.800000
8213 20074 20073 1 103.70004 836.800000
20073 20075 20076 1 119.8800511 375.723200
20073 20075 20077 1 120.0200517 532.790560
20076 20075 20077 1 119.8800511 375.723200
20075 20077 20078 1 119.8800511 375.723200
20075 20077 20079 1 120.0200517 532.790560
20078 20077 20079 1 119.8800511 375.723200
20077 20079 20080 1 119.8800511 375.723200
20077 20079 20081 1 120.0200517 532.790560
20080 20079 20081 1 119.8800511 375.723200
20072 20081 20079 1 120.0200517 532.790560
20072 20081 20082 1 119.8800511 375.723200
20079 20081 20082 1 119.8800511 375.723200
20083 20084 20085 1 119.8800511 375.723200
20083 20084 20093 1 119.8800511 375.723200
20085 20084 20093 1 120.0200517 532.790560
20084 20085 20086 1 121.3800518 83.010560
20084 20085 20087 1 120.0200517 532.790560
20086 20085 20087 1 121.3800518 83.010560
1040 20086 7285 1 109.50000 418.400000
1040 20086 10587 1 109.50000 418.400000
1040 20086 20085 1 103.70004 836.800000
7285 20086 10587 1 109.50000 418.400000
7285 20086 20085 1 103.70004 836.800000
10587 20086 20085 1 103.70004 836.800000
20085 20087 20088 1 119.8800511 375.723200
20085 20087 20089 1 120.0200517 532.790560
20088 20087 20089 1 119.8800511 375.723200
20087 20089 20090 1 119.8800511 375.723200
20087 20089 20091 1 120.0200517 532.790560
20090 20089 20091 1 119.8800511 375.723200
20089 20091 20092 1 119.8800511 375.723200
20089 20091 20093 1 120.0200517 532.790560
20092 20091 20093 1 119.8800511 375.723200
20084 20093 20091 1 120.0200517 532.790560
20084 20093 20094 1 119.8800511 375.723200
20091 20093 20094 1 119.8800511 375.723200
20095 20096 20097 1 119.8800511 375.723200
20095 20096 20105 1 119.8800511 375.723200
20097 20096 20105 1 120.0200517 532.790560
20096 20097 20098 1 121.3800518 83.010560
20096 20097 20099 1 120.0200517 532.790560
20098 20097 20099 1 121.3800518 83.010560
8368 20098 9054 1 109.50000 418.400000
8368 20098 9348 1 109.50000 418.400000
8368 20098 20097 1 103.70004 836.800000
9054 20098 9348 1 109.50000 418.400000
9054 20098 20097 1 103.70004 836.800000
9348 20098 20097 1 103.70004 836.800000
20097 20099 20100 1 119.8800511 375.723200
20097 20099 20101 1 120.0200517 532.790560
20100 20099 20101 1 119.8800511 375.723200
20099 20101 20102 1 119.8800511 375.723200
20099 20101 20103 1 120.0200517 532.790560
20102 20101 20103 1 119.8800511 375.723200
20101 20103 20104 1 119.8800511 375.723200
20101 20103 20105 1 120.0200517 532.790560
20104 20103 20105 1 119.8800511 375.723200
20096 20105 20103 1 120.0200517 532.790560
20096 20105 20106 1 119.8800511 375.723200
20103 20105 20106 1 119.8800511 375.723200
20107 20108 20109 1 119.8800511 375.723200
20107 20108 20117 1 119.8800511 375.723200
20109 20108 20117 1 120.0200517 532.790560
20108 20109 20110 1 121.3800518 83.010560
20108 20109 20111 1 120.0200517 532.790560
20110 20109 20111 1 121.3800518 83.010560
845 20110 3628 1 109.50000 418.400000
845 20110 5348 1 109.50000 418.400000
845 20110 20109 1 103.70004 836.800000
3628 20110 5348 1 109.50000 418.400000
3628 20110 20109 1 103.70004 836.800000
5348 20110 20109 1 103.70004 836.800000
20109 20111 20112 1 119.8800511 375.723200
20109 20111 20113 1 120.0200517 532.790560
20112 20111 20113 1 119.8800511 375.723200
20111 20113 20114 1 119.8800511 375.723200
20111 20113 20115 1 120.0200517 532.790560
20114 20113 20115 1 119.8800511 375.723200
20113 20115 20116 1 119.8800511 375.723200
20113 20115 20117 1 120.0200517 532.790560
20116 20115 20117 1 119.8800511 375.723200
20108 20117 20115 1 120.0200517 532.790560
20108 20117 20118 1 119.8800511 375.723200
20115 20117 20118 1 119.8800511 375.723200
20119 20120 20121 1 119.8800511 375.723200
20119 20120 20129 1 119.8800511 375.723200
20121 20120 20129 1 120.0200517 532.790560
20120 20121 20122 1 121.3800518 83.010560
20120 20121 20123 1 120.0200517 532.790560
20122 20121 20123 1 121.3800518 83.010560
1774 20122 7441 1 109.50000 418.400000
1774 20122 8198 1 109.50000 418.400000
1774 20122 20121 1 103.70004 836.800000
7441 20122 8198 1 109.50000 418.400000
7441 20122 20121 1 103.70004 836.800000
8198 20122 20121 1 103.70004 836.800000
20121 20123 20124 1 119.8800511 375.723200
20121 20123 20125 1 120.0200517 532.790560
20124 20123 20125 1 119.8800511 375.723200
20123 20125 20126 1 119.8800511 375.723200
20123 20125 20127 1 120.0200517 532.790560
20126 20125 20127 1 119.8800511 375.723200
20125 20127 20128 1 119.8800511 375.723200
20125 20127 20129 1 120.0200517 532.790560
20128 20127 20129 1 119.8800511 375.723200
20120 20129 20127 1 120.0200517 532.790560
20120 20129 20130 1 119.8800511 375.723200
20127 20129 20130 1 119.8800511 375.723200
20131 20132 20133 1 119.8800511 375.723200
20131 20132 20141 1 119.8800511 375.723200
20133 20132 20141 1 120.0200517 532.790560
20132 20133 20134 1 121.3800518 83.010560
20132 20133 20135 1 120.0200517 532.790560
20134 20133 20135 1 121.3800518 83.010560
2963 20134 5043 1 109.50000 418.400000
2963 20134 8444 1 109.50000 418.400000
2963 20134 20133 1 103.70004 836.800000
5043 20134 8444 1 109.50000 418.400000
5043 20134 20133 1 103.70004 836.800000
8444 20134 20133 1 103.70004 836.800000
20133 20135 20136 1 119.8800511 375.723200
20133 20135 20137 1 120.0200517 532.790560
20136 20135 20137 1 119.8800511 375.723200
20135 20137 20138 1 119.8800511 375.723200
20135 20137 20139 1 120.0200517 532.790560
20138 20137 20139 1 119.8800511 375.723200
20137 20139 20140 1 119.8800511 375.723200
20137 20139 20141 1 120.0200517 532.790560
20140 20139 20141 1 119.8800511 375.723200
20132 20141 20139 1 120.0200517 532.790560
20132 20141 20142 1 119.8800511 375.723200
20139 20141 20142 1 119.8800511 375.723200
20143 20144 20145 1 119.8800511 375.723200
20143 20144 20153 1 119.8800511 375.723200
20145 20144 20153 1 120.0200517 532.790560
20144 20145 20146 1 121.3800518 83.010560
20144 20145 20147 1 120.0200517 532.790560
20146 20145 20147 1 121.3800518 83.010560
4515 20146 8601 1 109.50000 418.400000
4515 20146 9276 1 109.50000 418.400000
4515 20146 20145 1 103.70004 836.800000
8601 20146 9276 1 109.50000 418.400000
8601 20146 20145 1 103.70004 836.800000
9276 20146 20145 1 103.70004 836.800000
20145 20147 20148 1 119.8800511 375.723200
20145 20147 20149 1 120.0200517 532.790560
20148 20147 20149 1 119.8800511 375.723200
20147 20149 20150 1 119.8800511 375.723200
20147 20149 20151 1 120.0200517 532.790560
20150 20149 20151 1 119.8800511 375.723200
20149 20151 20152 1 119.8800511 375.723200
20149 20151 20153 1 120.0200517 532.790560
20152 20151 20153 1 119.8800511 375.723200
20144 20153 20151 1 120.0200517 532.790560
20144 20153 20154 1 119.8800511 375.723200
20151 20153 20154 1 119.8800511 375.723200
20155 20156 20157 1 119.8800511 375.723200
20155 20156 20165 1 119.8800511 375.723200
20157 20156 20165 1 120.0200517 532.790560
20156 20157 20158 1 121.3800518 83.010560
20156 20157 20159 1 120.0200517 532.790560
20158 20157 20159 1 121.3800518 83.010560
3879 20158 7170 1 109.50000 418.400000
3879 20158 10491 1 109.50000 418.400000
3879 20158 20157 1 103.70004 836.800000
7170 20158 10491 1 109.50000 418.400000
7170 20158 20157 1 103.70004 836.800000
10491 20158 20157 1 103.70004 836.800000
20157 20159 20160 1 119.8800511 375.723200
20157 20159 20161 1 120.0200517 532.790560
20160 20159 20161 1 119.8800511 375.723200
20159 20161 20162 1 119.8800511 375.723200
20159 20161 20163 1 120.0200517 532.790560
20162 20161 20163 1 119.8800511 375.723200
20161 20163 20164 1 119.8800511 375.723200
20161 20163 20165 1 120.0200517 532.790560
20164 20163 20165 1 119.8800511 375.723200
20156 20165 20163 1 120.0200517 532.790560
20156 20165 20166 1 119.8800511 375.723200
20163 20165 20166 1 119.8800511 375.723200
20167 20168 20169 1 119.8800511 375.723200
20167 20168 20177 1 119.8800511 375.723200
20169 20168 20177 1 120.0200517 532.790560
20168 20169 20170 1 121.3800518 83.010560
20168 20169 20171 1 120.0200517 532.790560
20170 20169 20171 1 121.3800518 83.010560
6566 20170 6567 1 109.50000 418.400000
6566 20170 6568 1 109.50000 418.400000
6566 20170 20169 1 103.70004 836.800000
6567 20170 6568 1 109.50000 418.400000
6567 20170 20169 1 103.70004 836.800000
6568 20170 20169 1 103.70004 836.800000
20169 20171 20172 1 119.8800511 375.723200
20169 20171 20173 1 120.0200517 532.790560
20172 20171 20173 1 119.8800511 375.723200
20171 20173 20174 1 119.8800511 375.723200
20171 20173 20175 1 120.0200517 532.790560
20174 20173 20175 1 119.8800511 375.723200
20173 20175 20176 1 119.8800511 375.723200
20173 20175 20177 1 120.0200517 532.790560
20176 20175 20177 1 119.8800511 375.723200
20168 20177 20175 1 120.0200517 532.790560
20168 20177 20178 1 119.8800511 375.723200
20175 20177 20178 1 119.8800511 375.723200
20179 20180 20181 1 119.8800511 375.723200
20179 20180 20189 1 119.8800511 375.723200
20181 20180 20189 1 120.0200517 532.790560
20180 20181 20182 1 121.3800518 83.010560
20180 20181 20183 1 120.0200517 532.790560
20182 20181 20183 1 121.3800518 83.010560
5561 20182 8198 1 109.50000 418.400000
5561 20182 11162 1 109.50000 418.400000
5561 20182 20181 1 103.70004 836.800000
8198 20182 11162 1 109.50000 418.400000
8198 20182 20181 1 103.70004 836.800000
11162 20182 20181 1 103.70004 836.800000
20181 20183 20184 1 119.8800511 375.723200
20181 20183 20185 1 120.0200517 532.790560
20184 20183 20185 1 119.8800511 375.723200
20183 20185 20186 1 119.8800511 375.723200
20183 20185 20187 1 120.0200517 532.790560
20186 20185 20187 1 119.8800511 375.723200
20185 20187 20188 1 119.8800511 375.723200
20185 20187 20189 1 120.0200517 532.790560
20188 20187 20189 1 119.8800511 375.723200
20180 20189 20187 1 120.0200517 532.790560
20180 20189 20190 1 119.8800511 375.723200
20187 20189 20190 1 119.8800511 375.723200
20191 20192 20193 1 119.8800511 375.723200
20191 20192 20201 1 119.8800511 375.723200
20193 20192 20201 1 120.0200517 532.790560
20192 20193 20194 1 121.3800518 83.010560
20192 20193 20195 1 120.0200517 532.790560
20194 20193 20195 1 121.3800518 83.010560
2148 20194 7897 1 109.50000 418.400000
2148 20194 11211 1 109.50000 418.400000
2148 20194 20193 1 103.70004 836.800000
7897 20194 11211 1 109.50000 418.400000
7897 20194 20193 1 103.70004 836.800000
11211 20194 20193 1 103.70004 836.800000
20193 20195 20196 1 119.8800511 375.723200
20193 20195 20197 1 120.0200517 532.790560
20196 20195 20197 1 119.8800511 375.723200
20195 20197 20198 1 119.8800511 375.723200
20195 20197 20199 1 120.0200517 532.790560
20198 20197 20199 1 119.8800511 375.723200
20197 20199 20200 1 119.8800511 375.723200
20197 20199 20201 1 120.0200517 532.790560
20200 20199 20201 1 119.8800511 375.723200
20192 20201 20199 1 120.0200517 532.790560
20192 20201 20202 1 119.8800511 375.723200
20199 20201 20202 1 119.8800511 375.723200
20203 20204 20205 1 119.8800511 375.723200
20203 20204 20213 1 119.8800511 375.723200
20205 20204 20213 1 120.0200517 532.790560
20204 20205 20206 1 121.3800518 83.010560
20204 20205 20207 1 120.0200517 532.790560
20206 20205 20207 1 121.3800518 83.010560
4735 20206 9701 1 109.50000 418.400000
4735 20206 10916 1 109.50000 418.400000
4735 20206 20205 1 103.70004 836.800000
9701 20206 10916 1 109.50000 418.400000
9701 20206 20205 1 103.70004 836.800000
10916 20206 20205 1 103.70004 836.800000
20205 20207 20208 1 119.8800511 375.723200
20205 20207 20209 1 120.0200517 532.790560
20208 20207 20209 1 119.8800511 375.723200
20207 20209 20210 1 119.8800511 375.723200
20207 20209 20211 1 120.0200517 532.790560
20210 20209 20211 1 119.8800511 375.723200
20209 20211 20212 1 119.8800511 375.723200
20209 20211 20213 1 120.0200517 532.790560
20212 20211 20213 1 119.8800511 375.723200
20204 20213 20211 1 120.0200517 532.790560
20204 20213 20214 1 119.8800511 375.723200
20211 20213 20214 1 119.8800511 375.723200
20215 20216 20217 1 119.8800511 375.723200
20215 20216 20225 1 119.8800511 375.723200
20217 20216 20225 1 120.0200517 532.790560
20216 20217 20218 1 121.3800518 83.010560
20216 20217 20219 1 120.0200517 532.790560
20218 20217 20219 1 121.3800518 83.010560
2462 20218 2463 1 109.50000 418.400000
2462 20218 11261 1 109.50000 418.400000
2462 20218 20217 1 103.70004 836.800000
2463 20218 11261 1 109.50000 418.400000
2463 20218 20217 1 103.70004 836.800000
11261 20218 20217 1 103.70004 836.800000
20217 20219 20220 1 119.8800511 375.723200
20217 20219 20221 1 120.0200517 532.790560
20220 20219 20221 1 119.8800511 375.723200
20219 20221 20222 1 119.8800511 375.723200
20219 20221 20223 1 120.0200517 532.790560
20222 20221 20223 1 119.8800511 375.723200
20221 20223 20224 1 119.8800511 375.723200
20221 20223 20225 1 120.0200517 532.790560
20224 20223 20225 1 119.8800511 375.723200
20216 20225 20223 1 120.0200517 532.790560
20216 20225 20226 1 119.8800511 375.723200
20223 20225 20226 1 119.8800511 375.723200
20227 20228 20229 1 119.8800511 375.723200
20227 20228 20237 1 119.8800511 375.723200
20229 20228 20237 1 120.0200517 532.790560
20228 20229 20230 1 121.3800518 83.010560
20228 20229 20231 1 120.0200517 532.790560
20230 20229 20231 1 121.3800518 83.010560
283 20230 284 1 109.50000 418.400000
283 20230 285 1 109.50000 418.400000
283 20230 20229 1 103.70004 836.800000
284 20230 285 1 109.50000 418.400000
284 20230 20229 1 103.70004 836.800000
285 20230 20229 1 103.70004 836.800000
20229 20231 20232 1 119.8800511 375.723200
20229 20231 20233 1 120.0200517 532.790560
20232 20231 20233 1 119.8800511 375.723200
20231 20233 20234 1 119.8800511 375.723200
20231 20233 20235 1 120.0200517 532.790560
20234 20233 20235 1 119.8800511 375.723200
20233 20235 20236 1 119.8800511 375.723200
20233 20235 20237 1 120.0200517 532.790560
20236 20235 20237 1 119.8800511 375.723200
20228 20237 20235 1 120.0200517 532.790560
20228 20237 20238 1 119.8800511 375.723200
20235 20237 20238 1 119.8800511 375.723200
20239 20240 20241 1 119.8800511 375.723200
20239 20240 20249 1 119.8800511 375.723200
20241 20240 20249 1 120.0200517 532.790560
20240 20241 20242 1 121.3800518 83.010560
20240 20241 20243 1 120.0200517 532.790560
20242 20241 20243 1 121.3800518 83.010560
1470 20242 1471 1 109.50000 418.400000
1470 20242 11287 1 109.50000 418.400000
1470 20242 20241 1 103.70004 836.800000
1471 20242 11287 1 109.50000 418.400000
1471 20242 20241 1 103.70004 836.800000
11287 20242 20241 1 103.70004 836.800000
20241 20243 20244 1 119.8800511 375.723200
20241 20243 20245 1 120.0200517 532.790560
20244 20243 20245 1 119.8800511 375.723200
20243 20245 20246 1 119.8800511 375.723200
20243 20245 20247 1 120.0200517 532.790560
20246 20245 20247 1 119.8800511 375.723200
20245 20247 20248 1 119.8800511 375.723200
20245 20247 20249 1 120.0200517 532.790560
20248 20247 20249 1 119.8800511 375.723200
20240 20249 20247 1 120.0200517 532.790560
20240 20249 20250 1 119.8800511 375.723200
20247 20249 20250 1 119.8800511 375.723200
20251 20252 20253 1 119.8800511 375.723200
20251 20252 20261 1 119.8800511 375.723200
20253 20252 20261 1 120.0200517 532.790560
20252 20253 20254 1 121.3800518 83.010560
20252 20253 20255 1 120.0200517 532.790560
20254 20253 20255 1 121.3800518 83.010560
2420 20254 5964 1 109.50000 418.400000
2420 20254 5965 1 109.50000 418.400000
2420 20254 20253 1 103.70004 836.800000
5964 20254 5965 1 109.50000 418.400000
5964 20254 20253 1 103.70004 836.800000
5965 20254 20253 1 103.70004 836.800000
20253 20255 20256 1 119.8800511 375.723200
20253 20255 20257 1 120.0200517 532.790560
20256 20255 20257 1 119.8800511 375.723200
20255 20257 20258 1 119.8800511 375.723200
20255 20257 20259 1 120.0200517 532.790560
20258 20257 20259 1 119.8800511 375.723200
20257 20259 20260 1 119.8800511 375.723200
20257 20259 20261 1 120.0200517 532.790560
20260 20259 20261 1 119.8800511 375.723200
20252 20261 20259 1 120.0200517 532.790560
20252 20261 20262 1 119.8800511 375.723200
20259 20261 20262 1 119.8800511 375.723200
20263 20264 20265 1 119.8800511 375.723200
20263 20264 20273 1 119.8800511 375.723200
20265 20264 20273 1 120.0200517 532.790560
20264 20265 20266 1 121.3800518 83.010560
20264 20265 20267 1 120.0200517 532.790560
20266 20265 20267 1 121.3800518 83.010560
792 20266 5442 1 109.50000 418.400000
792 20266 9504 1 109.50000 418.400000
792 20266 20265 1 103.70004 836.800000
5442 20266 9504 1 109.50000 418.400000
5442 20266 20265 1 103.70004 836.800000
9504 20266 20265 1 103.70004 836.800000
20265 20267 20268 1 119.8800511 375.723200
20265 20267 20269 1 120.0200517 532.790560
20268 20267 20269 1 119.8800511 375.723200
20267 20269 20270 1 119.8800511 375.723200
20267 20269 20271 1 120.0200517 532.790560
20270 20269 20271 1 119.8800511 375.723200
20269 20271 20272 1 119.8800511 375.723200
20269 20271 20273 1 120.0200517 532.790560
20272 20271 20273 1 119.8800511 375.723200
20264 20273 20271 1 120.0200517 532.790560
20264 20273 20274 1 119.8800511 375.723200
20271 20273 20274 1 119.8800511 375.723200
20275 20276 20277 1 119.8800511 375.723200
20275 20276 20285 1 119.8800511 375.723200
20277 20276 20285 1 120.0200517 532.790560
20276 20277 20278 1 121.3800518 83.010560
20276 20277 20279 1 120.0200517 532.790560
20278 20277 20279 1 121.3800518 83.010560
9284 20278 10085 1 109.50000 418.400000
9284 20278 10086 1 109.50000 418.400000
9284 20278 20277 1 103.70004 836.800000
10085 20278 10086 1 109.50000 418.400000
10085 20278 20277 1 103.70004 836.800000
10086 20278 20277 1 103.70004 836.800000
20277 20279 20280 1 119.8800511 375.723200
20277 20279 20281 1 120.0200517 532.790560
20280 20279 20281 1 119.8800511 375.723200
20279 20281 20282 1 119.8800511 375.723200
20279 20281 20283 1 120.0200517 532.790560
20282 20281 20283 1 119.8800511 375.723200
20281 20283 20284 1 119.8800511 375.723200
20281 20283 20285 1 120.0200517 532.790560
20284 20283 20285 1 119.8800511 375.723200
20276 20285 20283 1 120.0200517 532.790560
20276 20285 20286 1 119.8800511 375.723200
20283 20285 20286 1 119.8800511 375.723200
20287 20288 20289 1 119.8800511 375.723200
20287 20288 20297 1 119.8800511 375.723200
20289 20288 20297 1 120.0200517 532.790560
20288 20289 20290 1 121.3800518 83.010560
20288 20289 20291 1 120.0200517 532.790560
20290 20289 20291 1 121.3800518 83.010560
3885 20290 5130 1 109.50000 418.400000
3885 20290 9653 1 109.50000 418.400000
3885 20290 20289 1 103.70004 836.800000
5130 20290 9653 1 109.50000 418.400000
5130 20290 20289 1 103.70004 836.800000
9653 20290 20289 1 103.70004 836.800000
20289 20291 20292 1 119.8800511 375.723200
20289 20291 20293 1 120.0200517 532.790560
20292 20291 20293 1 119.8800511 375.723200
20291 20293 20294 1 119.8800511 375.723200
20291 20293 20295 1 120.0200517 532.790560
20294 20293 20295 1 119.8800511 375.723200
20293 20295 20296 1 119.8800511 375.723200
20293 20295 20297 1 120.0200517 532.790560
20296 20295 20297 1 119.8800511 375.723200
20288 20297 20295 1 120.0200517 532.790560
20288 20297 20298 1 119.8800511 375.723200
20295 20297 20298 1 119.8800511 375.723200
20299 20300 20301 1 119.8800511 375.723200
20299 20300 20309 1 119.8800511 375.723200
20301 20300 20309 1 120.0200517 532.790560
20300 20301 20302 1 121.3800518 83.010560
20300 20301 20303 1 120.0200517 532.790560
20302 20301 20303 1 121.3800518 83.010560
4709 20302 5104 1 109.50000 418.400000
4709 20302 5105 1 109.50000 418.400000
4709 20302 20301 1 103.70004 836.800000
5104 20302 5105 1 109.50000 418.400000
5104 20302 20301 1 103.70004 836.800000
5105 20302 20301 1 103.70004 836.800000
20301 20303 20304 1 119.8800511 375.723200
20301 20303 20305 1 120.0200517 532.790560
20304 20303 20305 1 119.8800511 375.723200
20303 20305 20306 1 119.8800511 375.723200
20303 20305 20307 1 120.0200517 532.790560
20306 20305 20307 1 119.8800511 375.723200
20305 20307 20308 1 119.8800511 375.723200
20305 20307 20309 1 120.0200517 532.790560
20308 20307 20309 1 119.8800511 375.723200
20300 20309 20307 1 120.0200517 532.790560
20300 20309 20310 1 119.8800511 375.723200
20307 20309 20310 1 119.8800511 375.723200
20311 20312 20313 1 119.8800511 375.723200
20311 20312 20321 1 119.8800511 375.723200
20313 20312 20321 1 120.0200517 532.790560
20312 20313 20314 1 121.3800518 83.010560
20312 20313 20315 1 120.0200517 532.790560
20314 20313 20315 1 121.3800518 83.010560
3751 20314 5188 1 109.50000 418.400000
3751 20314 5189 1 109.50000 418.400000
3751 20314 20313 1 103.70004 836.800000
5188 20314 5189 1 109.50000 418.400000
5188 20314 20313 1 103.70004 836.800000
5189 20314 20313 1 103.70004 836.800000
20313 20315 20316 1 119.8800511 375.723200
20313 20315 20317 1 120.0200517 532.790560
20316 20315 20317 1 119.8800511 375.723200
20315 20317 20318 1 119.8800511 375.723200
20315 20317 20319 1 120.0200517 532.790560
20318 20317 20319 1 119.8800511 375.723200
20317 20319 20320 1 119.8800511 375.723200
20317 20319 20321 1 120.0200517 532.790560
20320 20319 20321 1 119.8800511 375.723200
20312 20321 20319 1 120.0200517 532.790560
20312 20321 20322 1 119.8800511 375.723200
20319 20321 20322 1 119.8800511 375.723200
20323 20324 20325 1 119.8800511 375.723200
20323 20324 20333 1 119.8800511 375.723200
20325 20324 20333 1 120.0200517 532.790560
20324 20325 20326 1 121.3800518 83.010560
20324 20325 20327 1 120.0200517 532.790560
20326 20325 20327 1 121.3800518 83.010560
260 20326 2431 1 109.50000 418.400000
260 20326 2433 1 109.50000 418.400000
260 20326 20325 1 103.70004 836.800000
2431 20326 2433 1 109.50000 418.400000
2431 20326 20325 1 103.70004 836.800000
2433 20326 20325 1 103.70004 836.800000
20325 20327 20328 1 119.8800511 375.723200
20325 20327 20329 1 120.0200517 532.790560
20328 20327 20329 1 119.8800511 375.723200
20327 20329 20330 1 119.8800511 375.723200
20327 20329 20331 1 120.0200517 532.790560
20330 20329 20331 1 119.8800511 375.723200
20329 20331 20332 1 119.8800511 375.723200
20329 20331 20333 1 120.0200517 532.790560
20332 20331 20333 1 119.8800511 375.723200
20324 20333 20331 1 120.0200517 532.790560
20324 20333 20334 1 119.8800511 375.723200
20331 20333 20334 1 119.8800511 375.723200
20335 20336 20337 1 119.8800511 375.723200
20335 20336 20345 1 119.8800511 375.723200
20337 20336 20345 1 120.0200517 532.790560
20336 20337 20338 1 121.3800518 83.010560
20336 20337 20339 1 120.0200517 532.790560
20338 20337 20339 1 121.3800518 83.010560
1781 20338 6734 1 109.50000 418.400000
1781 20338 6735 1 109.50000 418.400000
1781 20338 20337 1 103.70004 836.800000
6734 20338 6735 1 109.50000 418.400000
6734 20338 20337 1 103.70004 836.800000
6735 20338 20337 1 103.70004 836.800000
20337 20339 20340 1 119.8800511 375.723200
20337 20339 20341 1 120.0200517 532.790560
20340 20339 20341 1 119.8800511 375.723200
20339 20341 20342 1 119.8800511 375.723200
20339 20341 20343 1 120.0200517 532.790560
20342 20341 20343 1 119.8800511 375.723200
20341 20343 20344 1 119.8800511 375.723200
20341 20343 20345 1 120.0200517 532.790560
20344 20343 20345 1 119.8800511 375.723200
20336 20345 20343 1 120.0200517 532.790560
20336 20345 20346 1 119.8800511 375.723200
20343 20345 20346 1 119.8800511 375.723200
20347 20348 20349 1 119.8800511 375.723200
20347 20348 20357 1 119.8800511 375.723200
20349 20348 20357 1 120.0200517 532.790560
20348 20349 20350 1 121.3800518 83.010560
20348 20349 20351 1 120.0200517 532.790560
20350 20349 20351 1 121.3800518 83.010560
416 20350 7933 1 109.50000 418.400000
416 20350 11209 1 109.50000 418.400000
416 20350 20349 1 103.70004 836.800000
7933 20350 11209 1 109.50000 418.400000
7933 20350 20349 1 103.70004 836.800000
11209 20350 20349 1 103.70004 836.800000
20349 20351 20352 1 119.8800511 375.723200
20349 20351 20353 1 120.0200517 532.790560
20352 20351 20353 1 119.8800511 375.723200
20351 20353 20354 1 119.8800511 375.723200
20351 20353 20355 1 120.0200517 532.790560
20354 20353 20355 1 119.8800511 375.723200
20353 20355 20356 1 119.8800511 375.723200
20353 20355 20357 1 120.0200517 532.790560
20356 20355 20357 1 119.8800511 375.723200
20348 20357 20355 1 120.0200517 532.790560
20348 20357 20358 1 119.8800511 375.723200
20355 20357 20358 1 119.8800511 375.723200
20359 20360 20361 1 119.8800511 375.723200
20359 20360 20369 1 119.8800511 375.723200
20361 20360 20369 1 120.0200517 532.790560
20360 20361 20362 1 121.3800518 83.010560
20360 20361 20363 1 120.0200517 532.790560
20362 20361 20363 1 121.3800518 83.010560
7020 20362 9542 1 109.50000 418.400000
7020 20362 11204 1 109.50000 418.400000
7020 20362 20361 1 103.70004 836.800000
9542 20362 11204 1 109.50000 418.400000
9542 20362 20361 1 103.70004 836.800000
11204 20362 20361 1 103.70004 836.800000
20361 20363 20364 1 119.8800511 375.723200
20361 20363 20365 1 120.0200517 532.790560
20364 20363 20365 1 119.8800511 375.723200
20363 20365 20366 1 119.8800511 375.723200
20363 20365 20367 1 120.0200517 532.790560
20366 20365 20367 1 119.8800511 375.723200
20365 20367 20368 1 119.8800511 375.723200
20365 20367 20369 1 120.0200517 532.790560
20368 20367 20369 1 119.8800511 375.723200
20360 20369 20367 1 120.0200517 532.790560
20360 20369 20370 1 119.8800511 375.723200
20367 20369 20370 1 119.8800511 375.723200
20371 20372 20373 1 119.8800511 375.723200
20371 20372 20381 1 119.8800511 375.723200
20373 20372 20381 1 120.0200517 532.790560
20372 20373 20374 1 121.3800518 83.010560
20372 20373 20375 1 120.0200517 532.790560
20374 20373 20375 1 121.3800518 83.010560
5498 20374 6229 1 109.50000 418.400000
5498 20374 11248 1 109.50000 418.400000
5498 20374 20373 1 103.70004 836.800000
6229 20374 11248 1 109.50000 418.400000
6229 20374 20373 1 103.70004 836.800000
11248 20374 20373 1 103.70004 836.800000
20373 20375 20376 1 119.8800511 375.723200
20373 20375 20377 1 120.0200517 532.790560
20376 20375 20377 1 119.8800511 375.723200
20375 20377 20378 1 119.8800511 375.723200
20375 20377 20379 1 120.0200517 532.790560
20378 20377 20379 1 119.8800511 375.723200
20377 20379 20380 1 119.8800511 375.723200
20377 20379 20381 1 120.0200517 532.790560
20380 20379 20381 1 119.8800511 375.723200
20372 20381 20379 1 120.0200517 532.790560
20372 20381 20382 1 119.8800511 375.723200
20379 20381 20382 1 119.8800511 375.723200
20383 20384 20385 1 119.8800511 375.723200
20383 20384 20393 1 119.8800511 375.723200
20385 20384 20393 1 120.0200517 532.790560
20384 20385 20386 1 121.3800518 83.010560
20384 20385 20387 1 120.0200517 532.790560
20386 20385 20387 1 121.3800518 83.010560
5298 20386 5299 1 109.50000 418.400000
5298 20386 11260 1 109.50000 418.400000
5298 20386 20385 1 103.70004 836.800000
5299 20386 11260 1 109.50000 418.400000
5299 20386 20385 1 103.70004 836.800000
11260 20386 20385 1 103.70004 836.800000
20385 20387 20388 1 119.8800511 375.723200
20385 20387 20389 1 120.0200517 532.790560
20388 20387 20389 1 119.8800511 375.723200
20387 20389 20390 1 119.8800511 375.723200
20387 20389 20391 1 120.0200517 532.790560
20390 20389 20391 1 119.8800511 375.723200
20389 20391 20392 1 119.8800511 375.723200
20389 20391 20393 1 120.0200517 532.790560
20392 20391 20393 1 119.8800511 375.723200
20384 20393 20391 1 120.0200517 532.790560
20384 20393 20394 1 119.8800511 375.723200
20391 20393 20394 1 119.8800511 375.723200
20395 20396 20397 1 119.8800511 375.723200
20395 20396 20405 1 119.8800511 375.723200
20397 20396 20405 1 120.0200517 532.790560
20396 20397 20398 1 121.3800518 83.010560
20396 20397 20399 1 120.0200517 532.790560
20398 20397 20399 1 121.3800518 83.010560
4991 20398 6726 1 109.50000 418.400000
4991 20398 11256 1 109.50000 418.400000
4991 20398 20397 1 103.70004 836.800000
6726 20398 11256 1 109.50000 418.400000
6726 20398 20397 1 103.70004 836.800000
11256 20398 20397 1 103.70004 836.800000
20397 20399 20400 1 119.8800511 375.723200
20397 20399 20401 1 120.0200517 532.790560
20400 20399 20401 1 119.8800511 375.723200
20399 20401 20402 1 119.8800511 375.723200
20399 20401 20403 1 120.0200517 532.790560
20402 20401 20403 1 119.8800511 375.723200
20401 20403 20404 1 119.8800511 375.723200
20401 20403 20405 1 120.0200517 532.790560
20404 20403 20405 1 119.8800511 375.723200
20396 20405 20403 1 120.0200517 532.790560
20396 20405 20406 1 119.8800511 375.723200
20403 20405 20406 1 119.8800511 375.723200
20407 20408 20409 1 119.8800511 375.723200
20407 20408 20417 1 119.8800511 375.723200
20409 20408 20417 1 120.0200517 532.790560
20408 20409 20410 1 121.3800518 83.010560
20408 20409 20411 1 120.0200517 532.790560
20410 20409 20411 1 121.3800518 83.010560
7311 20410 8290 1 109.50000 418.400000
7311 20410 11269 1 109.50000 418.400000
7311 20410 20409 1 103.70004 836.800000
8290 20410 11269 1 109.50000 418.400000
8290 20410 20409 1 103.70004 836.800000
11269 20410 20409 1 103.70004 836.800000
20409 20411 20412 1 119.8800511 375.723200
20409 20411 20413 1 120.0200517 532.790560
20412 20411 20413 1 119.8800511 375.723200
20411 20413 20414 1 119.8800511 375.723200
20411 20413 20415 1 120.0200517 532.790560
20414 20413 20415 1 119.8800511 375.723200
20413 20415 20416 1 119.8800511 375.723200
20413 20415 20417 1 120.0200517 532.790560
20416 20415 20417 1 119.8800511 375.723200
20408 20417 20415 1 120.0200517 532.790560
20408 20417 20418 1 119.8800511 375.723200
20415 20417 20418 1 119.8800511 375.723200
20419 20420 20421 1 119.8800511 375.723200
20419 20420 20429 1 119.8800511 375.723200
20421 20420 20429 1 120.0200517 532.790560
20420 20421 20422 1 121.3800518 83.010560
20420 20421 20423 1 120.0200517 532.790560
20422 20421 20423 1 121.3800518 83.010560
10124 20422 11062 1 109.50000 418.400000
10124 20422 11182 1 109.50000 418.400000
10124 20422 20421 1 103.70004 836.800000
11062 20422 11182 1 109.50000 418.400000
11062 20422 20421 1 103.70004 836.800000
11182 20422 20421 1 103.70004 836.800000
20421 20423 20424 1 119.8800511 375.723200
20421 20423 20425 1 120.0200517 532.790560
20424 20423 20425 1 119.8800511 375.723200
20423 20425 20426 1 119.8800511 375.723200
20423 20425 20427 1 120.0200517 532.790560
20426 20425 20427 1 119.8800511 375.723200
20425 20427 20428 1 119.8800511 375.723200
20425 20427 20429 1 120.0200517 532.790560
20428 20427 20429 1 119.8800511 375.723200
20420 20429 20427 1 120.0200517 532.790560
20420 20429 20430 1 119.8800511 375.723200
20427 20429 20430 1 119.8800511 375.723200
20431 20432 20433 1 119.8800511 375.723200
20431 20432 20441 1 119.8800511 375.723200
20433 20432 20441 1 120.0200517 532.790560
20432 20433 20434 1 121.3800518 83.010560
20432 20433 20435 1 120.0200517 532.790560
20434 20433 20435 1 121.3800518 83.010560
1687 20434 1688 1 109.50000 418.400000
1687 20434 8376 1 109.50000 418.400000
1687 20434 20433 1 103.70004 836.800000
1688 20434 8376 1 109.50000 418.400000
1688 20434 20433 1 103.70004 836.800000
8376 20434 20433 1 103.70004 836.800000
20433 20435 20436 1 119.8800511 375.723200
20433 20435 20437 1 120.0200517 532.790560
20436 20435 20437 1 119.8800511 375.723200
20435 20437 20438 1 119.8800511 375.723200
20435 20437 20439 1 120.0200517 532.790560
20438 20437 20439 1 119.8800511 375.723200
20437 20439 20440 1 119.8800511 375.723200
20437 20439 20441 1 120.0200517 532.790560
20440 20439 20441 1 119.8800511 375.723200
20432 20441 20439 1 120.0200517 532.790560
20432 20441 20442 1 119.8800511 375.723200
20439 20441 20442 1 119.8800511 375.723200
20443 20444 20445 1 119.8800511 375.723200
20443 20444 20453 1 119.8800511 375.723200
20445 20444 20453 1 120.0200517 532.790560
20444 20445 20446 1 121.3800518 83.010560
20444 20445 20447 1 120.0200517 532.790560
20446 20445 20447 1 121.3800518 83.010560
4209 20446 5092 1 109.50000 418.400000
4209 20446 9927 1 109.50000 418.400000
4209 20446 20445 1 103.70004 836.800000
5092 20446 9927 1 109.50000 418.400000
5092 20446 20445 1 103.70004 836.800000
9927 20446 20445 1 103.70004 836.800000
20445 20447 20448 1 119.8800511 375.723200
20445 20447 20449 1 120.0200517 532.790560
20448 20447 20449 1 119.8800511 375.723200
20447 20449 20450 1 119.8800511 375.723200
20447 20449 20451 1 120.0200517 532.790560
20450 20449 20451 1 119.8800511 375.723200
20449 20451 20452 1 119.8800511 375.723200
20449 20451 20453 1 120.0200517 532.790560
20452 20451 20453 1 119.8800511 375.723200
20444 20453 20451 1 120.0200517 532.790560
20444 20453 20454 1 119.8800511 375.723200
20451 20453 20454 1 119.8800511 375.723200
20455 20456 20457 1 119.8800511 375.723200
20455 20456 20465 1 119.8800511 375.723200
20457 20456 20465 1 120.0200517 532.790560
20456 20457 20458 1 121.3800518 83.010560
20456 20457 20459 1 120.0200517 532.790560
20458 20457 20459 1 121.3800518 83.010560
3736 20458 7627 1 109.50000 418.400000
3736 20458 9844 1 109.50000 418.400000
3736 20458 20457 1 103.70004 836.800000
7627 20458 9844 1 109.50000 418.400000
7627 20458 20457 1 103.70004 836.800000
9844 20458 20457 1 103.70004 836.800000
20457 20459 20460 1 119.8800511 375.723200
20457 20459 20461 1 120.0200517 532.790560
20460 20459 20461 1 119.8800511 375.723200
20459 20461 20462 1 119.8800511 375.723200
20459 20461 20463 1 120.0200517 532.790560
20462 20461 20463 1 119.8800511 375.723200
20461 20463 20464 1 119.8800511 375.723200
20461 20463 20465 1 120.0200517 532.790560
20464 20463 20465 1 119.8800511 375.723200
20456 20465 20463 1 120.0200517 532.790560
20456 20465 20466 1 119.8800511 375.723200
20463 20465 20466 1 119.8800511 375.723200
20467 20468 20469 1 119.8800511 375.723200
20467 20468 20477 1 119.8800511 375.723200
20469 20468 20477 1 120.0200517 532.790560
20468 20469 20470 1 121.3800518 83.010560
20468 20469 20471 1 120.0200517 532.790560
20470 20469 20471 1 121.3800518 83.010560
371 20470 8875 1 109.50000 418.400000
371 20470 9091 1 109.50000 418.400000
371 20470 20469 1 103.70004 836.800000
8875 20470 9091 1 109.50000 418.400000
8875 20470 20469 1 103.70004 836.800000
9091 20470 20469 1 103.70004 836.800000
20469 20471 20472 1 119.8800511 375.723200
20469 20471 20473 1 120.0200517 532.790560
20472 20471 20473 1 119.8800511 375.723200
20471 20473 20474 1 119.8800511 375.723200
20471 20473 20475 1 120.0200517 532.790560
20474 20473 20475 1 119.8800511 375.723200
20473 20475 20476 1 119.8800511 375.723200
20473 20475 20477 1 120.0200517 532.790560
20476 20475 20477 1 119.8800511 375.723200
20468 20477 20475 1 120.0200517 532.790560
20468 20477 20478 1 119.8800511 375.723200
20475 20477 20478 1 119.8800511 375.723200
20479 20480 20481 1 119.8800511 375.723200
20479 20480 20489 1 119.8800511 375.723200
20481 20480 20489 1 120.0200517 532.790560
20480 20481 20482 1 121.3800518 83.010560
20480 20481 20483 1 120.0200517 532.790560
20482 20481 20483 1 121.3800518 83.010560
1170 20482 4041 1 109.50000 418.400000
1170 20482 4042 1 109.50000 418.400000
1170 20482 20481 1 103.70004 836.800000
4041 20482 4042 1 109.50000 418.400000
4041 20482 20481 1 103.70004 836.800000
4042 20482 20481 1 103.70004 836.800000
20481 20483 20484 1 119.8800511 375.723200
20481 20483 20485 1 120.0200517 532.790560
20484 20483 20485 1 119.8800511 375.723200
20483 20485 20486 1 119.8800511 375.723200
20483 20485 20487 1 120.0200517 532.790560
20486 20485 20487 1 119.8800511 375.723200
20485 20487 20488 1 119.8800511 375.723200
20485 20487 20489 1 120.0200517 532.790560
20488 20487 20489 1 119.8800511 375.723200
20480 20489 20487 1 120.0200517 532.790560
20480 20489 20490 1 119.8800511 375.723200
20487 20489 20490 1 119.8800511 375.723200
20491 20492 20493 1 119.8800511 375.723200
20491 20492 20501 1 119.8800511 375.723200
20493 20492 20501 1 120.0200517 532.790560
20492 20493 20494 1 121.3800518 83.010560
20492 20493 20495 1 120.0200517 532.790560
20494 20493 20495 1 121.3800518 83.010560
2540 20494 6901 1 109.50000 418.400000
2540 20494 11290 1 109.50000 418.400000
2540 20494 20493 1 103.70004 836.800000
6901 20494 11290 1 109.50000 418.400000
6901 20494 20493 1 103.70004 836.800000
11290 20494 20493 1 103.70004 836.800000
20493 20495 20496 1 119.8800511 375.723200
20493 20495 20497 1 120.0200517 532.790560
20496 20495 20497 1 119.8800511 375.723200
20495 20497 20498 1 119.8800511 375.723200
20495 20497 20499 1 120.0200517 532.790560
20498 20497 20499 1 119.8800511 375.723200
20497 20499 20500 1 119.8800511 375.723200
20497 20499 20501 1 120.0200517 532.790560
20500 20499 20501 1 119.8800511 375.723200
20492 20501 20499 1 120.0200517 532.790560
20492 20501 20502 1 119.8800511 375.723200
20499 20501 20502 1 119.8800511 375.723200
20503 20504 20505 1 119.8800511 375.723200
20503 20504 20513 1 119.8800511 375.723200
20505 20504 20513 1 120.0200517 532.790560
20504 20505 20506 1 121.3800518 83.010560
20504 20505 20507 1 120.0200517 532.790560
20506 20505 20507 1 121.3800518 83.010560
232 20506 233 1 109.50000 418.400000
232 20506 234 1 109.50000 418.400000
232 20506 20505 1 103.70004 836.800000
233 20506 234 1 109.50000 418.400000
233 20506 20505 1 103.70004 836.800000
234 20506 20505 1 103.70004 836.800000
20505 20507 20508 1 119.8800511 375.723200
20505 20507 20509 1 120.0200517 532.790560
20508 20507 20509 1 119.8800511 375.723200
20507 20509 20510 1 119.8800511 375.723200
20507 20509 20511 1 120.0200517 532.790560
20510 20509 20511 1 119.8800511 375.723200
20509 20511 20512 1 119.8800511 375.723200
20509 20511 20513 1 120.0200517 532.790560
20512 20511 20513 1 119.8800511 375.723200
20504 20513 20511 1 120.0200517 532.790560
20504 20513 20514 1 119.8800511 375.723200
20511 20513 20514 1 119.8800511 375.723200
20515 20516 20517 1 119.8800511 375.723200
20515 20516 20525 1 119.8800511 375.723200
20517 20516 20525 1 120.0200517 532.790560
20516 20517 20518 1 121.3800518 83.010560
20516 20517 20519 1 120.0200517 532.790560
20518 20517 20519 1 121.3800518 83.010560
2569 20518 9993 1 109.50000 418.400000
2569 20518 10450 1 109.50000 418.400000
2569 20518 20517 1 103.70004 836.800000
9993 20518 10450 1 109.50000 418.400000
9993 20518 20517 1 103.70004 836.800000
10450 20518 20517 1 103.70004 836.800000
20517 20519 20520 1 119.8800511 375.723200
20517 20519 20521 1 120.0200517 532.790560
20520 20519 20521 1 119.8800511 375.723200
20519 20521 20522 1 119.8800511 375.723200
20519 20521 20523 1 120.0200517 532.790560
20522 20521 20523 1 119.8800511 375.723200
20521 20523 20524 1 119.8800511 375.723200
20521 20523 20525 1 120.0200517 532.790560
20524 20523 20525 1 119.8800511 375.723200
20516 20525 20523 1 120.0200517 532.790560
20516 20525 20526 1 119.8800511 375.723200
20523 20525 20526 1 119.8800511 375.723200
20527 20528 20529 1 119.8800511 375.723200
20527 20528 20537 1 119.8800511 375.723200
20529 20528 20537 1 120.0200517 532.790560
20528 20529 20530 1 121.3800518 83.010560
20528 20529 20531 1 120.0200517 532.790560
20530 20529 20531 1 121.3800518 83.010560
2780 20530 4587 1 109.50000 418.400000
2780 20530 11187 1 109.50000 418.400000
2780 20530 20529 1 103.70004 836.800000
4587 20530 11187 1 109.50000 418.400000
4587 20530 20529 1 103.70004 836.800000
11187 20530 20529 1 103.70004 836.800000
20529 20531 20532 1 119.8800511 375.723200
20529 20531 20533 1 120.0200517 532.790560
20532 20531 20533 1 119.8800511 375.723200
20531 20533 20534 1 119.8800511 375.723200
20531 20533 20535 1 120.0200517 532.790560
20534 20533 20535 1 119.8800511 375.723200
20533 20535 20536 1 119.8800511 375.723200
20533 20535 20537 1 120.0200517 532.790560
20536 20535 20537 1 119.8800511 375.723200
20528 20537 20535 1 120.0200517 532.790560
20528 20537 20538 1 119.8800511 375.723200
20535 20537 20538 1 119.8800511 375.723200
20539 20540 20541 1 119.8800511 375.723200
20539 20540 20549 1 119.8800511 375.723200
20541 20540 20549 1 120.0200517 532.790560
20540 20541 20542 1 121.3800518 83.010560
20540 20541 20543 1 120.0200517 532.790560
20542 20541 20543 1 121.3800518 83.010560
9835 20542 10766 1 109.50000 418.400000
9835 20542 11081 1 109.50000 418.400000
9835 20542 20541 1 103.70004 836.800000
10766 20542 11081 1 109.50000 418.400000
10766 20542 20541 1 103.70004 836.800000
11081 20542 20541 1 103.70004 836.800000
20541 20543 20544 1 119.8800511 375.723200
20541 20543 20545 1 120.0200517 532.790560
20544 20543 20545 1 119.8800511 375.723200
20543 20545 20546 1 119.8800511 375.723200
20543 20545 20547 1 120.0200517 532.790560
20546 20545 20547 1 119.8800511 375.723200
20545 20547 20548 1 119.8800511 375.723200
20545 20547 20549 1 120.0200517 532.790560
20548 20547 20549 1 119.8800511 375.723200
20540 20549 20547 1 120.0200517 532.790560
20540 20549 20550 1 119.8800511 375.723200
20547 20549 20550 1 119.8800511 375.723200
20551 20552 20553 1 119.8800511 375.723200
20551 20552 20561 1 119.8800511 375.723200
20553 20552 20561 1 120.0200517 532.790560
20552 20553 20554 1 121.3800518 83.010560
20552 20553 20555 1 120.0200517 532.790560
20554 20553 20555 1 121.3800518 83.010560
4515 20554 4516 1 109.50000 418.400000
4515 20554 4517 1 109.50000 418.400000
4515 20554 20553 1 103.70004 836.800000
4516 20554 4517 1 109.50000 418.400000
4516 20554 20553 1 103.70004 836.800000
4517 20554 20553 1 103.70004 836.800000
20553 20555 20556 1 119.8800511 375.723200
20553 20555 20557 1 120.0200517 532.790560
20556 20555 20557 1 119.8800511 375.723200
20555 20557 20558 1 119.8800511 375.723200
20555 20557 20559 1 120.0200517 532.790560
20558 20557 20559 1 119.8800511 375.723200
20557 20559 20560 1 119.8800511 375.723200
20557 20559 20561 1 120.0200517 532.790560
20560 20559 20561 1 119.8800511 375.723200
20552 20561 20559 1 120.0200517 532.790560
20552 20561 20562 1 119.8800511 375.723200
20559 20561 20562 1 119.8800511 375.723200
20563 20564 20565 1 119.8800511 375.723200
20563 20564 20573 1 119.8800511 375.723200
20565 20564 20573 1 120.0200517 532.790560
20564 20565 20566 1 121.3800518 83.010560
20564 20565 20567 1 120.0200517 532.790560
20566 20565 20567 1 121.3800518 83.010560
6425 20566 10611 1 109.50000 418.400000
6425 20566 11009 1 109.50000 418.400000
6425 20566 20565 1 103.70004 836.800000
10611 20566 11009 1 109.50000 418.400000
10611 20566 20565 1 103.70004 836.800000
11009 20566 20565 1 103.70004 836.800000
20565 20567 20568 1 119.8800511 375.723200
20565 20567 20569 1 120.0200517 532.790560
20568 20567 20569 1 119.8800511 375.723200
20567 20569 20570 1 119.8800511 375.723200
20567 20569 20571 1 120.0200517 532.790560
20570 20569 20571 1 119.8800511 375.723200
20569 20571 20572 1 119.8800511 375.723200
20569 20571 20573 1 120.0200517 532.790560
20572 20571 20573 1 119.8800511 375.723200
20564 20573 20571 1 120.0200517 532.790560
20564 20573 20574 1 119.8800511 375.723200
20571 20573 20574 1 119.8800511 375.723200
20575 20576 20577 1 119.8800511 375.723200
20575 20576 20585 1 119.8800511 375.723200
20577 20576 20585 1 120.0200517 532.790560
20576 20577 20578 1 121.3800518 83.010560
20576 20577 20579 1 120.0200517 532.790560
20578 20577 20579 1 121.3800518 83.010560
3880 20578 9143 1 109.50000 418.400000
3880 20578 9144 1 109.50000 418.400000
3880 20578 20577 1 103.70004 836.800000
9143 20578 9144 1 109.50000 418.400000
9143 20578 20577 1 103.70004 836.800000
9144 20578 20577 1 103.70004 836.800000
20577 20579 20580 1 119.8800511 375.723200
20577 20579 20581 1 120.0200517 532.790560
20580 20579 20581 1 119.8800511 375.723200
20579 20581 20582 1 119.8800511 375.723200
20579 20581 20583 1 120.0200517 532.790560
20582 20581 20583 1 119.8800511 375.723200
20581 20583 20584 1 119.8800511 375.723200
20581 20583 20585 1 120.0200517 532.790560
20584 20583 20585 1 119.8800511 375.723200
20576 20585 20583 1 120.0200517 532.790560
20576 20585 20586 1 119.8800511 375.723200
20583 20585 20586 1 119.8800511 375.723200
20587 20588 20589 1 119.8800511 375.723200
20587 20588 20597 1 119.8800511 375.723200
20589 20588 20597 1 120.0200517 532.790560
20588 20589 20590 1 121.3800518 83.010560
20588 20589 20591 1 120.0200517 532.790560
20590 20589 20591 1 121.3800518 83.010560
4636 20590 4637 1 109.50000 418.400000
4636 20590 4638 1 109.50000 418.400000
4636 20590 20589 1 103.70004 836.800000
4637 20590 4638 1 109.50000 418.400000
4637 20590 20589 1 103.70004 836.800000
4638 20590 20589 1 103.70004 836.800000
20589 20591 20592 1 119.8800511 375.723200
20589 20591 20593 1 120.0200517 532.790560
20592 20591 20593 1 119.8800511 375.723200
20591 20593 20594 1 119.8800511 375.723200
20591 20593 20595 1 120.0200517 532.790560
20594 20593 20595 1 119.8800511 375.723200
20593 20595 20596 1 119.8800511 375.723200
20593 20595 20597 1 120.0200517 532.790560
20596 20595 20597 1 119.8800511 375.723200
20588 20597 20595 1 120.0200517 532.790560
20588 20597 20598 1 119.8800511 375.723200
20595 20597 20598 1 119.8800511 375.723200
20599 20600 20601 1 119.8800511 375.723200
20599 20600 20609 1 119.8800511 375.723200
20601 20600 20609 1 120.0200517 532.790560
20600 20601 20602 1 121.3800518 83.010560
20600 20601 20603 1 120.0200517 532.790560
20602 20601 20603 1 121.3800518 83.010560
797 20602 798 1 109.50000 418.400000
797 20602 799 1 109.50000 418.400000
797 20602 20601 1 103.70004 836.800000
798 20602 799 1 109.50000 418.400000
798 20602 20601 1 103.70004 836.800000
799 20602 20601 1 103.70004 836.800000
20601 20603 20604 1 119.8800511 375.723200
20601 20603 20605 1 120.0200517 532.790560
20604 20603 20605 1 119.8800511 375.723200
20603 20605 20606 1 119.8800511 375.723200
20603 20605 20607 1 120.0200517 532.790560
20606 20605 20607 1 119.8800511 375.723200
20605 20607 20608 1 119.8800511 375.723200
20605 20607 20609 1 120.0200517 532.790560
20608 20607 20609 1 119.8800511 375.723200
20600 20609 20607 1 120.0200517 532.790560
20600 20609 20610 1 119.8800511 375.723200
20607 20609 20610 1 119.8800511 375.723200
20611 20612 20613 1 119.8800511 375.723200
20611 20612 20621 1 119.8800511 375.723200
20613 20612 20621 1 120.0200517 532.790560
20612 20613 20614 1 121.3800518 83.010560
20612 20613 20615 1 120.0200517 532.790560
20614 20613 20615 1 121.3800518 83.010560
4111 20614 5830 1 109.50000 418.400000
4111 20614 11206 1 109.50000 418.400000
4111 20614 20613 1 103.70004 836.800000
5830 20614 11206 1 109.50000 418.400000
5830 20614 20613 1 103.70004 836.800000
11206 20614 20613 1 103.70004 836.800000
20613 20615 20616 1 119.8800511 375.723200
20613 20615 20617 1 120.0200517 532.790560
20616 20615 20617 1 119.8800511 375.723200
20615 20617 20618 1 119.8800511 375.723200
20615 20617 20619 1 120.0200517 532.790560
20618 20617 20619 1 119.8800511 375.723200
20617 20619 20620 1 119.8800511 375.723200
20617 20619 20621 1 120.0200517 532.790560
20620 20619 20621 1 119.8800511 375.723200
20612 20621 20619 1 120.0200517 532.790560
20612 20621 20622 1 119.8800511 375.723200
20619 20621 20622 1 119.8800511 375.723200
20623 20624 20625 1 119.8800511 375.723200
20623 20624 20633 1 119.8800511 375.723200
20625 20624 20633 1 120.0200517 532.790560
20624 20625 20626 1 121.3800518 83.010560
20624 20625 20627 1 120.0200517 532.790560
20626 20625 20627 1 121.3800518 83.010560
1962 20626 6950 1 109.50000 418.400000
1962 20626 10032 1 109.50000 418.400000
1962 20626 20625 1 103.70004 836.800000
6950 20626 10032 1 109.50000 418.400000
6950 20626 20625 1 103.70004 836.800000
10032 20626 20625 1 103.70004 836.800000
20625 20627 20628 1 119.8800511 375.723200
20625 20627 20629 1 120.0200517 532.790560
20628 20627 20629 1 119.8800511 375.723200
20627 20629 20630 1 119.8800511 375.723200
20627 20629 20631 1 120.0200517 532.790560
20630 20629 20631 1 119.8800511 375.723200
20629 20631 20632 1 119.8800511 375.723200
20629 20631 20633 1 120.0200517 532.790560
20632 20631 20633 1 119.8800511 375.723200
20624 20633 20631 1 120.0200517 532.790560
20624 20633 20634 1 119.8800511 375.723200
20631 20633 20634 1 119.8800511 375.723200
20635 20636 20637 1 119.8800511 375.723200
20635 20636 20645 1 119.8800511 375.723200
20637 20636 20645 1 120.0200517 532.790560
20636 20637 20638 1 121.3800518 83.010560
20636 20637 20639 1 120.0200517 532.790560
20638 20637 20639 1 121.3800518 83.010560
3525 20638 5307 1 109.50000 418.400000
3525 20638 8877 1 109.50000 418.400000
3525 20638 20637 1 103.70004 836.800000
5307 20638 8877 1 109.50000 418.400000
5307 20638 20637 1 103.70004 836.800000
8877 20638 20637 1 103.70004 836.800000
20637 20639 20640 1 119.8800511 375.723200
20637 20639 20641 1 120.0200517 532.790560
20640 20639 20641 1 119.8800511 375.723200
20639 20641 20642 1 119.8800511 375.723200
20639 20641 20643 1 120.0200517 532.790560
20642 20641 20643 1 119.8800511 375.723200
20641 20643 20644 1 119.8800511 375.723200
20641 20643 20645 1 120.0200517 532.790560
20644 20643 20645 1 119.8800511 375.723200
20636 20645 20643 1 120.0200517 532.790560
20636 20645 20646 1 119.8800511 375.723200
20643 20645 20646 1 119.8800511 375.723200
20647 20648 20649 1 119.8800511 375.723200
20647 20648 20657 1 119.8800511 375.723200
20649 20648 20657 1 120.0200517 532.790560
20648 20649 20650 1 121.3800518 83.010560
20648 20649 20651 1 120.0200517 532.790560
20650 20649 20651 1 121.3800518 83.010560
669 20650 670 1 109.50000 418.400000
669 20650 10239 1 109.50000 418.400000
669 20650 20649 1 103.70004 836.800000
670 20650 10239 1 109.50000 418.400000
670 20650 20649 1 103.70004 836.800000
10239 20650 20649 1 103.70004 836.800000
20649 20651 20652 1 119.8800511 375.723200
20649 20651 20653 1 120.0200517 532.790560
20652 20651 20653 1 119.8800511 375.723200
20651 20653 20654 1 119.8800511 375.723200
20651 20653 20655 1 120.0200517 532.790560
20654 20653 20655 1 119.8800511 375.723200
20653 20655 20656 1 119.8800511 375.723200
20653 20655 20657 1 120.0200517 532.790560
20656 20655 20657 1 119.8800511 375.723200
20648 20657 20655 1 120.0200517 532.790560
20648 20657 20658 1 119.8800511 375.723200
20655 20657 20658 1 119.8800511 375.723200
20659 20660 20661 1 119.8800511 375.723200
20659 20660 20669 1 119.8800511 375.723200
20661 20660 20669 1 120.0200517 532.790560
20660 20661 20662 1 121.3800518 83.010560
20660 20661 20663 1 120.0200517 532.790560
20662 20661 20663 1 121.3800518 83.010560
722 20662 8412 1 109.50000 418.400000
722 20662 11278 1 109.50000 418.400000
722 20662 20661 1 103.70004 836.800000
8412 20662 11278 1 109.50000 418.400000
8412 20662 20661 1 103.70004 836.800000
11278 20662 20661 1 103.70004 836.800000
20661 20663 20664 1 119.8800511 375.723200
20661 20663 20665 1 120.0200517 532.790560
20664 20663 20665 1 119.8800511 375.723200
20663 20665 20666 1 119.8800511 375.723200
20663 20665 20667 1 120.0200517 532.790560
20666 20665 20667 1 119.8800511 375.723200
20665 20667 20668 1 119.8800511 375.723200
20665 20667 20669 1 120.0200517 532.790560
20668 20667 20669 1 119.8800511 375.723200
20660 20669 20667 1 120.0200517 532.790560
20660 20669 20670 1 119.8800511 375.723200
20667 20669 20670 1 119.8800511 375.723200
20671 20672 20673 1 119.8800511 375.723200
20671 20672 20681 1 119.8800511 375.723200
20673 20672 20681 1 120.0200517 532.790560
20672 20673 20674 1 121.3800518 83.010560
20672 20673 20675 1 120.0200517 532.790560
20674 20673 20675 1 121.3800518 83.010560
5041 20674 7687 1 109.50000 418.400000
5041 20674 7688 1 109.50000 418.400000
5041 20674 20673 1 103.70004 836.800000
7687 20674 7688 1 109.50000 418.400000
7687 20674 20673 1 103.70004 836.800000
7688 20674 20673 1 103.70004 836.800000
20673 20675 20676 1 119.8800511 375.723200
20673 20675 20677 1 120.0200517 532.790560
20676 20675 20677 1 119.8800511 375.723200
20675 20677 20678 1 119.8800511 375.723200
20675 20677 20679 1 120.0200517 532.790560
20678 20677 20679 1 119.8800511 375.723200
20677 20679 20680 1 119.8800511 375.723200
20677 20679 20681 1 120.0200517 532.790560
20680 20679 20681 1 119.8800511 375.723200
20672 20681 20679 1 120.0200517 532.790560
20672 20681 20682 1 119.8800511 375.723200
20679 20681 20682 1 119.8800511 375.723200
20683 20684 20685 1 119.8800511 375.723200
20683 20684 20693 1 119.8800511 375.723200
20685 20684 20693 1 120.0200517 532.790560
20684 20685 20686 1 121.3800518 83.010560
20684 20685 20687 1 120.0200517 532.790560
20686 20685 20687 1 121.3800518 83.010560
2176 20686 9500 1 109.50000 418.400000
2176 20686 11297 1 109.50000 418.400000
2176 20686 20685 1 103.70004 836.800000
9500 20686 11297 1 109.50000 418.400000
9500 20686 20685 1 103.70004 836.800000
11297 20686 20685 1 103.70004 836.800000
20685 20687 20688 1 119.8800511 375.723200
20685 20687 20689 1 120.0200517 532.790560
20688 20687 20689 1 119.8800511 375.723200
20687 20689 20690 1 119.8800511 375.723200
20687 20689 20691 1 120.0200517 532.790560
20690 20689 20691 1 119.8800511 375.723200
20689 20691 20692 1 119.8800511 375.723200
20689 20691 20693 1 120.0200517 532.790560
20692 20691 20693 1 119.8800511 375.723200
20684 20693 20691 1 120.0200517 532.790560
20684 20693 20694 1 119.8800511 375.723200
20691 20693 20694 1 119.8800511 375.723200
20695 20696 20697 1 119.8800511 375.723200
20695 20696 20705 1 119.8800511 375.723200
20697 20696 20705 1 120.0200517 532.790560
20696 20697 20698 1 121.3800518 83.010560
20696 20697 20699 1 120.0200517 532.790560
20698 20697 20699 1 121.3800518 83.010560
6350 20698 6380 1 109.50000 418.400000
6350 20698 9254 1 109.50000 418.400000
6350 20698 20697 1 103.70004 836.800000
6380 20698 9254 1 109.50000 418.400000
6380 20698 20697 1 103.70004 836.800000
9254 20698 20697 1 103.70004 836.800000
20697 20699 20700 1 119.8800511 375.723200
20697 20699 20701 1 120.0200517 532.790560
20700 20699 20701 1 119.8800511 375.723200
20699 20701 20702 1 119.8800511 375.723200
20699 20701 20703 1 120.0200517 532.790560
20702 20701 20703 1 119.8800511 375.723200
20701 20703 20704 1 119.8800511 375.723200
20701 20703 20705 1 120.0200517 532.790560
20704 20703 20705 1 119.8800511 375.723200
20696 20705 20703 1 120.0200517 532.790560
20696 20705 20706 1 119.8800511 375.723200
20703 20705 20706 1 119.8800511 375.723200
20707 20708 20709 1 119.8800511 375.723200
20707 20708 20717 1 119.8800511 375.723200
20709 20708 20717 1 120.0200517 532.790560
20708 20709 20710 1 121.3800518 83.010560
20708 20709 20711 1 120.0200517 532.790560
20710 20709 20711 1 121.3800518 83.010560
2667 20710 7851 1 109.50000 418.400000
2667 20710 10230 1 109.50000 418.400000
2667 20710 20709 1 103.70004 836.800000
7851 20710 10230 1 109.50000 418.400000
7851 20710 20709 1 103.70004 836.800000
10230 20710 20709 1 103.70004 836.800000
20709 20711 20712 1 119.8800511 375.723200
20709 20711 20713 1 120.0200517 532.790560
20712 20711 20713 1 119.8800511 375.723200
20711 20713 20714 1 119.8800511 375.723200
20711 20713 20715 1 120.0200517 532.790560
20714 20713 20715 1 119.8800511 375.723200
20713 20715 20716 1 119.8800511 375.723200
20713 20715 20717 1 120.0200517 532.790560
20716 20715 20717 1 119.8800511 375.723200
20708 20717 20715 1 120.0200517 532.790560
20708 20717 20718 1 119.8800511 375.723200
20715 20717 20718 1 119.8800511 375.723200
20719 20720 20721 1 119.8800511 375.723200
20719 20720 20729 1 119.8800511 375.723200
20721 20720 20729 1 120.0200517 532.790560
20720 20721 20722 1 121.3800518 83.010560
20720 20721 20723 1 120.0200517 532.790560
20722 20721 20723 1 121.3800518 83.010560
3223 20722 9139 1 109.50000 418.400000
3223 20722 9140 1 109.50000 418.400000
3223 20722 20721 1 103.70004 836.800000
9139 20722 9140 1 109.50000 418.400000
9139 20722 20721 1 103.70004 836.800000
9140 20722 20721 1 103.70004 836.800000
20721 20723 20724 1 119.8800511 375.723200
20721 20723 20725 1 120.0200517 532.790560
20724 20723 20725 1 119.8800511 375.723200
20723 20725 20726 1 119.8800511 375.723200
20723 20725 20727 1 120.0200517 532.790560
20726 20725 20727 1 119.8800511 375.723200
20725 20727 20728 1 119.8800511 375.723200
20725 20727 20729 1 120.0200517 532.790560
20728 20727 20729 1 119.8800511 375.723200
20720 20729 20727 1 120.0200517 532.790560
20720 20729 20730 1 119.8800511 375.723200
20727 20729 20730 1 119.8800511 375.723200
20731 20732 20733 1 119.8800511 375.723200
20731 20732 20741 1 119.8800511 375.723200
20733 20732 20741 1 120.0200517 532.790560
20732 20733 20734 1 121.3800518 83.010560
20732 20733 20735 1 120.0200517 532.790560
20734 20733 20735 1 121.3800518 83.010560
980 20734 4224 1 109.50000 418.400000
980 20734 5829 1 109.50000 418.400000
980 20734 20733 1 103.70004 836.800000
4224 20734 5829 1 109.50000 418.400000
4224 20734 20733 1 103.70004 836.800000
5829 20734 20733 1 103.70004 836.800000
20733 20735 20736 1 119.8800511 375.723200
20733 20735 20737 1 120.0200517 532.790560
20736 20735 20737 1 119.8800511 375.723200
20735 20737 20738 1 119.8800511 375.723200
20735 20737 20739 1 120.0200517 532.790560
20738 20737 20739 1 119.8800511 375.723200
20737 20739 20740 1 119.8800511 375.723200
20737 20739 20741 1 120.0200517 532.790560
20740 20739 20741 1 119.8800511 375.723200
20732 20741 20739 1 120.0200517 532.790560
20732 20741 20742 1 119.8800511 375.723200
20739 20741 20742 1 119.8800511 375.723200
20743 20744 20745 1 119.8800511 375.723200
20743 20744 20753 1 119.8800511 375.723200
20745 20744 20753 1 120.0200517 532.790560
20744 20745 20746 1 121.3800518 83.010560
20744 20745 20747 1 120.0200517 532.790560
20746 20745 20747 1 121.3800518 83.010560
718 20746 4028 1 109.50000 418.400000
718 20746 4029 1 109.50000 418.400000
718 20746 20745 1 103.70004 836.800000
4028 20746 4029 1 109.50000 418.400000
4028 20746 20745 1 103.70004 836.800000
4029 20746 20745 1 103.70004 836.800000
20745 20747 20748 1 119.8800511 375.723200
20745 20747 20749 1 120.0200517 532.790560
20748 20747 20749 1 119.8800511 375.723200
20747 20749 20750 1 119.8800511 375.723200
20747 20749 20751 1 120.0200517 532.790560
20750 20749 20751 1 119.8800511 375.723200
20749 20751 20752 1 119.8800511 375.723200
20749 20751 20753 1 120.0200517 532.790560
20752 20751 20753 1 119.8800511 375.723200
20744 20753 20751 1 120.0200517 532.790560
20744 20753 20754 1 119.8800511 375.723200
20751 20753 20754 1 119.8800511 375.723200
20755 20756 20757 1 119.8800511 375.723200
20755 20756 20765 1 119.8800511 375.723200
20757 20756 20765 1 120.0200517 532.790560
20756 20757 20758 1 121.3800518 83.010560
20756 20757 20759 1 120.0200517 532.790560
20758 20757 20759 1 121.3800518 83.010560
481 20758 482 1 109.50000 418.400000
481 20758 5325 1 109.50000 418.400000
481 20758 20757 1 103.70004 836.800000
482 20758 5325 1 109.50000 418.400000
482 20758 20757 1 103.70004 836.800000
5325 20758 20757 1 103.70004 836.800000
20757 20759 20760 1 119.8800511 375.723200
20757 20759 20761 1 120.0200517 532.790560
20760 20759 20761 1 119.8800511 375.723200
20759 20761 20762 1 119.8800511 375.723200
20759 20761 20763 1 120.0200517 532.790560
20762 20761 20763 1 119.8800511 375.723200
20761 20763 20764 1 119.8800511 375.723200
20761 20763 20765 1 120.0200517 532.790560
20764 20763 20765 1 119.8800511 375.723200
20756 20765 20763 1 120.0200517 532.790560
20756 20765 20766 1 119.8800511 375.723200
20763 20765 20766 1 119.8800511 375.723200
20767 20768 20769 1 119.8800511 375.723200
20767 20768 20777 1 119.8800511 375.723200
20769 20768 20777 1 120.0200517 532.790560
20768 20769 20770 1 121.3800518 83.010560
20768 20769 20771 1 120.0200517 532.790560
20770 20769 20771 1 121.3800518 83.010560
239 20770 3133 1 109.50000 418.400000
239 20770 8794 1 109.50000 418.400000
239 20770 20769 1 103.70004 836.800000
3133 20770 8794 1 109.50000 418.400000
3133 20770 20769 1 103.70004 836.800000
8794 20770 20769 1 103.70004 836.800000
20769 20771 20772 1 119.8800511 375.723200
20769 20771 20773 1 120.0200517 532.790560
20772 20771 20773 1 119.8800511 375.723200
20771 20773 20774 1 119.8800511 375.723200
20771 20773 20775 1 120.0200517 532.790560
20774 20773 20775 1 119.8800511 375.723200
20773 20775 20776 1 119.8800511 375.723200
20773 20775 20777 1 120.0200517 532.790560
20776 20775 20777 1 119.8800511 375.723200
20768 20777 20775 1 120.0200517 532.790560
20768 20777 20778 1 119.8800511 375.723200
20775 20777 20778 1 119.8800511 375.723200
20779 20780 20781 1 119.8800511 375.723200
20779 20780 20789 1 119.8800511 375.723200
20781 20780 20789 1 120.0200517 532.790560
20780 20781 20782 1 121.3800518 83.010560
20780 20781 20783 1 120.0200517 532.790560
20782 20781 20783 1 121.3800518 83.010560
3105 20782 10560 1 109.50000 418.400000
3105 20782 10561 1 109.50000 418.400000
3105 20782 20781 1 103.70004 836.800000
10560 20782 10561 1 109.50000 418.400000
10560 20782 20781 1 103.70004 836.800000
10561 20782 20781 1 103.70004 836.800000
20781 20783 20784 1 119.8800511 375.723200
20781 20783 20785 1 120.0200517 532.790560
20784 20783 20785 1 119.8800511 375.723200
20783 20785 20786 1 119.8800511 375.723200
20783 20785 20787 1 120.0200517 532.790560
20786 20785 20787 1 119.8800511 375.723200
20785 20787 20788 1 119.8800511 375.723200
20785 20787 20789 1 120.0200517 532.790560
20788 20787 20789 1 119.8800511 375.723200
20780 20789 20787 1 120.0200517 532.790560
20780 20789 20790 1 119.8800511 375.723200
20787 20789 20790 1 119.8800511 375.723200
20791 20792 20793 1 119.8800511 375.723200
20791 20792 20801 1 119.8800511 375.723200
20793 20792 20801 1 120.0200517 532.790560
20792 20793 20794 1 121.3800518 83.010560
20792 20793 20795 1 120.0200517 532.790560
20794 20793 20795 1 121.3800518 83.010560
1634 20794 1635 1 109.50000 418.400000
1634 20794 1636 1 109.50000 418.400000
1634 20794 20793 1 103.70004 836.800000
1635 20794 1636 1 109.50000 418.400000
1635 20794 20793 1 103.70004 836.800000
1636 20794 20793 1 103.70004 836.800000
20793 20795 20796 1 119.8800511 375.723200
20793 20795 20797 1 120.0200517 532.790560
20796 20795 20797 1 119.8800511 375.723200
20795 20797 20798 1 119.8800511 375.723200
20795 20797 20799 1 120.0200517 532.790560
20798 20797 20799 1 119.8800511 375.723200
20797 20799 20800 1 119.8800511 375.723200
20797 20799 20801 1 120.0200517 532.790560
20800 20799 20801 1 119.8800511 375.723200
20792 20801 20799 1 120.0200517 532.790560
20792 20801 20802 1 119.8800511 375.723200
20799 20801 20802 1 119.8800511 375.723200
20803 20804 20805 1 119.8800511 375.723200
20803 20804 20813 1 119.8800511 375.723200
20805 20804 20813 1 120.0200517 532.790560
20804 20805 20806 1 121.3800518 83.010560
20804 20805 20807 1 120.0200517 532.790560
20806 20805 20807 1 121.3800518 83.010560
1036 20806 1073 1 109.50000 418.400000
1036 20806 1727 1 109.50000 418.400000
1036 20806 20805 1 103.70004 836.800000
1073 20806 1727 1 109.50000 418.400000
1073 20806 20805 1 103.70004 836.800000
1727 20806 20805 1 103.70004 836.800000
20805 20807 20808 1 119.8800511 375.723200
20805 20807 20809 1 120.0200517 532.790560
20808 20807 20809 1 119.8800511 375.723200
20807 20809 20810 1 119.8800511 375.723200
20807 20809 20811 1 120.0200517 532.790560
20810 20809 20811 1 119.8800511 375.723200
20809 20811 20812 1 119.8800511 375.723200
20809 20811 20813 1 120.0200517 532.790560
20812 20811 20813 1 119.8800511 375.723200
20804 20813 20811 1 120.0200517 532.790560
20804 20813 20814 1 119.8800511 375.723200
20811 20813 20814 1 119.8800511 375.723200
20815 20816 20817 1 119.8800511 375.723200
20815 20816 20825 1 119.8800511 375.723200
20817 20816 20825 1 120.0200517 532.790560
20816 20817 20818 1 121.3800518 83.010560
20816 20817 20819 1 120.0200517 532.790560
20818 20817 20819 1 121.3800518 83.010560
274 20818 4813 1 109.50000 418.400000
274 20818 4814 1 109.50000 418.400000
274 20818 20817 1 103.70004 836.800000
4813 20818 4814 1 109.50000 418.400000
4813 20818 20817 1 103.70004 836.800000
4814 20818 20817 1 103.70004 836.800000
20817 20819 20820 1 119.8800511 375.723200
20817 20819 20821 1 120.0200517 532.790560
20820 20819 20821 1 119.8800511 375.723200
20819 20821 20822 1 119.8800511 375.723200
20819 20821 20823 1 120.0200517 532.790560
20822 20821 20823 1 119.8800511 375.723200
20821 20823 20824 1 119.8800511 375.723200
20821 20823 20825 1 120.0200517 532.790560
20824 20823 20825 1 119.8800511 375.723200
20816 20825 20823 1 120.0200517 532.790560
20816 20825 20826 1 119.8800511 375.723200
20823 20825 20826 1 119.8800511 375.723200
20827 20828 20829 1 119.8800511 375.723200
20827 20828 20837 1 119.8800511 375.723200
20829 20828 20837 1 120.0200517 532.790560
20828 20829 20830 1 121.3800518 83.010560
20828 20829 20831 1 120.0200517 532.790560
20830 20829 20831 1 121.3800518 83.010560
6836 20830 8237 1 109.50000 418.400000
6836 20830 8908 1 109.50000 418.400000
6836 20830 20829 1 103.70004 836.800000
8237 20830 8908 1 109.50000 418.400000
8237 20830 20829 1 103.70004 836.800000
8908 20830 20829 1 103.70004 836.800000
20829 20831 20832 1 119.8800511 375.723200
20829 20831 20833 1 120.0200517 532.790560
20832 20831 20833 1 119.8800511 375.723200
20831 20833 20834 1 119.8800511 375.723200
20831 20833 20835 1 120.0200517 532.790560
20834 20833 20835 1 119.8800511 375.723200
20833 20835 20836 1 119.8800511 375.723200
20833 20835 20837 1 120.0200517 532.790560
20836 20835 20837 1 119.8800511 375.723200
20828 20837 20835 1 120.0200517 532.790560
20828 20837 20838 1 119.8800511 375.723200
20835 20837 20838 1 119.8800511 375.723200
20839 20840 20841 1 119.8800511 375.723200
20839 20840 20849 1 119.8800511 375.723200
20841 20840 20849 1 120.0200517 532.790560
20840 20841 20842 1 121.3800518 83.010560
20840 20841 20843 1 120.0200517 532.790560
20842 20841 20843 1 121.3800518 83.010560
1154 20842 5979 1 109.50000 418.400000
1154 20842 5980 1 109.50000 418.400000
1154 20842 20841 1 103.70004 836.800000
5979 20842 5980 1 109.50000 418.400000
5979 20842 20841 1 103.70004 836.800000
5980 20842 20841 1 103.70004 836.800000
20841 20843 20844 1 119.8800511 375.723200
20841 20843 20845 1 120.0200517 532.790560
20844 20843 20845 1 119.8800511 375.723200
20843 20845 20846 1 119.8800511 375.723200
20843 20845 20847 1 120.0200517 532.790560
20846 20845 20847 1 119.8800511 375.723200
20845 20847 20848 1 119.8800511 375.723200
20845 20847 20849 1 120.0200517 532.790560
20848 20847 20849 1 119.8800511 375.723200
20840 20849 20847 1 120.0200517 532.790560
20840 20849 20850 1 119.8800511 375.723200
20847 20849 20850 1 119.8800511 375.723200
20851 20852 20853 1 119.8800511 375.723200
20851 20852 20861 1 119.8800511 375.723200
20853 20852 20861 1 120.0200517 532.790560
20852 20853 20854 1 121.3800518 83.010560
20852 20853 20855 1 120.0200517 532.790560
20854 20853 20855 1 121.3800518 83.010560
3927 20854 4809 1 109.50000 418.400000
3927 20854 5287 1 109.50000 418.400000
3927 20854 20853 1 103.70004 836.800000
4809 20854 5287 1 109.50000 418.400000
4809 20854 20853 1 103.70004 836.800000
5287 20854 20853 1 103.70004 836.800000
20853 20855 20856 1 119.8800511 375.723200
20853 20855 20857 1 120.0200517 532.790560
20856 20855 20857 1 119.8800511 375.723200
20855 20857 20858 1 119.8800511 375.723200
20855 20857 20859 1 120.0200517 532.790560
20858 20857 20859 1 119.8800511 375.723200
20857 20859 20860 1 119.8800511 375.723200
20857 20859 20861 1 120.0200517 532.790560
20860 20859 20861 1 119.8800511 375.723200
20852 20861 20859 1 120.0200517 532.790560
20852 20861 20862 1 119.8800511 375.723200
20859 20861 20862 1 119.8800511 375.723200
20863 20864 20865 1 119.8800511 375.723200
20863 20864 20873 1 119.8800511 375.723200
20865 20864 20873 1 120.0200517 532.790560
20864 20865 20866 1 121.3800518 83.010560
20864 20865 20867 1 120.0200517 532.790560
20866 20865 20867 1 121.3800518 83.010560
1541 20866 1542 1 109.50000 418.400000
1541 20866 11270 1 109.50000 418.400000
1541 20866 20865 1 103.70004 836.800000
1542 20866 11270 1 109.50000 418.400000
1542 20866 20865 1 103.70004 836.800000
11270 20866 20865 1 103.70004 836.800000
20865 20867 20868 1 119.8800511 375.723200
20865 20867 20869 1 120.0200517 532.790560
20868 20867 20869 1 119.8800511 375.723200
20867 20869 20870 1 119.8800511 375.723200
20867 20869 20871 1 120.0200517 532.790560
20870 20869 20871 1 119.8800511 375.723200
20869 20871 20872 1 119.8800511 375.723200
20869 20871 20873 1 120.0200517 532.790560
20872 20871 20873 1 119.8800511 375.723200
20864 20873 20871 1 120.0200517 532.790560
20864 20873 20874 1 119.8800511 375.723200
20871 20873 20874 1 119.8800511 375.723200
20875 20876 20877 1 119.8800511 375.723200
20875 20876 20885 1 119.8800511 375.723200
20877 20876 20885 1 120.0200517 532.790560
20876 20877 20878 1 121.3800518 83.010560
20876 20877 20879 1 120.0200517 532.790560
20878 20877 20879 1 121.3800518 83.010560
245 20878 1120 1 109.50000 418.400000
245 20878 10790 1 109.50000 418.400000
245 20878 20877 1 103.70004 836.800000
1120 20878 10790 1 109.50000 418.400000
1120 20878 20877 1 103.70004 836.800000
10790 20878 20877 1 103.70004 836.800000
20877 20879 20880 1 119.8800511 375.723200
20877 20879 20881 1 120.0200517 532.790560
20880 20879 20881 1 119.8800511 375.723200
20879 20881 20882 1 119.8800511 375.723200
20879 20881 20883 1 120.0200517 532.790560
20882 20881 20883 1 119.8800511 375.723200
20881 20883 20884 1 119.8800511 375.723200
20881 20883 20885 1 120.0200517 532.790560
20884 20883 20885 1 119.8800511 375.723200
20876 20885 20883 1 120.0200517 532.790560
20876 20885 20886 1 119.8800511 375.723200
20883 20885 20886 1 119.8800511 375.723200
20887 20888 20889 1 119.8800511 375.723200
20887 20888 20897 1 119.8800511 375.723200
20889 20888 20897 1 120.0200517 532.790560
20888 20889 20890 1 121.3800518 83.010560
20888 20889 20891 1 120.0200517 532.790560
20890 20889 20891 1 121.3800518 83.010560
1034 20890 1035 1 109.50000 418.400000
1034 20890 5178 1 109.50000 418.400000
1034 20890 20889 1 103.70004 836.800000
1035 20890 5178 1 109.50000 418.400000
1035 20890 20889 1 103.70004 836.800000
5178 20890 20889 1 103.70004 836.800000
20889 20891 20892 1 119.8800511 375.723200
20889 20891 20893 1 120.0200517 532.790560
20892 20891 20893 1 119.8800511 375.723200
20891 20893 20894 1 119.8800511 375.723200
20891 20893 20895 1 120.0200517 532.790560
20894 20893 20895 1 119.8800511 375.723200
20893 20895 20896 1 119.8800511 375.723200
20893 20895 20897 1 120.0200517 532.790560
20896 20895 20897 1 119.8800511 375.723200
20888 20897 20895 1 120.0200517 532.790560
20888 20897 20898 1 119.8800511 375.723200
20895 20897 20898 1 119.8800511 375.723200
20899 20900 20901 1 119.8800511 375.723200
20899 20900 20909 1 119.8800511 375.723200
20901 20900 20909 1 120.0200517 532.790560
20900 20901 20902 1 121.3800518 83.010560
20900 20901 20903 1 120.0200517 532.790560
20902 20901 20903 1 121.3800518 83.010560
6224 20902 8657 1 109.50000 418.400000
6224 20902 8658 1 109.50000 418.400000
6224 20902 20901 1 103.70004 836.800000
8657 20902 8658 1 109.50000 418.400000
8657 20902 20901 1 103.70004 836.800000
8658 20902 20901 1 103.70004 836.800000
20901 20903 20904 1 119.8800511 375.723200
20901 20903 20905 1 120.0200517 532.790560
20904 20903 20905 1 119.8800511 375.723200
20903 20905 20906 1 119.8800511 375.723200
20903 20905 20907 1 120.0200517 532.790560
20906 20905 20907 1 119.8800511 375.723200
20905 20907 20908 1 119.8800511 375.723200
20905 20907 20909 1 120.0200517 532.790560
20908 20907 20909 1 119.8800511 375.723200
20900 20909 20907 1 120.0200517 532.790560
20900 20909 20910 1 119.8800511 375.723200
20907 20909 20910 1 119.8800511 375.723200
20911 20912 20913 1 119.8800511 375.723200
20911 20912 20921 1 119.8800511 375.723200
20913 20912 20921 1 120.0200517 532.790560
20912 20913 20914 1 121.3800518 83.010560
20912 20913 20915 1 120.0200517 532.790560
20914 20913 20915 1 121.3800518 83.010560
1259 20914 10795 1 109.50000 418.400000
1259 20914 11222 1 109.50000 418.400000
1259 20914 20913 1 103.70004 836.800000
10795 20914 11222 1 109.50000 418.400000
10795 20914 20913 1 103.70004 836.800000
11222 20914 20913 1 103.70004 836.800000
20913 20915 20916 1 119.8800511 375.723200
20913 20915 20917 1 120.0200517 532.790560
20916 20915 20917 1 119.8800511 375.723200
20915 20917 20918 1 119.8800511 375.723200
20915 20917 20919 1 120.0200517 532.790560
20918 20917 20919 1 119.8800511 375.723200
20917 20919 20920 1 119.8800511 375.723200
20917 20919 20921 1 120.0200517 532.790560
20920 20919 20921 1 119.8800511 375.723200
20912 20921 20919 1 120.0200517 532.790560
20912 20921 20922 1 119.8800511 375.723200
20919 20921 20922 1 119.8800511 375.723200
20923 20924 20925 1 119.8800511 375.723200
20923 20924 20933 1 119.8800511 375.723200
20925 20924 20933 1 120.0200517 532.790560
20924 20925 20926 1 121.3800518 83.010560
20924 20925 20927 1 120.0200517 532.790560
20926 20925 20927 1 121.3800518 83.010560
3676 20926 3677 1 109.50000 418.400000
3676 20926 11169 1 109.50000 418.400000
3676 20926 20925 1 103.70004 836.800000
3677 20926 11169 1 109.50000 418.400000
3677 20926 20925 1 103.70004 836.800000
11169 20926 20925 1 103.70004 836.800000
20925 20927 20928 1 119.8800511 375.723200
20925 20927 20929 1 120.0200517 532.790560
20928 20927 20929 1 119.8800511 375.723200
20927 20929 20930 1 119.8800511 375.723200
20927 20929 20931 1 120.0200517 532.790560
20930 20929 20931 1 119.8800511 375.723200
20929 20931 20932 1 119.8800511 375.723200
20929 20931 20933 1 120.0200517 532.790560
20932 20931 20933 1 119.8800511 375.723200
20924 20933 20931 1 120.0200517 532.790560
20924 20933 20934 1 119.8800511 375.723200
20931 20933 20934 1 119.8800511 375.723200
20935 20936 20937 1 119.8800511 375.723200
20935 20936 20945 1 119.8800511 375.723200
20937 20936 20945 1 120.0200517 532.790560
20936 20937 20938 1 121.3800518 83.010560
20936 20937 20939 1 120.0200517 532.790560
20938 20937 20939 1 121.3800518 83.010560
3525 20938 3526 1 109.50000 418.400000
3525 20938 3527 1 109.50000 418.400000
3525 20938 20937 1 103.70004 836.800000
3526 20938 3527 1 109.50000 418.400000
3526 20938 20937 1 103.70004 836.800000
3527 20938 20937 1 103.70004 836.800000
20937 20939 20940 1 119.8800511 375.723200
20937 20939 20941 1 120.0200517 532.790560
20940 20939 20941 1 119.8800511 375.723200
20939 20941 20942 1 119.8800511 375.723200
20939 20941 20943 1 120.0200517 532.790560
20942 20941 20943 1 119.8800511 375.723200
20941 20943 20944 1 119.8800511 375.723200
20941 20943 20945 1 120.0200517 532.790560
20944 20943 20945 1 119.8800511 375.723200
20936 20945 20943 1 120.0200517 532.790560
20936 20945 20946 1 119.8800511 375.723200
20943 20945 20946 1 119.8800511 375.723200
20947 20948 20949 1 119.8800511 375.723200
20947 20948 20957 1 119.8800511 375.723200
20949 20948 20957 1 120.0200517 532.790560
20948 20949 20950 1 121.3800518 83.010560
20948 20949 20951 1 120.0200517 532.790560
20950 20949 20951 1 121.3800518 83.010560
6997 20950 8822 1 109.50000 418.400000
6997 20950 10551 1 109.50000 418.400000
6997 20950 20949 1 103.70004 836.800000
8822 20950 10551 1 109.50000 418.400000
8822 20950 20949 1 103.70004 836.800000
10551 20950 20949 1 103.70004 836.800000
20949 20951 20952 1 119.8800511 375.723200
20949 20951 20953 1 120.0200517 532.790560
20952 20951 20953 1 119.8800511 375.723200
20951 20953 20954 1 119.8800511 375.723200
20951 20953 20955 1 120.0200517 532.790560
20954 20953 20955 1 119.8800511 375.723200
20953 20955 20956 1 119.8800511 375.723200
20953 20955 20957 1 120.0200517 532.790560
20956 20955 20957 1 119.8800511 375.723200
20948 20957 20955 1 120.0200517 532.790560
20948 20957 20958 1 119.8800511 375.723200
20955 20957 20958 1 119.8800511 375.723200
20959 20960 20961 1 119.8800511 375.723200
20959 20960 20969 1 119.8800511 375.723200
20961 20960 20969 1 120.0200517 532.790560
20960 20961 20962 1 121.3800518 83.010560
20960 20961 20963 1 120.0200517 532.790560
20962 20961 20963 1 121.3800518 83.010560
232 20962 6232 1 109.50000 418.400000
232 20962 9388 1 109.50000 418.400000
232 20962 20961 1 103.70004 836.800000
6232 20962 9388 1 109.50000 418.400000
6232 20962 20961 1 103.70004 836.800000
9388 20962 20961 1 103.70004 836.800000
20961 20963 20964 1 119.8800511 375.723200
20961 20963 20965 1 120.0200517 532.790560
20964 20963 20965 1 119.8800511 375.723200
20963 20965 20966 1 119.8800511 375.723200
20963 20965 20967 1 120.0200517 532.790560
20966 20965 20967 1 119.8800511 375.723200
20965 20967 20968 1 119.8800511 375.723200
20965 20967 20969 1 120.0200517 532.790560
20968 20967 20969 1 119.8800511 375.723200
20960 20969 20967 1 120.0200517 532.790560
20960 20969 20970 1 119.8800511 375.723200
20967 20969 20970 1 119.8800511 375.723200
20971 20972 20973 1 119.8800511 375.723200
20971 20972 20981 1 119.8800511 375.723200
20973 20972 20981 1 120.0200517 532.790560
20972 20973 20974 1 121.3800518 83.010560
20972 20973 20975 1 120.0200517 532.790560
20974 20973 20975 1 121.3800518 83.010560
3549 20974 7805 1 109.50000 418.400000
3549 20974 7806 1 109.50000 418.400000
3549 20974 20973 1 103.70004 836.800000
7805 20974 7806 1 109.50000 418.400000
7805 20974 20973 1 103.70004 836.800000
7806 20974 20973 1 103.70004 836.800000
20973 20975 20976 1 119.8800511 375.723200
20973 20975 20977 1 120.0200517 532.790560
20976 20975 20977 1 119.8800511 375.723200
20975 20977 20978 1 119.8800511 375.723200
20975 20977 20979 1 120.0200517 532.790560
20978 20977 20979 1 119.8800511 375.723200
20977 20979 20980 1 119.8800511 375.723200
20977 20979 20981 1 120.0200517 532.790560
20980 20979 20981 1 119.8800511 375.723200
20972 20981 20979 1 120.0200517 532.790560
20972 20981 20982 1 119.8800511 375.723200
20979 20981 20982 1 119.8800511 375.723200
20983 20984 20985 1 119.8800511 375.723200
20983 20984 20993 1 119.8800511 375.723200
20985 20984 20993 1 120.0200517 532.790560
20984 20985 20986 1 121.3800518 83.010560
20984 20985 20987 1 120.0200517 532.790560
20986 20985 20987 1 121.3800518 83.010560
2584 20986 3644 1 109.50000 418.400000
2584 20986 3645 1 109.50000 418.400000
2584 20986 20985 1 103.70004 836.800000
3644 20986 3645 1 109.50000 418.400000
3644 20986 20985 1 103.70004 836.800000
3645 20986 20985 1 103.70004 836.800000
20985 20987 20988 1 119.8800511 375.723200
20985 20987 20989 1 120.0200517 532.790560
20988 20987 20989 1 119.8800511 375.723200
20987 20989 20990 1 119.8800511 375.723200
20987 20989 20991 1 120.0200517 532.790560
20990 20989 20991 1 119.8800511 375.723200
20989 20991 20992 1 119.8800511 375.723200
20989 20991 20993 1 120.0200517 532.790560
20992 20991 20993 1 119.8800511 375.723200
20984 20993 20991 1 120.0200517 532.790560
20984 20993 20994 1 119.8800511 375.723200
20991 20993 20994 1 119.8800511 375.723200
20995 20996 20997 1 119.8800511 375.723200
20995 20996 21005 1 119.8800511 375.723200
20997 20996 21005 1 120.0200517 532.790560
20996 20997 20998 1 121.3800518 83.010560
20996 20997 20999 1 120.0200517 532.790560
20998 20997 20999 1 121.3800518 83.010560
943 20998 8371 1 109.50000 418.400000
943 20998 11246 1 109.50000 418.400000
943 20998 20997 1 103.70004 836.800000
8371 20998 11246 1 109.50000 418.400000
8371 20998 20997 1 103.70004 836.800000
11246 20998 20997 1 103.70004 836.800000
20997 20999 21000 1 119.8800511 375.723200
20997 20999 21001 1 120.0200517 532.790560
21000 20999 21001 1 119.8800511 375.723200
20999 21001 21002 1 119.8800511 375.723200
20999 21001 21003 1 120.0200517 532.790560
21002 21001 21003 1 119.8800511 375.723200
21001 21003 21004 1 119.8800511 375.723200
21001 21003 21005 1 120.0200517 532.790560
21004 21003 21005 1 119.8800511 375.723200
20996 21005 21003 1 120.0200517 532.790560
20996 21005 21006 1 119.8800511 375.723200
21003 21005 21006 1 119.8800511 375.723200
21007 21008 21009 1 119.8800511 375.723200
21007 21008 21017 1 119.8800511 375.723200
21009 21008 21017 1 120.0200517 532.790560
21008 21009 21010 1 121.3800518 83.010560
21008 21009 21011 1 120.0200517 532.790560
21010 21009 21011 1 121.3800518 83.010560
1685 21010 7198 1 109.50000 418.400000
1685 21010 10902 1 109.50000 418.400000
1685 21010 21009 1 103.70004 836.800000
7198 21010 10902 1 109.50000 418.400000
7198 21010 21009 1 103.70004 836.800000
10902 21010 21009 1 103.70004 836.800000
21009 21011 21012 1 119.8800511 375.723200
21009 21011 21013 1 120.0200517 532.790560
21012 21011 21013 1 119.8800511 375.723200
21011 21013 21014 1 119.8800511 375.723200
21011 21013 21015 1 120.0200517 532.790560
21014 21013 21015 1 119.8800511 375.723200
21013 21015 21016 1 119.8800511 375.723200
21013 21015 21017 1 120.0200517 532.790560
21016 21015 21017 1 119.8800511 375.723200
21008 21017 21015 1 120.0200517 532.790560
21008 21017 21018 1 119.8800511 375.723200
21015 21017 21018 1 119.8800511 375.723200
21019 21020 21021 1 119.8800511 375.723200
21019 21020 21029 1 119.8800511 375.723200
21021 21020 21029 1 120.0200517 532.790560
21020 21021 21022 1 121.3800518 83.010560
21020 21021 21023 1 120.0200517 532.790560
21022 21021 21023 1 121.3800518 83.010560
7399 21022 7400 1 109.50000 418.400000
7399 21022 11250 1 109.50000 418.400000
7399 21022 21021 1 103.70004 836.800000
7400 21022 11250 1 109.50000 418.400000
7400 21022 21021 1 103.70004 836.800000
11250 21022 21021 1 103.70004 836.800000
21021 21023 21024 1 119.8800511 375.723200
21021 21023 21025 1 120.0200517 532.790560
21024 21023 21025 1 119.8800511 375.723200
21023 21025 21026 1 119.8800511 375.723200
21023 21025 21027 1 120.0200517 532.790560
21026 21025 21027 1 119.8800511 375.723200
21025 21027 21028 1 119.8800511 375.723200
21025 21027 21029 1 120.0200517 532.790560
21028 21027 21029 1 119.8800511 375.723200
21020 21029 21027 1 120.0200517 532.790560
21020 21029 21030 1 119.8800511 375.723200
21027 21029 21030 1 119.8800511 375.723200
21031 21032 21033 1 119.8800511 375.723200
21031 21032 21041 1 119.8800511 375.723200
21033 21032 21041 1 120.0200517 532.790560
21032 21033 21034 1 121.3800518 83.010560
21032 21033 21035 1 120.0200517 532.790560
21034 21033 21035 1 121.3800518 83.010560
75 21034 9011 1 109.50000 418.400000
75 21034 9012 1 109.50000 418.400000
75 21034 21033 1 103.70004 836.800000
9011 21034 9012 1 109.50000 418.400000
9011 21034 21033 1 103.70004 836.800000
9012 21034 21033 1 103.70004 836.800000
21033 21035 21036 1 119.8800511 375.723200
21033 21035 21037 1 120.0200517 532.790560
21036 21035 21037 1 119.8800511 375.723200
21035 21037 21038 1 119.8800511 375.723200
21035 21037 21039 1 120.0200517 532.790560
21038 21037 21039 1 119.8800511 375.723200
21037 21039 21040 1 119.8800511 375.723200
21037 21039 21041 1 120.0200517 532.790560
21040 21039 21041 1 119.8800511 375.723200
21032 21041 21039 1 120.0200517 532.790560
21032 21041 21042 1 119.8800511 375.723200
21039 21041 21042 1 119.8800511 375.723200
21043 21044 21045 1 119.8800511 375.723200
21043 21044 21053 1 119.8800511 375.723200
21045 21044 21053 1 120.0200517 532.790560
21044 21045 21046 1 121.3800518 83.010560
21044 21045 21047 1 120.0200517 532.790560
21046 21045 21047 1 121.3800518 83.010560
3035 21046 7636 1 109.50000 418.400000
3035 21046 11154 1 109.50000 418.400000
3035 21046 21045 1 103.70004 836.800000
7636 21046 11154 1 109.50000 418.400000
7636 21046 21045 1 103.70004 836.800000
11154 21046 21045 1 103.70004 836.800000
21045 21047 21048 1 119.8800511 375.723200
21045 21047 21049 1 120.0200517 532.790560
21048 21047 21049 1 119.8800511 375.723200
21047 21049 21050 1 119.8800511 375.723200
21047 21049 21051 1 120.0200517 532.790560
21050 21049 21051 1 119.8800511 375.723200
21049 21051 21052 1 119.8800511 375.723200
21049 21051 21053 1 120.0200517 532.790560
21052 21051 21053 1 119.8800511 375.723200
21044 21053 21051 1 120.0200517 532.790560
21044 21053 21054 1 119.8800511 375.723200
21051 21053 21054 1 119.8800511 375.723200
21055 21056 21057 1 119.8800511 375.723200
21055 21056 21065 1 119.8800511 375.723200
21057 21056 21065 1 120.0200517 532.790560
21056 21057 21058 1 121.3800518 83.010560
21056 21057 21059 1 120.0200517 532.790560
21058 21057 21059 1 121.3800518 83.010560
518 21058 519 1 109.50000 418.400000
518 21058 520 1 109.50000 418.400000
518 21058 21057 1 103.70004 836.800000
519 21058 520 1 109.50000 418.400000
519 21058 21057 1 103.70004 836.800000
520 21058 21057 1 103.70004 836.800000
21057 21059 21060 1 119.8800511 375.723200
21057 21059 21061 1 120.0200517 532.790560
21060 21059 21061 1 119.8800511 375.723200
21059 21061 21062 1 119.8800511 375.723200
21059 21061 21063 1 120.0200517 532.790560
21062 21061 21063 1 119.8800511 375.723200
21061 21063 21064 1 119.8800511 375.723200
21061 21063 21065 1 120.0200517 532.790560
21064 21063 21065 1 119.8800511 375.723200
21056 21065 21063 1 120.0200517 532.790560
21056 21065 21066 1 119.8800511 375.723200
21063 21065 21066 1 119.8800511 375.723200
21067 21068 21069 1 119.8800511 375.723200
21067 21068 21077 1 119.8800511 375.723200
21069 21068 21077 1 120.0200517 532.790560
21068 21069 21070 1 121.3800518 83.010560
21068 21069 21071 1 120.0200517 532.790560
21070 21069 21071 1 121.3800518 83.010560
356 21070 5260 1 109.50000 418.400000
356 21070 5261 1 109.50000 418.400000
356 21070 21069 1 103.70004 836.800000
5260 21070 5261 1 109.50000 418.400000
5260 21070 21069 1 103.70004 836.800000
5261 21070 21069 1 103.70004 836.800000
21069 21071 21072 1 119.8800511 375.723200
21069 21071 21073 1 120.0200517 532.790560
21072 21071 21073 1 119.8800511 375.723200
21071 21073 21074 1 119.8800511 375.723200
21071 21073 21075 1 120.0200517 532.790560
21074 21073 21075 1 119.8800511 375.723200
21073 21075 21076 1 119.8800511 375.723200
21073 21075 21077 1 120.0200517 532.790560
21076 21075 21077 1 119.8800511 375.723200
21068 21077 21075 1 120.0200517 532.790560
21068 21077 21078 1 119.8800511 375.723200
21075 21077 21078 1 119.8800511 375.723200
21079 21080 21081 1 119.8800511 375.723200
21079 21080 21089 1 119.8800511 375.723200
21081 21080 21089 1 120.0200517 532.790560
21080 21081 21082 1 121.3800518 83.010560
21080 21081 21083 1 120.0200517 532.790560
21082 21081 21083 1 121.3800518 83.010560
9903 21082 10158 1 109.50000 418.400000
9903 21082 10413 1 109.50000 418.400000
9903 21082 21081 1 103.70004 836.800000
10158 21082 10413 1 109.50000 418.400000
10158 21082 21081 1 103.70004 836.800000
10413 21082 21081 1 103.70004 836.800000
21081 21083 21084 1 119.8800511 375.723200
21081 21083 21085 1 120.0200517 532.790560
21084 21083 21085 1 119.8800511 375.723200
21083 21085 21086 1 119.8800511 375.723200
21083 21085 21087 1 120.0200517 532.790560
21086 21085 21087 1 119.8800511 375.723200
21085 21087 21088 1 119.8800511 375.723200
21085 21087 21089 1 120.0200517 532.790560
21088 21087 21089 1 119.8800511 375.723200
21080 21089 21087 1 120.0200517 532.790560
21080 21089 21090 1 119.8800511 375.723200
21087 21089 21090 1 119.8800511 375.723200
21091 21092 21093 1 119.8800511 375.723200
21091 21092 21101 1 119.8800511 375.723200
21093 21092 21101 1 120.0200517 532.790560
21092 21093 21094 1 121.3800518 83.010560
21092 21093 21095 1 120.0200517 532.790560
21094 21093 21095 1 121.3800518 83.010560
9549 21094 10821 1 109.50000 418.400000
9549 21094 10822 1 109.50000 418.400000
9549 21094 21093 1 103.70004 836.800000
10821 21094 10822 1 109.50000 418.400000
10821 21094 21093 1 103.70004 836.800000
10822 21094 21093 1 103.70004 836.800000
21093 21095 21096 1 119.8800511 375.723200
21093 21095 21097 1 120.0200517 532.790560
21096 21095 21097 1 119.8800511 375.723200
21095 21097 21098 1 119.8800511 375.723200
21095 21097 21099 1 120.0200517 532.790560
21098 21097 21099 1 119.8800511 375.723200
21097 21099 21100 1 119.8800511 375.723200
21097 21099 21101 1 120.0200517 532.790560
21100 21099 21101 1 119.8800511 375.723200
21092 21101 21099 1 120.0200517 532.790560
21092 21101 21102 1 119.8800511 375.723200
21099 21101 21102 1 119.8800511 375.723200
21103 21104 21105 1 119.8800511 375.723200
21103 21104 21113 1 119.8800511 375.723200
21105 21104 21113 1 120.0200517 532.790560
21104 21105 21106 1 121.3800518 83.010560
21104 21105 21107 1 120.0200517 532.790560
21106 21105 21107 1 121.3800518 83.010560
2986 21106 2987 1 109.50000 418.400000
2986 21106 2988 1 109.50000 418.400000
2986 21106 21105 1 103.70004 836.800000
2987 21106 2988 1 109.50000 418.400000
2987 21106 21105 1 103.70004 836.800000
2988 21106 21105 1 103.70004 836.800000
21105 21107 21108 1 119.8800511 375.723200
21105 21107 21109 1 120.0200517 532.790560
21108 21107 21109 1 119.8800511 375.723200
21107 21109 21110 1 119.8800511 375.723200
21107 21109 21111 1 120.0200517 532.790560
21110 21109 21111 1 119.8800511 375.723200
21109 21111 21112 1 119.8800511 375.723200
21109 21111 21113 1 120.0200517 532.790560
21112 21111 21113 1 119.8800511 375.723200
21104 21113 21111 1 120.0200517 532.790560
21104 21113 21114 1 119.8800511 375.723200
21111 21113 21114 1 119.8800511 375.723200
21115 21116 21117 1 119.8800511 375.723200
21115 21116 21125 1 119.8800511 375.723200
21117 21116 21125 1 120.0200517 532.790560
21116 21117 21118 1 121.3800518 83.010560
21116 21117 21119 1 120.0200517 532.790560
21118 21117 21119 1 121.3800518 83.010560
6341 21118 7990 1 109.50000 418.400000
6341 21118 11125 1 109.50000 418.400000
6341 21118 21117 1 103.70004 836.800000
7990 21118 11125 1 109.50000 418.400000
7990 21118 21117 1 103.70004 836.800000
11125 21118 21117 1 103.70004 836.800000
21117 21119 21120 1 119.8800511 375.723200
21117 21119 21121 1 120.0200517 532.790560
21120 21119 21121 1 119.8800511 375.723200
21119 21121 21122 1 119.8800511 375.723200
21119 21121 21123 1 120.0200517 532.790560
21122 21121 21123 1 119.8800511 375.723200
21121 21123 21124 1 119.8800511 375.723200
21121 21123 21125 1 120.0200517 532.790560
21124 21123 21125 1 119.8800511 375.723200
21116 21125 21123 1 120.0200517 532.790560
21116 21125 21126 1 119.8800511 375.723200
21123 21125 21126 1 119.8800511 375.723200
21127 21128 21129 1 119.8800511 375.723200
21127 21128 21137 1 119.8800511 375.723200
21129 21128 21137 1 120.0200517 532.790560
21128 21129 21130 1 121.3800518 83.010560
21128 21129 21131 1 120.0200517 532.790560
21130 21129 21131 1 121.3800518 83.010560
840 21130 8869 1 109.50000 418.400000
840 21130 11205 1 109.50000 418.400000
840 21130 21129 1 103.70004 836.800000
8869 21130 11205 1 109.50000 418.400000
8869 21130 21129 1 103.70004 836.800000
11205 21130 21129 1 103.70004 836.800000
21129 21131 21132 1 119.8800511 375.723200
21129 21131 21133 1 120.0200517 532.790560
21132 21131 21133 1 119.8800511 375.723200
21131 21133 21134 1 119.8800511 375.723200
21131 21133 21135 1 120.0200517 532.790560
21134 21133 21135 1 119.8800511 375.723200
21133 21135 21136 1 119.8800511 375.723200
21133 21135 21137 1 120.0200517 532.790560
21136 21135 21137 1 119.8800511 375.723200
21128 21137 21135 1 120.0200517 532.790560
21128 21137 21138 1 119.8800511 375.723200
21135 21137 21138 1 119.8800511 375.723200
21139 21140 21141 1 119.8800511 375.723200
21139 21140 21149 1 119.8800511 375.723200
21141 21140 21149 1 120.0200517 532.790560
21140 21141 21142 1 121.3800518 83.010560
21140 21141 21143 1 120.0200517 532.790560
21142 21141 21143 1 121.3800518 83.010560
3740 21142 6089 1 109.50000 418.400000
3740 21142 10572 1 109.50000 418.400000
3740 21142 21141 1 103.70004 836.800000
6089 21142 10572 1 109.50000 418.400000
6089 21142 21141 1 103.70004 836.800000
10572 21142 21141 1 103.70004 836.800000
21141 21143 21144 1 119.8800511 375.723200
21141 21143 21145 1 120.0200517 532.790560
21144 21143 21145 1 119.8800511 375.723200
21143 21145 21146 1 119.8800511 375.723200
21143 21145 21147 1 120.0200517 532.790560
21146 21145 21147 1 119.8800511 375.723200
21145 21147 21148 1 119.8800511 375.723200
21145 21147 21149 1 120.0200517 532.790560
21148 21147 21149 1 119.8800511 375.723200
21140 21149 21147 1 120.0200517 532.790560
21140 21149 21150 1 119.8800511 375.723200
21147 21149 21150 1 119.8800511 375.723200
21151 21152 21153 1 119.8800511 375.723200
21151 21152 21161 1 119.8800511 375.723200
21153 21152 21161 1 120.0200517 532.790560
21152 21153 21154 1 121.3800518 83.010560
21152 21153 21155 1 120.0200517 532.790560
21154 21153 21155 1 121.3800518 83.010560
8372 21154 9750 1 109.50000 418.400000
8372 21154 9910 1 109.50000 418.400000
8372 21154 21153 1 103.70004 836.800000
9750 21154 9910 1 109.50000 418.400000
9750 21154 21153 1 103.70004 836.800000
9910 21154 21153 1 103.70004 836.800000
21153 21155 21156 1 119.8800511 375.723200
21153 21155 21157 1 120.0200517 532.790560
21156 21155 21157 1 119.8800511 375.723200
21155 21157 21158 1 119.8800511 375.723200
21155 21157 21159 1 120.0200517 532.790560
21158 21157 21159 1 119.8800511 375.723200
21157 21159 21160 1 119.8800511 375.723200
21157 21159 21161 1 120.0200517 532.790560
21160 21159 21161 1 119.8800511 375.723200
21152 21161 21159 1 120.0200517 532.790560
21152 21161 21162 1 119.8800511 375.723200
21159 21161 21162 1 119.8800511 375.723200
21163 21164 21165 1 119.8800511 375.723200
21163 21164 21173 1 119.8800511 375.723200
21165 21164 21173 1 120.0200517 532.790560
21164 21165 21166 1 121.3800518 83.010560
21164 21165 21167 1 120.0200517 532.790560
21166 21165 21167 1 121.3800518 83.010560
18 21166 8294 1 109.50000 418.400000
18 21166 9011 1 109.50000 418.400000
18 21166 21165 1 103.70004 836.800000
8294 21166 9011 1 109.50000 418.400000
8294 21166 21165 1 103.70004 836.800000
9011 21166 21165 1 103.70004 836.800000
21165 21167 21168 1 119.8800511 375.723200
21165 21167 21169 1 120.0200517 532.790560
21168 21167 21169 1 119.8800511 375.723200
21167 21169 21170 1 119.8800511 375.723200
21167 21169 21171 1 120.0200517 532.790560
21170 21169 21171 1 119.8800511 375.723200
21169 21171 21172 1 119.8800511 375.723200
21169 21171 21173 1 120.0200517 532.790560
21172 21171 21173 1 119.8800511 375.723200
21164 21173 21171 1 120.0200517 532.790560
21164 21173 21174 1 119.8800511 375.723200
21171 21173 21174 1 119.8800511 375.723200
5 21175 6 1 109.50000 418.400000
5 21175 3184 1 109.50000 418.400000
5 21175 21176 1 109.50000 418.400000
6 21175 3184 1 109.50000 418.400000
6 21175 21176 1 109.50000 418.400000
3184 21175 21176 1 109.50000 418.400000
21175 21176 21177 1 115.00000 209.200000
30 21178 31 1 109.50000 418.400000
30 21178 32 1 109.50000 418.400000
30 21178 21179 1 109.50000 418.400000
31 21178 32 1 109.50000 418.400000
31 21178 21179 1 109.50000 418.400000
32 21178 21179 1 109.50000 418.400000
21178 21179 21180 1 115.00000 209.200000
65 21181 66 1 109.50000 418.400000
65 21181 67 1 109.50000 418.400000
65 21181 21182 1 109.50000 418.400000
66 21181 67 1 109.50000 418.400000
66 21181 21182 1 109.50000 418.400000
67 21181 21182 1 109.50000 418.400000
21181 21182 21183 1 115.00000 209.200000
123 21184 124 1 109.50000 418.400000
123 21184 125 1 109.50000 418.400000
123 21184 21185 1 109.50000 418.400000
124 21184 125 1 109.50000 418.400000
124 21184 21185 1 109.50000 418.400000
125 21184 21185 1 109.50000 418.400000
21184 21185 21186 1 115.00000 209.200000
239 21187 240 1 109.50000 418.400000
239 21187 241 1 109.50000 418.400000
239 21187 21188 1 109.50000 418.400000
240 21187 241 1 109.50000 418.400000
240 21187 21188 1 109.50000 418.400000
241 21187 21188 1 109.50000 418.400000
21187 21188 21189 1 115.00000 209.200000
254 21190 255 1 109.50000 418.400000
254 21190 11299 1 109.50000 418.400000
254 21190 21191 1 109.50000 418.400000
255 21190 11299 1 109.50000 418.400000
255 21190 21191 1 109.50000 418.400000
11299 21190 21191 1 109.50000 418.400000
21190 21191 21192 1 115.00000 209.200000
263 21193 314 1 109.50000 418.400000
263 21193 315 1 109.50000 418.400000
263 21193 21194 1 109.50000 418.400000
314 21193 315 1 109.50000 418.400000
314 21193 21194 1 109.50000 418.400000
315 21193 21194 1 109.50000 418.400000
21193 21194 21195 1 115.00000 209.200000
350 21196 351 1 109.50000 418.400000
350 21196 6650 1 109.50000 418.400000
350 21196 21197 1 109.50000 418.400000
351 21196 6650 1 109.50000 418.400000
351 21196 21197 1 109.50000 418.400000
6650 21196 21197 1 109.50000 418.400000
21196 21197 21198 1 115.00000 209.200000
417 21199 418 1 109.50000 418.400000
417 21199 419 1 109.50000 418.400000
417 21199 21200 1 109.50000 418.400000
418 21199 419 1 109.50000 418.400000
418 21199 21200 1 109.50000 418.400000
419 21199 21200 1 109.50000 418.400000
21199 21200 21201 1 115.00000 209.200000
449 21202 450 1 109.50000 418.400000
449 21202 11240 1 109.50000 418.400000
449 21202 21203 1 109.50000 418.400000
450 21202 11240 1 109.50000 418.400000
450 21202 21203 1 109.50000 418.400000
11240 21202 21203 1 109.50000 418.400000
21202 21203 21204 1 115.00000 209.200000
515 21205 516 1 109.50000 418.400000
515 21205 517 1 109.50000 418.400000
515 21205 21206 1 109.50000 418.400000
516 21205 517 1 109.50000 418.400000
516 21205 21206 1 109.50000 418.400000
517 21205 21206 1 109.50000 418.400000
21205 21206 21207 1 115.00000 209.200000
556 21208 557 1 109.50000 418.400000
556 21208 558 1 109.50000 418.400000
556 21208 21209 1 109.50000 418.400000
557 21208 558 1 109.50000 418.400000
557 21208 21209 1 109.50000 418.400000
558 21208 21209 1 109.50000 418.400000
21208 21209 21210 1 115.00000 209.200000
137 21211 578 1 109.50000 418.400000
137 21211 579 1 109.50000 418.400000
137 21211 21212 1 109.50000 418.400000
578 21211 579 1 109.50000 418.400000
578 21211 21212 1 109.50000 418.400000
579 21211 21212 1 109.50000 418.400000
21211 21212 21213 1 115.00000 209.200000
675 21214 676 1 109.50000 418.400000
675 21214 677 1 109.50000 418.400000
675 21214 21215 1 109.50000 418.400000
676 21214 677 1 109.50000 418.400000
676 21214 21215 1 109.50000 418.400000
677 21214 21215 1 109.50000 418.400000
21214 21215 21216 1 115.00000 209.200000
964 21217 965 1 109.50000 418.400000
964 21217 11208 1 109.50000 418.400000
964 21217 21218 1 109.50000 418.400000
965 21217 11208 1 109.50000 418.400000
965 21217 21218 1 109.50000 418.400000
11208 21217 21218 1 109.50000 418.400000
21217 21218 21219 1 115.00000 209.200000
1110 21220 1111 1 109.50000 418.400000
1110 21220 1112 1 109.50000 418.400000
1110 21220 21221 1 109.50000 418.400000
1111 21220 1112 1 109.50000 418.400000
1111 21220 21221 1 109.50000 418.400000
1112 21220 21221 1 109.50000 418.400000
21220 21221 21222 1 115.00000 209.200000
1286 21223 1288 1 109.50000 418.400000
1286 21223 9978 1 109.50000 418.400000
1286 21223 21224 1 109.50000 418.400000
1288 21223 9978 1 109.50000 418.400000
1288 21223 21224 1 109.50000 418.400000
9978 21223 21224 1 109.50000 418.400000
21223 21224 21225 1 115.00000 209.200000
1387 21226 1388 1 109.50000 418.400000
1387 21226 1389 1 109.50000 418.400000
1387 21226 21227 1 109.50000 418.400000
1388 21226 1389 1 109.50000 418.400000
1388 21226 21227 1 109.50000 418.400000
1389 21226 21227 1 109.50000 418.400000
21226 21227 21228 1 115.00000 209.200000
1406 21229 1407 1 109.50000 418.400000
1406 21229 1408 1 109.50000 418.400000
1406 21229 21230 1 109.50000 418.400000
1407 21229 1408 1 109.50000 418.400000
1407 21229 21230 1 109.50000 418.400000
1408 21229 21230 1 109.50000 418.400000
21229 21230 21231 1 115.00000 209.200000
1443 21232 1444 1 109.50000 418.400000
1443 21232 11175 1 109.50000 418.400000
1443 21232 21233 1 109.50000 418.400000
1444 21232 11175 1 109.50000 418.400000
1444 21232 21233 1 109.50000 418.400000
11175 21232 21233 1 109.50000 418.400000
21232 21233 21234 1 115.00000 209.200000
1449 21235 1450 1 109.50000 418.400000
1449 21235 11294 1 109.50000 418.400000
1449 21235 21236 1 109.50000 418.400000
1450 21235 11294 1 109.50000 418.400000
1450 21235 21236 1 109.50000 418.400000
11294 21235 21236 1 109.50000 418.400000
21235 21236 21237 1 115.00000 209.200000
1644 21238 1645 1 109.50000 418.400000
1644 21238 1646 1 109.50000 418.400000
1644 21238 21239 1 109.50000 418.400000
1645 21238 1646 1 109.50000 418.400000
1645 21238 21239 1 109.50000 418.400000
1646 21238 21239 1 109.50000 418.400000
21238 21239 21240 1 115.00000 209.200000
1650 21241 1651 1 109.50000 418.400000
1650 21241 11243 1 109.50000 418.400000
1650 21241 21242 1 109.50000 418.400000
1651 21241 11243 1 109.50000 418.400000
1651 21241 21242 1 109.50000 418.400000
11243 21241 21242 1 109.50000 418.400000
21241 21242 21243 1 115.00000 209.200000
1652 21244 1655 1 109.50000 418.400000
1652 21244 11277 1 109.50000 418.400000
1652 21244 21245 1 109.50000 418.400000
1655 21244 11277 1 109.50000 418.400000
1655 21244 21245 1 109.50000 418.400000
11277 21244 21245 1 109.50000 418.400000
21244 21245 21246 1 115.00000 209.200000
1689 21247 1690 1 109.50000 418.400000
1689 21247 1691 1 109.50000 418.400000
1689 21247 21248 1 109.50000 418.400000
1690 21247 1691 1 109.50000 418.400000
1690 21247 21248 1 109.50000 418.400000
1691 21247 21248 1 109.50000 418.400000
21247 21248 21249 1 115.00000 209.200000
1735 21250 1736 1 109.50000 418.400000
1735 21250 1737 1 109.50000 418.400000
1735 21250 21251 1 109.50000 418.400000
1736 21250 1737 1 109.50000 418.400000
1736 21250 21251 1 109.50000 418.400000
1737 21250 21251 1 109.50000 418.400000
21250 21251 21252 1 115.00000 209.200000
1807 21253 1808 1 109.50000 418.400000
1807 21253 11217 1 109.50000 418.400000
1807 21253 21254 1 109.50000 418.400000
1808 21253 11217 1 109.50000 418.400000
1808 21253 21254 1 109.50000 418.400000
11217 21253 21254 1 109.50000 418.400000
21253 21254 21255 1 115.00000 209.200000
1889 21256 1890 1 109.50000 418.400000
1889 21256 1891 1 109.50000 418.400000
1889 21256 21257 1 109.50000 418.400000
1890 21256 1891 1 109.50000 418.400000
1890 21256 21257 1 109.50000 418.400000
1891 21256 21257 1 109.50000 418.400000
21256 21257 21258 1 115.00000 209.200000
1896 21259 1897 1 109.50000 418.400000
1896 21259 3832 1 109.50000 418.400000
1896 21259 21260 1 109.50000 418.400000
1897 21259 3832 1 109.50000 418.400000
1897 21259 21260 1 109.50000 418.400000
3832 21259 21260 1 109.50000 418.400000
21259 21260 21261 1 115.00000 209.200000
2018 21262 2019 1 109.50000 418.400000
2018 21262 11233 1 109.50000 418.400000
2018 21262 21263 1 109.50000 418.400000
2019 21262 11233 1 109.50000 418.400000
2019 21262 21263 1 109.50000 418.400000
11233 21262 21263 1 109.50000 418.400000
21262 21263 21264 1 115.00000 209.200000
255 21265 2027 1 109.50000 418.400000
255 21265 2028 1 109.50000 418.400000
255 21265 21266 1 109.50000 418.400000
2027 21265 2028 1 109.50000 418.400000
2027 21265 21266 1 109.50000 418.400000
2028 21265 21266 1 109.50000 418.400000
21265 21266 21267 1 115.00000 209.200000
2046 21268 2047 1 109.50000 418.400000
2046 21268 2048 1 109.50000 418.400000
2046 21268 21269 1 109.50000 418.400000
2047 21268 2048 1 109.50000 418.400000
2047 21268 21269 1 109.50000 418.400000
2048 21268 21269 1 109.50000 418.400000
21268 21269 21270 1 115.00000 209.200000
741 21271 2096 1 109.50000 418.400000
741 21271 2097 1 109.50000 418.400000
741 21271 21272 1 109.50000 418.400000
2096 21271 2097 1 109.50000 418.400000
2096 21271 21272 1 109.50000 418.400000
2097 21271 21272 1 109.50000 418.400000
21271 21272 21273 1 115.00000 209.200000
1566 21274 2159 1 109.50000 418.400000
1566 21274 2160 1 109.50000 418.400000
1566 21274 21275 1 109.50000 418.400000
2159 21274 2160 1 109.50000 418.400000
2159 21274 21275 1 109.50000 418.400000
2160 21274 21275 1 109.50000 418.400000
21274 21275 21276 1 115.00000 209.200000
2161 21277 2162 1 109.50000 418.400000
2161 21277 2164 1 109.50000 418.400000
2161 21277 21278 1 109.50000 418.400000
2162 21277 2164 1 109.50000 418.400000
2162 21277 21278 1 109.50000 418.400000
2164 21277 21278 1 109.50000 418.400000
21277 21278 21279 1 115.00000 209.200000
450 21280 2216 1 109.50000 418.400000
450 21280 2217 1 109.50000 418.400000
450 21280 21281 1 109.50000 418.400000
2216 21280 2217 1 109.50000 418.400000
2216 21280 21281 1 109.50000 418.400000
2217 21280 21281 1 109.50000 418.400000
21280 21281 21282 1 115.00000 209.200000
2324 21283 2325 1 109.50000 418.400000
2324 21283 11181 1 109.50000 418.400000
2324 21283 21284 1 109.50000 418.400000
2325 21283 11181 1 109.50000 418.400000
2325 21283 21284 1 109.50000 418.400000
11181 21283 21284 1 109.50000 418.400000
21283 21284 21285 1 115.00000 209.200000
1022 21286 2429 1 109.50000 418.400000
1022 21286 2430 1 109.50000 418.400000
1022 21286 21287 1 109.50000 418.400000
2429 21286 2430 1 109.50000 418.400000
2429 21286 21287 1 109.50000 418.400000
2430 21286 21287 1 109.50000 418.400000
21286 21287 21288 1 115.00000 209.200000
2505 21289 2506 1 109.50000 418.400000
2505 21289 5440 1 109.50000 418.400000
2505 21289 21290 1 109.50000 418.400000
2506 21289 5440 1 109.50000 418.400000
2506 21289 21290 1 109.50000 418.400000
5440 21289 21290 1 109.50000 418.400000
21289 21290 21291 1 115.00000 209.200000
1325 21292 2581 1 109.50000 418.400000
1325 21292 2582 1 109.50000 418.400000
1325 21292 21293 1 109.50000 418.400000
2581 21292 2582 1 109.50000 418.400000
2581 21292 21293 1 109.50000 418.400000
2582 21292 21293 1 109.50000 418.400000
21292 21293 21294 1 115.00000 209.200000
2587 21295 2588 1 109.50000 418.400000
2587 21295 11253 1 109.50000 418.400000
2587 21295 21296 1 109.50000 418.400000
2588 21295 11253 1 109.50000 418.400000
2588 21295 21296 1 109.50000 418.400000
11253 21295 21296 1 109.50000 418.400000
21295 21296 21297 1 115.00000 209.200000
2729 21298 2730 1 109.50000 418.400000
2729 21298 2731 1 109.50000 418.400000
2729 21298 21299 1 109.50000 418.400000
2730 21298 2731 1 109.50000 418.400000
2730 21298 21299 1 109.50000 418.400000
2731 21298 21299 1 109.50000 418.400000
21298 21299 21300 1 115.00000 209.200000
2775 21301 2776 1 109.50000 418.400000
2775 21301 11289 1 109.50000 418.400000
2775 21301 21302 1 109.50000 418.400000
2776 21301 11289 1 109.50000 418.400000
2776 21301 21302 1 109.50000 418.400000
11289 21301 21302 1 109.50000 418.400000
21301 21302 21303 1 115.00000 209.200000
2506 21304 2921 1 109.50000 418.400000
2506 21304 2922 1 109.50000 418.400000
2506 21304 21305 1 109.50000 418.400000
2921 21304 2922 1 109.50000 418.400000
2921 21304 21305 1 109.50000 418.400000
2922 21304 21305 1 109.50000 418.400000
21304 21305 21306 1 115.00000 209.200000
2604 21307 2605 1 109.50000 418.400000
2604 21307 2991 1 109.50000 418.400000
2604 21307 21308 1 109.50000 418.400000
2605 21307 2991 1 109.50000 418.400000
2605 21307 21308 1 109.50000 418.400000
2991 21307 21308 1 109.50000 418.400000
21307 21308 21309 1 115.00000 209.200000
2139 21310 2995 1 109.50000 418.400000
2139 21310 10649 1 109.50000 418.400000
2139 21310 21311 1 109.50000 418.400000
2995 21310 10649 1 109.50000 418.400000
2995 21310 21311 1 109.50000 418.400000
10649 21310 21311 1 109.50000 418.400000
21310 21311 21312 1 115.00000 209.200000
579 21313 3434 1 109.50000 418.400000
579 21313 5660 1 109.50000 418.400000
579 21313 21314 1 109.50000 418.400000
3434 21313 5660 1 109.50000 418.400000
3434 21313 21314 1 109.50000 418.400000
5660 21313 21314 1 109.50000 418.400000
21313 21314 21315 1 115.00000 209.200000
440 21316 3109 1 109.50000 418.400000
440 21316 10195 1 109.50000 418.400000
440 21316 21317 1 109.50000 418.400000
3109 21316 10195 1 109.50000 418.400000
3109 21316 21317 1 109.50000 418.400000
10195 21316 21317 1 109.50000 418.400000
21316 21317 21318 1 115.00000 209.200000
3119 21319 3120 1 109.50000 418.400000
3119 21319 3121 1 109.50000 418.400000
3119 21319 21320 1 109.50000 418.400000
3120 21319 3121 1 109.50000 418.400000
3120 21319 21320 1 109.50000 418.400000
3121 21319 21320 1 109.50000 418.400000
21319 21320 21321 1 115.00000 209.200000
3147 21322 6233 1 109.50000 418.400000
3147 21322 11238 1 109.50000 418.400000
3147 21322 21323 1 109.50000 418.400000
6233 21322 11238 1 109.50000 418.400000
6233 21322 21323 1 109.50000 418.400000
11238 21322 21323 1 109.50000 418.400000
21322 21323 21324 1 115.00000 209.200000
3188 21325 3189 1 109.50000 418.400000
3188 21325 3248 1 109.50000 418.400000
3188 21325 21326 1 109.50000 418.400000
3189 21325 3248 1 109.50000 418.400000
3189 21325 21326 1 109.50000 418.400000
3248 21325 21326 1 109.50000 418.400000
21325 21326 21327 1 115.00000 209.200000
3302 21328 3303 1 109.50000 418.400000
3302 21328 3304 1 109.50000 418.400000
3302 21328 21329 1 109.50000 418.400000
3303 21328 3304 1 109.50000 418.400000
3303 21328 21329 1 109.50000 418.400000
3304 21328 21329 1 109.50000 418.400000
21328 21329 21330 1 115.00000 209.200000
801 21331 3338 1 109.50000 418.400000
801 21331 3339 1 109.50000 418.400000
801 21331 21332 1 109.50000 418.400000
3338 21331 3339 1 109.50000 418.400000
3338 21331 21332 1 109.50000 418.400000
3339 21331 21332 1 109.50000 418.400000
21331 21332 21333 1 115.00000 209.200000
3351 21334 3352 1 109.50000 418.400000
3351 21334 3353 1 109.50000 418.400000
3351 21334 21335 1 109.50000 418.400000
3352 21334 3353 1 109.50000 418.400000
3352 21334 21335 1 109.50000 418.400000
3353 21334 21335 1 109.50000 418.400000
21334 21335 21336 1 115.00000 209.200000
125 21337 3371 1 109.50000 418.400000
125 21337 11272 1 109.50000 418.400000
125 21337 21338 1 109.50000 418.400000
3371 21337 11272 1 109.50000 418.400000
3371 21337 21338 1 109.50000 418.400000
11272 21337 21338 1 109.50000 418.400000
21337 21338 21339 1 115.00000 209.200000
3417 21340 3418 1 109.50000 418.400000
3417 21340 3419 1 109.50000 418.400000
3417 21340 21341 1 109.50000 418.400000
3418 21340 3419 1 109.50000 418.400000
3418 21340 21341 1 109.50000 418.400000
3419 21340 21341 1 109.50000 418.400000
21340 21341 21342 1 115.00000 209.200000
11 21343 3424 1 109.50000 418.400000
11 21343 3425 1 109.50000 418.400000
11 21343 21344 1 109.50000 418.400000
3424 21343 3425 1 109.50000 418.400000
3424 21343 21344 1 109.50000 418.400000
3425 21343 21344 1 109.50000 418.400000
21343 21344 21345 1 115.00000 209.200000
3430 21346 3431 1 109.50000 418.400000
3430 21346 11264 1 109.50000 418.400000
3430 21346 21347 1 109.50000 418.400000
3431 21346 11264 1 109.50000 418.400000
3431 21346 21347 1 109.50000 418.400000
11264 21346 21347 1 109.50000 418.400000
21346 21347 21348 1 115.00000 209.200000
3559 21349 3560 1 109.50000 418.400000
3559 21349 3561 1 109.50000 418.400000
3559 21349 21350 1 109.50000 418.400000
3560 21349 3561 1 109.50000 418.400000
3560 21349 21350 1 109.50000 418.400000
3561 21349 21350 1 109.50000 418.400000
21349 21350 21351 1 115.00000 209.200000
3566 21352 3567 1 109.50000 418.400000
3566 21352 3568 1 109.50000 418.400000
3566 21352 21353 1 109.50000 418.400000
3567 21352 3568 1 109.50000 418.400000
3567 21352 21353 1 109.50000 418.400000
3568 21352 21353 1 109.50000 418.400000
21352 21353 21354 1 115.00000 209.200000
3569 21355 3570 1 109.50000 418.400000
3569 21355 11288 1 109.50000 418.400000
3569 21355 21356 1 109.50000 418.400000
3570 21355 11288 1 109.50000 418.400000
3570 21355 21356 1 109.50000 418.400000
11288 21355 21356 1 109.50000 418.400000
21355 21356 21357 1 115.00000 209.200000
2097 21358 3877 1 109.50000 418.400000
2097 21358 3878 1 109.50000 418.400000
2097 21358 21359 1 109.50000 418.400000
3877 21358 3878 1 109.50000 418.400000
3877 21358 21359 1 109.50000 418.400000
3878 21358 21359 1 109.50000 418.400000
21358 21359 21360 1 115.00000 209.200000
840 21361 4033 1 109.50000 418.400000
840 21361 4034 1 109.50000 418.400000
840 21361 21362 1 109.50000 418.400000
4033 21361 4034 1 109.50000 418.400000
4033 21361 21362 1 109.50000 418.400000
4034 21361 21362 1 109.50000 418.400000
21361 21362 21363 1 115.00000 209.200000
1699 21364 4236 1 109.50000 418.400000
1699 21364 11152 1 109.50000 418.400000
1699 21364 21365 1 109.50000 418.400000
4236 21364 11152 1 109.50000 418.400000
4236 21364 21365 1 109.50000 418.400000
11152 21364 21365 1 109.50000 418.400000
21364 21365 21366 1 115.00000 209.200000
4075 21367 4297 1 109.50000 418.400000
4075 21367 4298 1 109.50000 418.400000
4075 21367 21368 1 109.50000 418.400000
4297 21367 4298 1 109.50000 418.400000
4297 21367 21368 1 109.50000 418.400000
4298 21367 21368 1 109.50000 418.400000
21367 21368 21369 1 115.00000 209.200000
4325 21370 4326 1 109.50000 418.400000
4325 21370 11149 1 109.50000 418.400000
4325 21370 21371 1 109.50000 418.400000
4326 21370 11149 1 109.50000 418.400000
4326 21370 21371 1 109.50000 418.400000
11149 21370 21371 1 109.50000 418.400000
21370 21371 21372 1 115.00000 209.200000
4338 21373 4339 1 109.50000 418.400000
4338 21373 4340 1 109.50000 418.400000
4338 21373 21374 1 109.50000 418.400000
4339 21373 4340 1 109.50000 418.400000
4339 21373 21374 1 109.50000 418.400000
4340 21373 21374 1 109.50000 418.400000
21373 21374 21375 1 115.00000 209.200000
4432 21376 4433 1 109.50000 418.400000
4432 21376 4434 1 109.50000 418.400000
4432 21376 21377 1 109.50000 418.400000
4433 21376 4434 1 109.50000 418.400000
4433 21376 21377 1 109.50000 418.400000
4434 21376 21377 1 109.50000 418.400000
21376 21377 21378 1 115.00000 209.200000
4476 21379 4477 1 109.50000 418.400000
4476 21379 4478 1 109.50000 418.400000
4476 21379 21380 1 109.50000 418.400000
4477 21379 4478 1 109.50000 418.400000
4477 21379 21380 1 109.50000 418.400000
4478 21379 21380 1 109.50000 418.400000
21379 21380 21381 1 115.00000 209.200000
4479 21382 4481 1 109.50000 418.400000
4479 21382 11228 1 109.50000 418.400000
4479 21382 21383 1 109.50000 418.400000
4481 21382 11228 1 109.50000 418.400000
4481 21382 21383 1 109.50000 418.400000
11228 21382 21383 1 109.50000 418.400000
21382 21383 21384 1 115.00000 209.200000
4534 21385 4535 1 109.50000 418.400000
4534 21385 11176 1 109.50000 418.400000
4534 21385 21386 1 109.50000 418.400000
4535 21385 11176 1 109.50000 418.400000
4535 21385 21386 1 109.50000 418.400000
11176 21385 21386 1 109.50000 418.400000
21385 21386 21387 1 115.00000 209.200000
3219 21388 4603 1 109.50000 418.400000
3219 21388 4604 1 109.50000 418.400000
3219 21388 21389 1 109.50000 418.400000
4603 21388 4604 1 109.50000 418.400000
4603 21388 21389 1 109.50000 418.400000
4604 21388 21389 1 109.50000 418.400000
21388 21389 21390 1 115.00000 209.200000
4790 21391 4791 1 109.50000 418.400000
4790 21391 4792 1 109.50000 418.400000
4790 21391 21392 1 109.50000 418.400000
4791 21391 4792 1 109.50000 418.400000
4791 21391 21392 1 109.50000 418.400000
4792 21391 21392 1 109.50000 418.400000
21391 21392 21393 1 115.00000 209.200000
4810 21394 4812 1 109.50000 418.400000
4810 21394 8212 1 109.50000 418.400000
4810 21394 21395 1 109.50000 418.400000
4812 21394 8212 1 109.50000 418.400000
4812 21394 21395 1 109.50000 418.400000
8212 21394 21395 1 109.50000 418.400000
21394 21395 21396 1 115.00000 209.200000
2324 21397 3904 1 109.50000 418.400000
2324 21397 4792 1 109.50000 418.400000
2324 21397 21398 1 109.50000 418.400000
3904 21397 4792 1 109.50000 418.400000
3904 21397 21398 1 109.50000 418.400000
4792 21397 21398 1 109.50000 418.400000
21397 21398 21399 1 115.00000 209.200000
2297 21400 2633 1 109.50000 418.400000
2297 21400 4932 1 109.50000 418.400000
2297 21400 21401 1 109.50000 418.400000
2633 21400 4932 1 109.50000 418.400000
2633 21400 21401 1 109.50000 418.400000
4932 21400 21401 1 109.50000 418.400000
21400 21401 21402 1 115.00000 209.200000
3627 21403 4990 1 109.50000 418.400000
3627 21403 4991 1 109.50000 418.400000
3627 21403 21404 1 109.50000 418.400000
4990 21403 4991 1 109.50000 418.400000
4990 21403 21404 1 109.50000 418.400000
4991 21403 21404 1 109.50000 418.400000
21403 21404 21405 1 115.00000 209.200000
4994 21406 4995 1 109.50000 418.400000
4994 21406 5969 1 109.50000 418.400000
4994 21406 21407 1 109.50000 418.400000
4995 21406 5969 1 109.50000 418.400000
4995 21406 21407 1 109.50000 418.400000
5969 21406 21407 1 109.50000 418.400000
21406 21407 21408 1 115.00000 209.200000
4996 21409 4997 1 109.50000 418.400000
4996 21409 11245 1 109.50000 418.400000
4996 21409 21410 1 109.50000 418.400000
4997 21409 11245 1 109.50000 418.400000
4997 21409 21410 1 109.50000 418.400000
11245 21409 21410 1 109.50000 418.400000
21409 21410 21411 1 115.00000 209.200000
1972 21412 5030 1 109.50000 418.400000
1972 21412 5031 1 109.50000 418.400000
1972 21412 21413 1 109.50000 418.400000
5030 21412 5031 1 109.50000 418.400000
5030 21412 21413 1 109.50000 418.400000
5031 21412 21413 1 109.50000 418.400000
21412 21413 21414 1 115.00000 209.200000
5043 21415 5044 1 109.50000 418.400000
5043 21415 11201 1 109.50000 418.400000
5043 21415 21416 1 109.50000 418.400000
5044 21415 11201 1 109.50000 418.400000
5044 21415 21416 1 109.50000 418.400000
11201 21415 21416 1 109.50000 418.400000
21415 21416 21417 1 115.00000 209.200000
654 21418 5054 1 109.50000 418.400000
654 21418 5055 1 109.50000 418.400000
654 21418 21419 1 109.50000 418.400000
5054 21418 5055 1 109.50000 418.400000
5054 21418 21419 1 109.50000 418.400000
5055 21418 21419 1 109.50000 418.400000
21418 21419 21420 1 115.00000 209.200000
5130 21421 5131 1 109.50000 418.400000
5130 21421 5132 1 109.50000 418.400000
5130 21421 21422 1 109.50000 418.400000
5131 21421 5132 1 109.50000 418.400000
5131 21421 21422 1 109.50000 418.400000
5132 21421 21422 1 109.50000 418.400000
21421 21422 21423 1 115.00000 209.200000
3625 21424 5256 1 109.50000 418.400000
3625 21424 5257 1 109.50000 418.400000
3625 21424 21425 1 109.50000 418.400000
5256 21424 5257 1 109.50000 418.400000
5256 21424 21425 1 109.50000 418.400000
5257 21424 21425 1 109.50000 418.400000
21424 21425 21426 1 115.00000 209.200000
2025 21427 5351 1 109.50000 418.400000
2025 21427 6810 1 109.50000 418.400000
2025 21427 21428 1 109.50000 418.400000
5351 21427 6810 1 109.50000 418.400000
5351 21427 21428 1 109.50000 418.400000
6810 21427 21428 1 109.50000 418.400000
21427 21428 21429 1 115.00000 209.200000
5393 21430 5394 1 109.50000 418.400000
5393 21430 11282 1 109.50000 418.400000
5393 21430 21431 1 109.50000 418.400000
5394 21430 11282 1 109.50000 418.400000
5394 21430 21431 1 109.50000 418.400000
11282 21430 21431 1 109.50000 418.400000
21430 21431 21432 1 115.00000 209.200000
4427 21433 5427 1 109.50000 418.400000
4427 21433 5428 1 109.50000 418.400000
4427 21433 21434 1 109.50000 418.400000
5427 21433 5428 1 109.50000 418.400000
5427 21433 21434 1 109.50000 418.400000
5428 21433 21434 1 109.50000 418.400000
21433 21434 21435 1 115.00000 209.200000
4184 21436 5630 1 109.50000 418.400000
4184 21436 7614 1 109.50000 418.400000
4184 21436 21437 1 109.50000 418.400000
5630 21436 7614 1 109.50000 418.400000
5630 21436 21437 1 109.50000 418.400000
7614 21436 21437 1 109.50000 418.400000
21436 21437 21438 1 115.00000 209.200000
5725 21439 5726 1 109.50000 418.400000
5725 21439 5727 1 109.50000 418.400000
5725 21439 21440 1 109.50000 418.400000
5726 21439 5727 1 109.50000 418.400000
5726 21439 21440 1 109.50000 418.400000
5727 21439 21440 1 109.50000 418.400000
21439 21440 21441 1 115.00000 209.200000
5832 21442 5833 1 109.50000 418.400000
5832 21442 5834 1 109.50000 418.400000
5832 21442 21443 1 109.50000 418.400000
5833 21442 5834 1 109.50000 418.400000
5833 21442 21443 1 109.50000 418.400000
5834 21442 21443 1 109.50000 418.400000
21442 21443 21444 1 115.00000 209.200000
864 21445 2451 1 109.50000 418.400000
864 21445 5839 1 109.50000 418.400000
864 21445 21446 1 109.50000 418.400000
2451 21445 5839 1 109.50000 418.400000
2451 21445 21446 1 109.50000 418.400000
5839 21445 21446 1 109.50000 418.400000
21445 21446 21447 1 115.00000 209.200000
3628 21448 5860 1 109.50000 418.400000
3628 21448 10356 1 109.50000 418.400000
3628 21448 21449 1 109.50000 418.400000
5860 21448 10356 1 109.50000 418.400000
5860 21448 21449 1 109.50000 418.400000
10356 21448 21449 1 109.50000 418.400000
21448 21449 21450 1 115.00000 209.200000
1148 21451 6026 1 109.50000 418.400000
1148 21451 6027 1 109.50000 418.400000
1148 21451 21452 1 109.50000 418.400000
6026 21451 6027 1 109.50000 418.400000
6026 21451 21452 1 109.50000 418.400000
6027 21451 21452 1 109.50000 418.400000
21451 21452 21453 1 115.00000 209.200000
3645 21454 6032 1 109.50000 418.400000
3645 21454 9558 1 109.50000 418.400000
3645 21454 21455 1 109.50000 418.400000
6032 21454 9558 1 109.50000 418.400000
6032 21454 21455 1 109.50000 418.400000
9558 21454 21455 1 109.50000 418.400000
21454 21455 21456 1 115.00000 209.200000
6079 21457 6080 1 109.50000 418.400000
6079 21457 11271 1 109.50000 418.400000
6079 21457 21458 1 109.50000 418.400000
6080 21457 11271 1 109.50000 418.400000
6080 21457 21458 1 109.50000 418.400000
11271 21457 21458 1 109.50000 418.400000
21457 21458 21459 1 115.00000 209.200000
6088 21460 6089 1 109.50000 418.400000
6088 21460 8294 1 109.50000 418.400000
6088 21460 21461 1 109.50000 418.400000
6089 21460 8294 1 109.50000 418.400000
6089 21460 21461 1 109.50000 418.400000
8294 21460 21461 1 109.50000 418.400000
21460 21461 21462 1 115.00000 209.200000
521 21463 523 1 109.50000 418.400000
521 21463 2066 1 109.50000 418.400000
521 21463 21464 1 109.50000 418.400000
523 21463 2066 1 109.50000 418.400000
523 21463 21464 1 109.50000 418.400000
2066 21463 21464 1 109.50000 418.400000
21463 21464 21465 1 115.00000 209.200000
6099 21466 6100 1 109.50000 418.400000
6099 21466 6101 1 109.50000 418.400000
6099 21466 21467 1 109.50000 418.400000
6100 21466 6101 1 109.50000 418.400000
6100 21466 21467 1 109.50000 418.400000
6101 21466 21467 1 109.50000 418.400000
21466 21467 21468 1 115.00000 209.200000
4278 21469 4930 1 109.50000 418.400000
4278 21469 6233 1 109.50000 418.400000
4278 21469 21470 1 109.50000 418.400000
4930 21469 6233 1 109.50000 418.400000
4930 21469 21470 1 109.50000 418.400000
6233 21469 21470 1 109.50000 418.400000
21469 21470 21471 1 115.00000 209.200000
6262 21472 6263 1 109.50000 418.400000
6262 21472 6264 1 109.50000 418.400000
6262 21472 21473 1 109.50000 418.400000
6263 21472 6264 1 109.50000 418.400000
6263 21472 21473 1 109.50000 418.400000
6264 21472 21473 1 109.50000 418.400000
21472 21473 21474 1 115.00000 209.200000
6314 21475 6315 1 109.50000 418.400000
6314 21475 11275 1 109.50000 418.400000
6314 21475 21476 1 109.50000 418.400000
6315 21475 11275 1 109.50000 418.400000
6315 21475 21476 1 109.50000 418.400000
11275 21475 21476 1 109.50000 418.400000
21475 21476 21477 1 115.00000 209.200000
4513 21478 6383 1 109.50000 418.400000
4513 21478 6384 1 109.50000 418.400000
4513 21478 21479 1 109.50000 418.400000
6383 21478 6384 1 109.50000 418.400000
6383 21478 21479 1 109.50000 418.400000
6384 21478 21479 1 109.50000 418.400000
21478 21479 21480 1 115.00000 209.200000
6404 21481 6405 1 109.50000 418.400000
6404 21481 6406 1 109.50000 418.400000
6404 21481 21482 1 109.50000 418.400000
6405 21481 6406 1 109.50000 418.400000
6405 21481 21482 1 109.50000 418.400000
6406 21481 21482 1 109.50000 418.400000
21481 21482 21483 1 115.00000 209.200000
5361 21484 6026 1 109.50000 418.400000
5361 21484 11292 1 109.50000 418.400000
5361 21484 21485 1 109.50000 418.400000
6026 21484 11292 1 109.50000 418.400000
6026 21484 21485 1 109.50000 418.400000
11292 21484 21485 1 109.50000 418.400000
21484 21485 21486 1 115.00000 209.200000
4777 21487 5251 1 109.50000 418.400000
4777 21487 6526 1 109.50000 418.400000
4777 21487 21488 1 109.50000 418.400000
5251 21487 6526 1 109.50000 418.400000
5251 21487 21488 1 109.50000 418.400000
6526 21487 21488 1 109.50000 418.400000
21487 21488 21489 1 115.00000 209.200000
2107 21490 6556 1 109.50000 418.400000
2107 21490 6557 1 109.50000 418.400000
2107 21490 21491 1 109.50000 418.400000
6556 21490 6557 1 109.50000 418.400000
6556 21490 21491 1 109.50000 418.400000
6557 21490 21491 1 109.50000 418.400000
21490 21491 21492 1 115.00000 209.200000
6572 21493 6573 1 109.50000 418.400000
6572 21493 10080 1 109.50000 418.400000
6572 21493 21494 1 109.50000 418.400000
6573 21493 10080 1 109.50000 418.400000
6573 21493 21494 1 109.50000 418.400000
10080 21493 21494 1 109.50000 418.400000
21493 21494 21495 1 115.00000 209.200000
1896 21496 6581 1 109.50000 418.400000
1896 21496 11203 1 109.50000 418.400000
1896 21496 21497 1 109.50000 418.400000
6581 21496 11203 1 109.50000 418.400000
6581 21496 21497 1 109.50000 418.400000
11203 21496 21497 1 109.50000 418.400000
21496 21497 21498 1 115.00000 209.200000
6560 21499 6600 1 109.50000 418.400000
6560 21499 6601 1 109.50000 418.400000
6560 21499 21500 1 109.50000 418.400000
6600 21499 6601 1 109.50000 418.400000
6600 21499 21500 1 109.50000 418.400000
6601 21499 21500 1 109.50000 418.400000
21499 21500 21501 1 115.00000 209.200000
174 21502 6557 1 109.50000 418.400000
174 21502 6647 1 109.50000 418.400000
174 21502 21503 1 109.50000 418.400000
6557 21502 6647 1 109.50000 418.400000
6557 21502 21503 1 109.50000 418.400000
6647 21502 21503 1 109.50000 418.400000
21502 21503 21504 1 115.00000 209.200000
815 21505 6756 1 109.50000 418.400000
815 21505 6757 1 109.50000 418.400000
815 21505 21506 1 109.50000 418.400000
6756 21505 6757 1 109.50000 418.400000
6756 21505 21506 1 109.50000 418.400000
6757 21505 21506 1 109.50000 418.400000
21505 21506 21507 1 115.00000 209.200000
30 21508 3779 1 109.50000 418.400000
30 21508 5714 1 109.50000 418.400000
30 21508 21509 1 109.50000 418.400000
3779 21508 5714 1 109.50000 418.400000
3779 21508 21509 1 109.50000 418.400000
5714 21508 21509 1 109.50000 418.400000
21508 21509 21510 1 115.00000 209.200000
838 21511 6783 1 109.50000 418.400000
838 21511 6784 1 109.50000 418.400000
838 21511 21512 1 109.50000 418.400000
6783 21511 6784 1 109.50000 418.400000
6783 21511 21512 1 109.50000 418.400000
6784 21511 21512 1 109.50000 418.400000
21511 21512 21513 1 115.00000 209.200000
3419 21514 6899 1 109.50000 418.400000
3419 21514 6900 1 109.50000 418.400000
3419 21514 21515 1 109.50000 418.400000
6899 21514 6900 1 109.50000 418.400000
6899 21514 21515 1 109.50000 418.400000
6900 21514 21515 1 109.50000 418.400000
21514 21515 21516 1 115.00000 209.200000
5975 21517 7019 1 109.50000 418.400000
5975 21517 7020 1 109.50000 418.400000
5975 21517 21518 1 109.50000 418.400000
7019 21517 7020 1 109.50000 418.400000
7019 21517 21518 1 109.50000 418.400000
7020 21517 21518 1 109.50000 418.400000
21517 21518 21519 1 115.00000 209.200000
5093 21520 5322 1 109.50000 418.400000
5093 21520 7052 1 109.50000 418.400000
5093 21520 21521 1 109.50000 418.400000
5322 21520 7052 1 109.50000 418.400000
5322 21520 21521 1 109.50000 418.400000
7052 21520 21521 1 109.50000 418.400000
21520 21521 21522 1 115.00000 209.200000
4938 21523 5866 1 109.50000 418.400000
4938 21523 7098 1 109.50000 418.400000
4938 21523 21524 1 109.50000 418.400000
5866 21523 7098 1 109.50000 418.400000
5866 21523 21524 1 109.50000 418.400000
7098 21523 21524 1 109.50000 418.400000
21523 21524 21525 1 115.00000 209.200000
7112 21526 7113 1 109.50000 418.400000
7112 21526 7114 1 109.50000 418.400000
7112 21526 21527 1 109.50000 418.400000
7113 21526 7114 1 109.50000 418.400000
7113 21526 21527 1 109.50000 418.400000
7114 21526 21527 1 109.50000 418.400000
21526 21527 21528 1 115.00000 209.200000
4870 21529 7153 1 109.50000 418.400000
4870 21529 7154 1 109.50000 418.400000
4870 21529 21530 1 109.50000 418.400000
7153 21529 7154 1 109.50000 418.400000
7153 21529 21530 1 109.50000 418.400000
7154 21529 21530 1 109.50000 418.400000
21529 21530 21531 1 115.00000 209.200000
5175 21532 6186 1 109.50000 418.400000
5175 21532 11199 1 109.50000 418.400000
5175 21532 21533 1 109.50000 418.400000
6186 21532 11199 1 109.50000 418.400000
6186 21532 21533 1 109.50000 418.400000
11199 21532 21533 1 109.50000 418.400000
21532 21533 21534 1 115.00000 209.200000
1291 21535 1684 1 109.50000 418.400000
1291 21535 7198 1 109.50000 418.400000
1291 21535 21536 1 109.50000 418.400000
1684 21535 7198 1 109.50000 418.400000
1684 21535 21536 1 109.50000 418.400000
7198 21535 21536 1 109.50000 418.400000
21535 21536 21537 1 115.00000 209.200000
1171 21538 7222 1 109.50000 418.400000
1171 21538 7223 1 109.50000 418.400000
1171 21538 21539 1 109.50000 418.400000
7222 21538 7223 1 109.50000 418.400000
7222 21538 21539 1 109.50000 418.400000
7223 21538 21539 1 109.50000 418.400000
21538 21539 21540 1 115.00000 209.200000
7262 21541 7263 1 109.50000 418.400000
7262 21541 7264 1 109.50000 418.400000
7262 21541 21542 1 109.50000 418.400000
7263 21541 7264 1 109.50000 418.400000
7263 21541 21542 1 109.50000 418.400000
7264 21541 21542 1 109.50000 418.400000
21541 21542 21543 1 115.00000 209.200000
1110 21544 2651 1 109.50000 418.400000
1110 21544 2690 1 109.50000 418.400000
1110 21544 21545 1 109.50000 418.400000
2651 21544 2690 1 109.50000 418.400000
2651 21544 21545 1 109.50000 418.400000
2690 21544 21545 1 109.50000 418.400000
21544 21545 21546 1 115.00000 209.200000
744 21547 3519 1 109.50000 418.400000
744 21547 7369 1 109.50000 418.400000
744 21547 21548 1 109.50000 418.400000
3519 21547 7369 1 109.50000 418.400000
3519 21547 21548 1 109.50000 418.400000
7369 21547 21548 1 109.50000 418.400000
21547 21548 21549 1 115.00000 209.200000
3771 21550 5460 1 109.50000 418.400000
3771 21550 11212 1 109.50000 418.400000
3771 21550 21551 1 109.50000 418.400000
5460 21550 11212 1 109.50000 418.400000
5460 21550 21551 1 109.50000 418.400000
11212 21550 21551 1 109.50000 418.400000
21550 21551 21552 1 115.00000 209.200000
1476 21553 4692 1 109.50000 418.400000
1476 21553 7472 1 109.50000 418.400000
1476 21553 21554 1 109.50000 418.400000
4692 21553 7472 1 109.50000 418.400000
4692 21553 21554 1 109.50000 418.400000
7472 21553 21554 1 109.50000 418.400000
21553 21554 21555 1 115.00000 209.200000
5288 21556 7485 1 109.50000 418.400000
5288 21556 7486 1 109.50000 418.400000
5288 21556 21557 1 109.50000 418.400000
7485 21556 7486 1 109.50000 418.400000
7485 21556 21557 1 109.50000 418.400000
7486 21556 21557 1 109.50000 418.400000
21556 21557 21558 1 115.00000 209.200000
5834 21559 7510 1 109.50000 418.400000
5834 21559 11268 1 109.50000 418.400000
5834 21559 21560 1 109.50000 418.400000
7510 21559 11268 1 109.50000 418.400000
7510 21559 21560 1 109.50000 418.400000
11268 21559 21560 1 109.50000 418.400000
21559 21560 21561 1 115.00000 209.200000
7209 21562 7627 1 109.50000 418.400000
7209 21562 7628 1 109.50000 418.400000
7209 21562 21563 1 109.50000 418.400000
7627 21562 7628 1 109.50000 418.400000
7627 21562 21563 1 109.50000 418.400000
7628 21562 21563 1 109.50000 418.400000
21562 21563 21564 1 115.00000 209.200000
6364 21565 7769 1 109.50000 418.400000
6364 21565 7770 1 109.50000 418.400000
6364 21565 21566 1 109.50000 418.400000
7769 21565 7770 1 109.50000 418.400000
7769 21565 21566 1 109.50000 418.400000
7770 21565 21566 1 109.50000 418.400000
21565 21566 21567 1 115.00000 209.200000
383 21568 1830 1 109.50000 418.400000
383 21568 7800 1 109.50000 418.400000
383 21568 21569 1 109.50000 418.400000
1830 21568 7800 1 109.50000 418.400000
1830 21568 21569 1 109.50000 418.400000
7800 21568 21569 1 109.50000 418.400000
21568 21569 21570 1 115.00000 209.200000
4771 21571 7099 1 109.50000 418.400000
4771 21571 7842 1 109.50000 418.400000
4771 21571 21572 1 109.50000 418.400000
7099 21571 7842 1 109.50000 418.400000
7099 21571 21572 1 109.50000 418.400000
7842 21571 21572 1 109.50000 418.400000
21571 21572 21573 1 115.00000 209.200000
4207 21574 7945 1 109.50000 418.400000
4207 21574 11226 1 109.50000 418.400000
4207 21574 21575 1 109.50000 418.400000
7945 21574 11226 1 109.50000 418.400000
7945 21574 21575 1 109.50000 418.400000
11226 21574 21575 1 109.50000 418.400000
21574 21575 21576 1 115.00000 209.200000
181 21577 6515 1 109.50000 418.400000
181 21577 7956 1 109.50000 418.400000
181 21577 21578 1 109.50000 418.400000
6515 21577 7956 1 109.50000 418.400000
6515 21577 21578 1 109.50000 418.400000
7956 21577 21578 1 109.50000 418.400000
21577 21578 21579 1 115.00000 209.200000
7580 21580 9549 1 109.50000 418.400000
7580 21580 11153 1 109.50000 418.400000
7580 21580 21581 1 109.50000 418.400000
9549 21580 11153 1 109.50000 418.400000
9549 21580 21581 1 109.50000 418.400000
11153 21580 21581 1 109.50000 418.400000
21580 21581 21582 1 115.00000 209.200000
4216 21583 8058 1 109.50000 418.400000
4216 21583 8059 1 109.50000 418.400000
4216 21583 21584 1 109.50000 418.400000
8058 21583 8059 1 109.50000 418.400000
8058 21583 21584 1 109.50000 418.400000
8059 21583 21584 1 109.50000 418.400000
21583 21584 21585 1 115.00000 209.200000
6056 21586 7529 1 109.50000 418.400000
6056 21586 8142 1 109.50000 418.400000
6056 21586 21587 1 109.50000 418.400000
7529 21586 8142 1 109.50000 418.400000
7529 21586 21587 1 109.50000 418.400000
8142 21586 21587 1 109.50000 418.400000
21586 21587 21588 1 115.00000 209.200000
5352 21589 8237 1 109.50000 418.400000
5352 21589 8373 1 109.50000 418.400000
5352 21589 21590 1 109.50000 418.400000
8237 21589 8373 1 109.50000 418.400000
8237 21589 21590 1 109.50000 418.400000
8373 21589 21590 1 109.50000 418.400000
21589 21590 21591 1 115.00000 209.200000
2587 21592 5183 1 109.50000 418.400000
2587 21592 8262 1 109.50000 418.400000
2587 21592 21593 1 109.50000 418.400000
5183 21592 8262 1 109.50000 418.400000
5183 21592 21593 1 109.50000 418.400000
8262 21592 21593 1 109.50000 418.400000
21592 21593 21594 1 115.00000 209.200000
4707 21595 5374 1 109.50000 418.400000
4707 21595 7666 1 109.50000 418.400000
4707 21595 21596 1 109.50000 418.400000
5374 21595 7666 1 109.50000 418.400000
5374 21595 21596 1 109.50000 418.400000
7666 21595 21596 1 109.50000 418.400000
21595 21596 21597 1 115.00000 209.200000
5299 21598 6666 1 109.50000 418.400000
5299 21598 8298 1 109.50000 418.400000
5299 21598 21599 1 109.50000 418.400000
6666 21598 8298 1 109.50000 418.400000
6666 21598 21599 1 109.50000 418.400000
8298 21598 21599 1 109.50000 418.400000
21598 21599 21600 1 115.00000 209.200000
5998 21601 7217 1 109.50000 418.400000
5998 21601 8354 1 109.50000 418.400000
5998 21601 21602 1 109.50000 418.400000
7217 21601 8354 1 109.50000 418.400000
7217 21601 21602 1 109.50000 418.400000
8354 21601 21602 1 109.50000 418.400000
21601 21602 21603 1 115.00000 209.200000
4817 21604 7219 1 109.50000 418.400000
4817 21604 8381 1 109.50000 418.400000
4817 21604 21605 1 109.50000 418.400000
7219 21604 8381 1 109.50000 418.400000
7219 21604 21605 1 109.50000 418.400000
8381 21604 21605 1 109.50000 418.400000
21604 21605 21606 1 115.00000 209.200000
1137 21607 4896 1 109.50000 418.400000
1137 21607 8492 1 109.50000 418.400000
1137 21607 21608 1 109.50000 418.400000
4896 21607 8492 1 109.50000 418.400000
4896 21607 21608 1 109.50000 418.400000
8492 21607 21608 1 109.50000 418.400000
21607 21608 21609 1 115.00000 209.200000
3773 21610 8511 1 109.50000 418.400000
3773 21610 8512 1 109.50000 418.400000
3773 21610 21611 1 109.50000 418.400000
8511 21610 8512 1 109.50000 418.400000
8511 21610 21611 1 109.50000 418.400000
8512 21610 21611 1 109.50000 418.400000
21610 21611 21612 1 115.00000 209.200000
46 21613 5848 1 109.50000 418.400000
46 21613 11249 1 109.50000 418.400000
46 21613 21614 1 109.50000 418.400000
5848 21613 11249 1 109.50000 418.400000
5848 21613 21614 1 109.50000 418.400000
11249 21613 21614 1 109.50000 418.400000
21613 21614 21615 1 115.00000 209.200000
4281 21616 8621 1 109.50000 418.400000
4281 21616 11291 1 109.50000 418.400000
4281 21616 21617 1 109.50000 418.400000
8621 21616 11291 1 109.50000 418.400000
8621 21616 21617 1 109.50000 418.400000
11291 21616 21617 1 109.50000 418.400000
21616 21617 21618 1 115.00000 209.200000
8634 21619 8635 1 109.50000 418.400000
8634 21619 8636 1 109.50000 418.400000
8634 21619 21620 1 109.50000 418.400000
8635 21619 8636 1 109.50000 418.400000
8635 21619 21620 1 109.50000 418.400000
8636 21619 21620 1 109.50000 418.400000
21619 21620 21621 1 115.00000 209.200000
3518 21622 8731 1 109.50000 418.400000
3518 21622 8732 1 109.50000 418.400000
3518 21622 21623 1 109.50000 418.400000
8731 21622 8732 1 109.50000 418.400000
8731 21622 21623 1 109.50000 418.400000
8732 21622 21623 1 109.50000 418.400000
21622 21623 21624 1 115.00000 209.200000
2605 21625 4304 1 109.50000 418.400000
2605 21625 11247 1 109.50000 418.400000
2605 21625 21626 1 109.50000 418.400000
4304 21625 11247 1 109.50000 418.400000
4304 21625 21626 1 109.50000 418.400000
11247 21625 21626 1 109.50000 418.400000
21625 21626 21627 1 115.00000 209.200000
4172 21628 8974 1 109.50000 418.400000
4172 21628 11298 1 109.50000 418.400000
4172 21628 21629 1 109.50000 418.400000
8974 21628 11298 1 109.50000 418.400000
8974 21628 21629 1 109.50000 418.400000
11298 21628 21629 1 109.50000 418.400000
21628 21629 21630 1 115.00000 209.200000
3845 21631 4340 1 109.50000 418.400000
3845 21631 9010 1 109.50000 418.400000
3845 21631 21632 1 109.50000 418.400000
4340 21631 9010 1 109.50000 418.400000
4340 21631 21632 1 109.50000 418.400000
9010 21631 21632 1 109.50000 418.400000
21631 21632 21633 1 115.00000 209.200000
1563 21634 9054 1 109.50000 418.400000
1563 21634 9055 1 109.50000 418.400000
1563 21634 21635 1 109.50000 418.400000
9054 21634 9055 1 109.50000 418.400000
9054 21634 21635 1 109.50000 418.400000
9055 21634 21635 1 109.50000 418.400000
21634 21635 21636 1 115.00000 209.200000
5133 21637 9067 1 109.50000 418.400000
5133 21637 11213 1 109.50000 418.400000
5133 21637 21638 1 109.50000 418.400000
9067 21637 11213 1 109.50000 418.400000
9067 21637 21638 1 109.50000 418.400000
11213 21637 21638 1 109.50000 418.400000
21637 21638 21639 1 115.00000 209.200000
9088 21640 9089 1 109.50000 418.400000
9088 21640 9090 1 109.50000 418.400000
9088 21640 21641 1 109.50000 418.400000
9089 21640 9090 1 109.50000 418.400000
9089 21640 21641 1 109.50000 418.400000
9090 21640 21641 1 109.50000 418.400000
21640 21641 21642 1 115.00000 209.200000
74 21643 9103 1 109.50000 418.400000
74 21643 9104 1 109.50000 418.400000
74 21643 21644 1 109.50000 418.400000
9103 21643 9104 1 109.50000 418.400000
9103 21643 21644 1 109.50000 418.400000
9104 21643 21644 1 109.50000 418.400000
21643 21644 21645 1 115.00000 209.200000
5216 21646 7142 1 109.50000 418.400000
5216 21646 7842 1 109.50000 418.400000
5216 21646 21647 1 109.50000 418.400000
7142 21646 7842 1 109.50000 418.400000
7142 21646 21647 1 109.50000 418.400000
7842 21646 21647 1 109.50000 418.400000
21646 21647 21648 1 115.00000 209.200000
6073 21649 6173 1 109.50000 418.400000
6073 21649 9168 1 109.50000 418.400000
6073 21649 21650 1 109.50000 418.400000
6173 21649 9168 1 109.50000 418.400000
6173 21649 21650 1 109.50000 418.400000
9168 21649 21650 1 109.50000 418.400000
21649 21650 21651 1 115.00000 209.200000
5069 21652 7625 1 109.50000 418.400000
5069 21652 11234 1 109.50000 418.400000
5069 21652 21653 1 109.50000 418.400000
7625 21652 11234 1 109.50000 418.400000
7625 21652 21653 1 109.50000 418.400000
11234 21652 21653 1 109.50000 418.400000
21652 21653 21654 1 115.00000 209.200000
6335 21655 6384 1 109.50000 418.400000
6335 21655 9353 1 109.50000 418.400000
6335 21655 21656 1 109.50000 418.400000
6384 21655 9353 1 109.50000 418.400000
6384 21655 21656 1 109.50000 418.400000
9353 21655 21656 1 109.50000 418.400000
21655 21656 21657 1 115.00000 209.200000
5504 21658 9430 1 109.50000 418.400000
5504 21658 11276 1 109.50000 418.400000
5504 21658 21659 1 109.50000 418.400000
9430 21658 11276 1 109.50000 418.400000
9430 21658 21659 1 109.50000 418.400000
11276 21658 21659 1 109.50000 418.400000
21658 21659 21660 1 115.00000 209.200000
1240 21661 2991 1 109.50000 418.400000
1240 21661 9458 1 109.50000 418.400000
1240 21661 21662 1 109.50000 418.400000
2991 21661 9458 1 109.50000 418.400000
2991 21661 21662 1 109.50000 418.400000
9458 21661 21662 1 109.50000 418.400000
21661 21662 21663 1 115.00000 209.200000
4318 21664 9492 1 109.50000 418.400000
4318 21664 11189 1 109.50000 418.400000
4318 21664 21665 1 109.50000 418.400000
9492 21664 11189 1 109.50000 418.400000
9492 21664 21665 1 109.50000 418.400000
11189 21664 21665 1 109.50000 418.400000
21664 21665 21666 1 115.00000 209.200000
4425 21667 9506 1 109.50000 418.400000
4425 21667 10887 1 109.50000 418.400000
4425 21667 21668 1 109.50000 418.400000
9506 21667 10887 1 109.50000 418.400000
9506 21667 21668 1 109.50000 418.400000
10887 21667 21668 1 109.50000 418.400000
21667 21668 21669 1 115.00000 209.200000
8658 21670 9601 1 109.50000 418.400000
8658 21670 9602 1 109.50000 418.400000
8658 21670 21671 1 109.50000 418.400000
9601 21670 9602 1 109.50000 418.400000
9601 21670 21671 1 109.50000 418.400000
9602 21670 21671 1 109.50000 418.400000
21670 21671 21672 1 115.00000 209.200000
205 21673 207 1 109.50000 418.400000
205 21673 4963 1 109.50000 418.400000
205 21673 21674 1 109.50000 418.400000
207 21673 4963 1 109.50000 418.400000
207 21673 21674 1 109.50000 418.400000
4963 21673 21674 1 109.50000 418.400000
21673 21674 21675 1 115.00000 209.200000
6558 21676 7278 1 109.50000 418.400000
6558 21676 9648 1 109.50000 418.400000
6558 21676 21677 1 109.50000 418.400000
7278 21676 9648 1 109.50000 418.400000
7278 21676 21677 1 109.50000 418.400000
9648 21676 21677 1 109.50000 418.400000
21676 21677 21678 1 115.00000 209.200000
8483 21679 9270 1 109.50000 418.400000
8483 21679 9271 1 109.50000 418.400000
8483 21679 21680 1 109.50000 418.400000
9270 21679 9271 1 109.50000 418.400000
9270 21679 21680 1 109.50000 418.400000
9271 21679 21680 1 109.50000 418.400000
21679 21680 21681 1 115.00000 209.200000
314 21682 6889 1 109.50000 418.400000
314 21682 9690 1 109.50000 418.400000
314 21682 21683 1 109.50000 418.400000
6889 21682 9690 1 109.50000 418.400000
6889 21682 21683 1 109.50000 418.400000
9690 21682 21683 1 109.50000 418.400000
21682 21683 21684 1 115.00000 209.200000
1237 21685 4076 1 109.50000 418.400000
1237 21685 5414 1 109.50000 418.400000
1237 21685 21686 1 109.50000 418.400000
4076 21685 5414 1 109.50000 418.400000
4076 21685 21686 1 109.50000 418.400000
5414 21685 21686 1 109.50000 418.400000
21685 21686 21687 1 115.00000 209.200000
783 21688 3119 1 109.50000 418.400000
783 21688 6172 1 109.50000 418.400000
783 21688 21689 1 109.50000 418.400000
3119 21688 6172 1 109.50000 418.400000
3119 21688 21689 1 109.50000 418.400000
6172 21688 21689 1 109.50000 418.400000
21688 21689 21690 1 115.00000 209.200000
603 21691 7772 1 109.50000 418.400000
603 21691 11150 1 109.50000 418.400000
603 21691 21692 1 109.50000 418.400000
7772 21691 11150 1 109.50000 418.400000
7772 21691 21692 1 109.50000 418.400000
11150 21691 21692 1 109.50000 418.400000
21691 21692 21693 1 115.00000 209.200000
4738 21694 9755 1 109.50000 418.400000
4738 21694 9774 1 109.50000 418.400000
4738 21694 21695 1 109.50000 418.400000
9755 21694 9774 1 109.50000 418.400000
9755 21694 21695 1 109.50000 418.400000
9774 21694 21695 1 109.50000 418.400000
21694 21695 21696 1 115.00000 209.200000
2469 21697 6734 1 109.50000 418.400000
2469 21697 9557 1 109.50000 418.400000
2469 21697 21698 1 109.50000 418.400000
6734 21697 9557 1 109.50000 418.400000
6734 21697 21698 1 109.50000 418.400000
9557 21697 21698 1 109.50000 418.400000
21697 21698 21699 1 115.00000 209.200000
2047 21700 5230 1 109.50000 418.400000
2047 21700 6643 1 109.50000 418.400000
2047 21700 21701 1 109.50000 418.400000
5230 21700 6643 1 109.50000 418.400000
5230 21700 21701 1 109.50000 418.400000
6643 21700 21701 1 109.50000 418.400000
21700 21701 21702 1 115.00000 209.200000
6314 21703 6615 1 109.50000 418.400000
6314 21703 8111 1 109.50000 418.400000
6314 21703 21704 1 109.50000 418.400000
6615 21703 8111 1 109.50000 418.400000
6615 21703 21704 1 109.50000 418.400000
8111 21703 21704 1 109.50000 418.400000
21703 21704 21705 1 115.00000 209.200000
2253 21706 9949 1 109.50000 418.400000
2253 21706 9950 1 109.50000 418.400000
2253 21706 21707 1 109.50000 418.400000
9949 21706 9950 1 109.50000 418.400000
9949 21706 21707 1 109.50000 418.400000
9950 21706 21707 1 109.50000 418.400000
21706 21707 21708 1 115.00000 209.200000
5437 21709 8438 1 109.50000 418.400000
5437 21709 11179 1 109.50000 418.400000
5437 21709 21710 1 109.50000 418.400000
8438 21709 11179 1 109.50000 418.400000
8438 21709 21710 1 109.50000 418.400000
11179 21709 21710 1 109.50000 418.400000
21709 21710 21711 1 115.00000 209.200000
1330 21712 7807 1 109.50000 418.400000
1330 21712 10012 1 109.50000 418.400000
1330 21712 21713 1 109.50000 418.400000
7807 21712 10012 1 109.50000 418.400000
7807 21712 21713 1 109.50000 418.400000
10012 21712 21713 1 109.50000 418.400000
21712 21713 21714 1 115.00000 209.200000
10034 21715 10035 1 109.50000 418.400000
10034 21715 10036 1 109.50000 418.400000
10034 21715 21716 1 109.50000 418.400000
10035 21715 10036 1 109.50000 418.400000
10035 21715 21716 1 109.50000 418.400000
10036 21715 21716 1 109.50000 418.400000
21715 21716 21717 1 115.00000 209.200000
2112 21718 10068 1 109.50000 418.400000
2112 21718 10069 1 109.50000 418.400000
2112 21718 21719 1 109.50000 418.400000
10068 21718 10069 1 109.50000 418.400000
10068 21718 21719 1 109.50000 418.400000
10069 21718 21719 1 109.50000 418.400000
21718 21719 21720 1 115.00000 209.200000
5020 21721 7250 1 109.50000 418.400000
5020 21721 10124 1 109.50000 418.400000
5020 21721 21722 1 109.50000 418.400000
7250 21721 10124 1 109.50000 418.400000
7250 21721 21722 1 109.50000 418.400000
10124 21721 21722 1 109.50000 418.400000
21721 21722 21723 1 115.00000 209.200000
2890 21724 9603 1 109.50000 418.400000
2890 21724 10140 1 109.50000 418.400000
2890 21724 21725 1 109.50000 418.400000
9603 21724 10140 1 109.50000 418.400000
9603 21724 21725 1 109.50000 418.400000
10140 21724 21725 1 109.50000 418.400000
21724 21725 21726 1 115.00000 209.200000
3834 21727 9092 1 109.50000 418.400000
3834 21727 10141 1 109.50000 418.400000
3834 21727 21728 1 109.50000 418.400000
9092 21727 10141 1 109.50000 418.400000
9092 21727 21728 1 109.50000 418.400000
10141 21727 21728 1 109.50000 418.400000
21727 21728 21729 1 115.00000 209.200000
469 21730 3072 1 109.50000 418.400000
469 21730 10144 1 109.50000 418.400000
469 21730 21731 1 109.50000 418.400000
3072 21730 10144 1 109.50000 418.400000
3072 21730 21731 1 109.50000 418.400000
10144 21730 21731 1 109.50000 418.400000
21730 21731 21732 1 115.00000 209.200000
2747 21733 9143 1 109.50000 418.400000
2747 21733 10185 1 109.50000 418.400000
2747 21733 21734 1 109.50000 418.400000
9143 21733 10185 1 109.50000 418.400000
9143 21733 21734 1 109.50000 418.400000
10185 21733 21734 1 109.50000 418.400000
21733 21734 21735 1 115.00000 209.200000
9269 21736 9492 1 109.50000 418.400000
9269 21736 10199 1 109.50000 418.400000
9269 21736 21737 1 109.50000 418.400000
9492 21736 10199 1 109.50000 418.400000
9492 21736 21737 1 109.50000 418.400000
10199 21736 21737 1 109.50000 418.400000
21736 21737 21738 1 115.00000 209.200000
3995 21739 6071 1 109.50000 418.400000
3995 21739 10265 1 109.50000 418.400000
3995 21739 21740 1 109.50000 418.400000
6071 21739 10265 1 109.50000 418.400000
6071 21739 21740 1 109.50000 418.400000
10265 21739 21740 1 109.50000 418.400000
21739 21740 21741 1 115.00000 209.200000
3559 21742 10104 1 109.50000 418.400000
3559 21742 10270 1 109.50000 418.400000
3559 21742 21743 1 109.50000 418.400000
10104 21742 10270 1 109.50000 418.400000
10104 21742 21743 1 109.50000 418.400000
10270 21742 21743 1 109.50000 418.400000
21742 21743 21744 1 115.00000 209.200000
6440 21745 6664 1 109.50000 418.400000
6440 21745 11281 1 109.50000 418.400000
6440 21745 21746 1 109.50000 418.400000
6664 21745 11281 1 109.50000 418.400000
6664 21745 21746 1 109.50000 418.400000
11281 21745 21746 1 109.50000 418.400000
21745 21746 21747 1 115.00000 209.200000
9562 21748 10461 1 109.50000 418.400000
9562 21748 10462 1 109.50000 418.400000
9562 21748 21749 1 109.50000 418.400000
10461 21748 10462 1 109.50000 418.400000
10461 21748 21749 1 109.50000 418.400000
10462 21748 21749 1 109.50000 418.400000
21748 21749 21750 1 115.00000 209.200000
793 21751 10034 1 109.50000 418.400000
793 21751 10463 1 109.50000 418.400000
793 21751 21752 1 109.50000 418.400000
10034 21751 10463 1 109.50000 418.400000
10034 21751 21752 1 109.50000 418.400000
10463 21751 21752 1 109.50000 418.400000
21751 21752 21753 1 115.00000 209.200000
676 21754 1921 1 109.50000 418.400000
676 21754 10475 1 109.50000 418.400000
676 21754 21755 1 109.50000 418.400000
1921 21754 10475 1 109.50000 418.400000
1921 21754 21755 1 109.50000 418.400000
10475 21754 21755 1 109.50000 418.400000
21754 21755 21756 1 115.00000 209.200000
991 21757 5441 1 109.50000 418.400000
991 21757 8962 1 109.50000 418.400000
991 21757 21758 1 109.50000 418.400000
5441 21757 8962 1 109.50000 418.400000
5441 21757 21758 1 109.50000 418.400000
8962 21757 21758 1 109.50000 418.400000
21757 21758 21759 1 115.00000 209.200000
1021 21760 9602 1 109.50000 418.400000
1021 21760 9828 1 109.50000 418.400000
1021 21760 21761 1 109.50000 418.400000
9602 21760 9828 1 109.50000 418.400000
9602 21760 21761 1 109.50000 418.400000
9828 21760 21761 1 109.50000 418.400000
21760 21761 21762 1 115.00000 209.200000
1715 21763 7141 1 109.50000 418.400000
1715 21763 8493 1 109.50000 418.400000
1715 21763 21764 1 109.50000 418.400000
7141 21763 8493 1 109.50000 418.400000
7141 21763 21764 1 109.50000 418.400000
8493 21763 21764 1 109.50000 418.400000
21763 21764 21765 1 115.00000 209.200000
2996 21766 4584 1 109.50000 418.400000
2996 21766 10567 1 109.50000 418.400000
2996 21766 21767 1 109.50000 418.400000
4584 21766 10567 1 109.50000 418.400000
4584 21766 21767 1 109.50000 418.400000
10567 21766 21767 1 109.50000 418.400000
21766 21767 21768 1 115.00000 209.200000
5467 21769 10581 1 109.50000 418.400000
5467 21769 10582 1 109.50000 418.400000
5467 21769 21770 1 109.50000 418.400000
10581 21769 10582 1 109.50000 418.400000
10581 21769 21770 1 109.50000 418.400000
10582 21769 21770 1 109.50000 418.400000
21769 21770 21771 1 115.00000 209.200000
2568 21772 4033 1 109.50000 418.400000
2568 21772 7493 1 109.50000 418.400000
2568 21772 21773 1 109.50000 418.400000
4033 21772 7493 1 109.50000 418.400000
4033 21772 21773 1 109.50000 418.400000
7493 21772 21773 1 109.50000 418.400000
21772 21773 21774 1 115.00000 209.200000
5991 21775 10515 1 109.50000 418.400000
5991 21775 10591 1 109.50000 418.400000
5991 21775 21776 1 109.50000 418.400000
10515 21775 10591 1 109.50000 418.400000
10515 21775 21776 1 109.50000 418.400000
10591 21775 21776 1 109.50000 418.400000
21775 21776 21777 1 115.00000 209.200000
620 21778 10592 1 109.50000 418.400000
620 21778 10593 1 109.50000 418.400000
620 21778 21779 1 109.50000 418.400000
10592 21778 10593 1 109.50000 418.400000
10592 21778 21779 1 109.50000 418.400000
10593 21778 21779 1 109.50000 418.400000
21778 21779 21780 1 115.00000 209.200000
3727 21781 9679 1 109.50000 418.400000
3727 21781 9751 1 109.50000 418.400000
3727 21781 21782 1 109.50000 418.400000
9679 21781 9751 1 109.50000 418.400000
9679 21781 21782 1 109.50000 418.400000
9751 21781 21782 1 109.50000 418.400000
21781 21782 21783 1 115.00000 209.200000
92 21784 814 1 109.50000 418.400000
92 21784 6854 1 109.50000 418.400000
92 21784 21785 1 109.50000 418.400000
814 21784 6854 1 109.50000 418.400000
814 21784 21785 1 109.50000 418.400000
6854 21784 21785 1 109.50000 418.400000
21784 21785 21786 1 115.00000 209.200000
6267 21787 6988 1 109.50000 418.400000
6267 21787 10626 1 109.50000 418.400000
6267 21787 21788 1 109.50000 418.400000
6988 21787 10626 1 109.50000 418.400000
6988 21787 21788 1 109.50000 418.400000
10626 21787 21788 1 109.50000 418.400000
21787 21788 21789 1 115.00000 209.200000
3071 21790 7376 1 109.50000 418.400000
3071 21790 9183 1 109.50000 418.400000
3071 21790 21791 1 109.50000 418.400000
7376 21790 9183 1 109.50000 418.400000
7376 21790 21791 1 109.50000 418.400000
9183 21790 21791 1 109.50000 418.400000
21790 21791 21792 1 115.00000 209.200000
10409 21793 10694 1 109.50000 418.400000
10409 21793 11207 1 109.50000 418.400000
10409 21793 21794 1 109.50000 418.400000
10694 21793 11207 1 109.50000 418.400000
10694 21793 21794 1 109.50000 418.400000
11207 21793 21794 1 109.50000 418.400000
21793 21794 21795 1 115.00000 209.200000
1736 21796 2965 1 109.50000 418.400000
1736 21796 3899 1 109.50000 418.400000
1736 21796 21797 1 109.50000 418.400000
2965 21796 3899 1 109.50000 418.400000
2965 21796 21797 1 109.50000 418.400000
3899 21796 21797 1 109.50000 418.400000
21796 21797 21798 1 115.00000 209.200000
6843 21799 8621 1 109.50000 418.400000
6843 21799 9766 1 109.50000 418.400000
6843 21799 21800 1 109.50000 418.400000
8621 21799 9766 1 109.50000 418.400000
8621 21799 21800 1 109.50000 418.400000
9766 21799 21800 1 109.50000 418.400000
21799 21800 21801 1 115.00000 209.200000
5763 21802 8044 1 109.50000 418.400000
5763 21802 10736 1 109.50000 418.400000
5763 21802 21803 1 109.50000 418.400000
8044 21802 10736 1 109.50000 418.400000
8044 21802 21803 1 109.50000 418.400000
10736 21802 21803 1 109.50000 418.400000
21802 21803 21804 1 115.00000 209.200000
6452 21805 9581 1 109.50000 418.400000
6452 21805 10744 1 109.50000 418.400000
6452 21805 21806 1 109.50000 418.400000
9581 21805 10744 1 109.50000 418.400000
9581 21805 21806 1 109.50000 418.400000
10744 21805 21806 1 109.50000 418.400000
21805 21806 21807 1 115.00000 209.200000
6901 21808 10756 1 109.50000 418.400000
6901 21808 10757 1 109.50000 418.400000
6901 21808 21809 1 109.50000 418.400000
10756 21808 10757 1 109.50000 418.400000
10756 21808 21809 1 109.50000 418.400000
10757 21808 21809 1 109.50000 418.400000
21808 21809 21810 1 115.00000 209.200000
6417 21811 10082 1 109.50000 418.400000
6417 21811 11190 1 109.50000 418.400000
6417 21811 21812 1 109.50000 418.400000
10082 21811 11190 1 109.50000 418.400000
10082 21811 21812 1 109.50000 418.400000
11190 21811 21812 1 109.50000 418.400000
21811 21812 21813 1 115.00000 209.200000
853 21814 1645 1 109.50000 418.400000
853 21814 4565 1 109.50000 418.400000
853 21814 21815 1 109.50000 418.400000
1645 21814 4565 1 109.50000 418.400000
1645 21814 21815 1 109.50000 418.400000
4565 21814 21815 1 109.50000 418.400000
21814 21815 21816 1 115.00000 209.200000
937 21817 6733 1 109.50000 418.400000
937 21817 9652 1 109.50000 418.400000
937 21817 21818 1 109.50000 418.400000
6733 21817 9652 1 109.50000 418.400000
6733 21817 21818 1 109.50000 418.400000
9652 21817 21818 1 109.50000 418.400000
21817 21818 21819 1 115.00000 209.200000
6835 21820 8634 1 109.50000 418.400000
6835 21820 11161 1 109.50000 418.400000
6835 21820 21821 1 109.50000 418.400000
8634 21820 11161 1 109.50000 418.400000
8634 21820 21821 1 109.50000 418.400000
11161 21820 21821 1 109.50000 418.400000
21820 21821 21822 1 115.00000 209.200000
1951 21823 8851 1 109.50000 418.400000
1951 21823 10674 1 109.50000 418.400000
1951 21823 21824 1 109.50000 418.400000
8851 21823 10674 1 109.50000 418.400000
8851 21823 21824 1 109.50000 418.400000
10674 21823 21824 1 109.50000 418.400000
21823 21824 21825 1 115.00000 209.200000
6517 21826 6519 1 109.50000 418.400000
6517 21826 7094 1 109.50000 418.400000
6517 21826 21827 1 109.50000 418.400000
6519 21826 7094 1 109.50000 418.400000
6519 21826 21827 1 109.50000 418.400000
7094 21826 21827 1 109.50000 418.400000
21826 21827 21828 1 115.00000 209.200000
3567 21829 10441 1 109.50000 418.400000
3567 21829 10814 1 109.50000 418.400000
3567 21829 21830 1 109.50000 418.400000
10441 21829 10814 1 109.50000 418.400000
10441 21829 21830 1 109.50000 418.400000
10814 21829 21830 1 109.50000 418.400000
21829 21830 21831 1 115.00000 209.200000
8497 21832 9348 1 109.50000 418.400000
8497 21832 11146 1 109.50000 418.400000
8497 21832 21833 1 109.50000 418.400000
9348 21832 11146 1 109.50000 418.400000
9348 21832 21833 1 109.50000 418.400000
11146 21832 21833 1 109.50000 418.400000
21832 21833 21834 1 115.00000 209.200000
7287 21835 7288 1 109.50000 418.400000
7287 21835 9990 1 109.50000 418.400000
7287 21835 21836 1 109.50000 418.400000
7288 21835 9990 1 109.50000 418.400000
7288 21835 21836 1 109.50000 418.400000
9990 21835 21836 1 109.50000 418.400000
21835 21836 21837 1 115.00000 209.200000
4150 21838 8405 1 109.50000 418.400000
4150 21838 11221 1 109.50000 418.400000
4150 21838 21839 1 109.50000 418.400000
8405 21838 11221 1 109.50000 418.400000
8405 21838 21839 1 109.50000 418.400000
11221 21838 21839 1 109.50000 418.400000
21838 21839 21840 1 115.00000 209.200000
2490 21841 7612 1 109.50000 418.400000
2490 21841 7613 1 109.50000 418.400000
2490 21841 21842 1 109.50000 418.400000
7612 21841 7613 1 109.50000 418.400000
7612 21841 21842 1 109.50000 418.400000
7613 21841 21842 1 109.50000 418.400000
21841 21842 21843 1 115.00000 209.200000
1037 21844 7956 1 109.50000 418.400000
1037 21844 9734 1 109.50000 418.400000
1037 21844 21845 1 109.50000 418.400000
7956 21844 9734 1 109.50000 418.400000
7956 21844 21845 1 109.50000 418.400000
9734 21844 21845 1 109.50000 418.400000
21844 21845 21846 1 115.00000 209.200000
9276 21847 9992 1 109.50000 418.400000
9276 21847 10866 1 109.50000 418.400000
9276 21847 21848 1 109.50000 418.400000
9992 21847 10866 1 109.50000 418.400000
9992 21847 21848 1 109.50000 418.400000
10866 21847 21848 1 109.50000 418.400000
21847 21848 21849 1 115.00000 209.200000
7843 21850 10080 1 109.50000 418.400000
7843 21850 10213 1 109.50000 418.400000
7843 21850 21851 1 109.50000 418.400000
10080 21850 10213 1 109.50000 418.400000
10080 21850 21851 1 109.50000 418.400000
10213 21850 21851 1 109.50000 418.400000
21850 21851 21852 1 115.00000 209.200000
7127 21853 9505 1 109.50000 418.400000
7127 21853 9506 1 109.50000 418.400000
7127 21853 21854 1 109.50000 418.400000
9505 21853 9506 1 109.50000 418.400000
9505 21853 21854 1 109.50000 418.400000
9506 21853 21854 1 109.50000 418.400000
21853 21854 21855 1 115.00000 209.200000
348 21856 349 1 109.50000 418.400000
348 21856 350 1 109.50000 418.400000
348 21856 21857 1 109.50000 418.400000
349 21856 350 1 109.50000 418.400000
349 21856 21857 1 109.50000 418.400000
350 21856 21857 1 109.50000 418.400000
21856 21857 21858 1 115.00000 209.200000
7113 21859 9899 1 109.50000 418.400000
7113 21859 11227 1 109.50000 418.400000
7113 21859 21860 1 109.50000 418.400000
9899 21859 11227 1 109.50000 418.400000
9899 21859 21860 1 109.50000 418.400000
11227 21859 21860 1 109.50000 418.400000
21859 21860 21861 1 115.00000 209.200000
4041 21862 8961 1 109.50000 418.400000
4041 21862 10146 1 109.50000 418.400000
4041 21862 21863 1 109.50000 418.400000
8961 21862 10146 1 109.50000 418.400000
8961 21862 21863 1 109.50000 418.400000
10146 21862 21863 1 109.50000 418.400000
21862 21863 21864 1 115.00000 209.200000
6939 21865 9172 1 109.50000 418.400000
6939 21865 11156 1 109.50000 418.400000
6939 21865 21866 1 109.50000 418.400000
9172 21865 11156 1 109.50000 418.400000
9172 21865 21866 1 109.50000 418.400000
11156 21865 21866 1 109.50000 418.400000
21865 21866 21867 1 115.00000 209.200000
2009 21868 10063 1 109.50000 418.400000
2009 21868 11174 1 109.50000 418.400000
2009 21868 21869 1 109.50000 418.400000
10063 21868 11174 1 109.50000 418.400000
10063 21868 21869 1 109.50000 418.400000
11174 21868 21869 1 109.50000 418.400000
21868 21869 21870 1 115.00000 209.200000
6441 21871 8569 1 109.50000 418.400000
6441 21871 10759 1 109.50000 418.400000
6441 21871 21872 1 109.50000 418.400000
8569 21871 10759 1 109.50000 418.400000
8569 21871 21872 1 109.50000 418.400000
10759 21871 21872 1 109.50000 418.400000
21871 21872 21873 1 115.00000 209.200000
3347 21874 10567 1 109.50000 418.400000
3347 21874 11186 1 109.50000 418.400000
3347 21874 21875 1 109.50000 418.400000
10567 21874 11186 1 109.50000 418.400000
10567 21874 21875 1 109.50000 418.400000
11186 21874 21875 1 109.50000 418.400000
21874 21875 21876 1 115.00000 209.200000
1727 21877 6638 1 109.50000 418.400000
1727 21877 7818 1 109.50000 418.400000
1727 21877 21878 1 109.50000 418.400000
6638 21877 7818 1 109.50000 418.400000
6638 21877 21878 1 109.50000 418.400000
7818 21877 21878 1 109.50000 418.400000
21877 21878 21879 1 115.00000 209.200000
272 21880 6225 1 109.50000 418.400000
272 21880 9827 1 109.50000 418.400000
272 21880 21881 1 109.50000 418.400000
6225 21880 9827 1 109.50000 418.400000
6225 21880 21881 1 109.50000 418.400000
9827 21880 21881 1 109.50000 418.400000
21880 21881 21882 1 115.00000 209.200000
8815 21883 10457 1 109.50000 418.400000
8815 21883 10942 1 109.50000 418.400000
8815 21883 21884 1 109.50000 418.400000
10457 21883 10942 1 109.50000 418.400000
10457 21883 21884 1 109.50000 418.400000
10942 21883 21884 1 109.50000 418.400000
21883 21884 21885 1 115.00000 209.200000
4437 21886 4853 1 109.50000 418.400000
4437 21886 7741 1 109.50000 418.400000
4437 21886 21887 1 109.50000 418.400000
4853 21886 7741 1 109.50000 418.400000
4853 21886 21887 1 109.50000 418.400000
7741 21886 21887 1 109.50000 418.400000
21886 21887 21888 1 115.00000 209.200000
10049 21889 10949 1 109.50000 418.400000
10049 21889 10950 1 109.50000 418.400000
10049 21889 21890 1 109.50000 418.400000
10949 21889 10950 1 109.50000 418.400000
10949 21889 21890 1 109.50000 418.400000
10950 21889 21890 1 109.50000 418.400000
21889 21890 21891 1 115.00000 209.200000
10678 21892 10964 1 109.50000 418.400000
10678 21892 10965 1 109.50000 418.400000
10678 21892 21893 1 109.50000 418.400000
10964 21892 10965 1 109.50000 418.400000
10964 21892 21893 1 109.50000 418.400000
10965 21892 21893 1 109.50000 418.400000
21892 21893 21894 1 115.00000 209.200000
4221 21895 5270 1 109.50000 418.400000
4221 21895 10866 1 109.50000 418.400000
4221 21895 21896 1 109.50000 418.400000
5270 21895 10866 1 109.50000 418.400000
5270 21895 21896 1 109.50000 418.400000
10866 21895 21896 1 109.50000 418.400000
21895 21896 21897 1 115.00000 209.200000
5627 21898 7257 1 109.50000 418.400000
5627 21898 10991 1 109.50000 418.400000
5627 21898 21899 1 109.50000 418.400000
7257 21898 10991 1 109.50000 418.400000
7257 21898 21899 1 109.50000 418.400000
10991 21898 21899 1 109.50000 418.400000
21898 21899 21900 1 115.00000 209.200000
1444 21901 9025 1 109.50000 418.400000
1444 21901 10995 1 109.50000 418.400000
1444 21901 21902 1 109.50000 418.400000
9025 21901 10995 1 109.50000 418.400000
9025 21901 21902 1 109.50000 418.400000
10995 21901 21902 1 109.50000 418.400000
21901 21902 21903 1 115.00000 209.200000
3470 21904 10046 1 109.50000 418.400000
3470 21904 10995 1 109.50000 418.400000
3470 21904 21905 1 109.50000 418.400000
10046 21904 10995 1 109.50000 418.400000
10046 21904 21905 1 109.50000 418.400000
10995 21904 21905 1 109.50000 418.400000
21904 21905 21906 1 115.00000 209.200000
6251 21907 10923 1 109.50000 418.400000
6251 21907 11214 1 109.50000 418.400000
6251 21907 21908 1 109.50000 418.400000
10923 21907 11214 1 109.50000 418.400000
10923 21907 21908 1 109.50000 418.400000
11214 21907 21908 1 109.50000 418.400000
21907 21908 21909 1 115.00000 209.200000
652 21910 3221 1 109.50000 418.400000
652 21910 11293 1 109.50000 418.400000
652 21910 21911 1 109.50000 418.400000
3221 21910 11293 1 109.50000 418.400000
3221 21910 21911 1 109.50000 418.400000
11293 21910 21911 1 109.50000 418.400000
21910 21911 21912 1 115.00000 209.200000
2893 21913 11044 1 109.50000 418.400000
2893 21913 11196 1 109.50000 418.400000
2893 21913 21914 1 109.50000 418.400000
11044 21913 11196 1 109.50000 418.400000
11044 21913 21914 1 109.50000 418.400000
11196 21913 21914 1 109.50000 418.400000
21913 21914 21915 1 115.00000 209.200000
1644 21916 6386 1 109.50000 418.400000
1644 21916 10906 1 109.50000 418.400000
1644 21916 21917 1 109.50000 418.400000
6386 21916 10906 1 109.50000 418.400000
6386 21916 21917 1 109.50000 418.400000
10906 21916 21917 1 109.50000 418.400000
21916 21917 21918 1 115.00000 209.200000
1112 21919 5188 1 109.50000 418.400000
1112 21919 9395 1 109.50000 418.400000
1112 21919 21920 1 109.50000 418.400000
5188 21919 9395 1 109.50000 418.400000
5188 21919 21920 1 109.50000 418.400000
9395 21919 21920 1 109.50000 418.400000
21919 21920 21921 1 115.00000 209.200000
4779 21922 6100 1 109.50000 418.400000
4779 21922 9541 1 109.50000 418.400000
4779 21922 21923 1 109.50000 418.400000
6100 21922 9541 1 109.50000 418.400000
6100 21922 21923 1 109.50000 418.400000
9541 21922 21923 1 109.50000 418.400000
21922 21923 21924 1 115.00000 209.200000
6567 21925 9576 1 109.50000 418.400000
6567 21925 10603 1 109.50000 418.400000
6567 21925 21926 1 109.50000 418.400000
9576 21925 10603 1 109.50000 418.400000
9576 21925 21926 1 109.50000 418.400000
10603 21925 21926 1 109.50000 418.400000
21925 21926 21927 1 115.00000 209.200000
3775 21928 5269 1 109.50000 418.400000
3775 21928 7991 1 109.50000 418.400000
3775 21928 21929 1 109.50000 418.400000
5269 21928 7991 1 109.50000 418.400000
5269 21928 21929 1 109.50000 418.400000
7991 21928 21929 1 109.50000 418.400000
21928 21929 21930 1 115.00000 209.200000
2914 21931 5091 1 109.50000 418.400000
2914 21931 11192 1 109.50000 418.400000
2914 21931 21932 1 109.50000 418.400000
5091 21931 11192 1 109.50000 418.400000
5091 21931 21932 1 109.50000 418.400000
11192 21931 21932 1 109.50000 418.400000
21931 21932 21933 1 115.00000 209.200000
10222 21934 11032 1 109.50000 418.400000
10222 21934 11141 1 109.50000 418.400000
10222 21934 21935 1 109.50000 418.400000
11032 21934 11141 1 109.50000 418.400000
11032 21934 21935 1 109.50000 418.400000
11141 21934 21935 1 109.50000 418.400000
21934 21935 21936 1 115.00000 209.200000
8511 21937 10784 1 109.50000 418.400000
8511 21937 11142 1 109.50000 418.400000
8511 21937 21938 1 109.50000 418.400000
10784 21937 11142 1 109.50000 418.400000
10784 21937 21938 1 109.50000 418.400000
11142 21937 21938 1 109.50000 418.400000
21937 21938 21939 1 115.00000 209.200000
1083 21940 4636 1 109.50000 418.400000
1083 21940 5142 1 109.50000 418.400000
1083 21940 21941 1 109.50000 418.400000
4636 21940 5142 1 109.50000 418.400000
4636 21940 21941 1 109.50000 418.400000
5142 21940 21941 1 109.50000 418.400000
21940 21941 21942 1 115.00000 209.200000
2652 21943 7037 1 109.50000 418.400000
2652 21943 10555 1 109.50000 418.400000
2652 21943 21944 1 109.50000 418.400000
7037 21943 10555 1 109.50000 418.400000
7037 21943 21944 1 109.50000 418.400000
10555 21943 21944 1 109.50000 418.400000
21943 21944 21945 1 115.00000 209.200000
4733 21946 9971 1 109.50000 418.400000
4733 21946 10036 1 109.50000 418.400000
4733 21946 21947 1 109.50000 418.400000
9971 21946 10036 1 109.50000 418.400000
9971 21946 21947 1 109.50000 418.400000
10036 21946 21947 1 109.50000 418.400000
21946 21947 21948 1 115.00000 209.200000
192 21949 1858 1 109.50000 418.400000
192 21949 21950 1 109.50000 418.400000
192 21949 21952 1 109.50000 418.400000
1858 21949 21950 1 109.50000 418.400000
1858 21949 21952 1 109.50000 418.400000
21950 21949 21952 1 109.50000 418.400000
21949 21950 21951 1 115.00000 209.200000
21949 21952 21953 1 115.00000 209.200000
583 21954 584 1 109.50000 418.400000
583 21954 21955 1 109.50000 418.400000
583 21954 21957 1 109.50000 418.400000
584 21954 21955 1 109.50000 418.400000
584 21954 21957 1 109.50000 418.400000
21955 21954 21957 1 109.50000 418.400000
21954 21955 21956 1 115.00000 209.200000
21954 21957 21958 1 115.00000 209.200000
2623 21959 2624 1 109.50000 418.400000
2623 21959 21960 1 109.50000 418.400000
2623 21959 21962 1 109.50000 418.400000
2624 21959 21960 1 109.50000 418.400000
2624 21959 21962 1 109.50000 418.400000
21960 21959 21962 1 109.50000 418.400000
21959 21960 21961 1 115.00000 209.200000
21959 21962 21963 1 115.00000 209.200000
940 21964 5352 1 109.50000 418.400000
940 21964 21965 1 109.50000 418.400000
940 21964 21967 1 109.50000 418.400000
5352 21964 21965 1 109.50000 418.400000
5352 21964 21967 1 109.50000 418.400000
21965 21964 21967 1 109.50000 418.400000
21964 21965 21966 1 115.00000 209.200000
21964 21967 21968 1 115.00000 209.200000
6350 21969 6351 1 109.50000 418.400000
6350 21969 21970 1 109.50000 418.400000
6350 21969 21972 1 109.50000 418.400000
6351 21969 21970 1 109.50000 418.400000
6351 21969 21972 1 109.50000 418.400000
21970 21969 21972 1 109.50000 418.400000
21969 21970 21971 1 115.00000 209.200000
21969 21972 21973 1 115.00000 209.200000
5762 21974 6382 1 109.50000 418.400000
5762 21974 21975 1 109.50000 418.400000
5762 21974 21977 1 109.50000 418.400000
6382 21974 21975 1 109.50000 418.400000
6382 21974 21977 1 109.50000 418.400000
21975 21974 21977 1 109.50000 418.400000
21974 21975 21976 1 115.00000 209.200000
21974 21977 21978 1 115.00000 209.200000
491 21979 5846 1 109.50000 418.400000
491 21979 21980 1 109.50000 418.400000
491 21979 21982 1 109.50000 418.400000
5846 21979 21980 1 109.50000 418.400000
5846 21979 21982 1 109.50000 418.400000
21980 21979 21982 1 109.50000 418.400000
21979 21980 21981 1 115.00000 209.200000
21979 21982 21983 1 115.00000 209.200000
3504 21984 6148 1 109.50000 418.400000
3504 21984 21985 1 109.50000 418.400000
3504 21984 21987 1 109.50000 418.400000
6148 21984 21985 1 109.50000 418.400000
6148 21984 21987 1 109.50000 418.400000
21985 21984 21987 1 109.50000 418.400000
21984 21985 21986 1 115.00000 209.200000
21984 21987 21988 1 115.00000 209.200000
5845 21989 7559 1 109.50000 418.400000
5845 21989 21990 1 109.50000 418.400000
5845 21989 21992 1 109.50000 418.400000
7559 21989 21990 1 109.50000 418.400000
7559 21989 21992 1 109.50000 418.400000
21990 21989 21992 1 109.50000 418.400000
21989 21990 21991 1 115.00000 209.200000
21989 21992 21993 1 115.00000 209.200000
6486 21994 7363 1 109.50000 418.400000
6486 21994 21995 1 109.50000 418.400000
6486 21994 21997 1 109.50000 418.400000
7363 21994 21995 1 109.50000 418.400000
7363 21994 21997 1 109.50000 418.400000
21995 21994 21997 1 109.50000 418.400000
21994 21995 21996 1 115.00000 209.200000
21994 21997 21998 1 115.00000 209.200000
205 21999 1944 1 109.50000 418.400000
205 21999 22000 1 109.50000 418.400000
205 21999 22002 1 109.50000 418.400000
1944 21999 22000 1 109.50000 418.400000
1944 21999 22002 1 109.50000 418.400000
22000 21999 22002 1 109.50000 418.400000
21999 22000 22001 1 115.00000 209.200000
21999 22002 22003 1 115.00000 209.200000
1686 22004 8093 1 109.50000 418.400000
1686 22004 22005 1 109.50000 418.400000
1686 22004 22007 1 109.50000 418.400000
8093 22004 22005 1 109.50000 418.400000
8093 22004 22007 1 109.50000 418.400000
22005 22004 22007 1 109.50000 418.400000
22004 22005 22006 1 115.00000 209.200000
22004 22007 22008 1 115.00000 209.200000
5257 22009 5448 1 109.50000 418.400000
5257 22009 22010 1 109.50000 418.400000
5257 22009 22012 1 109.50000 418.400000
5448 22009 22010 1 109.50000 418.400000
5448 22009 22012 1 109.50000 418.400000
22010 22009 22012 1 109.50000 418.400000
22009 22010 22011 1 115.00000 209.200000
22009 22012 22013 1 115.00000 209.200000
3635 22014 7073 1 109.50000 418.400000
3635 22014 22015 1 109.50000 418.400000
3635 22014 22017 1 109.50000 418.400000
7073 22014 22015 1 109.50000 418.400000
7073 22014 22017 1 109.50000 418.400000
22015 22014 22017 1 109.50000 418.400000
22014 22015 22016 1 115.00000 209.200000
22014 22017 22018 1 115.00000 209.200000
3560 22019 8785 1 109.50000 418.400000
3560 22019 22020 1 109.50000 418.400000
3560 22019 22022 1 109.50000 418.400000
8785 22019 22020 1 109.50000 418.400000
8785 22019 22022 1 109.50000 418.400000
22020 22019 22022 1 109.50000 418.400000
22019 22020 22021 1 115.00000 209.200000
22019 22022 22023 1 115.00000 209.200000
6235 22024 9622 1 109.50000 418.400000
6235 22024 22025 1 109.50000 418.400000
6235 22024 22027 1 109.50000 418.400000
9622 22024 22025 1 109.50000 418.400000
9622 22024 22027 1 109.50000 418.400000
22025 22024 22027 1 109.50000 418.400000
22024 22025 22026 1 115.00000 209.200000
22024 22027 22028 1 115.00000 209.200000
8938 22029 9991 1 109.50000 418.400000
8938 22029 22030 1 109.50000 418.400000
8938 22029 22032 1 109.50000 418.400000
9991 22029 22030 1 109.50000 418.400000
9991 22029 22032 1 109.50000 418.400000
22030 22029 22032 1 109.50000 418.400000
22029 22030 22031 1 115.00000 209.200000
22029 22032 22033 1 115.00000 209.200000
10868 22034 10869 1 109.50000 418.400000
10868 22034 22035 1 109.50000 418.400000
10868 22034 22037 1 109.50000 418.400000
10869 22034 22035 1 109.50000 418.400000
10869 22034 22037 1 109.50000 418.400000
22035 22034 22037 1 109.50000 418.400000
22034 22035 22036 1 115.00000 209.200000
22034 22037 22038 1 115.00000 209.200000
6303 22039 9852 1 109.50000 418.400000
6303 22039 22040 1 109.50000 418.400000
6303 22039 22042 1 109.50000 418.400000
9852 22039 22040 1 109.50000 418.400000
9852 22039 22042 1 109.50000 418.400000
22040 22039 22042 1 109.50000 418.400000
22039 22040 22041 1 115.00000 209.200000
22039 22042 22043 1 115.00000 209.200000
2026 22044 5542 1 109.50000 418.400000
2026 22044 22045 1 109.50000 418.400000
2026 22044 22047 1 109.50000 418.400000
5542 22044 22045 1 109.50000 418.400000
5542 22044 22047 1 109.50000 418.400000
22045 22044 22047 1 109.50000 418.400000
22044 22045 22046 1 115.00000 209.200000
22044 22047 22048 1 115.00000 209.200000
9583 22049 10463 1 109.50000 418.400000
9583 22049 22050 1 109.50000 418.400000
9583 22049 22052 1 109.50000 418.400000
10463 22049 22050 1 109.50000 418.400000
10463 22049 22052 1 109.50000 418.400000
22050 22049 22052 1 109.50000 418.400000
22049 22050 22051 1 115.00000 209.200000
22049 22052 22053 1 115.00000 209.200000

[ dihedrals ]
; ai aj ak al funct params
16627 16628 16629 16630 1 180.0000771 15.1670000 2
16627 16628 16629 16631 1 180.0000771 15.1670000 2
16630 16628 16629 16631 4 180.0000771 4.6024000 2
16627 16628 16637 16629 4 180.0000771 4.6024000 2
16627 16628 16637 16635 1 180.0000771 15.1670000 2
16627 16628 16637 16638 1 180.0000771 15.1670000 2
16629 16628 16637 16635 1 180.0000771 15.1670000 2
16629 16628 16637 16638 1 180.0000771 15.1670000 2
16630 16629 16628 16637 1 180.0000771 15.1670000 2
16631 16629 16628 16637 1 180.0000771 15.1670000 2
16628 16629 16631 16632 1 180.0000771 15.1670000 2
16628 16629 16631 16633 1 180.0000771 15.1670000 2
16630 16629 16631 16632 1 180.0000771 15.1670000 2
16630 16629 16631 16633 1 180.0000771 15.1670000 2
16629 16631 16633 16634 1 180.0000771 15.1670000 2
16629 16631 16633 16635 1 180.0000771 15.1670000 2
16632 16631 16633 16634 1 180.0000771 15.1670000 2
16632 16631 16633 16635 1 180.0000771 15.1670000 2
16629 16633 16631 16632 4 180.0000771 4.6024000 2
16631 16633 16635 16636 1 180.0000771 15.1670000 2
16631 16633 16635 16637 1 180.0000771 15.1670000 2
16634 16633 16635 16636 1 180.0000771 15.1670000 2
16634 16633 16635 16637 1 180.0000771 15.1670000 2
16631 16635 16633 16634 4 180.0000771 4.6024000 2
16628 16635 16637 16638 4 180.0000771 4.6024000 2
16633 16635 16637 16638 1 180.0000771 15.1670000 2
16636 16635 16637 16638 1 180.0000771 15.1670000 2
16628 16637 16635 16633 1 180.0000771 15.1670000 2
16628 16637 16635 16636 1 180.0000771 15.1670000 2
16633 16637 16635 16636 4 180.0000771 4.6024000 2
16641 16642 16643 16644 1 180.0000771 15.1670000 2
16641 16642 16643 16645 1 180.0000771 15.1670000 2
16644 16642 16643 16645 4 180.0000771 4.6024000 2
16641 16642 16651 16643 4 180.0000771 4.6024000 2
16641 16642 16651 16649 1 180.0000771 15.1670000 2
16641 16642 16651 16652 1 180.0000771 15.1670000 2
16643 16642 16651 16649 1 180.0000771 15.1670000 2
16643 16642 16651 16652 1 180.0000771 15.1670000 2
16644 16643 16642 16651 1 180.0000771 15.1670000 2
16645 16643 16642 16651 1 180.0000771 15.1670000 2
16642 16643 16645 16646 1 180.0000771 15.1670000 2
16642 16643 16645 16647 1 180.0000771 15.1670000 2
16644 16643 16645 16646 1 180.0000771 15.1670000 2
16644 16643 16645 16647 1 180.0000771 15.1670000 2
16643 16645 16647 16648 1 180.0000771 15.1670000 2
16643 16645 16647 16649 1 180.0000771 15.1670000 2
16646 16645 16647 16648 1 180.0000771 15.1670000 2
16646 16645 16647 16649 1 180.0000771 15.1670000 2
16643 16647 16645 16646 4 180.0000771 4.6024000 2
16645 16647 16649 16650 1 180.0000771 15.1670000 2
16645 16647 16649 16651 1 180.0000771 15.1670000 2
16648 16647 16649 16650 1 180.0000771 15.1670000 2
16648 16647 16649 16651 1 180.0000771 15.1670000 2
16645 16649 16647 16648 4 180.0000771 4.6024000 2
16642 16649 16651 16652 4 180.0000771 4.6024000 2
16647 16649 16651 16652 1 180.0000771 15.1670000 2
16650 16649 16651 16652 1 180.0000771 15.1670000 2
16642 16651 16649 16647 1 180.0000771 15.1670000 2
16642 16651 16649 16650 1 180.0000771 15.1670000 2
16647 16651 16649 16650 4 180.0000771 4.6024000 2
16655 16656 16657 16658 1 180.0000771 15.1670000 2
16655 16656 16657 16659 1 180.0000771 15.1670000 2
16658 16656 16657 16659 4 180.0000771 4.6024000 2
16655 16656 16665 16657 4 180.0000771 4.6024000 2
16655 16656 16665 16663 1 180.0000771 15.1670000 2
16655 16656 16665 16666 1 180.0000771 15.1670000 2
16657 16656 16665 16663 1 180.0000771 15.1670000 2
16657 16656 16665 16666 1 180.0000771 15.1670000 2
16658 16657 16656 16665 1 180.0000771 15.1670000 2
16659 16657 16656 16665 1 180.0000771 15.1670000 2
16656 16657 16659 16660 1 180.0000771 15.1670000 2
16656 16657 16659 16661 1 180.0000771 15.1670000 2
16658 16657 16659 16660 1 180.0000771 15.1670000 2
16658 16657 16659 16661 1 180.0000771 15.1670000 2
16657 16659 16661 16662 1 180.0000771 15.1670000 2
16657 16659 16661 16663 1 180.0000771 15.1670000 2
16660 16659 16661 16662 1 180.0000771 15.1670000 2
16660 16659 16661 16663 1 180.0000771 15.1670000 2
16657 16661 16659 16660 4 180.0000771 4.6024000 2
16659 16661 16663 16664 1 180.0000771 15.1670000 2
16659 16661 16663 16665 1 180.0000771 15.1670000 2
16662 16661 16663 16664 1 180.0000771 15.1670000 2
16662 16661 16663 16665 1 180.0000771 15.1670000 2
16659 16663 16661 16662 4 180.0000771 4.6024000 2
16656 16663 16665 16666 4 180.0000771 4.6024000 2
16661 16663 16665 16666 1 180.0000771 15.1670000 2
16664 16663 16665 16666 1 180.0000771 15.1670000 2
16656 16665 16663 16661 1 180.0000771 15.1670000 2
16656 16665 16663 16664 1 180.0000771 15.1670000 2
16661 16665 16663 16664 4 180.0000771 4.6024000 2
16669 16670 16671 16672 1 180.0000771 15.1670000 2
16669 16670 16671 16673 1 180.0000771 15.1670000 2
16672 16670 16671 16673 4 180.0000771 4.6024000 2
16669 16670 16679 16671 4 180.0000771 4.6024000 2
16669 16670 16679 16677 1 180.0000771 15.1670000 2
16669 16670 16679 16680 1 180.0000771 15.1670000 2
16671 16670 16679 16677 1 180.0000771 15.1670000 2
16671 16670 16679 16680 1 180.0000771 15.1670000 2
16672 16671 16670 16679 1 180.0000771 15.1670000 2
16673 16671 16670 16679 1 180.0000771 15.1670000 2
16670 16671 16673 16674 1 180.0000771 15.1670000 2
16670 16671 16673 16675 1 180.0000771 15.1670000 2
16672 16671 16673 16674 1 180.0000771 15.1670000 2
16672 16671 16673 16675 1 180.0000771 15.1670000 2
16671 16673 16675 16676 1 180.0000771 15.1670000 2
16671 16673 16675 16677 1 180.0000771 15.1670000 2
16674 16673 16675 16676 1 180.0000771 15.1670000 2
16674 16673 16675 16677 1 180.0000771 15.1670000 2
16671 16675 16673 16674 4 180.0000771 4.6024000 2
16673 16675 16677 16678 1 180.0000771 15.1670000 2
16673 16675 16677 16679 1 180.0000771 15.1670000 2
16676 16675 16677 16678 1 180.0000771 15.1670000 2
16676 16675 16677 16679 1 180.0000771 15.1670000 2
16673 16677 16675 16676 4 180.0000771 4.6024000 2
16670 16677 16679 16680 4 180.0000771 4.6024000 2
16675 16677 16679 16680 1 180.0000771 15.1670000 2
16678 16677 16679 16680 1 180.0000771 15.1670000 2
16670 16679 16677 16675 1 180.0000771 15.1670000 2
16670 16679 16677 16678 1 180.0000771 15.1670000 2
16675 16679 16677 16678 4 180.0000771 4.6024000 2
16683 16684 16685 16686 1 180.0000771 15.1670000 2
16683 16684 16685 16687 1 180.0000771 15.1670000 2
16686 16684 16685 16687 4 180.0000771 4.6024000 2
16683 16684 16693 16685 4 180.0000771 4.6024000 2
16683 16684 16693 16691 1 180.0000771 15.1670000 2
16683 16684 16693 16694 1 180.0000771 15.1670000 2
16685 16684 16693 16691 1 180.0000771 15.1670000 2
16685 16684 16693 16694 1 180.0000771 15.1670000 2
16686 16685 16684 16693 1 180.0000771 15.1670000 2
16687 16685 16684 16693 1 180.0000771 15.1670000 2
16684 16685 16687 16688 1 180.0000771 15.1670000 2
16684 16685 16687 16689 1 180.0000771 15.1670000 2
16686 16685 16687 16688 1 180.0000771 15.1670000 2
16686 16685 16687 16689 1 180.0000771 15.1670000 2
16685 16687 16689 16690 1 180.0000771 15.1670000 2
16685 16687 16689 16691 1 180.0000771 15.1670000 2
16688 16687 16689 16690 1 180.0000771 15.1670000 2
16688 16687 16689 16691 1 180.0000771 15.1670000 2
16685 16689 16687 16688 4 180.0000771 4.6024000 2
16687 16689 16691 16692 1 180.0000771 15.1670000 2
16687 16689 16691 16693 1 180.0000771 15.1670000 2
16690 16689 16691 16692 1 180.0000771 15.1670000 2
16690 16689 16691 16693 1 180.0000771 15.1670000 2
16687 16691 16689 16690 4 180.0000771 4.6024000 2
16684 16691 16693 16694 4 180.0000771 4.6024000 2
16689 16691 16693 16694 1 180.0000771 15.1670000 2
16692 16691 16693 16694 1 180.0000771 15.1670000 2
16684 16693 16691 16689 1 180.0000771 15.1670000 2
16684 16693 16691 16692 1 180.0000771 15.1670000 2
16689 16693 16691 16692 4 180.0000771 4.6024000 2
16697 16698 16699 16700 1 180.0000771 15.1670000 2
16697 16698 16699 16701 1 180.0000771 15.1670000 2
16700 16698 16699 16701 4 180.0000771 4.6024000 2
16697 16698 16707 16699 4 180.0000771 4.6024000 2
16697 16698 16707 16705 1 180.0000771 15.1670000 2
16697 16698 16707 16708 1 180.0000771 15.1670000 2
16699 16698 16707 16705 1 180.0000771 15.1670000 2
16699 16698 16707 16708 1 180.0000771 15.1670000 2
16700 16699 16698 16707 1 180.0000771 15.1670000 2
16701 16699 16698 16707 1 180.0000771 15.1670000 2
16698 16699 16701 16702 1 180.0000771 15.1670000 2
16698 16699 16701 16703 1 180.0000771 15.1670000 2
16700 16699 16701 16702 1 180.0000771 15.1670000 2
16700 16699 16701 16703 1 180.0000771 15.1670000 2
16699 16701 16703 16704 1 180.0000771 15.1670000 2
16699 16701 16703 16705 1 180.0000771 15.1670000 2
16702 16701 16703 16704 1 180.0000771 15.1670000 2
16702 16701 16703 16705 1 180.0000771 15.1670000 2
16699 16703 16701 16702 4 180.0000771 4.6024000 2
16701 16703 16705 16706 1 180.0000771 15.1670000 2
16701 16703 16705 16707 1 180.0000771 15.1670000 2
16704 16703 16705 16706 1 180.0000771 15.1670000 2
16704 16703 16705 16707 1 180.0000771 15.1670000 2
16701 16705 16703 16704 4 180.0000771 4.6024000 2
16698 16705 16707 16708 4 180.0000771 4.6024000 2
16703 16705 16707 16708 1 180.0000771 15.1670000 2
16706 16705 16707 16708 1 180.0000771 15.1670000 2
16698 16707 16705 16703 1 180.0000771 15.1670000 2
16698 16707 16705 16706 1 180.0000771 15.1670000 2
16703 16707 16705 16706 4 180.0000771 4.6024000 2
16711 16712 16713 16714 1 180.0000771 15.1670000 2
16711 16712 16713 16715 1 180.0000771 15.1670000 2
16714 16712 16713 16715 4 180.0000771 4.6024000 2
16711 16712 16721 16713 4 180.0000771 4.6024000 2
16711 16712 16721 16719 1 180.0000771 15.1670000 2
16711 16712 16721 16722 1 180.0000771 15.1670000 2
16713 16712 16721 16719 1 180.0000771 15.1670000 2
16713 16712 16721 16722 1 180.0000771 15.1670000 2
16714 16713 16712 16721 1 180.0000771 15.1670000 2
16715 16713 16712 16721 1 180.0000771 15.1670000 2
16712 16713 16715 16716 1 180.0000771 15.1670000 2
16712 16713 16715 16717 1 180.0000771 15.1670000 2
16714 16713 16715 16716 1 180.0000771 15.1670000 2
16714 16713 16715 16717 1 180.0000771 15.1670000 2
16713 16715 16717 16718 1 180.0000771 15.1670000 2
16713 16715 16717 16719 1 180.0000771 15.1670000 2
16716 16715 16717 16718 1 180.0000771 15.1670000 2
16716 16715 16717 16719 1 180.0000771 15.1670000 2
16713 16717 16715 16716 4 180.0000771 4.6024000 2
16715 16717 16719 16720 1 180.0000771 15.1670000 2
16715 16717 16719 16721 1 180.0000771 15.1670000 2
16718 16717 16719 16720 1 180.0000771 15.1670000 2
16718 16717 16719 16721 1 180.0000771 15.1670000 2
16715 16719 16717 16718 4 180.0000771 4.6024000 2
16712 16719 16721 16722 4 180.0000771 4.6024000 2
16717 16719 16721 16722 1 180.0000771 15.1670000 2
16720 16719 16721 16722 1 180.0000771 15.1670000 2
16712 16721 16719 16717 1 180.0000771 15.1670000 2
16712 16721 16719 16720 1 180.0000771 15.1670000 2
16717 16721 16719 16720 4 180.0000771 4.6024000 2
16725 16726 16727 16728 1 180.0000771 15.1670000 2
16725 16726 16727 16729 1 180.0000771 15.1670000 2
16728 16726 16727 16729 4 180.0000771 4.6024000 2
16725 16726 16735 16727 4 180.0000771 4.6024000 2
16725 16726 16735 16733 1 180.0000771 15.1670000 2
16725 16726 16735 16736 1 180.0000771 15.1670000 2
16727 16726 16735 16733 1 180.0000771 15.1670000 2
16727 16726 16735 16736 1 180.0000771 15.1670000 2
16728 16727 16726 16735 1 180.0000771 15.1670000 2
16729 16727 16726 16735 1 180.0000771 15.1670000 2
16726 16727 16729 16730 1 180.0000771 15.1670000 2
16726 16727 16729 16731 1 180.0000771 15.1670000 2
16728 16727 16729 16730 1 180.0000771 15.1670000 2
16728 16727 16729 16731 1 180.0000771 15.1670000 2
16727 16729 16731 16732 1 180.0000771 15.1670000 2
16727 16729 16731 16733 1 180.0000771 15.1670000 2
16730 16729 16731 16732 1 180.0000771 15.1670000 2
16730 16729 16731 16733 1 180.0000771 15.1670000 2
16727 16731 16729 16730 4 180.0000771 4.6024000 2
16729 16731 16733 16734 1 180.0000771 15.1670000 2
16729 16731 16733 16735 1 180.0000771 15.1670000 2
16732 16731 16733 16734 1 180.0000771 15.1670000 2
16732 16731 16733 16735 1 180.0000771 15.1670000 2
16729 16733 16731 16732 4 180.0000771 4.6024000 2
16726 16733 16735 16736 4 180.0000771 4.6024000 2
16731 16733 16735 16736 1 180.0000771 15.1670000 2
16734 16733 16735 16736 1 180.0000771 15.1670000 2
16726 16735 16733 16731 1 180.0000771 15.1670000 2
16726 16735 16733 16734 1 180.0000771 15.1670000 2
16731 16735 16733 16734 4 180.0000771 4.6024000 2
16739 16740 16741 16742 1 180.0000771 15.1670000 2
16739 16740 16741 16743 1 180.0000771 15.1670000 2
16742 16740 16741 16743 4 180.0000771 4.6024000 2
16739 16740 16749 16741 4 180.0000771 4.6024000 2
16739 16740 16749 16747 1 180.0000771 15.1670000 2
16739 16740 16749 16750 1 180.0000771 15.1670000 2
16741 16740 16749 16747 1 180.0000771 15.1670000 2
16741 16740 16749 16750 1 180.0000771 15.1670000 2
16742 16741 16740 16749 1 180.0000771 15.1670000 2
16743 16741 16740 16749 1 180.0000771 15.1670000 2
16740 16741 16743 16744 1 180.0000771 15.1670000 2
16740 16741 16743 16745 1 180.0000771 15.1670000 2
16742 16741 16743 16744 1 180.0000771 15.1670000 2
16742 16741 16743 16745 1 180.0000771 15.1670000 2
16741 16743 16745 16746 1 180.0000771 15.1670000 2
16741 16743 16745 16747 1 180.0000771 15.1670000 2
16744 16743 16745 16746 1 180.0000771 15.1670000 2
16744 16743 16745 16747 1 180.0000771 15.1670000 2
16741 16745 16743 16744 4 180.0000771 4.6024000 2
16743 16745 16747 16748 1 180.0000771 15.1670000 2
16743 16745 16747 16749 1 180.0000771 15.1670000 2
16746 16745 16747 16748 1 180.0000771 15.1670000 2
16746 16745 16747 16749 1 180.0000771 15.1670000 2
16743 16747 16745 16746 4 180.0000771 4.6024000 2
16740 16747 16749 16750 4 180.0000771 4.6024000 2
16745 16747 16749 16750 1 180.0000771 15.1670000 2
16748 16747 16749 16750 1 180.0000771 15.1670000 2
16740 16749 16747 16745 1 180.0000771 15.1670000 2
16740 16749 16747 16748 1 180.0000771 15.1670000 2
16745 16749 16747 16748 4 180.0000771 4.6024000 2
16753 16754 16755 16756 1 180.0000771 15.1670000 2
16753 16754 16755 16757 1 180.0000771 15.1670000 2
16756 16754 16755 16757 4 180.0000771 4.6024000 2
16753 16754 16763 16755 4 180.0000771 4.6024000 2
16753 16754 16763 16761 1 180.0000771 15.1670000 2
16753 16754 16763 16764 1 180.0000771 15.1670000 2
16755 16754 16763 16761 1 180.0000771 15.1670000 2
16755 16754 16763 16764 1 180.0000771 15.1670000 2
16756 16755 16754 16763 1 180.0000771 15.1670000 2
16757 16755 16754 16763 1 180.0000771 15.1670000 2
16754 16755 16757 16758 1 180.0000771 15.1670000 2
16754 16755 16757 16759 1 180.0000771 15.1670000 2
16756 16755 16757 16758 1 180.0000771 15.1670000 2
16756 16755 16757 16759 1 180.0000771 15.1670000 2
16755 16757 16759 16760 1 180.0000771 15.1670000 2
16755 16757 16759 16761 1 180.0000771 15.1670000 2
16758 16757 16759 16760 1 180.0000771 15.1670000 2
16758 16757 16759 16761 1 180.0000771 15.1670000 2
16755 16759 16757 16758 4 180.0000771 4.6024000 2
16757 16759 16761 16762 1 180.0000771 15.1670000 2
16757 16759 16761 16763 1 180.0000771 15.1670000 2
16760 16759 16761 16762 1 180.0000771 15.1670000 2
16760 16759 16761 16763 1 180.0000771 15.1670000 2
16757 16761 16759 16760 4 180.0000771 4.6024000 2
16754 16761 16763 16764 4 180.0000771 4.6024000 2
16759 16761 16763 16764 1 180.0000771 15.1670000 2
16762 16761 16763 16764 1 180.0000771 15.1670000 2
16754 16763 16761 16759 1 180.0000771 15.1670000 2
16754 16763 16761 16762 1 180.0000771 15.1670000 2
16759 16763 16761 16762 4 180.0000771 4.6024000 2
16767 16768 16769 16770 1 180.0000771 15.1670000 2
16767 16768 16769 16771 1 180.0000771 15.1670000 2
16770 16768 16769 16771 4 180.0000771 4.6024000 2
16767 16768 16777 16769 4 180.0000771 4.6024000 2
16767 16768 16777 16775 1 180.0000771 15.1670000 2
16767 16768 16777 16778 1 180.0000771 15.1670000 2
16769 16768 16777 16775 1 180.0000771 15.1670000 2
16769 16768 16777 16778 1 180.0000771 15.1670000 2
16770 16769 16768 16777 1 180.0000771 15.1670000 2
16771 16769 16768 16777 1 180.0000771 15.1670000 2
16768 16769 16771 16772 1 180.0000771 15.1670000 2
16768 16769 16771 16773 1 180.0000771 15.1670000 2
16770 16769 16771 16772 1 180.0000771 15.1670000 2
16770 16769 16771 16773 1 180.0000771 15.1670000 2
16769 16771 16773 16774 1 180.0000771 15.1670000 2
16769 16771 16773 16775 1 180.0000771 15.1670000 2
16772 16771 16773 16774 1 180.0000771 15.1670000 2
16772 16771 16773 16775 1 180.0000771 15.1670000 2
16769 16773 16771 16772 4 180.0000771 4.6024000 2
16771 16773 16775 16776 1 180.0000771 15.1670000 2
16771 16773 16775 16777 1 180.0000771 15.1670000 2
16774 16773 16775 16776 1 180.0000771 15.1670000 2
16774 16773 16775 16777 1 180.0000771 15.1670000 2
16771 16775 16773 16774 4 180.0000771 4.6024000 2
16768 16775 16777 16778 4 180.0000771 4.6024000 2
16773 16775 16777 16778 1 180.0000771 15.1670000 2
16776 16775 16777 16778 1 180.0000771 15.1670000 2
16768 16777 16775 16773 1 180.0000771 15.1670000 2
16768 16777 16775 16776 1 180.0000771 15.1670000 2
16773 16777 16775 16776 4 180.0000771 4.6024000 2
16781 16782 16783 16784 1 180.0000771 15.1670000 2
16781 16782 16783 16785 1 180.0000771 15.1670000 2
16784 16782 16783 16785 4 180.0000771 4.6024000 2
16781 16782 16791 16783 4 180.0000771 4.6024000 2
16781 16782 16791 16789 1 180.0000771 15.1670000 2
16781 16782 16791 16792 1 180.0000771 15.1670000 2
16783 16782 16791 16789 1 180.0000771 15.1670000 2
16783 16782 16791 16792 1 180.0000771 15.1670000 2
16784 16783 16782 16791 1 180.0000771 15.1670000 2
16785 16783 16782 16791 1 180.0000771 15.1670000 2
16782 16783 16785 16786 1 180.0000771 15.1670000 2
16782 16783 16785 16787 1 180.0000771 15.1670000 2
16784 16783 16785 16786 1 180.0000771 15.1670000 2
16784 16783 16785 16787 1 180.0000771 15.1670000 2
16783 16785 16787 16788 1 180.0000771 15.1670000 2
16783 16785 16787 16789 1 180.0000771 15.1670000 2
16786 16785 16787 16788 1 180.0000771 15.1670000 2
16786 16785 16787 16789 1 180.0000771 15.1670000 2
16783 16787 16785 16786 4 180.0000771 4.6024000 2
16785 16787 16789 16790 1 180.0000771 15.1670000 2
16785 16787 16789 16791 1 180.0000771 15.1670000 2
16788 16787 16789 16790 1 180.0000771 15.1670000 2
16788 16787 16789 16791 1 180.0000771 15.1670000 2
16785 16789 16787 16788 4 180.0000771 4.6024000 2
16782 16789 16791 16792 4 180.0000771 4.6024000 2
16787 16789 16791 16792 1 180.0000771 15.1670000 2
16790 16789 16791 16792 1 180.0000771 15.1670000 2
16782 16791 16789 16787 1 180.0000771 15.1670000 2
16782 16791 16789 16790 1 180.0000771 15.1670000 2
16787 16791 16789 16790 4 180.0000771 4.6024000 2
16795 16796 16797 16798 1 180.0000771 15.1670000 2
16795 16796 16797 16799 1 180.0000771 15.1670000 2
16798 16796 16797 16799 4 180.0000771 4.6024000 2
16795 16796 16805 16797 4 180.0000771 4.6024000 2
16795 16796 16805 16803 1 180.0000771 15.1670000 2
16795 16796 16805 16806 1 180.0000771 15.1670000 2
16797 16796 16805 16803 1 180.0000771 15.1670000 2
16797 16796 16805 16806 1 180.0000771 15.1670000 2
16798 16797 16796 16805 1 180.0000771 15.1670000 2
16799 16797 16796 16805 1 180.0000771 15.1670000 2
16796 16797 16799 16800 1 180.0000771 15.1670000 2
16796 16797 16799 16801 1 180.0000771 15.1670000 2
16798 16797 16799 16800 1 180.0000771 15.1670000 2
16798 16797 16799 16801 1 180.0000771 15.1670000 2
16797 16799 16801 16802 1 180.0000771 15.1670000 2
16797 16799 16801 16803 1 180.0000771 15.1670000 2
16800 16799 16801 16802 1 180.0000771 15.1670000 2
16800 16799 16801 16803 1 180.0000771 15.1670000 2
16797 16801 16799 16800 4 180.0000771 4.6024000 2
16799 16801 16803 16804 1 180.0000771 15.1670000 2
16799 16801 16803 16805 1 180.0000771 15.1670000 2
16802 16801 16803 16804 1 180.0000771 15.1670000 2
16802 16801 16803 16805 1 180.0000771 15.1670000 2
16799 16803 16801 16802 4 180.0000771 4.6024000 2
16796 16803 16805 16806 4 180.0000771 4.6024000 2
16801 16803 16805 16806 1 180.0000771 15.1670000 2
16804 16803 16805 16806 1 180.0000771 15.1670000 2
16796 16805 16803 16801 1 180.0000771 15.1670000 2
16796 16805 16803 16804 1 180.0000771 15.1670000 2
16801 16805 16803 16804 4 180.0000771 4.6024000 2
16809 16810 16811 16812 1 180.0000771 15.1670000 2
16809 16810 16811 16813 1 180.0000771 15.1670000 2
16812 16810 16811 16813 4 180.0000771 4.6024000 2
16809 16810 16819 16811 4 180.0000771 4.6024000 2
16809 16810 16819 16817 1 180.0000771 15.1670000 2
16809 16810 16819 16820 1 180.0000771 15.1670000 2
16811 16810 16819 16817 1 180.0000771 15.1670000 2
16811 16810 16819 16820 1 180.0000771 15.1670000 2
16812 16811 16810 16819 1 180.0000771 15.1670000 2
16813 16811 16810 16819 1 180.0000771 15.1670000 2
16810 16811 16813 16814 1 180.0000771 15.1670000 2
16810 16811 16813 16815 1 180.0000771 15.1670000 2
16812 16811 16813 16814 1 180.0000771 15.1670000 2
16812 16811 16813 16815 1 180.0000771 15.1670000 2
16811 16813 16815 16816 1 180.0000771 15.1670000 2
16811 16813 16815 16817 1 180.0000771 15.1670000 2
16814 16813 16815 16816 1 180.0000771 15.1670000 2
16814 16813 16815 16817 1 180.0000771 15.1670000 2
16811 16815 16813 16814 4 180.0000771 4.6024000 2
16813 16815 16817 16818 1 180.0000771 15.1670000 2
16813 16815 16817 16819 1 180.0000771 15.1670000 2
16816 16815 16817 16818 1 180.0000771 15.1670000 2
16816 16815 16817 16819 1 180.0000771 15.1670000 2
16813 16817 16815 16816 4 180.0000771 4.6024000 2
16810 16817 16819 16820 4 180.0000771 4.6024000 2
16815 16817 16819 16820 1 180.0000771 15.1670000 2
16818 16817 16819 16820 1 180.0000771 15.1670000 2
16810 16819 16817 16815 1 180.0000771 15.1670000 2
16810 16819 16817 16818 1 180.0000771 15.1670000 2
16815 16819 16817 16818 4 180.0000771 4.6024000 2
16823 16824 16825 16826 1 180.0000771 15.1670000 2
16823 16824 16825 16827 1 180.0000771 15.1670000 2
16826 16824 16825 16827 4 180.0000771 4.6024000 2
16823 16824 16833 16825 4 180.0000771 4.6024000 2
16823 16824 16833 16831 1 180.0000771 15.1670000 2
16823 16824 16833 16834 1 180.0000771 15.1670000 2
16825 16824 16833 16831 1 180.0000771 15.1670000 2
16825 16824 16833 16834 1 180.0000771 15.1670000 2
16826 16825 16824 16833 1 180.0000771 15.1670000 2
16827 16825 16824 16833 1 180.0000771 15.1670000 2
16824 16825 16827 16828 1 180.0000771 15.1670000 2
16824 16825 16827 16829 1 180.0000771 15.1670000 2
16826 16825 16827 16828 1 180.0000771 15.1670000 2
16826 16825 16827 16829 1 180.0000771 15.1670000 2
16825 16827 16829 16830 1 180.0000771 15.1670000 2
16825 16827 16829 16831 1 180.0000771 15.1670000 2
16828 16827 16829 16830 1 180.0000771 15.1670000 2
16828 16827 16829 16831 1 180.0000771 15.1670000 2
16825 16829 16827 16828 4 180.0000771 4.6024000 2
16827 16829 16831 16832 1 180.0000771 15.1670000 2
16827 16829 16831 16833 1 180.0000771 15.1670000 2
16830 16829 16831 16832 1 180.0000771 15.1670000 2
16830 16829 16831 16833 1 180.0000771 15.1670000 2
16827 16831 16829 16830 4 180.0000771 4.6024000 2
16824 16831 16833 16834 4 180.0000771 4.6024000 2
16829 16831 16833 16834 1 180.0000771 15.1670000 2
16832 16831 16833 16834 1 180.0000771 15.1670000 2
16824 16833 16831 16829 1 180.0000771 15.1670000 2
16824 16833 16831 16832 1 180.0000771 15.1670000 2
16829 16833 16831 16832 4 180.0000771 4.6024000 2
16837 16838 16839 16840 1 180.0000771 15.1670000 2
16837 16838 16839 16841 1 180.0000771 15.1670000 2
16840 16838 16839 16841 4 180.0000771 4.6024000 2
16837 16838 16847 16839 4 180.0000771 4.6024000 2
16837 16838 16847 16845 1 180.0000771 15.1670000 2
16837 16838 16847 16848 1 180.0000771 15.1670000 2
16839 16838 16847 16845 1 180.0000771 15.1670000 2
16839 16838 16847 16848 1 180.0000771 15.1670000 2
16840 16839 16838 16847 1 180.0000771 15.1670000 2
16841 16839 16838 16847 1 180.0000771 15.1670000 2
16838 16839 16841 16842 1 180.0000771 15.1670000 2
16838 16839 16841 16843 1 180.0000771 15.1670000 2
16840 16839 16841 16842 1 180.0000771 15.1670000 2
16840 16839 16841 16843 1 180.0000771 15.1670000 2
16839 16841 16843 16844 1 180.0000771 15.1670000 2
16839 16841 16843 16845 1 180.0000771 15.1670000 2
16842 16841 16843 16844 1 180.0000771 15.1670000 2
16842 16841 16843 16845 1 180.0000771 15.1670000 2
16839 16843 16841 16842 4 180.0000771 4.6024000 2
16841 16843 16845 16846 1 180.0000771 15.1670000 2
16841 16843 16845 16847 1 180.0000771 15.1670000 2
16844 16843 16845 16846 1 180.0000771 15.1670000 2
16844 16843 16845 16847 1 180.0000771 15.1670000 2
16841 16845 16843 16844 4 180.0000771 4.6024000 2
16838 16845 16847 16848 4 180.0000771 4.6024000 2
16843 16845 16847 16848 1 180.0000771 15.1670000 2
16846 16845 16847 16848 1 180.0000771 15.1670000 2
16838 16847 16845 16843 1 180.0000771 15.1670000 2
16838 16847 16845 16846 1 180.0000771 15.1670000 2
16843 16847 16845 16846 4 180.0000771 4.6024000 2
16851 16852 16853 16854 1 180.0000771 15.1670000 2
16851 16852 16853 16855 1 180.0000771 15.1670000 2
16854 16852 16853 16855 4 180.0000771 4.6024000 2
16851 16852 16861 16853 4 180.0000771 4.6024000 2
16851 16852 16861 16859 1 180.0000771 15.1670000 2
16851 16852 16861 16862 1 180.0000771 15.1670000 2
16853 16852 16861 16859 1 180.0000771 15.1670000 2
16853 16852 16861 16862 1 180.0000771 15.1670000 2
16854 16853 16852 16861 1 180.0000771 15.1670000 2
16855 16853 16852 16861 1 180.0000771 15.1670000 2
16852 16853 16855 16856 1 180.0000771 15.1670000 2
16852 16853 16855 16857 1 180.0000771 15.1670000 2
16854 16853 16855 16856 1 180.0000771 15.1670000 2
16854 16853 16855 16857 1 180.0000771 15.1670000 2
16853 16855 16857 16858 1 180.0000771 15.1670000 2
16853 16855 16857 16859 1 180.0000771 15.1670000 2
16856 16855 16857 16858 1 180.0000771 15.1670000 2
16856 16855 16857 16859 1 180.0000771 15.1670000 2
16853 16857 16855 16856 4 180.0000771 4.6024000 2
16855 16857 16859 16860 1 180.0000771 15.1670000 2
16855 16857 16859 16861 1 180.0000771 15.1670000 2
16858 16857 16859 16860 1 180.0000771 15.1670000 2
16858 16857 16859 16861 1 180.0000771 15.1670000 2
16855 16859 16857 16858 4 180.0000771 4.6024000 2
16852 16859 16861 16862 4 180.0000771 4.6024000 2
16857 16859 16861 16862 1 180.0000771 15.1670000 2
16860 16859 16861 16862 1 180.0000771 15.1670000 2
16852 16861 16859 16857 1 180.0000771 15.1670000 2
16852 16861 16859 16860 1 180.0000771 15.1670000 2
16857 16861 16859 16860 4 180.0000771 4.6024000 2
16865 16866 16867 16868 1 180.0000771 15.1670000 2
16865 16866 16867 16869 1 180.0000771 15.1670000 2
16868 16866 16867 16869 4 180.0000771 4.6024000 2
16865 16866 16875 16867 4 180.0000771 4.6024000 2
16865 16866 16875 16873 1 180.0000771 15.1670000 2
16865 16866 16875 16876 1 180.0000771 15.1670000 2
16867 16866 16875 16873 1 180.0000771 15.1670000 2
16867 16866 16875 16876 1 180.0000771 15.1670000 2
16868 16867 16866 16875 1 180.0000771 15.1670000 2
16869 16867 16866 16875 1 180.0000771 15.1670000 2
16866 16867 16869 16870 1 180.0000771 15.1670000 2
16866 16867 16869 16871 1 180.0000771 15.1670000 2
16868 16867 16869 16870 1 180.0000771 15.1670000 2
16868 16867 16869 16871 1 180.0000771 15.1670000 2
16867 16869 16871 16872 1 180.0000771 15.1670000 2
16867 16869 16871 16873 1 180.0000771 15.1670000 2
16870 16869 16871 16872 1 180.0000771 15.1670000 2
16870 16869 16871 16873 1 180.0000771 15.1670000 2
16867 16871 16869 16870 4 180.0000771 4.6024000 2
16869 16871 16873 16874 1 180.0000771 15.1670000 2
16869 16871 16873 16875 1 180.0000771 15.1670000 2
16872 16871 16873 16874 1 180.0000771 15.1670000 2
16872 16871 16873 16875 1 180.0000771 15.1670000 2
16869 16873 16871 16872 4 180.0000771 4.6024000 2
16866 16873 16875 16876 4 180.0000771 4.6024000 2
16871 16873 16875 16876 1 180.0000771 15.1670000 2
16874 16873 16875 16876 1 180.0000771 15.1670000 2
16866 16875 16873 16871 1 180.0000771 15.1670000 2
16866 16875 16873 16874 1 180.0000771 15.1670000 2
16871 16875 16873 16874 4 180.0000771 4.6024000 2
16879 16880 16881 16882 1 180.0000771 15.1670000 2
16879 16880 16881 16883 1 180.0000771 15.1670000 2
16882 16880 16881 16883 4 180.0000771 4.6024000 2
16879 16880 16889 16881 4 180.0000771 4.6024000 2
16879 16880 16889 16887 1 180.0000771 15.1670000 2
16879 16880 16889 16890 1 180.0000771 15.1670000 2
16881 16880 16889 16887 1 180.0000771 15.1670000 2
16881 16880 16889 16890 1 180.0000771 15.1670000 2
16882 16881 16880 16889 1 180.0000771 15.1670000 2
16883 16881 16880 16889 1 180.0000771 15.1670000 2
16880 16881 16883 16884 1 180.0000771 15.1670000 2
16880 16881 16883 16885 1 180.0000771 15.1670000 2
16882 16881 16883 16884 1 180.0000771 15.1670000 2
16882 16881 16883 16885 1 180.0000771 15.1670000 2
16881 16883 16885 16886 1 180.0000771 15.1670000 2
16881 16883 16885 16887 1 180.0000771 15.1670000 2
16884 16883 16885 16886 1 180.0000771 15.1670000 2
16884 16883 16885 16887 1 180.0000771 15.1670000 2
16881 16885 16883 16884 4 180.0000771 4.6024000 2
16883 16885 16887 16888 1 180.0000771 15.1670000 2
16883 16885 16887 16889 1 180.0000771 15.1670000 2
16886 16885 16887 16888 1 180.0000771 15.1670000 2
16886 16885 16887 16889 1 180.0000771 15.1670000 2
16883 16887 16885 16886 4 180.0000771 4.6024000 2
16880 16887 16889 16890 4 180.0000771 4.6024000 2
16885 16887 16889 16890 1 180.0000771 15.1670000 2
16888 16887 16889 16890 1 180.0000771 15.1670000 2
16880 16889 16887 16885 1 180.0000771 15.1670000 2
16880 16889 16887 16888 1 180.0000771 15.1670000 2
16885 16889 16887 16888 4 180.0000771 4.6024000 2
16893 16894 16895 16896 1 180.0000771 15.1670000 2
16893 16894 16895 16897 1 180.0000771 15.1670000 2
16896 16894 16895 16897 4 180.0000771 4.6024000 2
16893 16894 16903 16895 4 180.0000771 4.6024000 2
16893 16894 16903 16901 1 180.0000771 15.1670000 2
16893 16894 16903 16904 1 180.0000771 15.1670000 2
16895 16894 16903 16901 1 180.0000771 15.1670000 2
16895 16894 16903 16904 1 180.0000771 15.1670000 2
16896 16895 16894 16903 1 180.0000771 15.1670000 2
16897 16895 16894 16903 1 180.0000771 15.1670000 2
16894 16895 16897 16898 1 180.0000771 15.1670000 2
16894 16895 16897 16899 1 180.0000771 15.1670000 2
16896 16895 16897 16898 1 180.0000771 15.1670000 2
16896 16895 16897 16899 1 180.0000771 15.1670000 2
16895 16897 16899 16900 1 180.0000771 15.1670000 2
16895 16897 16899 16901 1 180.0000771 15.1670000 2
16898 16897 16899 16900 1 180.0000771 15.1670000 2
16898 16897 16899 16901 1 180.0000771 15.1670000 2
16895 16899 16897 16898 4 180.0000771 4.6024000 2
16897 16899 16901 16902 1 180.0000771 15.1670000 2
16897 16899 16901 16903 1 180.0000771 15.1670000 2
16900 16899 16901 16902 1 180.0000771 15.1670000 2
16900 16899 16901 16903 1 180.0000771 15.1670000 2
16897 16901 16899 16900 4 180.0000771 4.6024000 2
16894 16901 16903 16904 4 180.0000771 4.6024000 2
16899 16901 16903 16904 1 180.0000771 15.1670000 2
16902 16901 16903 16904 1 180.0000771 15.1670000 2
16894 16903 16901 16899 1 180.0000771 15.1670000 2
16894 16903 16901 16902 1 180.0000771 15.1670000 2
16899 16903 16901 16902 4 180.0000771 4.6024000 2
16907 16908 16909 16910 1 180.0000771 15.1670000 2
16907 16908 16909 16911 1 180.0000771 15.1670000 2
16910 16908 16909 16911 4 180.0000771 4.6024000 2
16907 16908 16917 16909 4 180.0000771 4.6024000 2
16907 16908 16917 16915 1 180.0000771 15.1670000 2
16907 16908 16917 16918 1 180.0000771 15.1670000 2
16909 16908 16917 16915 1 180.0000771 15.1670000 2
16909 16908 16917 16918 1 180.0000771 15.1670000 2
16910 16909 16908 16917 1 180.0000771 15.1670000 2
16911 16909 16908 16917 1 180.0000771 15.1670000 2
16908 16909 16911 16912 1 180.0000771 15.1670000 2
16908 16909 16911 16913 1 180.0000771 15.1670000 2
16910 16909 16911 16912 1 180.0000771 15.1670000 2
16910 16909 16911 16913 1 180.0000771 15.1670000 2
16909 16911 16913 16914 1 180.0000771 15.1670000 2
16909 16911 16913 16915 1 180.0000771 15.1670000 2
16912 16911 16913 16914 1 180.0000771 15.1670000 2
16912 16911 16913 16915 1 180.0000771 15.1670000 2
16909 16913 16911 16912 4 180.0000771 4.6024000 2
16911 16913 16915 16916 1 180.0000771 15.1670000 2
16911 16913 16915 16917 1 180.0000771 15.1670000 2
16914 16913 16915 16916 1 180.0000771 15.1670000 2
16914 16913 16915 16917 1 180.0000771 15.1670000 2
16911 16915 16913 16914 4 180.0000771 4.6024000 2
16908 16915 16917 16918 4 180.0000771 4.6024000 2
16913 16915 16917 16918 1 180.0000771 15.1670000 2
16916 16915 16917 16918 1 180.0000771 15.1670000 2
16908 16917 16915 16913 1 180.0000771 15.1670000 2
16908 16917 16915 16916 1 180.0000771 15.1670000 2
16913 16917 16915 16916 4 180.0000771 4.6024000 2
16921 16922 16923 16924 1 180.0000771 15.1670000 2
16921 16922 16923 16925 1 180.0000771 15.1670000 2
16924 16922 16923 16925 4 180.0000771 4.6024000 2
16921 16922 16931 16923 4 180.0000771 4.6024000 2
16921 16922 16931 16929 1 180.0000771 15.1670000 2
16921 16922 16931 16932 1 180.0000771 15.1670000 2
16923 16922 16931 16929 1 180.0000771 15.1670000 2
16923 16922 16931 16932 1 180.0000771 15.1670000 2
16924 16923 16922 16931 1 180.0000771 15.1670000 2
16925 16923 16922 16931 1 180.0000771 15.1670000 2
16922 16923 16925 16926 1 180.0000771 15.1670000 2
16922 16923 16925 16927 1 180.0000771 15.1670000 2
16924 16923 16925 16926 1 180.0000771 15.1670000 2
16924 16923 16925 16927 1 180.0000771 15.1670000 2
16923 16925 16927 16928 1 180.0000771 15.1670000 2
16923 16925 16927 16929 1 180.0000771 15.1670000 2
16926 16925 16927 16928 1 180.0000771 15.1670000 2
16926 16925 16927 16929 1 180.0000771 15.1670000 2
16923 16927 16925 16926 4 180.0000771 4.6024000 2
16925 16927 16929 16930 1 180.0000771 15.1670000 2
16925 16927 16929 16931 1 180.0000771 15.1670000 2
16928 16927 16929 16930 1 180.0000771 15.1670000 2
16928 16927 16929 16931 1 180.0000771 15.1670000 2
16925 16929 16927 16928 4 180.0000771 4.6024000 2
16922 16929 16931 16932 4 180.0000771 4.6024000 2
16927 16929 16931 16932 1 180.0000771 15.1670000 2
16930 16929 16931 16932 1 180.0000771 15.1670000 2
16922 16931 16929 16927 1 180.0000771 15.1670000 2
16922 16931 16929 16930 1 180.0000771 15.1670000 2
16927 16931 16929 16930 4 180.0000771 4.6024000 2
16935 16936 16937 16938 1 180.0000771 15.1670000 2
16935 16936 16937 16939 1 180.0000771 15.1670000 2
16938 16936 16937 16939 4 180.0000771 4.6024000 2
16935 16936 16945 16937 4 180.0000771 4.6024000 2
16935 16936 16945 16943 1 180.0000771 15.1670000 2
16935 16936 16945 16946 1 180.0000771 15.1670000 2
16937 16936 16945 16943 1 180.0000771 15.1670000 2
16937 16936 16945 16946 1 180.0000771 15.1670000 2
16938 16937 16936 16945 1 180.0000771 15.1670000 2
16939 16937 16936 16945 1 180.0000771 15.1670000 2
16936 16937 16939 16940 1 180.0000771 15.1670000 2
16936 16937 16939 16941 1 180.0000771 15.1670000 2
16938 16937 16939 16940 1 180.0000771 15.1670000 2
16938 16937 16939 16941 1 180.0000771 15.1670000 2
16937 16939 16941 16942 1 180.0000771 15.1670000 2
16937 16939 16941 16943 1 180.0000771 15.1670000 2
16940 16939 16941 16942 1 180.0000771 15.1670000 2
16940 16939 16941 16943 1 180.0000771 15.1670000 2
16937 16941 16939 16940 4 180.0000771 4.6024000 2
16939 16941 16943 16944 1 180.0000771 15.1670000 2
16939 16941 16943 16945 1 180.0000771 15.1670000 2
16942 16941 16943 16944 1 180.0000771 15.1670000 2
16942 16941 16943 16945 1 180.0000771 15.1670000 2
16939 16943 16941 16942 4 180.0000771 4.6024000 2
16936 16943 16945 16946 4 180.0000771 4.6024000 2
16941 16943 16945 16946 1 180.0000771 15.1670000 2
16944 16943 16945 16946 1 180.0000771 15.1670000 2
16936 16945 16943 16941 1 180.0000771 15.1670000 2
16936 16945 16943 16944 1 180.0000771 15.1670000 2
16941 16945 16943 16944 4 180.0000771 4.6024000 2
16949 16950 16951 16952 1 180.0000771 15.1670000 2
16949 16950 16951 16953 1 180.0000771 15.1670000 2
16952 16950 16951 16953 4 180.0000771 4.6024000 2
16949 16950 16959 16951 4 180.0000771 4.6024000 2
16949 16950 16959 16957 1 180.0000771 15.1670000 2
16949 16950 16959 16960 1 180.0000771 15.1670000 2
16951 16950 16959 16957 1 180.0000771 15.1670000 2
16951 16950 16959 16960 1 180.0000771 15.1670000 2
16952 16951 16950 16959 1 180.0000771 15.1670000 2
16953 16951 16950 16959 1 180.0000771 15.1670000 2
16950 16951 16953 16954 1 180.0000771 15.1670000 2
16950 16951 16953 16955 1 180.0000771 15.1670000 2
16952 16951 16953 16954 1 180.0000771 15.1670000 2
16952 16951 16953 16955 1 180.0000771 15.1670000 2
16951 16953 16955 16956 1 180.0000771 15.1670000 2
16951 16953 16955 16957 1 180.0000771 15.1670000 2
16954 16953 16955 16956 1 180.0000771 15.1670000 2
16954 16953 16955 16957 1 180.0000771 15.1670000 2
16951 16955 16953 16954 4 180.0000771 4.6024000 2
16953 16955 16957 16958 1 180.0000771 15.1670000 2
16953 16955 16957 16959 1 180.0000771 15.1670000 2
16956 16955 16957 16958 1 180.0000771 15.1670000 2
16956 16955 16957 16959 1 180.0000771 15.1670000 2
16953 16957 16955 16956 4 180.0000771 4.6024000 2
16950 16957 16959 16960 4 180.0000771 4.6024000 2
16955 16957 16959 16960 1 180.0000771 15.1670000 2
16958 16957 16959 16960 1 180.0000771 15.1670000 2
16950 16959 16957 16955 1 180.0000771 15.1670000 2
16950 16959 16957 16958 1 180.0000771 15.1670000 2
16955 16959 16957 16958 4 180.0000771 4.6024000 2
16963 16964 16965 16966 1 180.0000771 15.1670000 2
16963 16964 16965 16967 1 180.0000771 15.1670000 2
16966 16964 16965 16967 4 180.0000771 4.6024000 2
16963 16964 16973 16965 4 180.0000771 4.6024000 2
16963 16964 16973 16971 1 180.0000771 15.1670000 2
16963 16964 16973 16974 1 180.0000771 15.1670000 2
16965 16964 16973 16971 1 180.0000771 15.1670000 2
16965 16964 16973 16974 1 180.0000771 15.1670000 2
16966 16965 16964 16973 1 180.0000771 15.1670000 2
16967 16965 16964 16973 1 180.0000771 15.1670000 2
16964 16965 16967 16968 1 180.0000771 15.1670000 2
16964 16965 16967 16969 1 180.0000771 15.1670000 2
16966 16965 16967 16968 1 180.0000771 15.1670000 2
16966 16965 16967 16969 1 180.0000771 15.1670000 2
16965 16967 16969 16970 1 180.0000771 15.1670000 2
16965 16967 16969 16971 1 180.0000771 15.1670000 2
16968 16967 16969 16970 1 180.0000771 15.1670000 2
16968 16967 16969 16971 1 180.0000771 15.1670000 2
16965 16969 16967 16968 4 180.0000771 4.6024000 2
16967 16969 16971 16972 1 180.0000771 15.1670000 2
16967 16969 16971 16973 1 180.0000771 15.1670000 2
16970 16969 16971 16972 1 180.0000771 15.1670000 2
16970 16969 16971 16973 1 180.0000771 15.1670000 2
16967 16971 16969 16970 4 180.0000771 4.6024000 2
16964 16971 16973 16974 4 180.0000771 4.6024000 2
16969 16971 16973 16974 1 180.0000771 15.1670000 2
16972 16971 16973 16974 1 180.0000771 15.1670000 2
16964 16973 16971 16969 1 180.0000771 15.1670000 2
16964 16973 16971 16972 1 180.0000771 15.1670000 2
16969 16973 16971 16972 4 180.0000771 4.6024000 2
16977 16978 16979 16980 1 180.0000771 15.1670000 2
16977 16978 16979 16981 1 180.0000771 15.1670000 2
16980 16978 16979 16981 4 180.0000771 4.6024000 2
16977 16978 16987 16979 4 180.0000771 4.6024000 2
16977 16978 16987 16985 1 180.0000771 15.1670000 2
16977 16978 16987 16988 1 180.0000771 15.1670000 2
16979 16978 16987 16985 1 180.0000771 15.1670000 2
16979 16978 16987 16988 1 180.0000771 15.1670000 2
16980 16979 16978 16987 1 180.0000771 15.1670000 2
16981 16979 16978 16987 1 180.0000771 15.1670000 2
16978 16979 16981 16982 1 180.0000771 15.1670000 2
16978 16979 16981 16983 1 180.0000771 15.1670000 2
16980 16979 16981 16982 1 180.0000771 15.1670000 2
16980 16979 16981 16983 1 180.0000771 15.1670000 2
16979 16981 16983 16984 1 180.0000771 15.1670000 2
16979 16981 16983 16985 1 180.0000771 15.1670000 2
16982 16981 16983 16984 1 180.0000771 15.1670000 2
16982 16981 16983 16985 1 180.0000771 15.1670000 2
16979 16983 16981 16982 4 180.0000771 4.6024000 2
16981 16983 16985 16986 1 180.0000771 15.1670000 2
16981 16983 16985 16987 1 180.0000771 15.1670000 2
16984 16983 16985 16986 1 180.0000771 15.1670000 2
16984 16983 16985 16987 1 180.0000771 15.1670000 2
16981 16985 16983 16984 4 180.0000771 4.6024000 2
16978 16985 16987 16988 4 180.0000771 4.6024000 2
16983 16985 16987 16988 1 180.0000771 15.1670000 2
16986 16985 16987 16988 1 180.0000771 15.1670000 2
16978 16987 16985 16983 1 180.0000771 15.1670000 2
16978 16987 16985 16986 1 180.0000771 15.1670000 2
16983 16987 16985 16986 4 180.0000771 4.6024000 2
16991 16992 16993 16994 1 180.0000771 15.1670000 2
16991 16992 16993 16995 1 180.0000771 15.1670000 2
16994 16992 16993 16995 4 180.0000771 4.6024000 2
16991 16992 17001 16993 4 180.0000771 4.6024000 2
16991 16992 17001 16999 1 180.0000771 15.1670000 2
16991 16992 17001 17002 1 180.0000771 15.1670000 2
16993 16992 17001 16999 1 180.0000771 15.1670000 2
16993 16992 17001 17002 1 180.0000771 15.1670000 2
16994 16993 16992 17001 1 180.0000771 15.1670000 2
16995 16993 16992 17001 1 180.0000771 15.1670000 2
16992 16993 16995 16996 1 180.0000771 15.1670000 2
16992 16993 16995 16997 1 180.0000771 15.1670000 2
16994 16993 16995 16996 1 180.0000771 15.1670000 2
16994 16993 16995 16997 1 180.0000771 15.1670000 2
16993 16995 16997 16998 1 180.0000771 15.1670000 2
16993 16995 16997 16999 1 180.0000771 15.1670000 2
16996 16995 16997 16998 1 180.0000771 15.1670000 2
16996 16995 16997 16999 1 180.0000771 15.1670000 2
16993 16997 16995 16996 4 180.0000771 4.6024000 2
16995 16997 16999 17000 1 180.0000771 15.1670000 2
16995 16997 16999 17001 1 180.0000771 15.1670000 2
16998 16997 16999 17000 1 180.0000771 15.1670000 2
16998 16997 16999 17001 1 180.0000771 15.1670000 2
16995 16999 16997 16998 4 180.0000771 4.6024000 2
16992 16999 17001 17002 4 180.0000771 4.6024000 2
16997 16999 17001 17002 1 180.0000771 15.1670000 2
17000 16999 17001 17002 1 180.0000771 15.1670000 2
16992 17001 16999 16997 1 180.0000771 15.1670000 2
16992 17001 16999 17000 1 180.0000771 15.1670000 2
16997 17001 16999 17000 4 180.0000771 4.6024000 2
17005 17006 17007 17008 1 180.0000771 15.1670000 2
17005 17006 17007 17009 1 180.0000771 15.1670000 2
17008 17006 17007 17009 4 180.0000771 4.6024000 2
17005 17006 17015 17007 4 180.0000771 4.6024000 2
17005 17006 17015 17013 1 180.0000771 15.1670000 2
17005 17006 17015 17016 1 180.0000771 15.1670000 2
17007 17006 17015 17013 1 180.0000771 15.1670000 2
17007 17006 17015 17016 1 180.0000771 15.1670000 2
17008 17007 17006 17015 1 180.0000771 15.1670000 2
17009 17007 17006 17015 1 180.0000771 15.1670000 2
17006 17007 17009 17010 1 180.0000771 15.1670000 2
17006 17007 17009 17011 1 180.0000771 15.1670000 2
17008 17007 17009 17010 1 180.0000771 15.1670000 2
17008 17007 17009 17011 1 180.0000771 15.1670000 2
17007 17009 17011 17012 1 180.0000771 15.1670000 2
17007 17009 17011 17013 1 180.0000771 15.1670000 2
17010 17009 17011 17012 1 180.0000771 15.1670000 2
17010 17009 17011 17013 1 180.0000771 15.1670000 2
17007 17011 17009 17010 4 180.0000771 4.6024000 2
17009 17011 17013 17014 1 180.0000771 15.1670000 2
17009 17011 17013 17015 1 180.0000771 15.1670000 2
17012 17011 17013 17014 1 180.0000771 15.1670000 2
17012 17011 17013 17015 1 180.0000771 15.1670000 2
17009 17013 17011 17012 4 180.0000771 4.6024000 2
17006 17013 17015 17016 4 180.0000771 4.6024000 2
17011 17013 17015 17016 1 180.0000771 15.1670000 2
17014 17013 17015 17016 1 180.0000771 15.1670000 2
17006 17015 17013 17011 1 180.0000771 15.1670000 2
17006 17015 17013 17014 1 180.0000771 15.1670000 2
17011 17015 17013 17014 4 180.0000771 4.6024000 2
17019 17020 17021 17022 1 180.0000771 15.1670000 2
17019 17020 17021 17023 1 180.0000771 15.1670000 2
17022 17020 17021 17023 4 180.0000771 4.6024000 2
17019 17020 17029 17021 4 180.0000771 4.6024000 2
17019 17020 17029 17027 1 180.0000771 15.1670000 2
17019 17020 17029 17030 1 180.0000771 15.1670000 2
17021 17020 17029 17027 1 180.0000771 15.1670000 2
17021 17020 17029 17030 1 180.0000771 15.1670000 2
17022 17021 17020 17029 1 180.0000771 15.1670000 2
17023 17021 17020 17029 1 180.0000771 15.1670000 2
17020 17021 17023 17024 1 180.0000771 15.1670000 2
17020 17021 17023 17025 1 180.0000771 15.1670000 2
17022 17021 17023 17024 1 180.0000771 15.1670000 2
17022 17021 17023 17025 1 180.0000771 15.1670000 2
17021 17023 17025 17026 1 180.0000771 15.1670000 2
17021 17023 17025 17027 1 180.0000771 15.1670000 2
17024 17023 17025 17026 1 180.0000771 15.1670000 2
17024 17023 17025 17027 1 180.0000771 15.1670000 2
17021 17025 17023 17024 4 180.0000771 4.6024000 2
17023 17025 17027 17028 1 180.0000771 15.1670000 2
17023 17025 17027 17029 1 180.0000771 15.1670000 2
17026 17025 17027 17028 1 180.0000771 15.1670000 2
17026 17025 17027 17029 1 180.0000771 15.1670000 2
17023 17027 17025 17026 4 180.0000771 4.6024000 2
17020 17027 17029 17030 4 180.0000771 4.6024000 2
17025 17027 17029 17030 1 180.0000771 15.1670000 2
17028 17027 17029 17030 1 180.0000771 15.1670000 2
17020 17029 17027 17025 1 180.0000771 15.1670000 2
17020 17029 17027 17028 1 180.0000771 15.1670000 2
17025 17029 17027 17028 4 180.0000771 4.6024000 2
17033 17034 17035 17036 1 180.0000771 15.1670000 2
17033 17034 17035 17037 1 180.0000771 15.1670000 2
17036 17034 17035 17037 4 180.0000771 4.6024000 2
17033 17034 17043 17035 4 180.0000771 4.6024000 2
17033 17034 17043 17041 1 180.0000771 15.1670000 2
17033 17034 17043 17044 1 180.0000771 15.1670000 2
17035 17034 17043 17041 1 180.0000771 15.1670000 2
17035 17034 17043 17044 1 180.0000771 15.1670000 2
17036 17035 17034 17043 1 180.0000771 15.1670000 2
17037 17035 17034 17043 1 180.0000771 15.1670000 2
17034 17035 17037 17038 1 180.0000771 15.1670000 2
17034 17035 17037 17039 1 180.0000771 15.1670000 2
17036 17035 17037 17038 1 180.0000771 15.1670000 2
17036 17035 17037 17039 1 180.0000771 15.1670000 2
17035 17037 17039 17040 1 180.0000771 15.1670000 2
17035 17037 17039 17041 1 180.0000771 15.1670000 2
17038 17037 17039 17040 1 180.0000771 15.1670000 2
17038 17037 17039 17041 1 180.0000771 15.1670000 2
17035 17039 17037 17038 4 180.0000771 4.6024000 2
17037 17039 17041 17042 1 180.0000771 15.1670000 2
17037 17039 17041 17043 1 180.0000771 15.1670000 2
17040 17039 17041 17042 1 180.0000771 15.1670000 2
17040 17039 17041 17043 1 180.0000771 15.1670000 2
17037 17041 17039 17040 4 180.0000771 4.6024000 2
17034 17041 17043 17044 4 180.0000771 4.6024000 2
17039 17041 17043 17044 1 180.0000771 15.1670000 2
17042 17041 17043 17044 1 180.0000771 15.1670000 2
17034 17043 17041 17039 1 180.0000771 15.1670000 2
17034 17043 17041 17042 1 180.0000771 15.1670000 2
17039 17043 17041 17042 4 180.0000771 4.6024000 2
17047 17048 17049 17050 1 180.0000771 15.1670000 2
17047 17048 17049 17051 1 180.0000771 15.1670000 2
17050 17048 17049 17051 4 180.0000771 4.6024000 2
17047 17048 17057 17049 4 180.0000771 4.6024000 2
17047 17048 17057 17055 1 180.0000771 15.1670000 2
17047 17048 17057 17058 1 180.0000771 15.1670000 2
17049 17048 17057 17055 1 180.0000771 15.1670000 2
17049 17048 17057 17058 1 180.0000771 15.1670000 2
17050 17049 17048 17057 1 180.0000771 15.1670000 2
17051 17049 17048 17057 1 180.0000771 15.1670000 2
17048 17049 17051 17052 1 180.0000771 15.1670000 2
17048 17049 17051 17053 1 180.0000771 15.1670000 2
17050 17049 17051 17052 1 180.0000771 15.1670000 2
17050 17049 17051 17053 1 180.0000771 15.1670000 2
17049 17051 17053 17054 1 180.0000771 15.1670000 2
17049 17051 17053 17055 1 180.0000771 15.1670000 2
17052 17051 17053 17054 1 180.0000771 15.1670000 2
17052 17051 17053 17055 1 180.0000771 15.1670000 2
17049 17053 17051 17052 4 180.0000771 4.6024000 2
17051 17053 17055 17056 1 180.0000771 15.1670000 2
17051 17053 17055 17057 1 180.0000771 15.1670000 2
17054 17053 17055 17056 1 180.0000771 15.1670000 2
17054 17053 17055 17057 1 180.0000771 15.1670000 2
17051 17055 17053 17054 4 180.0000771 4.6024000 2
17048 17055 17057 17058 4 180.0000771 4.6024000 2
17053 17055 17057 17058 1 180.0000771 15.1670000 2
17056 17055 17057 17058 1 180.0000771 15.1670000 2
17048 17057 17055 17053 1 180.0000771 15.1670000 2
17048 17057 17055 17056 1 180.0000771 15.1670000 2
17053 17057 17055 17056 4 180.0000771 4.6024000 2
17061 17062 17063 17064 1 180.0000771 15.1670000 2
17061 17062 17063 17065 1 180.0000771 15.1670000 2
17064 17062 17063 17065 4 180.0000771 4.6024000 2
17061 17062 17071 17063 4 180.0000771 4.6024000 2
17061 17062 17071 17069 1 180.0000771 15.1670000 2
17061 17062 17071 17072 1 180.0000771 15.1670000 2
17063 17062 17071 17069 1 180.0000771 15.1670000 2
17063 17062 17071 17072 1 180.0000771 15.1670000 2
17064 17063 17062 17071 1 180.0000771 15.1670000 2
17065 17063 17062 17071 1 180.0000771 15.1670000 2
17062 17063 17065 17066 1 180.0000771 15.1670000 2
17062 17063 17065 17067 1 180.0000771 15.1670000 2
17064 17063 17065 17066 1 180.0000771 15.1670000 2
17064 17063 17065 17067 1 180.0000771 15.1670000 2
17063 17065 17067 17068 1 180.0000771 15.1670000 2
17063 17065 17067 17069 1 180.0000771 15.1670000 2
17066 17065 17067 17068 1 180.0000771 15.1670000 2
17066 17065 17067 17069 1 180.0000771 15.1670000 2
17063 17067 17065 17066 4 180.0000771 4.6024000 2
17065 17067 17069 17070 1 180.0000771 15.1670000 2
17065 17067 17069 17071 1 180.0000771 15.1670000 2
17068 17067 17069 17070 1 180.0000771 15.1670000 2
17068 17067 17069 17071 1 180.0000771 15.1670000 2
17065 17069 17067 17068 4 180.0000771 4.6024000 2
17062 17069 17071 17072 4 180.0000771 4.6024000 2
17067 17069 17071 17072 1 180.0000771 15.1670000 2
17070 17069 17071 17072 1 180.0000771 15.1670000 2
17062 17071 17069 17067 1 180.0000771 15.1670000 2
17062 17071 17069 17070 1 180.0000771 15.1670000 2
17067 17071 17069 17070 4 180.0000771 4.6024000 2
17075 17076 17077 17078 1 180.0000771 15.1670000 2
17075 17076 17077 17079 1 180.0000771 15.1670000 2
17078 17076 17077 17079 4 180.0000771 4.6024000 2
17075 17076 17085 17077 4 180.0000771 4.6024000 2
17075 17076 17085 17083 1 180.0000771 15.1670000 2
17075 17076 17085 17086 1 180.0000771 15.1670000 2
17077 17076 17085 17083 1 180.0000771 15.1670000 2
17077 17076 17085 17086 1 180.0000771 15.1670000 2
17078 17077 17076 17085 1 180.0000771 15.1670000 2
17079 17077 17076 17085 1 180.0000771 15.1670000 2
17076 17077 17079 17080 1 180.0000771 15.1670000 2
17076 17077 17079 17081 1 180.0000771 15.1670000 2
17078 17077 17079 17080 1 180.0000771 15.1670000 2
17078 17077 17079 17081 1 180.0000771 15.1670000 2
17077 17079 17081 17082 1 180.0000771 15.1670000 2
17077 17079 17081 17083 1 180.0000771 15.1670000 2
17080 17079 17081 17082 1 180.0000771 15.1670000 2
17080 17079 17081 17083 1 180.0000771 15.1670000 2
17077 17081 17079 17080 4 180.0000771 4.6024000 2
17079 17081 17083 17084 1 180.0000771 15.1670000 2
17079 17081 17083 17085 1 180.0000771 15.1670000 2
17082 17081 17083 17084 1 180.0000771 15.1670000 2
17082 17081 17083 17085 1 180.0000771 15.1670000 2
17079 17083 17081 17082 4 180.0000771 4.6024000 2
17076 17083 17085 17086 4 180.0000771 4.6024000 2
17081 17083 17085 17086 1 180.0000771 15.1670000 2
17084 17083 17085 17086 1 180.0000771 15.1670000 2
17076 17085 17083 17081 1 180.0000771 15.1670000 2
17076 17085 17083 17084 1 180.0000771 15.1670000 2
17081 17085 17083 17084 4 180.0000771 4.6024000 2
17089 17090 17091 17092 1 180.0000771 15.1670000 2
17089 17090 17091 17093 1 180.0000771 15.1670000 2
17092 17090 17091 17093 4 180.0000771 4.6024000 2
17089 17090 17099 17091 4 180.0000771 4.6024000 2
17089 17090 17099 17097 1 180.0000771 15.1670000 2
17089 17090 17099 17100 1 180.0000771 15.1670000 2
17091 17090 17099 17097 1 180.0000771 15.1670000 2
17091 17090 17099 17100 1 180.0000771 15.1670000 2
17092 17091 17090 17099 1 180.0000771 15.1670000 2
17093 17091 17090 17099 1 180.0000771 15.1670000 2
17090 17091 17093 17094 1 180.0000771 15.1670000 2
17090 17091 17093 17095 1 180.0000771 15.1670000 2
17092 17091 17093 17094 1 180.0000771 15.1670000 2
17092 17091 17093 17095 1 180.0000771 15.1670000 2
17091 17093 17095 17096 1 180.0000771 15.1670000 2
17091 17093 17095 17097 1 180.0000771 15.1670000 2
17094 17093 17095 17096 1 180.0000771 15.1670000 2
17094 17093 17095 17097 1 180.0000771 15.1670000 2
17091 17095 17093 17094 4 180.0000771 4.6024000 2
17093 17095 17097 17098 1 180.0000771 15.1670000 2
17093 17095 17097 17099 1 180.0000771 15.1670000 2
17096 17095 17097 17098 1 180.0000771 15.1670000 2
17096 17095 17097 17099 1 180.0000771 15.1670000 2
17093 17097 17095 17096 4 180.0000771 4.6024000 2
17090 17097 17099 17100 4 180.0000771 4.6024000 2
17095 17097 17099 17100 1 180.0000771 15.1670000 2
17098 17097 17099 17100 1 180.0000771 15.1670000 2
17090 17099 17097 17095 1 180.0000771 15.1670000 2
17090 17099 17097 17098 1 180.0000771 15.1670000 2
17095 17099 17097 17098 4 180.0000771 4.6024000 2
17103 17104 17105 17106 1 180.0000771 15.1670000 2
17103 17104 17105 17107 1 180.0000771 15.1670000 2
17106 17104 17105 17107 4 180.0000771 4.6024000 2
17103 17104 17113 17105 4 180.0000771 4.6024000 2
17103 17104 17113 17111 1 180.0000771 15.1670000 2
17103 17104 17113 17114 1 180.0000771 15.1670000 2
17105 17104 17113 17111 1 180.0000771 15.1670000 2
17105 17104 17113 17114 1 180.0000771 15.1670000 2
17106 17105 17104 17113 1 180.0000771 15.1670000 2
17107 17105 17104 17113 1 180.0000771 15.1670000 2
17104 17105 17107 17108 1 180.0000771 15.1670000 2
17104 17105 17107 17109 1 180.0000771 15.1670000 2
17106 17105 17107 17108 1 180.0000771 15.1670000 2
17106 17105 17107 17109 1 180.0000771 15.1670000 2
17105 17107 17109 17110 1 180.0000771 15.1670000 2
17105 17107 17109 17111 1 180.0000771 15.1670000 2
17108 17107 17109 17110 1 180.0000771 15.1670000 2
17108 17107 17109 17111 1 180.0000771 15.1670000 2
17105 17109 17107 17108 4 180.0000771 4.6024000 2
17107 17109 17111 17112 1 180.0000771 15.1670000 2
17107 17109 17111 17113 1 180.0000771 15.1670000 2
17110 17109 17111 17112 1 180.0000771 15.1670000 2
17110 17109 17111 17113 1 180.0000771 15.1670000 2
17107 17111 17109 17110 4 180.0000771 4.6024000 2
17104 17111 17113 17114 4 180.0000771 4.6024000 2
17109 17111 17113 17114 1 180.0000771 15.1670000 2
17112 17111 17113 17114 1 180.0000771 15.1670000 2
17104 17113 17111 17109 1 180.0000771 15.1670000 2
17104 17113 17111 17112 1 180.0000771 15.1670000 2
17109 17113 17111 17112 4 180.0000771 4.6024000 2
17117 17118 17119 17120 1 180.0000771 15.1670000 2
17117 17118 17119 17121 1 180.0000771 15.1670000 2
17120 17118 17119 17121 4 180.0000771 4.6024000 2
17117 17118 17127 17119 4 180.0000771 4.6024000 2
17117 17118 17127 17125 1 180.0000771 15.1670000 2
17117 17118 17127 17128 1 180.0000771 15.1670000 2
17119 17118 17127 17125 1 180.0000771 15.1670000 2
17119 17118 17127 17128 1 180.0000771 15.1670000 2
17120 17119 17118 17127 1 180.0000771 15.1670000 2
17121 17119 17118 17127 1 180.0000771 15.1670000 2
17118 17119 17121 17122 1 180.0000771 15.1670000 2
17118 17119 17121 17123 1 180.0000771 15.1670000 2
17120 17119 17121 17122 1 180.0000771 15.1670000 2
17120 17119 17121 17123 1 180.0000771 15.1670000 2
17119 17121 17123 17124 1 180.0000771 15.1670000 2
17119 17121 17123 17125 1 180.0000771 15.1670000 2
17122 17121 17123 17124 1 180.0000771 15.1670000 2
17122 17121 17123 17125 1 180.0000771 15.1670000 2
17119 17123 17121 17122 4 180.0000771 4.6024000 2
17121 17123 17125 17126 1 180.0000771 15.1670000 2
17121 17123 17125 17127 1 180.0000771 15.1670000 2
17124 17123 17125 17126 1 180.0000771 15.1670000 2
17124 17123 17125 17127 1 180.0000771 15.1670000 2
17121 17125 17123 17124 4 180.0000771 4.6024000 2
17118 17125 17127 17128 4 180.0000771 4.6024000 2
17123 17125 17127 17128 1 180.0000771 15.1670000 2
17126 17125 17127 17128 1 180.0000771 15.1670000 2
17118 17127 17125 17123 1 180.0000771 15.1670000 2
17118 17127 17125 17126 1 180.0000771 15.1670000 2
17123 17127 17125 17126 4 180.0000771 4.6024000 2
17131 17132 17133 17134 1 180.0000771 15.1670000 2
17131 17132 17133 17135 1 180.0000771 15.1670000 2
17134 17132 17133 17135 4 180.0000771 4.6024000 2
17131 17132 17141 17133 4 180.0000771 4.6024000 2
17131 17132 17141 17139 1 180.0000771 15.1670000 2
17131 17132 17141 17142 1 180.0000771 15.1670000 2
17133 17132 17141 17139 1 180.0000771 15.1670000 2
17133 17132 17141 17142 1 180.0000771 15.1670000 2
17134 17133 17132 17141 1 180.0000771 15.1670000 2
17135 17133 17132 17141 1 180.0000771 15.1670000 2
17132 17133 17135 17136 1 180.0000771 15.1670000 2
17132 17133 17135 17137 1 180.0000771 15.1670000 2
17134 17133 17135 17136 1 180.0000771 15.1670000 2
17134 17133 17135 17137 1 180.0000771 15.1670000 2
17133 17135 17137 17138 1 180.0000771 15.1670000 2
17133 17135 17137 17139 1 180.0000771 15.1670000 2
17136 17135 17137 17138 1 180.0000771 15.1670000 2
17136 17135 17137 17139 1 180.0000771 15.1670000 2
17133 17137 17135 17136 4 180.0000771 4.6024000 2
17135 17137 17139 17140 1 180.0000771 15.1670000 2
17135 17137 17139 17141 1 180.0000771 15.1670000 2
17138 17137 17139 17140 1 180.0000771 15.1670000 2
17138 17137 17139 17141 1 180.0000771 15.1670000 2
17135 17139 17137 17138 4 180.0000771 4.6024000 2
17132 17139 17141 17142 4 180.0000771 4.6024000 2
17137 17139 17141 17142 1 180.0000771 15.1670000 2
17140 17139 17141 17142 1 180.0000771 15.1670000 2
17132 17141 17139 17137 1 180.0000771 15.1670000 2
17132 17141 17139 17140 1 180.0000771 15.1670000 2
17137 17141 17139 17140 4 180.0000771 4.6024000 2
17145 17146 17147 17148 1 180.0000771 15.1670000 2
17145 17146 17147 17149 1 180.0000771 15.1670000 2
17148 17146 17147 17149 4 180.0000771 4.6024000 2
17145 17146 17155 17147 4 180.0000771 4.6024000 2
17145 17146 17155 17153 1 180.0000771 15.1670000 2
17145 17146 17155 17156 1 180.0000771 15.1670000 2
17147 17146 17155 17153 1 180.0000771 15.1670000 2
17147 17146 17155 17156 1 180.0000771 15.1670000 2
17148 17147 17146 17155 1 180.0000771 15.1670000 2
17149 17147 17146 17155 1 180.0000771 15.1670000 2
17146 17147 17149 17150 1 180.0000771 15.1670000 2
17146 17147 17149 17151 1 180.0000771 15.1670000 2
17148 17147 17149 17150 1 180.0000771 15.1670000 2
17148 17147 17149 17151 1 180.0000771 15.1670000 2
17147 17149 17151 17152 1 180.0000771 15.1670000 2
17147 17149 17151 17153 1 180.0000771 15.1670000 2
17150 17149 17151 17152 1 180.0000771 15.1670000 2
17150 17149 17151 17153 1 180.0000771 15.1670000 2
17147 17151 17149 17150 4 180.0000771 4.6024000 2
17149 17151 17153 17154 1 180.0000771 15.1670000 2
17149 17151 17153 17155 1 180.0000771 15.1670000 2
17152 17151 17153 17154 1 180.0000771 15.1670000 2
17152 17151 17153 17155 1 180.0000771 15.1670000 2
17149 17153 17151 17152 4 180.0000771 4.6024000 2
17146 17153 17155 17156 4 180.0000771 4.6024000 2
17151 17153 17155 17156 1 180.0000771 15.1670000 2
17154 17153 17155 17156 1 180.0000771 15.1670000 2
17146 17155 17153 17151 1 180.0000771 15.1670000 2
17146 17155 17153 17154 1 180.0000771 15.1670000 2
17151 17155 17153 17154 4 180.0000771 4.6024000 2
17159 17160 17161 17162 1 180.0000771 15.1670000 2
17159 17160 17161 17163 1 180.0000771 15.1670000 2
17162 17160 17161 17163 4 180.0000771 4.6024000 2
17159 17160 17169 17161 4 180.0000771 4.6024000 2
17159 17160 17169 17167 1 180.0000771 15.1670000 2
17159 17160 17169 17170 1 180.0000771 15.1670000 2
17161 17160 17169 17167 1 180.0000771 15.1670000 2
17161 17160 17169 17170 1 180.0000771 15.1670000 2
17162 17161 17160 17169 1 180.0000771 15.1670000 2
17163 17161 17160 17169 1 180.0000771 15.1670000 2
17160 17161 17163 17164 1 180.0000771 15.1670000 2
17160 17161 17163 17165 1 180.0000771 15.1670000 2
17162 17161 17163 17164 1 180.0000771 15.1670000 2
17162 17161 17163 17165 1 180.0000771 15.1670000 2
17161 17163 17165 17166 1 180.0000771 15.1670000 2
17161 17163 17165 17167 1 180.0000771 15.1670000 2
17164 17163 17165 17166 1 180.0000771 15.1670000 2
17164 17163 17165 17167 1 180.0000771 15.1670000 2
17161 17165 17163 17164 4 180.0000771 4.6024000 2
17163 17165 17167 17168 1 180.0000771 15.1670000 2
17163 17165 17167 17169 1 180.0000771 15.1670000 2
17166 17165 17167 17168 1 180.0000771 15.1670000 2
17166 17165 17167 17169 1 180.0000771 15.1670000 2
17163 17167 17165 17166 4 180.0000771 4.6024000 2
17160 17167 17169 17170 4 180.0000771 4.6024000 2
17165 17167 17169 17170 1 180.0000771 15.1670000 2
17168 17167 17169 17170 1 180.0000771 15.1670000 2
17160 17169 17167 17165 1 180.0000771 15.1670000 2
17160 17169 17167 17168 1 180.0000771 15.1670000 2
17165 17169 17167 17168 4 180.0000771 4.6024000 2
17173 17174 17175 17176 1 180.0000771 15.1670000 2
17173 17174 17175 17177 1 180.0000771 15.1670000 2
17176 17174 17175 17177 4 180.0000771 4.6024000 2
17173 17174 17183 17175 4 180.0000771 4.6024000 2
17173 17174 17183 17181 1 180.0000771 15.1670000 2
17173 17174 17183 17184 1 180.0000771 15.1670000 2
17175 17174 17183 17181 1 180.0000771 15.1670000 2
17175 17174 17183 17184 1 180.0000771 15.1670000 2
17176 17175 17174 17183 1 180.0000771 15.1670000 2
17177 17175 17174 17183 1 180.0000771 15.1670000 2
17174 17175 17177 17178 1 180.0000771 15.1670000 2
17174 17175 17177 17179 1 180.0000771 15.1670000 2
17176 17175 17177 17178 1 180.0000771 15.1670000 2
17176 17175 17177 17179 1 180.0000771 15.1670000 2
17175 17177 17179 17180 1 180.0000771 15.1670000 2
17175 17177 17179 17181 1 180.0000771 15.1670000 2
17178 17177 17179 17180 1 180.0000771 15.1670000 2
17178 17177 17179 17181 1 180.0000771 15.1670000 2
17175 17179 17177 17178 4 180.0000771 4.6024000 2
17177 17179 17181 17182 1 180.0000771 15.1670000 2
17177 17179 17181 17183 1 180.0000771 15.1670000 2
17180 17179 17181 17182 1 180.0000771 15.1670000 2
17180 17179 17181 17183 1 180.0000771 15.1670000 2
17177 17181 17179 17180 4 180.0000771 4.6024000 2
17174 17181 17183 17184 4 180.0000771 4.6024000 2
17179 17181 17183 17184 1 180.0000771 15.1670000 2
17182 17181 17183 17184 1 180.0000771 15.1670000 2
17174 17183 17181 17179 1 180.0000771 15.1670000 2
17174 17183 17181 17182 1 180.0000771 15.1670000 2
17179 17183 17181 17182 4 180.0000771 4.6024000 2
17187 17188 17189 17190 1 180.0000771 15.1670000 2
17187 17188 17189 17191 1 180.0000771 15.1670000 2
17190 17188 17189 17191 4 180.0000771 4.6024000 2
17187 17188 17197 17189 4 180.0000771 4.6024000 2
17187 17188 17197 17195 1 180.0000771 15.1670000 2
17187 17188 17197 17198 1 180.0000771 15.1670000 2
17189 17188 17197 17195 1 180.0000771 15.1670000 2
17189 17188 17197 17198 1 180.0000771 15.1670000 2
17190 17189 17188 17197 1 180.0000771 15.1670000 2
17191 17189 17188 17197 1 180.0000771 15.1670000 2
17188 17189 17191 17192 1 180.0000771 15.1670000 2
17188 17189 17191 17193 1 180.0000771 15.1670000 2
17190 17189 17191 17192 1 180.0000771 15.1670000 2
17190 17189 17191 17193 1 180.0000771 15.1670000 2
17189 17191 17193 17194 1 180.0000771 15.1670000 2
17189 17191 17193 17195 1 180.0000771 15.1670000 2
17192 17191 17193 17194 1 180.0000771 15.1670000 2
17192 17191 17193 17195 1 180.0000771 15.1670000 2
17189 17193 17191 17192 4 180.0000771 4.6024000 2
17191 17193 17195 17196 1 180.0000771 15.1670000 2
17191 17193 17195 17197 1 180.0000771 15.1670000 2
17194 17193 17195 17196 1 180.0000771 15.1670000 2
17194 17193 17195 17197 1 180.0000771 15.1670000 2
17191 17195 17193 17194 4 180.0000771 4.6024000 2
17188 17195 17197 17198 4 180.0000771 4.6024000 2
17193 17195 17197 17198 1 180.0000771 15.1670000 2
17196 17195 17197 17198 1 180.0000771 15.1670000 2
17188 17197 17195 17193 1 180.0000771 15.1670000 2
17188 17197 17195 17196 1 180.0000771 15.1670000 2
17193 17197 17195 17196 4 180.0000771 4.6024000 2
17201 17202 17203 17204 1 180.0000771 15.1670000 2
17201 17202 17203 17205 1 180.0000771 15.1670000 2
17204 17202 17203 17205 4 180.0000771 4.6024000 2
17201 17202 17211 17203 4 180.0000771 4.6024000 2
17201 17202 17211 17209 1 180.0000771 15.1670000 2
17201 17202 17211 17212 1 180.0000771 15.1670000 2
17203 17202 17211 17209 1 180.0000771 15.1670000 2
17203 17202 17211 17212 1 180.0000771 15.1670000 2
17204 17203 17202 17211 1 180.0000771 15.1670000 2
17205 17203 17202 17211 1 180.0000771 15.1670000 2
17202 17203 17205 17206 1 180.0000771 15.1670000 2
17202 17203 17205 17207 1 180.0000771 15.1670000 2
17204 17203 17205 17206 1 180.0000771 15.1670000 2
17204 17203 17205 17207 1 180.0000771 15.1670000 2
17203 17205 17207 17208 1 180.0000771 15.1670000 2
17203 17205 17207 17209 1 180.0000771 15.1670000 2
17206 17205 17207 17208 1 180.0000771 15.1670000 2
17206 17205 17207 17209 1 180.0000771 15.1670000 2
17203 17207 17205 17206 4 180.0000771 4.6024000 2
17205 17207 17209 17210 1 180.0000771 15.1670000 2
17205 17207 17209 17211 1 180.0000771 15.1670000 2
17208 17207 17209 17210 1 180.0000771 15.1670000 2
17208 17207 17209 17211 1 180.0000771 15.1670000 2
17205 17209 17207 17208 4 180.0000771 4.6024000 2
17202 17209 17211 17212 4 180.0000771 4.6024000 2
17207 17209 17211 17212 1 180.0000771 15.1670000 2
17210 17209 17211 17212 1 180.0000771 15.1670000 2
17202 17211 17209 17207 1 180.0000771 15.1670000 2
17202 17211 17209 17210 1 180.0000771 15.1670000 2
17207 17211 17209 17210 4 180.0000771 4.6024000 2
17215 17216 17217 17218 1 180.0000771 15.1670000 2
17215 17216 17217 17219 1 180.0000771 15.1670000 2
17218 17216 17217 17219 4 180.0000771 4.6024000 2
17215 17216 17225 17217 4 180.0000771 4.6024000 2
17215 17216 17225 17223 1 180.0000771 15.1670000 2
17215 17216 17225 17226 1 180.0000771 15.1670000 2
17217 17216 17225 17223 1 180.0000771 15.1670000 2
17217 17216 17225 17226 1 180.0000771 15.1670000 2
17218 17217 17216 17225 1 180.0000771 15.1670000 2
17219 17217 17216 17225 1 180.0000771 15.1670000 2
17216 17217 17219 17220 1 180.0000771 15.1670000 2
17216 17217 17219 17221 1 180.0000771 15.1670000 2
17218 17217 17219 17220 1 180.0000771 15.1670000 2
17218 17217 17219 17221 1 180.0000771 15.1670000 2
17217 17219 17221 17222 1 180.0000771 15.1670000 2
17217 17219 17221 17223 1 180.0000771 15.1670000 2
17220 17219 17221 17222 1 180.0000771 15.1670000 2
17220 17219 17221 17223 1 180.0000771 15.1670000 2
17217 17221 17219 17220 4 180.0000771 4.6024000 2
17219 17221 17223 17224 1 180.0000771 15.1670000 2
17219 17221 17223 17225 1 180.0000771 15.1670000 2
17222 17221 17223 17224 1 180.0000771 15.1670000 2
17222 17221 17223 17225 1 180.0000771 15.1670000 2
17219 17223 17221 17222 4 180.0000771 4.6024000 2
17216 17223 17225 17226 4 180.0000771 4.6024000 2
17221 17223 17225 17226 1 180.0000771 15.1670000 2
17224 17223 17225 17226 1 180.0000771 15.1670000 2
17216 17225 17223 17221 1 180.0000771 15.1670000 2
17216 17225 17223 17224 1 180.0000771 15.1670000 2
17221 17225 17223 17224 4 180.0000771 4.6024000 2
17229 17230 17231 17232 1 180.0000771 15.1670000 2
17229 17230 17231 17233 1 180.0000771 15.1670000 2
17232 17230 17231 17233 4 180.0000771 4.6024000 2
17229 17230 17239 17231 4 180.0000771 4.6024000 2
17229 17230 17239 17237 1 180.0000771 15.1670000 2
17229 17230 17239 17240 1 180.0000771 15.1670000 2
17231 17230 17239 17237 1 180.0000771 15.1670000 2
17231 17230 17239 17240 1 180.0000771 15.1670000 2
17232 17231 17230 17239 1 180.0000771 15.1670000 2
17233 17231 17230 17239 1 180.0000771 15.1670000 2
17230 17231 17233 17234 1 180.0000771 15.1670000 2
17230 17231 17233 17235 1 180.0000771 15.1670000 2
17232 17231 17233 17234 1 180.0000771 15.1670000 2
17232 17231 17233 17235 1 180.0000771 15.1670000 2
17231 17233 17235 17236 1 180.0000771 15.1670000 2
17231 17233 17235 17237 1 180.0000771 15.1670000 2
17234 17233 17235 17236 1 180.0000771 15.1670000 2
17234 17233 17235 17237 1 180.0000771 15.1670000 2
17231 17235 17233 17234 4 180.0000771 4.6024000 2
17233 17235 17237 17238 1 180.0000771 15.1670000 2
17233 17235 17237 17239 1 180.0000771 15.1670000 2
17236 17235 17237 17238 1 180.0000771 15.1670000 2
17236 17235 17237 17239 1 180.0000771 15.1670000 2
17233 17237 17235 17236 4 180.0000771 4.6024000 2
17230 17237 17239 17240 4 180.0000771 4.6024000 2
17235 17237 17239 17240 1 180.0000771 15.1670000 2
17238 17237 17239 17240 1 180.0000771 15.1670000 2
17230 17239 17237 17235 1 180.0000771 15.1670000 2
17230 17239 17237 17238 1 180.0000771 15.1670000 2
17235 17239 17237 17238 4 180.0000771 4.6024000 2
17243 17244 17245 17246 1 180.0000771 15.1670000 2
17243 17244 17245 17247 1 180.0000771 15.1670000 2
17246 17244 17245 17247 4 180.0000771 4.6024000 2
17243 17244 17253 17245 4 180.0000771 4.6024000 2
17243 17244 17253 17251 1 180.0000771 15.1670000 2
17243 17244 17253 17254 1 180.0000771 15.1670000 2
17245 17244 17253 17251 1 180.0000771 15.1670000 2
17245 17244 17253 17254 1 180.0000771 15.1670000 2
17246 17245 17244 17253 1 180.0000771 15.1670000 2
17247 17245 17244 17253 1 180.0000771 15.1670000 2
17244 17245 17247 17248 1 180.0000771 15.1670000 2
17244 17245 17247 17249 1 180.0000771 15.1670000 2
17246 17245 17247 17248 1 180.0000771 15.1670000 2
17246 17245 17247 17249 1 180.0000771 15.1670000 2
17245 17247 17249 17250 1 180.0000771 15.1670000 2
17245 17247 17249 17251 1 180.0000771 15.1670000 2
17248 17247 17249 17250 1 180.0000771 15.1670000 2
17248 17247 17249 17251 1 180.0000771 15.1670000 2
17245 17249 17247 17248 4 180.0000771 4.6024000 2
17247 17249 17251 17252 1 180.0000771 15.1670000 2
17247 17249 17251 17253 1 180.0000771 15.1670000 2
17250 17249 17251 17252 1 180.0000771 15.1670000 2
17250 17249 17251 17253 1 180.0000771 15.1670000 2
17247 17251 17249 17250 4 180.0000771 4.6024000 2
17244 17251 17253 17254 4 180.0000771 4.6024000 2
17249 17251 17253 17254 1 180.0000771 15.1670000 2
17252 17251 17253 17254 1 180.0000771 15.1670000 2
17244 17253 17251 17249 1 180.0000771 15.1670000 2
17244 17253 17251 17252 1 180.0000771 15.1670000 2
17249 17253 17251 17252 4 180.0000771 4.6024000 2
17257 17258 17259 17260 1 180.0000771 15.1670000 2
17257 17258 17259 17261 1 180.0000771 15.1670000 2
17260 17258 17259 17261 4 180.0000771 4.6024000 2
17257 17258 17267 17259 4 180.0000771 4.6024000 2
17257 17258 17267 17265 1 180.0000771 15.1670000 2
17257 17258 17267 17268 1 180.0000771 15.1670000 2
17259 17258 17267 17265 1 180.0000771 15.1670000 2
17259 17258 17267 17268 1 180.0000771 15.1670000 2
17260 17259 17258 17267 1 180.0000771 15.1670000 2
17261 17259 17258 17267 1 180.0000771 15.1670000 2
17258 17259 17261 17262 1 180.0000771 15.1670000 2
17258 17259 17261 17263 1 180.0000771 15.1670000 2
17260 17259 17261 17262 1 180.0000771 15.1670000 2
17260 17259 17261 17263 1 180.0000771 15.1670000 2
17259 17261 17263 17264 1 180.0000771 15.1670000 2
17259 17261 17263 17265 1 180.0000771 15.1670000 2
17262 17261 17263 17264 1 180.0000771 15.1670000 2
17262 17261 17263 17265 1 180.0000771 15.1670000 2
17259 17263 17261 17262 4 180.0000771 4.6024000 2
17261 17263 17265 17266 1 180.0000771 15.1670000 2
17261 17263 17265 17267 1 180.0000771 15.1670000 2
17264 17263 17265 17266 1 180.0000771 15.1670000 2
17264 17263 17265 17267 1 180.0000771 15.1670000 2
17261 17265 17263 17264 4 180.0000771 4.6024000 2
17258 17265 17267 17268 4 180.0000771 4.6024000 2
17263 17265 17267 17268 1 180.0000771 15.1670000 2
17266 17265 17267 17268 1 180.0000771 15.1670000 2
17258 17267 17265 17263 1 180.0000771 15.1670000 2
17258 17267 17265 17266 1 180.0000771 15.1670000 2
17263 17267 17265 17266 4 180.0000771 4.6024000 2
17271 17272 17273 17274 1 180.0000771 15.1670000 2
17271 17272 17273 17275 1 180.0000771 15.1670000 2
17274 17272 17273 17275 4 180.0000771 4.6024000 2
17271 17272 17281 17273 4 180.0000771 4.6024000 2
17271 17272 17281 17279 1 180.0000771 15.1670000 2
17271 17272 17281 17282 1 180.0000771 15.1670000 2
17273 17272 17281 17279 1 180.0000771 15.1670000 2
17273 17272 17281 17282 1 180.0000771 15.1670000 2
17274 17273 17272 17281 1 180.0000771 15.1670000 2
17275 17273 17272 17281 1 180.0000771 15.1670000 2
17272 17273 17275 17276 1 180.0000771 15.1670000 2
17272 17273 17275 17277 1 180.0000771 15.1670000 2
17274 17273 17275 17276 1 180.0000771 15.1670000 2
17274 17273 17275 17277 1 180.0000771 15.1670000 2
17273 17275 17277 17278 1 180.0000771 15.1670000 2
17273 17275 17277 17279 1 180.0000771 15.1670000 2
17276 17275 17277 17278 1 180.0000771 15.1670000 2
17276 17275 17277 17279 1 180.0000771 15.1670000 2
17273 17277 17275 17276 4 180.0000771 4.6024000 2
17275 17277 17279 17280 1 180.0000771 15.1670000 2
17275 17277 17279 17281 1 180.0000771 15.1670000 2
17278 17277 17279 17280 1 180.0000771 15.1670000 2
17278 17277 17279 17281 1 180.0000771 15.1670000 2
17275 17279 17277 17278 4 180.0000771 4.6024000 2
17272 17279 17281 17282 4 180.0000771 4.6024000 2
17277 17279 17281 17282 1 180.0000771 15.1670000 2
17280 17279 17281 17282 1 180.0000771 15.1670000 2
17272 17281 17279 17277 1 180.0000771 15.1670000 2
17272 17281 17279 17280 1 180.0000771 15.1670000 2
17277 17281 17279 17280 4 180.0000771 4.6024000 2
17285 17286 17287 17288 1 180.0000771 15.1670000 2
17285 17286 17287 17289 1 180.0000771 15.1670000 2
17288 17286 17287 17289 4 180.0000771 4.6024000 2
17285 17286 17295 17287 4 180.0000771 4.6024000 2
17285 17286 17295 17293 1 180.0000771 15.1670000 2
17285 17286 17295 17296 1 180.0000771 15.1670000 2
17287 17286 17295 17293 1 180.0000771 15.1670000 2
17287 17286 17295 17296 1 180.0000771 15.1670000 2
17288 17287 17286 17295 1 180.0000771 15.1670000 2
17289 17287 17286 17295 1 180.0000771 15.1670000 2
17286 17287 17289 17290 1 180.0000771 15.1670000 2
17286 17287 17289 17291 1 180.0000771 15.1670000 2
17288 17287 17289 17290 1 180.0000771 15.1670000 2
17288 17287 17289 17291 1 180.0000771 15.1670000 2
17287 17289 17291 17292 1 180.0000771 15.1670000 2
17287 17289 17291 17293 1 180.0000771 15.1670000 2
17290 17289 17291 17292 1 180.0000771 15.1670000 2
17290 17289 17291 17293 1 180.0000771 15.1670000 2
17287 17291 17289 17290 4 180.0000771 4.6024000 2
17289 17291 17293 17294 1 180.0000771 15.1670000 2
17289 17291 17293 17295 1 180.0000771 15.1670000 2
17292 17291 17293 17294 1 180.0000771 15.1670000 2
17292 17291 17293 17295 1 180.0000771 15.1670000 2
17289 17293 17291 17292 4 180.0000771 4.6024000 2
17286 17293 17295 17296 4 180.0000771 4.6024000 2
17291 17293 17295 17296 1 180.0000771 15.1670000 2
17294 17293 17295 17296 1 180.0000771 15.1670000 2
17286 17295 17293 17291 1 180.0000771 15.1670000 2
17286 17295 17293 17294 1 180.0000771 15.1670000 2
17291 17295 17293 17294 4 180.0000771 4.6024000 2
17299 17300 17301 17302 1 180.0000771 15.1670000 2
17299 17300 17301 17303 1 180.0000771 15.1670000 2
17302 17300 17301 17303 4 180.0000771 4.6024000 2
17299 17300 17309 17301 4 180.0000771 4.6024000 2
17299 17300 17309 17307 1 180.0000771 15.1670000 2
17299 17300 17309 17310 1 180.0000771 15.1670000 2
17301 17300 17309 17307 1 180.0000771 15.1670000 2
17301 17300 17309 17310 1 180.0000771 15.1670000 2
17302 17301 17300 17309 1 180.0000771 15.1670000 2
17303 17301 17300 17309 1 180.0000771 15.1670000 2
17300 17301 17303 17304 1 180.0000771 15.1670000 2
17300 17301 17303 17305 1 180.0000771 15.1670000 2
17302 17301 17303 17304 1 180.0000771 15.1670000 2
17302 17301 17303 17305 1 180.0000771 15.1670000 2
17301 17303 17305 17306 1 180.0000771 15.1670000 2
17301 17303 17305 17307 1 180.0000771 15.1670000 2
17304 17303 17305 17306 1 180.0000771 15.1670000 2
17304 17303 17305 17307 1 180.0000771 15.1670000 2
17301 17305 17303 17304 4 180.0000771 4.6024000 2
17303 17305 17307 17308 1 180.0000771 15.1670000 2
17303 17305 17307 17309 1 180.0000771 15.1670000 2
17306 17305 17307 17308 1 180.0000771 15.1670000 2
17306 17305 17307 17309 1 180.0000771 15.1670000 2
17303 17307 17305 17306 4 180.0000771 4.6024000 2
17300 17307 17309 17310 4 180.0000771 4.6024000 2
17305 17307 17309 17310 1 180.0000771 15.1670000 2
17308 17307 17309 17310 1 180.0000771 15.1670000 2
17300 17309 17307 17305 1 180.0000771 15.1670000 2
17300 17309 17307 17308 1 180.0000771 15.1670000 2
17305 17309 17307 17308 4 180.0000771 4.6024000 2
17313 17314 17315 17316 1 180.0000771 15.1670000 2
17313 17314 17315 17317 1 180.0000771 15.1670000 2
17316 17314 17315 17317 4 180.0000771 4.6024000 2
17313 17314 17323 17315 4 180.0000771 4.6024000 2
17313 17314 17323 17321 1 180.0000771 15.1670000 2
17313 17314 17323 17324 1 180.0000771 15.1670000 2
17315 17314 17323 17321 1 180.0000771 15.1670000 2
17315 17314 17323 17324 1 180.0000771 15.1670000 2
17316 17315 17314 17323 1 180.0000771 15.1670000 2
17317 17315 17314 17323 1 180.0000771 15.1670000 2
17314 17315 17317 17318 1 180.0000771 15.1670000 2
17314 17315 17317 17319 1 180.0000771 15.1670000 2
17316 17315 17317 17318 1 180.0000771 15.1670000 2
17316 17315 17317 17319 1 180.0000771 15.1670000 2
17315 17317 17319 17320 1 180.0000771 15.1670000 2
17315 17317 17319 17321 1 180.0000771 15.1670000 2
17318 17317 17319 17320 1 180.0000771 15.1670000 2
17318 17317 17319 17321 1 180.0000771 15.1670000 2
17315 17319 17317 17318 4 180.0000771 4.6024000 2
17317 17319 17321 17322 1 180.0000771 15.1670000 2
17317 17319 17321 17323 1 180.0000771 15.1670000 2
17320 17319 17321 17322 1 180.0000771 15.1670000 2
17320 17319 17321 17323 1 180.0000771 15.1670000 2
17317 17321 17319 17320 4 180.0000771 4.6024000 2
17314 17321 17323 17324 4 180.0000771 4.6024000 2
17319 17321 17323 17324 1 180.0000771 15.1670000 2
17322 17321 17323 17324 1 180.0000771 15.1670000 2
17314 17323 17321 17319 1 180.0000771 15.1670000 2
17314 17323 17321 17322 1 180.0000771 15.1670000 2
17319 17323 17321 17322 4 180.0000771 4.6024000 2
17327 17328 17329 17330 1 180.0000771 15.1670000 2
17327 17328 17329 17331 1 180.0000771 15.1670000 2
17330 17328 17329 17331 4 180.0000771 4.6024000 2
17327 17328 17337 17329 4 180.0000771 4.6024000 2
17327 17328 17337 17335 1 180.0000771 15.1670000 2
17327 17328 17337 17338 1 180.0000771 15.1670000 2
17329 17328 17337 17335 1 180.0000771 15.1670000 2
17329 17328 17337 17338 1 180.0000771 15.1670000 2
17330 17329 17328 17337 1 180.0000771 15.1670000 2
17331 17329 17328 17337 1 180.0000771 15.1670000 2
17328 17329 17331 17332 1 180.0000771 15.1670000 2
17328 17329 17331 17333 1 180.0000771 15.1670000 2
17330 17329 17331 17332 1 180.0000771 15.1670000 2
17330 17329 17331 17333 1 180.0000771 15.1670000 2
17329 17331 17333 17334 1 180.0000771 15.1670000 2
17329 17331 17333 17335 1 180.0000771 15.1670000 2
17332 17331 17333 17334 1 180.0000771 15.1670000 2
17332 17331 17333 17335 1 180.0000771 15.1670000 2
17329 17333 17331 17332 4 180.0000771 4.6024000 2
17331 17333 17335 17336 1 180.0000771 15.1670000 2
17331 17333 17335 17337 1 180.0000771 15.1670000 2
17334 17333 17335 17336 1 180.0000771 15.1670000 2
17334 17333 17335 17337 1 180.0000771 15.1670000 2
17331 17335 17333 17334 4 180.0000771 4.6024000 2
17328 17335 17337 17338 4 180.0000771 4.6024000 2
17333 17335 17337 17338 1 180.0000771 15.1670000 2
17336 17335 17337 17338 1 180.0000771 15.1670000 2
17328 17337 17335 17333 1 180.0000771 15.1670000 2
17328 17337 17335 17336 1 180.0000771 15.1670000 2
17333 17337 17335 17336 4 180.0000771 4.6024000 2
17341 17342 17343 17344 1 180.0000771 15.1670000 2
17341 17342 17343 17345 1 180.0000771 15.1670000 2
17344 17342 17343 17345 4 180.0000771 4.6024000 2
17341 17342 17351 17343 4 180.0000771 4.6024000 2
17341 17342 17351 17349 1 180.0000771 15.1670000 2
17341 17342 17351 17352 1 180.0000771 15.1670000 2
17343 17342 17351 17349 1 180.0000771 15.1670000 2
17343 17342 17351 17352 1 180.0000771 15.1670000 2
17344 17343 17342 17351 1 180.0000771 15.1670000 2
17345 17343 17342 17351 1 180.0000771 15.1670000 2
17342 17343 17345 17346 1 180.0000771 15.1670000 2
17342 17343 17345 17347 1 180.0000771 15.1670000 2
17344 17343 17345 17346 1 180.0000771 15.1670000 2
17344 17343 17345 17347 1 180.0000771 15.1670000 2
17343 17345 17347 17348 1 180.0000771 15.1670000 2
17343 17345 17347 17349 1 180.0000771 15.1670000 2
17346 17345 17347 17348 1 180.0000771 15.1670000 2
17346 17345 17347 17349 1 180.0000771 15.1670000 2
17343 17347 17345 17346 4 180.0000771 4.6024000 2
17345 17347 17349 17350 1 180.0000771 15.1670000 2
17345 17347 17349 17351 1 180.0000771 15.1670000 2
17348 17347 17349 17350 1 180.0000771 15.1670000 2
17348 17347 17349 17351 1 180.0000771 15.1670000 2
17345 17349 17347 17348 4 180.0000771 4.6024000 2
17342 17349 17351 17352 4 180.0000771 4.6024000 2
17347 17349 17351 17352 1 180.0000771 15.1670000 2
17350 17349 17351 17352 1 180.0000771 15.1670000 2
17342 17351 17349 17347 1 180.0000771 15.1670000 2
17342 17351 17349 17350 1 180.0000771 15.1670000 2
17347 17351 17349 17350 4 180.0000771 4.6024000 2
17355 17356 17357 17358 1 180.0000771 15.1670000 2
17355 17356 17357 17359 1 180.0000771 15.1670000 2
17358 17356 17357 17359 4 180.0000771 4.6024000 2
17355 17356 17365 17357 4 180.0000771 4.6024000 2
17355 17356 17365 17363 1 180.0000771 15.1670000 2
17355 17356 17365 17366 1 180.0000771 15.1670000 2
17357 17356 17365 17363 1 180.0000771 15.1670000 2
17357 17356 17365 17366 1 180.0000771 15.1670000 2
17358 17357 17356 17365 1 180.0000771 15.1670000 2
17359 17357 17356 17365 1 180.0000771 15.1670000 2
17356 17357 17359 17360 1 180.0000771 15.1670000 2
17356 17357 17359 17361 1 180.0000771 15.1670000 2
17358 17357 17359 17360 1 180.0000771 15.1670000 2
17358 17357 17359 17361 1 180.0000771 15.1670000 2
17357 17359 17361 17362 1 180.0000771 15.1670000 2
17357 17359 17361 17363 1 180.0000771 15.1670000 2
17360 17359 17361 17362 1 180.0000771 15.1670000 2
17360 17359 17361 17363 1 180.0000771 15.1670000 2
17357 17361 17359 17360 4 180.0000771 4.6024000 2
17359 17361 17363 17364 1 180.0000771 15.1670000 2
17359 17361 17363 17365 1 180.0000771 15.1670000 2
17362 17361 17363 17364 1 180.0000771 15.1670000 2
17362 17361 17363 17365 1 180.0000771 15.1670000 2
17359 17363 17361 17362 4 180.0000771 4.6024000 2
17356 17363 17365 17366 4 180.0000771 4.6024000 2
17361 17363 17365 17366 1 180.0000771 15.1670000 2
17364 17363 17365 17366 1 180.0000771 15.1670000 2
17356 17365 17363 17361 1 180.0000771 15.1670000 2
17356 17365 17363 17364 1 180.0000771 15.1670000 2
17361 17365 17363 17364 4 180.0000771 4.6024000 2
17369 17370 17371 17372 1 180.0000771 15.1670000 2
17369 17370 17371 17373 1 180.0000771 15.1670000 2
17372 17370 17371 17373 4 180.0000771 4.6024000 2
17369 17370 17379 17371 4 180.0000771 4.6024000 2
17369 17370 17379 17377 1 180.0000771 15.1670000 2
17369 17370 17379 17380 1 180.0000771 15.1670000 2
17371 17370 17379 17377 1 180.0000771 15.1670000 2
17371 17370 17379 17380 1 180.0000771 15.1670000 2
17372 17371 17370 17379 1 180.0000771 15.1670000 2
17373 17371 17370 17379 1 180.0000771 15.1670000 2
17370 17371 17373 17374 1 180.0000771 15.1670000 2
17370 17371 17373 17375 1 180.0000771 15.1670000 2
17372 17371 17373 17374 1 180.0000771 15.1670000 2
17372 17371 17373 17375 1 180.0000771 15.1670000 2
17371 17373 17375 17376 1 180.0000771 15.1670000 2
17371 17373 17375 17377 1 180.0000771 15.1670000 2
17374 17373 17375 17376 1 180.0000771 15.1670000 2
17374 17373 17375 17377 1 180.0000771 15.1670000 2
17371 17375 17373 17374 4 180.0000771 4.6024000 2
17373 17375 17377 17378 1 180.0000771 15.1670000 2
17373 17375 17377 17379 1 180.0000771 15.1670000 2
17376 17375 17377 17378 1 180.0000771 15.1670000 2
17376 17375 17377 17379 1 180.0000771 15.1670000 2
17373 17377 17375 17376 4 180.0000771 4.6024000 2
17370 17377 17379 17380 4 180.0000771 4.6024000 2
17375 17377 17379 17380 1 180.0000771 15.1670000 2
17378 17377 17379 17380 1 180.0000771 15.1670000 2
17370 17379 17377 17375 1 180.0000771 15.1670000 2
17370 17379 17377 17378 1 180.0000771 15.1670000 2
17375 17379 17377 17378 4 180.0000771 4.6024000 2
17383 17384 17385 17386 1 180.0000771 15.1670000 2
17383 17384 17385 17387 1 180.0000771 15.1670000 2
17386 17384 17385 17387 4 180.0000771 4.6024000 2
17383 17384 17393 17385 4 180.0000771 4.6024000 2
17383 17384 17393 17391 1 180.0000771 15.1670000 2
17383 17384 17393 17394 1 180.0000771 15.1670000 2
17385 17384 17393 17391 1 180.0000771 15.1670000 2
17385 17384 17393 17394 1 180.0000771 15.1670000 2
17386 17385 17384 17393 1 180.0000771 15.1670000 2
17387 17385 17384 17393 1 180.0000771 15.1670000 2
17384 17385 17387 17388 1 180.0000771 15.1670000 2
17384 17385 17387 17389 1 180.0000771 15.1670000 2
17386 17385 17387 17388 1 180.0000771 15.1670000 2
17386 17385 17387 17389 1 180.0000771 15.1670000 2
17385 17387 17389 17390 1 180.0000771 15.1670000 2
17385 17387 17389 17391 1 180.0000771 15.1670000 2
17388 17387 17389 17390 1 180.0000771 15.1670000 2
17388 17387 17389 17391 1 180.0000771 15.1670000 2
17385 17389 17387 17388 4 180.0000771 4.6024000 2
17387 17389 17391 17392 1 180.0000771 15.1670000 2
17387 17389 17391 17393 1 180.0000771 15.1670000 2
17390 17389 17391 17392 1 180.0000771 15.1670000 2
17390 17389 17391 17393 1 180.0000771 15.1670000 2
17387 17391 17389 17390 4 180.0000771 4.6024000 2
17384 17391 17393 17394 4 180.0000771 4.6024000 2
17389 17391 17393 17394 1 180.0000771 15.1670000 2
17392 17391 17393 17394 1 180.0000771 15.1670000 2
17384 17393 17391 17389 1 180.0000771 15.1670000 2
17384 17393 17391 17392 1 180.0000771 15.1670000 2
17389 17393 17391 17392 4 180.0000771 4.6024000 2
17397 17398 17399 17400 1 180.0000771 15.1670000 2
17397 17398 17399 17401 1 180.0000771 15.1670000 2
17400 17398 17399 17401 4 180.0000771 4.6024000 2
17397 17398 17407 17399 4 180.0000771 4.6024000 2
17397 17398 17407 17405 1 180.0000771 15.1670000 2
17397 17398 17407 17408 1 180.0000771 15.1670000 2
17399 17398 17407 17405 1 180.0000771 15.1670000 2
17399 17398 17407 17408 1 180.0000771 15.1670000 2
17400 17399 17398 17407 1 180.0000771 15.1670000 2
17401 17399 17398 17407 1 180.0000771 15.1670000 2
17398 17399 17401 17402 1 180.0000771 15.1670000 2
17398 17399 17401 17403 1 180.0000771 15.1670000 2
17400 17399 17401 17402 1 180.0000771 15.1670000 2
17400 17399 17401 17403 1 180.0000771 15.1670000 2
17399 17401 17403 17404 1 180.0000771 15.1670000 2
17399 17401 17403 17405 1 180.0000771 15.1670000 2
17402 17401 17403 17404 1 180.0000771 15.1670000 2
17402 17401 17403 17405 1 180.0000771 15.1670000 2
17399 17403 17401 17402 4 180.0000771 4.6024000 2
17401 17403 17405 17406 1 180.0000771 15.1670000 2
17401 17403 17405 17407 1 180.0000771 15.1670000 2
17404 17403 17405 17406 1 180.0000771 15.1670000 2
17404 17403 17405 17407 1 180.0000771 15.1670000 2
17401 17405 17403 17404 4 180.0000771 4.6024000 2
17398 17405 17407 17408 4 180.0000771 4.6024000 2
17403 17405 17407 17408 1 180.0000771 15.1670000 2
17406 17405 17407 17408 1 180.0000771 15.1670000 2
17398 17407 17405 17403 1 180.0000771 15.1670000 2
17398 17407 17405 17406 1 180.0000771 15.1670000 2
17403 17407 17405 17406 4 180.0000771 4.6024000 2
17411 17412 17413 17414 1 180.0000771 15.1670000 2
17411 17412 17413 17415 1 180.0000771 15.1670000 2
17414 17412 17413 17415 4 180.0000771 4.6024000 2
17411 17412 17421 17413 4 180.0000771 4.6024000 2
17411 17412 17421 17419 1 180.0000771 15.1670000 2
17411 17412 17421 17422 1 180.0000771 15.1670000 2
17413 17412 17421 17419 1 180.0000771 15.1670000 2
17413 17412 17421 17422 1 180.0000771 15.1670000 2
17414 17413 17412 17421 1 180.0000771 15.1670000 2
17415 17413 17412 17421 1 180.0000771 15.1670000 2
17412 17413 17415 17416 1 180.0000771 15.1670000 2
17412 17413 17415 17417 1 180.0000771 15.1670000 2
17414 17413 17415 17416 1 180.0000771 15.1670000 2
17414 17413 17415 17417 1 180.0000771 15.1670000 2
17413 17415 17417 17418 1 180.0000771 15.1670000 2
17413 17415 17417 17419 1 180.0000771 15.1670000 2
17416 17415 17417 17418 1 180.0000771 15.1670000 2
17416 17415 17417 17419 1 180.0000771 15.1670000 2
17413 17417 17415 17416 4 180.0000771 4.6024000 2
17415 17417 17419 17420 1 180.0000771 15.1670000 2
17415 17417 17419 17421 1 180.0000771 15.1670000 2
17418 17417 17419 17420 1 180.0000771 15.1670000 2
17418 17417 17419 17421 1 180.0000771 15.1670000 2
17415 17419 17417 17418 4 180.0000771 4.6024000 2
17412 17419 17421 17422 4 180.0000771 4.6024000 2
17417 17419 17421 17422 1 180.0000771 15.1670000 2
17420 17419 17421 17422 1 180.0000771 15.1670000 2
17412 17421 17419 17417 1 180.0000771 15.1670000 2
17412 17421 17419 17420 1 180.0000771 15.1670000 2
17417 17421 17419 17420 4 180.0000771 4.6024000 2
17425 17426 17427 17428 1 180.0000771 15.1670000 2
17425 17426 17427 17429 1 180.0000771 15.1670000 2
17428 17426 17427 17429 4 180.0000771 4.6024000 2
17425 17426 17435 17427 4 180.0000771 4.6024000 2
17425 17426 17435 17433 1 180.0000771 15.1670000 2
17425 17426 17435 17436 1 180.0000771 15.1670000 2
17427 17426 17435 17433 1 180.0000771 15.1670000 2
17427 17426 17435 17436 1 180.0000771 15.1670000 2
17428 17427 17426 17435 1 180.0000771 15.1670000 2
17429 17427 17426 17435 1 180.0000771 15.1670000 2
17426 17427 17429 17430 1 180.0000771 15.1670000 2
17426 17427 17429 17431 1 180.0000771 15.1670000 2
17428 17427 17429 17430 1 180.0000771 15.1670000 2
17428 17427 17429 17431 1 180.0000771 15.1670000 2
17427 17429 17431 17432 1 180.0000771 15.1670000 2
17427 17429 17431 17433 1 180.0000771 15.1670000 2
17430 17429 17431 17432 1 180.0000771 15.1670000 2
17430 17429 17431 17433 1 180.0000771 15.1670000 2
17427 17431 17429 17430 4 180.0000771 4.6024000 2
17429 17431 17433 17434 1 180.0000771 15.1670000 2
17429 17431 17433 17435 1 180.0000771 15.1670000 2
17432 17431 17433 17434 1 180.0000771 15.1670000 2
17432 17431 17433 17435 1 180.0000771 15.1670000 2
17429 17433 17431 17432 4 180.0000771 4.6024000 2
17426 17433 17435 17436 4 180.0000771 4.6024000 2
17431 17433 17435 17436 1 180.0000771 15.1670000 2
17434 17433 17435 17436 1 180.0000771 15.1670000 2
17426 17435 17433 17431 1 180.0000771 15.1670000 2
17426 17435 17433 17434 1 180.0000771 15.1670000 2
17431 17435 17433 17434 4 180.0000771 4.6024000 2
17439 17440 17441 17442 1 180.0000771 15.1670000 2
17439 17440 17441 17443 1 180.0000771 15.1670000 2
17442 17440 17441 17443 4 180.0000771 4.6024000 2
17439 17440 17449 17441 4 180.0000771 4.6024000 2
17439 17440 17449 17447 1 180.0000771 15.1670000 2
17439 17440 17449 17450 1 180.0000771 15.1670000 2
17441 17440 17449 17447 1 180.0000771 15.1670000 2
17441 17440 17449 17450 1 180.0000771 15.1670000 2
17442 17441 17440 17449 1 180.0000771 15.1670000 2
17443 17441 17440 17449 1 180.0000771 15.1670000 2
17440 17441 17443 17444 1 180.0000771 15.1670000 2
17440 17441 17443 17445 1 180.0000771 15.1670000 2
17442 17441 17443 17444 1 180.0000771 15.1670000 2
17442 17441 17443 17445 1 180.0000771 15.1670000 2
17441 17443 17445 17446 1 180.0000771 15.1670000 2
17441 17443 17445 17447 1 180.0000771 15.1670000 2
17444 17443 17445 17446 1 180.0000771 15.1670000 2
17444 17443 17445 17447 1 180.0000771 15.1670000 2
17441 17445 17443 17444 4 180.0000771 4.6024000 2
17443 17445 17447 17448 1 180.0000771 15.1670000 2
17443 17445 17447 17449 1 180.0000771 15.1670000 2
17446 17445 17447 17448 1 180.0000771 15.1670000 2
17446 17445 17447 17449 1 180.0000771 15.1670000 2
17443 17447 17445 17446 4 180.0000771 4.6024000 2
17440 17447 17449 17450 4 180.0000771 4.6024000 2
17445 17447 17449 17450 1 180.0000771 15.1670000 2
17448 17447 17449 17450 1 180.0000771 15.1670000 2
17440 17449 17447 17445 1 180.0000771 15.1670000 2
17440 17449 17447 17448 1 180.0000771 15.1670000 2
17445 17449 17447 17448 4 180.0000771 4.6024000 2
17453 17454 17455 17456 1 180.0000771 15.1670000 2
17453 17454 17455 17457 1 180.0000771 15.1670000 2
17456 17454 17455 17457 4 180.0000771 4.6024000 2
17453 17454 17463 17455 4 180.0000771 4.6024000 2
17453 17454 17463 17461 1 180.0000771 15.1670000 2
17453 17454 17463 17464 1 180.0000771 15.1670000 2
17455 17454 17463 17461 1 180.0000771 15.1670000 2
17455 17454 17463 17464 1 180.0000771 15.1670000 2
17456 17455 17454 17463 1 180.0000771 15.1670000 2
17457 17455 17454 17463 1 180.0000771 15.1670000 2
17454 17455 17457 17458 1 180.0000771 15.1670000 2
17454 17455 17457 17459 1 180.0000771 15.1670000 2
17456 17455 17457 17458 1 180.0000771 15.1670000 2
17456 17455 17457 17459 1 180.0000771 15.1670000 2
17455 17457 17459 17460 1 180.0000771 15.1670000 2
17455 17457 17459 17461 1 180.0000771 15.1670000 2
17458 17457 17459 17460 1 180.0000771 15.1670000 2
17458 17457 17459 17461 1 180.0000771 15.1670000 2
17455 17459 17457 17458 4 180.0000771 4.6024000 2
17457 17459 17461 17462 1 180.0000771 15.1670000 2
17457 17459 17461 17463 1 180.0000771 15.1670000 2
17460 17459 17461 17462 1 180.0000771 15.1670000 2
17460 17459 17461 17463 1 180.0000771 15.1670000 2
17457 17461 17459 17460 4 180.0000771 4.6024000 2
17454 17461 17463 17464 4 180.0000771 4.6024000 2
17459 17461 17463 17464 1 180.0000771 15.1670000 2
17462 17461 17463 17464 1 180.0000771 15.1670000 2
17454 17463 17461 17459 1 180.0000771 15.1670000 2
17454 17463 17461 17462 1 180.0000771 15.1670000 2
17459 17463 17461 17462 4 180.0000771 4.6024000 2
17467 17468 17469 17470 1 180.0000771 15.1670000 2
17467 17468 17469 17471 1 180.0000771 15.1670000 2
17470 17468 17469 17471 4 180.0000771 4.6024000 2
17467 17468 17477 17469 4 180.0000771 4.6024000 2
17467 17468 17477 17475 1 180.0000771 15.1670000 2
17467 17468 17477 17478 1 180.0000771 15.1670000 2
17469 17468 17477 17475 1 180.0000771 15.1670000 2
17469 17468 17477 17478 1 180.0000771 15.1670000 2
17470 17469 17468 17477 1 180.0000771 15.1670000 2
17471 17469 17468 17477 1 180.0000771 15.1670000 2
17468 17469 17471 17472 1 180.0000771 15.1670000 2
17468 17469 17471 17473 1 180.0000771 15.1670000 2
17470 17469 17471 17472 1 180.0000771 15.1670000 2
17470 17469 17471 17473 1 180.0000771 15.1670000 2
17469 17471 17473 17474 1 180.0000771 15.1670000 2
17469 17471 17473 17475 1 180.0000771 15.1670000 2
17472 17471 17473 17474 1 180.0000771 15.1670000 2
17472 17471 17473 17475 1 180.0000771 15.1670000 2
17469 17473 17471 17472 4 180.0000771 4.6024000 2
17471 17473 17475 17476 1 180.0000771 15.1670000 2
17471 17473 17475 17477 1 180.0000771 15.1670000 2
17474 17473 17475 17476 1 180.0000771 15.1670000 2
17474 17473 17475 17477 1 180.0000771 15.1670000 2
17471 17475 17473 17474 4 180.0000771 4.6024000 2
17468 17475 17477 17478 4 180.0000771 4.6024000 2
17473 17475 17477 17478 1 180.0000771 15.1670000 2
17476 17475 17477 17478 1 180.0000771 15.1670000 2
17468 17477 17475 17473 1 180.0000771 15.1670000 2
17468 17477 17475 17476 1 180.0000771 15.1670000 2
17473 17477 17475 17476 4 180.0000771 4.6024000 2
17481 17482 17483 17484 1 180.0000771 15.1670000 2
17481 17482 17483 17485 1 180.0000771 15.1670000 2
17484 17482 17483 17485 4 180.0000771 4.6024000 2
17481 17482 17491 17483 4 180.0000771 4.6024000 2
17481 17482 17491 17489 1 180.0000771 15.1670000 2
17481 17482 17491 17492 1 180.0000771 15.1670000 2
17483 17482 17491 17489 1 180.0000771 15.1670000 2
17483 17482 17491 17492 1 180.0000771 15.1670000 2
17484 17483 17482 17491 1 180.0000771 15.1670000 2
17485 17483 17482 17491 1 180.0000771 15.1670000 2
17482 17483 17485 17486 1 180.0000771 15.1670000 2
17482 17483 17485 17487 1 180.0000771 15.1670000 2
17484 17483 17485 17486 1 180.0000771 15.1670000 2
17484 17483 17485 17487 1 180.0000771 15.1670000 2
17483 17485 17487 17488 1 180.0000771 15.1670000 2
17483 17485 17487 17489 1 180.0000771 15.1670000 2
17486 17485 17487 17488 1 180.0000771 15.1670000 2
17486 17485 17487 17489 1 180.0000771 15.1670000 2
17483 17487 17485 17486 4 180.0000771 4.6024000 2
17485 17487 17489 17490 1 180.0000771 15.1670000 2
17485 17487 17489 17491 1 180.0000771 15.1670000 2
17488 17487 17489 17490 1 180.0000771 15.1670000 2
17488 17487 17489 17491 1 180.0000771 15.1670000 2
17485 17489 17487 17488 4 180.0000771 4.6024000 2
17482 17489 17491 17492 4 180.0000771 4.6024000 2
17487 17489 17491 17492 1 180.0000771 15.1670000 2
17490 17489 17491 17492 1 180.0000771 15.1670000 2
17482 17491 17489 17487 1 180.0000771 15.1670000 2
17482 17491 17489 17490 1 180.0000771 15.1670000 2
17487 17491 17489 17490 4 180.0000771 4.6024000 2
17495 17496 17497 17498 1 180.0000771 15.1670000 2
17495 17496 17497 17499 1 180.0000771 15.1670000 2
17498 17496 17497 17499 4 180.0000771 4.6024000 2
17495 17496 17505 17497 4 180.0000771 4.6024000 2
17495 17496 17505 17503 1 180.0000771 15.1670000 2
17495 17496 17505 17506 1 180.0000771 15.1670000 2
17497 17496 17505 17503 1 180.0000771 15.1670000 2
17497 17496 17505 17506 1 180.0000771 15.1670000 2
17498 17497 17496 17505 1 180.0000771 15.1670000 2
17499 17497 17496 17505 1 180.0000771 15.1670000 2
17496 17497 17499 17500 1 180.0000771 15.1670000 2
17496 17497 17499 17501 1 180.0000771 15.1670000 2
17498 17497 17499 17500 1 180.0000771 15.1670000 2
17498 17497 17499 17501 1 180.0000771 15.1670000 2
17497 17499 17501 17502 1 180.0000771 15.1670000 2
17497 17499 17501 17503 1 180.0000771 15.1670000 2
17500 17499 17501 17502 1 180.0000771 15.1670000 2
17500 17499 17501 17503 1 180.0000771 15.1670000 2
17497 17501 17499 17500 4 180.0000771 4.6024000 2
17499 17501 17503 17504 1 180.0000771 15.1670000 2
17499 17501 17503 17505 1 180.0000771 15.1670000 2
17502 17501 17503 17504 1 180.0000771 15.1670000 2
17502 17501 17503 17505 1 180.0000771 15.1670000 2
17499 17503 17501 17502 4 180.0000771 4.6024000 2
17496 17503 17505 17506 4 180.0000771 4.6024000 2
17501 17503 17505 17506 1 180.0000771 15.1670000 2
17504 17503 17505 17506 1 180.0000771 15.1670000 2
17496 17505 17503 17501 1 180.0000771 15.1670000 2
17496 17505 17503 17504 1 180.0000771 15.1670000 2
17501 17505 17503 17504 4 180.0000771 4.6024000 2
17509 17510 17511 17512 1 180.0000771 15.1670000 2
17509 17510 17511 17513 1 180.0000771 15.1670000 2
17512 17510 17511 17513 4 180.0000771 4.6024000 2
17509 17510 17519 17511 4 180.0000771 4.6024000 2
17509 17510 17519 17517 1 180.0000771 15.1670000 2
17509 17510 17519 17520 1 180.0000771 15.1670000 2
17511 17510 17519 17517 1 180.0000771 15.1670000 2
17511 17510 17519 17520 1 180.0000771 15.1670000 2
17512 17511 17510 17519 1 180.0000771 15.1670000 2
17513 17511 17510 17519 1 180.0000771 15.1670000 2
17510 17511 17513 17514 1 180.0000771 15.1670000 2
17510 17511 17513 17515 1 180.0000771 15.1670000 2
17512 17511 17513 17514 1 180.0000771 15.1670000 2
17512 17511 17513 17515 1 180.0000771 15.1670000 2
17511 17513 17515 17516 1 180.0000771 15.1670000 2
17511 17513 17515 17517 1 180.0000771 15.1670000 2
17514 17513 17515 17516 1 180.0000771 15.1670000 2
17514 17513 17515 17517 1 180.0000771 15.1670000 2
17511 17515 17513 17514 4 180.0000771 4.6024000 2
17513 17515 17517 17518 1 180.0000771 15.1670000 2
17513 17515 17517 17519 1 180.0000771 15.1670000 2
17516 17515 17517 17518 1 180.0000771 15.1670000 2
17516 17515 17517 17519 1 180.0000771 15.1670000 2
17513 17517 17515 17516 4 180.0000771 4.6024000 2
17510 17517 17519 17520 4 180.0000771 4.6024000 2
17515 17517 17519 17520 1 180.0000771 15.1670000 2
17518 17517 17519 17520 1 180.0000771 15.1670000 2
17510 17519 17517 17515 1 180.0000771 15.1670000 2
17510 17519 17517 17518 1 180.0000771 15.1670000 2
17515 17519 17517 17518 4 180.0000771 4.6024000 2
17523 17524 17525 17526 1 180.0000771 15.1670000 2
17523 17524 17525 17527 1 180.0000771 15.1670000 2
17526 17524 17525 17527 4 180.0000771 4.6024000 2
17523 17524 17533 17525 4 180.0000771 4.6024000 2
17523 17524 17533 17531 1 180.0000771 15.1670000 2
17523 17524 17533 17534 1 180.0000771 15.1670000 2
17525 17524 17533 17531 1 180.0000771 15.1670000 2
17525 17524 17533 17534 1 180.0000771 15.1670000 2
17526 17525 17524 17533 1 180.0000771 15.1670000 2
17527 17525 17524 17533 1 180.0000771 15.1670000 2
17524 17525 17527 17528 1 180.0000771 15.1670000 2
17524 17525 17527 17529 1 180.0000771 15.1670000 2
17526 17525 17527 17528 1 180.0000771 15.1670000 2
17526 17525 17527 17529 1 180.0000771 15.1670000 2
17525 17527 17529 17530 1 180.0000771 15.1670000 2
17525 17527 17529 17531 1 180.0000771 15.1670000 2
17528 17527 17529 17530 1 180.0000771 15.1670000 2
17528 17527 17529 17531 1 180.0000771 15.1670000 2
17525 17529 17527 17528 4 180.0000771 4.6024000 2
17527 17529 17531 17532 1 180.0000771 15.1670000 2
17527 17529 17531 17533 1 180.0000771 15.1670000 2
17530 17529 17531 17532 1 180.0000771 15.1670000 2
17530 17529 17531 17533 1 180.0000771 15.1670000 2
17527 17531 17529 17530 4 180.0000771 4.6024000 2
17524 17531 17533 17534 4 180.0000771 4.6024000 2
17529 17531 17533 17534 1 180.0000771 15.1670000 2
17532 17531 17533 17534 1 180.0000771 15.1670000 2
17524 17533 17531 17529 1 180.0000771 15.1670000 2
17524 17533 17531 17532 1 180.0000771 15.1670000 2
17529 17533 17531 17532 4 180.0000771 4.6024000 2
17537 17538 17539 17540 1 180.0000771 15.1670000 2
17537 17538 17539 17541 1 180.0000771 15.1670000 2
17540 17538 17539 17541 4 180.0000771 4.6024000 2
17537 17538 17547 17539 4 180.0000771 4.6024000 2
17537 17538 17547 17545 1 180.0000771 15.1670000 2
17537 17538 17547 17548 1 180.0000771 15.1670000 2
17539 17538 17547 17545 1 180.0000771 15.1670000 2
17539 17538 17547 17548 1 180.0000771 15.1670000 2
17540 17539 17538 17547 1 180.0000771 15.1670000 2
17541 17539 17538 17547 1 180.0000771 15.1670000 2
17538 17539 17541 17542 1 180.0000771 15.1670000 2
17538 17539 17541 17543 1 180.0000771 15.1670000 2
17540 17539 17541 17542 1 180.0000771 15.1670000 2
17540 17539 17541 17543 1 180.0000771 15.1670000 2
17539 17541 17543 17544 1 180.0000771 15.1670000 2
17539 17541 17543 17545 1 180.0000771 15.1670000 2
17542 17541 17543 17544 1 180.0000771 15.1670000 2
17542 17541 17543 17545 1 180.0000771 15.1670000 2
17539 17543 17541 17542 4 180.0000771 4.6024000 2
17541 17543 17545 17546 1 180.0000771 15.1670000 2
17541 17543 17545 17547 1 180.0000771 15.1670000 2
17544 17543 17545 17546 1 180.0000771 15.1670000 2
17544 17543 17545 17547 1 180.0000771 15.1670000 2
17541 17545 17543 17544 4 180.0000771 4.6024000 2
17538 17545 17547 17548 4 180.0000771 4.6024000 2
17543 17545 17547 17548 1 180.0000771 15.1670000 2
17546 17545 17547 17548 1 180.0000771 15.1670000 2
17538 17547 17545 17543 1 180.0000771 15.1670000 2
17538 17547 17545 17546 1 180.0000771 15.1670000 2
17543 17547 17545 17546 4 180.0000771 4.6024000 2
17551 17552 17553 17554 1 180.0000771 15.1670000 2
17551 17552 17553 17555 1 180.0000771 15.1670000 2
17554 17552 17553 17555 4 180.0000771 4.6024000 2
17551 17552 17561 17553 4 180.0000771 4.6024000 2
17551 17552 17561 17559 1 180.0000771 15.1670000 2
17551 17552 17561 17562 1 180.0000771 15.1670000 2
17553 17552 17561 17559 1 180.0000771 15.1670000 2
17553 17552 17561 17562 1 180.0000771 15.1670000 2
17554 17553 17552 17561 1 180.0000771 15.1670000 2
17555 17553 17552 17561 1 180.0000771 15.1670000 2
17552 17553 17555 17556 1 180.0000771 15.1670000 2
17552 17553 17555 17557 1 180.0000771 15.1670000 2
17554 17553 17555 17556 1 180.0000771 15.1670000 2
17554 17553 17555 17557 1 180.0000771 15.1670000 2
17553 17555 17557 17558 1 180.0000771 15.1670000 2
17553 17555 17557 17559 1 180.0000771 15.1670000 2
17556 17555 17557 17558 1 180.0000771 15.1670000 2
17556 17555 17557 17559 1 180.0000771 15.1670000 2
17553 17557 17555 17556 4 180.0000771 4.6024000 2
17555 17557 17559 17560 1 180.0000771 15.1670000 2
17555 17557 17559 17561 1 180.0000771 15.1670000 2
17558 17557 17559 17560 1 180.0000771 15.1670000 2
17558 17557 17559 17561 1 180.0000771 15.1670000 2
17555 17559 17557 17558 4 180.0000771 4.6024000 2
17552 17559 17561 17562 4 180.0000771 4.6024000 2
17557 17559 17561 17562 1 180.0000771 15.1670000 2
17560 17559 17561 17562 1 180.0000771 15.1670000 2
17552 17561 17559 17557 1 180.0000771 15.1670000 2
17552 17561 17559 17560 1 180.0000771 15.1670000 2
17557 17561 17559 17560 4 180.0000771 4.6024000 2
17565 17566 17567 17568 1 180.0000771 15.1670000 2
17565 17566 17567 17569 1 180.0000771 15.1670000 2
17568 17566 17567 17569 4 180.0000771 4.6024000 2
17565 17566 17575 17567 4 180.0000771 4.6024000 2
17565 17566 17575 17573 1 180.0000771 15.1670000 2
17565 17566 17575 17576 1 180.0000771 15.1670000 2
17567 17566 17575 17573 1 180.0000771 15.1670000 2
17567 17566 17575 17576 1 180.0000771 15.1670000 2
17568 17567 17566 17575 1 180.0000771 15.1670000 2
17569 17567 17566 17575 1 180.0000771 15.1670000 2
17566 17567 17569 17570 1 180.0000771 15.1670000 2
17566 17567 17569 17571 1 180.0000771 15.1670000 2
17568 17567 17569 17570 1 180.0000771 15.1670000 2
17568 17567 17569 17571 1 180.0000771 15.1670000 2
17567 17569 17571 17572 1 180.0000771 15.1670000 2
17567 17569 17571 17573 1 180.0000771 15.1670000 2
17570 17569 17571 17572 1 180.0000771 15.1670000 2
17570 17569 17571 17573 1 180.0000771 15.1670000 2
17567 17571 17569 17570 4 180.0000771 4.6024000 2
17569 17571 17573 17574 1 180.0000771 15.1670000 2
17569 17571 17573 17575 1 180.0000771 15.1670000 2
17572 17571 17573 17574 1 180.0000771 15.1670000 2
17572 17571 17573 17575 1 180.0000771 15.1670000 2
17569 17573 17571 17572 4 180.0000771 4.6024000 2
17566 17573 17575 17576 4 180.0000771 4.6024000 2
17571 17573 17575 17576 1 180.0000771 15.1670000 2
17574 17573 17575 17576 1 180.0000771 15.1670000 2
17566 17575 17573 17571 1 180.0000771 15.1670000 2
17566 17575 17573 17574 1 180.0000771 15.1670000 2
17571 17575 17573 17574 4 180.0000771 4.6024000 2
17579 17580 17581 17582 1 180.0000771 15.1670000 2
17579 17580 17581 17583 1 180.0000771 15.1670000 2
17582 17580 17581 17583 4 180.0000771 4.6024000 2
17579 17580 17589 17581 4 180.0000771 4.6024000 2
17579 17580 17589 17587 1 180.0000771 15.1670000 2
17579 17580 17589 17590 1 180.0000771 15.1670000 2
17581 17580 17589 17587 1 180.0000771 15.1670000 2
17581 17580 17589 17590 1 180.0000771 15.1670000 2
17582 17581 17580 17589 1 180.0000771 15.1670000 2
17583 17581 17580 17589 1 180.0000771 15.1670000 2
17580 17581 17583 17584 1 180.0000771 15.1670000 2
17580 17581 17583 17585 1 180.0000771 15.1670000 2
17582 17581 17583 17584 1 180.0000771 15.1670000 2
17582 17581 17583 17585 1 180.0000771 15.1670000 2
17581 17583 17585 17586 1 180.0000771 15.1670000 2
17581 17583 17585 17587 1 180.0000771 15.1670000 2
17584 17583 17585 17586 1 180.0000771 15.1670000 2
17584 17583 17585 17587 1 180.0000771 15.1670000 2
17581 17585 17583 17584 4 180.0000771 4.6024000 2
17583 17585 17587 17588 1 180.0000771 15.1670000 2
17583 17585 17587 17589 1 180.0000771 15.1670000 2
17586 17585 17587 17588 1 180.0000771 15.1670000 2
17586 17585 17587 17589 1 180.0000771 15.1670000 2
17583 17587 17585 17586 4 180.0000771 4.6024000 2
17580 17587 17589 17590 4 180.0000771 4.6024000 2
17585 17587 17589 17590 1 180.0000771 15.1670000 2
17588 17587 17589 17590 1 180.0000771 15.1670000 2
17580 17589 17587 17585 1 180.0000771 15.1670000 2
17580 17589 17587 17588 1 180.0000771 15.1670000 2
17585 17589 17587 17588 4 180.0000771 4.6024000 2
17593 17594 17595 17596 1 180.0000771 15.1670000 2
17593 17594 17595 17597 1 180.0000771 15.1670000 2
17596 17594 17595 17597 4 180.0000771 4.6024000 2
17593 17594 17603 17595 4 180.0000771 4.6024000 2
17593 17594 17603 17601 1 180.0000771 15.1670000 2
17593 17594 17603 17604 1 180.0000771 15.1670000 2
17595 17594 17603 17601 1 180.0000771 15.1670000 2
17595 17594 17603 17604 1 180.0000771 15.1670000 2
17596 17595 17594 17603 1 180.0000771 15.1670000 2
17597 17595 17594 17603 1 180.0000771 15.1670000 2
17594 17595 17597 17598 1 180.0000771 15.1670000 2
17594 17595 17597 17599 1 180.0000771 15.1670000 2
17596 17595 17597 17598 1 180.0000771 15.1670000 2
17596 17595 17597 17599 1 180.0000771 15.1670000 2
17595 17597 17599 17600 1 180.0000771 15.1670000 2
17595 17597 17599 17601 1 180.0000771 15.1670000 2
17598 17597 17599 17600 1 180.0000771 15.1670000 2
17598 17597 17599 17601 1 180.0000771 15.1670000 2
17595 17599 17597 17598 4 180.0000771 4.6024000 2
17597 17599 17601 17602 1 180.0000771 15.1670000 2
17597 17599 17601 17603 1 180.0000771 15.1670000 2
17600 17599 17601 17602 1 180.0000771 15.1670000 2
17600 17599 17601 17603 1 180.0000771 15.1670000 2
17597 17601 17599 17600 4 180.0000771 4.6024000 2
17594 17601 17603 17604 4 180.0000771 4.6024000 2
17599 17601 17603 17604 1 180.0000771 15.1670000 2
17602 17601 17603 17604 1 180.0000771 15.1670000 2
17594 17603 17601 17599 1 180.0000771 15.1670000 2
17594 17603 17601 17602 1 180.0000771 15.1670000 2
17599 17603 17601 17602 4 180.0000771 4.6024000 2
17607 17608 17609 17610 1 180.0000771 15.1670000 2
17607 17608 17609 17611 1 180.0000771 15.1670000 2
17610 17608 17609 17611 4 180.0000771 4.6024000 2
17607 17608 17617 17609 4 180.0000771 4.6024000 2
17607 17608 17617 17615 1 180.0000771 15.1670000 2
17607 17608 17617 17618 1 180.0000771 15.1670000 2
17609 17608 17617 17615 1 180.0000771 15.1670000 2
17609 17608 17617 17618 1 180.0000771 15.1670000 2
17610 17609 17608 17617 1 180.0000771 15.1670000 2
17611 17609 17608 17617 1 180.0000771 15.1670000 2
17608 17609 17611 17612 1 180.0000771 15.1670000 2
17608 17609 17611 17613 1 180.0000771 15.1670000 2
17610 17609 17611 17612 1 180.0000771 15.1670000 2
17610 17609 17611 17613 1 180.0000771 15.1670000 2
17609 17611 17613 17614 1 180.0000771 15.1670000 2
17609 17611 17613 17615 1 180.0000771 15.1670000 2
17612 17611 17613 17614 1 180.0000771 15.1670000 2
17612 17611 17613 17615 1 180.0000771 15.1670000 2
17609 17613 17611 17612 4 180.0000771 4.6024000 2
17611 17613 17615 17616 1 180.0000771 15.1670000 2
17611 17613 17615 17617 1 180.0000771 15.1670000 2
17614 17613 17615 17616 1 180.0000771 15.1670000 2
17614 17613 17615 17617 1 180.0000771 15.1670000 2
17611 17615 17613 17614 4 180.0000771 4.6024000 2
17608 17615 17617 17618 4 180.0000771 4.6024000 2
17613 17615 17617 17618 1 180.0000771 15.1670000 2
17616 17615 17617 17618 1 180.0000771 15.1670000 2
17608 17617 17615 17613 1 180.0000771 15.1670000 2
17608 17617 17615 17616 1 180.0000771 15.1670000 2
17613 17617 17615 17616 4 180.0000771 4.6024000 2
17621 17622 17623 17624 1 180.0000771 15.1670000 2
17621 17622 17623 17625 1 180.0000771 15.1670000 2
17624 17622 17623 17625 4 180.0000771 4.6024000 2
17621 17622 17631 17623 4 180.0000771 4.6024000 2
17621 17622 17631 17629 1 180.0000771 15.1670000 2
17621 17622 17631 17632 1 180.0000771 15.1670000 2
17623 17622 17631 17629 1 180.0000771 15.1670000 2
17623 17622 17631 17632 1 180.0000771 15.1670000 2
17624 17623 17622 17631 1 180.0000771 15.1670000 2
17625 17623 17622 17631 1 180.0000771 15.1670000 2
17622 17623 17625 17626 1 180.0000771 15.1670000 2
17622 17623 17625 17627 1 180.0000771 15.1670000 2
17624 17623 17625 17626 1 180.0000771 15.1670000 2
17624 17623 17625 17627 1 180.0000771 15.1670000 2
17623 17625 17627 17628 1 180.0000771 15.1670000 2
17623 17625 17627 17629 1 180.0000771 15.1670000 2
17626 17625 17627 17628 1 180.0000771 15.1670000 2
17626 17625 17627 17629 1 180.0000771 15.1670000 2
17623 17627 17625 17626 4 180.0000771 4.6024000 2
17625 17627 17629 17630 1 180.0000771 15.1670000 2
17625 17627 17629 17631 1 180.0000771 15.1670000 2
17628 17627 17629 17630 1 180.0000771 15.1670000 2
17628 17627 17629 17631 1 180.0000771 15.1670000 2
17625 17629 17627 17628 4 180.0000771 4.6024000 2
17622 17629 17631 17632 4 180.0000771 4.6024000 2
17627 17629 17631 17632 1 180.0000771 15.1670000 2
17630 17629 17631 17632 1 180.0000771 15.1670000 2
17622 17631 17629 17627 1 180.0000771 15.1670000 2
17622 17631 17629 17630 1 180.0000771 15.1670000 2
17627 17631 17629 17630 4 180.0000771 4.6024000 2
17635 17636 17637 17638 1 180.0000771 15.1670000 2
17635 17636 17637 17639 1 180.0000771 15.1670000 2
17638 17636 17637 17639 4 180.0000771 4.6024000 2
17635 17636 17645 17637 4 180.0000771 4.6024000 2
17635 17636 17645 17643 1 180.0000771 15.1670000 2
17635 17636 17645 17646 1 180.0000771 15.1670000 2
17637 17636 17645 17643 1 180.0000771 15.1670000 2
17637 17636 17645 17646 1 180.0000771 15.1670000 2
17638 17637 17636 17645 1 180.0000771 15.1670000 2
17639 17637 17636 17645 1 180.0000771 15.1670000 2
17636 17637 17639 17640 1 180.0000771 15.1670000 2
17636 17637 17639 17641 1 180.0000771 15.1670000 2
17638 17637 17639 17640 1 180.0000771 15.1670000 2
17638 17637 17639 17641 1 180.0000771 15.1670000 2
17637 17639 17641 17642 1 180.0000771 15.1670000 2
17637 17639 17641 17643 1 180.0000771 15.1670000 2
17640 17639 17641 17642 1 180.0000771 15.1670000 2
17640 17639 17641 17643 1 180.0000771 15.1670000 2
17637 17641 17639 17640 4 180.0000771 4.6024000 2
17639 17641 17643 17644 1 180.0000771 15.1670000 2
17639 17641 17643 17645 1 180.0000771 15.1670000 2
17642 17641 17643 17644 1 180.0000771 15.1670000 2
17642 17641 17643 17645 1 180.0000771 15.1670000 2
17639 17643 17641 17642 4 180.0000771 4.6024000 2
17636 17643 17645 17646 4 180.0000771 4.6024000 2
17641 17643 17645 17646 1 180.0000771 15.1670000 2
17644 17643 17645 17646 1 180.0000771 15.1670000 2
17636 17645 17643 17641 1 180.0000771 15.1670000 2
17636 17645 17643 17644 1 180.0000771 15.1670000 2
17641 17645 17643 17644 4 180.0000771 4.6024000 2
17649 17650 17651 17652 1 180.0000771 15.1670000 2
17649 17650 17651 17653 1 180.0000771 15.1670000 2
17652 17650 17651 17653 4 180.0000771 4.6024000 2
17649 17650 17659 17651 4 180.0000771 4.6024000 2
17649 17650 17659 17657 1 180.0000771 15.1670000 2
17649 17650 17659 17660 1 180.0000771 15.1670000 2
17651 17650 17659 17657 1 180.0000771 15.1670000 2
17651 17650 17659 17660 1 180.0000771 15.1670000 2
17652 17651 17650 17659 1 180.0000771 15.1670000 2
17653 17651 17650 17659 1 180.0000771 15.1670000 2
17650 17651 17653 17654 1 180.0000771 15.1670000 2
17650 17651 17653 17655 1 180.0000771 15.1670000 2
17652 17651 17653 17654 1 180.0000771 15.1670000 2
17652 17651 17653 17655 1 180.0000771 15.1670000 2
17651 17653 17655 17656 1 180.0000771 15.1670000 2
17651 17653 17655 17657 1 180.0000771 15.1670000 2
17654 17653 17655 17656 1 180.0000771 15.1670000 2
17654 17653 17655 17657 1 180.0000771 15.1670000 2
17651 17655 17653 17654 4 180.0000771 4.6024000 2
17653 17655 17657 17658 1 180.0000771 15.1670000 2
17653 17655 17657 17659 1 180.0000771 15.1670000 2
17656 17655 17657 17658 1 180.0000771 15.1670000 2
17656 17655 17657 17659 1 180.0000771 15.1670000 2
17653 17657 17655 17656 4 180.0000771 4.6024000 2
17650 17657 17659 17660 4 180.0000771 4.6024000 2
17655 17657 17659 17660 1 180.0000771 15.1670000 2
17658 17657 17659 17660 1 180.0000771 15.1670000 2
17650 17659 17657 17655 1 180.0000771 15.1670000 2
17650 17659 17657 17658 1 180.0000771 15.1670000 2
17655 17659 17657 17658 4 180.0000771 4.6024000 2
17663 17664 17665 17666 1 180.0000771 15.1670000 2
17663 17664 17665 17667 1 180.0000771 15.1670000 2
17666 17664 17665 17667 4 180.0000771 4.6024000 2
17663 17664 17673 17665 4 180.0000771 4.6024000 2
17663 17664 17673 17671 1 180.0000771 15.1670000 2
17663 17664 17673 17674 1 180.0000771 15.1670000 2
17665 17664 17673 17671 1 180.0000771 15.1670000 2
17665 17664 17673 17674 1 180.0000771 15.1670000 2
17666 17665 17664 17673 1 180.0000771 15.1670000 2
17667 17665 17664 17673 1 180.0000771 15.1670000 2
17664 17665 17667 17668 1 180.0000771 15.1670000 2
17664 17665 17667 17669 1 180.0000771 15.1670000 2
17666 17665 17667 17668 1 180.0000771 15.1670000 2
17666 17665 17667 17669 1 180.0000771 15.1670000 2
17665 17667 17669 17670 1 180.0000771 15.1670000 2
17665 17667 17669 17671 1 180.0000771 15.1670000 2
17668 17667 17669 17670 1 180.0000771 15.1670000 2
17668 17667 17669 17671 1 180.0000771 15.1670000 2
17665 17669 17667 17668 4 180.0000771 4.6024000 2
17667 17669 17671 17672 1 180.0000771 15.1670000 2
17667 17669 17671 17673 1 180.0000771 15.1670000 2
17670 17669 17671 17672 1 180.0000771 15.1670000 2
17670 17669 17671 17673 1 180.0000771 15.1670000 2
17667 17671 17669 17670 4 180.0000771 4.6024000 2
17664 17671 17673 17674 4 180.0000771 4.6024000 2
17669 17671 17673 17674 1 180.0000771 15.1670000 2
17672 17671 17673 17674 1 180.0000771 15.1670000 2
17664 17673 17671 17669 1 180.0000771 15.1670000 2
17664 17673 17671 17672 1 180.0000771 15.1670000 2
17669 17673 17671 17672 4 180.0000771 4.6024000 2
17677 17678 17679 17680 1 180.0000771 15.1670000 2
17677 17678 17679 17681 1 180.0000771 15.1670000 2
17680 17678 17679 17681 4 180.0000771 4.6024000 2
17677 17678 17687 17679 4 180.0000771 4.6024000 2
17677 17678 17687 17685 1 180.0000771 15.1670000 2
17677 17678 17687 17688 1 180.0000771 15.1670000 2
17679 17678 17687 17685 1 180.0000771 15.1670000 2
17679 17678 17687 17688 1 180.0000771 15.1670000 2
17680 17679 17678 17687 1 180.0000771 15.1670000 2
17681 17679 17678 17687 1 180.0000771 15.1670000 2
17678 17679 17681 17682 1 180.0000771 15.1670000 2
17678 17679 17681 17683 1 180.0000771 15.1670000 2
17680 17679 17681 17682 1 180.0000771 15.1670000 2
17680 17679 17681 17683 1 180.0000771 15.1670000 2
17679 17681 17683 17684 1 180.0000771 15.1670000 2
17679 17681 17683 17685 1 180.0000771 15.1670000 2
17682 17681 17683 17684 1 180.0000771 15.1670000 2
17682 17681 17683 17685 1 180.0000771 15.1670000 2
17679 17683 17681 17682 4 180.0000771 4.6024000 2
17681 17683 17685 17686 1 180.0000771 15.1670000 2
17681 17683 17685 17687 1 180.0000771 15.1670000 2
17684 17683 17685 17686 1 180.0000771 15.1670000 2
17684 17683 17685 17687 1 180.0000771 15.1670000 2
17681 17685 17683 17684 4 180.0000771 4.6024000 2
17678 17685 17687 17688 4 180.0000771 4.6024000 2
17683 17685 17687 17688 1 180.0000771 15.1670000 2
17686 17685 17687 17688 1 180.0000771 15.1670000 2
17678 17687 17685 17683 1 180.0000771 15.1670000 2
17678 17687 17685 17686 1 180.0000771 15.1670000 2
17683 17687 17685 17686 4 180.0000771 4.6024000 2
17691 17692 17693 17694 1 180.0000771 15.1670000 2
17691 17692 17693 17695 1 180.0000771 15.1670000 2
17694 17692 17693 17695 4 180.0000771 4.6024000 2
17691 17692 17701 17693 4 180.0000771 4.6024000 2
17691 17692 17701 17699 1 180.0000771 15.1670000 2
17691 17692 17701 17702 1 180.0000771 15.1670000 2
17693 17692 17701 17699 1 180.0000771 15.1670000 2
17693 17692 17701 17702 1 180.0000771 15.1670000 2
17694 17693 17692 17701 1 180.0000771 15.1670000 2
17695 17693 17692 17701 1 180.0000771 15.1670000 2
17692 17693 17695 17696 1 180.0000771 15.1670000 2
17692 17693 17695 17697 1 180.0000771 15.1670000 2
17694 17693 17695 17696 1 180.0000771 15.1670000 2
17694 17693 17695 17697 1 180.0000771 15.1670000 2
17693 17695 17697 17698 1 180.0000771 15.1670000 2
17693 17695 17697 17699 1 180.0000771 15.1670000 2
17696 17695 17697 17698 1 180.0000771 15.1670000 2
17696 17695 17697 17699 1 180.0000771 15.1670000 2
17693 17697 17695 17696 4 180.0000771 4.6024000 2
17695 17697 17699 17700 1 180.0000771 15.1670000 2
17695 17697 17699 17701 1 180.0000771 15.1670000 2
17698 17697 17699 17700 1 180.0000771 15.1670000 2
17698 17697 17699 17701 1 180.0000771 15.1670000 2
17695 17699 17697 17698 4 180.0000771 4.6024000 2
17692 17699 17701 17702 4 180.0000771 4.6024000 2
17697 17699 17701 17702 1 180.0000771 15.1670000 2
17700 17699 17701 17702 1 180.0000771 15.1670000 2
17692 17701 17699 17697 1 180.0000771 15.1670000 2
17692 17701 17699 17700 1 180.0000771 15.1670000 2
17697 17701 17699 17700 4 180.0000771 4.6024000 2
17705 17706 17707 17708 1 180.0000771 15.1670000 2
17705 17706 17707 17709 1 180.0000771 15.1670000 2
17708 17706 17707 17709 4 180.0000771 4.6024000 2
17705 17706 17715 17707 4 180.0000771 4.6024000 2
17705 17706 17715 17713 1 180.0000771 15.1670000 2
17705 17706 17715 17716 1 180.0000771 15.1670000 2
17707 17706 17715 17713 1 180.0000771 15.1670000 2
17707 17706 17715 17716 1 180.0000771 15.1670000 2
17708 17707 17706 17715 1 180.0000771 15.1670000 2
17709 17707 17706 17715 1 180.0000771 15.1670000 2
17706 17707 17709 17710 1 180.0000771 15.1670000 2
17706 17707 17709 17711 1 180.0000771 15.1670000 2
17708 17707 17709 17710 1 180.0000771 15.1670000 2
17708 17707 17709 17711 1 180.0000771 15.1670000 2
17707 17709 17711 17712 1 180.0000771 15.1670000 2
17707 17709 17711 17713 1 180.0000771 15.1670000 2
17710 17709 17711 17712 1 180.0000771 15.1670000 2
17710 17709 17711 17713 1 180.0000771 15.1670000 2
17707 17711 17709 17710 4 180.0000771 4.6024000 2
17709 17711 17713 17714 1 180.0000771 15.1670000 2
17709 17711 17713 17715 1 180.0000771 15.1670000 2
17712 17711 17713 17714 1 180.0000771 15.1670000 2
17712 17711 17713 17715 1 180.0000771 15.1670000 2
17709 17713 17711 17712 4 180.0000771 4.6024000 2
17706 17713 17715 17716 4 180.0000771 4.6024000 2
17711 17713 17715 17716 1 180.0000771 15.1670000 2
17714 17713 17715 17716 1 180.0000771 15.1670000 2
17706 17715 17713 17711 1 180.0000771 15.1670000 2
17706 17715 17713 17714 1 180.0000771 15.1670000 2
17711 17715 17713 17714 4 180.0000771 4.6024000 2
17719 17720 17721 17722 1 180.0000771 15.1670000 2
17719 17720 17721 17723 1 180.0000771 15.1670000 2
17722 17720 17721 17723 4 180.0000771 4.6024000 2
17719 17720 17729 17721 4 180.0000771 4.6024000 2
17719 17720 17729 17727 1 180.0000771 15.1670000 2
17719 17720 17729 17730 1 180.0000771 15.1670000 2
17721 17720 17729 17727 1 180.0000771 15.1670000 2
17721 17720 17729 17730 1 180.0000771 15.1670000 2
17722 17721 17720 17729 1 180.0000771 15.1670000 2
17723 17721 17720 17729 1 180.0000771 15.1670000 2
17720 17721 17723 17724 1 180.0000771 15.1670000 2
17720 17721 17723 17725 1 180.0000771 15.1670000 2
17722 17721 17723 17724 1 180.0000771 15.1670000 2
17722 17721 17723 17725 1 180.0000771 15.1670000 2
17721 17723 17725 17726 1 180.0000771 15.1670000 2
17721 17723 17725 17727 1 180.0000771 15.1670000 2
17724 17723 17725 17726 1 180.0000771 15.1670000 2
17724 17723 17725 17727 1 180.0000771 15.1670000 2
17721 17725 17723 17724 4 180.0000771 4.6024000 2
17723 17725 17727 17728 1 180.0000771 15.1670000 2
17723 17725 17727 17729 1 180.0000771 15.1670000 2
17726 17725 17727 17728 1 180.0000771 15.1670000 2
17726 17725 17727 17729 1 180.0000771 15.1670000 2
17723 17727 17725 17726 4 180.0000771 4.6024000 2
17720 17727 17729 17730 4 180.0000771 4.6024000 2
17725 17727 17729 17730 1 180.0000771 15.1670000 2
17728 17727 17729 17730 1 180.0000771 15.1670000 2
17720 17729 17727 17725 1 180.0000771 15.1670000 2
17720 17729 17727 17728 1 180.0000771 15.1670000 2
17725 17729 17727 17728 4 180.0000771 4.6024000 2
17733 17734 17735 17736 1 180.0000771 15.1670000 2
17733 17734 17735 17737 1 180.0000771 15.1670000 2
17736 17734 17735 17737 4 180.0000771 4.6024000 2
17733 17734 17743 17735 4 180.0000771 4.6024000 2
17733 17734 17743 17741 1 180.0000771 15.1670000 2
17733 17734 17743 17744 1 180.0000771 15.1670000 2
17735 17734 17743 17741 1 180.0000771 15.1670000 2
17735 17734 17743 17744 1 180.0000771 15.1670000 2
17736 17735 17734 17743 1 180.0000771 15.1670000 2
17737 17735 17734 17743 1 180.0000771 15.1670000 2
17734 17735 17737 17738 1 180.0000771 15.1670000 2
17734 17735 17737 17739 1 180.0000771 15.1670000 2
17736 17735 17737 17738 1 180.0000771 15.1670000 2
17736 17735 17737 17739 1 180.0000771 15.1670000 2
17735 17737 17739 17740 1 180.0000771 15.1670000 2
17735 17737 17739 17741 1 180.0000771 15.1670000 2
17738 17737 17739 17740 1 180.0000771 15.1670000 2
17738 17737 17739 17741 1 180.0000771 15.1670000 2
17735 17739 17737 17738 4 180.0000771 4.6024000 2
17737 17739 17741 17742 1 180.0000771 15.1670000 2
17737 17739 17741 17743 1 180.0000771 15.1670000 2
17740 17739 17741 17742 1 180.0000771 15.1670000 2
17740 17739 17741 17743 1 180.0000771 15.1670000 2
17737 17741 17739 17740 4 180.0000771 4.6024000 2
17734 17741 17743 17744 4 180.0000771 4.6024000 2
17739 17741 17743 17744 1 180.0000771 15.1670000 2
17742 17741 17743 17744 1 180.0000771 15.1670000 2
17734 17743 17741 17739 1 180.0000771 15.1670000 2
17734 17743 17741 17742 1 180.0000771 15.1670000 2
17739 17743 17741 17742 4 180.0000771 4.6024000 2
17747 17748 17749 17750 1 180.0000771 15.1670000 2
17747 17748 17749 17751 1 180.0000771 15.1670000 2
17750 17748 17749 17751 4 180.0000771 4.6024000 2
17747 17748 17757 17749 4 180.0000771 4.6024000 2
17747 17748 17757 17755 1 180.0000771 15.1670000 2
17747 17748 17757 17758 1 180.0000771 15.1670000 2
17749 17748 17757 17755 1 180.0000771 15.1670000 2
17749 17748 17757 17758 1 180.0000771 15.1670000 2
17750 17749 17748 17757 1 180.0000771 15.1670000 2
17751 17749 17748 17757 1 180.0000771 15.1670000 2
17748 17749 17751 17752 1 180.0000771 15.1670000 2
17748 17749 17751 17753 1 180.0000771 15.1670000 2
17750 17749 17751 17752 1 180.0000771 15.1670000 2
17750 17749 17751 17753 1 180.0000771 15.1670000 2
17749 17751 17753 17754 1 180.0000771 15.1670000 2
17749 17751 17753 17755 1 180.0000771 15.1670000 2
17752 17751 17753 17754 1 180.0000771 15.1670000 2
17752 17751 17753 17755 1 180.0000771 15.1670000 2
17749 17753 17751 17752 4 180.0000771 4.6024000 2
17751 17753 17755 17756 1 180.0000771 15.1670000 2
17751 17753 17755 17757 1 180.0000771 15.1670000 2
17754 17753 17755 17756 1 180.0000771 15.1670000 2
17754 17753 17755 17757 1 180.0000771 15.1670000 2
17751 17755 17753 17754 4 180.0000771 4.6024000 2
17748 17755 17757 17758 4 180.0000771 4.6024000 2
17753 17755 17757 17758 1 180.0000771 15.1670000 2
17756 17755 17757 17758 1 180.0000771 15.1670000 2
17748 17757 17755 17753 1 180.0000771 15.1670000 2
17748 17757 17755 17756 1 180.0000771 15.1670000 2
17753 17757 17755 17756 4 180.0000771 4.6024000 2
17761 17762 17763 17764 1 180.0000771 15.1670000 2
17761 17762 17763 17765 1 180.0000771 15.1670000 2
17764 17762 17763 17765 4 180.0000771 4.6024000 2
17761 17762 17771 17763 4 180.0000771 4.6024000 2
17761 17762 17771 17769 1 180.0000771 15.1670000 2
17761 17762 17771 17772 1 180.0000771 15.1670000 2
17763 17762 17771 17769 1 180.0000771 15.1670000 2
17763 17762 17771 17772 1 180.0000771 15.1670000 2
17764 17763 17762 17771 1 180.0000771 15.1670000 2
17765 17763 17762 17771 1 180.0000771 15.1670000 2
17762 17763 17765 17766 1 180.0000771 15.1670000 2
17762 17763 17765 17767 1 180.0000771 15.1670000 2
17764 17763 17765 17766 1 180.0000771 15.1670000 2
17764 17763 17765 17767 1 180.0000771 15.1670000 2
17763 17765 17767 17768 1 180.0000771 15.1670000 2
17763 17765 17767 17769 1 180.0000771 15.1670000 2
17766 17765 17767 17768 1 180.0000771 15.1670000 2
17766 17765 17767 17769 1 180.0000771 15.1670000 2
17763 17767 17765 17766 4 180.0000771 4.6024000 2
17765 17767 17769 17770 1 180.0000771 15.1670000 2
17765 17767 17769 17771 1 180.0000771 15.1670000 2
17768 17767 17769 17770 1 180.0000771 15.1670000 2
17768 17767 17769 17771 1 180.0000771 15.1670000 2
17765 17769 17767 17768 4 180.0000771 4.6024000 2
17762 17769 17771 17772 4 180.0000771 4.6024000 2
17767 17769 17771 17772 1 180.0000771 15.1670000 2
17770 17769 17771 17772 1 180.0000771 15.1670000 2
17762 17771 17769 17767 1 180.0000771 15.1670000 2
17762 17771 17769 17770 1 180.0000771 15.1670000 2
17767 17771 17769 17770 4 180.0000771 4.6024000 2
17775 17776 17777 17778 1 180.0000771 15.1670000 2
17775 17776 17777 17779 1 180.0000771 15.1670000 2
17778 17776 17777 17779 4 180.0000771 4.6024000 2
17775 17776 17785 17777 4 180.0000771 4.6024000 2
17775 17776 17785 17783 1 180.0000771 15.1670000 2
17775 17776 17785 17786 1 180.0000771 15.1670000 2
17777 17776 17785 17783 1 180.0000771 15.1670000 2
17777 17776 17785 17786 1 180.0000771 15.1670000 2
17778 17777 17776 17785 1 180.0000771 15.1670000 2
17779 17777 17776 17785 1 180.0000771 15.1670000 2
17776 17777 17779 17780 1 180.0000771 15.1670000 2
17776 17777 17779 17781 1 180.0000771 15.1670000 2
17778 17777 17779 17780 1 180.0000771 15.1670000 2
17778 17777 17779 17781 1 180.0000771 15.1670000 2
17777 17779 17781 17782 1 180.0000771 15.1670000 2
17777 17779 17781 17783 1 180.0000771 15.1670000 2
17780 17779 17781 17782 1 180.0000771 15.1670000 2
17780 17779 17781 17783 1 180.0000771 15.1670000 2
17777 17781 17779 17780 4 180.0000771 4.6024000 2
17779 17781 17783 17784 1 180.0000771 15.1670000 2
17779 17781 17783 17785 1 180.0000771 15.1670000 2
17782 17781 17783 17784 1 180.0000771 15.1670000 2
17782 17781 17783 17785 1 180.0000771 15.1670000 2
17779 17783 17781 17782 4 180.0000771 4.6024000 2
17776 17783 17785 17786 4 180.0000771 4.6024000 2
17781 17783 17785 17786 1 180.0000771 15.1670000 2
17784 17783 17785 17786 1 180.0000771 15.1670000 2
17776 17785 17783 17781 1 180.0000771 15.1670000 2
17776 17785 17783 17784 1 180.0000771 15.1670000 2
17781 17785 17783 17784 4 180.0000771 4.6024000 2
17789 17790 17791 17792 1 180.0000771 15.1670000 2
17789 17790 17791 17793 1 180.0000771 15.1670000 2
17792 17790 17791 17793 4 180.0000771 4.6024000 2
17789 17790 17799 17791 4 180.0000771 4.6024000 2
17789 17790 17799 17797 1 180.0000771 15.1670000 2
17789 17790 17799 17800 1 180.0000771 15.1670000 2
17791 17790 17799 17797 1 180.0000771 15.1670000 2
17791 17790 17799 17800 1 180.0000771 15.1670000 2
17792 17791 17790 17799 1 180.0000771 15.1670000 2
17793 17791 17790 17799 1 180.0000771 15.1670000 2
17790 17791 17793 17794 1 180.0000771 15.1670000 2
17790 17791 17793 17795 1 180.0000771 15.1670000 2
17792 17791 17793 17794 1 180.0000771 15.1670000 2
17792 17791 17793 17795 1 180.0000771 15.1670000 2
17791 17793 17795 17796 1 180.0000771 15.1670000 2
17791 17793 17795 17797 1 180.0000771 15.1670000 2
17794 17793 17795 17796 1 180.0000771 15.1670000 2
17794 17793 17795 17797 1 180.0000771 15.1670000 2
17791 17795 17793 17794 4 180.0000771 4.6024000 2
17793 17795 17797 17798 1 180.0000771 15.1670000 2
17793 17795 17797 17799 1 180.0000771 15.1670000 2
17796 17795 17797 17798 1 180.0000771 15.1670000 2
17796 17795 17797 17799 1 180.0000771 15.1670000 2
17793 17797 17795 17796 4 180.0000771 4.6024000 2
17790 17797 17799 17800 4 180.0000771 4.6024000 2
17795 17797 17799 17800 1 180.0000771 15.1670000 2
17798 17797 17799 17800 1 180.0000771 15.1670000 2
17790 17799 17797 17795 1 180.0000771 15.1670000 2
17790 17799 17797 17798 1 180.0000771 15.1670000 2
17795 17799 17797 17798 4 180.0000771 4.6024000 2
17803 17804 17805 17806 1 180.0000771 15.1670000 2
17803 17804 17805 17807 1 180.0000771 15.1670000 2
17806 17804 17805 17807 4 180.0000771 4.6024000 2
17803 17804 17813 17805 4 180.0000771 4.6024000 2
17803 17804 17813 17811 1 180.0000771 15.1670000 2
17803 17804 17813 17814 1 180.0000771 15.1670000 2
17805 17804 17813 17811 1 180.0000771 15.1670000 2
17805 17804 17813 17814 1 180.0000771 15.1670000 2
17806 17805 17804 17813 1 180.0000771 15.1670000 2
17807 17805 17804 17813 1 180.0000771 15.1670000 2
17804 17805 17807 17808 1 180.0000771 15.1670000 2
17804 17805 17807 17809 1 180.0000771 15.1670000 2
17806 17805 17807 17808 1 180.0000771 15.1670000 2
17806 17805 17807 17809 1 180.0000771 15.1670000 2
17805 17807 17809 17810 1 180.0000771 15.1670000 2
17805 17807 17809 17811 1 180.0000771 15.1670000 2
17808 17807 17809 17810 1 180.0000771 15.1670000 2
17808 17807 17809 17811 1 180.0000771 15.1670000 2
17805 17809 17807 17808 4 180.0000771 4.6024000 2
17807 17809 17811 17812 1 180.0000771 15.1670000 2
17807 17809 17811 17813 1 180.0000771 15.1670000 2
17810 17809 17811 17812 1 180.0000771 15.1670000 2
17810 17809 17811 17813 1 180.0000771 15.1670000 2
17807 17811 17809 17810 4 180.0000771 4.6024000 2
17804 17811 17813 17814 4 180.0000771 4.6024000 2
17809 17811 17813 17814 1 180.0000771 15.1670000 2
17812 17811 17813 17814 1 180.0000771 15.1670000 2
17804 17813 17811 17809 1 180.0000771 15.1670000 2
17804 17813 17811 17812 1 180.0000771 15.1670000 2
17809 17813 17811 17812 4 180.0000771 4.6024000 2
17817 17818 17819 17820 1 180.0000771 15.1670000 2
17817 17818 17819 17821 1 180.0000771 15.1670000 2
17820 17818 17819 17821 4 180.0000771 4.6024000 2
17817 17818 17827 17819 4 180.0000771 4.6024000 2
17817 17818 17827 17825 1 180.0000771 15.1670000 2
17817 17818 17827 17828 1 180.0000771 15.1670000 2
17819 17818 17827 17825 1 180.0000771 15.1670000 2
17819 17818 17827 17828 1 180.0000771 15.1670000 2
17820 17819 17818 17827 1 180.0000771 15.1670000 2
17821 17819 17818 17827 1 180.0000771 15.1670000 2
17818 17819 17821 17822 1 180.0000771 15.1670000 2
17818 17819 17821 17823 1 180.0000771 15.1670000 2
17820 17819 17821 17822 1 180.0000771 15.1670000 2
17820 17819 17821 17823 1 180.0000771 15.1670000 2
17819 17821 17823 17824 1 180.0000771 15.1670000 2
17819 17821 17823 17825 1 180.0000771 15.1670000 2
17822 17821 17823 17824 1 180.0000771 15.1670000 2
17822 17821 17823 17825 1 180.0000771 15.1670000 2
17819 17823 17821 17822 4 180.0000771 4.6024000 2
17821 17823 17825 17826 1 180.0000771 15.1670000 2
17821 17823 17825 17827 1 180.0000771 15.1670000 2
17824 17823 17825 17826 1 180.0000771 15.1670000 2
17824 17823 17825 17827 1 180.0000771 15.1670000 2
17821 17825 17823 17824 4 180.0000771 4.6024000 2
17818 17825 17827 17828 4 180.0000771 4.6024000 2
17823 17825 17827 17828 1 180.0000771 15.1670000 2
17826 17825 17827 17828 1 180.0000771 15.1670000 2
17818 17827 17825 17823 1 180.0000771 15.1670000 2
17818 17827 17825 17826 1 180.0000771 15.1670000 2
17823 17827 17825 17826 4 180.0000771 4.6024000 2
17831 17832 17833 17834 1 180.0000771 15.1670000 2
17831 17832 17833 17835 1 180.0000771 15.1670000 2
17834 17832 17833 17835 4 180.0000771 4.6024000 2
17831 17832 17841 17833 4 180.0000771 4.6024000 2
17831 17832 17841 17839 1 180.0000771 15.1670000 2
17831 17832 17841 17842 1 180.0000771 15.1670000 2
17833 17832 17841 17839 1 180.0000771 15.1670000 2
17833 17832 17841 17842 1 180.0000771 15.1670000 2
17834 17833 17832 17841 1 180.0000771 15.1670000 2
17835 17833 17832 17841 1 180.0000771 15.1670000 2
17832 17833 17835 17836 1 180.0000771 15.1670000 2
17832 17833 17835 17837 1 180.0000771 15.1670000 2
17834 17833 17835 17836 1 180.0000771 15.1670000 2
17834 17833 17835 17837 1 180.0000771 15.1670000 2
17833 17835 17837 17838 1 180.0000771 15.1670000 2
17833 17835 17837 17839 1 180.0000771 15.1670000 2
17836 17835 17837 17838 1 180.0000771 15.1670000 2
17836 17835 17837 17839 1 180.0000771 15.1670000 2
17833 17837 17835 17836 4 180.0000771 4.6024000 2
17835 17837 17839 17840 1 180.0000771 15.1670000 2
17835 17837 17839 17841 1 180.0000771 15.1670000 2
17838 17837 17839 17840 1 180.0000771 15.1670000 2
17838 17837 17839 17841 1 180.0000771 15.1670000 2
17835 17839 17837 17838 4 180.0000771 4.6024000 2
17832 17839 17841 17842 4 180.0000771 4.6024000 2
17837 17839 17841 17842 1 180.0000771 15.1670000 2
17840 17839 17841 17842 1 180.0000771 15.1670000 2
17832 17841 17839 17837 1 180.0000771 15.1670000 2
17832 17841 17839 17840 1 180.0000771 15.1670000 2
17837 17841 17839 17840 4 180.0000771 4.6024000 2
17845 17846 17847 17848 1 180.0000771 15.1670000 2
17845 17846 17847 17849 1 180.0000771 15.1670000 2
17848 17846 17847 17849 4 180.0000771 4.6024000 2
17845 17846 17855 17847 4 180.0000771 4.6024000 2
17845 17846 17855 17853 1 180.0000771 15.1670000 2
17845 17846 17855 17856 1 180.0000771 15.1670000 2
17847 17846 17855 17853 1 180.0000771 15.1670000 2
17847 17846 17855 17856 1 180.0000771 15.1670000 2
17848 17847 17846 17855 1 180.0000771 15.1670000 2
17849 17847 17846 17855 1 180.0000771 15.1670000 2
17846 17847 17849 17850 1 180.0000771 15.1670000 2
17846 17847 17849 17851 1 180.0000771 15.1670000 2
17848 17847 17849 17850 1 180.0000771 15.1670000 2
17848 17847 17849 17851 1 180.0000771 15.1670000 2
17847 17849 17851 17852 1 180.0000771 15.1670000 2
17847 17849 17851 17853 1 180.0000771 15.1670000 2
17850 17849 17851 17852 1 180.0000771 15.1670000 2
17850 17849 17851 17853 1 180.0000771 15.1670000 2
17847 17851 17849 17850 4 180.0000771 4.6024000 2
17849 17851 17853 17854 1 180.0000771 15.1670000 2
17849 17851 17853 17855 1 180.0000771 15.1670000 2
17852 17851 17853 17854 1 180.0000771 15.1670000 2
17852 17851 17853 17855 1 180.0000771 15.1670000 2
17849 17853 17851 17852 4 180.0000771 4.6024000 2
17846 17853 17855 17856 4 180.0000771 4.6024000 2
17851 17853 17855 17856 1 180.0000771 15.1670000 2
17854 17853 17855 17856 1 180.0000771 15.1670000 2
17846 17855 17853 17851 1 180.0000771 15.1670000 2
17846 17855 17853 17854 1 180.0000771 15.1670000 2
17851 17855 17853 17854 4 180.0000771 4.6024000 2
17859 17860 17861 17862 1 180.0000771 15.1670000 2
17859 17860 17861 17863 1 180.0000771 15.1670000 2
17862 17860 17861 17863 4 180.0000771 4.6024000 2
17859 17860 17869 17861 4 180.0000771 4.6024000 2
17859 17860 17869 17867 1 180.0000771 15.1670000 2
17859 17860 17869 17870 1 180.0000771 15.1670000 2
17861 17860 17869 17867 1 180.0000771 15.1670000 2
17861 17860 17869 17870 1 180.0000771 15.1670000 2
17862 17861 17860 17869 1 180.0000771 15.1670000 2
17863 17861 17860 17869 1 180.0000771 15.1670000 2
17860 17861 17863 17864 1 180.0000771 15.1670000 2
17860 17861 17863 17865 1 180.0000771 15.1670000 2
17862 17861 17863 17864 1 180.0000771 15.1670000 2
17862 17861 17863 17865 1 180.0000771 15.1670000 2
17861 17863 17865 17866 1 180.0000771 15.1670000 2
17861 17863 17865 17867 1 180.0000771 15.1670000 2
17864 17863 17865 17866 1 180.0000771 15.1670000 2
17864 17863 17865 17867 1 180.0000771 15.1670000 2
17861 17865 17863 17864 4 180.0000771 4.6024000 2
17863 17865 17867 17868 1 180.0000771 15.1670000 2
17863 17865 17867 17869 1 180.0000771 15.1670000 2
17866 17865 17867 17868 1 180.0000771 15.1670000 2
17866 17865 17867 17869 1 180.0000771 15.1670000 2
17863 17867 17865 17866 4 180.0000771 4.6024000 2
17860 17867 17869 17870 4 180.0000771 4.6024000 2
17865 17867 17869 17870 1 180.0000771 15.1670000 2
17868 17867 17869 17870 1 180.0000771 15.1670000 2
17860 17869 17867 17865 1 180.0000771 15.1670000 2
17860 17869 17867 17868 1 180.0000771 15.1670000 2
17865 17869 17867 17868 4 180.0000771 4.6024000 2
17873 17874 17875 17876 1 180.0000771 15.1670000 2
17873 17874 17875 17877 1 180.0000771 15.1670000 2
17876 17874 17875 17877 4 180.0000771 4.6024000 2
17873 17874 17883 17875 4 180.0000771 4.6024000 2
17873 17874 17883 17881 1 180.0000771 15.1670000 2
17873 17874 17883 17884 1 180.0000771 15.1670000 2
17875 17874 17883 17881 1 180.0000771 15.1670000 2
17875 17874 17883 17884 1 180.0000771 15.1670000 2
17876 17875 17874 17883 1 180.0000771 15.1670000 2
17877 17875 17874 17883 1 180.0000771 15.1670000 2
17874 17875 17877 17878 1 180.0000771 15.1670000 2
17874 17875 17877 17879 1 180.0000771 15.1670000 2
17876 17875 17877 17878 1 180.0000771 15.1670000 2
17876 17875 17877 17879 1 180.0000771 15.1670000 2
17875 17877 17879 17880 1 180.0000771 15.1670000 2
17875 17877 17879 17881 1 180.0000771 15.1670000 2
17878 17877 17879 17880 1 180.0000771 15.1670000 2
17878 17877 17879 17881 1 180.0000771 15.1670000 2
17875 17879 17877 17878 4 180.0000771 4.6024000 2
17877 17879 17881 17882 1 180.0000771 15.1670000 2
17877 17879 17881 17883 1 180.0000771 15.1670000 2
17880 17879 17881 17882 1 180.0000771 15.1670000 2
17880 17879 17881 17883 1 180.0000771 15.1670000 2
17877 17881 17879 17880 4 180.0000771 4.6024000 2
17874 17881 17883 17884 4 180.0000771 4.6024000 2
17879 17881 17883 17884 1 180.0000771 15.1670000 2
17882 17881 17883 17884 1 180.0000771 15.1670000 2
17874 17883 17881 17879 1 180.0000771 15.1670000 2
17874 17883 17881 17882 1 180.0000771 15.1670000 2
17879 17883 17881 17882 4 180.0000771 4.6024000 2
17887 17888 17889 17890 1 180.0000771 15.1670000 2
17887 17888 17889 17891 1 180.0000771 15.1670000 2
17890 17888 17889 17891 4 180.0000771 4.6024000 2
17887 17888 17897 17889 4 180.0000771 4.6024000 2
17887 17888 17897 17895 1 180.0000771 15.1670000 2
17887 17888 17897 17898 1 180.0000771 15.1670000 2
17889 17888 17897 17895 1 180.0000771 15.1670000 2
17889 17888 17897 17898 1 180.0000771 15.1670000 2
17890 17889 17888 17897 1 180.0000771 15.1670000 2
17891 17889 17888 17897 1 180.0000771 15.1670000 2
17888 17889 17891 17892 1 180.0000771 15.1670000 2
17888 17889 17891 17893 1 180.0000771 15.1670000 2
17890 17889 17891 17892 1 180.0000771 15.1670000 2
17890 17889 17891 17893 1 180.0000771 15.1670000 2
17889 17891 17893 17894 1 180.0000771 15.1670000 2
17889 17891 17893 17895 1 180.0000771 15.1670000 2
17892 17891 17893 17894 1 180.0000771 15.1670000 2
17892 17891 17893 17895 1 180.0000771 15.1670000 2
17889 17893 17891 17892 4 180.0000771 4.6024000 2
17891 17893 17895 17896 1 180.0000771 15.1670000 2
17891 17893 17895 17897 1 180.0000771 15.1670000 2
17894 17893 17895 17896 1 180.0000771 15.1670000 2
17894 17893 17895 17897 1 180.0000771 15.1670000 2
17891 17895 17893 17894 4 180.0000771 4.6024000 2
17888 17895 17897 17898 4 180.0000771 4.6024000 2
17893 17895 17897 17898 1 180.0000771 15.1670000 2
17896 17895 17897 17898 1 180.0000771 15.1670000 2
17888 17897 17895 17893 1 180.0000771 15.1670000 2
17888 17897 17895 17896 1 180.0000771 15.1670000 2
17893 17897 17895 17896 4 180.0000771 4.6024000 2
17901 17902 17903 17904 1 180.0000771 15.1670000 2
17901 17902 17903 17905 1 180.0000771 15.1670000 2
17904 17902 17903 17905 4 180.0000771 4.6024000 2
17901 17902 17911 17903 4 180.0000771 4.6024000 2
17901 17902 17911 17909 1 180.0000771 15.1670000 2
17901 17902 17911 17912 1 180.0000771 15.1670000 2
17903 17902 17911 17909 1 180.0000771 15.1670000 2
17903 17902 17911 17912 1 180.0000771 15.1670000 2
17904 17903 17902 17911 1 180.0000771 15.1670000 2
17905 17903 17902 17911 1 180.0000771 15.1670000 2
17902 17903 17905 17906 1 180.0000771 15.1670000 2
17902 17903 17905 17907 1 180.0000771 15.1670000 2
17904 17903 17905 17906 1 180.0000771 15.1670000 2
17904 17903 17905 17907 1 180.0000771 15.1670000 2
17903 17905 17907 17908 1 180.0000771 15.1670000 2
17903 17905 17907 17909 1 180.0000771 15.1670000 2
17906 17905 17907 17908 1 180.0000771 15.1670000 2
17906 17905 17907 17909 1 180.0000771 15.1670000 2
17903 17907 17905 17906 4 180.0000771 4.6024000 2
17905 17907 17909 17910 1 180.0000771 15.1670000 2
17905 17907 17909 17911 1 180.0000771 15.1670000 2
17908 17907 17909 17910 1 180.0000771 15.1670000 2
17908 17907 17909 17911 1 180.0000771 15.1670000 2
17905 17909 17907 17908 4 180.0000771 4.6024000 2
17902 17909 17911 17912 4 180.0000771 4.6024000 2
17907 17909 17911 17912 1 180.0000771 15.1670000 2
17910 17909 17911 17912 1 180.0000771 15.1670000 2
17902 17911 17909 17907 1 180.0000771 15.1670000 2
17902 17911 17909 17910 1 180.0000771 15.1670000 2
17907 17911 17909 17910 4 180.0000771 4.6024000 2
17915 17916 17917 17918 1 180.0000771 15.1670000 2
17915 17916 17917 17919 1 180.0000771 15.1670000 2
17918 17916 17917 17919 4 180.0000771 4.6024000 2
17915 17916 17925 17917 4 180.0000771 4.6024000 2
17915 17916 17925 17923 1 180.0000771 15.1670000 2
17915 17916 17925 17926 1 180.0000771 15.1670000 2
17917 17916 17925 17923 1 180.0000771 15.1670000 2
17917 17916 17925 17926 1 180.0000771 15.1670000 2
17918 17917 17916 17925 1 180.0000771 15.1670000 2
17919 17917 17916 17925 1 180.0000771 15.1670000 2
17916 17917 17919 17920 1 180.0000771 15.1670000 2
17916 17917 17919 17921 1 180.0000771 15.1670000 2
17918 17917 17919 17920 1 180.0000771 15.1670000 2
17918 17917 17919 17921 1 180.0000771 15.1670000 2
17917 17919 17921 17922 1 180.0000771 15.1670000 2
17917 17919 17921 17923 1 180.0000771 15.1670000 2
17920 17919 17921 17922 1 180.0000771 15.1670000 2
17920 17919 17921 17923 1 180.0000771 15.1670000 2
17917 17921 17919 17920 4 180.0000771 4.6024000 2
17919 17921 17923 17924 1 180.0000771 15.1670000 2
17919 17921 17923 17925 1 180.0000771 15.1670000 2
17922 17921 17923 17924 1 180.0000771 15.1670000 2
17922 17921 17923 17925 1 180.0000771 15.1670000 2
17919 17923 17921 17922 4 180.0000771 4.6024000 2
17916 17923 17925 17926 4 180.0000771 4.6024000 2
17921 17923 17925 17926 1 180.0000771 15.1670000 2
17924 17923 17925 17926 1 180.0000771 15.1670000 2
17916 17925 17923 17921 1 180.0000771 15.1670000 2
17916 17925 17923 17924 1 180.0000771 15.1670000 2
17921 17925 17923 17924 4 180.0000771 4.6024000 2
17929 17930 17931 17932 1 180.0000771 15.1670000 2
17929 17930 17931 17933 1 180.0000771 15.1670000 2
17932 17930 17931 17933 4 180.0000771 4.6024000 2
17929 17930 17939 17931 4 180.0000771 4.6024000 2
17929 17930 17939 17937 1 180.0000771 15.1670000 2
17929 17930 17939 17940 1 180.0000771 15.1670000 2
17931 17930 17939 17937 1 180.0000771 15.1670000 2
17931 17930 17939 17940 1 180.0000771 15.1670000 2
17932 17931 17930 17939 1 180.0000771 15.1670000 2
17933 17931 17930 17939 1 180.0000771 15.1670000 2
17930 17931 17933 17934 1 180.0000771 15.1670000 2
17930 17931 17933 17935 1 180.0000771 15.1670000 2
17932 17931 17933 17934 1 180.0000771 15.1670000 2
17932 17931 17933 17935 1 180.0000771 15.1670000 2
17931 17933 17935 17936 1 180.0000771 15.1670000 2
17931 17933 17935 17937 1 180.0000771 15.1670000 2
17934 17933 17935 17936 1 180.0000771 15.1670000 2
17934 17933 17935 17937 1 180.0000771 15.1670000 2
17931 17935 17933 17934 4 180.0000771 4.6024000 2
17933 17935 17937 17938 1 180.0000771 15.1670000 2
17933 17935 17937 17939 1 180.0000771 15.1670000 2
17936 17935 17937 17938 1 180.0000771 15.1670000 2
17936 17935 17937 17939 1 180.0000771 15.1670000 2
17933 17937 17935 17936 4 180.0000771 4.6024000 2
17930 17937 17939 17940 4 180.0000771 4.6024000 2
17935 17937 17939 17940 1 180.0000771 15.1670000 2
17938 17937 17939 17940 1 180.0000771 15.1670000 2
17930 17939 17937 17935 1 180.0000771 15.1670000 2
17930 17939 17937 17938 1 180.0000771 15.1670000 2
17935 17939 17937 17938 4 180.0000771 4.6024000 2
17943 17944 17945 17946 1 180.0000771 15.1670000 2
17943 17944 17945 17947 1 180.0000771 15.1670000 2
17946 17944 17945 17947 4 180.0000771 4.6024000 2
17943 17944 17953 17945 4 180.0000771 4.6024000 2
17943 17944 17953 17951 1 180.0000771 15.1670000 2
17943 17944 17953 17954 1 180.0000771 15.1670000 2
17945 17944 17953 17951 1 180.0000771 15.1670000 2
17945 17944 17953 17954 1 180.0000771 15.1670000 2
17946 17945 17944 17953 1 180.0000771 15.1670000 2
17947 17945 17944 17953 1 180.0000771 15.1670000 2
17944 17945 17947 17948 1 180.0000771 15.1670000 2
17944 17945 17947 17949 1 180.0000771 15.1670000 2
17946 17945 17947 17948 1 180.0000771 15.1670000 2
17946 17945 17947 17949 1 180.0000771 15.1670000 2
17945 17947 17949 17950 1 180.0000771 15.1670000 2
17945 17947 17949 17951 1 180.0000771 15.1670000 2
17948 17947 17949 17950 1 180.0000771 15.1670000 2
17948 17947 17949 17951 1 180.0000771 15.1670000 2
17945 17949 17947 17948 4 180.0000771 4.6024000 2
17947 17949 17951 17952 1 180.0000771 15.1670000 2
17947 17949 17951 17953 1 180.0000771 15.1670000 2
17950 17949 17951 17952 1 180.0000771 15.1670000 2
17950 17949 17951 17953 1 180.0000771 15.1670000 2
17947 17951 17949 17950 4 180.0000771 4.6024000 2
17944 17951 17953 17954 4 180.0000771 4.6024000 2
17949 17951 17953 17954 1 180.0000771 15.1670000 2
17952 17951 17953 17954 1 180.0000771 15.1670000 2
17944 17953 17951 17949 1 180.0000771 15.1670000 2
17944 17953 17951 17952 1 180.0000771 15.1670000 2
17949 17953 17951 17952 4 180.0000771 4.6024000 2
17957 17958 17959 17960 1 180.0000771 15.1670000 2
17957 17958 17959 17961 1 180.0000771 15.1670000 2
17960 17958 17959 17961 4 180.0000771 4.6024000 2
17957 17958 17967 17959 4 180.0000771 4.6024000 2
17957 17958 17967 17965 1 180.0000771 15.1670000 2
17957 17958 17967 17968 1 180.0000771 15.1670000 2
17959 17958 17967 17965 1 180.0000771 15.1670000 2
17959 17958 17967 17968 1 180.0000771 15.1670000 2
17960 17959 17958 17967 1 180.0000771 15.1670000 2
17961 17959 17958 17967 1 180.0000771 15.1670000 2
17958 17959 17961 17962 1 180.0000771 15.1670000 2
17958 17959 17961 17963 1 180.0000771 15.1670000 2
17960 17959 17961 17962 1 180.0000771 15.1670000 2
17960 17959 17961 17963 1 180.0000771 15.1670000 2
17959 17961 17963 17964 1 180.0000771 15.1670000 2
17959 17961 17963 17965 1 180.0000771 15.1670000 2
17962 17961 17963 17964 1 180.0000771 15.1670000 2
17962 17961 17963 17965 1 180.0000771 15.1670000 2
17959 17963 17961 17962 4 180.0000771 4.6024000 2
17961 17963 17965 17966 1 180.0000771 15.1670000 2
17961 17963 17965 17967 1 180.0000771 15.1670000 2
17964 17963 17965 17966 1 180.0000771 15.1670000 2
17964 17963 17965 17967 1 180.0000771 15.1670000 2
17961 17965 17963 17964 4 180.0000771 4.6024000 2
17958 17965 17967 17968 4 180.0000771 4.6024000 2
17963 17965 17967 17968 1 180.0000771 15.1670000 2
17966 17965 17967 17968 1 180.0000771 15.1670000 2
17958 17967 17965 17963 1 180.0000771 15.1670000 2
17958 17967 17965 17966 1 180.0000771 15.1670000 2
17963 17967 17965 17966 4 180.0000771 4.6024000 2
17971 17972 17973 17974 1 180.0000771 15.1670000 2
17971 17972 17973 17975 1 180.0000771 15.1670000 2
17974 17972 17973 17975 4 180.0000771 4.6024000 2
17971 17972 17981 17973 4 180.0000771 4.6024000 2
17971 17972 17981 17979 1 180.0000771 15.1670000 2
17971 17972 17981 17982 1 180.0000771 15.1670000 2
17973 17972 17981 17979 1 180.0000771 15.1670000 2
17973 17972 17981 17982 1 180.0000771 15.1670000 2
17974 17973 17972 17981 1 180.0000771 15.1670000 2
17975 17973 17972 17981 1 180.0000771 15.1670000 2
17972 17973 17975 17976 1 180.0000771 15.1670000 2
17972 17973 17975 17977 1 180.0000771 15.1670000 2
17974 17973 17975 17976 1 180.0000771 15.1670000 2
17974 17973 17975 17977 1 180.0000771 15.1670000 2
17973 17975 17977 17978 1 180.0000771 15.1670000 2
17973 17975 17977 17979 1 180.0000771 15.1670000 2
17976 17975 17977 17978 1 180.0000771 15.1670000 2
17976 17975 17977 17979 1 180.0000771 15.1670000 2
17973 17977 17975 17976 4 180.0000771 4.6024000 2
17975 17977 17979 17980 1 180.0000771 15.1670000 2
17975 17977 17979 17981 1 180.0000771 15.1670000 2
17978 17977 17979 17980 1 180.0000771 15.1670000 2
17978 17977 17979 17981 1 180.0000771 15.1670000 2
17975 17979 17977 17978 4 180.0000771 4.6024000 2
17972 17979 17981 17982 4 180.0000771 4.6024000 2
17977 17979 17981 17982 1 180.0000771 15.1670000 2
17980 17979 17981 17982 1 180.0000771 15.1670000 2
17972 17981 17979 17977 1 180.0000771 15.1670000 2
17972 17981 17979 17980 1 180.0000771 15.1670000 2
17977 17981 17979 17980 4 180.0000771 4.6024000 2
17985 17986 17987 17988 1 180.0000771 15.1670000 2
17985 17986 17987 17989 1 180.0000771 15.1670000 2
17988 17986 17987 17989 4 180.0000771 4.6024000 2
17985 17986 17995 17987 4 180.0000771 4.6024000 2
17985 17986 17995 17993 1 180.0000771 15.1670000 2
17985 17986 17995 17996 1 180.0000771 15.1670000 2
17987 17986 17995 17993 1 180.0000771 15.1670000 2
17987 17986 17995 17996 1 180.0000771 15.1670000 2
17988 17987 17986 17995 1 180.0000771 15.1670000 2
17989 17987 17986 17995 1 180.0000771 15.1670000 2
17986 17987 17989 17990 1 180.0000771 15.1670000 2
17986 17987 17989 17991 1 180.0000771 15.1670000 2
17988 17987 17989 17990 1 180.0000771 15.1670000 2
17988 17987 17989 17991 1 180.0000771 15.1670000 2
17987 17989 17991 17992 1 180.0000771 15.1670000 2
17987 17989 17991 17993 1 180.0000771 15.1670000 2
17990 17989 17991 17992 1 180.0000771 15.1670000 2
17990 17989 17991 17993 1 180.0000771 15.1670000 2
17987 17991 17989 17990 4 180.0000771 4.6024000 2
17989 17991 17993 17994 1 180.0000771 15.1670000 2
17989 17991 17993 17995 1 180.0000771 15.1670000 2
17992 17991 17993 17994 1 180.0000771 15.1670000 2
17992 17991 17993 17995 1 180.0000771 15.1670000 2
17989 17993 17991 17992 4 180.0000771 4.6024000 2
17986 17993 17995 17996 4 180.0000771 4.6024000 2
17991 17993 17995 17996 1 180.0000771 15.1670000 2
17994 17993 17995 17996 1 180.0000771 15.1670000 2
17986 17995 17993 17991 1 180.0000771 15.1670000 2
17986 17995 17993 17994 1 180.0000771 15.1670000 2
17991 17995 17993 17994 4 180.0000771 4.6024000 2
17999 18000 18001 18002 1 180.0000771 15.1670000 2
17999 18000 18001 18003 1 180.0000771 15.1670000 2
18002 18000 18001 18003 4 180.0000771 4.6024000 2
17999 18000 18009 18001 4 180.0000771 4.6024000 2
17999 18000 18009 18007 1 180.0000771 15.1670000 2
17999 18000 18009 18010 1 180.0000771 15.1670000 2
18001 18000 18009 18007 1 180.0000771 15.1670000 2
18001 18000 18009 18010 1 180.0000771 15.1670000 2
18002 18001 18000 18009 1 180.0000771 15.1670000 2
18003 18001 18000 18009 1 180.0000771 15.1670000 2
18000 18001 18003 18004 1 180.0000771 15.1670000 2
18000 18001 18003 18005 1 180.0000771 15.1670000 2
18002 18001 18003 18004 1 180.0000771 15.1670000 2
18002 18001 18003 18005 1 180.0000771 15.1670000 2
18001 18003 18005 18006 1 180.0000771 15.1670000 2
18001 18003 18005 18007 1 180.0000771 15.1670000 2
18004 18003 18005 18006 1 180.0000771 15.1670000 2
18004 18003 18005 18007 1 180.0000771 15.1670000 2
18001 18005 18003 18004 4 180.0000771 4.6024000 2
18003 18005 18007 18008 1 180.0000771 15.1670000 2
18003 18005 18007 18009 1 180.0000771 15.1670000 2
18006 18005 18007 18008 1 180.0000771 15.1670000 2
18006 18005 18007 18009 1 180.0000771 15.1670000 2
18003 18007 18005 18006 4 180.0000771 4.6024000 2
18000 18007 18009 18010 4 180.0000771 4.6024000 2
18005 18007 18009 18010 1 180.0000771 15.1670000 2
18008 18007 18009 18010 1 180.0000771 15.1670000 2
18000 18009 18007 18005 1 180.0000771 15.1670000 2
18000 18009 18007 18008 1 180.0000771 15.1670000 2
18005 18009 18007 18008 4 180.0000771 4.6024000 2
18013 18014 18015 18016 1 180.0000771 15.1670000 2
18013 18014 18015 18017 1 180.0000771 15.1670000 2
18016 18014 18015 18017 4 180.0000771 4.6024000 2
18013 18014 18023 18015 4 180.0000771 4.6024000 2
18013 18014 18023 18021 1 180.0000771 15.1670000 2
18013 18014 18023 18024 1 180.0000771 15.1670000 2
18015 18014 18023 18021 1 180.0000771 15.1670000 2
18015 18014 18023 18024 1 180.0000771 15.1670000 2
18016 18015 18014 18023 1 180.0000771 15.1670000 2
18017 18015 18014 18023 1 180.0000771 15.1670000 2
18014 18015 18017 18018 1 180.0000771 15.1670000 2
18014 18015 18017 18019 1 180.0000771 15.1670000 2
18016 18015 18017 18018 1 180.0000771 15.1670000 2
18016 18015 18017 18019 1 180.0000771 15.1670000 2
18015 18017 18019 18020 1 180.0000771 15.1670000 2
18015 18017 18019 18021 1 180.0000771 15.1670000 2
18018 18017 18019 18020 1 180.0000771 15.1670000 2
18018 18017 18019 18021 1 180.0000771 15.1670000 2
18015 18019 18017 18018 4 180.0000771 4.6024000 2
18017 18019 18021 18022 1 180.0000771 15.1670000 2
18017 18019 18021 18023 1 180.0000771 15.1670000 2
18020 18019 18021 18022 1 180.0000771 15.1670000 2
18020 18019 18021 18023 1 180.0000771 15.1670000 2
18017 18021 18019 18020 4 180.0000771 4.6024000 2
18014 18021 18023 18024 4 180.0000771 4.6024000 2
18019 18021 18023 18024 1 180.0000771 15.1670000 2
18022 18021 18023 18024 1 180.0000771 15.1670000 2
18014 18023 18021 18019 1 180.0000771 15.1670000 2
18014 18023 18021 18022 1 180.0000771 15.1670000 2
18019 18023 18021 18022 4 180.0000771 4.6024000 2
18027 18028 18029 18030 1 180.0000771 15.1670000 2
18027 18028 18029 18031 1 180.0000771 15.1670000 2
18030 18028 18029 18031 4 180.0000771 4.6024000 2
18027 18028 18037 18029 4 180.0000771 4.6024000 2
18027 18028 18037 18035 1 180.0000771 15.1670000 2
18027 18028 18037 18038 1 180.0000771 15.1670000 2
18029 18028 18037 18035 1 180.0000771 15.1670000 2
18029 18028 18037 18038 1 180.0000771 15.1670000 2
18030 18029 18028 18037 1 180.0000771 15.1670000 2
18031 18029 18028 18037 1 180.0000771 15.1670000 2
18028 18029 18031 18032 1 180.0000771 15.1670000 2
18028 18029 18031 18033 1 180.0000771 15.1670000 2
18030 18029 18031 18032 1 180.0000771 15.1670000 2
18030 18029 18031 18033 1 180.0000771 15.1670000 2
18029 18031 18033 18034 1 180.0000771 15.1670000 2
18029 18031 18033 18035 1 180.0000771 15.1670000 2
18032 18031 18033 18034 1 180.0000771 15.1670000 2
18032 18031 18033 18035 1 180.0000771 15.1670000 2
18029 18033 18031 18032 4 180.0000771 4.6024000 2
18031 18033 18035 18036 1 180.0000771 15.1670000 2
18031 18033 18035 18037 1 180.0000771 15.1670000 2
18034 18033 18035 18036 1 180.0000771 15.1670000 2
18034 18033 18035 18037 1 180.0000771 15.1670000 2
18031 18035 18033 18034 4 180.0000771 4.6024000 2
18028 18035 18037 18038 4 180.0000771 4.6024000 2
18033 18035 18037 18038 1 180.0000771 15.1670000 2
18036 18035 18037 18038 1 180.0000771 15.1670000 2
18028 18037 18035 18033 1 180.0000771 15.1670000 2
18028 18037 18035 18036 1 180.0000771 15.1670000 2
18033 18037 18035 18036 4 180.0000771 4.6024000 2
18041 18042 18043 18044 1 180.0000771 15.1670000 2
18041 18042 18043 18045 1 180.0000771 15.1670000 2
18044 18042 18043 18045 4 180.0000771 4.6024000 2
18041 18042 18051 18043 4 180.0000771 4.6024000 2
18041 18042 18051 18049 1 180.0000771 15.1670000 2
18041 18042 18051 18052 1 180.0000771 15.1670000 2
18043 18042 18051 18049 1 180.0000771 15.1670000 2
18043 18042 18051 18052 1 180.0000771 15.1670000 2
18044 18043 18042 18051 1 180.0000771 15.1670000 2
18045 18043 18042 18051 1 180.0000771 15.1670000 2
18042 18043 18045 18046 1 180.0000771 15.1670000 2
18042 18043 18045 18047 1 180.0000771 15.1670000 2
18044 18043 18045 18046 1 180.0000771 15.1670000 2
18044 18043 18045 18047 1 180.0000771 15.1670000 2
18043 18045 18047 18048 1 180.0000771 15.1670000 2
18043 18045 18047 18049 1 180.0000771 15.1670000 2
18046 18045 18047 18048 1 180.0000771 15.1670000 2
18046 18045 18047 18049 1 180.0000771 15.1670000 2
18043 18047 18045 18046 4 180.0000771 4.6024000 2
18045 18047 18049 18050 1 180.0000771 15.1670000 2
18045 18047 18049 18051 1 180.0000771 15.1670000 2
18048 18047 18049 18050 1 180.0000771 15.1670000 2
18048 18047 18049 18051 1 180.0000771 15.1670000 2
18045 18049 18047 18048 4 180.0000771 4.6024000 2
18042 18049 18051 18052 4 180.0000771 4.6024000 2
18047 18049 18051 18052 1 180.0000771 15.1670000 2
18050 18049 18051 18052 1 180.0000771 15.1670000 2
18042 18051 18049 18047 1 180.0000771 15.1670000 2
18042 18051 18049 18050 1 180.0000771 15.1670000 2
18047 18051 18049 18050 4 180.0000771 4.6024000 2
18055 18056 18057 18058 1 180.0000771 15.1670000 2
18055 18056 18057 18059 1 180.0000771 15.1670000 2
18058 18056 18057 18059 4 180.0000771 4.6024000 2
18055 18056 18065 18057 4 180.0000771 4.6024000 2
18055 18056 18065 18063 1 180.0000771 15.1670000 2
18055 18056 18065 18066 1 180.0000771 15.1670000 2
18057 18056 18065 18063 1 180.0000771 15.1670000 2
18057 18056 18065 18066 1 180.0000771 15.1670000 2
18058 18057 18056 18065 1 180.0000771 15.1670000 2
18059 18057 18056 18065 1 180.0000771 15.1670000 2
18056 18057 18059 18060 1 180.0000771 15.1670000 2
18056 18057 18059 18061 1 180.0000771 15.1670000 2
18058 18057 18059 18060 1 180.0000771 15.1670000 2
18058 18057 18059 18061 1 180.0000771 15.1670000 2
18057 18059 18061 18062 1 180.0000771 15.1670000 2
18057 18059 18061 18063 1 180.0000771 15.1670000 2
18060 18059 18061 18062 1 180.0000771 15.1670000 2
18060 18059 18061 18063 1 180.0000771 15.1670000 2
18057 18061 18059 18060 4 180.0000771 4.6024000 2
18059 18061 18063 18064 1 180.0000771 15.1670000 2
18059 18061 18063 18065 1 180.0000771 15.1670000 2
18062 18061 18063 18064 1 180.0000771 15.1670000 2
18062 18061 18063 18065 1 180.0000771 15.1670000 2
18059 18063 18061 18062 4 180.0000771 4.6024000 2
18056 18063 18065 18066 4 180.0000771 4.6024000 2
18061 18063 18065 18066 1 180.0000771 15.1670000 2
18064 18063 18065 18066 1 180.0000771 15.1670000 2
18056 18065 18063 18061 1 180.0000771 15.1670000 2
18056 18065 18063 18064 1 180.0000771 15.1670000 2
18061 18065 18063 18064 4 180.0000771 4.6024000 2
18069 18070 18071 18072 1 180.0000771 15.1670000 2
18069 18070 18071 18073 1 180.0000771 15.1670000 2
18072 18070 18071 18073 4 180.0000771 4.6024000 2
18069 18070 18079 18071 4 180.0000771 4.6024000 2
18069 18070 18079 18077 1 180.0000771 15.1670000 2
18069 18070 18079 18080 1 180.0000771 15.1670000 2
18071 18070 18079 18077 1 180.0000771 15.1670000 2
18071 18070 18079 18080 1 180.0000771 15.1670000 2
18072 18071 18070 18079 1 180.0000771 15.1670000 2
18073 18071 18070 18079 1 180.0000771 15.1670000 2
18070 18071 18073 18074 1 180.0000771 15.1670000 2
18070 18071 18073 18075 1 180.0000771 15.1670000 2
18072 18071 18073 18074 1 180.0000771 15.1670000 2
18072 18071 18073 18075 1 180.0000771 15.1670000 2
18071 18073 18075 18076 1 180.0000771 15.1670000 2
18071 18073 18075 18077 1 180.0000771 15.1670000 2
18074 18073 18075 18076 1 180.0000771 15.1670000 2
18074 18073 18075 18077 1 180.0000771 15.1670000 2
18071 18075 18073 18074 4 180.0000771 4.6024000 2
18073 18075 18077 18078 1 180.0000771 15.1670000 2
18073 18075 18077 18079 1 180.0000771 15.1670000 2
18076 18075 18077 18078 1 180.0000771 15.1670000 2
18076 18075 18077 18079 1 180.0000771 15.1670000 2
18073 18077 18075 18076 4 180.0000771 4.6024000 2
18070 18077 18079 18080 4 180.0000771 4.6024000 2
18075 18077 18079 18080 1 180.0000771 15.1670000 2
18078 18077 18079 18080 1 180.0000771 15.1670000 2
18070 18079 18077 18075 1 180.0000771 15.1670000 2
18070 18079 18077 18078 1 180.0000771 15.1670000 2
18075 18079 18077 18078 4 180.0000771 4.6024000 2
18083 18084 18085 18086 1 180.0000771 15.1670000 2
18083 18084 18085 18087 1 180.0000771 15.1670000 2
18086 18084 18085 18087 4 180.0000771 4.6024000 2
18083 18084 18093 18085 4 180.0000771 4.6024000 2
18083 18084 18093 18091 1 180.0000771 15.1670000 2
18083 18084 18093 18094 1 180.0000771 15.1670000 2
18085 18084 18093 18091 1 180.0000771 15.1670000 2
18085 18084 18093 18094 1 180.0000771 15.1670000 2
18086 18085 18084 18093 1 180.0000771 15.1670000 2
18087 18085 18084 18093 1 180.0000771 15.1670000 2
18084 18085 18087 18088 1 180.0000771 15.1670000 2
18084 18085 18087 18089 1 180.0000771 15.1670000 2
18086 18085 18087 18088 1 180.0000771 15.1670000 2
18086 18085 18087 18089 1 180.0000771 15.1670000 2
18085 18087 18089 18090 1 180.0000771 15.1670000 2
18085 18087 18089 18091 1 180.0000771 15.1670000 2
18088 18087 18089 18090 1 180.0000771 15.1670000 2
18088 18087 18089 18091 1 180.0000771 15.1670000 2
18085 18089 18087 18088 4 180.0000771 4.6024000 2
18087 18089 18091 18092 1 180.0000771 15.1670000 2
18087 18089 18091 18093 1 180.0000771 15.1670000 2
18090 18089 18091 18092 1 180.0000771 15.1670000 2
18090 18089 18091 18093 1 180.0000771 15.1670000 2
18087 18091 18089 18090 4 180.0000771 4.6024000 2
18084 18091 18093 18094 4 180.0000771 4.6024000 2
18089 18091 18093 18094 1 180.0000771 15.1670000 2
18092 18091 18093 18094 1 180.0000771 15.1670000 2
18084 18093 18091 18089 1 180.0000771 15.1670000 2
18084 18093 18091 18092 1 180.0000771 15.1670000 2
18089 18093 18091 18092 4 180.0000771 4.6024000 2
18097 18098 18099 18100 1 180.0000771 15.1670000 2
18097 18098 18099 18101 1 180.0000771 15.1670000 2
18100 18098 18099 18101 4 180.0000771 4.6024000 2
18097 18098 18107 18099 4 180.0000771 4.6024000 2
18097 18098 18107 18105 1 180.0000771 15.1670000 2
18097 18098 18107 18108 1 180.0000771 15.1670000 2
18099 18098 18107 18105 1 180.0000771 15.1670000 2
18099 18098 18107 18108 1 180.0000771 15.1670000 2
18100 18099 18098 18107 1 180.0000771 15.1670000 2
18101 18099 18098 18107 1 180.0000771 15.1670000 2
18098 18099 18101 18102 1 180.0000771 15.1670000 2
18098 18099 18101 18103 1 180.0000771 15.1670000 2
18100 18099 18101 18102 1 180.0000771 15.1670000 2
18100 18099 18101 18103 1 180.0000771 15.1670000 2
18099 18101 18103 18104 1 180.0000771 15.1670000 2
18099 18101 18103 18105 1 180.0000771 15.1670000 2
18102 18101 18103 18104 1 180.0000771 15.1670000 2
18102 18101 18103 18105 1 180.0000771 15.1670000 2
18099 18103 18101 18102 4 180.0000771 4.6024000 2
18101 18103 18105 18106 1 180.0000771 15.1670000 2
18101 18103 18105 18107 1 180.0000771 15.1670000 2
18104 18103 18105 18106 1 180.0000771 15.1670000 2
18104 18103 18105 18107 1 180.0000771 15.1670000 2
18101 18105 18103 18104 4 180.0000771 4.6024000 2
18098 18105 18107 18108 4 180.0000771 4.6024000 2
18103 18105 18107 18108 1 180.0000771 15.1670000 2
18106 18105 18107 18108 1 180.0000771 15.1670000 2
18098 18107 18105 18103 1 180.0000771 15.1670000 2
18098 18107 18105 18106 1 180.0000771 15.1670000 2
18103 18107 18105 18106 4 180.0000771 4.6024000 2
18111 18112 18113 18114 1 180.0000771 15.1670000 2
18111 18112 18113 18115 1 180.0000771 15.1670000 2
18114 18112 18113 18115 4 180.0000771 4.6024000 2
18111 18112 18121 18113 4 180.0000771 4.6024000 2
18111 18112 18121 18119 1 180.0000771 15.1670000 2
18111 18112 18121 18122 1 180.0000771 15.1670000 2
18113 18112 18121 18119 1 180.0000771 15.1670000 2
18113 18112 18121 18122 1 180.0000771 15.1670000 2
18114 18113 18112 18121 1 180.0000771 15.1670000 2
18115 18113 18112 18121 1 180.0000771 15.1670000 2
18112 18113 18115 18116 1 180.0000771 15.1670000 2
18112 18113 18115 18117 1 180.0000771 15.1670000 2
18114 18113 18115 18116 1 180.0000771 15.1670000 2
18114 18113 18115 18117 1 180.0000771 15.1670000 2
18113 18115 18117 18118 1 180.0000771 15.1670000 2
18113 18115 18117 18119 1 180.0000771 15.1670000 2
18116 18115 18117 18118 1 180.0000771 15.1670000 2
18116 18115 18117 18119 1 180.0000771 15.1670000 2
18113 18117 18115 18116 4 180.0000771 4.6024000 2
18115 18117 18119 18120 1 180.0000771 15.1670000 2
18115 18117 18119 18121 1 180.0000771 15.1670000 2
18118 18117 18119 18120 1 180.0000771 15.1670000 2
18118 18117 18119 18121 1 180.0000771 15.1670000 2
18115 18119 18117 18118 4 180.0000771 4.6024000 2
18112 18119 18121 18122 4 180.0000771 4.6024000 2
18117 18119 18121 18122 1 180.0000771 15.1670000 2
18120 18119 18121 18122 1 180.0000771 15.1670000 2
18112 18121 18119 18117 1 180.0000771 15.1670000 2
18112 18121 18119 18120 1 180.0000771 15.1670000 2
18117 18121 18119 18120 4 180.0000771 4.6024000 2
18125 18126 18127 18128 1 180.0000771 15.1670000 2
18125 18126 18127 18129 1 180.0000771 15.1670000 2
18128 18126 18127 18129 4 180.0000771 4.6024000 2
18125 18126 18135 18127 4 180.0000771 4.6024000 2
18125 18126 18135 18133 1 180.0000771 15.1670000 2
18125 18126 18135 18136 1 180.0000771 15.1670000 2
18127 18126 18135 18133 1 180.0000771 15.1670000 2
18127 18126 18135 18136 1 180.0000771 15.1670000 2
18128 18127 18126 18135 1 180.0000771 15.1670000 2
18129 18127 18126 18135 1 180.0000771 15.1670000 2
18126 18127 18129 18130 1 180.0000771 15.1670000 2
18126 18127 18129 18131 1 180.0000771 15.1670000 2
18128 18127 18129 18130 1 180.0000771 15.1670000 2
18128 18127 18129 18131 1 180.0000771 15.1670000 2
18127 18129 18131 18132 1 180.0000771 15.1670000 2
18127 18129 18131 18133 1 180.0000771 15.1670000 2
18130 18129 18131 18132 1 180.0000771 15.1670000 2
18130 18129 18131 18133 1 180.0000771 15.1670000 2
18127 18131 18129 18130 4 180.0000771 4.6024000 2
18129 18131 18133 18134 1 180.0000771 15.1670000 2
18129 18131 18133 18135 1 180.0000771 15.1670000 2
18132 18131 18133 18134 1 180.0000771 15.1670000 2
18132 18131 18133 18135 1 180.0000771 15.1670000 2
18129 18133 18131 18132 4 180.0000771 4.6024000 2
18126 18133 18135 18136 4 180.0000771 4.6024000 2
18131 18133 18135 18136 1 180.0000771 15.1670000 2
18134 18133 18135 18136 1 180.0000771 15.1670000 2
18126 18135 18133 18131 1 180.0000771 15.1670000 2
18126 18135 18133 18134 1 180.0000771 15.1670000 2
18131 18135 18133 18134 4 180.0000771 4.6024000 2
18139 18140 18141 18142 1 180.0000771 15.1670000 2
18139 18140 18141 18143 1 180.0000771 15.1670000 2
18142 18140 18141 18143 4 180.0000771 4.6024000 2
18139 18140 18149 18141 4 180.0000771 4.6024000 2
18139 18140 18149 18147 1 180.0000771 15.1670000 2
18139 18140 18149 18150 1 180.0000771 15.1670000 2
18141 18140 18149 18147 1 180.0000771 15.1670000 2
18141 18140 18149 18150 1 180.0000771 15.1670000 2
18142 18141 18140 18149 1 180.0000771 15.1670000 2
18143 18141 18140 18149 1 180.0000771 15.1670000 2
18140 18141 18143 18144 1 180.0000771 15.1670000 2
18140 18141 18143 18145 1 180.0000771 15.1670000 2
18142 18141 18143 18144 1 180.0000771 15.1670000 2
18142 18141 18143 18145 1 180.0000771 15.1670000 2
18141 18143 18145 18146 1 180.0000771 15.1670000 2
18141 18143 18145 18147 1 180.0000771 15.1670000 2
18144 18143 18145 18146 1 180.0000771 15.1670000 2
18144 18143 18145 18147 1 180.0000771 15.1670000 2
18141 18145 18143 18144 4 180.0000771 4.6024000 2
18143 18145 18147 18148 1 180.0000771 15.1670000 2
18143 18145 18147 18149 1 180.0000771 15.1670000 2
18146 18145 18147 18148 1 180.0000771 15.1670000 2
18146 18145 18147 18149 1 180.0000771 15.1670000 2
18143 18147 18145 18146 4 180.0000771 4.6024000 2
18140 18147 18149 18150 4 180.0000771 4.6024000 2
18145 18147 18149 18150 1 180.0000771 15.1670000 2
18148 18147 18149 18150 1 180.0000771 15.1670000 2
18140 18149 18147 18145 1 180.0000771 15.1670000 2
18140 18149 18147 18148 1 180.0000771 15.1670000 2
18145 18149 18147 18148 4 180.0000771 4.6024000 2
18153 18154 18155 18156 1 180.0000771 15.1670000 2
18153 18154 18155 18157 1 180.0000771 15.1670000 2
18156 18154 18155 18157 4 180.0000771 4.6024000 2
18153 18154 18163 18155 4 180.0000771 4.6024000 2
18153 18154 18163 18161 1 180.0000771 15.1670000 2
18153 18154 18163 18164 1 180.0000771 15.1670000 2
18155 18154 18163 18161 1 180.0000771 15.1670000 2
18155 18154 18163 18164 1 180.0000771 15.1670000 2
18156 18155 18154 18163 1 180.0000771 15.1670000 2
18157 18155 18154 18163 1 180.0000771 15.1670000 2
18154 18155 18157 18158 1 180.0000771 15.1670000 2
18154 18155 18157 18159 1 180.0000771 15.1670000 2
18156 18155 18157 18158 1 180.0000771 15.1670000 2
18156 18155 18157 18159 1 180.0000771 15.1670000 2
18155 18157 18159 18160 1 180.0000771 15.1670000 2
18155 18157 18159 18161 1 180.0000771 15.1670000 2
18158 18157 18159 18160 1 180.0000771 15.1670000 2
18158 18157 18159 18161 1 180.0000771 15.1670000 2
18155 18159 18157 18158 4 180.0000771 4.6024000 2
18157 18159 18161 18162 1 180.0000771 15.1670000 2
18157 18159 18161 18163 1 180.0000771 15.1670000 2
18160 18159 18161 18162 1 180.0000771 15.1670000 2
18160 18159 18161 18163 1 180.0000771 15.1670000 2
18157 18161 18159 18160 4 180.0000771 4.6024000 2
18154 18161 18163 18164 4 180.0000771 4.6024000 2
18159 18161 18163 18164 1 180.0000771 15.1670000 2
18162 18161 18163 18164 1 180.0000771 15.1670000 2
18154 18163 18161 18159 1 180.0000771 15.1670000 2
18154 18163 18161 18162 1 180.0000771 15.1670000 2
18159 18163 18161 18162 4 180.0000771 4.6024000 2
18167 18168 18169 18170 1 180.0000771 15.1670000 2
18167 18168 18169 18171 1 180.0000771 15.1670000 2
18170 18168 18169 18171 4 180.0000771 4.6024000 2
18167 18168 18177 18169 4 180.0000771 4.6024000 2
18167 18168 18177 18175 1 180.0000771 15.1670000 2
18167 18168 18177 18178 1 180.0000771 15.1670000 2
18169 18168 18177 18175 1 180.0000771 15.1670000 2
18169 18168 18177 18178 1 180.0000771 15.1670000 2
18170 18169 18168 18177 1 180.0000771 15.1670000 2
18171 18169 18168 18177 1 180.0000771 15.1670000 2
18168 18169 18171 18172 1 180.0000771 15.1670000 2
18168 18169 18171 18173 1 180.0000771 15.1670000 2
18170 18169 18171 18172 1 180.0000771 15.1670000 2
18170 18169 18171 18173 1 180.0000771 15.1670000 2
18169 18171 18173 18174 1 180.0000771 15.1670000 2
18169 18171 18173 18175 1 180.0000771 15.1670000 2
18172 18171 18173 18174 1 180.0000771 15.1670000 2
18172 18171 18173 18175 1 180.0000771 15.1670000 2
18169 18173 18171 18172 4 180.0000771 4.6024000 2
18171 18173 18175 18176 1 180.0000771 15.1670000 2
18171 18173 18175 18177 1 180.0000771 15.1670000 2
18174 18173 18175 18176 1 180.0000771 15.1670000 2
18174 18173 18175 18177 1 180.0000771 15.1670000 2
18171 18175 18173 18174 4 180.0000771 4.6024000 2
18168 18175 18177 18178 4 180.0000771 4.6024000 2
18173 18175 18177 18178 1 180.0000771 15.1670000 2
18176 18175 18177 18178 1 180.0000771 15.1670000 2
18168 18177 18175 18173 1 180.0000771 15.1670000 2
18168 18177 18175 18176 1 180.0000771 15.1670000 2
18173 18177 18175 18176 4 180.0000771 4.6024000 2
18181 18182 18183 18184 1 180.0000771 15.1670000 2
18181 18182 18183 18185 1 180.0000771 15.1670000 2
18184 18182 18183 18185 4 180.0000771 4.6024000 2
18181 18182 18191 18183 4 180.0000771 4.6024000 2
18181 18182 18191 18189 1 180.0000771 15.1670000 2
18181 18182 18191 18192 1 180.0000771 15.1670000 2
18183 18182 18191 18189 1 180.0000771 15.1670000 2
18183 18182 18191 18192 1 180.0000771 15.1670000 2
18184 18183 18182 18191 1 180.0000771 15.1670000 2
18185 18183 18182 18191 1 180.0000771 15.1670000 2
18182 18183 18185 18186 1 180.0000771 15.1670000 2
18182 18183 18185 18187 1 180.0000771 15.1670000 2
18184 18183 18185 18186 1 180.0000771 15.1670000 2
18184 18183 18185 18187 1 180.0000771 15.1670000 2
18183 18185 18187 18188 1 180.0000771 15.1670000 2
18183 18185 18187 18189 1 180.0000771 15.1670000 2
18186 18185 18187 18188 1 180.0000771 15.1670000 2
18186 18185 18187 18189 1 180.0000771 15.1670000 2
18183 18187 18185 18186 4 180.0000771 4.6024000 2
18185 18187 18189 18190 1 180.0000771 15.1670000 2
18185 18187 18189 18191 1 180.0000771 15.1670000 2
18188 18187 18189 18190 1 180.0000771 15.1670000 2
18188 18187 18189 18191 1 180.0000771 15.1670000 2
18185 18189 18187 18188 4 180.0000771 4.6024000 2
18182 18189 18191 18192 4 180.0000771 4.6024000 2
18187 18189 18191 18192 1 180.0000771 15.1670000 2
18190 18189 18191 18192 1 180.0000771 15.1670000 2
18182 18191 18189 18187 1 180.0000771 15.1670000 2
18182 18191 18189 18190 1 180.0000771 15.1670000 2
18187 18191 18189 18190 4 180.0000771 4.6024000 2
18195 18196 18197 18198 1 180.0000771 15.1670000 2
18195 18196 18197 18199 1 180.0000771 15.1670000 2
18198 18196 18197 18199 4 180.0000771 4.6024000 2
18195 18196 18205 18197 4 180.0000771 4.6024000 2
18195 18196 18205 18203 1 180.0000771 15.1670000 2
18195 18196 18205 18206 1 180.0000771 15.1670000 2
18197 18196 18205 18203 1 180.0000771 15.1670000 2
18197 18196 18205 18206 1 180.0000771 15.1670000 2
18198 18197 18196 18205 1 180.0000771 15.1670000 2
18199 18197 18196 18205 1 180.0000771 15.1670000 2
18196 18197 18199 18200 1 180.0000771 15.1670000 2
18196 18197 18199 18201 1 180.0000771 15.1670000 2
18198 18197 18199 18200 1 180.0000771 15.1670000 2
18198 18197 18199 18201 1 180.0000771 15.1670000 2
18197 18199 18201 18202 1 180.0000771 15.1670000 2
18197 18199 18201 18203 1 180.0000771 15.1670000 2
18200 18199 18201 18202 1 180.0000771 15.1670000 2
18200 18199 18201 18203 1 180.0000771 15.1670000 2
18197 18201 18199 18200 4 180.0000771 4.6024000 2
18199 18201 18203 18204 1 180.0000771 15.1670000 2
18199 18201 18203 18205 1 180.0000771 15.1670000 2
18202 18201 18203 18204 1 180.0000771 15.1670000 2
18202 18201 18203 18205 1 180.0000771 15.1670000 2
18199 18203 18201 18202 4 180.0000771 4.6024000 2
18196 18203 18205 18206 4 180.0000771 4.6024000 2
18201 18203 18205 18206 1 180.0000771 15.1670000 2
18204 18203 18205 18206 1 180.0000771 15.1670000 2
18196 18205 18203 18201 1 180.0000771 15.1670000 2
18196 18205 18203 18204 1 180.0000771 15.1670000 2
18201 18205 18203 18204 4 180.0000771 4.6024000 2
18209 18210 18211 18212 1 180.0000771 15.1670000 2
18209 18210 18211 18213 1 180.0000771 15.1670000 2
18212 18210 18211 18213 4 180.0000771 4.6024000 2
18209 18210 18219 18211 4 180.0000771 4.6024000 2
18209 18210 18219 18217 1 180.0000771 15.1670000 2
18209 18210 18219 18220 1 180.0000771 15.1670000 2
18211 18210 18219 18217 1 180.0000771 15.1670000 2
18211 18210 18219 18220 1 180.0000771 15.1670000 2
18212 18211 18210 18219 1 180.0000771 15.1670000 2
18213 18211 18210 18219 1 180.0000771 15.1670000 2
18210 18211 18213 18214 1 180.0000771 15.1670000 2
18210 18211 18213 18215 1 180.0000771 15.1670000 2
18212 18211 18213 18214 1 180.0000771 15.1670000 2
18212 18211 18213 18215 1 180.0000771 15.1670000 2
18211 18213 18215 18216 1 180.0000771 15.1670000 2
18211 18213 18215 18217 1 180.0000771 15.1670000 2
18214 18213 18215 18216 1 180.0000771 15.1670000 2
18214 18213 18215 18217 1 180.0000771 15.1670000 2
18211 18215 18213 18214 4 180.0000771 4.6024000 2
18213 18215 18217 18218 1 180.0000771 15.1670000 2
18213 18215 18217 18219 1 180.0000771 15.1670000 2
18216 18215 18217 18218 1 180.0000771 15.1670000 2
18216 18215 18217 18219 1 180.0000771 15.1670000 2
18213 18217 18215 18216 4 180.0000771 4.6024000 2
18210 18217 18219 18220 4 180.0000771 4.6024000 2
18215 18217 18219 18220 1 180.0000771 15.1670000 2
18218 18217 18219 18220 1 180.0000771 15.1670000 2
18210 18219 18217 18215 1 180.0000771 15.1670000 2
18210 18219 18217 18218 1 180.0000771 15.1670000 2
18215 18219 18217 18218 4 180.0000771 4.6024000 2
18223 18224 18225 18226 1 180.0000771 15.1670000 2
18223 18224 18225 18227 1 180.0000771 15.1670000 2
18226 18224 18225 18227 4 180.0000771 4.6024000 2
18223 18224 18233 18225 4 180.0000771 4.6024000 2
18223 18224 18233 18231 1 180.0000771 15.1670000 2
18223 18224 18233 18234 1 180.0000771 15.1670000 2
18225 18224 18233 18231 1 180.0000771 15.1670000 2
18225 18224 18233 18234 1 180.0000771 15.1670000 2
18226 18225 18224 18233 1 180.0000771 15.1670000 2
18227 18225 18224 18233 1 180.0000771 15.1670000 2
18224 18225 18227 18228 1 180.0000771 15.1670000 2
18224 18225 18227 18229 1 180.0000771 15.1670000 2
18226 18225 18227 18228 1 180.0000771 15.1670000 2
18226 18225 18227 18229 1 180.0000771 15.1670000 2
18225 18227 18229 18230 1 180.0000771 15.1670000 2
18225 18227 18229 18231 1 180.0000771 15.1670000 2
18228 18227 18229 18230 1 180.0000771 15.1670000 2
18228 18227 18229 18231 1 180.0000771 15.1670000 2
18225 18229 18227 18228 4 180.0000771 4.6024000 2
18227 18229 18231 18232 1 180.0000771 15.1670000 2
18227 18229 18231 18233 1 180.0000771 15.1670000 2
18230 18229 18231 18232 1 180.0000771 15.1670000 2
18230 18229 18231 18233 1 180.0000771 15.1670000 2
18227 18231 18229 18230 4 180.0000771 4.6024000 2
18224 18231 18233 18234 4 180.0000771 4.6024000 2
18229 18231 18233 18234 1 180.0000771 15.1670000 2
18232 18231 18233 18234 1 180.0000771 15.1670000 2
18224 18233 18231 18229 1 180.0000771 15.1670000 2
18224 18233 18231 18232 1 180.0000771 15.1670000 2
18229 18233 18231 18232 4 180.0000771 4.6024000 2
18237 18238 18239 18240 1 180.0000771 15.1670000 2
18237 18238 18239 18241 1 180.0000771 15.1670000 2
18240 18238 18239 18241 4 180.0000771 4.6024000 2
18237 18238 18247 18239 4 180.0000771 4.6024000 2
18237 18238 18247 18245 1 180.0000771 15.1670000 2
18237 18238 18247 18248 1 180.0000771 15.1670000 2
18239 18238 18247 18245 1 180.0000771 15.1670000 2
18239 18238 18247 18248 1 180.0000771 15.1670000 2
18240 18239 18238 18247 1 180.0000771 15.1670000 2
18241 18239 18238 18247 1 180.0000771 15.1670000 2
18238 18239 18241 18242 1 180.0000771 15.1670000 2
18238 18239 18241 18243 1 180.0000771 15.1670000 2
18240 18239 18241 18242 1 180.0000771 15.1670000 2
18240 18239 18241 18243 1 180.0000771 15.1670000 2
18239 18241 18243 18244 1 180.0000771 15.1670000 2
18239 18241 18243 18245 1 180.0000771 15.1670000 2
18242 18241 18243 18244 1 180.0000771 15.1670000 2
18242 18241 18243 18245 1 180.0000771 15.1670000 2
18239 18243 18241 18242 4 180.0000771 4.6024000 2
18241 18243 18245 18246 1 180.0000771 15.1670000 2
18241 18243 18245 18247 1 180.0000771 15.1670000 2
18244 18243 18245 18246 1 180.0000771 15.1670000 2
18244 18243 18245 18247 1 180.0000771 15.1670000 2
18241 18245 18243 18244 4 180.0000771 4.6024000 2
18238 18245 18247 18248 4 180.0000771 4.6024000 2
18243 18245 18247 18248 1 180.0000771 15.1670000 2
18246 18245 18247 18248 1 180.0000771 15.1670000 2
18238 18247 18245 18243 1 180.0000771 15.1670000 2
18238 18247 18245 18246 1 180.0000771 15.1670000 2
18243 18247 18245 18246 4 180.0000771 4.6024000 2
18251 18252 18253 18254 1 180.0000771 15.1670000 2
18251 18252 18253 18255 1 180.0000771 15.1670000 2
18254 18252 18253 18255 4 180.0000771 4.6024000 2
18251 18252 18261 18253 4 180.0000771 4.6024000 2
18251 18252 18261 18259 1 180.0000771 15.1670000 2
18251 18252 18261 18262 1 180.0000771 15.1670000 2
18253 18252 18261 18259 1 180.0000771 15.1670000 2
18253 18252 18261 18262 1 180.0000771 15.1670000 2
18254 18253 18252 18261 1 180.0000771 15.1670000 2
18255 18253 18252 18261 1 180.0000771 15.1670000 2
18252 18253 18255 18256 1 180.0000771 15.1670000 2
18252 18253 18255 18257 1 180.0000771 15.1670000 2
18254 18253 18255 18256 1 180.0000771 15.1670000 2
18254 18253 18255 18257 1 180.0000771 15.1670000 2
18253 18255 18257 18258 1 180.0000771 15.1670000 2
18253 18255 18257 18259 1 180.0000771 15.1670000 2
18256 18255 18257 18258 1 180.0000771 15.1670000 2
18256 18255 18257 18259 1 180.0000771 15.1670000 2
18253 18257 18255 18256 4 180.0000771 4.6024000 2
18255 18257 18259 18260 1 180.0000771 15.1670000 2
18255 18257 18259 18261 1 180.0000771 15.1670000 2
18258 18257 18259 18260 1 180.0000771 15.1670000 2
18258 18257 18259 18261 1 180.0000771 15.1670000 2
18255 18259 18257 18258 4 180.0000771 4.6024000 2
18252 18259 18261 18262 4 180.0000771 4.6024000 2
18257 18259 18261 18262 1 180.0000771 15.1670000 2
18260 18259 18261 18262 1 180.0000771 15.1670000 2
18252 18261 18259 18257 1 180.0000771 15.1670000 2
18252 18261 18259 18260 1 180.0000771 15.1670000 2
18257 18261 18259 18260 4 180.0000771 4.6024000 2
18265 18266 18267 18268 1 180.0000771 15.1670000 2
18265 18266 18267 18269 1 180.0000771 15.1670000 2
18268 18266 18267 18269 4 180.0000771 4.6024000 2
18265 18266 18275 18267 4 180.0000771 4.6024000 2
18265 18266 18275 18273 1 180.0000771 15.1670000 2
18265 18266 18275 18276 1 180.0000771 15.1670000 2
18267 18266 18275 18273 1 180.0000771 15.1670000 2
18267 18266 18275 18276 1 180.0000771 15.1670000 2
18268 18267 18266 18275 1 180.0000771 15.1670000 2
18269 18267 18266 18275 1 180.0000771 15.1670000 2
18266 18267 18269 18270 1 180.0000771 15.1670000 2
18266 18267 18269 18271 1 180.0000771 15.1670000 2
18268 18267 18269 18270 1 180.0000771 15.1670000 2
18268 18267 18269 18271 1 180.0000771 15.1670000 2
18267 18269 18271 18272 1 180.0000771 15.1670000 2
18267 18269 18271 18273 1 180.0000771 15.1670000 2
18270 18269 18271 18272 1 180.0000771 15.1670000 2
18270 18269 18271 18273 1 180.0000771 15.1670000 2
18267 18271 18269 18270 4 180.0000771 4.6024000 2
18269 18271 18273 18274 1 180.0000771 15.1670000 2
18269 18271 18273 18275 1 180.0000771 15.1670000 2
18272 18271 18273 18274 1 180.0000771 15.1670000 2
18272 18271 18273 18275 1 180.0000771 15.1670000 2
18269 18273 18271 18272 4 180.0000771 4.6024000 2
18266 18273 18275 18276 4 180.0000771 4.6024000 2
18271 18273 18275 18276 1 180.0000771 15.1670000 2
18274 18273 18275 18276 1 180.0000771 15.1670000 2
18266 18275 18273 18271 1 180.0000771 15.1670000 2
18266 18275 18273 18274 1 180.0000771 15.1670000 2
18271 18275 18273 18274 4 180.0000771 4.6024000 2
18279 18280 18281 18282 1 180.0000771 15.1670000 2
18279 18280 18281 18283 1 180.0000771 15.1670000 2
18282 18280 18281 18283 4 180.0000771 4.6024000 2
18279 18280 18289 18281 4 180.0000771 4.6024000 2
18279 18280 18289 18287 1 180.0000771 15.1670000 2
18279 18280 18289 18290 1 180.0000771 15.1670000 2
18281 18280 18289 18287 1 180.0000771 15.1670000 2
18281 18280 18289 18290 1 180.0000771 15.1670000 2
18282 18281 18280 18289 1 180.0000771 15.1670000 2
18283 18281 18280 18289 1 180.0000771 15.1670000 2
18280 18281 18283 18284 1 180.0000771 15.1670000 2
18280 18281 18283 18285 1 180.0000771 15.1670000 2
18282 18281 18283 18284 1 180.0000771 15.1670000 2
18282 18281 18283 18285 1 180.0000771 15.1670000 2
18281 18283 18285 18286 1 180.0000771 15.1670000 2
18281 18283 18285 18287 1 180.0000771 15.1670000 2
18284 18283 18285 18286 1 180.0000771 15.1670000 2
18284 18283 18285 18287 1 180.0000771 15.1670000 2
18281 18285 18283 18284 4 180.0000771 4.6024000 2
18283 18285 18287 18288 1 180.0000771 15.1670000 2
18283 18285 18287 18289 1 180.0000771 15.1670000 2
18286 18285 18287 18288 1 180.0000771 15.1670000 2
18286 18285 18287 18289 1 180.0000771 15.1670000 2
18283 18287 18285 18286 4 180.0000771 4.6024000 2
18280 18287 18289 18290 4 180.0000771 4.6024000 2
18285 18287 18289 18290 1 180.0000771 15.1670000 2
18288 18287 18289 18290 1 180.0000771 15.1670000 2
18280 18289 18287 18285 1 180.0000771 15.1670000 2
18280 18289 18287 18288 1 180.0000771 15.1670000 2
18285 18289 18287 18288 4 180.0000771 4.6024000 2
18293 18294 18295 18296 1 180.0000771 15.1670000 2
18293 18294 18295 18297 1 180.0000771 15.1670000 2
18296 18294 18295 18297 4 180.0000771 4.6024000 2
18293 18294 18303 18295 4 180.0000771 4.6024000 2
18293 18294 18303 18301 1 180.0000771 15.1670000 2
18293 18294 18303 18304 1 180.0000771 15.1670000 2
18295 18294 18303 18301 1 180.0000771 15.1670000 2
18295 18294 18303 18304 1 180.0000771 15.1670000 2
18296 18295 18294 18303 1 180.0000771 15.1670000 2
18297 18295 18294 18303 1 180.0000771 15.1670000 2
18294 18295 18297 18298 1 180.0000771 15.1670000 2
18294 18295 18297 18299 1 180.0000771 15.1670000 2
18296 18295 18297 18298 1 180.0000771 15.1670000 2
18296 18295 18297 18299 1 180.0000771 15.1670000 2
18295 18297 18299 18300 1 180.0000771 15.1670000 2
18295 18297 18299 18301 1 180.0000771 15.1670000 2
18298 18297 18299 18300 1 180.0000771 15.1670000 2
18298 18297 18299 18301 1 180.0000771 15.1670000 2
18295 18299 18297 18298 4 180.0000771 4.6024000 2
18297 18299 18301 18302 1 180.0000771 15.1670000 2
18297 18299 18301 18303 1 180.0000771 15.1670000 2
18300 18299 18301 18302 1 180.0000771 15.1670000 2
18300 18299 18301 18303 1 180.0000771 15.1670000 2
18297 18301 18299 18300 4 180.0000771 4.6024000 2
18294 18301 18303 18304 4 180.0000771 4.6024000 2
18299 18301 18303 18304 1 180.0000771 15.1670000 2
18302 18301 18303 18304 1 180.0000771 15.1670000 2
18294 18303 18301 18299 1 180.0000771 15.1670000 2
18294 18303 18301 18302 1 180.0000771 15.1670000 2
18299 18303 18301 18302 4 180.0000771 4.6024000 2
18307 18308 18309 18310 1 180.0000771 15.1670000 2
18307 18308 18309 18311 1 180.0000771 15.1670000 2
18310 18308 18309 18311 4 180.0000771 4.6024000 2
18307 18308 18317 18309 4 180.0000771 4.6024000 2
18307 18308 18317 18315 1 180.0000771 15.1670000 2
18307 18308 18317 18318 1 180.0000771 15.1670000 2
18309 18308 18317 18315 1 180.0000771 15.1670000 2
18309 18308 18317 18318 1 180.0000771 15.1670000 2
18310 18309 18308 18317 1 180.0000771 15.1670000 2
18311 18309 18308 18317 1 180.0000771 15.1670000 2
18308 18309 18311 18312 1 180.0000771 15.1670000 2
18308 18309 18311 18313 1 180.0000771 15.1670000 2
18310 18309 18311 18312 1 180.0000771 15.1670000 2
18310 18309 18311 18313 1 180.0000771 15.1670000 2
18309 18311 18313 18314 1 180.0000771 15.1670000 2
18309 18311 18313 18315 1 180.0000771 15.1670000 2
18312 18311 18313 18314 1 180.0000771 15.1670000 2
18312 18311 18313 18315 1 180.0000771 15.1670000 2
18309 18313 18311 18312 4 180.0000771 4.6024000 2
18311 18313 18315 18316 1 180.0000771 15.1670000 2
18311 18313 18315 18317 1 180.0000771 15.1670000 2
18314 18313 18315 18316 1 180.0000771 15.1670000 2
18314 18313 18315 18317 1 180.0000771 15.1670000 2
18311 18315 18313 18314 4 180.0000771 4.6024000 2
18308 18315 18317 18318 4 180.0000771 4.6024000 2
18313 18315 18317 18318 1 180.0000771 15.1670000 2
18316 18315 18317 18318 1 180.0000771 15.1670000 2
18308 18317 18315 18313 1 180.0000771 15.1670000 2
18308 18317 18315 18316 1 180.0000771 15.1670000 2
18313 18317 18315 18316 4 180.0000771 4.6024000 2
18321 18322 18323 18324 1 180.0000771 15.1670000 2
18321 18322 18323 18325 1 180.0000771 15.1670000 2
18324 18322 18323 18325 4 180.0000771 4.6024000 2
18321 18322 18331 18323 4 180.0000771 4.6024000 2
18321 18322 18331 18329 1 180.0000771 15.1670000 2
18321 18322 18331 18332 1 180.0000771 15.1670000 2
18323 18322 18331 18329 1 180.0000771 15.1670000 2
18323 18322 18331 18332 1 180.0000771 15.1670000 2
18324 18323 18322 18331 1 180.0000771 15.1670000 2
18325 18323 18322 18331 1 180.0000771 15.1670000 2
18322 18323 18325 18326 1 180.0000771 15.1670000 2
18322 18323 18325 18327 1 180.0000771 15.1670000 2
18324 18323 18325 18326 1 180.0000771 15.1670000 2
18324 18323 18325 18327 1 180.0000771 15.1670000 2
18323 18325 18327 18328 1 180.0000771 15.1670000 2
18323 18325 18327 18329 1 180.0000771 15.1670000 2
18326 18325 18327 18328 1 180.0000771 15.1670000 2
18326 18325 18327 18329 1 180.0000771 15.1670000 2
18323 18327 18325 18326 4 180.0000771 4.6024000 2
18325 18327 18329 18330 1 180.0000771 15.1670000 2
18325 18327 18329 18331 1 180.0000771 15.1670000 2
18328 18327 18329 18330 1 180.0000771 15.1670000 2
18328 18327 18329 18331 1 180.0000771 15.1670000 2
18325 18329 18327 18328 4 180.0000771 4.6024000 2
18322 18329 18331 18332 4 180.0000771 4.6024000 2
18327 18329 18331 18332 1 180.0000771 15.1670000 2
18330 18329 18331 18332 1 180.0000771 15.1670000 2
18322 18331 18329 18327 1 180.0000771 15.1670000 2
18322 18331 18329 18330 1 180.0000771 15.1670000 2
18327 18331 18329 18330 4 180.0000771 4.6024000 2
18335 18336 18337 18338 1 180.0000771 15.1670000 2
18335 18336 18337 18339 1 180.0000771 15.1670000 2
18338 18336 18337 18339 4 180.0000771 4.6024000 2
18335 18336 18345 18337 4 180.0000771 4.6024000 2
18335 18336 18345 18343 1 180.0000771 15.1670000 2
18335 18336 18345 18346 1 180.0000771 15.1670000 2
18337 18336 18345 18343 1 180.0000771 15.1670000 2
18337 18336 18345 18346 1 180.0000771 15.1670000 2
18338 18337 18336 18345 1 180.0000771 15.1670000 2
18339 18337 18336 18345 1 180.0000771 15.1670000 2
18336 18337 18339 18340 1 180.0000771 15.1670000 2
18336 18337 18339 18341 1 180.0000771 15.1670000 2
18338 18337 18339 18340 1 180.0000771 15.1670000 2
18338 18337 18339 18341 1 180.0000771 15.1670000 2
18337 18339 18341 18342 1 180.0000771 15.1670000 2
18337 18339 18341 18343 1 180.0000771 15.1670000 2
18340 18339 18341 18342 1 180.0000771 15.1670000 2
18340 18339 18341 18343 1 180.0000771 15.1670000 2
18337 18341 18339 18340 4 180.0000771 4.6024000 2
18339 18341 18343 18344 1 180.0000771 15.1670000 2
18339 18341 18343 18345 1 180.0000771 15.1670000 2
18342 18341 18343 18344 1 180.0000771 15.1670000 2
18342 18341 18343 18345 1 180.0000771 15.1670000 2
18339 18343 18341 18342 4 180.0000771 4.6024000 2
18336 18343 18345 18346 4 180.0000771 4.6024000 2
18341 18343 18345 18346 1 180.0000771 15.1670000 2
18344 18343 18345 18346 1 180.0000771 15.1670000 2
18336 18345 18343 18341 1 180.0000771 15.1670000 2
18336 18345 18343 18344 1 180.0000771 15.1670000 2
18341 18345 18343 18344 4 180.0000771 4.6024000 2
18349 18350 18351 18352 1 180.0000771 15.1670000 2
18349 18350 18351 18353 1 180.0000771 15.1670000 2
18352 18350 18351 18353 4 180.0000771 4.6024000 2
18349 18350 18359 18351 4 180.0000771 4.6024000 2
18349 18350 18359 18357 1 180.0000771 15.1670000 2
18349 18350 18359 18360 1 180.0000771 15.1670000 2
18351 18350 18359 18357 1 180.0000771 15.1670000 2
18351 18350 18359 18360 1 180.0000771 15.1670000 2
18352 18351 18350 18359 1 180.0000771 15.1670000 2
18353 18351 18350 18359 1 180.0000771 15.1670000 2
18350 18351 18353 18354 1 180.0000771 15.1670000 2
18350 18351 18353 18355 1 180.0000771 15.1670000 2
18352 18351 18353 18354 1 180.0000771 15.1670000 2
18352 18351 18353 18355 1 180.0000771 15.1670000 2
18351 18353 18355 18356 1 180.0000771 15.1670000 2
18351 18353 18355 18357 1 180.0000771 15.1670000 2
18354 18353 18355 18356 1 180.0000771 15.1670000 2
18354 18353 18355 18357 1 180.0000771 15.1670000 2
18351 18355 18353 18354 4 180.0000771 4.6024000 2
18353 18355 18357 18358 1 180.0000771 15.1670000 2
18353 18355 18357 18359 1 180.0000771 15.1670000 2
18356 18355 18357 18358 1 180.0000771 15.1670000 2
18356 18355 18357 18359 1 180.0000771 15.1670000 2
18353 18357 18355 18356 4 180.0000771 4.6024000 2
18350 18357 18359 18360 4 180.0000771 4.6024000 2
18355 18357 18359 18360 1 180.0000771 15.1670000 2
18358 18357 18359 18360 1 180.0000771 15.1670000 2
18350 18359 18357 18355 1 180.0000771 15.1670000 2
18350 18359 18357 18358 1 180.0000771 15.1670000 2
18355 18359 18357 18358 4 180.0000771 4.6024000 2
18363 18364 18365 18366 1 180.0000771 15.1670000 2
18363 18364 18365 18367 1 180.0000771 15.1670000 2
18366 18364 18365 18367 4 180.0000771 4.6024000 2
18363 18364 18373 18365 4 180.0000771 4.6024000 2
18363 18364 18373 18371 1 180.0000771 15.1670000 2
18363 18364 18373 18374 1 180.0000771 15.1670000 2
18365 18364 18373 18371 1 180.0000771 15.1670000 2
18365 18364 18373 18374 1 180.0000771 15.1670000 2
18366 18365 18364 18373 1 180.0000771 15.1670000 2
18367 18365 18364 18373 1 180.0000771 15.1670000 2
18364 18365 18367 18368 1 180.0000771 15.1670000 2
18364 18365 18367 18369 1 180.0000771 15.1670000 2
18366 18365 18367 18368 1 180.0000771 15.1670000 2
18366 18365 18367 18369 1 180.0000771 15.1670000 2
18365 18367 18369 18370 1 180.0000771 15.1670000 2
18365 18367 18369 18371 1 180.0000771 15.1670000 2
18368 18367 18369 18370 1 180.0000771 15.1670000 2
18368 18367 18369 18371 1 180.0000771 15.1670000 2
18365 18369 18367 18368 4 180.0000771 4.6024000 2
18367 18369 18371 18372 1 180.0000771 15.1670000 2
18367 18369 18371 18373 1 180.0000771 15.1670000 2
18370 18369 18371 18372 1 180.0000771 15.1670000 2
18370 18369 18371 18373 1 180.0000771 15.1670000 2
18367 18371 18369 18370 4 180.0000771 4.6024000 2
18364 18371 18373 18374 4 180.0000771 4.6024000 2
18369 18371 18373 18374 1 180.0000771 15.1670000 2
18372 18371 18373 18374 1 180.0000771 15.1670000 2
18364 18373 18371 18369 1 180.0000771 15.1670000 2
18364 18373 18371 18372 1 180.0000771 15.1670000 2
18369 18373 18371 18372 4 180.0000771 4.6024000 2
18377 18378 18379 18380 1 180.0000771 15.1670000 2
18377 18378 18379 18381 1 180.0000771 15.1670000 2
18380 18378 18379 18381 4 180.0000771 4.6024000 2
18377 18378 18387 18379 4 180.0000771 4.6024000 2
18377 18378 18387 18385 1 180.0000771 15.1670000 2
18377 18378 18387 18388 1 180.0000771 15.1670000 2
18379 18378 18387 18385 1 180.0000771 15.1670000 2
18379 18378 18387 18388 1 180.0000771 15.1670000 2
18380 18379 18378 18387 1 180.0000771 15.1670000 2
18381 18379 18378 18387 1 180.0000771 15.1670000 2
18378 18379 18381 18382 1 180.0000771 15.1670000 2
18378 18379 18381 18383 1 180.0000771 15.1670000 2
18380 18379 18381 18382 1 180.0000771 15.1670000 2
18380 18379 18381 18383 1 180.0000771 15.1670000 2
18379 18381 18383 18384 1 180.0000771 15.1670000 2
18379 18381 18383 18385 1 180.0000771 15.1670000 2
18382 18381 18383 18384 1 180.0000771 15.1670000 2
18382 18381 18383 18385 1 180.0000771 15.1670000 2
18379 18383 18381 18382 4 180.0000771 4.6024000 2
18381 18383 18385 18386 1 180.0000771 15.1670000 2
18381 18383 18385 18387 1 180.0000771 15.1670000 2
18384 18383 18385 18386 1 180.0000771 15.1670000 2
18384 18383 18385 18387 1 180.0000771 15.1670000 2
18381 18385 18383 18384 4 180.0000771 4.6024000 2
18378 18385 18387 18388 4 180.0000771 4.6024000 2
18383 18385 18387 18388 1 180.0000771 15.1670000 2
18386 18385 18387 18388 1 180.0000771 15.1670000 2
18378 18387 18385 18383 1 180.0000771 15.1670000 2
18378 18387 18385 18386 1 180.0000771 15.1670000 2
18383 18387 18385 18386 4 180.0000771 4.6024000 2
18391 18392 18393 18394 1 180.0000771 15.1670000 2
18391 18392 18393 18395 1 180.0000771 15.1670000 2
18394 18392 18393 18395 4 180.0000771 4.6024000 2
18391 18392 18401 18393 4 180.0000771 4.6024000 2
18391 18392 18401 18399 1 180.0000771 15.1670000 2
18391 18392 18401 18402 1 180.0000771 15.1670000 2
18393 18392 18401 18399 1 180.0000771 15.1670000 2
18393 18392 18401 18402 1 180.0000771 15.1670000 2
18394 18393 18392 18401 1 180.0000771 15.1670000 2
18395 18393 18392 18401 1 180.0000771 15.1670000 2
18392 18393 18395 18396 1 180.0000771 15.1670000 2
18392 18393 18395 18397 1 180.0000771 15.1670000 2
18394 18393 18395 18396 1 180.0000771 15.1670000 2
18394 18393 18395 18397 1 180.0000771 15.1670000 2
18393 18395 18397 18398 1 180.0000771 15.1670000 2
18393 18395 18397 18399 1 180.0000771 15.1670000 2
18396 18395 18397 18398 1 180.0000771 15.1670000 2
18396 18395 18397 18399 1 180.0000771 15.1670000 2
18393 18397 18395 18396 4 180.0000771 4.6024000 2
18395 18397 18399 18400 1 180.0000771 15.1670000 2
18395 18397 18399 18401 1 180.0000771 15.1670000 2
18398 18397 18399 18400 1 180.0000771 15.1670000 2
18398 18397 18399 18401 1 180.0000771 15.1670000 2
18395 18399 18397 18398 4 180.0000771 4.6024000 2
18392 18399 18401 18402 4 180.0000771 4.6024000 2
18397 18399 18401 18402 1 180.0000771 15.1670000 2
18400 18399 18401 18402 1 180.0000771 15.1670000 2
18392 18401 18399 18397 1 180.0000771 15.1670000 2
18392 18401 18399 18400 1 180.0000771 15.1670000 2
18397 18401 18399 18400 4 180.0000771 4.6024000 2
18403 18404 18405 18406 1 180.0000771 15.1670000 2
18403 18404 18405 18407 1 180.0000771 15.1670000 2
18406 18404 18405 18407 4 180.0000771 4.6024000 2
18403 18404 18413 18405 4 180.0000771 4.6024000 2
18403 18404 18413 18411 1 180.0000771 15.1670000 2
18403 18404 18413 18414 1 180.0000771 15.1670000 2
18405 18404 18413 18411 1 180.0000771 15.1670000 2
18405 18404 18413 18414 1 180.0000771 15.1670000 2
18406 18405 18404 18413 1 180.0000771 15.1670000 2
18407 18405 18404 18413 1 180.0000771 15.1670000 2
18404 18405 18407 18408 1 180.0000771 15.1670000 2
18404 18405 18407 18409 1 180.0000771 15.1670000 2
18406 18405 18407 18408 1 180.0000771 15.1670000 2
18406 18405 18407 18409 1 180.0000771 15.1670000 2
18405 18407 18409 18410 1 180.0000771 15.1670000 2
18405 18407 18409 18411 1 180.0000771 15.1670000 2
18408 18407 18409 18410 1 180.0000771 15.1670000 2
18408 18407 18409 18411 1 180.0000771 15.1670000 2
18405 18409 18407 18408 4 180.0000771 4.6024000 2
18407 18409 18411 18412 1 180.0000771 15.1670000 2
18407 18409 18411 18413 1 180.0000771 15.1670000 2
18410 18409 18411 18412 1 180.0000771 15.1670000 2
18410 18409 18411 18413 1 180.0000771 15.1670000 2
18407 18411 18409 18410 4 180.0000771 4.6024000 2
18404 18411 18413 18414 4 180.0000771 4.6024000 2
18409 18411 18413 18414 1 180.0000771 15.1670000 2
18412 18411 18413 18414 1 180.0000771 15.1670000 2
18404 18413 18411 18409 1 180.0000771 15.1670000 2
18404 18413 18411 18412 1 180.0000771 15.1670000 2
18409 18413 18411 18412 4 180.0000771 4.6024000 2
18415 18416 18417 18418 1 180.0000771 15.1670000 2
18415 18416 18417 18419 1 180.0000771 15.1670000 2
18418 18416 18417 18419 4 180.0000771 4.6024000 2
18415 18416 18425 18417 4 180.0000771 4.6024000 2
18415 18416 18425 18423 1 180.0000771 15.1670000 2
18415 18416 18425 18426 1 180.0000771 15.1670000 2
18417 18416 18425 18423 1 180.0000771 15.1670000 2
18417 18416 18425 18426 1 180.0000771 15.1670000 2
18418 18417 18416 18425 1 180.0000771 15.1670000 2
18419 18417 18416 18425 1 180.0000771 15.1670000 2
18416 18417 18419 18420 1 180.0000771 15.1670000 2
18416 18417 18419 18421 1 180.0000771 15.1670000 2
18418 18417 18419 18420 1 180.0000771 15.1670000 2
18418 18417 18419 18421 1 180.0000771 15.1670000 2
18417 18419 18421 18422 1 180.0000771 15.1670000 2
18417 18419 18421 18423 1 180.0000771 15.1670000 2
18420 18419 18421 18422 1 180.0000771 15.1670000 2
18420 18419 18421 18423 1 180.0000771 15.1670000 2
18417 18421 18419 18420 4 180.0000771 4.6024000 2
18419 18421 18423 18424 1 180.0000771 15.1670000 2
18419 18421 18423 18425 1 180.0000771 15.1670000 2
18422 18421 18423 18424 1 180.0000771 15.1670000 2
18422 18421 18423 18425 1 180.0000771 15.1670000 2
18419 18423 18421 18422 4 180.0000771 4.6024000 2
18416 18423 18425 18426 4 180.0000771 4.6024000 2
18421 18423 18425 18426 1 180.0000771 15.1670000 2
18424 18423 18425 18426 1 180.0000771 15.1670000 2
18416 18425 18423 18421 1 180.0000771 15.1670000 2
18416 18425 18423 18424 1 180.0000771 15.1670000 2
18421 18425 18423 18424 4 180.0000771 4.6024000 2
18427 18428 18429 18430 1 180.0000771 15.1670000 2
18427 18428 18429 18431 1 180.0000771 15.1670000 2
18430 18428 18429 18431 4 180.0000771 4.6024000 2
18427 18428 18437 18429 4 180.0000771 4.6024000 2
18427 18428 18437 18435 1 180.0000771 15.1670000 2
18427 18428 18437 18438 1 180.0000771 15.1670000 2
18429 18428 18437 18435 1 180.0000771 15.1670000 2
18429 18428 18437 18438 1 180.0000771 15.1670000 2
18430 18429 18428 18437 1 180.0000771 15.1670000 2
18431 18429 18428 18437 1 180.0000771 15.1670000 2
18428 18429 18431 18432 1 180.0000771 15.1670000 2
18428 18429 18431 18433 1 180.0000771 15.1670000 2
18430 18429 18431 18432 1 180.0000771 15.1670000 2
18430 18429 18431 18433 1 180.0000771 15.1670000 2
18429 18431 18433 18434 1 180.0000771 15.1670000 2
18429 18431 18433 18435 1 180.0000771 15.1670000 2
18432 18431 18433 18434 1 180.0000771 15.1670000 2
18432 18431 18433 18435 1 180.0000771 15.1670000 2
18429 18433 18431 18432 4 180.0000771 4.6024000 2
18431 18433 18435 18436 1 180.0000771 15.1670000 2
18431 18433 18435 18437 1 180.0000771 15.1670000 2
18434 18433 18435 18436 1 180.0000771 15.1670000 2
18434 18433 18435 18437 1 180.0000771 15.1670000 2
18431 18435 18433 18434 4 180.0000771 4.6024000 2
18428 18435 18437 18438 4 180.0000771 4.6024000 2
18433 18435 18437 18438 1 180.0000771 15.1670000 2
18436 18435 18437 18438 1 180.0000771 15.1670000 2
18428 18437 18435 18433 1 180.0000771 15.1670000 2
18428 18437 18435 18436 1 180.0000771 15.1670000 2
18433 18437 18435 18436 4 180.0000771 4.6024000 2
18439 18440 18441 18442 1 180.0000771 15.1670000 2
18439 18440 18441 18443 1 180.0000771 15.1670000 2
18442 18440 18441 18443 4 180.0000771 4.6024000 2
18439 18440 18449 18441 4 180.0000771 4.6024000 2
18439 18440 18449 18447 1 180.0000771 15.1670000 2
18439 18440 18449 18450 1 180.0000771 15.1670000 2
18441 18440 18449 18447 1 180.0000771 15.1670000 2
18441 18440 18449 18450 1 180.0000771 15.1670000 2
18442 18441 18440 18449 1 180.0000771 15.1670000 2
18443 18441 18440 18449 1 180.0000771 15.1670000 2
18440 18441 18443 18444 1 180.0000771 15.1670000 2
18440 18441 18443 18445 1 180.0000771 15.1670000 2
18442 18441 18443 18444 1 180.0000771 15.1670000 2
18442 18441 18443 18445 1 180.0000771 15.1670000 2
18441 18443 18445 18446 1 180.0000771 15.1670000 2
18441 18443 18445 18447 1 180.0000771 15.1670000 2
18444 18443 18445 18446 1 180.0000771 15.1670000 2
18444 18443 18445 18447 1 180.0000771 15.1670000 2
18441 18445 18443 18444 4 180.0000771 4.6024000 2
18443 18445 18447 18448 1 180.0000771 15.1670000 2
18443 18445 18447 18449 1 180.0000771 15.1670000 2
18446 18445 18447 18448 1 180.0000771 15.1670000 2
18446 18445 18447 18449 1 180.0000771 15.1670000 2
18443 18447 18445 18446 4 180.0000771 4.6024000 2
18440 18447 18449 18450 4 180.0000771 4.6024000 2
18445 18447 18449 18450 1 180.0000771 15.1670000 2
18448 18447 18449 18450 1 180.0000771 15.1670000 2
18440 18449 18447 18445 1 180.0000771 15.1670000 2
18440 18449 18447 18448 1 180.0000771 15.1670000 2
18445 18449 18447 18448 4 180.0000771 4.6024000 2
18451 18452 18453 18454 1 180.0000771 15.1670000 2
18451 18452 18453 18455 1 180.0000771 15.1670000 2
18454 18452 18453 18455 4 180.0000771 4.6024000 2
18451 18452 18461 18453 4 180.0000771 4.6024000 2
18451 18452 18461 18459 1 180.0000771 15.1670000 2
18451 18452 18461 18462 1 180.0000771 15.1670000 2
18453 18452 18461 18459 1 180.0000771 15.1670000 2
18453 18452 18461 18462 1 180.0000771 15.1670000 2
18454 18453 18452 18461 1 180.0000771 15.1670000 2
18455 18453 18452 18461 1 180.0000771 15.1670000 2
18452 18453 18455 18456 1 180.0000771 15.1670000 2
18452 18453 18455 18457 1 180.0000771 15.1670000 2
18454 18453 18455 18456 1 180.0000771 15.1670000 2
18454 18453 18455 18457 1 180.0000771 15.1670000 2
18453 18455 18457 18458 1 180.0000771 15.1670000 2
18453 18455 18457 18459 1 180.0000771 15.1670000 2
18456 18455 18457 18458 1 180.0000771 15.1670000 2
18456 18455 18457 18459 1 180.0000771 15.1670000 2
18453 18457 18455 18456 4 180.0000771 4.6024000 2
18455 18457 18459 18460 1 180.0000771 15.1670000 2
18455 18457 18459 18461 1 180.0000771 15.1670000 2
18458 18457 18459 18460 1 180.0000771 15.1670000 2
18458 18457 18459 18461 1 180.0000771 15.1670000 2
18455 18459 18457 18458 4 180.0000771 4.6024000 2
18452 18459 18461 18462 4 180.0000771 4.6024000 2
18457 18459 18461 18462 1 180.0000771 15.1670000 2
18460 18459 18461 18462 1 180.0000771 15.1670000 2
18452 18461 18459 18457 1 180.0000771 15.1670000 2
18452 18461 18459 18460 1 180.0000771 15.1670000 2
18457 18461 18459 18460 4 180.0000771 4.6024000 2
18463 18464 18465 18466 1 180.0000771 15.1670000 2
18463 18464 18465 18467 1 180.0000771 15.1670000 2
18466 18464 18465 18467 4 180.0000771 4.6024000 2
18463 18464 18473 18465 4 180.0000771 4.6024000 2
18463 18464 18473 18471 1 180.0000771 15.1670000 2
18463 18464 18473 18474 1 180.0000771 15.1670000 2
18465 18464 18473 18471 1 180.0000771 15.1670000 2
18465 18464 18473 18474 1 180.0000771 15.1670000 2
18466 18465 18464 18473 1 180.0000771 15.1670000 2
18467 18465 18464 18473 1 180.0000771 15.1670000 2
18464 18465 18467 18468 1 180.0000771 15.1670000 2
18464 18465 18467 18469 1 180.0000771 15.1670000 2
18466 18465 18467 18468 1 180.0000771 15.1670000 2
18466 18465 18467 18469 1 180.0000771 15.1670000 2
18465 18467 18469 18470 1 180.0000771 15.1670000 2
18465 18467 18469 18471 1 180.0000771 15.1670000 2
18468 18467 18469 18470 1 180.0000771 15.1670000 2
18468 18467 18469 18471 1 180.0000771 15.1670000 2
18465 18469 18467 18468 4 180.0000771 4.6024000 2
18467 18469 18471 18472 1 180.0000771 15.1670000 2
18467 18469 18471 18473 1 180.0000771 15.1670000 2
18470 18469 18471 18472 1 180.0000771 15.1670000 2
18470 18469 18471 18473 1 180.0000771 15.1670000 2
18467 18471 18469 18470 4 180.0000771 4.6024000 2
18464 18471 18473 18474 4 180.0000771 4.6024000 2
18469 18471 18473 18474 1 180.0000771 15.1670000 2
18472 18471 18473 18474 1 180.0000771 15.1670000 2
18464 18473 18471 18469 1 180.0000771 15.1670000 2
18464 18473 18471 18472 1 180.0000771 15.1670000 2
18469 18473 18471 18472 4 180.0000771 4.6024000 2
18475 18476 18477 18478 1 180.0000771 15.1670000 2
18475 18476 18477 18479 1 180.0000771 15.1670000 2
18478 18476 18477 18479 4 180.0000771 4.6024000 2
18475 18476 18485 18477 4 180.0000771 4.6024000 2
18475 18476 18485 18483 1 180.0000771 15.1670000 2
18475 18476 18485 18486 1 180.0000771 15.1670000 2
18477 18476 18485 18483 1 180.0000771 15.1670000 2
18477 18476 18485 18486 1 180.0000771 15.1670000 2
18478 18477 18476 18485 1 180.0000771 15.1670000 2
18479 18477 18476 18485 1 180.0000771 15.1670000 2
18476 18477 18479 18480 1 180.0000771 15.1670000 2
18476 18477 18479 18481 1 180.0000771 15.1670000 2
18478 18477 18479 18480 1 180.0000771 15.1670000 2
18478 18477 18479 18481 1 180.0000771 15.1670000 2
18477 18479 18481 18482 1 180.0000771 15.1670000 2
18477 18479 18481 18483 1 180.0000771 15.1670000 2
18480 18479 18481 18482 1 180.0000771 15.1670000 2
18480 18479 18481 18483 1 180.0000771 15.1670000 2
18477 18481 18479 18480 4 180.0000771 4.6024000 2
18479 18481 18483 18484 1 180.0000771 15.1670000 2
18479 18481 18483 18485 1 180.0000771 15.1670000 2
18482 18481 18483 18484 1 180.0000771 15.1670000 2
18482 18481 18483 18485 1 180.0000771 15.1670000 2
18479 18483 18481 18482 4 180.0000771 4.6024000 2
18476 18483 18485 18486 4 180.0000771 4.6024000 2
18481 18483 18485 18486 1 180.0000771 15.1670000 2
18484 18483 18485 18486 1 180.0000771 15.1670000 2
18476 18485 18483 18481 1 180.0000771 15.1670000 2
18476 18485 18483 18484 1 180.0000771 15.1670000 2
18481 18485 18483 18484 4 180.0000771 4.6024000 2
18487 18488 18489 18490 1 180.0000771 15.1670000 2
18487 18488 18489 18491 1 180.0000771 15.1670000 2
18490 18488 18489 18491 4 180.0000771 4.6024000 2
18487 18488 18497 18489 4 180.0000771 4.6024000 2
18487 18488 18497 18495 1 180.0000771 15.1670000 2
18487 18488 18497 18498 1 180.0000771 15.1670000 2
18489 18488 18497 18495 1 180.0000771 15.1670000 2
18489 18488 18497 18498 1 180.0000771 15.1670000 2
18490 18489 18488 18497 1 180.0000771 15.1670000 2
18491 18489 18488 18497 1 180.0000771 15.1670000 2
18488 18489 18491 18492 1 180.0000771 15.1670000 2
18488 18489 18491 18493 1 180.0000771 15.1670000 2
18490 18489 18491 18492 1 180.0000771 15.1670000 2
18490 18489 18491 18493 1 180.0000771 15.1670000 2
18489 18491 18493 18494 1 180.0000771 15.1670000 2
18489 18491 18493 18495 1 180.0000771 15.1670000 2
18492 18491 18493 18494 1 180.0000771 15.1670000 2
18492 18491 18493 18495 1 180.0000771 15.1670000 2
18489 18493 18491 18492 4 180.0000771 4.6024000 2
18491 18493 18495 18496 1 180.0000771 15.1670000 2
18491 18493 18495 18497 1 180.0000771 15.1670000 2
18494 18493 18495 18496 1 180.0000771 15.1670000 2
18494 18493 18495 18497 1 180.0000771 15.1670000 2
18491 18495 18493 18494 4 180.0000771 4.6024000 2
18488 18495 18497 18498 4 180.0000771 4.6024000 2
18493 18495 18497 18498 1 180.0000771 15.1670000 2
18496 18495 18497 18498 1 180.0000771 15.1670000 2
18488 18497 18495 18493 1 180.0000771 15.1670000 2
18488 18497 18495 18496 1 180.0000771 15.1670000 2
18493 18497 18495 18496 4 180.0000771 4.6024000 2
18499 18500 18501 18502 1 180.0000771 15.1670000 2
18499 18500 18501 18503 1 180.0000771 15.1670000 2
18502 18500 18501 18503 4 180.0000771 4.6024000 2
18499 18500 18509 18501 4 180.0000771 4.6024000 2
18499 18500 18509 18507 1 180.0000771 15.1670000 2
18499 18500 18509 18510 1 180.0000771 15.1670000 2
18501 18500 18509 18507 1 180.0000771 15.1670000 2
18501 18500 18509 18510 1 180.0000771 15.1670000 2
18502 18501 18500 18509 1 180.0000771 15.1670000 2
18503 18501 18500 18509 1 180.0000771 15.1670000 2
18500 18501 18503 18504 1 180.0000771 15.1670000 2
18500 18501 18503 18505 1 180.0000771 15.1670000 2
18502 18501 18503 18504 1 180.0000771 15.1670000 2
18502 18501 18503 18505 1 180.0000771 15.1670000 2
18501 18503 18505 18506 1 180.0000771 15.1670000 2
18501 18503 18505 18507 1 180.0000771 15.1670000 2
18504 18503 18505 18506 1 180.0000771 15.1670000 2
18504 18503 18505 18507 1 180.0000771 15.1670000 2
18501 18505 18503 18504 4 180.0000771 4.6024000 2
18503 18505 18507 18508 1 180.0000771 15.1670000 2
18503 18505 18507 18509 1 180.0000771 15.1670000 2
18506 18505 18507 18508 1 180.0000771 15.1670000 2
18506 18505 18507 18509 1 180.0000771 15.1670000 2
18503 18507 18505 18506 4 180.0000771 4.6024000 2
18500 18507 18509 18510 4 180.0000771 4.6024000 2
18505 18507 18509 18510 1 180.0000771 15.1670000 2
18508 18507 18509 18510 1 180.0000771 15.1670000 2
18500 18509 18507 18505 1 180.0000771 15.1670000 2
18500 18509 18507 18508 1 180.0000771 15.1670000 2
18505 18509 18507 18508 4 180.0000771 4.6024000 2
18511 18512 18513 18514 1 180.0000771 15.1670000 2
18511 18512 18513 18515 1 180.0000771 15.1670000 2
18514 18512 18513 18515 4 180.0000771 4.6024000 2
18511 18512 18521 18513 4 180.0000771 4.6024000 2
18511 18512 18521 18519 1 180.0000771 15.1670000 2
18511 18512 18521 18522 1 180.0000771 15.1670000 2
18513 18512 18521 18519 1 180.0000771 15.1670000 2
18513 18512 18521 18522 1 180.0000771 15.1670000 2
18514 18513 18512 18521 1 180.0000771 15.1670000 2
18515 18513 18512 18521 1 180.0000771 15.1670000 2
18512 18513 18515 18516 1 180.0000771 15.1670000 2
18512 18513 18515 18517 1 180.0000771 15.1670000 2
18514 18513 18515 18516 1 180.0000771 15.1670000 2
18514 18513 18515 18517 1 180.0000771 15.1670000 2
18513 18515 18517 18518 1 180.0000771 15.1670000 2
18513 18515 18517 18519 1 180.0000771 15.1670000 2
18516 18515 18517 18518 1 180.0000771 15.1670000 2
18516 18515 18517 18519 1 180.0000771 15.1670000 2
18513 18517 18515 18516 4 180.0000771 4.6024000 2
18515 18517 18519 18520 1 180.0000771 15.1670000 2
18515 18517 18519 18521 1 180.0000771 15.1670000 2
18518 18517 18519 18520 1 180.0000771 15.1670000 2
18518 18517 18519 18521 1 180.0000771 15.1670000 2
18515 18519 18517 18518 4 180.0000771 4.6024000 2
18512 18519 18521 18522 4 180.0000771 4.6024000 2
18517 18519 18521 18522 1 180.0000771 15.1670000 2
18520 18519 18521 18522 1 180.0000771 15.1670000 2
18512 18521 18519 18517 1 180.0000771 15.1670000 2
18512 18521 18519 18520 1 180.0000771 15.1670000 2
18517 18521 18519 18520 4 180.0000771 4.6024000 2
18523 18524 18525 18526 1 180.0000771 15.1670000 2
18523 18524 18525 18527 1 180.0000771 15.1670000 2
18526 18524 18525 18527 4 180.0000771 4.6024000 2
18523 18524 18533 18525 4 180.0000771 4.6024000 2
18523 18524 18533 18531 1 180.0000771 15.1670000 2
18523 18524 18533 18534 1 180.0000771 15.1670000 2
18525 18524 18533 18531 1 180.0000771 15.1670000 2
18525 18524 18533 18534 1 180.0000771 15.1670000 2
18526 18525 18524 18533 1 180.0000771 15.1670000 2
18527 18525 18524 18533 1 180.0000771 15.1670000 2
18524 18525 18527 18528 1 180.0000771 15.1670000 2
18524 18525 18527 18529 1 180.0000771 15.1670000 2
18526 18525 18527 18528 1 180.0000771 15.1670000 2
18526 18525 18527 18529 1 180.0000771 15.1670000 2
18525 18527 18529 18530 1 180.0000771 15.1670000 2
18525 18527 18529 18531 1 180.0000771 15.1670000 2
18528 18527 18529 18530 1 180.0000771 15.1670000 2
18528 18527 18529 18531 1 180.0000771 15.1670000 2
18525 18529 18527 18528 4 180.0000771 4.6024000 2
18527 18529 18531 18532 1 180.0000771 15.1670000 2
18527 18529 18531 18533 1 180.0000771 15.1670000 2
18530 18529 18531 18532 1 180.0000771 15.1670000 2
18530 18529 18531 18533 1 180.0000771 15.1670000 2
18527 18531 18529 18530 4 180.0000771 4.6024000 2
18524 18531 18533 18534 4 180.0000771 4.6024000 2
18529 18531 18533 18534 1 180.0000771 15.1670000 2
18532 18531 18533 18534 1 180.0000771 15.1670000 2
18524 18533 18531 18529 1 180.0000771 15.1670000 2
18524 18533 18531 18532 1 180.0000771 15.1670000 2
18529 18533 18531 18532 4 180.0000771 4.6024000 2
18535 18536 18537 18538 1 180.0000771 15.1670000 2
18535 18536 18537 18539 1 180.0000771 15.1670000 2
18538 18536 18537 18539 4 180.0000771 4.6024000 2
18535 18536 18545 18537 4 180.0000771 4.6024000 2
18535 18536 18545 18543 1 180.0000771 15.1670000 2
18535 18536 18545 18546 1 180.0000771 15.1670000 2
18537 18536 18545 18543 1 180.0000771 15.1670000 2
18537 18536 18545 18546 1 180.0000771 15.1670000 2
18538 18537 18536 18545 1 180.0000771 15.1670000 2
18539 18537 18536 18545 1 180.0000771 15.1670000 2
18536 18537 18539 18540 1 180.0000771 15.1670000 2
18536 18537 18539 18541 1 180.0000771 15.1670000 2
18538 18537 18539 18540 1 180.0000771 15.1670000 2
18538 18537 18539 18541 1 180.0000771 15.1670000 2
18537 18539 18541 18542 1 180.0000771 15.1670000 2
18537 18539 18541 18543 1 180.0000771 15.1670000 2
18540 18539 18541 18542 1 180.0000771 15.1670000 2
18540 18539 18541 18543 1 180.0000771 15.1670000 2
18537 18541 18539 18540 4 180.0000771 4.6024000 2
18539 18541 18543 18544 1 180.0000771 15.1670000 2
18539 18541 18543 18545 1 180.0000771 15.1670000 2
18542 18541 18543 18544 1 180.0000771 15.1670000 2
18542 18541 18543 18545 1 180.0000771 15.1670000 2
18539 18543 18541 18542 4 180.0000771 4.6024000 2
18536 18543 18545 18546 4 180.0000771 4.6024000 2
18541 18543 18545 18546 1 180.0000771 15.1670000 2
18544 18543 18545 18546 1 180.0000771 15.1670000 2
18536 18545 18543 18541 1 180.0000771 15.1670000 2
18536 18545 18543 18544 1 180.0000771 15.1670000 2
18541 18545 18543 18544 4 180.0000771 4.6024000 2
18547 18548 18549 18550 1 180.0000771 15.1670000 2
18547 18548 18549 18551 1 180.0000771 15.1670000 2
18550 18548 18549 18551 4 180.0000771 4.6024000 2
18547 18548 18557 18549 4 180.0000771 4.6024000 2
18547 18548 18557 18555 1 180.0000771 15.1670000 2
18547 18548 18557 18558 1 180.0000771 15.1670000 2
18549 18548 18557 18555 1 180.0000771 15.1670000 2
18549 18548 18557 18558 1 180.0000771 15.1670000 2
18550 18549 18548 18557 1 180.0000771 15.1670000 2
18551 18549 18548 18557 1 180.0000771 15.1670000 2
18548 18549 18551 18552 1 180.0000771 15.1670000 2
18548 18549 18551 18553 1 180.0000771 15.1670000 2
18550 18549 18551 18552 1 180.0000771 15.1670000 2
18550 18549 18551 18553 1 180.0000771 15.1670000 2
18549 18551 18553 18554 1 180.0000771 15.1670000 2
18549 18551 18553 18555 1 180.0000771 15.1670000 2
18552 18551 18553 18554 1 180.0000771 15.1670000 2
18552 18551 18553 18555 1 180.0000771 15.1670000 2
18549 18553 18551 18552 4 180.0000771 4.6024000 2
18551 18553 18555 18556 1 180.0000771 15.1670000 2
18551 18553 18555 18557 1 180.0000771 15.1670000 2
18554 18553 18555 18556 1 180.0000771 15.1670000 2
18554 18553 18555 18557 1 180.0000771 15.1670000 2
18551 18555 18553 18554 4 180.0000771 4.6024000 2
18548 18555 18557 18558 4 180.0000771 4.6024000 2
18553 18555 18557 18558 1 180.0000771 15.1670000 2
18556 18555 18557 18558 1 180.0000771 15.1670000 2
18548 18557 18555 18553 1 180.0000771 15.1670000 2
18548 18557 18555 18556 1 180.0000771 15.1670000 2
18553 18557 18555 18556 4 180.0000771 4.6024000 2
18559 18560 18561 18562 1 180.0000771 15.1670000 2
18559 18560 18561 18563 1 180.0000771 15.1670000 2
18562 18560 18561 18563 4 180.0000771 4.6024000 2
18559 18560 18569 18561 4 180.0000771 4.6024000 2
18559 18560 18569 18567 1 180.0000771 15.1670000 2
18559 18560 18569 18570 1 180.0000771 15.1670000 2
18561 18560 18569 18567 1 180.0000771 15.1670000 2
18561 18560 18569 18570 1 180.0000771 15.1670000 2
18562 18561 18560 18569 1 180.0000771 15.1670000 2
18563 18561 18560 18569 1 180.0000771 15.1670000 2
18560 18561 18563 18564 1 180.0000771 15.1670000 2
18560 18561 18563 18565 1 180.0000771 15.1670000 2
18562 18561 18563 18564 1 180.0000771 15.1670000 2
18562 18561 18563 18565 1 180.0000771 15.1670000 2
18561 18563 18565 18566 1 180.0000771 15.1670000 2
18561 18563 18565 18567 1 180.0000771 15.1670000 2
18564 18563 18565 18566 1 180.0000771 15.1670000 2
18564 18563 18565 18567 1 180.0000771 15.1670000 2
18561 18565 18563 18564 4 180.0000771 4.6024000 2
18563 18565 18567 18568 1 180.0000771 15.1670000 2
18563 18565 18567 18569 1 180.0000771 15.1670000 2
18566 18565 18567 18568 1 180.0000771 15.1670000 2
18566 18565 18567 18569 1 180.0000771 15.1670000 2
18563 18567 18565 18566 4 180.0000771 4.6024000 2
18560 18567 18569 18570 4 180.0000771 4.6024000 2
18565 18567 18569 18570 1 180.0000771 15.1670000 2
18568 18567 18569 18570 1 180.0000771 15.1670000 2
18560 18569 18567 18565 1 180.0000771 15.1670000 2
18560 18569 18567 18568 1 180.0000771 15.1670000 2
18565 18569 18567 18568 4 180.0000771 4.6024000 2
18571 18572 18573 18574 1 180.0000771 15.1670000 2
18571 18572 18573 18575 1 180.0000771 15.1670000 2
18574 18572 18573 18575 4 180.0000771 4.6024000 2
18571 18572 18581 18573 4 180.0000771 4.6024000 2
18571 18572 18581 18579 1 180.0000771 15.1670000 2
18571 18572 18581 18582 1 180.0000771 15.1670000 2
18573 18572 18581 18579 1 180.0000771 15.1670000 2
18573 18572 18581 18582 1 180.0000771 15.1670000 2
18574 18573 18572 18581 1 180.0000771 15.1670000 2
18575 18573 18572 18581 1 180.0000771 15.1670000 2
18572 18573 18575 18576 1 180.0000771 15.1670000 2
18572 18573 18575 18577 1 180.0000771 15.1670000 2
18574 18573 18575 18576 1 180.0000771 15.1670000 2
18574 18573 18575 18577 1 180.0000771 15.1670000 2
18573 18575 18577 18578 1 180.0000771 15.1670000 2
18573 18575 18577 18579 1 180.0000771 15.1670000 2
18576 18575 18577 18578 1 180.0000771 15.1670000 2
18576 18575 18577 18579 1 180.0000771 15.1670000 2
18573 18577 18575 18576 4 180.0000771 4.6024000 2
18575 18577 18579 18580 1 180.0000771 15.1670000 2
18575 18577 18579 18581 1 180.0000771 15.1670000 2
18578 18577 18579 18580 1 180.0000771 15.1670000 2
18578 18577 18579 18581 1 180.0000771 15.1670000 2
18575 18579 18577 18578 4 180.0000771 4.6024000 2
18572 18579 18581 18582 4 180.0000771 4.6024000 2
18577 18579 18581 18582 1 180.0000771 15.1670000 2
18580 18579 18581 18582 1 180.0000771 15.1670000 2
18572 18581 18579 18577 1 180.0000771 15.1670000 2
18572 18581 18579 18580 1 180.0000771 15.1670000 2
18577 18581 18579 18580 4 180.0000771 4.6024000 2
18583 18584 18585 18586 1 180.0000771 15.1670000 2
18583 18584 18585 18587 1 180.0000771 15.1670000 2
18586 18584 18585 18587 4 180.0000771 4.6024000 2
18583 18584 18593 18585 4 180.0000771 4.6024000 2
18583 18584 18593 18591 1 180.0000771 15.1670000 2
18583 18584 18593 18594 1 180.0000771 15.1670000 2
18585 18584 18593 18591 1 180.0000771 15.1670000 2
18585 18584 18593 18594 1 180.0000771 15.1670000 2
18586 18585 18584 18593 1 180.0000771 15.1670000 2
18587 18585 18584 18593 1 180.0000771 15.1670000 2
18584 18585 18587 18588 1 180.0000771 15.1670000 2
18584 18585 18587 18589 1 180.0000771 15.1670000 2
18586 18585 18587 18588 1 180.0000771 15.1670000 2
18586 18585 18587 18589 1 180.0000771 15.1670000 2
18585 18587 18589 18590 1 180.0000771 15.1670000 2
18585 18587 18589 18591 1 180.0000771 15.1670000 2
18588 18587 18589 18590 1 180.0000771 15.1670000 2
18588 18587 18589 18591 1 180.0000771 15.1670000 2
18585 18589 18587 18588 4 180.0000771 4.6024000 2
18587 18589 18591 18592 1 180.0000771 15.1670000 2
18587 18589 18591 18593 1 180.0000771 15.1670000 2
18590 18589 18591 18592 1 180.0000771 15.1670000 2
18590 18589 18591 18593 1 180.0000771 15.1670000 2
18587 18591 18589 18590 4 180.0000771 4.6024000 2
18584 18591 18593 18594 4 180.0000771 4.6024000 2
18589 18591 18593 18594 1 180.0000771 15.1670000 2
18592 18591 18593 18594 1 180.0000771 15.1670000 2
18584 18593 18591 18589 1 180.0000771 15.1670000 2
18584 18593 18591 18592 1 180.0000771 15.1670000 2
18589 18593 18591 18592 4 180.0000771 4.6024000 2
18595 18596 18597 18598 1 180.0000771 15.1670000 2
18595 18596 18597 18599 1 180.0000771 15.1670000 2
18598 18596 18597 18599 4 180.0000771 4.6024000 2
18595 18596 18605 18597 4 180.0000771 4.6024000 2
18595 18596 18605 18603 1 180.0000771 15.1670000 2
18595 18596 18605 18606 1 180.0000771 15.1670000 2
18597 18596 18605 18603 1 180.0000771 15.1670000 2
18597 18596 18605 18606 1 180.0000771 15.1670000 2
18598 18597 18596 18605 1 180.0000771 15.1670000 2
18599 18597 18596 18605 1 180.0000771 15.1670000 2
18596 18597 18599 18600 1 180.0000771 15.1670000 2
18596 18597 18599 18601 1 180.0000771 15.1670000 2
18598 18597 18599 18600 1 180.0000771 15.1670000 2
18598 18597 18599 18601 1 180.0000771 15.1670000 2
18597 18599 18601 18602 1 180.0000771 15.1670000 2
18597 18599 18601 18603 1 180.0000771 15.1670000 2
18600 18599 18601 18602 1 180.0000771 15.1670000 2
18600 18599 18601 18603 1 180.0000771 15.1670000 2
18597 18601 18599 18600 4 180.0000771 4.6024000 2
18599 18601 18603 18604 1 180.0000771 15.1670000 2
18599 18601 18603 18605 1 180.0000771 15.1670000 2
18602 18601 18603 18604 1 180.0000771 15.1670000 2
18602 18601 18603 18605 1 180.0000771 15.1670000 2
18599 18603 18601 18602 4 180.0000771 4.6024000 2
18596 18603 18605 18606 4 180.0000771 4.6024000 2
18601 18603 18605 18606 1 180.0000771 15.1670000 2
18604 18603 18605 18606 1 180.0000771 15.1670000 2
18596 18605 18603 18601 1 180.0000771 15.1670000 2
18596 18605 18603 18604 1 180.0000771 15.1670000 2
18601 18605 18603 18604 4 180.0000771 4.6024000 2
18607 18608 18609 18610 1 180.0000771 15.1670000 2
18607 18608 18609 18611 1 180.0000771 15.1670000 2
18610 18608 18609 18611 4 180.0000771 4.6024000 2
18607 18608 18617 18609 4 180.0000771 4.6024000 2
18607 18608 18617 18615 1 180.0000771 15.1670000 2
18607 18608 18617 18618 1 180.0000771 15.1670000 2
18609 18608 18617 18615 1 180.0000771 15.1670000 2
18609 18608 18617 18618 1 180.0000771 15.1670000 2
18610 18609 18608 18617 1 180.0000771 15.1670000 2
18611 18609 18608 18617 1 180.0000771 15.1670000 2
18608 18609 18611 18612 1 180.0000771 15.1670000 2
18608 18609 18611 18613 1 180.0000771 15.1670000 2
18610 18609 18611 18612 1 180.0000771 15.1670000 2
18610 18609 18611 18613 1 180.0000771 15.1670000 2
18609 18611 18613 18614 1 180.0000771 15.1670000 2
18609 18611 18613 18615 1 180.0000771 15.1670000 2
18612 18611 18613 18614 1 180.0000771 15.1670000 2
18612 18611 18613 18615 1 180.0000771 15.1670000 2
18609 18613 18611 18612 4 180.0000771 4.6024000 2
18611 18613 18615 18616 1 180.0000771 15.1670000 2
18611 18613 18615 18617 1 180.0000771 15.1670000 2
18614 18613 18615 18616 1 180.0000771 15.1670000 2
18614 18613 18615 18617 1 180.0000771 15.1670000 2
18611 18615 18613 18614 4 180.0000771 4.6024000 2
18608 18615 18617 18618 4 180.0000771 4.6024000 2
18613 18615 18617 18618 1 180.0000771 15.1670000 2
18616 18615 18617 18618 1 180.0000771 15.1670000 2
18608 18617 18615 18613 1 180.0000771 15.1670000 2
18608 18617 18615 18616 1 180.0000771 15.1670000 2
18613 18617 18615 18616 4 180.0000771 4.6024000 2
18619 18620 18621 18622 1 180.0000771 15.1670000 2
18619 18620 18621 18623 1 180.0000771 15.1670000 2
18622 18620 18621 18623 4 180.0000771 4.6024000 2
18619 18620 18629 18621 4 180.0000771 4.6024000 2
18619 18620 18629 18627 1 180.0000771 15.1670000 2
18619 18620 18629 18630 1 180.0000771 15.1670000 2
18621 18620 18629 18627 1 180.0000771 15.1670000 2
18621 18620 18629 18630 1 180.0000771 15.1670000 2
18622 18621 18620 18629 1 180.0000771 15.1670000 2
18623 18621 18620 18629 1 180.0000771 15.1670000 2
18620 18621 18623 18624 1 180.0000771 15.1670000 2
18620 18621 18623 18625 1 180.0000771 15.1670000 2
18622 18621 18623 18624 1 180.0000771 15.1670000 2
18622 18621 18623 18625 1 180.0000771 15.1670000 2
18621 18623 18625 18626 1 180.0000771 15.1670000 2
18621 18623 18625 18627 1 180.0000771 15.1670000 2
18624 18623 18625 18626 1 180.0000771 15.1670000 2
18624 18623 18625 18627 1 180.0000771 15.1670000 2
18621 18625 18623 18624 4 180.0000771 4.6024000 2
18623 18625 18627 18628 1 180.0000771 15.1670000 2
18623 18625 18627 18629 1 180.0000771 15.1670000 2
18626 18625 18627 18628 1 180.0000771 15.1670000 2
18626 18625 18627 18629 1 180.0000771 15.1670000 2
18623 18627 18625 18626 4 180.0000771 4.6024000 2
18620 18627 18629 18630 4 180.0000771 4.6024000 2
18625 18627 18629 18630 1 180.0000771 15.1670000 2
18628 18627 18629 18630 1 180.0000771 15.1670000 2
18620 18629 18627 18625 1 180.0000771 15.1670000 2
18620 18629 18627 18628 1 180.0000771 15.1670000 2
18625 18629 18627 18628 4 180.0000771 4.6024000 2
18631 18632 18633 18634 1 180.0000771 15.1670000 2
18631 18632 18633 18635 1 180.0000771 15.1670000 2
18634 18632 18633 18635 4 180.0000771 4.6024000 2
18631 18632 18641 18633 4 180.0000771 4.6024000 2
18631 18632 18641 18639 1 180.0000771 15.1670000 2
18631 18632 18641 18642 1 180.0000771 15.1670000 2
18633 18632 18641 18639 1 180.0000771 15.1670000 2
18633 18632 18641 18642 1 180.0000771 15.1670000 2
18634 18633 18632 18641 1 180.0000771 15.1670000 2
18635 18633 18632 18641 1 180.0000771 15.1670000 2
18632 18633 18635 18636 1 180.0000771 15.1670000 2
18632 18633 18635 18637 1 180.0000771 15.1670000 2
18634 18633 18635 18636 1 180.0000771 15.1670000 2
18634 18633 18635 18637 1 180.0000771 15.1670000 2
18633 18635 18637 18638 1 180.0000771 15.1670000 2
18633 18635 18637 18639 1 180.0000771 15.1670000 2
18636 18635 18637 18638 1 180.0000771 15.1670000 2
18636 18635 18637 18639 1 180.0000771 15.1670000 2
18633 18637 18635 18636 4 180.0000771 4.6024000 2
18635 18637 18639 18640 1 180.0000771 15.1670000 2
18635 18637 18639 18641 1 180.0000771 15.1670000 2
18638 18637 18639 18640 1 180.0000771 15.1670000 2
18638 18637 18639 18641 1 180.0000771 15.1670000 2
18635 18639 18637 18638 4 180.0000771 4.6024000 2
18632 18639 18641 18642 4 180.0000771 4.6024000 2
18637 18639 18641 18642 1 180.0000771 15.1670000 2
18640 18639 18641 18642 1 180.0000771 15.1670000 2
18632 18641 18639 18637 1 180.0000771 15.1670000 2
18632 18641 18639 18640 1 180.0000771 15.1670000 2
18637 18641 18639 18640 4 180.0000771 4.6024000 2
18643 18644 18645 18646 1 180.0000771 15.1670000 2
18643 18644 18645 18647 1 180.0000771 15.1670000 2
18646 18644 18645 18647 4 180.0000771 4.6024000 2
18643 18644 18653 18645 4 180.0000771 4.6024000 2
18643 18644 18653 18651 1 180.0000771 15.1670000 2
18643 18644 18653 18654 1 180.0000771 15.1670000 2
18645 18644 18653 18651 1 180.0000771 15.1670000 2
18645 18644 18653 18654 1 180.0000771 15.1670000 2
18646 18645 18644 18653 1 180.0000771 15.1670000 2
18647 18645 18644 18653 1 180.0000771 15.1670000 2
18644 18645 18647 18648 1 180.0000771 15.1670000 2
18644 18645 18647 18649 1 180.0000771 15.1670000 2
18646 18645 18647 18648 1 180.0000771 15.1670000 2
18646 18645 18647 18649 1 180.0000771 15.1670000 2
18645 18647 18649 18650 1 180.0000771 15.1670000 2
18645 18647 18649 18651 1 180.0000771 15.1670000 2
18648 18647 18649 18650 1 180.0000771 15.1670000 2
18648 18647 18649 18651 1 180.0000771 15.1670000 2
18645 18649 18647 18648 4 180.0000771 4.6024000 2
18647 18649 18651 18652 1 180.0000771 15.1670000 2
18647 18649 18651 18653 1 180.0000771 15.1670000 2
18650 18649 18651 18652 1 180.0000771 15.1670000 2
18650 18649 18651 18653 1 180.0000771 15.1670000 2
18647 18651 18649 18650 4 180.0000771 4.6024000 2
18644 18651 18653 18654 4 180.0000771 4.6024000 2
18649 18651 18653 18654 1 180.0000771 15.1670000 2
18652 18651 18653 18654 1 180.0000771 15.1670000 2
18644 18653 18651 18649 1 180.0000771 15.1670000 2
18644 18653 18651 18652 1 180.0000771 15.1670000 2
18649 18653 18651 18652 4 180.0000771 4.6024000 2
18655 18656 18657 18658 1 180.0000771 15.1670000 2
18655 18656 18657 18659 1 180.0000771 15.1670000 2
18658 18656 18657 18659 4 180.0000771 4.6024000 2
18655 18656 18665 18657 4 180.0000771 4.6024000 2
18655 18656 18665 18663 1 180.0000771 15.1670000 2
18655 18656 18665 18666 1 180.0000771 15.1670000 2
18657 18656 18665 18663 1 180.0000771 15.1670000 2
18657 18656 18665 18666 1 180.0000771 15.1670000 2
18658 18657 18656 18665 1 180.0000771 15.1670000 2
18659 18657 18656 18665 1 180.0000771 15.1670000 2
18656 18657 18659 18660 1 180.0000771 15.1670000 2
18656 18657 18659 18661 1 180.0000771 15.1670000 2
18658 18657 18659 18660 1 180.0000771 15.1670000 2
18658 18657 18659 18661 1 180.0000771 15.1670000 2
18657 18659 18661 18662 1 180.0000771 15.1670000 2
18657 18659 18661 18663 1 180.0000771 15.1670000 2
18660 18659 18661 18662 1 180.0000771 15.1670000 2
18660 18659 18661 18663 1 180.0000771 15.1670000 2
18657 18661 18659 18660 4 180.0000771 4.6024000 2
18659 18661 18663 18664 1 180.0000771 15.1670000 2
18659 18661 18663 18665 1 180.0000771 15.1670000 2
18662 18661 18663 18664 1 180.0000771 15.1670000 2
18662 18661 18663 18665 1 180.0000771 15.1670000 2
18659 18663 18661 18662 4 180.0000771 4.6024000 2
18656 18663 18665 18666 4 180.0000771 4.6024000 2
18661 18663 18665 18666 1 180.0000771 15.1670000 2
18664 18663 18665 18666 1 180.0000771 15.1670000 2
18656 18665 18663 18661 1 180.0000771 15.1670000 2
18656 18665 18663 18664 1 180.0000771 15.1670000 2
18661 18665 18663 18664 4 180.0000771 4.6024000 2
18667 18668 18669 18670 1 180.0000771 15.1670000 2
18667 18668 18669 18671 1 180.0000771 15.1670000 2
18670 18668 18669 18671 4 180.0000771 4.6024000 2
18667 18668 18677 18669 4 180.0000771 4.6024000 2
18667 18668 18677 18675 1 180.0000771 15.1670000 2
18667 18668 18677 18678 1 180.0000771 15.1670000 2
18669 18668 18677 18675 1 180.0000771 15.1670000 2
18669 18668 18677 18678 1 180.0000771 15.1670000 2
18670 18669 18668 18677 1 180.0000771 15.1670000 2
18671 18669 18668 18677 1 180.0000771 15.1670000 2
18668 18669 18671 18672 1 180.0000771 15.1670000 2
18668 18669 18671 18673 1 180.0000771 15.1670000 2
18670 18669 18671 18672 1 180.0000771 15.1670000 2
18670 18669 18671 18673 1 180.0000771 15.1670000 2
18669 18671 18673 18674 1 180.0000771 15.1670000 2
18669 18671 18673 18675 1 180.0000771 15.1670000 2
18672 18671 18673 18674 1 180.0000771 15.1670000 2
18672 18671 18673 18675 1 180.0000771 15.1670000 2
18669 18673 18671 18672 4 180.0000771 4.6024000 2
18671 18673 18675 18676 1 180.0000771 15.1670000 2
18671 18673 18675 18677 1 180.0000771 15.1670000 2
18674 18673 18675 18676 1 180.0000771 15.1670000 2
18674 18673 18675 18677 1 180.0000771 15.1670000 2
18671 18675 18673 18674 4 180.0000771 4.6024000 2
18668 18675 18677 18678 4 180.0000771 4.6024000 2
18673 18675 18677 18678 1 180.0000771 15.1670000 2
18676 18675 18677 18678 1 180.0000771 15.1670000 2
18668 18677 18675 18673 1 180.0000771 15.1670000 2
18668 18677 18675 18676 1 180.0000771 15.1670000 2
18673 18677 18675 18676 4 180.0000771 4.6024000 2
18679 18680 18681 18682 1 180.0000771 15.1670000 2
18679 18680 18681 18683 1 180.0000771 15.1670000 2
18682 18680 18681 18683 4 180.0000771 4.6024000 2
18679 18680 18689 18681 4 180.0000771 4.6024000 2
18679 18680 18689 18687 1 180.0000771 15.1670000 2
18679 18680 18689 18690 1 180.0000771 15.1670000 2
18681 18680 18689 18687 1 180.0000771 15.1670000 2
18681 18680 18689 18690 1 180.0000771 15.1670000 2
18682 18681 18680 18689 1 180.0000771 15.1670000 2
18683 18681 18680 18689 1 180.0000771 15.1670000 2
18680 18681 18683 18684 1 180.0000771 15.1670000 2
18680 18681 18683 18685 1 180.0000771 15.1670000 2
18682 18681 18683 18684 1 180.0000771 15.1670000 2
18682 18681 18683 18685 1 180.0000771 15.1670000 2
18681 18683 18685 18686 1 180.0000771 15.1670000 2
18681 18683 18685 18687 1 180.0000771 15.1670000 2
18684 18683 18685 18686 1 180.0000771 15.1670000 2
18684 18683 18685 18687 1 180.0000771 15.1670000 2
18681 18685 18683 18684 4 180.0000771 4.6024000 2
18683 18685 18687 18688 1 180.0000771 15.1670000 2
18683 18685 18687 18689 1 180.0000771 15.1670000 2
18686 18685 18687 18688 1 180.0000771 15.1670000 2
18686 18685 18687 18689 1 180.0000771 15.1670000 2
18683 18687 18685 18686 4 180.0000771 4.6024000 2
18680 18687 18689 18690 4 180.0000771 4.6024000 2
18685 18687 18689 18690 1 180.0000771 15.1670000 2
18688 18687 18689 18690 1 180.0000771 15.1670000 2
18680 18689 18687 18685 1 180.0000771 15.1670000 2
18680 18689 18687 18688 1 180.0000771 15.1670000 2
18685 18689 18687 18688 4 180.0000771 4.6024000 2
18691 18692 18693 18694 1 180.0000771 15.1670000 2
18691 18692 18693 18695 1 180.0000771 15.1670000 2
18694 18692 18693 18695 4 180.0000771 4.6024000 2
18691 18692 18701 18693 4 180.0000771 4.6024000 2
18691 18692 18701 18699 1 180.0000771 15.1670000 2
18691 18692 18701 18702 1 180.0000771 15.1670000 2
18693 18692 18701 18699 1 180.0000771 15.1670000 2
18693 18692 18701 18702 1 180.0000771 15.1670000 2
18694 18693 18692 18701 1 180.0000771 15.1670000 2
18695 18693 18692 18701 1 180.0000771 15.1670000 2
18692 18693 18695 18696 1 180.0000771 15.1670000 2
18692 18693 18695 18697 1 180.0000771 15.1670000 2
18694 18693 18695 18696 1 180.0000771 15.1670000 2
18694 18693 18695 18697 1 180.0000771 15.1670000 2
18693 18695 18697 18698 1 180.0000771 15.1670000 2
18693 18695 18697 18699 1 180.0000771 15.1670000 2
18696 18695 18697 18698 1 180.0000771 15.1670000 2
18696 18695 18697 18699 1 180.0000771 15.1670000 2
18693 18697 18695 18696 4 180.0000771 4.6024000 2
18695 18697 18699 18700 1 180.0000771 15.1670000 2
18695 18697 18699 18701 1 180.0000771 15.1670000 2
18698 18697 18699 18700 1 180.0000771 15.1670000 2
18698 18697 18699 18701 1 180.0000771 15.1670000 2
18695 18699 18697 18698 4 180.0000771 4.6024000 2
18692 18699 18701 18702 4 180.0000771 4.6024000 2
18697 18699 18701 18702 1 180.0000771 15.1670000 2
18700 18699 18701 18702 1 180.0000771 15.1670000 2
18692 18701 18699 18697 1 180.0000771 15.1670000 2
18692 18701 18699 18700 1 180.0000771 15.1670000 2
18697 18701 18699 18700 4 180.0000771 4.6024000 2
18703 18704 18705 18706 1 180.0000771 15.1670000 2
18703 18704 18705 18707 1 180.0000771 15.1670000 2
18706 18704 18705 18707 4 180.0000771 4.6024000 2
18703 18704 18713 18705 4 180.0000771 4.6024000 2
18703 18704 18713 18711 1 180.0000771 15.1670000 2
18703 18704 18713 18714 1 180.0000771 15.1670000 2
18705 18704 18713 18711 1 180.0000771 15.1670000 2
18705 18704 18713 18714 1 180.0000771 15.1670000 2
18706 18705 18704 18713 1 180.0000771 15.1670000 2
18707 18705 18704 18713 1 180.0000771 15.1670000 2
18704 18705 18707 18708 1 180.0000771 15.1670000 2
18704 18705 18707 18709 1 180.0000771 15.1670000 2
18706 18705 18707 18708 1 180.0000771 15.1670000 2
18706 18705 18707 18709 1 180.0000771 15.1670000 2
18705 18707 18709 18710 1 180.0000771 15.1670000 2
18705 18707 18709 18711 1 180.0000771 15.1670000 2
18708 18707 18709 18710 1 180.0000771 15.1670000 2
18708 18707 18709 18711 1 180.0000771 15.1670000 2
18705 18709 18707 18708 4 180.0000771 4.6024000 2
18707 18709 18711 18712 1 180.0000771 15.1670000 2
18707 18709 18711 18713 1 180.0000771 15.1670000 2
18710 18709 18711 18712 1 180.0000771 15.1670000 2
18710 18709 18711 18713 1 180.0000771 15.1670000 2
18707 18711 18709 18710 4 180.0000771 4.6024000 2
18704 18711 18713 18714 4 180.0000771 4.6024000 2
18709 18711 18713 18714 1 180.0000771 15.1670000 2
18712 18711 18713 18714 1 180.0000771 15.1670000 2
18704 18713 18711 18709 1 180.0000771 15.1670000 2
18704 18713 18711 18712 1 180.0000771 15.1670000 2
18709 18713 18711 18712 4 180.0000771 4.6024000 2
18715 18716 18717 18718 1 180.0000771 15.1670000 2
18715 18716 18717 18719 1 180.0000771 15.1670000 2
18718 18716 18717 18719 4 180.0000771 4.6024000 2
18715 18716 18725 18717 4 180.0000771 4.6024000 2
18715 18716 18725 18723 1 180.0000771 15.1670000 2
18715 18716 18725 18726 1 180.0000771 15.1670000 2
18717 18716 18725 18723 1 180.0000771 15.1670000 2
18717 18716 18725 18726 1 180.0000771 15.1670000 2
18718 18717 18716 18725 1 180.0000771 15.1670000 2
18719 18717 18716 18725 1 180.0000771 15.1670000 2
18716 18717 18719 18720 1 180.0000771 15.1670000 2
18716 18717 18719 18721 1 180.0000771 15.1670000 2
18718 18717 18719 18720 1 180.0000771 15.1670000 2
18718 18717 18719 18721 1 180.0000771 15.1670000 2
18717 18719 18721 18722 1 180.0000771 15.1670000 2
18717 18719 18721 18723 1 180.0000771 15.1670000 2
18720 18719 18721 18722 1 180.0000771 15.1670000 2
18720 18719 18721 18723 1 180.0000771 15.1670000 2
18717 18721 18719 18720 4 180.0000771 4.6024000 2
18719 18721 18723 18724 1 180.0000771 15.1670000 2
18719 18721 18723 18725 1 180.0000771 15.1670000 2
18722 18721 18723 18724 1 180.0000771 15.1670000 2
18722 18721 18723 18725 1 180.0000771 15.1670000 2
18719 18723 18721 18722 4 180.0000771 4.6024000 2
18716 18723 18725 18726 4 180.0000771 4.6024000 2
18721 18723 18725 18726 1 180.0000771 15.1670000 2
18724 18723 18725 18726 1 180.0000771 15.1670000 2
18716 18725 18723 18721 1 180.0000771 15.1670000 2
18716 18725 18723 18724 1 180.0000771 15.1670000 2
18721 18725 18723 18724 4 180.0000771 4.6024000 2
18727 18728 18729 18730 1 180.0000771 15.1670000 2
18727 18728 18729 18731 1 180.0000771 15.1670000 2
18730 18728 18729 18731 4 180.0000771 4.6024000 2
18727 18728 18737 18729 4 180.0000771 4.6024000 2
18727 18728 18737 18735 1 180.0000771 15.1670000 2
18727 18728 18737 18738 1 180.0000771 15.1670000 2
18729 18728 18737 18735 1 180.0000771 15.1670000 2
18729 18728 18737 18738 1 180.0000771 15.1670000 2
18730 18729 18728 18737 1 180.0000771 15.1670000 2
18731 18729 18728 18737 1 180.0000771 15.1670000 2
18728 18729 18731 18732 1 180.0000771 15.1670000 2
18728 18729 18731 18733 1 180.0000771 15.1670000 2
18730 18729 18731 18732 1 180.0000771 15.1670000 2
18730 18729 18731 18733 1 180.0000771 15.1670000 2
18729 18731 18733 18734 1 180.0000771 15.1670000 2
18729 18731 18733 18735 1 180.0000771 15.1670000 2
18732 18731 18733 18734 1 180.0000771 15.1670000 2
18732 18731 18733 18735 1 180.0000771 15.1670000 2
18729 18733 18731 18732 4 180.0000771 4.6024000 2
18731 18733 18735 18736 1 180.0000771 15.1670000 2
18731 18733 18735 18737 1 180.0000771 15.1670000 2
18734 18733 18735 18736 1 180.0000771 15.1670000 2
18734 18733 18735 18737 1 180.0000771 15.1670000 2
18731 18735 18733 18734 4 180.0000771 4.6024000 2
18728 18735 18737 18738 4 180.0000771 4.6024000 2
18733 18735 18737 18738 1 180.0000771 15.1670000 2
18736 18735 18737 18738 1 180.0000771 15.1670000 2
18728 18737 18735 18733 1 180.0000771 15.1670000 2
18728 18737 18735 18736 1 180.0000771 15.1670000 2
18733 18737 18735 18736 4 180.0000771 4.6024000 2
18739 18740 18741 18742 1 180.0000771 15.1670000 2
18739 18740 18741 18743 1 180.0000771 15.1670000 2
18742 18740 18741 18743 4 180.0000771 4.6024000 2
18739 18740 18749 18741 4 180.0000771 4.6024000 2
18739 18740 18749 18747 1 180.0000771 15.1670000 2
18739 18740 18749 18750 1 180.0000771 15.1670000 2
18741 18740 18749 18747 1 180.0000771 15.1670000 2
18741 18740 18749 18750 1 180.0000771 15.1670000 2
18742 18741 18740 18749 1 180.0000771 15.1670000 2
18743 18741 18740 18749 1 180.0000771 15.1670000 2
18740 18741 18743 18744 1 180.0000771 15.1670000 2
18740 18741 18743 18745 1 180.0000771 15.1670000 2
18742 18741 18743 18744 1 180.0000771 15.1670000 2
18742 18741 18743 18745 1 180.0000771 15.1670000 2
18741 18743 18745 18746 1 180.0000771 15.1670000 2
18741 18743 18745 18747 1 180.0000771 15.1670000 2
18744 18743 18745 18746 1 180.0000771 15.1670000 2
18744 18743 18745 18747 1 180.0000771 15.1670000 2
18741 18745 18743 18744 4 180.0000771 4.6024000 2
18743 18745 18747 18748 1 180.0000771 15.1670000 2
18743 18745 18747 18749 1 180.0000771 15.1670000 2
18746 18745 18747 18748 1 180.0000771 15.1670000 2
18746 18745 18747 18749 1 180.0000771 15.1670000 2
18743 18747 18745 18746 4 180.0000771 4.6024000 2
18740 18747 18749 18750 4 180.0000771 4.6024000 2
18745 18747 18749 18750 1 180.0000771 15.1670000 2
18748 18747 18749 18750 1 180.0000771 15.1670000 2
18740 18749 18747 18745 1 180.0000771 15.1670000 2
18740 18749 18747 18748 1 180.0000771 15.1670000 2
18745 18749 18747 18748 4 180.0000771 4.6024000 2
18751 18752 18753 18754 1 180.0000771 15.1670000 2
18751 18752 18753 18755 1 180.0000771 15.1670000 2
18754 18752 18753 18755 4 180.0000771 4.6024000 2
18751 18752 18761 18753 4 180.0000771 4.6024000 2
18751 18752 18761 18759 1 180.0000771 15.1670000 2
18751 18752 18761 18762 1 180.0000771 15.1670000 2
18753 18752 18761 18759 1 180.0000771 15.1670000 2
18753 18752 18761 18762 1 180.0000771 15.1670000 2
18754 18753 18752 18761 1 180.0000771 15.1670000 2
18755 18753 18752 18761 1 180.0000771 15.1670000 2
18752 18753 18755 18756 1 180.0000771 15.1670000 2
18752 18753 18755 18757 1 180.0000771 15.1670000 2
18754 18753 18755 18756 1 180.0000771 15.1670000 2
18754 18753 18755 18757 1 180.0000771 15.1670000 2
18753 18755 18757 18758 1 180.0000771 15.1670000 2
18753 18755 18757 18759 1 180.0000771 15.1670000 2
18756 18755 18757 18758 1 180.0000771 15.1670000 2
18756 18755 18757 18759 1 180.0000771 15.1670000 2
18753 18757 18755 18756 4 180.0000771 4.6024000 2
18755 18757 18759 18760 1 180.0000771 15.1670000 2
18755 18757 18759 18761 1 180.0000771 15.1670000 2
18758 18757 18759 18760 1 180.0000771 15.1670000 2
18758 18757 18759 18761 1 180.0000771 15.1670000 2
18755 18759 18757 18758 4 180.0000771 4.6024000 2
18752 18759 18761 18762 4 180.0000771 4.6024000 2
18757 18759 18761 18762 1 180.0000771 15.1670000 2
18760 18759 18761 18762 1 180.0000771 15.1670000 2
18752 18761 18759 18757 1 180.0000771 15.1670000 2
18752 18761 18759 18760 1 180.0000771 15.1670000 2
18757 18761 18759 18760 4 180.0000771 4.6024000 2
18763 18764 18765 18766 1 180.0000771 15.1670000 2
18763 18764 18765 18767 1 180.0000771 15.1670000 2
18766 18764 18765 18767 4 180.0000771 4.6024000 2
18763 18764 18773 18765 4 180.0000771 4.6024000 2
18763 18764 18773 18771 1 180.0000771 15.1670000 2
18763 18764 18773 18774 1 180.0000771 15.1670000 2
18765 18764 18773 18771 1 180.0000771 15.1670000 2
18765 18764 18773 18774 1 180.0000771 15.1670000 2
18766 18765 18764 18773 1 180.0000771 15.1670000 2
18767 18765 18764 18773 1 180.0000771 15.1670000 2
18764 18765 18767 18768 1 180.0000771 15.1670000 2
18764 18765 18767 18769 1 180.0000771 15.1670000 2
18766 18765 18767 18768 1 180.0000771 15.1670000 2
18766 18765 18767 18769 1 180.0000771 15.1670000 2
18765 18767 18769 18770 1 180.0000771 15.1670000 2
18765 18767 18769 18771 1 180.0000771 15.1670000 2
18768 18767 18769 18770 1 180.0000771 15.1670000 2
18768 18767 18769 18771 1 180.0000771 15.1670000 2
18765 18769 18767 18768 4 180.0000771 4.6024000 2
18767 18769 18771 18772 1 180.0000771 15.1670000 2
18767 18769 18771 18773 1 180.0000771 15.1670000 2
18770 18769 18771 18772 1 180.0000771 15.1670000 2
18770 18769 18771 18773 1 180.0000771 15.1670000 2
18767 18771 18769 18770 4 180.0000771 4.6024000 2
18764 18771 18773 18774 4 180.0000771 4.6024000 2
18769 18771 18773 18774 1 180.0000771 15.1670000 2
18772 18771 18773 18774 1 180.0000771 15.1670000 2
18764 18773 18771 18769 1 180.0000771 15.1670000 2
18764 18773 18771 18772 1 180.0000771 15.1670000 2
18769 18773 18771 18772 4 180.0000771 4.6024000 2
18775 18776 18777 18778 1 180.0000771 15.1670000 2
18775 18776 18777 18779 1 180.0000771 15.1670000 2
18778 18776 18777 18779 4 180.0000771 4.6024000 2
18775 18776 18785 18777 4 180.0000771 4.6024000 2
18775 18776 18785 18783 1 180.0000771 15.1670000 2
18775 18776 18785 18786 1 180.0000771 15.1670000 2
18777 18776 18785 18783 1 180.0000771 15.1670000 2
18777 18776 18785 18786 1 180.0000771 15.1670000 2
18778 18777 18776 18785 1 180.0000771 15.1670000 2
18779 18777 18776 18785 1 180.0000771 15.1670000 2
18776 18777 18779 18780 1 180.0000771 15.1670000 2
18776 18777 18779 18781 1 180.0000771 15.1670000 2
18778 18777 18779 18780 1 180.0000771 15.1670000 2
18778 18777 18779 18781 1 180.0000771 15.1670000 2
18777 18779 18781 18782 1 180.0000771 15.1670000 2
18777 18779 18781 18783 1 180.0000771 15.1670000 2
18780 18779 18781 18782 1 180.0000771 15.1670000 2
18780 18779 18781 18783 1 180.0000771 15.1670000 2
18777 18781 18779 18780 4 180.0000771 4.6024000 2
18779 18781 18783 18784 1 180.0000771 15.1670000 2
18779 18781 18783 18785 1 180.0000771 15.1670000 2
18782 18781 18783 18784 1 180.0000771 15.1670000 2
18782 18781 18783 18785 1 180.0000771 15.1670000 2
18779 18783 18781 18782 4 180.0000771 4.6024000 2
18776 18783 18785 18786 4 180.0000771 4.6024000 2
18781 18783 18785 18786 1 180.0000771 15.1670000 2
18784 18783 18785 18786 1 180.0000771 15.1670000 2
18776 18785 18783 18781 1 180.0000771 15.1670000 2
18776 18785 18783 18784 1 180.0000771 15.1670000 2
18781 18785 18783 18784 4 180.0000771 4.6024000 2
18787 18788 18789 18790 1 180.0000771 15.1670000 2
18787 18788 18789 18791 1 180.0000771 15.1670000 2
18790 18788 18789 18791 4 180.0000771 4.6024000 2
18787 18788 18797 18789 4 180.0000771 4.6024000 2
18787 18788 18797 18795 1 180.0000771 15.1670000 2
18787 18788 18797 18798 1 180.0000771 15.1670000 2
18789 18788 18797 18795 1 180.0000771 15.1670000 2
18789 18788 18797 18798 1 180.0000771 15.1670000 2
18790 18789 18788 18797 1 180.0000771 15.1670000 2
18791 18789 18788 18797 1 180.0000771 15.1670000 2
18788 18789 18791 18792 1 180.0000771 15.1670000 2
18788 18789 18791 18793 1 180.0000771 15.1670000 2
18790 18789 18791 18792 1 180.0000771 15.1670000 2
18790 18789 18791 18793 1 180.0000771 15.1670000 2
18789 18791 18793 18794 1 180.0000771 15.1670000 2
18789 18791 18793 18795 1 180.0000771 15.1670000 2
18792 18791 18793 18794 1 180.0000771 15.1670000 2
18792 18791 18793 18795 1 180.0000771 15.1670000 2
18789 18793 18791 18792 4 180.0000771 4.6024000 2
18791 18793 18795 18796 1 180.0000771 15.1670000 2
18791 18793 18795 18797 1 180.0000771 15.1670000 2
18794 18793 18795 18796 1 180.0000771 15.1670000 2
18794 18793 18795 18797 1 180.0000771 15.1670000 2
18791 18795 18793 18794 4 180.0000771 4.6024000 2
18788 18795 18797 18798 4 180.0000771 4.6024000 2
18793 18795 18797 18798 1 180.0000771 15.1670000 2
18796 18795 18797 18798 1 180.0000771 15.1670000 2
18788 18797 18795 18793 1 180.0000771 15.1670000 2
18788 18797 18795 18796 1 180.0000771 15.1670000 2
18793 18797 18795 18796 4 180.0000771 4.6024000 2
18799 18800 18801 18802 1 180.0000771 15.1670000 2
18799 18800 18801 18803 1 180.0000771 15.1670000 2
18802 18800 18801 18803 4 180.0000771 4.6024000 2
18799 18800 18809 18801 4 180.0000771 4.6024000 2
18799 18800 18809 18807 1 180.0000771 15.1670000 2
18799 18800 18809 18810 1 180.0000771 15.1670000 2
18801 18800 18809 18807 1 180.0000771 15.1670000 2
18801 18800 18809 18810 1 180.0000771 15.1670000 2
18802 18801 18800 18809 1 180.0000771 15.1670000 2
18803 18801 18800 18809 1 180.0000771 15.1670000 2
18800 18801 18803 18804 1 180.0000771 15.1670000 2
18800 18801 18803 18805 1 180.0000771 15.1670000 2
18802 18801 18803 18804 1 180.0000771 15.1670000 2
18802 18801 18803 18805 1 180.0000771 15.1670000 2
18801 18803 18805 18806 1 180.0000771 15.1670000 2
18801 18803 18805 18807 1 180.0000771 15.1670000 2
18804 18803 18805 18806 1 180.0000771 15.1670000 2
18804 18803 18805 18807 1 180.0000771 15.1670000 2
18801 18805 18803 18804 4 180.0000771 4.6024000 2
18803 18805 18807 18808 1 180.0000771 15.1670000 2
18803 18805 18807 18809 1 180.0000771 15.1670000 2
18806 18805 18807 18808 1 180.0000771 15.1670000 2
18806 18805 18807 18809 1 180.0000771 15.1670000 2
18803 18807 18805 18806 4 180.0000771 4.6024000 2
18800 18807 18809 18810 4 180.0000771 4.6024000 2
18805 18807 18809 18810 1 180.0000771 15.1670000 2
18808 18807 18809 18810 1 180.0000771 15.1670000 2
18800 18809 18807 18805 1 180.0000771 15.1670000 2
18800 18809 18807 18808 1 180.0000771 15.1670000 2
18805 18809 18807 18808 4 180.0000771 4.6024000 2
18811 18812 18813 18814 1 180.0000771 15.1670000 2
18811 18812 18813 18815 1 180.0000771 15.1670000 2
18814 18812 18813 18815 4 180.0000771 4.6024000 2
18811 18812 18821 18813 4 180.0000771 4.6024000 2
18811 18812 18821 18819 1 180.0000771 15.1670000 2
18811 18812 18821 18822 1 180.0000771 15.1670000 2
18813 18812 18821 18819 1 180.0000771 15.1670000 2
18813 18812 18821 18822 1 180.0000771 15.1670000 2
18814 18813 18812 18821 1 180.0000771 15.1670000 2
18815 18813 18812 18821 1 180.0000771 15.1670000 2
18812 18813 18815 18816 1 180.0000771 15.1670000 2
18812 18813 18815 18817 1 180.0000771 15.1670000 2
18814 18813 18815 18816 1 180.0000771 15.1670000 2
18814 18813 18815 18817 1 180.0000771 15.1670000 2
18813 18815 18817 18818 1 180.0000771 15.1670000 2
18813 18815 18817 18819 1 180.0000771 15.1670000 2
18816 18815 18817 18818 1 180.0000771 15.1670000 2
18816 18815 18817 18819 1 180.0000771 15.1670000 2
18813 18817 18815 18816 4 180.0000771 4.6024000 2
18815 18817 18819 18820 1 180.0000771 15.1670000 2
18815 18817 18819 18821 1 180.0000771 15.1670000 2
18818 18817 18819 18820 1 180.0000771 15.1670000 2
18818 18817 18819 18821 1 180.0000771 15.1670000 2
18815 18819 18817 18818 4 180.0000771 4.6024000 2
18812 18819 18821 18822 4 180.0000771 4.6024000 2
18817 18819 18821 18822 1 180.0000771 15.1670000 2
18820 18819 18821 18822 1 180.0000771 15.1670000 2
18812 18821 18819 18817 1 180.0000771 15.1670000 2
18812 18821 18819 18820 1 180.0000771 15.1670000 2
18817 18821 18819 18820 4 180.0000771 4.6024000 2
18823 18824 18825 18826 1 180.0000771 15.1670000 2
18823 18824 18825 18827 1 180.0000771 15.1670000 2
18826 18824 18825 18827 4 180.0000771 4.6024000 2
18823 18824 18833 18825 4 180.0000771 4.6024000 2
18823 18824 18833 18831 1 180.0000771 15.1670000 2
18823 18824 18833 18834 1 180.0000771 15.1670000 2
18825 18824 18833 18831 1 180.0000771 15.1670000 2
18825 18824 18833 18834 1 180.0000771 15.1670000 2
18826 18825 18824 18833 1 180.0000771 15.1670000 2
18827 18825 18824 18833 1 180.0000771 15.1670000 2
18824 18825 18827 18828 1 180.0000771 15.1670000 2
18824 18825 18827 18829 1 180.0000771 15.1670000 2
18826 18825 18827 18828 1 180.0000771 15.1670000 2
18826 18825 18827 18829 1 180.0000771 15.1670000 2
18825 18827 18829 18830 1 180.0000771 15.1670000 2
18825 18827 18829 18831 1 180.0000771 15.1670000 2
18828 18827 18829 18830 1 180.0000771 15.1670000 2
18828 18827 18829 18831 1 180.0000771 15.1670000 2
18825 18829 18827 18828 4 180.0000771 4.6024000 2
18827 18829 18831 18832 1 180.0000771 15.1670000 2
18827 18829 18831 18833 1 180.0000771 15.1670000 2
18830 18829 18831 18832 1 180.0000771 15.1670000 2
18830 18829 18831 18833 1 180.0000771 15.1670000 2
18827 18831 18829 18830 4 180.0000771 4.6024000 2
18824 18831 18833 18834 4 180.0000771 4.6024000 2
18829 18831 18833 18834 1 180.0000771 15.1670000 2
18832 18831 18833 18834 1 180.0000771 15.1670000 2
18824 18833 18831 18829 1 180.0000771 15.1670000 2
18824 18833 18831 18832 1 180.0000771 15.1670000 2
18829 18833 18831 18832 4 180.0000771 4.6024000 2
18835 18836 18837 18838 1 180.0000771 15.1670000 2
18835 18836 18837 18839 1 180.0000771 15.1670000 2
18838 18836 18837 18839 4 180.0000771 4.6024000 2
18835 18836 18845 18837 4 180.0000771 4.6024000 2
18835 18836 18845 18843 1 180.0000771 15.1670000 2
18835 18836 18845 18846 1 180.0000771 15.1670000 2
18837 18836 18845 18843 1 180.0000771 15.1670000 2
18837 18836 18845 18846 1 180.0000771 15.1670000 2
18838 18837 18836 18845 1 180.0000771 15.1670000 2
18839 18837 18836 18845 1 180.0000771 15.1670000 2
18836 18837 18839 18840 1 180.0000771 15.1670000 2
18836 18837 18839 18841 1 180.0000771 15.1670000 2
18838 18837 18839 18840 1 180.0000771 15.1670000 2
18838 18837 18839 18841 1 180.0000771 15.1670000 2
18837 18839 18841 18842 1 180.0000771 15.1670000 2
18837 18839 18841 18843 1 180.0000771 15.1670000 2
18840 18839 18841 18842 1 180.0000771 15.1670000 2
18840 18839 18841 18843 1 180.0000771 15.1670000 2
18837 18841 18839 18840 4 180.0000771 4.6024000 2
18839 18841 18843 18844 1 180.0000771 15.1670000 2
18839 18841 18843 18845 1 180.0000771 15.1670000 2
18842 18841 18843 18844 1 180.0000771 15.1670000 2
18842 18841 18843 18845 1 180.0000771 15.1670000 2
18839 18843 18841 18842 4 180.0000771 4.6024000 2
18836 18843 18845 18846 4 180.0000771 4.6024000 2
18841 18843 18845 18846 1 180.0000771 15.1670000 2
18844 18843 18845 18846 1 180.0000771 15.1670000 2
18836 18845 18843 18841 1 180.0000771 15.1670000 2
18836 18845 18843 18844 1 180.0000771 15.1670000 2
18841 18845 18843 18844 4 180.0000771 4.6024000 2
18847 18848 18849 18850 1 180.0000771 15.1670000 2
18847 18848 18849 18851 1 180.0000771 15.1670000 2
18850 18848 18849 18851 4 180.0000771 4.6024000 2
18847 18848 18857 18849 4 180.0000771 4.6024000 2
18847 18848 18857 18855 1 180.0000771 15.1670000 2
18847 18848 18857 18858 1 180.0000771 15.1670000 2
18849 18848 18857 18855 1 180.0000771 15.1670000 2
18849 18848 18857 18858 1 180.0000771 15.1670000 2
18850 18849 18848 18857 1 180.0000771 15.1670000 2
18851 18849 18848 18857 1 180.0000771 15.1670000 2
18848 18849 18851 18852 1 180.0000771 15.1670000 2
18848 18849 18851 18853 1 180.0000771 15.1670000 2
18850 18849 18851 18852 1 180.0000771 15.1670000 2
18850 18849 18851 18853 1 180.0000771 15.1670000 2
18849 18851 18853 18854 1 180.0000771 15.1670000 2
18849 18851 18853 18855 1 180.0000771 15.1670000 2
18852 18851 18853 18854 1 180.0000771 15.1670000 2
18852 18851 18853 18855 1 180.0000771 15.1670000 2
18849 18853 18851 18852 4 180.0000771 4.6024000 2
18851 18853 18855 18856 1 180.0000771 15.1670000 2
18851 18853 18855 18857 1 180.0000771 15.1670000 2
18854 18853 18855 18856 1 180.0000771 15.1670000 2
18854 18853 18855 18857 1 180.0000771 15.1670000 2
18851 18855 18853 18854 4 180.0000771 4.6024000 2
18848 18855 18857 18858 4 180.0000771 4.6024000 2
18853 18855 18857 18858 1 180.0000771 15.1670000 2
18856 18855 18857 18858 1 180.0000771 15.1670000 2
18848 18857 18855 18853 1 180.0000771 15.1670000 2
18848 18857 18855 18856 1 180.0000771 15.1670000 2
18853 18857 18855 18856 4 180.0000771 4.6024000 2
18859 18860 18861 18862 1 180.0000771 15.1670000 2
18859 18860 18861 18863 1 180.0000771 15.1670000 2
18862 18860 18861 18863 4 180.0000771 4.6024000 2
18859 18860 18869 18861 4 180.0000771 4.6024000 2
18859 18860 18869 18867 1 180.0000771 15.1670000 2
18859 18860 18869 18870 1 180.0000771 15.1670000 2
18861 18860 18869 18867 1 180.0000771 15.1670000 2
18861 18860 18869 18870 1 180.0000771 15.1670000 2
18862 18861 18860 18869 1 180.0000771 15.1670000 2
18863 18861 18860 18869 1 180.0000771 15.1670000 2
18860 18861 18863 18864 1 180.0000771 15.1670000 2
18860 18861 18863 18865 1 180.0000771 15.1670000 2
18862 18861 18863 18864 1 180.0000771 15.1670000 2
18862 18861 18863 18865 1 180.0000771 15.1670000 2
18861 18863 18865 18866 1 180.0000771 15.1670000 2
18861 18863 18865 18867 1 180.0000771 15.1670000 2
18864 18863 18865 18866 1 180.0000771 15.1670000 2
18864 18863 18865 18867 1 180.0000771 15.1670000 2
18861 18865 18863 18864 4 180.0000771 4.6024000 2
18863 18865 18867 18868 1 180.0000771 15.1670000 2
18863 18865 18867 18869 1 180.0000771 15.1670000 2
18866 18865 18867 18868 1 180.0000771 15.1670000 2
18866 18865 18867 18869 1 180.0000771 15.1670000 2
18863 18867 18865 18866 4 180.0000771 4.6024000 2
18860 18867 18869 18870 4 180.0000771 4.6024000 2
18865 18867 18869 18870 1 180.0000771 15.1670000 2
18868 18867 18869 18870 1 180.0000771 15.1670000 2
18860 18869 18867 18865 1 180.0000771 15.1670000 2
18860 18869 18867 18868 1 180.0000771 15.1670000 2
18865 18869 18867 18868 4 180.0000771 4.6024000 2
18871 18872 18873 18874 1 180.0000771 15.1670000 2
18871 18872 18873 18875 1 180.0000771 15.1670000 2
18874 18872 18873 18875 4 180.0000771 4.6024000 2
18871 18872 18881 18873 4 180.0000771 4.6024000 2
18871 18872 18881 18879 1 180.0000771 15.1670000 2
18871 18872 18881 18882 1 180.0000771 15.1670000 2
18873 18872 18881 18879 1 180.0000771 15.1670000 2
18873 18872 18881 18882 1 180.0000771 15.1670000 2
18874 18873 18872 18881 1 180.0000771 15.1670000 2
18875 18873 18872 18881 1 180.0000771 15.1670000 2
18872 18873 18875 18876 1 180.0000771 15.1670000 2
18872 18873 18875 18877 1 180.0000771 15.1670000 2
18874 18873 18875 18876 1 180.0000771 15.1670000 2
18874 18873 18875 18877 1 180.0000771 15.1670000 2
18873 18875 18877 18878 1 180.0000771 15.1670000 2
18873 18875 18877 18879 1 180.0000771 15.1670000 2
18876 18875 18877 18878 1 180.0000771 15.1670000 2
18876 18875 18877 18879 1 180.0000771 15.1670000 2
18873 18877 18875 18876 4 180.0000771 4.6024000 2
18875 18877 18879 18880 1 180.0000771 15.1670000 2
18875 18877 18879 18881 1 180.0000771 15.1670000 2
18878 18877 18879 18880 1 180.0000771 15.1670000 2
18878 18877 18879 18881 1 180.0000771 15.1670000 2
18875 18879 18877 18878 4 180.0000771 4.6024000 2
18872 18879 18881 18882 4 180.0000771 4.6024000 2
18877 18879 18881 18882 1 180.0000771 15.1670000 2
18880 18879 18881 18882 1 180.0000771 15.1670000 2
18872 18881 18879 18877 1 180.0000771 15.1670000 2
18872 18881 18879 18880 1 180.0000771 15.1670000 2
18877 18881 18879 18880 4 180.0000771 4.6024000 2
18883 18884 18885 18886 1 180.0000771 15.1670000 2
18883 18884 18885 18887 1 180.0000771 15.1670000 2
18886 18884 18885 18887 4 180.0000771 4.6024000 2
18883 18884 18893 18885 4 180.0000771 4.6024000 2
18883 18884 18893 18891 1 180.0000771 15.1670000 2
18883 18884 18893 18894 1 180.0000771 15.1670000 2
18885 18884 18893 18891 1 180.0000771 15.1670000 2
18885 18884 18893 18894 1 180.0000771 15.1670000 2
18886 18885 18884 18893 1 180.0000771 15.1670000 2
18887 18885 18884 18893 1 180.0000771 15.1670000 2
18884 18885 18887 18888 1 180.0000771 15.1670000 2
18884 18885 18887 18889 1 180.0000771 15.1670000 2
18886 18885 18887 18888 1 180.0000771 15.1670000 2
18886 18885 18887 18889 1 180.0000771 15.1670000 2
18885 18887 18889 18890 1 180.0000771 15.1670000 2
18885 18887 18889 18891 1 180.0000771 15.1670000 2
18888 18887 18889 18890 1 180.0000771 15.1670000 2
18888 18887 18889 18891 1 180.0000771 15.1670000 2
18885 18889 18887 18888 4 180.0000771 4.6024000 2
18887 18889 18891 18892 1 180.0000771 15.1670000 2
18887 18889 18891 18893 1 180.0000771 15.1670000 2
18890 18889 18891 18892 1 180.0000771 15.1670000 2
18890 18889 18891 18893 1 180.0000771 15.1670000 2
18887 18891 18889 18890 4 180.0000771 4.6024000 2
18884 18891 18893 18894 4 180.0000771 4.6024000 2
18889 18891 18893 18894 1 180.0000771 15.1670000 2
18892 18891 18893 18894 1 180.0000771 15.1670000 2
18884 18893 18891 18889 1 180.0000771 15.1670000 2
18884 18893 18891 18892 1 180.0000771 15.1670000 2
18889 18893 18891 18892 4 180.0000771 4.6024000 2
18895 18896 18897 18898 1 180.0000771 15.1670000 2
18895 18896 18897 18899 1 180.0000771 15.1670000 2
18898 18896 18897 18899 4 180.0000771 4.6024000 2
18895 18896 18905 18897 4 180.0000771 4.6024000 2
18895 18896 18905 18903 1 180.0000771 15.1670000 2
18895 18896 18905 18906 1 180.0000771 15.1670000 2
18897 18896 18905 18903 1 180.0000771 15.1670000 2
18897 18896 18905 18906 1 180.0000771 15.1670000 2
18898 18897 18896 18905 1 180.0000771 15.1670000 2
18899 18897 18896 18905 1 180.0000771 15.1670000 2
18896 18897 18899 18900 1 180.0000771 15.1670000 2
18896 18897 18899 18901 1 180.0000771 15.1670000 2
18898 18897 18899 18900 1 180.0000771 15.1670000 2
18898 18897 18899 18901 1 180.0000771 15.1670000 2
18897 18899 18901 18902 1 180.0000771 15.1670000 2
18897 18899 18901 18903 1 180.0000771 15.1670000 2
18900 18899 18901 18902 1 180.0000771 15.1670000 2
18900 18899 18901 18903 1 180.0000771 15.1670000 2
18897 18901 18899 18900 4 180.0000771 4.6024000 2
18899 18901 18903 18904 1 180.0000771 15.1670000 2
18899 18901 18903 18905 1 180.0000771 15.1670000 2
18902 18901 18903 18904 1 180.0000771 15.1670000 2
18902 18901 18903 18905 1 180.0000771 15.1670000 2
18899 18903 18901 18902 4 180.0000771 4.6024000 2
18896 18903 18905 18906 4 180.0000771 4.6024000 2
18901 18903 18905 18906 1 180.0000771 15.1670000 2
18904 18903 18905 18906 1 180.0000771 15.1670000 2
18896 18905 18903 18901 1 180.0000771 15.1670000 2
18896 18905 18903 18904 1 180.0000771 15.1670000 2
18901 18905 18903 18904 4 180.0000771 4.6024000 2
18907 18908 18909 18910 1 180.0000771 15.1670000 2
18907 18908 18909 18911 1 180.0000771 15.1670000 2
18910 18908 18909 18911 4 180.0000771 4.6024000 2
18907 18908 18917 18909 4 180.0000771 4.6024000 2
18907 18908 18917 18915 1 180.0000771 15.1670000 2
18907 18908 18917 18918 1 180.0000771 15.1670000 2
18909 18908 18917 18915 1 180.0000771 15.1670000 2
18909 18908 18917 18918 1 180.0000771 15.1670000 2
18910 18909 18908 18917 1 180.0000771 15.1670000 2
18911 18909 18908 18917 1 180.0000771 15.1670000 2
18908 18909 18911 18912 1 180.0000771 15.1670000 2
18908 18909 18911 18913 1 180.0000771 15.1670000 2
18910 18909 18911 18912 1 180.0000771 15.1670000 2
18910 18909 18911 18913 1 180.0000771 15.1670000 2
18909 18911 18913 18914 1 180.0000771 15.1670000 2
18909 18911 18913 18915 1 180.0000771 15.1670000 2
18912 18911 18913 18914 1 180.0000771 15.1670000 2
18912 18911 18913 18915 1 180.0000771 15.1670000 2
18909 18913 18911 18912 4 180.0000771 4.6024000 2
18911 18913 18915 18916 1 180.0000771 15.1670000 2
18911 18913 18915 18917 1 180.0000771 15.1670000 2
18914 18913 18915 18916 1 180.0000771 15.1670000 2
18914 18913 18915 18917 1 180.0000771 15.1670000 2
18911 18915 18913 18914 4 180.0000771 4.6024000 2
18908 18915 18917 18918 4 180.0000771 4.6024000 2
18913 18915 18917 18918 1 180.0000771 15.1670000 2
18916 18915 18917 18918 1 180.0000771 15.1670000 2
18908 18917 18915 18913 1 180.0000771 15.1670000 2
18908 18917 18915 18916 1 180.0000771 15.1670000 2
18913 18917 18915 18916 4 180.0000771 4.6024000 2
18919 18920 18921 18922 1 180.0000771 15.1670000 2
18919 18920 18921 18923 1 180.0000771 15.1670000 2
18922 18920 18921 18923 4 180.0000771 4.6024000 2
18919 18920 18929 18921 4 180.0000771 4.6024000 2
18919 18920 18929 18927 1 180.0000771 15.1670000 2
18919 18920 18929 18930 1 180.0000771 15.1670000 2
18921 18920 18929 18927 1 180.0000771 15.1670000 2
18921 18920 18929 18930 1 180.0000771 15.1670000 2
18922 18921 18920 18929 1 180.0000771 15.1670000 2
18923 18921 18920 18929 1 180.0000771 15.1670000 2
18920 18921 18923 18924 1 180.0000771 15.1670000 2
18920 18921 18923 18925 1 180.0000771 15.1670000 2
18922 18921 18923 18924 1 180.0000771 15.1670000 2
18922 18921 18923 18925 1 180.0000771 15.1670000 2
18921 18923 18925 18926 1 180.0000771 15.1670000 2
18921 18923 18925 18927 1 180.0000771 15.1670000 2
18924 18923 18925 18926 1 180.0000771 15.1670000 2
18924 18923 18925 18927 1 180.0000771 15.1670000 2
18921 18925 18923 18924 4 180.0000771 4.6024000 2
18923 18925 18927 18928 1 180.0000771 15.1670000 2
18923 18925 18927 18929 1 180.0000771 15.1670000 2
18926 18925 18927 18928 1 180.0000771 15.1670000 2
18926 18925 18927 18929 1 180.0000771 15.1670000 2
18923 18927 18925 18926 4 180.0000771 4.6024000 2
18920 18927 18929 18930 4 180.0000771 4.6024000 2
18925 18927 18929 18930 1 180.0000771 15.1670000 2
18928 18927 18929 18930 1 180.0000771 15.1670000 2
18920 18929 18927 18925 1 180.0000771 15.1670000 2
18920 18929 18927 18928 1 180.0000771 15.1670000 2
18925 18929 18927 18928 4 180.0000771 4.6024000 2
18931 18932 18933 18934 1 180.0000771 15.1670000 2
18931 18932 18933 18935 1 180.0000771 15.1670000 2
18934 18932 18933 18935 4 180.0000771 4.6024000 2
18931 18932 18941 18933 4 180.0000771 4.6024000 2
18931 18932 18941 18939 1 180.0000771 15.1670000 2
18931 18932 18941 18942 1 180.0000771 15.1670000 2
18933 18932 18941 18939 1 180.0000771 15.1670000 2
18933 18932 18941 18942 1 180.0000771 15.1670000 2
18934 18933 18932 18941 1 180.0000771 15.1670000 2
18935 18933 18932 18941 1 180.0000771 15.1670000 2
18932 18933 18935 18936 1 180.0000771 15.1670000 2
18932 18933 18935 18937 1 180.0000771 15.1670000 2
18934 18933 18935 18936 1 180.0000771 15.1670000 2
18934 18933 18935 18937 1 180.0000771 15.1670000 2
18933 18935 18937 18938 1 180.0000771 15.1670000 2
18933 18935 18937 18939 1 180.0000771 15.1670000 2
18936 18935 18937 18938 1 180.0000771 15.1670000 2
18936 18935 18937 18939 1 180.0000771 15.1670000 2
18933 18937 18935 18936 4 180.0000771 4.6024000 2
18935 18937 18939 18940 1 180.0000771 15.1670000 2
18935 18937 18939 18941 1 180.0000771 15.1670000 2
18938 18937 18939 18940 1 180.0000771 15.1670000 2
18938 18937 18939 18941 1 180.0000771 15.1670000 2
18935 18939 18937 18938 4 180.0000771 4.6024000 2
18932 18939 18941 18942 4 180.0000771 4.6024000 2
18937 18939 18941 18942 1 180.0000771 15.1670000 2
18940 18939 18941 18942 1 180.0000771 15.1670000 2
18932 18941 18939 18937 1 180.0000771 15.1670000 2
18932 18941 18939 18940 1 180.0000771 15.1670000 2
18937 18941 18939 18940 4 180.0000771 4.6024000 2
18943 18944 18945 18946 1 180.0000771 15.1670000 2
18943 18944 18945 18947 1 180.0000771 15.1670000 2
18946 18944 18945 18947 4 180.0000771 4.6024000 2
18943 18944 18953 18945 4 180.0000771 4.6024000 2
18943 18944 18953 18951 1 180.0000771 15.1670000 2
18943 18944 18953 18954 1 180.0000771 15.1670000 2
18945 18944 18953 18951 1 180.0000771 15.1670000 2
18945 18944 18953 18954 1 180.0000771 15.1670000 2
18946 18945 18944 18953 1 180.0000771 15.1670000 2
18947 18945 18944 18953 1 180.0000771 15.1670000 2
18944 18945 18947 18948 1 180.0000771 15.1670000 2
18944 18945 18947 18949 1 180.0000771 15.1670000 2
18946 18945 18947 18948 1 180.0000771 15.1670000 2
18946 18945 18947 18949 1 180.0000771 15.1670000 2
18945 18947 18949 18950 1 180.0000771 15.1670000 2
18945 18947 18949 18951 1 180.0000771 15.1670000 2
18948 18947 18949 18950 1 180.0000771 15.1670000 2
18948 18947 18949 18951 1 180.0000771 15.1670000 2
18945 18949 18947 18948 4 180.0000771 4.6024000 2
18947 18949 18951 18952 1 180.0000771 15.1670000 2
18947 18949 18951 18953 1 180.0000771 15.1670000 2
18950 18949 18951 18952 1 180.0000771 15.1670000 2
18950 18949 18951 18953 1 180.0000771 15.1670000 2
18947 18951 18949 18950 4 180.0000771 4.6024000 2
18944 18951 18953 18954 4 180.0000771 4.6024000 2
18949 18951 18953 18954 1 180.0000771 15.1670000 2
18952 18951 18953 18954 1 180.0000771 15.1670000 2
18944 18953 18951 18949 1 180.0000771 15.1670000 2
18944 18953 18951 18952 1 180.0000771 15.1670000 2
18949 18953 18951 18952 4 180.0000771 4.6024000 2
18955 18956 18957 18958 1 180.0000771 15.1670000 2
18955 18956 18957 18959 1 180.0000771 15.1670000 2
18958 18956 18957 18959 4 180.0000771 4.6024000 2
18955 18956 18965 18957 4 180.0000771 4.6024000 2
18955 18956 18965 18963 1 180.0000771 15.1670000 2
18955 18956 18965 18966 1 180.0000771 15.1670000 2
18957 18956 18965 18963 1 180.0000771 15.1670000 2
18957 18956 18965 18966 1 180.0000771 15.1670000 2
18958 18957 18956 18965 1 180.0000771 15.1670000 2
18959 18957 18956 18965 1 180.0000771 15.1670000 2
18956 18957 18959 18960 1 180.0000771 15.1670000 2
18956 18957 18959 18961 1 180.0000771 15.1670000 2
18958 18957 18959 18960 1 180.0000771 15.1670000 2
18958 18957 18959 18961 1 180.0000771 15.1670000 2
18957 18959 18961 18962 1 180.0000771 15.1670000 2
18957 18959 18961 18963 1 180.0000771 15.1670000 2
18960 18959 18961 18962 1 180.0000771 15.1670000 2
18960 18959 18961 18963 1 180.0000771 15.1670000 2
18957 18961 18959 18960 4 180.0000771 4.6024000 2
18959 18961 18963 18964 1 180.0000771 15.1670000 2
18959 18961 18963 18965 1 180.0000771 15.1670000 2
18962 18961 18963 18964 1 180.0000771 15.1670000 2
18962 18961 18963 18965 1 180.0000771 15.1670000 2
18959 18963 18961 18962 4 180.0000771 4.6024000 2
18956 18963 18965 18966 4 180.0000771 4.6024000 2
18961 18963 18965 18966 1 180.0000771 15.1670000 2
18964 18963 18965 18966 1 180.0000771 15.1670000 2
18956 18965 18963 18961 1 180.0000771 15.1670000 2
18956 18965 18963 18964 1 180.0000771 15.1670000 2
18961 18965 18963 18964 4 180.0000771 4.6024000 2
18967 18968 18969 18970 1 180.0000771 15.1670000 2
18967 18968 18969 18971 1 180.0000771 15.1670000 2
18970 18968 18969 18971 4 180.0000771 4.6024000 2
18967 18968 18977 18969 4 180.0000771 4.6024000 2
18967 18968 18977 18975 1 180.0000771 15.1670000 2
18967 18968 18977 18978 1 180.0000771 15.1670000 2
18969 18968 18977 18975 1 180.0000771 15.1670000 2
18969 18968 18977 18978 1 180.0000771 15.1670000 2
18970 18969 18968 18977 1 180.0000771 15.1670000 2
18971 18969 18968 18977 1 180.0000771 15.1670000 2
18968 18969 18971 18972 1 180.0000771 15.1670000 2
18968 18969 18971 18973 1 180.0000771 15.1670000 2
18970 18969 18971 18972 1 180.0000771 15.1670000 2
18970 18969 18971 18973 1 180.0000771 15.1670000 2
18969 18971 18973 18974 1 180.0000771 15.1670000 2
18969 18971 18973 18975 1 180.0000771 15.1670000 2
18972 18971 18973 18974 1 180.0000771 15.1670000 2
18972 18971 18973 18975 1 180.0000771 15.1670000 2
18969 18973 18971 18972 4 180.0000771 4.6024000 2
18971 18973 18975 18976 1 180.0000771 15.1670000 2
18971 18973 18975 18977 1 180.0000771 15.1670000 2
18974 18973 18975 18976 1 180.0000771 15.1670000 2
18974 18973 18975 18977 1 180.0000771 15.1670000 2
18971 18975 18973 18974 4 180.0000771 4.6024000 2
18968 18975 18977 18978 4 180.0000771 4.6024000 2
18973 18975 18977 18978 1 180.0000771 15.1670000 2
18976 18975 18977 18978 1 180.0000771 15.1670000 2
18968 18977 18975 18973 1 180.0000771 15.1670000 2
18968 18977 18975 18976 1 180.0000771 15.1670000 2
18973 18977 18975 18976 4 180.0000771 4.6024000 2
18979 18980 18981 18982 1 180.0000771 15.1670000 2
18979 18980 18981 18983 1 180.0000771 15.1670000 2
18982 18980 18981 18983 4 180.0000771 4.6024000 2
18979 18980 18989 18981 4 180.0000771 4.6024000 2
18979 18980 18989 18987 1 180.0000771 15.1670000 2
18979 18980 18989 18990 1 180.0000771 15.1670000 2
18981 18980 18989 18987 1 180.0000771 15.1670000 2
18981 18980 18989 18990 1 180.0000771 15.1670000 2
18982 18981 18980 18989 1 180.0000771 15.1670000 2
18983 18981 18980 18989 1 180.0000771 15.1670000 2
18980 18981 18983 18984 1 180.0000771 15.1670000 2
18980 18981 18983 18985 1 180.0000771 15.1670000 2
18982 18981 18983 18984 1 180.0000771 15.1670000 2
18982 18981 18983 18985 1 180.0000771 15.1670000 2
18981 18983 18985 18986 1 180.0000771 15.1670000 2
18981 18983 18985 18987 1 180.0000771 15.1670000 2
18984 18983 18985 18986 1 180.0000771 15.1670000 2
18984 18983 18985 18987 1 180.0000771 15.1670000 2
18981 18985 18983 18984 4 180.0000771 4.6024000 2
18983 18985 18987 18988 1 180.0000771 15.1670000 2
18983 18985 18987 18989 1 180.0000771 15.1670000 2
18986 18985 18987 18988 1 180.0000771 15.1670000 2
18986 18985 18987 18989 1 180.0000771 15.1670000 2
18983 18987 18985 18986 4 180.0000771 4.6024000 2
18980 18987 18989 18990 4 180.0000771 4.6024000 2
18985 18987 18989 18990 1 180.0000771 15.1670000 2
18988 18987 18989 18990 1 180.0000771 15.1670000 2
18980 18989 18987 18985 1 180.0000771 15.1670000 2
18980 18989 18987 18988 1 180.0000771 15.1670000 2
18985 18989 18987 18988 4 180.0000771 4.6024000 2
18991 18992 18993 18994 1 180.0000771 15.1670000 2
18991 18992 18993 18995 1 180.0000771 15.1670000 2
18994 18992 18993 18995 4 180.0000771 4.6024000 2
18991 18992 19001 18993 4 180.0000771 4.6024000 2
18991 18992 19001 18999 1 180.0000771 15.1670000 2
18991 18992 19001 19002 1 180.0000771 15.1670000 2
18993 18992 19001 18999 1 180.0000771 15.1670000 2
18993 18992 19001 19002 1 180.0000771 15.1670000 2
18994 18993 18992 19001 1 180.0000771 15.1670000 2
18995 18993 18992 19001 1 180.0000771 15.1670000 2
18992 18993 18995 18996 1 180.0000771 15.1670000 2
18992 18993 18995 18997 1 180.0000771 15.1670000 2
18994 18993 18995 18996 1 180.0000771 15.1670000 2
18994 18993 18995 18997 1 180.0000771 15.1670000 2
18993 18995 18997 18998 1 180.0000771 15.1670000 2
18993 18995 18997 18999 1 180.0000771 15.1670000 2
18996 18995 18997 18998 1 180.0000771 15.1670000 2
18996 18995 18997 18999 1 180.0000771 15.1670000 2
18993 18997 18995 18996 4 180.0000771 4.6024000 2
18995 18997 18999 19000 1 180.0000771 15.1670000 2
18995 18997 18999 19001 1 180.0000771 15.1670000 2
18998 18997 18999 19000 1 180.0000771 15.1670000 2
18998 18997 18999 19001 1 180.0000771 15.1670000 2
18995 18999 18997 18998 4 180.0000771 4.6024000 2
18992 18999 19001 19002 4 180.0000771 4.6024000 2
18997 18999 19001 19002 1 180.0000771 15.1670000 2
19000 18999 19001 19002 1 180.0000771 15.1670000 2
18992 19001 18999 18997 1 180.0000771 15.1670000 2
18992 19001 18999 19000 1 180.0000771 15.1670000 2
18997 19001 18999 19000 4 180.0000771 4.6024000 2
19003 19004 19005 19006 1 180.0000771 15.1670000 2
19003 19004 19005 19007 1 180.0000771 15.1670000 2
19006 19004 19005 19007 4 180.0000771 4.6024000 2
19003 19004 19013 19005 4 180.0000771 4.6024000 2
19003 19004 19013 19011 1 180.0000771 15.1670000 2
19003 19004 19013 19014 1 180.0000771 15.1670000 2
19005 19004 19013 19011 1 180.0000771 15.1670000 2
19005 19004 19013 19014 1 180.0000771 15.1670000 2
19006 19005 19004 19013 1 180.0000771 15.1670000 2
19007 19005 19004 19013 1 180.0000771 15.1670000 2
19004 19005 19007 19008 1 180.0000771 15.1670000 2
19004 19005 19007 19009 1 180.0000771 15.1670000 2
19006 19005 19007 19008 1 180.0000771 15.1670000 2
19006 19005 19007 19009 1 180.0000771 15.1670000 2
19005 19007 19009 19010 1 180.0000771 15.1670000 2
19005 19007 19009 19011 1 180.0000771 15.1670000 2
19008 19007 19009 19010 1 180.0000771 15.1670000 2
19008 19007 19009 19011 1 180.0000771 15.1670000 2
19005 19009 19007 19008 4 180.0000771 4.6024000 2
19007 19009 19011 19012 1 180.0000771 15.1670000 2
19007 19009 19011 19013 1 180.0000771 15.1670000 2
19010 19009 19011 19012 1 180.0000771 15.1670000 2
19010 19009 19011 19013 1 180.0000771 15.1670000 2
19007 19011 19009 19010 4 180.0000771 4.6024000 2
19004 19011 19013 19014 4 180.0000771 4.6024000 2
19009 19011 19013 19014 1 180.0000771 15.1670000 2
19012 19011 19013 19014 1 180.0000771 15.1670000 2
19004 19013 19011 19009 1 180.0000771 15.1670000 2
19004 19013 19011 19012 1 180.0000771 15.1670000 2
19009 19013 19011 19012 4 180.0000771 4.6024000 2
19015 19016 19017 19018 1 180.0000771 15.1670000 2
19015 19016 19017 19019 1 180.0000771 15.1670000 2
19018 19016 19017 19019 4 180.0000771 4.6024000 2
19015 19016 19025 19017 4 180.0000771 4.6024000 2
19015 19016 19025 19023 1 180.0000771 15.1670000 2
19015 19016 19025 19026 1 180.0000771 15.1670000 2
19017 19016 19025 19023 1 180.0000771 15.1670000 2
19017 19016 19025 19026 1 180.0000771 15.1670000 2
19018 19017 19016 19025 1 180.0000771 15.1670000 2
19019 19017 19016 19025 1 180.0000771 15.1670000 2
19016 19017 19019 19020 1 180.0000771 15.1670000 2
19016 19017 19019 19021 1 180.0000771 15.1670000 2
19018 19017 19019 19020 1 180.0000771 15.1670000 2
19018 19017 19019 19021 1 180.0000771 15.1670000 2
19017 19019 19021 19022 1 180.0000771 15.1670000 2
19017 19019 19021 19023 1 180.0000771 15.1670000 2
19020 19019 19021 19022 1 180.0000771 15.1670000 2
19020 19019 19021 19023 1 180.0000771 15.1670000 2
19017 19021 19019 19020 4 180.0000771 4.6024000 2
19019 19021 19023 19024 1 180.0000771 15.1670000 2
19019 19021 19023 19025 1 180.0000771 15.1670000 2
19022 19021 19023 19024 1 180.0000771 15.1670000 2
19022 19021 19023 19025 1 180.0000771 15.1670000 2
19019 19023 19021 19022 4 180.0000771 4.6024000 2
19016 19023 19025 19026 4 180.0000771 4.6024000 2
19021 19023 19025 19026 1 180.0000771 15.1670000 2
19024 19023 19025 19026 1 180.0000771 15.1670000 2
19016 19025 19023 19021 1 180.0000771 15.1670000 2
19016 19025 19023 19024 1 180.0000771 15.1670000 2
19021 19025 19023 19024 4 180.0000771 4.6024000 2
19027 19028 19029 19030 1 180.0000771 15.1670000 2
19027 19028 19029 19031 1 180.0000771 15.1670000 2
19030 19028 19029 19031 4 180.0000771 4.6024000 2
19027 19028 19037 19029 4 180.0000771 4.6024000 2
19027 19028 19037 19035 1 180.0000771 15.1670000 2
19027 19028 19037 19038 1 180.0000771 15.1670000 2
19029 19028 19037 19035 1 180.0000771 15.1670000 2
19029 19028 19037 19038 1 180.0000771 15.1670000 2
19030 19029 19028 19037 1 180.0000771 15.1670000 2
19031 19029 19028 19037 1 180.0000771 15.1670000 2
19028 19029 19031 19032 1 180.0000771 15.1670000 2
19028 19029 19031 19033 1 180.0000771 15.1670000 2
19030 19029 19031 19032 1 180.0000771 15.1670000 2
19030 19029 19031 19033 1 180.0000771 15.1670000 2
19029 19031 19033 19034 1 180.0000771 15.1670000 2
19029 19031 19033 19035 1 180.0000771 15.1670000 2
19032 19031 19033 19034 1 180.0000771 15.1670000 2
19032 19031 19033 19035 1 180.0000771 15.1670000 2
19029 19033 19031 19032 4 180.0000771 4.6024000 2
19031 19033 19035 19036 1 180.0000771 15.1670000 2
19031 19033 19035 19037 1 180.0000771 15.1670000 2
19034 19033 19035 19036 1 180.0000771 15.1670000 2
19034 19033 19035 19037 1 180.0000771 15.1670000 2
19031 19035 19033 19034 4 180.0000771 4.6024000 2
19028 19035 19037 19038 4 180.0000771 4.6024000 2
19033 19035 19037 19038 1 180.0000771 15.1670000 2
19036 19035 19037 19038 1 180.0000771 15.1670000 2
19028 19037 19035 19033 1 180.0000771 15.1670000 2
19028 19037 19035 19036 1 180.0000771 15.1670000 2
19033 19037 19035 19036 4 180.0000771 4.6024000 2
19039 19040 19041 19042 1 180.0000771 15.1670000 2
19039 19040 19041 19043 1 180.0000771 15.1670000 2
19042 19040 19041 19043 4 180.0000771 4.6024000 2
19039 19040 19049 19041 4 180.0000771 4.6024000 2
19039 19040 19049 19047 1 180.0000771 15.1670000 2
19039 19040 19049 19050 1 180.0000771 15.1670000 2
19041 19040 19049 19047 1 180.0000771 15.1670000 2
19041 19040 19049 19050 1 180.0000771 15.1670000 2
19042 19041 19040 19049 1 180.0000771 15.1670000 2
19043 19041 19040 19049 1 180.0000771 15.1670000 2
19040 19041 19043 19044 1 180.0000771 15.1670000 2
19040 19041 19043 19045 1 180.0000771 15.1670000 2
19042 19041 19043 19044 1 180.0000771 15.1670000 2
19042 19041 19043 19045 1 180.0000771 15.1670000 2
19041 19043 19045 19046 1 180.0000771 15.1670000 2
19041 19043 19045 19047 1 180.0000771 15.1670000 2
19044 19043 19045 19046 1 180.0000771 15.1670000 2
19044 19043 19045 19047 1 180.0000771 15.1670000 2
19041 19045 19043 19044 4 180.0000771 4.6024000 2
19043 19045 19047 19048 1 180.0000771 15.1670000 2
19043 19045 19047 19049 1 180.0000771 15.1670000 2
19046 19045 19047 19048 1 180.0000771 15.1670000 2
19046 19045 19047 19049 1 180.0000771 15.1670000 2
19043 19047 19045 19046 4 180.0000771 4.6024000 2
19040 19047 19049 19050 4 180.0000771 4.6024000 2
19045 19047 19049 19050 1 180.0000771 15.1670000 2
19048 19047 19049 19050 1 180.0000771 15.1670000 2
19040 19049 19047 19045 1 180.0000771 15.1670000 2
19040 19049 19047 19048 1 180.0000771 15.1670000 2
19045 19049 19047 19048 4 180.0000771 4.6024000 2
19051 19052 19053 19054 1 180.0000771 15.1670000 2
19051 19052 19053 19055 1 180.0000771 15.1670000 2
19054 19052 19053 19055 4 180.0000771 4.6024000 2
19051 19052 19061 19053 4 180.0000771 4.6024000 2
19051 19052 19061 19059 1 180.0000771 15.1670000 2
19051 19052 19061 19062 1 180.0000771 15.1670000 2
19053 19052 19061 19059 1 180.0000771 15.1670000 2
19053 19052 19061 19062 1 180.0000771 15.1670000 2
19054 19053 19052 19061 1 180.0000771 15.1670000 2
19055 19053 19052 19061 1 180.0000771 15.1670000 2
19052 19053 19055 19056 1 180.0000771 15.1670000 2
19052 19053 19055 19057 1 180.0000771 15.1670000 2
19054 19053 19055 19056 1 180.0000771 15.1670000 2
19054 19053 19055 19057 1 180.0000771 15.1670000 2
19053 19055 19057 19058 1 180.0000771 15.1670000 2
19053 19055 19057 19059 1 180.0000771 15.1670000 2
19056 19055 19057 19058 1 180.0000771 15.1670000 2
19056 19055 19057 19059 1 180.0000771 15.1670000 2
19053 19057 19055 19056 4 180.0000771 4.6024000 2
19055 19057 19059 19060 1 180.0000771 15.1670000 2
19055 19057 19059 19061 1 180.0000771 15.1670000 2
19058 19057 19059 19060 1 180.0000771 15.1670000 2
19058 19057 19059 19061 1 180.0000771 15.1670000 2
19055 19059 19057 19058 4 180.0000771 4.6024000 2
19052 19059 19061 19062 4 180.0000771 4.6024000 2
19057 19059 19061 19062 1 180.0000771 15.1670000 2
19060 19059 19061 19062 1 180.0000771 15.1670000 2
19052 19061 19059 19057 1 180.0000771 15.1670000 2
19052 19061 19059 19060 1 180.0000771 15.1670000 2
19057 19061 19059 19060 4 180.0000771 4.6024000 2
19063 19064 19065 19066 1 180.0000771 15.1670000 2
19063 19064 19065 19067 1 180.0000771 15.1670000 2
19066 19064 19065 19067 4 180.0000771 4.6024000 2
19063 19064 19073 19065 4 180.0000771 4.6024000 2
19063 19064 19073 19071 1 180.0000771 15.1670000 2
19063 19064 19073 19074 1 180.0000771 15.1670000 2
19065 19064 19073 19071 1 180.0000771 15.1670000 2
19065 19064 19073 19074 1 180.0000771 15.1670000 2
19066 19065 19064 19073 1 180.0000771 15.1670000 2
19067 19065 19064 19073 1 180.0000771 15.1670000 2
19064 19065 19067 19068 1 180.0000771 15.1670000 2
19064 19065 19067 19069 1 180.0000771 15.1670000 2
19066 19065 19067 19068 1 180.0000771 15.1670000 2
19066 19065 19067 19069 1 180.0000771 15.1670000 2
19065 19067 19069 19070 1 180.0000771 15.1670000 2
19065 19067 19069 19071 1 180.0000771 15.1670000 2
19068 19067 19069 19070 1 180.0000771 15.1670000 2
19068 19067 19069 19071 1 180.0000771 15.1670000 2
19065 19069 19067 19068 4 180.0000771 4.6024000 2
19067 19069 19071 19072 1 180.0000771 15.1670000 2
19067 19069 19071 19073 1 180.0000771 15.1670000 2
19070 19069 19071 19072 1 180.0000771 15.1670000 2
19070 19069 19071 19073 1 180.0000771 15.1670000 2
19067 19071 19069 19070 4 180.0000771 4.6024000 2
19064 19071 19073 19074 4 180.0000771 4.6024000 2
19069 19071 19073 19074 1 180.0000771 15.1670000 2
19072 19071 19073 19074 1 180.0000771 15.1670000 2
19064 19073 19071 19069 1 180.0000771 15.1670000 2
19064 19073 19071 19072 1 180.0000771 15.1670000 2
19069 19073 19071 19072 4 180.0000771 4.6024000 2
19075 19076 19077 19078 1 180.0000771 15.1670000 2
19075 19076 19077 19079 1 180.0000771 15.1670000 2
19078 19076 19077 19079 4 180.0000771 4.6024000 2
19075 19076 19085 19077 4 180.0000771 4.6024000 2
19075 19076 19085 19083 1 180.0000771 15.1670000 2
19075 19076 19085 19086 1 180.0000771 15.1670000 2
19077 19076 19085 19083 1 180.0000771 15.1670000 2
19077 19076 19085 19086 1 180.0000771 15.1670000 2
19078 19077 19076 19085 1 180.0000771 15.1670000 2
19079 19077 19076 19085 1 180.0000771 15.1670000 2
19076 19077 19079 19080 1 180.0000771 15.1670000 2
19076 19077 19079 19081 1 180.0000771 15.1670000 2
19078 19077 19079 19080 1 180.0000771 15.1670000 2
19078 19077 19079 19081 1 180.0000771 15.1670000 2
19077 19079 19081 19082 1 180.0000771 15.1670000 2
19077 19079 19081 19083 1 180.0000771 15.1670000 2
19080 19079 19081 19082 1 180.0000771 15.1670000 2
19080 19079 19081 19083 1 180.0000771 15.1670000 2
19077 19081 19079 19080 4 180.0000771 4.6024000 2
19079 19081 19083 19084 1 180.0000771 15.1670000 2
19079 19081 19083 19085 1 180.0000771 15.1670000 2
19082 19081 19083 19084 1 180.0000771 15.1670000 2
19082 19081 19083 19085 1 180.0000771 15.1670000 2
19079 19083 19081 19082 4 180.0000771 4.6024000 2
19076 19083 19085 19086 4 180.0000771 4.6024000 2
19081 19083 19085 19086 1 180.0000771 15.1670000 2
19084 19083 19085 19086 1 180.0000771 15.1670000 2
19076 19085 19083 19081 1 180.0000771 15.1670000 2
19076 19085 19083 19084 1 180.0000771 15.1670000 2
19081 19085 19083 19084 4 180.0000771 4.6024000 2
19087 19088 19089 19090 1 180.0000771 15.1670000 2
19087 19088 19089 19091 1 180.0000771 15.1670000 2
19090 19088 19089 19091 4 180.0000771 4.6024000 2
19087 19088 19097 19089 4 180.0000771 4.6024000 2
19087 19088 19097 19095 1 180.0000771 15.1670000 2
19087 19088 19097 19098 1 180.0000771 15.1670000 2
19089 19088 19097 19095 1 180.0000771 15.1670000 2
19089 19088 19097 19098 1 180.0000771 15.1670000 2
19090 19089 19088 19097 1 180.0000771 15.1670000 2
19091 19089 19088 19097 1 180.0000771 15.1670000 2
19088 19089 19091 19092 1 180.0000771 15.1670000 2
19088 19089 19091 19093 1 180.0000771 15.1670000 2
19090 19089 19091 19092 1 180.0000771 15.1670000 2
19090 19089 19091 19093 1 180.0000771 15.1670000 2
19089 19091 19093 19094 1 180.0000771 15.1670000 2
19089 19091 19093 19095 1 180.0000771 15.1670000 2
19092 19091 19093 19094 1 180.0000771 15.1670000 2
19092 19091 19093 19095 1 180.0000771 15.1670000 2
19089 19093 19091 19092 4 180.0000771 4.6024000 2
19091 19093 19095 19096 1 180.0000771 15.1670000 2
19091 19093 19095 19097 1 180.0000771 15.1670000 2
19094 19093 19095 19096 1 180.0000771 15.1670000 2
19094 19093 19095 19097 1 180.0000771 15.1670000 2
19091 19095 19093 19094 4 180.0000771 4.6024000 2
19088 19095 19097 19098 4 180.0000771 4.6024000 2
19093 19095 19097 19098 1 180.0000771 15.1670000 2
19096 19095 19097 19098 1 180.0000771 15.1670000 2
19088 19097 19095 19093 1 180.0000771 15.1670000 2
19088 19097 19095 19096 1 180.0000771 15.1670000 2
19093 19097 19095 19096 4 180.0000771 4.6024000 2
19099 19100 19101 19102 1 180.0000771 15.1670000 2
19099 19100 19101 19103 1 180.0000771 15.1670000 2
19102 19100 19101 19103 4 180.0000771 4.6024000 2
19099 19100 19109 19101 4 180.0000771 4.6024000 2
19099 19100 19109 19107 1 180.0000771 15.1670000 2
19099 19100 19109 19110 1 180.0000771 15.1670000 2
19101 19100 19109 19107 1 180.0000771 15.1670000 2
19101 19100 19109 19110 1 180.0000771 15.1670000 2
19102 19101 19100 19109 1 180.0000771 15.1670000 2
19103 19101 19100 19109 1 180.0000771 15.1670000 2
19100 19101 19103 19104 1 180.0000771 15.1670000 2
19100 19101 19103 19105 1 180.0000771 15.1670000 2
19102 19101 19103 19104 1 180.0000771 15.1670000 2
19102 19101 19103 19105 1 180.0000771 15.1670000 2
19101 19103 19105 19106 1 180.0000771 15.1670000 2
19101 19103 19105 19107 1 180.0000771 15.1670000 2
19104 19103 19105 19106 1 180.0000771 15.1670000 2
19104 19103 19105 19107 1 180.0000771 15.1670000 2
19101 19105 19103 19104 4 180.0000771 4.6024000 2
19103 19105 19107 19108 1 180.0000771 15.1670000 2
19103 19105 19107 19109 1 180.0000771 15.1670000 2
19106 19105 19107 19108 1 180.0000771 15.1670000 2
19106 19105 19107 19109 1 180.0000771 15.1670000 2
19103 19107 19105 19106 4 180.0000771 4.6024000 2
19100 19107 19109 19110 4 180.0000771 4.6024000 2
19105 19107 19109 19110 1 180.0000771 15.1670000 2
19108 19107 19109 19110 1 180.0000771 15.1670000 2
19100 19109 19107 19105 1 180.0000771 15.1670000 2
19100 19109 19107 19108 1 180.0000771 15.1670000 2
19105 19109 19107 19108 4 180.0000771 4.6024000 2
19111 19112 19113 19114 1 180.0000771 15.1670000 2
19111 19112 19113 19115 1 180.0000771 15.1670000 2
19114 19112 19113 19115 4 180.0000771 4.6024000 2
19111 19112 19121 19113 4 180.0000771 4.6024000 2
19111 19112 19121 19119 1 180.0000771 15.1670000 2
19111 19112 19121 19122 1 180.0000771 15.1670000 2
19113 19112 19121 19119 1 180.0000771 15.1670000 2
19113 19112 19121 19122 1 180.0000771 15.1670000 2
19114 19113 19112 19121 1 180.0000771 15.1670000 2
19115 19113 19112 19121 1 180.0000771 15.1670000 2
19112 19113 19115 19116 1 180.0000771 15.1670000 2
19112 19113 19115 19117 1 180.0000771 15.1670000 2
19114 19113 19115 19116 1 180.0000771 15.1670000 2
19114 19113 19115 19117 1 180.0000771 15.1670000 2
19113 19115 19117 19118 1 180.0000771 15.1670000 2
19113 19115 19117 19119 1 180.0000771 15.1670000 2
19116 19115 19117 19118 1 180.0000771 15.1670000 2
19116 19115 19117 19119 1 180.0000771 15.1670000 2
19113 19117 19115 19116 4 180.0000771 4.6024000 2
19115 19117 19119 19120 1 180.0000771 15.1670000 2
19115 19117 19119 19121 1 180.0000771 15.1670000 2
19118 19117 19119 19120 1 180.0000771 15.1670000 2
19118 19117 19119 19121 1 180.0000771 15.1670000 2
19115 19119 19117 19118 4 180.0000771 4.6024000 2
19112 19119 19121 19122 4 180.0000771 4.6024000 2
19117 19119 19121 19122 1 180.0000771 15.1670000 2
19120 19119 19121 19122 1 180.0000771 15.1670000 2
19112 19121 19119 19117 1 180.0000771 15.1670000 2
19112 19121 19119 19120 1 180.0000771 15.1670000 2
19117 19121 19119 19120 4 180.0000771 4.6024000 2
19123 19124 19125 19126 1 180.0000771 15.1670000 2
19123 19124 19125 19127 1 180.0000771 15.1670000 2
19126 19124 19125 19127 4 180.0000771 4.6024000 2
19123 19124 19133 19125 4 180.0000771 4.6024000 2
19123 19124 19133 19131 1 180.0000771 15.1670000 2
19123 19124 19133 19134 1 180.0000771 15.1670000 2
19125 19124 19133 19131 1 180.0000771 15.1670000 2
19125 19124 19133 19134 1 180.0000771 15.1670000 2
19126 19125 19124 19133 1 180.0000771 15.1670000 2
19127 19125 19124 19133 1 180.0000771 15.1670000 2
19124 19125 19127 19128 1 180.0000771 15.1670000 2
19124 19125 19127 19129 1 180.0000771 15.1670000 2
19126 19125 19127 19128 1 180.0000771 15.1670000 2
19126 19125 19127 19129 1 180.0000771 15.1670000 2
19125 19127 19129 19130 1 180.0000771 15.1670000 2
19125 19127 19129 19131 1 180.0000771 15.1670000 2
19128 19127 19129 19130 1 180.0000771 15.1670000 2
19128 19127 19129 19131 1 180.0000771 15.1670000 2
19125 19129 19127 19128 4 180.0000771 4.6024000 2
19127 19129 19131 19132 1 180.0000771 15.1670000 2
19127 19129 19131 19133 1 180.0000771 15.1670000 2
19130 19129 19131 19132 1 180.0000771 15.1670000 2
19130 19129 19131 19133 1 180.0000771 15.1670000 2
19127 19131 19129 19130 4 180.0000771 4.6024000 2
19124 19131 19133 19134 4 180.0000771 4.6024000 2
19129 19131 19133 19134 1 180.0000771 15.1670000 2
19132 19131 19133 19134 1 180.0000771 15.1670000 2
19124 19133 19131 19129 1 180.0000771 15.1670000 2
19124 19133 19131 19132 1 180.0000771 15.1670000 2
19129 19133 19131 19132 4 180.0000771 4.6024000 2
19135 19136 19137 19138 1 180.0000771 15.1670000 2
19135 19136 19137 19139 1 180.0000771 15.1670000 2
19138 19136 19137 19139 4 180.0000771 4.6024000 2
19135 19136 19145 19137 4 180.0000771 4.6024000 2
19135 19136 19145 19143 1 180.0000771 15.1670000 2
19135 19136 19145 19146 1 180.0000771 15.1670000 2
19137 19136 19145 19143 1 180.0000771 15.1670000 2
19137 19136 19145 19146 1 180.0000771 15.1670000 2
19138 19137 19136 19145 1 180.0000771 15.1670000 2
19139 19137 19136 19145 1 180.0000771 15.1670000 2
19136 19137 19139 19140 1 180.0000771 15.1670000 2
19136 19137 19139 19141 1 180.0000771 15.1670000 2
19138 19137 19139 19140 1 180.0000771 15.1670000 2
19138 19137 19139 19141 1 180.0000771 15.1670000 2
19137 19139 19141 19142 1 180.0000771 15.1670000 2
19137 19139 19141 19143 1 180.0000771 15.1670000 2
19140 19139 19141 19142 1 180.0000771 15.1670000 2
19140 19139 19141 19143 1 180.0000771 15.1670000 2
19137 19141 19139 19140 4 180.0000771 4.6024000 2
19139 19141 19143 19144 1 180.0000771 15.1670000 2
19139 19141 19143 19145 1 180.0000771 15.1670000 2
19142 19141 19143 19144 1 180.0000771 15.1670000 2
19142 19141 19143 19145 1 180.0000771 15.1670000 2
19139 19143 19141 19142 4 180.0000771 4.6024000 2
19136 19143 19145 19146 4 180.0000771 4.6024000 2
19141 19143 19145 19146 1 180.0000771 15.1670000 2
19144 19143 19145 19146 1 180.0000771 15.1670000 2
19136 19145 19143 19141 1 180.0000771 15.1670000 2
19136 19145 19143 19144 1 180.0000771 15.1670000 2
19141 19145 19143 19144 4 180.0000771 4.6024000 2
19147 19148 19149 19150 1 180.0000771 15.1670000 2
19147 19148 19149 19151 1 180.0000771 15.1670000 2
19150 19148 19149 19151 4 180.0000771 4.6024000 2
19147 19148 19157 19149 4 180.0000771 4.6024000 2
19147 19148 19157 19155 1 180.0000771 15.1670000 2
19147 19148 19157 19158 1 180.0000771 15.1670000 2
19149 19148 19157 19155 1 180.0000771 15.1670000 2
19149 19148 19157 19158 1 180.0000771 15.1670000 2
19150 19149 19148 19157 1 180.0000771 15.1670000 2
19151 19149 19148 19157 1 180.0000771 15.1670000 2
19148 19149 19151 19152 1 180.0000771 15.1670000 2
19148 19149 19151 19153 1 180.0000771 15.1670000 2
19150 19149 19151 19152 1 180.0000771 15.1670000 2
19150 19149 19151 19153 1 180.0000771 15.1670000 2
19149 19151 19153 19154 1 180.0000771 15.1670000 2
19149 19151 19153 19155 1 180.0000771 15.1670000 2
19152 19151 19153 19154 1 180.0000771 15.1670000 2
19152 19151 19153 19155 1 180.0000771 15.1670000 2
19149 19153 19151 19152 4 180.0000771 4.6024000 2
19151 19153 19155 19156 1 180.0000771 15.1670000 2
19151 19153 19155 19157 1 180.0000771 15.1670000 2
19154 19153 19155 19156 1 180.0000771 15.1670000 2
19154 19153 19155 19157 1 180.0000771 15.1670000 2
19151 19155 19153 19154 4 180.0000771 4.6024000 2
19148 19155 19157 19158 4 180.0000771 4.6024000 2
19153 19155 19157 19158 1 180.0000771 15.1670000 2
19156 19155 19157 19158 1 180.0000771 15.1670000 2
19148 19157 19155 19153 1 180.0000771 15.1670000 2
19148 19157 19155 19156 1 180.0000771 15.1670000 2
19153 19157 19155 19156 4 180.0000771 4.6024000 2
19159 19160 19161 19162 1 180.0000771 15.1670000 2
19159 19160 19161 19163 1 180.0000771 15.1670000 2
19162 19160 19161 19163 4 180.0000771 4.6024000 2
19159 19160 19169 19161 4 180.0000771 4.6024000 2
19159 19160 19169 19167 1 180.0000771 15.1670000 2
19159 19160 19169 19170 1 180.0000771 15.1670000 2
19161 19160 19169 19167 1 180.0000771 15.1670000 2
19161 19160 19169 19170 1 180.0000771 15.1670000 2
19162 19161 19160 19169 1 180.0000771 15.1670000 2
19163 19161 19160 19169 1 180.0000771 15.1670000 2
19160 19161 19163 19164 1 180.0000771 15.1670000 2
19160 19161 19163 19165 1 180.0000771 15.1670000 2
19162 19161 19163 19164 1 180.0000771 15.1670000 2
19162 19161 19163 19165 1 180.0000771 15.1670000 2
19161 19163 19165 19166 1 180.0000771 15.1670000 2
19161 19163 19165 19167 1 180.0000771 15.1670000 2
19164 19163 19165 19166 1 180.0000771 15.1670000 2
19164 19163 19165 19167 1 180.0000771 15.1670000 2
19161 19165 19163 19164 4 180.0000771 4.6024000 2
19163 19165 19167 19168 1 180.0000771 15.1670000 2
19163 19165 19167 19169 1 180.0000771 15.1670000 2
19166 19165 19167 19168 1 180.0000771 15.1670000 2
19166 19165 19167 19169 1 180.0000771 15.1670000 2
19163 19167 19165 19166 4 180.0000771 4.6024000 2
19160 19167 19169 19170 4 180.0000771 4.6024000 2
19165 19167 19169 19170 1 180.0000771 15.1670000 2
19168 19167 19169 19170 1 180.0000771 15.1670000 2
19160 19169 19167 19165 1 180.0000771 15.1670000 2
19160 19169 19167 19168 1 180.0000771 15.1670000 2
19165 19169 19167 19168 4 180.0000771 4.6024000 2
19171 19172 19173 19174 1 180.0000771 15.1670000 2
19171 19172 19173 19175 1 180.0000771 15.1670000 2
19174 19172 19173 19175 4 180.0000771 4.6024000 2
19171 19172 19181 19173 4 180.0000771 4.6024000 2
19171 19172 19181 19179 1 180.0000771 15.1670000 2
19171 19172 19181 19182 1 180.0000771 15.1670000 2
19173 19172 19181 19179 1 180.0000771 15.1670000 2
19173 19172 19181 19182 1 180.0000771 15.1670000 2
19174 19173 19172 19181 1 180.0000771 15.1670000 2
19175 19173 19172 19181 1 180.0000771 15.1670000 2
19172 19173 19175 19176 1 180.0000771 15.1670000 2
19172 19173 19175 19177 1 180.0000771 15.1670000 2
19174 19173 19175 19176 1 180.0000771 15.1670000 2
19174 19173 19175 19177 1 180.0000771 15.1670000 2
19173 19175 19177 19178 1 180.0000771 15.1670000 2
19173 19175 19177 19179 1 180.0000771 15.1670000 2
19176 19175 19177 19178 1 180.0000771 15.1670000 2
19176 19175 19177 19179 1 180.0000771 15.1670000 2
19173 19177 19175 19176 4 180.0000771 4.6024000 2
19175 19177 19179 19180 1 180.0000771 15.1670000 2
19175 19177 19179 19181 1 180.0000771 15.1670000 2
19178 19177 19179 19180 1 180.0000771 15.1670000 2
19178 19177 19179 19181 1 180.0000771 15.1670000 2
19175 19179 19177 19178 4 180.0000771 4.6024000 2
19172 19179 19181 19182 4 180.0000771 4.6024000 2
19177 19179 19181 19182 1 180.0000771 15.1670000 2
19180 19179 19181 19182 1 180.0000771 15.1670000 2
19172 19181 19179 19177 1 180.0000771 15.1670000 2
19172 19181 19179 19180 1 180.0000771 15.1670000 2
19177 19181 19179 19180 4 180.0000771 4.6024000 2
19183 19184 19185 19186 1 180.0000771 15.1670000 2
19183 19184 19185 19187 1 180.0000771 15.1670000 2
19186 19184 19185 19187 4 180.0000771 4.6024000 2
19183 19184 19193 19185 4 180.0000771 4.6024000 2
19183 19184 19193 19191 1 180.0000771 15.1670000 2
19183 19184 19193 19194 1 180.0000771 15.1670000 2
19185 19184 19193 19191 1 180.0000771 15.1670000 2
19185 19184 19193 19194 1 180.0000771 15.1670000 2
19186 19185 19184 19193 1 180.0000771 15.1670000 2
19187 19185 19184 19193 1 180.0000771 15.1670000 2
19184 19185 19187 19188 1 180.0000771 15.1670000 2
19184 19185 19187 19189 1 180.0000771 15.1670000 2
19186 19185 19187 19188 1 180.0000771 15.1670000 2
19186 19185 19187 19189 1 180.0000771 15.1670000 2
19185 19187 19189 19190 1 180.0000771 15.1670000 2
19185 19187 19189 19191 1 180.0000771 15.1670000 2
19188 19187 19189 19190 1 180.0000771 15.1670000 2
19188 19187 19189 19191 1 180.0000771 15.1670000 2
19185 19189 19187 19188 4 180.0000771 4.6024000 2
19187 19189 19191 19192 1 180.0000771 15.1670000 2
19187 19189 19191 19193 1 180.0000771 15.1670000 2
19190 19189 19191 19192 1 180.0000771 15.1670000 2
19190 19189 19191 19193 1 180.0000771 15.1670000 2
19187 19191 19189 19190 4 180.0000771 4.6024000 2
19184 19191 19193 19194 4 180.0000771 4.6024000 2
19189 19191 19193 19194 1 180.0000771 15.1670000 2
19192 19191 19193 19194 1 180.0000771 15.1670000 2
19184 19193 19191 19189 1 180.0000771 15.1670000 2
19184 19193 19191 19192 1 180.0000771 15.1670000 2
19189 19193 19191 19192 4 180.0000771 4.6024000 2
19195 19196 19197 19198 1 180.0000771 15.1670000 2
19195 19196 19197 19199 1 180.0000771 15.1670000 2
19198 19196 19197 19199 4 180.0000771 4.6024000 2
19195 19196 19205 19197 4 180.0000771 4.6024000 2
19195 19196 19205 19203 1 180.0000771 15.1670000 2
19195 19196 19205 19206 1 180.0000771 15.1670000 2
19197 19196 19205 19203 1 180.0000771 15.1670000 2
19197 19196 19205 19206 1 180.0000771 15.1670000 2
19198 19197 19196 19205 1 180.0000771 15.1670000 2
19199 19197 19196 19205 1 180.0000771 15.1670000 2
19196 19197 19199 19200 1 180.0000771 15.1670000 2
19196 19197 19199 19201 1 180.0000771 15.1670000 2
19198 19197 19199 19200 1 180.0000771 15.1670000 2
19198 19197 19199 19201 1 180.0000771 15.1670000 2
19197 19199 19201 19202 1 180.0000771 15.1670000 2
19197 19199 19201 19203 1 180.0000771 15.1670000 2
19200 19199 19201 19202 1 180.0000771 15.1670000 2
19200 19199 19201 19203 1 180.0000771 15.1670000 2
19197 19201 19199 19200 4 180.0000771 4.6024000 2
19199 19201 19203 19204 1 180.0000771 15.1670000 2
19199 19201 19203 19205 1 180.0000771 15.1670000 2
19202 19201 19203 19204 1 180.0000771 15.1670000 2
19202 19201 19203 19205 1 180.0000771 15.1670000 2
19199 19203 19201 19202 4 180.0000771 4.6024000 2
19196 19203 19205 19206 4 180.0000771 4.6024000 2
19201 19203 19205 19206 1 180.0000771 15.1670000 2
19204 19203 19205 19206 1 180.0000771 15.1670000 2
19196 19205 19203 19201 1 180.0000771 15.1670000 2
19196 19205 19203 19204 1 180.0000771 15.1670000 2
19201 19205 19203 19204 4 180.0000771 4.6024000 2
19207 19208 19209 19210 1 180.0000771 15.1670000 2
19207 19208 19209 19211 1 180.0000771 15.1670000 2
19210 19208 19209 19211 4 180.0000771 4.6024000 2
19207 19208 19217 19209 4 180.0000771 4.6024000 2
19207 19208 19217 19215 1 180.0000771 15.1670000 2
19207 19208 19217 19218 1 180.0000771 15.1670000 2
19209 19208 19217 19215 1 180.0000771 15.1670000 2
19209 19208 19217 19218 1 180.0000771 15.1670000 2
19210 19209 19208 19217 1 180.0000771 15.1670000 2
19211 19209 19208 19217 1 180.0000771 15.1670000 2
19208 19209 19211 19212 1 180.0000771 15.1670000 2
19208 19209 19211 19213 1 180.0000771 15.1670000 2
19210 19209 19211 19212 1 180.0000771 15.1670000 2
19210 19209 19211 19213 1 180.0000771 15.1670000 2
19209 19211 19213 19214 1 180.0000771 15.1670000 2
19209 19211 19213 19215 1 180.0000771 15.1670000 2
19212 19211 19213 19214 1 180.0000771 15.1670000 2
19212 19211 19213 19215 1 180.0000771 15.1670000 2
19209 19213 19211 19212 4 180.0000771 4.6024000 2
19211 19213 19215 19216 1 180.0000771 15.1670000 2
19211 19213 19215 19217 1 180.0000771 15.1670000 2
19214 19213 19215 19216 1 180.0000771 15.1670000 2
19214 19213 19215 19217 1 180.0000771 15.1670000 2
19211 19215 19213 19214 4 180.0000771 4.6024000 2
19208 19215 19217 19218 4 180.0000771 4.6024000 2
19213 19215 19217 19218 1 180.0000771 15.1670000 2
19216 19215 19217 19218 1 180.0000771 15.1670000 2
19208 19217 19215 19213 1 180.0000771 15.1670000 2
19208 19217 19215 19216 1 180.0000771 15.1670000 2
19213 19217 19215 19216 4 180.0000771 4.6024000 2
19219 19220 19221 19222 1 180.0000771 15.1670000 2
19219 19220 19221 19223 1 180.0000771 15.1670000 2
19222 19220 19221 19223 4 180.0000771 4.6024000 2
19219 19220 19229 19221 4 180.0000771 4.6024000 2
19219 19220 19229 19227 1 180.0000771 15.1670000 2
19219 19220 19229 19230 1 180.0000771 15.1670000 2
19221 19220 19229 19227 1 180.0000771 15.1670000 2
19221 19220 19229 19230 1 180.0000771 15.1670000 2
19222 19221 19220 19229 1 180.0000771 15.1670000 2
19223 19221 19220 19229 1 180.0000771 15.1670000 2
19220 19221 19223 19224 1 180.0000771 15.1670000 2
19220 19221 19223 19225 1 180.0000771 15.1670000 2
19222 19221 19223 19224 1 180.0000771 15.1670000 2
19222 19221 19223 19225 1 180.0000771 15.1670000 2
19221 19223 19225 19226 1 180.0000771 15.1670000 2
19221 19223 19225 19227 1 180.0000771 15.1670000 2
19224 19223 19225 19226 1 180.0000771 15.1670000 2
19224 19223 19225 19227 1 180.0000771 15.1670000 2
19221 19225 19223 19224 4 180.0000771 4.6024000 2
19223 19225 19227 19228 1 180.0000771 15.1670000 2
19223 19225 19227 19229 1 180.0000771 15.1670000 2
19226 19225 19227 19228 1 180.0000771 15.1670000 2
19226 19225 19227 19229 1 180.0000771 15.1670000 2
19223 19227 19225 19226 4 180.0000771 4.6024000 2
19220 19227 19229 19230 4 180.0000771 4.6024000 2
19225 19227 19229 19230 1 180.0000771 15.1670000 2
19228 19227 19229 19230 1 180.0000771 15.1670000 2
19220 19229 19227 19225 1 180.0000771 15.1670000 2
19220 19229 19227 19228 1 180.0000771 15.1670000 2
19225 19229 19227 19228 4 180.0000771 4.6024000 2
19231 19232 19233 19234 1 180.0000771 15.1670000 2
19231 19232 19233 19235 1 180.0000771 15.1670000 2
19234 19232 19233 19235 4 180.0000771 4.6024000 2
19231 19232 19241 19233 4 180.0000771 4.6024000 2
19231 19232 19241 19239 1 180.0000771 15.1670000 2
19231 19232 19241 19242 1 180.0000771 15.1670000 2
19233 19232 19241 19239 1 180.0000771 15.1670000 2
19233 19232 19241 19242 1 180.0000771 15.1670000 2
19234 19233 19232 19241 1 180.0000771 15.1670000 2
19235 19233 19232 19241 1 180.0000771 15.1670000 2
19232 19233 19235 19236 1 180.0000771 15.1670000 2
19232 19233 19235 19237 1 180.0000771 15.1670000 2
19234 19233 19235 19236 1 180.0000771 15.1670000 2
19234 19233 19235 19237 1 180.0000771 15.1670000 2
19233 19235 19237 19238 1 180.0000771 15.1670000 2
19233 19235 19237 19239 1 180.0000771 15.1670000 2
19236 19235 19237 19238 1 180.0000771 15.1670000 2
19236 19235 19237 19239 1 180.0000771 15.1670000 2
19233 19237 19235 19236 4 180.0000771 4.6024000 2
19235 19237 19239 19240 1 180.0000771 15.1670000 2
19235 19237 19239 19241 1 180.0000771 15.1670000 2
19238 19237 19239 19240 1 180.0000771 15.1670000 2
19238 19237 19239 19241 1 180.0000771 15.1670000 2
19235 19239 19237 19238 4 180.0000771 4.6024000 2
19232 19239 19241 19242 4 180.0000771 4.6024000 2
19237 19239 19241 19242 1 180.0000771 15.1670000 2
19240 19239 19241 19242 1 180.0000771 15.1670000 2
19232 19241 19239 19237 1 180.0000771 15.1670000 2
19232 19241 19239 19240 1 180.0000771 15.1670000 2
19237 19241 19239 19240 4 180.0000771 4.6024000 2
19243 19244 19245 19246 1 180.0000771 15.1670000 2
19243 19244 19245 19247 1 180.0000771 15.1670000 2
19246 19244 19245 19247 4 180.0000771 4.6024000 2
19243 19244 19253 19245 4 180.0000771 4.6024000 2
19243 19244 19253 19251 1 180.0000771 15.1670000 2
19243 19244 19253 19254 1 180.0000771 15.1670000 2
19245 19244 19253 19251 1 180.0000771 15.1670000 2
19245 19244 19253 19254 1 180.0000771 15.1670000 2
19246 19245 19244 19253 1 180.0000771 15.1670000 2
19247 19245 19244 19253 1 180.0000771 15.1670000 2
19244 19245 19247 19248 1 180.0000771 15.1670000 2
19244 19245 19247 19249 1 180.0000771 15.1670000 2
19246 19245 19247 19248 1 180.0000771 15.1670000 2
19246 19245 19247 19249 1 180.0000771 15.1670000 2
19245 19247 19249 19250 1 180.0000771 15.1670000 2
19245 19247 19249 19251 1 180.0000771 15.1670000 2
19248 19247 19249 19250 1 180.0000771 15.1670000 2
19248 19247 19249 19251 1 180.0000771 15.1670000 2
19245 19249 19247 19248 4 180.0000771 4.6024000 2
19247 19249 19251 19252 1 180.0000771 15.1670000 2
19247 19249 19251 19253 1 180.0000771 15.1670000 2
19250 19249 19251 19252 1 180.0000771 15.1670000 2
19250 19249 19251 19253 1 180.0000771 15.1670000 2
19247 19251 19249 19250 4 180.0000771 4.6024000 2
19244 19251 19253 19254 4 180.0000771 4.6024000 2
19249 19251 19253 19254 1 180.0000771 15.1670000 2
19252 19251 19253 19254 1 180.0000771 15.1670000 2
19244 19253 19251 19249 1 180.0000771 15.1670000 2
19244 19253 19251 19252 1 180.0000771 15.1670000 2
19249 19253 19251 19252 4 180.0000771 4.6024000 2
19255 19256 19257 19258 1 180.0000771 15.1670000 2
19255 19256 19257 19259 1 180.0000771 15.1670000 2
19258 19256 19257 19259 4 180.0000771 4.6024000 2
19255 19256 19265 19257 4 180.0000771 4.6024000 2
19255 19256 19265 19263 1 180.0000771 15.1670000 2
19255 19256 19265 19266 1 180.0000771 15.1670000 2
19257 19256 19265 19263 1 180.0000771 15.1670000 2
19257 19256 19265 19266 1 180.0000771 15.1670000 2
19258 19257 19256 19265 1 180.0000771 15.1670000 2
19259 19257 19256 19265 1 180.0000771 15.1670000 2
19256 19257 19259 19260 1 180.0000771 15.1670000 2
19256 19257 19259 19261 1 180.0000771 15.1670000 2
19258 19257 19259 19260 1 180.0000771 15.1670000 2
19258 19257 19259 19261 1 180.0000771 15.1670000 2
19257 19259 19261 19262 1 180.0000771 15.1670000 2
19257 19259 19261 19263 1 180.0000771 15.1670000 2
19260 19259 19261 19262 1 180.0000771 15.1670000 2
19260 19259 19261 19263 1 180.0000771 15.1670000 2
19257 19261 19259 19260 4 180.0000771 4.6024000 2
19259 19261 19263 19264 1 180.0000771 15.1670000 2
19259 19261 19263 19265 1 180.0000771 15.1670000 2
19262 19261 19263 19264 1 180.0000771 15.1670000 2
19262 19261 19263 19265 1 180.0000771 15.1670000 2
19259 19263 19261 19262 4 180.0000771 4.6024000 2
19256 19263 19265 19266 4 180.0000771 4.6024000 2
19261 19263 19265 19266 1 180.0000771 15.1670000 2
19264 19263 19265 19266 1 180.0000771 15.1670000 2
19256 19265 19263 19261 1 180.0000771 15.1670000 2
19256 19265 19263 19264 1 180.0000771 15.1670000 2
19261 19265 19263 19264 4 180.0000771 4.6024000 2
19267 19268 19269 19270 1 180.0000771 15.1670000 2
19267 19268 19269 19271 1 180.0000771 15.1670000 2
19270 19268 19269 19271 4 180.0000771 4.6024000 2
19267 19268 19277 19269 4 180.0000771 4.6024000 2
19267 19268 19277 19275 1 180.0000771 15.1670000 2
19267 19268 19277 19278 1 180.0000771 15.1670000 2
19269 19268 19277 19275 1 180.0000771 15.1670000 2
19269 19268 19277 19278 1 180.0000771 15.1670000 2
19270 19269 19268 19277 1 180.0000771 15.1670000 2
19271 19269 19268 19277 1 180.0000771 15.1670000 2
19268 19269 19271 19272 1 180.0000771 15.1670000 2
19268 19269 19271 19273 1 180.0000771 15.1670000 2
19270 19269 19271 19272 1 180.0000771 15.1670000 2
19270 19269 19271 19273 1 180.0000771 15.1670000 2
19269 19271 19273 19274 1 180.0000771 15.1670000 2
19269 19271 19273 19275 1 180.0000771 15.1670000 2
19272 19271 19273 19274 1 180.0000771 15.1670000 2
19272 19271 19273 19275 1 180.0000771 15.1670000 2
19269 19273 19271 19272 4 180.0000771 4.6024000 2
19271 19273 19275 19276 1 180.0000771 15.1670000 2
19271 19273 19275 19277 1 180.0000771 15.1670000 2
19274 19273 19275 19276 1 180.0000771 15.1670000 2
19274 19273 19275 19277 1 180.0000771 15.1670000 2
19271 19275 19273 19274 4 180.0000771 4.6024000 2
19268 19275 19277 19278 4 180.0000771 4.6024000 2
19273 19275 19277 19278 1 180.0000771 15.1670000 2
19276 19275 19277 19278 1 180.0000771 15.1670000 2
19268 19277 19275 19273 1 180.0000771 15.1670000 2
19268 19277 19275 19276 1 180.0000771 15.1670000 2
19273 19277 19275 19276 4 180.0000771 4.6024000 2
19279 19280 19281 19282 1 180.0000771 15.1670000 2
19279 19280 19281 19283 1 180.0000771 15.1670000 2
19282 19280 19281 19283 4 180.0000771 4.6024000 2
19279 19280 19289 19281 4 180.0000771 4.6024000 2
19279 19280 19289 19287 1 180.0000771 15.1670000 2
19279 19280 19289 19290 1 180.0000771 15.1670000 2
19281 19280 19289 19287 1 180.0000771 15.1670000 2
19281 19280 19289 19290 1 180.0000771 15.1670000 2
19282 19281 19280 19289 1 180.0000771 15.1670000 2
19283 19281 19280 19289 1 180.0000771 15.1670000 2
19280 19281 19283 19284 1 180.0000771 15.1670000 2
19280 19281 19283 19285 1 180.0000771 15.1670000 2
19282 19281 19283 19284 1 180.0000771 15.1670000 2
19282 19281 19283 19285 1 180.0000771 15.1670000 2
19281 19283 19285 19286 1 180.0000771 15.1670000 2
19281 19283 19285 19287 1 180.0000771 15.1670000 2
19284 19283 19285 19286 1 180.0000771 15.1670000 2
19284 19283 19285 19287 1 180.0000771 15.1670000 2
19281 19285 19283 19284 4 180.0000771 4.6024000 2
19283 19285 19287 19288 1 180.0000771 15.1670000 2
19283 19285 19287 19289 1 180.0000771 15.1670000 2
19286 19285 19287 19288 1 180.0000771 15.1670000 2
19286 19285 19287 19289 1 180.0000771 15.1670000 2
19283 19287 19285 19286 4 180.0000771 4.6024000 2
19280 19287 19289 19290 4 180.0000771 4.6024000 2
19285 19287 19289 19290 1 180.0000771 15.1670000 2
19288 19287 19289 19290 1 180.0000771 15.1670000 2
19280 19289 19287 19285 1 180.0000771 15.1670000 2
19280 19289 19287 19288 1 180.0000771 15.1670000 2
19285 19289 19287 19288 4 180.0000771 4.6024000 2
19291 19292 19293 19294 1 180.0000771 15.1670000 2
19291 19292 19293 19295 1 180.0000771 15.1670000 2
19294 19292 19293 19295 4 180.0000771 4.6024000 2
19291 19292 19301 19293 4 180.0000771 4.6024000 2
19291 19292 19301 19299 1 180.0000771 15.1670000 2
19291 19292 19301 19302 1 180.0000771 15.1670000 2
19293 19292 19301 19299 1 180.0000771 15.1670000 2
19293 19292 19301 19302 1 180.0000771 15.1670000 2
19294 19293 19292 19301 1 180.0000771 15.1670000 2
19295 19293 19292 19301 1 180.0000771 15.1670000 2
19292 19293 19295 19296 1 180.0000771 15.1670000 2
19292 19293 19295 19297 1 180.0000771 15.1670000 2
19294 19293 19295 19296 1 180.0000771 15.1670000 2
19294 19293 19295 19297 1 180.0000771 15.1670000 2
19293 19295 19297 19298 1 180.0000771 15.1670000 2
19293 19295 19297 19299 1 180.0000771 15.1670000 2
19296 19295 19297 19298 1 180.0000771 15.1670000 2
19296 19295 19297 19299 1 180.0000771 15.1670000 2
19293 19297 19295 19296 4 180.0000771 4.6024000 2
19295 19297 19299 19300 1 180.0000771 15.1670000 2
19295 19297 19299 19301 1 180.0000771 15.1670000 2
19298 19297 19299 19300 1 180.0000771 15.1670000 2
19298 19297 19299 19301 1 180.0000771 15.1670000 2
19295 19299 19297 19298 4 180.0000771 4.6024000 2
19292 19299 19301 19302 4 180.0000771 4.6024000 2
19297 19299 19301 19302 1 180.0000771 15.1670000 2
19300 19299 19301 19302 1 180.0000771 15.1670000 2
19292 19301 19299 19297 1 180.0000771 15.1670000 2
19292 19301 19299 19300 1 180.0000771 15.1670000 2
19297 19301 19299 19300 4 180.0000771 4.6024000 2
19303 19304 19305 19306 1 180.0000771 15.1670000 2
19303 19304 19305 19307 1 180.0000771 15.1670000 2
19306 19304 19305 19307 4 180.0000771 4.6024000 2
19303 19304 19313 19305 4 180.0000771 4.6024000 2
19303 19304 19313 19311 1 180.0000771 15.1670000 2
19303 19304 19313 19314 1 180.0000771 15.1670000 2
19305 19304 19313 19311 1 180.0000771 15.1670000 2
19305 19304 19313 19314 1 180.0000771 15.1670000 2
19306 19305 19304 19313 1 180.0000771 15.1670000 2
19307 19305 19304 19313 1 180.0000771 15.1670000 2
19304 19305 19307 19308 1 180.0000771 15.1670000 2
19304 19305 19307 19309 1 180.0000771 15.1670000 2
19306 19305 19307 19308 1 180.0000771 15.1670000 2
19306 19305 19307 19309 1 180.0000771 15.1670000 2
19305 19307 19309 19310 1 180.0000771 15.1670000 2
19305 19307 19309 19311 1 180.0000771 15.1670000 2
19308 19307 19309 19310 1 180.0000771 15.1670000 2
19308 19307 19309 19311 1 180.0000771 15.1670000 2
19305 19309 19307 19308 4 180.0000771 4.6024000 2
19307 19309 19311 19312 1 180.0000771 15.1670000 2
19307 19309 19311 19313 1 180.0000771 15.1670000 2
19310 19309 19311 19312 1 180.0000771 15.1670000 2
19310 19309 19311 19313 1 180.0000771 15.1670000 2
19307 19311 19309 19310 4 180.0000771 4.6024000 2
19304 19311 19313 19314 4 180.0000771 4.6024000 2
19309 19311 19313 19314 1 180.0000771 15.1670000 2
19312 19311 19313 19314 1 180.0000771 15.1670000 2
19304 19313 19311 19309 1 180.0000771 15.1670000 2
19304 19313 19311 19312 1 180.0000771 15.1670000 2
19309 19313 19311 19312 4 180.0000771 4.6024000 2
19315 19316 19317 19318 1 180.0000771 15.1670000 2
19315 19316 19317 19319 1 180.0000771 15.1670000 2
19318 19316 19317 19319 4 180.0000771 4.6024000 2
19315 19316 19325 19317 4 180.0000771 4.6024000 2
19315 19316 19325 19323 1 180.0000771 15.1670000 2
19315 19316 19325 19326 1 180.0000771 15.1670000 2
19317 19316 19325 19323 1 180.0000771 15.1670000 2
19317 19316 19325 19326 1 180.0000771 15.1670000 2
19318 19317 19316 19325 1 180.0000771 15.1670000 2
19319 19317 19316 19325 1 180.0000771 15.1670000 2
19316 19317 19319 19320 1 180.0000771 15.1670000 2
19316 19317 19319 19321 1 180.0000771 15.1670000 2
19318 19317 19319 19320 1 180.0000771 15.1670000 2
19318 19317 19319 19321 1 180.0000771 15.1670000 2
19317 19319 19321 19322 1 180.0000771 15.1670000 2
19317 19319 19321 19323 1 180.0000771 15.1670000 2
19320 19319 19321 19322 1 180.0000771 15.1670000 2
19320 19319 19321 19323 1 180.0000771 15.1670000 2
19317 19321 19319 19320 4 180.0000771 4.6024000 2
19319 19321 19323 19324 1 180.0000771 15.1670000 2
19319 19321 19323 19325 1 180.0000771 15.1670000 2
19322 19321 19323 19324 1 180.0000771 15.1670000 2
19322 19321 19323 19325 1 180.0000771 15.1670000 2
19319 19323 19321 19322 4 180.0000771 4.6024000 2
19316 19323 19325 19326 4 180.0000771 4.6024000 2
19321 19323 19325 19326 1 180.0000771 15.1670000 2
19324 19323 19325 19326 1 180.0000771 15.1670000 2
19316 19325 19323 19321 1 180.0000771 15.1670000 2
19316 19325 19323 19324 1 180.0000771 15.1670000 2
19321 19325 19323 19324 4 180.0000771 4.6024000 2
19327 19328 19329 19330 1 180.0000771 15.1670000 2
19327 19328 19329 19331 1 180.0000771 15.1670000 2
19330 19328 19329 19331 4 180.0000771 4.6024000 2
19327 19328 19337 19329 4 180.0000771 4.6024000 2
19327 19328 19337 19335 1 180.0000771 15.1670000 2
19327 19328 19337 19338 1 180.0000771 15.1670000 2
19329 19328 19337 19335 1 180.0000771 15.1670000 2
19329 19328 19337 19338 1 180.0000771 15.1670000 2
19330 19329 19328 19337 1 180.0000771 15.1670000 2
19331 19329 19328 19337 1 180.0000771 15.1670000 2
19328 19329 19331 19332 1 180.0000771 15.1670000 2
19328 19329 19331 19333 1 180.0000771 15.1670000 2
19330 19329 19331 19332 1 180.0000771 15.1670000 2
19330 19329 19331 19333 1 180.0000771 15.1670000 2
19329 19331 19333 19334 1 180.0000771 15.1670000 2
19329 19331 19333 19335 1 180.0000771 15.1670000 2
19332 19331 19333 19334 1 180.0000771 15.1670000 2
19332 19331 19333 19335 1 180.0000771 15.1670000 2
19329 19333 19331 19332 4 180.0000771 4.6024000 2
19331 19333 19335 19336 1 180.0000771 15.1670000 2
19331 19333 19335 19337 1 180.0000771 15.1670000 2
19334 19333 19335 19336 1 180.0000771 15.1670000 2
19334 19333 19335 19337 1 180.0000771 15.1670000 2
19331 19335 19333 19334 4 180.0000771 4.6024000 2
19328 19335 19337 19338 4 180.0000771 4.6024000 2
19333 19335 19337 19338 1 180.0000771 15.1670000 2
19336 19335 19337 19338 1 180.0000771 15.1670000 2
19328 19337 19335 19333 1 180.0000771 15.1670000 2
19328 19337 19335 19336 1 180.0000771 15.1670000 2
19333 19337 19335 19336 4 180.0000771 4.6024000 2
19339 19340 19341 19342 1 180.0000771 15.1670000 2
19339 19340 19341 19343 1 180.0000771 15.1670000 2
19342 19340 19341 19343 4 180.0000771 4.6024000 2
19339 19340 19349 19341 4 180.0000771 4.6024000 2
19339 19340 19349 19347 1 180.0000771 15.1670000 2
19339 19340 19349 19350 1 180.0000771 15.1670000 2
19341 19340 19349 19347 1 180.0000771 15.1670000 2
19341 19340 19349 19350 1 180.0000771 15.1670000 2
19342 19341 19340 19349 1 180.0000771 15.1670000 2
19343 19341 19340 19349 1 180.0000771 15.1670000 2
19340 19341 19343 19344 1 180.0000771 15.1670000 2
19340 19341 19343 19345 1 180.0000771 15.1670000 2
19342 19341 19343 19344 1 180.0000771 15.1670000 2
19342 19341 19343 19345 1 180.0000771 15.1670000 2
19341 19343 19345 19346 1 180.0000771 15.1670000 2
19341 19343 19345 19347 1 180.0000771 15.1670000 2
19344 19343 19345 19346 1 180.0000771 15.1670000 2
19344 19343 19345 19347 1 180.0000771 15.1670000 2
19341 19345 19343 19344 4 180.0000771 4.6024000 2
19343 19345 19347 19348 1 180.0000771 15.1670000 2
19343 19345 19347 19349 1 180.0000771 15.1670000 2
19346 19345 19347 19348 1 180.0000771 15.1670000 2
19346 19345 19347 19349 1 180.0000771 15.1670000 2
19343 19347 19345 19346 4 180.0000771 4.6024000 2
19340 19347 19349 19350 4 180.0000771 4.6024000 2
19345 19347 19349 19350 1 180.0000771 15.1670000 2
19348 19347 19349 19350 1 180.0000771 15.1670000 2
19340 19349 19347 19345 1 180.0000771 15.1670000 2
19340 19349 19347 19348 1 180.0000771 15.1670000 2
19345 19349 19347 19348 4 180.0000771 4.6024000 2
19351 19352 19353 19354 1 180.0000771 15.1670000 2
19351 19352 19353 19355 1 180.0000771 15.1670000 2
19354 19352 19353 19355 4 180.0000771 4.6024000 2
19351 19352 19361 19353 4 180.0000771 4.6024000 2
19351 19352 19361 19359 1 180.0000771 15.1670000 2
19351 19352 19361 19362 1 180.0000771 15.1670000 2
19353 19352 19361 19359 1 180.0000771 15.1670000 2
19353 19352 19361 19362 1 180.0000771 15.1670000 2
19354 19353 19352 19361 1 180.0000771 15.1670000 2
19355 19353 19352 19361 1 180.0000771 15.1670000 2
19352 19353 19355 19356 1 180.0000771 15.1670000 2
19352 19353 19355 19357 1 180.0000771 15.1670000 2
19354 19353 19355 19356 1 180.0000771 15.1670000 2
19354 19353 19355 19357 1 180.0000771 15.1670000 2
19353 19355 19357 19358 1 180.0000771 15.1670000 2
19353 19355 19357 19359 1 180.0000771 15.1670000 2
19356 19355 19357 19358 1 180.0000771 15.1670000 2
19356 19355 19357 19359 1 180.0000771 15.1670000 2
19353 19357 19355 19356 4 180.0000771 4.6024000 2
19355 19357 19359 19360 1 180.0000771 15.1670000 2
19355 19357 19359 19361 1 180.0000771 15.1670000 2
19358 19357 19359 19360 1 180.0000771 15.1670000 2
19358 19357 19359 19361 1 180.0000771 15.1670000 2
19355 19359 19357 19358 4 180.0000771 4.6024000 2
19352 19359 19361 19362 4 180.0000771 4.6024000 2
19357 19359 19361 19362 1 180.0000771 15.1670000 2
19360 19359 19361 19362 1 180.0000771 15.1670000 2
19352 19361 19359 19357 1 180.0000771 15.1670000 2
19352 19361 19359 19360 1 180.0000771 15.1670000 2
19357 19361 19359 19360 4 180.0000771 4.6024000 2
19363 19364 19365 19366 1 180.0000771 15.1670000 2
19363 19364 19365 19367 1 180.0000771 15.1670000 2
19366 19364 19365 19367 4 180.0000771 4.6024000 2
19363 19364 19373 19365 4 180.0000771 4.6024000 2
19363 19364 19373 19371 1 180.0000771 15.1670000 2
19363 19364 19373 19374 1 180.0000771 15.1670000 2
19365 19364 19373 19371 1 180.0000771 15.1670000 2
19365 19364 19373 19374 1 180.0000771 15.1670000 2
19366 19365 19364 19373 1 180.0000771 15.1670000 2
19367 19365 19364 19373 1 180.0000771 15.1670000 2
19364 19365 19367 19368 1 180.0000771 15.1670000 2
19364 19365 19367 19369 1 180.0000771 15.1670000 2
19366 19365 19367 19368 1 180.0000771 15.1670000 2
19366 19365 19367 19369 1 180.0000771 15.1670000 2
19365 19367 19369 19370 1 180.0000771 15.1670000 2
19365 19367 19369 19371 1 180.0000771 15.1670000 2
19368 19367 19369 19370 1 180.0000771 15.1670000 2
19368 19367 19369 19371 1 180.0000771 15.1670000 2
19365 19369 19367 19368 4 180.0000771 4.6024000 2
19367 19369 19371 19372 1 180.0000771 15.1670000 2
19367 19369 19371 19373 1 180.0000771 15.1670000 2
19370 19369 19371 19372 1 180.0000771 15.1670000 2
19370 19369 19371 19373 1 180.0000771 15.1670000 2
19367 19371 19369 19370 4 180.0000771 4.6024000 2
19364 19371 19373 19374 4 180.0000771 4.6024000 2
19369 19371 19373 19374 1 180.0000771 15.1670000 2
19372 19371 19373 19374 1 180.0000771 15.1670000 2
19364 19373 19371 19369 1 180.0000771 15.1670000 2
19364 19373 19371 19372 1 180.0000771 15.1670000 2
19369 19373 19371 19372 4 180.0000771 4.6024000 2
19375 19376 19377 19378 1 180.0000771 15.1670000 2
19375 19376 19377 19379 1 180.0000771 15.1670000 2
19378 19376 19377 19379 4 180.0000771 4.6024000 2
19375 19376 19385 19377 4 180.0000771 4.6024000 2
19375 19376 19385 19383 1 180.0000771 15.1670000 2
19375 19376 19385 19386 1 180.0000771 15.1670000 2
19377 19376 19385 19383 1 180.0000771 15.1670000 2
19377 19376 19385 19386 1 180.0000771 15.1670000 2
19378 19377 19376 19385 1 180.0000771 15.1670000 2
19379 19377 19376 19385 1 180.0000771 15.1670000 2
19376 19377 19379 19380 1 180.0000771 15.1670000 2
19376 19377 19379 19381 1 180.0000771 15.1670000 2
19378 19377 19379 19380 1 180.0000771 15.1670000 2
19378 19377 19379 19381 1 180.0000771 15.1670000 2
19377 19379 19381 19382 1 180.0000771 15.1670000 2
19377 19379 19381 19383 1 180.0000771 15.1670000 2
19380 19379 19381 19382 1 180.0000771 15.1670000 2
19380 19379 19381 19383 1 180.0000771 15.1670000 2
19377 19381 19379 19380 4 180.0000771 4.6024000 2
19379 19381 19383 19384 1 180.0000771 15.1670000 2
19379 19381 19383 19385 1 180.0000771 15.1670000 2
19382 19381 19383 19384 1 180.0000771 15.1670000 2
19382 19381 19383 19385 1 180.0000771 15.1670000 2
19379 19383 19381 19382 4 180.0000771 4.6024000 2
19376 19383 19385 19386 4 180.0000771 4.6024000 2
19381 19383 19385 19386 1 180.0000771 15.1670000 2
19384 19383 19385 19386 1 180.0000771 15.1670000 2
19376 19385 19383 19381 1 180.0000771 15.1670000 2
19376 19385 19383 19384 1 180.0000771 15.1670000 2
19381 19385 19383 19384 4 180.0000771 4.6024000 2
19387 19388 19389 19390 1 180.0000771 15.1670000 2
19387 19388 19389 19391 1 180.0000771 15.1670000 2
19390 19388 19389 19391 4 180.0000771 4.6024000 2
19387 19388 19397 19389 4 180.0000771 4.6024000 2
19387 19388 19397 19395 1 180.0000771 15.1670000 2
19387 19388 19397 19398 1 180.0000771 15.1670000 2
19389 19388 19397 19395 1 180.0000771 15.1670000 2
19389 19388 19397 19398 1 180.0000771 15.1670000 2
19390 19389 19388 19397 1 180.0000771 15.1670000 2
19391 19389 19388 19397 1 180.0000771 15.1670000 2
19388 19389 19391 19392 1 180.0000771 15.1670000 2
19388 19389 19391 19393 1 180.0000771 15.1670000 2
19390 19389 19391 19392 1 180.0000771 15.1670000 2
19390 19389 19391 19393 1 180.0000771 15.1670000 2
19389 19391 19393 19394 1 180.0000771 15.1670000 2
19389 19391 19393 19395 1 180.0000771 15.1670000 2
19392 19391 19393 19394 1 180.0000771 15.1670000 2
19392 19391 19393 19395 1 180.0000771 15.1670000 2
19389 19393 19391 19392 4 180.0000771 4.6024000 2
19391 19393 19395 19396 1 180.0000771 15.1670000 2
19391 19393 19395 19397 1 180.0000771 15.1670000 2
19394 19393 19395 19396 1 180.0000771 15.1670000 2
19394 19393 19395 19397 1 180.0000771 15.1670000 2
19391 19395 19393 19394 4 180.0000771 4.6024000 2
19388 19395 19397 19398 4 180.0000771 4.6024000 2
19393 19395 19397 19398 1 180.0000771 15.1670000 2
19396 19395 19397 19398 1 180.0000771 15.1670000 2
19388 19397 19395 19393 1 180.0000771 15.1670000 2
19388 19397 19395 19396 1 180.0000771 15.1670000 2
19393 19397 19395 19396 4 180.0000771 4.6024000 2
19399 19400 19401 19402 1 180.0000771 15.1670000 2
19399 19400 19401 19403 1 180.0000771 15.1670000 2
19402 19400 19401 19403 4 180.0000771 4.6024000 2
19399 19400 19409 19401 4 180.0000771 4.6024000 2
19399 19400 19409 19407 1 180.0000771 15.1670000 2
19399 19400 19409 19410 1 180.0000771 15.1670000 2
19401 19400 19409 19407 1 180.0000771 15.1670000 2
19401 19400 19409 19410 1 180.0000771 15.1670000 2
19402 19401 19400 19409 1 180.0000771 15.1670000 2
19403 19401 19400 19409 1 180.0000771 15.1670000 2
19400 19401 19403 19404 1 180.0000771 15.1670000 2
19400 19401 19403 19405 1 180.0000771 15.1670000 2
19402 19401 19403 19404 1 180.0000771 15.1670000 2
19402 19401 19403 19405 1 180.0000771 15.1670000 2
19401 19403 19405 19406 1 180.0000771 15.1670000 2
19401 19403 19405 19407 1 180.0000771 15.1670000 2
19404 19403 19405 19406 1 180.0000771 15.1670000 2
19404 19403 19405 19407 1 180.0000771 15.1670000 2
19401 19405 19403 19404 4 180.0000771 4.6024000 2
19403 19405 19407 19408 1 180.0000771 15.1670000 2
19403 19405 19407 19409 1 180.0000771 15.1670000 2
19406 19405 19407 19408 1 180.0000771 15.1670000 2
19406 19405 19407 19409 1 180.0000771 15.1670000 2
19403 19407 19405 19406 4 180.0000771 4.6024000 2
19400 19407 19409 19410 4 180.0000771 4.6024000 2
19405 19407 19409 19410 1 180.0000771 15.1670000 2
19408 19407 19409 19410 1 180.0000771 15.1670000 2
19400 19409 19407 19405 1 180.0000771 15.1670000 2
19400 19409 19407 19408 1 180.0000771 15.1670000 2
19405 19409 19407 19408 4 180.0000771 4.6024000 2
19411 19412 19413 19414 1 180.0000771 15.1670000 2
19411 19412 19413 19415 1 180.0000771 15.1670000 2
19414 19412 19413 19415 4 180.0000771 4.6024000 2
19411 19412 19421 19413 4 180.0000771 4.6024000 2
19411 19412 19421 19419 1 180.0000771 15.1670000 2
19411 19412 19421 19422 1 180.0000771 15.1670000 2
19413 19412 19421 19419 1 180.0000771 15.1670000 2
19413 19412 19421 19422 1 180.0000771 15.1670000 2
19414 19413 19412 19421 1 180.0000771 15.1670000 2
19415 19413 19412 19421 1 180.0000771 15.1670000 2
19412 19413 19415 19416 1 180.0000771 15.1670000 2
19412 19413 19415 19417 1 180.0000771 15.1670000 2
19414 19413 19415 19416 1 180.0000771 15.1670000 2
19414 19413 19415 19417 1 180.0000771 15.1670000 2
19413 19415 19417 19418 1 180.0000771 15.1670000 2
19413 19415 19417 19419 1 180.0000771 15.1670000 2
19416 19415 19417 19418 1 180.0000771 15.1670000 2
19416 19415 19417 19419 1 180.0000771 15.1670000 2
19413 19417 19415 19416 4 180.0000771 4.6024000 2
19415 19417 19419 19420 1 180.0000771 15.1670000 2
19415 19417 19419 19421 1 180.0000771 15.1670000 2
19418 19417 19419 19420 1 180.0000771 15.1670000 2
19418 19417 19419 19421 1 180.0000771 15.1670000 2
19415 19419 19417 19418 4 180.0000771 4.6024000 2
19412 19419 19421 19422 4 180.0000771 4.6024000 2
19417 19419 19421 19422 1 180.0000771 15.1670000 2
19420 19419 19421 19422 1 180.0000771 15.1670000 2
19412 19421 19419 19417 1 180.0000771 15.1670000 2
19412 19421 19419 19420 1 180.0000771 15.1670000 2
19417 19421 19419 19420 4 180.0000771 4.6024000 2
19423 19424 19425 19426 1 180.0000771 15.1670000 2
19423 19424 19425 19427 1 180.0000771 15.1670000 2
19426 19424 19425 19427 4 180.0000771 4.6024000 2
19423 19424 19433 19425 4 180.0000771 4.6024000 2
19423 19424 19433 19431 1 180.0000771 15.1670000 2
19423 19424 19433 19434 1 180.0000771 15.1670000 2
19425 19424 19433 19431 1 180.0000771 15.1670000 2
19425 19424 19433 19434 1 180.0000771 15.1670000 2
19426 19425 19424 19433 1 180.0000771 15.1670000 2
19427 19425 19424 19433 1 180.0000771 15.1670000 2
19424 19425 19427 19428 1 180.0000771 15.1670000 2
19424 19425 19427 19429 1 180.0000771 15.1670000 2
19426 19425 19427 19428 1 180.0000771 15.1670000 2
19426 19425 19427 19429 1 180.0000771 15.1670000 2
19425 19427 19429 19430 1 180.0000771 15.1670000 2
19425 19427 19429 19431 1 180.0000771 15.1670000 2
19428 19427 19429 19430 1 180.0000771 15.1670000 2
19428 19427 19429 19431 1 180.0000771 15.1670000 2
19425 19429 19427 19428 4 180.0000771 4.6024000 2
19427 19429 19431 19432 1 180.0000771 15.1670000 2
19427 19429 19431 19433 1 180.0000771 15.1670000 2
19430 19429 19431 19432 1 180.0000771 15.1670000 2
19430 19429 19431 19433 1 180.0000771 15.1670000 2
19427 19431 19429 19430 4 180.0000771 4.6024000 2
19424 19431 19433 19434 4 180.0000771 4.6024000 2
19429 19431 19433 19434 1 180.0000771 15.1670000 2
19432 19431 19433 19434 1 180.0000771 15.1670000 2
19424 19433 19431 19429 1 180.0000771 15.1670000 2
19424 19433 19431 19432 1 180.0000771 15.1670000 2
19429 19433 19431 19432 4 180.0000771 4.6024000 2
19435 19436 19437 19438 1 180.0000771 15.1670000 2
19435 19436 19437 19439 1 180.0000771 15.1670000 2
19438 19436 19437 19439 4 180.0000771 4.6024000 2
19435 19436 19445 19437 4 180.0000771 4.6024000 2
19435 19436 19445 19443 1 180.0000771 15.1670000 2
19435 19436 19445 19446 1 180.0000771 15.1670000 2
19437 19436 19445 19443 1 180.0000771 15.1670000 2
19437 19436 19445 19446 1 180.0000771 15.1670000 2
19438 19437 19436 19445 1 180.0000771 15.1670000 2
19439 19437 19436 19445 1 180.0000771 15.1670000 2
19436 19437 19439 19440 1 180.0000771 15.1670000 2
19436 19437 19439 19441 1 180.0000771 15.1670000 2
19438 19437 19439 19440 1 180.0000771 15.1670000 2
19438 19437 19439 19441 1 180.0000771 15.1670000 2
19437 19439 19441 19442 1 180.0000771 15.1670000 2
19437 19439 19441 19443 1 180.0000771 15.1670000 2
19440 19439 19441 19442 1 180.0000771 15.1670000 2
19440 19439 19441 19443 1 180.0000771 15.1670000 2
19437 19441 19439 19440 4 180.0000771 4.6024000 2
19439 19441 19443 19444 1 180.0000771 15.1670000 2
19439 19441 19443 19445 1 180.0000771 15.1670000 2
19442 19441 19443 19444 1 180.0000771 15.1670000 2
19442 19441 19443 19445 1 180.0000771 15.1670000 2
19439 19443 19441 19442 4 180.0000771 4.6024000 2
19436 19443 19445 19446 4 180.0000771 4.6024000 2
19441 19443 19445 19446 1 180.0000771 15.1670000 2
19444 19443 19445 19446 1 180.0000771 15.1670000 2
19436 19445 19443 19441 1 180.0000771 15.1670000 2
19436 19445 19443 19444 1 180.0000771 15.1670000 2
19441 19445 19443 19444 4 180.0000771 4.6024000 2
19447 19448 19449 19450 1 180.0000771 15.1670000 2
19447 19448 19449 19451 1 180.0000771 15.1670000 2
19450 19448 19449 19451 4 180.0000771 4.6024000 2
19447 19448 19457 19449 4 180.0000771 4.6024000 2
19447 19448 19457 19455 1 180.0000771 15.1670000 2
19447 19448 19457 19458 1 180.0000771 15.1670000 2
19449 19448 19457 19455 1 180.0000771 15.1670000 2
19449 19448 19457 19458 1 180.0000771 15.1670000 2
19450 19449 19448 19457 1 180.0000771 15.1670000 2
19451 19449 19448 19457 1 180.0000771 15.1670000 2
19448 19449 19451 19452 1 180.0000771 15.1670000 2
19448 19449 19451 19453 1 180.0000771 15.1670000 2
19450 19449 19451 19452 1 180.0000771 15.1670000 2
19450 19449 19451 19453 1 180.0000771 15.1670000 2
19449 19451 19453 19454 1 180.0000771 15.1670000 2
19449 19451 19453 19455 1 180.0000771 15.1670000 2
19452 19451 19453 19454 1 180.0000771 15.1670000 2
19452 19451 19453 19455 1 180.0000771 15.1670000 2
19449 19453 19451 19452 4 180.0000771 4.6024000 2
19451 19453 19455 19456 1 180.0000771 15.1670000 2
19451 19453 19455 19457 1 180.0000771 15.1670000 2
19454 19453 19455 19456 1 180.0000771 15.1670000 2
19454 19453 19455 19457 1 180.0000771 15.1670000 2
19451 19455 19453 19454 4 180.0000771 4.6024000 2
19448 19455 19457 19458 4 180.0000771 4.6024000 2
19453 19455 19457 19458 1 180.0000771 15.1670000 2
19456 19455 19457 19458 1 180.0000771 15.1670000 2
19448 19457 19455 19453 1 180.0000771 15.1670000 2
19448 19457 19455 19456 1 180.0000771 15.1670000 2
19453 19457 19455 19456 4 180.0000771 4.6024000 2
19459 19460 19461 19462 1 180.0000771 15.1670000 2
19459 19460 19461 19463 1 180.0000771 15.1670000 2
19462 19460 19461 19463 4 180.0000771 4.6024000 2
19459 19460 19469 19461 4 180.0000771 4.6024000 2
19459 19460 19469 19467 1 180.0000771 15.1670000 2
19459 19460 19469 19470 1 180.0000771 15.1670000 2
19461 19460 19469 19467 1 180.0000771 15.1670000 2
19461 19460 19469 19470 1 180.0000771 15.1670000 2
19462 19461 19460 19469 1 180.0000771 15.1670000 2
19463 19461 19460 19469 1 180.0000771 15.1670000 2
19460 19461 19463 19464 1 180.0000771 15.1670000 2
19460 19461 19463 19465 1 180.0000771 15.1670000 2
19462 19461 19463 19464 1 180.0000771 15.1670000 2
19462 19461 19463 19465 1 180.0000771 15.1670000 2
19461 19463 19465 19466 1 180.0000771 15.1670000 2
19461 19463 19465 19467 1 180.0000771 15.1670000 2
19464 19463 19465 19466 1 180.0000771 15.1670000 2
19464 19463 19465 19467 1 180.0000771 15.1670000 2
19461 19465 19463 19464 4 180.0000771 4.6024000 2
19463 19465 19467 19468 1 180.0000771 15.1670000 2
19463 19465 19467 19469 1 180.0000771 15.1670000 2
19466 19465 19467 19468 1 180.0000771 15.1670000 2
19466 19465 19467 19469 1 180.0000771 15.1670000 2
19463 19467 19465 19466 4 180.0000771 4.6024000 2
19460 19467 19469 19470 4 180.0000771 4.6024000 2
19465 19467 19469 19470 1 180.0000771 15.1670000 2
19468 19467 19469 19470 1 180.0000771 15.1670000 2
19460 19469 19467 19465 1 180.0000771 15.1670000 2
19460 19469 19467 19468 1 180.0000771 15.1670000 2
19465 19469 19467 19468 4 180.0000771 4.6024000 2
19471 19472 19473 19474 1 180.0000771 15.1670000 2
19471 19472 19473 19475 1 180.0000771 15.1670000 2
19474 19472 19473 19475 4 180.0000771 4.6024000 2
19471 19472 19481 19473 4 180.0000771 4.6024000 2
19471 19472 19481 19479 1 180.0000771 15.1670000 2
19471 19472 19481 19482 1 180.0000771 15.1670000 2
19473 19472 19481 19479 1 180.0000771 15.1670000 2
19473 19472 19481 19482 1 180.0000771 15.1670000 2
19474 19473 19472 19481 1 180.0000771 15.1670000 2
19475 19473 19472 19481 1 180.0000771 15.1670000 2
19472 19473 19475 19476 1 180.0000771 15.1670000 2
19472 19473 19475 19477 1 180.0000771 15.1670000 2
19474 19473 19475 19476 1 180.0000771 15.1670000 2
19474 19473 19475 19477 1 180.0000771 15.1670000 2
19473 19475 19477 19478 1 180.0000771 15.1670000 2
19473 19475 19477 19479 1 180.0000771 15.1670000 2
19476 19475 19477 19478 1 180.0000771 15.1670000 2
19476 19475 19477 19479 1 180.0000771 15.1670000 2
19473 19477 19475 19476 4 180.0000771 4.6024000 2
19475 19477 19479 19480 1 180.0000771 15.1670000 2
19475 19477 19479 19481 1 180.0000771 15.1670000 2
19478 19477 19479 19480 1 180.0000771 15.1670000 2
19478 19477 19479 19481 1 180.0000771 15.1670000 2
19475 19479 19477 19478 4 180.0000771 4.6024000 2
19472 19479 19481 19482 4 180.0000771 4.6024000 2
19477 19479 19481 19482 1 180.0000771 15.1670000 2
19480 19479 19481 19482 1 180.0000771 15.1670000 2
19472 19481 19479 19477 1 180.0000771 15.1670000 2
19472 19481 19479 19480 1 180.0000771 15.1670000 2
19477 19481 19479 19480 4 180.0000771 4.6024000 2
19483 19484 19485 19486 1 180.0000771 15.1670000 2
19483 19484 19485 19487 1 180.0000771 15.1670000 2
19486 19484 19485 19487 4 180.0000771 4.6024000 2
19483 19484 19493 19485 4 180.0000771 4.6024000 2
19483 19484 19493 19491 1 180.0000771 15.1670000 2
19483 19484 19493 19494 1 180.0000771 15.1670000 2
19485 19484 19493 19491 1 180.0000771 15.1670000 2
19485 19484 19493 19494 1 180.0000771 15.1670000 2
19486 19485 19484 19493 1 180.0000771 15.1670000 2
19487 19485 19484 19493 1 180.0000771 15.1670000 2
19484 19485 19487 19488 1 180.0000771 15.1670000 2
19484 19485 19487 19489 1 180.0000771 15.1670000 2
19486 19485 19487 19488 1 180.0000771 15.1670000 2
19486 19485 19487 19489 1 180.0000771 15.1670000 2
19485 19487 19489 19490 1 180.0000771 15.1670000 2
19485 19487 19489 19491 1 180.0000771 15.1670000 2
19488 19487 19489 19490 1 180.0000771 15.1670000 2
19488 19487 19489 19491 1 180.0000771 15.1670000 2
19485 19489 19487 19488 4 180.0000771 4.6024000 2
19487 19489 19491 19492 1 180.0000771 15.1670000 2
19487 19489 19491 19493 1 180.0000771 15.1670000 2
19490 19489 19491 19492 1 180.0000771 15.1670000 2
19490 19489 19491 19493 1 180.0000771 15.1670000 2
19487 19491 19489 19490 4 180.0000771 4.6024000 2
19484 19491 19493 19494 4 180.0000771 4.6024000 2
19489 19491 19493 19494 1 180.0000771 15.1670000 2
19492 19491 19493 19494 1 180.0000771 15.1670000 2
19484 19493 19491 19489 1 180.0000771 15.1670000 2
19484 19493 19491 19492 1 180.0000771 15.1670000 2
19489 19493 19491 19492 4 180.0000771 4.6024000 2
19495 19496 19497 19498 1 180.0000771 15.1670000 2
19495 19496 19497 19499 1 180.0000771 15.1670000 2
19498 19496 19497 19499 4 180.0000771 4.6024000 2
19495 19496 19505 19497 4 180.0000771 4.6024000 2
19495 19496 19505 19503 1 180.0000771 15.1670000 2
19495 19496 19505 19506 1 180.0000771 15.1670000 2
19497 19496 19505 19503 1 180.0000771 15.1670000 2
19497 19496 19505 19506 1 180.0000771 15.1670000 2
19498 19497 19496 19505 1 180.0000771 15.1670000 2
19499 19497 19496 19505 1 180.0000771 15.1670000 2
19496 19497 19499 19500 1 180.0000771 15.1670000 2
19496 19497 19499 19501 1 180.0000771 15.1670000 2
19498 19497 19499 19500 1 180.0000771 15.1670000 2
19498 19497 19499 19501 1 180.0000771 15.1670000 2
19497 19499 19501 19502 1 180.0000771 15.1670000 2
19497 19499 19501 19503 1 180.0000771 15.1670000 2
19500 19499 19501 19502 1 180.0000771 15.1670000 2
19500 19499 19501 19503 1 180.0000771 15.1670000 2
19497 19501 19499 19500 4 180.0000771 4.6024000 2
19499 19501 19503 19504 1 180.0000771 15.1670000 2
19499 19501 19503 19505 1 180.0000771 15.1670000 2
19502 19501 19503 19504 1 180.0000771 15.1670000 2
19502 19501 19503 19505 1 180.0000771 15.1670000 2
19499 19503 19501 19502 4 180.0000771 4.6024000 2
19496 19503 19505 19506 4 180.0000771 4.6024000 2
19501 19503 19505 19506 1 180.0000771 15.1670000 2
19504 19503 19505 19506 1 180.0000771 15.1670000 2
19496 19505 19503 19501 1 180.0000771 15.1670000 2
19496 19505 19503 19504 1 180.0000771 15.1670000 2
19501 19505 19503 19504 4 180.0000771 4.6024000 2
19507 19508 19509 19510 1 180.0000771 15.1670000 2
19507 19508 19509 19511 1 180.0000771 15.1670000 2
19510 19508 19509 19511 4 180.0000771 4.6024000 2
19507 19508 19517 19509 4 180.0000771 4.6024000 2
19507 19508 19517 19515 1 180.0000771 15.1670000 2
19507 19508 19517 19518 1 180.0000771 15.1670000 2
19509 19508 19517 19515 1 180.0000771 15.1670000 2
19509 19508 19517 19518 1 180.0000771 15.1670000 2
19510 19509 19508 19517 1 180.0000771 15.1670000 2
19511 19509 19508 19517 1 180.0000771 15.1670000 2
19508 19509 19511 19512 1 180.0000771 15.1670000 2
19508 19509 19511 19513 1 180.0000771 15.1670000 2
19510 19509 19511 19512 1 180.0000771 15.1670000 2
19510 19509 19511 19513 1 180.0000771 15.1670000 2
19509 19511 19513 19514 1 180.0000771 15.1670000 2
19509 19511 19513 19515 1 180.0000771 15.1670000 2
19512 19511 19513 19514 1 180.0000771 15.1670000 2
19512 19511 19513 19515 1 180.0000771 15.1670000 2
19509 19513 19511 19512 4 180.0000771 4.6024000 2
19511 19513 19515 19516 1 180.0000771 15.1670000 2
19511 19513 19515 19517 1 180.0000771 15.1670000 2
19514 19513 19515 19516 1 180.0000771 15.1670000 2
19514 19513 19515 19517 1 180.0000771 15.1670000 2
19511 19515 19513 19514 4 180.0000771 4.6024000 2
19508 19515 19517 19518 4 180.0000771 4.6024000 2
19513 19515 19517 19518 1 180.0000771 15.1670000 2
19516 19515 19517 19518 1 180.0000771 15.1670000 2
19508 19517 19515 19513 1 180.0000771 15.1670000 2
19508 19517 19515 19516 1 180.0000771 15.1670000 2
19513 19517 19515 19516 4 180.0000771 4.6024000 2
19519 19520 19521 19522 1 180.0000771 15.1670000 2
19519 19520 19521 19523 1 180.0000771 15.1670000 2
19522 19520 19521 19523 4 180.0000771 4.6024000 2
19519 19520 19529 19521 4 180.0000771 4.6024000 2
19519 19520 19529 19527 1 180.0000771 15.1670000 2
19519 19520 19529 19530 1 180.0000771 15.1670000 2
19521 19520 19529 19527 1 180.0000771 15.1670000 2
19521 19520 19529 19530 1 180.0000771 15.1670000 2
19522 19521 19520 19529 1 180.0000771 15.1670000 2
19523 19521 19520 19529 1 180.0000771 15.1670000 2
19520 19521 19523 19524 1 180.0000771 15.1670000 2
19520 19521 19523 19525 1 180.0000771 15.1670000 2
19522 19521 19523 19524 1 180.0000771 15.1670000 2
19522 19521 19523 19525 1 180.0000771 15.1670000 2
19521 19523 19525 19526 1 180.0000771 15.1670000 2
19521 19523 19525 19527 1 180.0000771 15.1670000 2
19524 19523 19525 19526 1 180.0000771 15.1670000 2
19524 19523 19525 19527 1 180.0000771 15.1670000 2
19521 19525 19523 19524 4 180.0000771 4.6024000 2
19523 19525 19527 19528 1 180.0000771 15.1670000 2
19523 19525 19527 19529 1 180.0000771 15.1670000 2
19526 19525 19527 19528 1 180.0000771 15.1670000 2
19526 19525 19527 19529 1 180.0000771 15.1670000 2
19523 19527 19525 19526 4 180.0000771 4.6024000 2
19520 19527 19529 19530 4 180.0000771 4.6024000 2
19525 19527 19529 19530 1 180.0000771 15.1670000 2
19528 19527 19529 19530 1 180.0000771 15.1670000 2
19520 19529 19527 19525 1 180.0000771 15.1670000 2
19520 19529 19527 19528 1 180.0000771 15.1670000 2
19525 19529 19527 19528 4 180.0000771 4.6024000 2
19531 19532 19533 19534 1 180.0000771 15.1670000 2
19531 19532 19533 19535 1 180.0000771 15.1670000 2
19534 19532 19533 19535 4 180.0000771 4.6024000 2
19531 19532 19541 19533 4 180.0000771 4.6024000 2
19531 19532 19541 19539 1 180.0000771 15.1670000 2
19531 19532 19541 19542 1 180.0000771 15.1670000 2
19533 19532 19541 19539 1 180.0000771 15.1670000 2
19533 19532 19541 19542 1 180.0000771 15.1670000 2
19534 19533 19532 19541 1 180.0000771 15.1670000 2
19535 19533 19532 19541 1 180.0000771 15.1670000 2
19532 19533 19535 19536 1 180.0000771 15.1670000 2
19532 19533 19535 19537 1 180.0000771 15.1670000 2
19534 19533 19535 19536 1 180.0000771 15.1670000 2
19534 19533 19535 19537 1 180.0000771 15.1670000 2
19533 19535 19537 19538 1 180.0000771 15.1670000 2
19533 19535 19537 19539 1 180.0000771 15.1670000 2
19536 19535 19537 19538 1 180.0000771 15.1670000 2
19536 19535 19537 19539 1 180.0000771 15.1670000 2
19533 19537 19535 19536 4 180.0000771 4.6024000 2
19535 19537 19539 19540 1 180.0000771 15.1670000 2
19535 19537 19539 19541 1 180.0000771 15.1670000 2
19538 19537 19539 19540 1 180.0000771 15.1670000 2
19538 19537 19539 19541 1 180.0000771 15.1670000 2
19535 19539 19537 19538 4 180.0000771 4.6024000 2
19532 19539 19541 19542 4 180.0000771 4.6024000 2
19537 19539 19541 19542 1 180.0000771 15.1670000 2
19540 19539 19541 19542 1 180.0000771 15.1670000 2
19532 19541 19539 19537 1 180.0000771 15.1670000 2
19532 19541 19539 19540 1 180.0000771 15.1670000 2
19537 19541 19539 19540 4 180.0000771 4.6024000 2
19543 19544 19545 19546 1 180.0000771 15.1670000 2
19543 19544 19545 19547 1 180.0000771 15.1670000 2
19546 19544 19545 19547 4 180.0000771 4.6024000 2
19543 19544 19553 19545 4 180.0000771 4.6024000 2
19543 19544 19553 19551 1 180.0000771 15.1670000 2
19543 19544 19553 19554 1 180.0000771 15.1670000 2
19545 19544 19553 19551 1 180.0000771 15.1670000 2
19545 19544 19553 19554 1 180.0000771 15.1670000 2
19546 19545 19544 19553 1 180.0000771 15.1670000 2
19547 19545 19544 19553 1 180.0000771 15.1670000 2
19544 19545 19547 19548 1 180.0000771 15.1670000 2
19544 19545 19547 19549 1 180.0000771 15.1670000 2
19546 19545 19547 19548 1 180.0000771 15.1670000 2
19546 19545 19547 19549 1 180.0000771 15.1670000 2
19545 19547 19549 19550 1 180.0000771 15.1670000 2
19545 19547 19549 19551 1 180.0000771 15.1670000 2
19548 19547 19549 19550 1 180.0000771 15.1670000 2
19548 19547 19549 19551 1 180.0000771 15.1670000 2
19545 19549 19547 19548 4 180.0000771 4.6024000 2
19547 19549 19551 19552 1 180.0000771 15.1670000 2
19547 19549 19551 19553 1 180.0000771 15.1670000 2
19550 19549 19551 19552 1 180.0000771 15.1670000 2
19550 19549 19551 19553 1 180.0000771 15.1670000 2
19547 19551 19549 19550 4 180.0000771 4.6024000 2
19544 19551 19553 19554 4 180.0000771 4.6024000 2
19549 19551 19553 19554 1 180.0000771 15.1670000 2
19552 19551 19553 19554 1 180.0000771 15.1670000 2
19544 19553 19551 19549 1 180.0000771 15.1670000 2
19544 19553 19551 19552 1 180.0000771 15.1670000 2
19549 19553 19551 19552 4 180.0000771 4.6024000 2
19555 19556 19557 19558 1 180.0000771 15.1670000 2
19555 19556 19557 19559 1 180.0000771 15.1670000 2
19558 19556 19557 19559 4 180.0000771 4.6024000 2
19555 19556 19565 19557 4 180.0000771 4.6024000 2
19555 19556 19565 19563 1 180.0000771 15.1670000 2
19555 19556 19565 19566 1 180.0000771 15.1670000 2
19557 19556 19565 19563 1 180.0000771 15.1670000 2
19557 19556 19565 19566 1 180.0000771 15.1670000 2
19558 19557 19556 19565 1 180.0000771 15.1670000 2
19559 19557 19556 19565 1 180.0000771 15.1670000 2
19556 19557 19559 19560 1 180.0000771 15.1670000 2
19556 19557 19559 19561 1 180.0000771 15.1670000 2
19558 19557 19559 19560 1 180.0000771 15.1670000 2
19558 19557 19559 19561 1 180.0000771 15.1670000 2
19557 19559 19561 19562 1 180.0000771 15.1670000 2
19557 19559 19561 19563 1 180.0000771 15.1670000 2
19560 19559 19561 19562 1 180.0000771 15.1670000 2
19560 19559 19561 19563 1 180.0000771 15.1670000 2
19557 19561 19559 19560 4 180.0000771 4.6024000 2
19559 19561 19563 19564 1 180.0000771 15.1670000 2
19559 19561 19563 19565 1 180.0000771 15.1670000 2
19562 19561 19563 19564 1 180.0000771 15.1670000 2
19562 19561 19563 19565 1 180.0000771 15.1670000 2
19559 19563 19561 19562 4 180.0000771 4.6024000 2
19556 19563 19565 19566 4 180.0000771 4.6024000 2
19561 19563 19565 19566 1 180.0000771 15.1670000 2
19564 19563 19565 19566 1 180.0000771 15.1670000 2
19556 19565 19563 19561 1 180.0000771 15.1670000 2
19556 19565 19563 19564 1 180.0000771 15.1670000 2
19561 19565 19563 19564 4 180.0000771 4.6024000 2
19567 19568 19569 19570 1 180.0000771 15.1670000 2
19567 19568 19569 19571 1 180.0000771 15.1670000 2
19570 19568 19569 19571 4 180.0000771 4.6024000 2
19567 19568 19577 19569 4 180.0000771 4.6024000 2
19567 19568 19577 19575 1 180.0000771 15.1670000 2
19567 19568 19577 19578 1 180.0000771 15.1670000 2
19569 19568 19577 19575 1 180.0000771 15.1670000 2
19569 19568 19577 19578 1 180.0000771 15.1670000 2
19570 19569 19568 19577 1 180.0000771 15.1670000 2
19571 19569 19568 19577 1 180.0000771 15.1670000 2
19568 19569 19571 19572 1 180.0000771 15.1670000 2
19568 19569 19571 19573 1 180.0000771 15.1670000 2
19570 19569 19571 19572 1 180.0000771 15.1670000 2
19570 19569 19571 19573 1 180.0000771 15.1670000 2
19569 19571 19573 19574 1 180.0000771 15.1670000 2
19569 19571 19573 19575 1 180.0000771 15.1670000 2
19572 19571 19573 19574 1 180.0000771 15.1670000 2
19572 19571 19573 19575 1 180.0000771 15.1670000 2
19569 19573 19571 19572 4 180.0000771 4.6024000 2
19571 19573 19575 19576 1 180.0000771 15.1670000 2
19571 19573 19575 19577 1 180.0000771 15.1670000 2
19574 19573 19575 19576 1 180.0000771 15.1670000 2
19574 19573 19575 19577 1 180.0000771 15.1670000 2
19571 19575 19573 19574 4 180.0000771 4.6024000 2
19568 19575 19577 19578 4 180.0000771 4.6024000 2
19573 19575 19577 19578 1 180.0000771 15.1670000 2
19576 19575 19577 19578 1 180.0000771 15.1670000 2
19568 19577 19575 19573 1 180.0000771 15.1670000 2
19568 19577 19575 19576 1 180.0000771 15.1670000 2
19573 19577 19575 19576 4 180.0000771 4.6024000 2
19579 19580 19581 19582 1 180.0000771 15.1670000 2
19579 19580 19581 19583 1 180.0000771 15.1670000 2
19582 19580 19581 19583 4 180.0000771 4.6024000 2
19579 19580 19589 19581 4 180.0000771 4.6024000 2
19579 19580 19589 19587 1 180.0000771 15.1670000 2
19579 19580 19589 19590 1 180.0000771 15.1670000 2
19581 19580 19589 19587 1 180.0000771 15.1670000 2
19581 19580 19589 19590 1 180.0000771 15.1670000 2
19582 19581 19580 19589 1 180.0000771 15.1670000 2
19583 19581 19580 19589 1 180.0000771 15.1670000 2
19580 19581 19583 19584 1 180.0000771 15.1670000 2
19580 19581 19583 19585 1 180.0000771 15.1670000 2
19582 19581 19583 19584 1 180.0000771 15.1670000 2
19582 19581 19583 19585 1 180.0000771 15.1670000 2
19581 19583 19585 19586 1 180.0000771 15.1670000 2
19581 19583 19585 19587 1 180.0000771 15.1670000 2
19584 19583 19585 19586 1 180.0000771 15.1670000 2
19584 19583 19585 19587 1 180.0000771 15.1670000 2
19581 19585 19583 19584 4 180.0000771 4.6024000 2
19583 19585 19587 19588 1 180.0000771 15.1670000 2
19583 19585 19587 19589 1 180.0000771 15.1670000 2
19586 19585 19587 19588 1 180.0000771 15.1670000 2
19586 19585 19587 19589 1 180.0000771 15.1670000 2
19583 19587 19585 19586 4 180.0000771 4.6024000 2
19580 19587 19589 19590 4 180.0000771 4.6024000 2
19585 19587 19589 19590 1 180.0000771 15.1670000 2
19588 19587 19589 19590 1 180.0000771 15.1670000 2
19580 19589 19587 19585 1 180.0000771 15.1670000 2
19580 19589 19587 19588 1 180.0000771 15.1670000 2
19585 19589 19587 19588 4 180.0000771 4.6024000 2
19591 19592 19593 19594 1 180.0000771 15.1670000 2
19591 19592 19593 19595 1 180.0000771 15.1670000 2
19594 19592 19593 19595 4 180.0000771 4.6024000 2
19591 19592 19601 19593 4 180.0000771 4.6024000 2
19591 19592 19601 19599 1 180.0000771 15.1670000 2
19591 19592 19601 19602 1 180.0000771 15.1670000 2
19593 19592 19601 19599 1 180.0000771 15.1670000 2
19593 19592 19601 19602 1 180.0000771 15.1670000 2
19594 19593 19592 19601 1 180.0000771 15.1670000 2
19595 19593 19592 19601 1 180.0000771 15.1670000 2
19592 19593 19595 19596 1 180.0000771 15.1670000 2
19592 19593 19595 19597 1 180.0000771 15.1670000 2
19594 19593 19595 19596 1 180.0000771 15.1670000 2
19594 19593 19595 19597 1 180.0000771 15.1670000 2
19593 19595 19597 19598 1 180.0000771 15.1670000 2
19593 19595 19597 19599 1 180.0000771 15.1670000 2
19596 19595 19597 19598 1 180.0000771 15.1670000 2
19596 19595 19597 19599 1 180.0000771 15.1670000 2
19593 19597 19595 19596 4 180.0000771 4.6024000 2
19595 19597 19599 19600 1 180.0000771 15.1670000 2
19595 19597 19599 19601 1 180.0000771 15.1670000 2
19598 19597 19599 19600 1 180.0000771 15.1670000 2
19598 19597 19599 19601 1 180.0000771 15.1670000 2
19595 19599 19597 19598 4 180.0000771 4.6024000 2
19592 19599 19601 19602 4 180.0000771 4.6024000 2
19597 19599 19601 19602 1 180.0000771 15.1670000 2
19600 19599 19601 19602 1 180.0000771 15.1670000 2
19592 19601 19599 19597 1 180.0000771 15.1670000 2
19592 19601 19599 19600 1 180.0000771 15.1670000 2
19597 19601 19599 19600 4 180.0000771 4.6024000 2
19603 19604 19605 19606 1 180.0000771 15.1670000 2
19603 19604 19605 19607 1 180.0000771 15.1670000 2
19606 19604 19605 19607 4 180.0000771 4.6024000 2
19603 19604 19613 19605 4 180.0000771 4.6024000 2
19603 19604 19613 19611 1 180.0000771 15.1670000 2
19603 19604 19613 19614 1 180.0000771 15.1670000 2
19605 19604 19613 19611 1 180.0000771 15.1670000 2
19605 19604 19613 19614 1 180.0000771 15.1670000 2
19606 19605 19604 19613 1 180.0000771 15.1670000 2
19607 19605 19604 19613 1 180.0000771 15.1670000 2
19604 19605 19607 19608 1 180.0000771 15.1670000 2
19604 19605 19607 19609 1 180.0000771 15.1670000 2
19606 19605 19607 19608 1 180.0000771 15.1670000 2
19606 19605 19607 19609 1 180.0000771 15.1670000 2
19605 19607 19609 19610 1 180.0000771 15.1670000 2
19605 19607 19609 19611 1 180.0000771 15.1670000 2
19608 19607 19609 19610 1 180.0000771 15.1670000 2
19608 19607 19609 19611 1 180.0000771 15.1670000 2
19605 19609 19607 19608 4 180.0000771 4.6024000 2
19607 19609 19611 19612 1 180.0000771 15.1670000 2
19607 19609 19611 19613 1 180.0000771 15.1670000 2
19610 19609 19611 19612 1 180.0000771 15.1670000 2
19610 19609 19611 19613 1 180.0000771 15.1670000 2
19607 19611 19609 19610 4 180.0000771 4.6024000 2
19604 19611 19613 19614 4 180.0000771 4.6024000 2
19609 19611 19613 19614 1 180.0000771 15.1670000 2
19612 19611 19613 19614 1 180.0000771 15.1670000 2
19604 19613 19611 19609 1 180.0000771 15.1670000 2
19604 19613 19611 19612 1 180.0000771 15.1670000 2
19609 19613 19611 19612 4 180.0000771 4.6024000 2
19615 19616 19617 19618 1 180.0000771 15.1670000 2
19615 19616 19617 19619 1 180.0000771 15.1670000 2
19618 19616 19617 19619 4 180.0000771 4.6024000 2
19615 19616 19625 19617 4 180.0000771 4.6024000 2
19615 19616 19625 19623 1 180.0000771 15.1670000 2
19615 19616 19625 19626 1 180.0000771 15.1670000 2
19617 19616 19625 19623 1 180.0000771 15.1670000 2
19617 19616 19625 19626 1 180.0000771 15.1670000 2
19618 19617 19616 19625 1 180.0000771 15.1670000 2
19619 19617 19616 19625 1 180.0000771 15.1670000 2
19616 19617 19619 19620 1 180.0000771 15.1670000 2
19616 19617 19619 19621 1 180.0000771 15.1670000 2
19618 19617 19619 19620 1 180.0000771 15.1670000 2
19618 19617 19619 19621 1 180.0000771 15.1670000 2
19617 19619 19621 19622 1 180.0000771 15.1670000 2
19617 19619 19621 19623 1 180.0000771 15.1670000 2
19620 19619 19621 19622 1 180.0000771 15.1670000 2
19620 19619 19621 19623 1 180.0000771 15.1670000 2
19617 19621 19619 19620 4 180.0000771 4.6024000 2
19619 19621 19623 19624 1 180.0000771 15.1670000 2
19619 19621 19623 19625 1 180.0000771 15.1670000 2
19622 19621 19623 19624 1 180.0000771 15.1670000 2
19622 19621 19623 19625 1 180.0000771 15.1670000 2
19619 19623 19621 19622 4 180.0000771 4.6024000 2
19616 19623 19625 19626 4 180.0000771 4.6024000 2
19621 19623 19625 19626 1 180.0000771 15.1670000 2
19624 19623 19625 19626 1 180.0000771 15.1670000 2
19616 19625 19623 19621 1 180.0000771 15.1670000 2
19616 19625 19623 19624 1 180.0000771 15.1670000 2
19621 19625 19623 19624 4 180.0000771 4.6024000 2
19627 19628 19629 19630 1 180.0000771 15.1670000 2
19627 19628 19629 19631 1 180.0000771 15.1670000 2
19630 19628 19629 19631 4 180.0000771 4.6024000 2
19627 19628 19637 19629 4 180.0000771 4.6024000 2
19627 19628 19637 19635 1 180.0000771 15.1670000 2
19627 19628 19637 19638 1 180.0000771 15.1670000 2
19629 19628 19637 19635 1 180.0000771 15.1670000 2
19629 19628 19637 19638 1 180.0000771 15.1670000 2
19630 19629 19628 19637 1 180.0000771 15.1670000 2
19631 19629 19628 19637 1 180.0000771 15.1670000 2
19628 19629 19631 19632 1 180.0000771 15.1670000 2
19628 19629 19631 19633 1 180.0000771 15.1670000 2
19630 19629 19631 19632 1 180.0000771 15.1670000 2
19630 19629 19631 19633 1 180.0000771 15.1670000 2
19629 19631 19633 19634 1 180.0000771 15.1670000 2
19629 19631 19633 19635 1 180.0000771 15.1670000 2
19632 19631 19633 19634 1 180.0000771 15.1670000 2
19632 19631 19633 19635 1 180.0000771 15.1670000 2
19629 19633 19631 19632 4 180.0000771 4.6024000 2
19631 19633 19635 19636 1 180.0000771 15.1670000 2
19631 19633 19635 19637 1 180.0000771 15.1670000 2
19634 19633 19635 19636 1 180.0000771 15.1670000 2
19634 19633 19635 19637 1 180.0000771 15.1670000 2
19631 19635 19633 19634 4 180.0000771 4.6024000 2
19628 19635 19637 19638 4 180.0000771 4.6024000 2
19633 19635 19637 19638 1 180.0000771 15.1670000 2
19636 19635 19637 19638 1 180.0000771 15.1670000 2
19628 19637 19635 19633 1 180.0000771 15.1670000 2
19628 19637 19635 19636 1 180.0000771 15.1670000 2
19633 19637 19635 19636 4 180.0000771 4.6024000 2
19639 19640 19641 19642 1 180.0000771 15.1670000 2
19639 19640 19641 19643 1 180.0000771 15.1670000 2
19642 19640 19641 19643 4 180.0000771 4.6024000 2
19639 19640 19649 19641 4 180.0000771 4.6024000 2
19639 19640 19649 19647 1 180.0000771 15.1670000 2
19639 19640 19649 19650 1 180.0000771 15.1670000 2
19641 19640 19649 19647 1 180.0000771 15.1670000 2
19641 19640 19649 19650 1 180.0000771 15.1670000 2
19642 19641 19640 19649 1 180.0000771 15.1670000 2
19643 19641 19640 19649 1 180.0000771 15.1670000 2
19640 19641 19643 19644 1 180.0000771 15.1670000 2
19640 19641 19643 19645 1 180.0000771 15.1670000 2
19642 19641 19643 19644 1 180.0000771 15.1670000 2
19642 19641 19643 19645 1 180.0000771 15.1670000 2
19641 19643 19645 19646 1 180.0000771 15.1670000 2
19641 19643 19645 19647 1 180.0000771 15.1670000 2
19644 19643 19645 19646 1 180.0000771 15.1670000 2
19644 19643 19645 19647 1 180.0000771 15.1670000 2
19641 19645 19643 19644 4 180.0000771 4.6024000 2
19643 19645 19647 19648 1 180.0000771 15.1670000 2
19643 19645 19647 19649 1 180.0000771 15.1670000 2
19646 19645 19647 19648 1 180.0000771 15.1670000 2
19646 19645 19647 19649 1 180.0000771 15.1670000 2
19643 19647 19645 19646 4 180.0000771 4.6024000 2
19640 19647 19649 19650 4 180.0000771 4.6024000 2
19645 19647 19649 19650 1 180.0000771 15.1670000 2
19648 19647 19649 19650 1 180.0000771 15.1670000 2
19640 19649 19647 19645 1 180.0000771 15.1670000 2
19640 19649 19647 19648 1 180.0000771 15.1670000 2
19645 19649 19647 19648 4 180.0000771 4.6024000 2
19651 19652 19653 19654 1 180.0000771 15.1670000 2
19651 19652 19653 19655 1 180.0000771 15.1670000 2
19654 19652 19653 19655 4 180.0000771 4.6024000 2
19651 19652 19661 19653 4 180.0000771 4.6024000 2
19651 19652 19661 19659 1 180.0000771 15.1670000 2
19651 19652 19661 19662 1 180.0000771 15.1670000 2
19653 19652 19661 19659 1 180.0000771 15.1670000 2
19653 19652 19661 19662 1 180.0000771 15.1670000 2
19654 19653 19652 19661 1 180.0000771 15.1670000 2
19655 19653 19652 19661 1 180.0000771 15.1670000 2
19652 19653 19655 19656 1 180.0000771 15.1670000 2
19652 19653 19655 19657 1 180.0000771 15.1670000 2
19654 19653 19655 19656 1 180.0000771 15.1670000 2
19654 19653 19655 19657 1 180.0000771 15.1670000 2
19653 19655 19657 19658 1 180.0000771 15.1670000 2
19653 19655 19657 19659 1 180.0000771 15.1670000 2
19656 19655 19657 19658 1 180.0000771 15.1670000 2
19656 19655 19657 19659 1 180.0000771 15.1670000 2
19653 19657 19655 19656 4 180.0000771 4.6024000 2
19655 19657 19659 19660 1 180.0000771 15.1670000 2
19655 19657 19659 19661 1 180.0000771 15.1670000 2
19658 19657 19659 19660 1 180.0000771 15.1670000 2
19658 19657 19659 19661 1 180.0000771 15.1670000 2
19655 19659 19657 19658 4 180.0000771 4.6024000 2
19652 19659 19661 19662 4 180.0000771 4.6024000 2
19657 19659 19661 19662 1 180.0000771 15.1670000 2
19660 19659 19661 19662 1 180.0000771 15.1670000 2
19652 19661 19659 19657 1 180.0000771 15.1670000 2
19652 19661 19659 19660 1 180.0000771 15.1670000 2
19657 19661 19659 19660 4 180.0000771 4.6024000 2
19663 19664 19665 19666 1 180.0000771 15.1670000 2
19663 19664 19665 19667 1 180.0000771 15.1670000 2
19666 19664 19665 19667 4 180.0000771 4.6024000 2
19663 19664 19673 19665 4 180.0000771 4.6024000 2
19663 19664 19673 19671 1 180.0000771 15.1670000 2
19663 19664 19673 19674 1 180.0000771 15.1670000 2
19665 19664 19673 19671 1 180.0000771 15.1670000 2
19665 19664 19673 19674 1 180.0000771 15.1670000 2
19666 19665 19664 19673 1 180.0000771 15.1670000 2
19667 19665 19664 19673 1 180.0000771 15.1670000 2
19664 19665 19667 19668 1 180.0000771 15.1670000 2
19664 19665 19667 19669 1 180.0000771 15.1670000 2
19666 19665 19667 19668 1 180.0000771 15.1670000 2
19666 19665 19667 19669 1 180.0000771 15.1670000 2
19665 19667 19669 19670 1 180.0000771 15.1670000 2
19665 19667 19669 19671 1 180.0000771 15.1670000 2
19668 19667 19669 19670 1 180.0000771 15.1670000 2
19668 19667 19669 19671 1 180.0000771 15.1670000 2
19665 19669 19667 19668 4 180.0000771 4.6024000 2
19667 19669 19671 19672 1 180.0000771 15.1670000 2
19667 19669 19671 19673 1 180.0000771 15.1670000 2
19670 19669 19671 19672 1 180.0000771 15.1670000 2
19670 19669 19671 19673 1 180.0000771 15.1670000 2
19667 19671 19669 19670 4 180.0000771 4.6024000 2
19664 19671 19673 19674 4 180.0000771 4.6024000 2
19669 19671 19673 19674 1 180.0000771 15.1670000 2
19672 19671 19673 19674 1 180.0000771 15.1670000 2
19664 19673 19671 19669 1 180.0000771 15.1670000 2
19664 19673 19671 19672 1 180.0000771 15.1670000 2
19669 19673 19671 19672 4 180.0000771 4.6024000 2
19675 19676 19677 19678 1 180.0000771 15.1670000 2
19675 19676 19677 19679 1 180.0000771 15.1670000 2
19678 19676 19677 19679 4 180.0000771 4.6024000 2
19675 19676 19685 19677 4 180.0000771 4.6024000 2
19675 19676 19685 19683 1 180.0000771 15.1670000 2
19675 19676 19685 19686 1 180.0000771 15.1670000 2
19677 19676 19685 19683 1 180.0000771 15.1670000 2
19677 19676 19685 19686 1 180.0000771 15.1670000 2
19678 19677 19676 19685 1 180.0000771 15.1670000 2
19679 19677 19676 19685 1 180.0000771 15.1670000 2
19676 19677 19679 19680 1 180.0000771 15.1670000 2
19676 19677 19679 19681 1 180.0000771 15.1670000 2
19678 19677 19679 19680 1 180.0000771 15.1670000 2
19678 19677 19679 19681 1 180.0000771 15.1670000 2
19677 19679 19681 19682 1 180.0000771 15.1670000 2
19677 19679 19681 19683 1 180.0000771 15.1670000 2
19680 19679 19681 19682 1 180.0000771 15.1670000 2
19680 19679 19681 19683 1 180.0000771 15.1670000 2
19677 19681 19679 19680 4 180.0000771 4.6024000 2
19679 19681 19683 19684 1 180.0000771 15.1670000 2
19679 19681 19683 19685 1 180.0000771 15.1670000 2
19682 19681 19683 19684 1 180.0000771 15.1670000 2
19682 19681 19683 19685 1 180.0000771 15.1670000 2
19679 19683 19681 19682 4 180.0000771 4.6024000 2
19676 19683 19685 19686 4 180.0000771 4.6024000 2
19681 19683 19685 19686 1 180.0000771 15.1670000 2
19684 19683 19685 19686 1 180.0000771 15.1670000 2
19676 19685 19683 19681 1 180.0000771 15.1670000 2
19676 19685 19683 19684 1 180.0000771 15.1670000 2
19681 19685 19683 19684 4 180.0000771 4.6024000 2
19687 19688 19689 19690 1 180.0000771 15.1670000 2
19687 19688 19689 19691 1 180.0000771 15.1670000 2
19690 19688 19689 19691 4 180.0000771 4.6024000 2
19687 19688 19697 19689 4 180.0000771 4.6024000 2
19687 19688 19697 19695 1 180.0000771 15.1670000 2
19687 19688 19697 19698 1 180.0000771 15.1670000 2
19689 19688 19697 19695 1 180.0000771 15.1670000 2
19689 19688 19697 19698 1 180.0000771 15.1670000 2
19690 19689 19688 19697 1 180.0000771 15.1670000 2
19691 19689 19688 19697 1 180.0000771 15.1670000 2
19688 19689 19691 19692 1 180.0000771 15.1670000 2
19688 19689 19691 19693 1 180.0000771 15.1670000 2
19690 19689 19691 19692 1 180.0000771 15.1670000 2
19690 19689 19691 19693 1 180.0000771 15.1670000 2
19689 19691 19693 19694 1 180.0000771 15.1670000 2
19689 19691 19693 19695 1 180.0000771 15.1670000 2
19692 19691 19693 19694 1 180.0000771 15.1670000 2
19692 19691 19693 19695 1 180.0000771 15.1670000 2
19689 19693 19691 19692 4 180.0000771 4.6024000 2
19691 19693 19695 19696 1 180.0000771 15.1670000 2
19691 19693 19695 19697 1 180.0000771 15.1670000 2
19694 19693 19695 19696 1 180.0000771 15.1670000 2
19694 19693 19695 19697 1 180.0000771 15.1670000 2
19691 19695 19693 19694 4 180.0000771 4.6024000 2
19688 19695 19697 19698 4 180.0000771 4.6024000 2
19693 19695 19697 19698 1 180.0000771 15.1670000 2
19696 19695 19697 19698 1 180.0000771 15.1670000 2
19688 19697 19695 19693 1 180.0000771 15.1670000 2
19688 19697 19695 19696 1 180.0000771 15.1670000 2
19693 19697 19695 19696 4 180.0000771 4.6024000 2
19699 19700 19701 19702 1 180.0000771 15.1670000 2
19699 19700 19701 19703 1 180.0000771 15.1670000 2
19702 19700 19701 19703 4 180.0000771 4.6024000 2
19699 19700 19709 19701 4 180.0000771 4.6024000 2
19699 19700 19709 19707 1 180.0000771 15.1670000 2
19699 19700 19709 19710 1 180.0000771 15.1670000 2
19701 19700 19709 19707 1 180.0000771 15.1670000 2
19701 19700 19709 19710 1 180.0000771 15.1670000 2
19702 19701 19700 19709 1 180.0000771 15.1670000 2
19703 19701 19700 19709 1 180.0000771 15.1670000 2
19700 19701 19703 19704 1 180.0000771 15.1670000 2
19700 19701 19703 19705 1 180.0000771 15.1670000 2
19702 19701 19703 19704 1 180.0000771 15.1670000 2
19702 19701 19703 19705 1 180.0000771 15.1670000 2
19701 19703 19705 19706 1 180.0000771 15.1670000 2
19701 19703 19705 19707 1 180.0000771 15.1670000 2
19704 19703 19705 19706 1 180.0000771 15.1670000 2
19704 19703 19705 19707 1 180.0000771 15.1670000 2
19701 19705 19703 19704 4 180.0000771 4.6024000 2
19703 19705 19707 19708 1 180.0000771 15.1670000 2
19703 19705 19707 19709 1 180.0000771 15.1670000 2
19706 19705 19707 19708 1 180.0000771 15.1670000 2
19706 19705 19707 19709 1 180.0000771 15.1670000 2
19703 19707 19705 19706 4 180.0000771 4.6024000 2
19700 19707 19709 19710 4 180.0000771 4.6024000 2
19705 19707 19709 19710 1 180.0000771 15.1670000 2
19708 19707 19709 19710 1 180.0000771 15.1670000 2
19700 19709 19707 19705 1 180.0000771 15.1670000 2
19700 19709 19707 19708 1 180.0000771 15.1670000 2
19705 19709 19707 19708 4 180.0000771 4.6024000 2
19711 19712 19713 19714 1 180.0000771 15.1670000 2
19711 19712 19713 19715 1 180.0000771 15.1670000 2
19714 19712 19713 19715 4 180.0000771 4.6024000 2
19711 19712 19721 19713 4 180.0000771 4.6024000 2
19711 19712 19721 19719 1 180.0000771 15.1670000 2
19711 19712 19721 19722 1 180.0000771 15.1670000 2
19713 19712 19721 19719 1 180.0000771 15.1670000 2
19713 19712 19721 19722 1 180.0000771 15.1670000 2
19714 19713 19712 19721 1 180.0000771 15.1670000 2
19715 19713 19712 19721 1 180.0000771 15.1670000 2
19712 19713 19715 19716 1 180.0000771 15.1670000 2
19712 19713 19715 19717 1 180.0000771 15.1670000 2
19714 19713 19715 19716 1 180.0000771 15.1670000 2
19714 19713 19715 19717 1 180.0000771 15.1670000 2
19713 19715 19717 19718 1 180.0000771 15.1670000 2
19713 19715 19717 19719 1 180.0000771 15.1670000 2
19716 19715 19717 19718 1 180.0000771 15.1670000 2
19716 19715 19717 19719 1 180.0000771 15.1670000 2
19713 19717 19715 19716 4 180.0000771 4.6024000 2
19715 19717 19719 19720 1 180.0000771 15.1670000 2
19715 19717 19719 19721 1 180.0000771 15.1670000 2
19718 19717 19719 19720 1 180.0000771 15.1670000 2
19718 19717 19719 19721 1 180.0000771 15.1670000 2
19715 19719 19717 19718 4 180.0000771 4.6024000 2
19712 19719 19721 19722 4 180.0000771 4.6024000 2
19717 19719 19721 19722 1 180.0000771 15.1670000 2
19720 19719 19721 19722 1 180.0000771 15.1670000 2
19712 19721 19719 19717 1 180.0000771 15.1670000 2
19712 19721 19719 19720 1 180.0000771 15.1670000 2
19717 19721 19719 19720 4 180.0000771 4.6024000 2
19723 19724 19725 19726 1 180.0000771 15.1670000 2
19723 19724 19725 19727 1 180.0000771 15.1670000 2
19726 19724 19725 19727 4 180.0000771 4.6024000 2
19723 19724 19733 19725 4 180.0000771 4.6024000 2
19723 19724 19733 19731 1 180.0000771 15.1670000 2
19723 19724 19733 19734 1 180.0000771 15.1670000 2
19725 19724 19733 19731 1 180.0000771 15.1670000 2
19725 19724 19733 19734 1 180.0000771 15.1670000 2
19726 19725 19724 19733 1 180.0000771 15.1670000 2
19727 19725 19724 19733 1 180.0000771 15.1670000 2
19724 19725 19727 19728 1 180.0000771 15.1670000 2
19724 19725 19727 19729 1 180.0000771 15.1670000 2
19726 19725 19727 19728 1 180.0000771 15.1670000 2
19726 19725 19727 19729 1 180.0000771 15.1670000 2
19725 19727 19729 19730 1 180.0000771 15.1670000 2
19725 19727 19729 19731 1 180.0000771 15.1670000 2
19728 19727 19729 19730 1 180.0000771 15.1670000 2
19728 19727 19729 19731 1 180.0000771 15.1670000 2
19725 19729 19727 19728 4 180.0000771 4.6024000 2
19727 19729 19731 19732 1 180.0000771 15.1670000 2
19727 19729 19731 19733 1 180.0000771 15.1670000 2
19730 19729 19731 19732 1 180.0000771 15.1670000 2
19730 19729 19731 19733 1 180.0000771 15.1670000 2
19727 19731 19729 19730 4 180.0000771 4.6024000 2
19724 19731 19733 19734 4 180.0000771 4.6024000 2
19729 19731 19733 19734 1 180.0000771 15.1670000 2
19732 19731 19733 19734 1 180.0000771 15.1670000 2
19724 19733 19731 19729 1 180.0000771 15.1670000 2
19724 19733 19731 19732 1 180.0000771 15.1670000 2
19729 19733 19731 19732 4 180.0000771 4.6024000 2
19735 19736 19737 19738 1 180.0000771 15.1670000 2
19735 19736 19737 19739 1 180.0000771 15.1670000 2
19738 19736 19737 19739 4 180.0000771 4.6024000 2
19735 19736 19745 19737 4 180.0000771 4.6024000 2
19735 19736 19745 19743 1 180.0000771 15.1670000 2
19735 19736 19745 19746 1 180.0000771 15.1670000 2
19737 19736 19745 19743 1 180.0000771 15.1670000 2
19737 19736 19745 19746 1 180.0000771 15.1670000 2
19738 19737 19736 19745 1 180.0000771 15.1670000 2
19739 19737 19736 19745 1 180.0000771 15.1670000 2
19736 19737 19739 19740 1 180.0000771 15.1670000 2
19736 19737 19739 19741 1 180.0000771 15.1670000 2
19738 19737 19739 19740 1 180.0000771 15.1670000 2
19738 19737 19739 19741 1 180.0000771 15.1670000 2
19737 19739 19741 19742 1 180.0000771 15.1670000 2
19737 19739 19741 19743 1 180.0000771 15.1670000 2
19740 19739 19741 19742 1 180.0000771 15.1670000 2
19740 19739 19741 19743 1 180.0000771 15.1670000 2
19737 19741 19739 19740 4 180.0000771 4.6024000 2
19739 19741 19743 19744 1 180.0000771 15.1670000 2
19739 19741 19743 19745 1 180.0000771 15.1670000 2
19742 19741 19743 19744 1 180.0000771 15.1670000 2
19742 19741 19743 19745 1 180.0000771 15.1670000 2
19739 19743 19741 19742 4 180.0000771 4.6024000 2
19736 19743 19745 19746 4 180.0000771 4.6024000 2
19741 19743 19745 19746 1 180.0000771 15.1670000 2
19744 19743 19745 19746 1 180.0000771 15.1670000 2
19736 19745 19743 19741 1 180.0000771 15.1670000 2
19736 19745 19743 19744 1 180.0000771 15.1670000 2
19741 19745 19743 19744 4 180.0000771 4.6024000 2
19747 19748 19749 19750 1 180.0000771 15.1670000 2
19747 19748 19749 19751 1 180.0000771 15.1670000 2
19750 19748 19749 19751 4 180.0000771 4.6024000 2
19747 19748 19757 19749 4 180.0000771 4.6024000 2
19747 19748 19757 19755 1 180.0000771 15.1670000 2
19747 19748 19757 19758 1 180.0000771 15.1670000 2
19749 19748 19757 19755 1 180.0000771 15.1670000 2
19749 19748 19757 19758 1 180.0000771 15.1670000 2
19750 19749 19748 19757 1 180.0000771 15.1670000 2
19751 19749 19748 19757 1 180.0000771 15.1670000 2
19748 19749 19751 19752 1 180.0000771 15.1670000 2
19748 19749 19751 19753 1 180.0000771 15.1670000 2
19750 19749 19751 19752 1 180.0000771 15.1670000 2
19750 19749 19751 19753 1 180.0000771 15.1670000 2
19749 19751 19753 19754 1 180.0000771 15.1670000 2
19749 19751 19753 19755 1 180.0000771 15.1670000 2
19752 19751 19753 19754 1 180.0000771 15.1670000 2
19752 19751 19753 19755 1 180.0000771 15.1670000 2
19749 19753 19751 19752 4 180.0000771 4.6024000 2
19751 19753 19755 19756 1 180.0000771 15.1670000 2
19751 19753 19755 19757 1 180.0000771 15.1670000 2
19754 19753 19755 19756 1 180.0000771 15.1670000 2
19754 19753 19755 19757 1 180.0000771 15.1670000 2
19751 19755 19753 19754 4 180.0000771 4.6024000 2
19748 19755 19757 19758 4 180.0000771 4.6024000 2
19753 19755 19757 19758 1 180.0000771 15.1670000 2
19756 19755 19757 19758 1 180.0000771 15.1670000 2
19748 19757 19755 19753 1 180.0000771 15.1670000 2
19748 19757 19755 19756 1 180.0000771 15.1670000 2
19753 19757 19755 19756 4 180.0000771 4.6024000 2
19759 19760 19761 19762 1 180.0000771 15.1670000 2
19759 19760 19761 19763 1 180.0000771 15.1670000 2
19762 19760 19761 19763 4 180.0000771 4.6024000 2
19759 19760 19769 19761 4 180.0000771 4.6024000 2
19759 19760 19769 19767 1 180.0000771 15.1670000 2
19759 19760 19769 19770 1 180.0000771 15.1670000 2
19761 19760 19769 19767 1 180.0000771 15.1670000 2
19761 19760 19769 19770 1 180.0000771 15.1670000 2
19762 19761 19760 19769 1 180.0000771 15.1670000 2
19763 19761 19760 19769 1 180.0000771 15.1670000 2
19760 19761 19763 19764 1 180.0000771 15.1670000 2
19760 19761 19763 19765 1 180.0000771 15.1670000 2
19762 19761 19763 19764 1 180.0000771 15.1670000 2
19762 19761 19763 19765 1 180.0000771 15.1670000 2
19761 19763 19765 19766 1 180.0000771 15.1670000 2
19761 19763 19765 19767 1 180.0000771 15.1670000 2
19764 19763 19765 19766 1 180.0000771 15.1670000 2
19764 19763 19765 19767 1 180.0000771 15.1670000 2
19761 19765 19763 19764 4 180.0000771 4.6024000 2
19763 19765 19767 19768 1 180.0000771 15.1670000 2
19763 19765 19767 19769 1 180.0000771 15.1670000 2
19766 19765 19767 19768 1 180.0000771 15.1670000 2
19766 19765 19767 19769 1 180.0000771 15.1670000 2
19763 19767 19765 19766 4 180.0000771 4.6024000 2
19760 19767 19769 19770 4 180.0000771 4.6024000 2
19765 19767 19769 19770 1 180.0000771 15.1670000 2
19768 19767 19769 19770 1 180.0000771 15.1670000 2
19760 19769 19767 19765 1 180.0000771 15.1670000 2
19760 19769 19767 19768 1 180.0000771 15.1670000 2
19765 19769 19767 19768 4 180.0000771 4.6024000 2
19771 19772 19773 19774 1 180.0000771 15.1670000 2
19771 19772 19773 19775 1 180.0000771 15.1670000 2
19774 19772 19773 19775 4 180.0000771 4.6024000 2
19771 19772 19781 19773 4 180.0000771 4.6024000 2
19771 19772 19781 19779 1 180.0000771 15.1670000 2
19771 19772 19781 19782 1 180.0000771 15.1670000 2
19773 19772 19781 19779 1 180.0000771 15.1670000 2
19773 19772 19781 19782 1 180.0000771 15.1670000 2
19774 19773 19772 19781 1 180.0000771 15.1670000 2
19775 19773 19772 19781 1 180.0000771 15.1670000 2
19772 19773 19775 19776 1 180.0000771 15.1670000 2
19772 19773 19775 19777 1 180.0000771 15.1670000 2
19774 19773 19775 19776 1 180.0000771 15.1670000 2
19774 19773 19775 19777 1 180.0000771 15.1670000 2
19773 19775 19777 19778 1 180.0000771 15.1670000 2
19773 19775 19777 19779 1 180.0000771 15.1670000 2
19776 19775 19777 19778 1 180.0000771 15.1670000 2
19776 19775 19777 19779 1 180.0000771 15.1670000 2
19773 19777 19775 19776 4 180.0000771 4.6024000 2
19775 19777 19779 19780 1 180.0000771 15.1670000 2
19775 19777 19779 19781 1 180.0000771 15.1670000 2
19778 19777 19779 19780 1 180.0000771 15.1670000 2
19778 19777 19779 19781 1 180.0000771 15.1670000 2
19775 19779 19777 19778 4 180.0000771 4.6024000 2
19772 19779 19781 19782 4 180.0000771 4.6024000 2
19777 19779 19781 19782 1 180.0000771 15.1670000 2
19780 19779 19781 19782 1 180.0000771 15.1670000 2
19772 19781 19779 19777 1 180.0000771 15.1670000 2
19772 19781 19779 19780 1 180.0000771 15.1670000 2
19777 19781 19779 19780 4 180.0000771 4.6024000 2
19783 19784 19785 19786 1 180.0000771 15.1670000 2
19783 19784 19785 19787 1 180.0000771 15.1670000 2
19786 19784 19785 19787 4 180.0000771 4.6024000 2
19783 19784 19793 19785 4 180.0000771 4.6024000 2
19783 19784 19793 19791 1 180.0000771 15.1670000 2
19783 19784 19793 19794 1 180.0000771 15.1670000 2
19785 19784 19793 19791 1 180.0000771 15.1670000 2
19785 19784 19793 19794 1 180.0000771 15.1670000 2
19786 19785 19784 19793 1 180.0000771 15.1670000 2
19787 19785 19784 19793 1 180.0000771 15.1670000 2
19784 19785 19787 19788 1 180.0000771 15.1670000 2
19784 19785 19787 19789 1 180.0000771 15.1670000 2
19786 19785 19787 19788 1 180.0000771 15.1670000 2
19786 19785 19787 19789 1 180.0000771 15.1670000 2
19785 19787 19789 19790 1 180.0000771 15.1670000 2
19785 19787 19789 19791 1 180.0000771 15.1670000 2
19788 19787 19789 19790 1 180.0000771 15.1670000 2
19788 19787 19789 19791 1 180.0000771 15.1670000 2
19785 19789 19787 19788 4 180.0000771 4.6024000 2
19787 19789 19791 19792 1 180.0000771 15.1670000 2
19787 19789 19791 19793 1 180.0000771 15.1670000 2
19790 19789 19791 19792 1 180.0000771 15.1670000 2
19790 19789 19791 19793 1 180.0000771 15.1670000 2
19787 19791 19789 19790 4 180.0000771 4.6024000 2
19784 19791 19793 19794 4 180.0000771 4.6024000 2
19789 19791 19793 19794 1 180.0000771 15.1670000 2
19792 19791 19793 19794 1 180.0000771 15.1670000 2
19784 19793 19791 19789 1 180.0000771 15.1670000 2
19784 19793 19791 19792 1 180.0000771 15.1670000 2
19789 19793 19791 19792 4 180.0000771 4.6024000 2
19795 19796 19797 19798 1 180.0000771 15.1670000 2
19795 19796 19797 19799 1 180.0000771 15.1670000 2
19798 19796 19797 19799 4 180.0000771 4.6024000 2
19795 19796 19805 19797 4 180.0000771 4.6024000 2
19795 19796 19805 19803 1 180.0000771 15.1670000 2
19795 19796 19805 19806 1 180.0000771 15.1670000 2
19797 19796 19805 19803 1 180.0000771 15.1670000 2
19797 19796 19805 19806 1 180.0000771 15.1670000 2
19798 19797 19796 19805 1 180.0000771 15.1670000 2
19799 19797 19796 19805 1 180.0000771 15.1670000 2
19796 19797 19799 19800 1 180.0000771 15.1670000 2
19796 19797 19799 19801 1 180.0000771 15.1670000 2
19798 19797 19799 19800 1 180.0000771 15.1670000 2
19798 19797 19799 19801 1 180.0000771 15.1670000 2
19797 19799 19801 19802 1 180.0000771 15.1670000 2
19797 19799 19801 19803 1 180.0000771 15.1670000 2
19800 19799 19801 19802 1 180.0000771 15.1670000 2
19800 19799 19801 19803 1 180.0000771 15.1670000 2
19797 19801 19799 19800 4 180.0000771 4.6024000 2
19799 19801 19803 19804 1 180.0000771 15.1670000 2
19799 19801 19803 19805 1 180.0000771 15.1670000 2
19802 19801 19803 19804 1 180.0000771 15.1670000 2
19802 19801 19803 19805 1 180.0000771 15.1670000 2
19799 19803 19801 19802 4 180.0000771 4.6024000 2
19796 19803 19805 19806 4 180.0000771 4.6024000 2
19801 19803 19805 19806 1 180.0000771 15.1670000 2
19804 19803 19805 19806 1 180.0000771 15.1670000 2
19796 19805 19803 19801 1 180.0000771 15.1670000 2
19796 19805 19803 19804 1 180.0000771 15.1670000 2
19801 19805 19803 19804 4 180.0000771 4.6024000 2
19807 19808 19809 19810 1 180.0000771 15.1670000 2
19807 19808 19809 19811 1 180.0000771 15.1670000 2
19810 19808 19809 19811 4 180.0000771 4.6024000 2
19807 19808 19817 19809 4 180.0000771 4.6024000 2
19807 19808 19817 19815 1 180.0000771 15.1670000 2
19807 19808 19817 19818 1 180.0000771 15.1670000 2
19809 19808 19817 19815 1 180.0000771 15.1670000 2
19809 19808 19817 19818 1 180.0000771 15.1670000 2
19810 19809 19808 19817 1 180.0000771 15.1670000 2
19811 19809 19808 19817 1 180.0000771 15.1670000 2
19808 19809 19811 19812 1 180.0000771 15.1670000 2
19808 19809 19811 19813 1 180.0000771 15.1670000 2
19810 19809 19811 19812 1 180.0000771 15.1670000 2
19810 19809 19811 19813 1 180.0000771 15.1670000 2
19809 19811 19813 19814 1 180.0000771 15.1670000 2
19809 19811 19813 19815 1 180.0000771 15.1670000 2
19812 19811 19813 19814 1 180.0000771 15.1670000 2
19812 19811 19813 19815 1 180.0000771 15.1670000 2
19809 19813 19811 19812 4 180.0000771 4.6024000 2
19811 19813 19815 19816 1 180.0000771 15.1670000 2
19811 19813 19815 19817 1 180.0000771 15.1670000 2
19814 19813 19815 19816 1 180.0000771 15.1670000 2
19814 19813 19815 19817 1 180.0000771 15.1670000 2
19811 19815 19813 19814 4 180.0000771 4.6024000 2
19808 19815 19817 19818 4 180.0000771 4.6024000 2
19813 19815 19817 19818 1 180.0000771 15.1670000 2
19816 19815 19817 19818 1 180.0000771 15.1670000 2
19808 19817 19815 19813 1 180.0000771 15.1670000 2
19808 19817 19815 19816 1 180.0000771 15.1670000 2
19813 19817 19815 19816 4 180.0000771 4.6024000 2
19819 19820 19821 19822 1 180.0000771 15.1670000 2
19819 19820 19821 19823 1 180.0000771 15.1670000 2
19822 19820 19821 19823 4 180.0000771 4.6024000 2
19819 19820 19829 19821 4 180.0000771 4.6024000 2
19819 19820 19829 19827 1 180.0000771 15.1670000 2
19819 19820 19829 19830 1 180.0000771 15.1670000 2
19821 19820 19829 19827 1 180.0000771 15.1670000 2
19821 19820 19829 19830 1 180.0000771 15.1670000 2
19822 19821 19820 19829 1 180.0000771 15.1670000 2
19823 19821 19820 19829 1 180.0000771 15.1670000 2
19820 19821 19823 19824 1 180.0000771 15.1670000 2
19820 19821 19823 19825 1 180.0000771 15.1670000 2
19822 19821 19823 19824 1 180.0000771 15.1670000 2
19822 19821 19823 19825 1 180.0000771 15.1670000 2
19821 19823 19825 19826 1 180.0000771 15.1670000 2
19821 19823 19825 19827 1 180.0000771 15.1670000 2
19824 19823 19825 19826 1 180.0000771 15.1670000 2
19824 19823 19825 19827 1 180.0000771 15.1670000 2
19821 19825 19823 19824 4 180.0000771 4.6024000 2
19823 19825 19827 19828 1 180.0000771 15.1670000 2
19823 19825 19827 19829 1 180.0000771 15.1670000 2
19826 19825 19827 19828 1 180.0000771 15.1670000 2
19826 19825 19827 19829 1 180.0000771 15.1670000 2
19823 19827 19825 19826 4 180.0000771 4.6024000 2
19820 19827 19829 19830 4 180.0000771 4.6024000 2
19825 19827 19829 19830 1 180.0000771 15.1670000 2
19828 19827 19829 19830 1 180.0000771 15.1670000 2
19820 19829 19827 19825 1 180.0000771 15.1670000 2
19820 19829 19827 19828 1 180.0000771 15.1670000 2
19825 19829 19827 19828 4 180.0000771 4.6024000 2
19831 19832 19833 19834 1 180.0000771 15.1670000 2
19831 19832 19833 19835 1 180.0000771 15.1670000 2
19834 19832 19833 19835 4 180.0000771 4.6024000 2
19831 19832 19841 19833 4 180.0000771 4.6024000 2
19831 19832 19841 19839 1 180.0000771 15.1670000 2
19831 19832 19841 19842 1 180.0000771 15.1670000 2
19833 19832 19841 19839 1 180.0000771 15.1670000 2
19833 19832 19841 19842 1 180.0000771 15.1670000 2
19834 19833 19832 19841 1 180.0000771 15.1670000 2
19835 19833 19832 19841 1 180.0000771 15.1670000 2
19832 19833 19835 19836 1 180.0000771 15.1670000 2
19832 19833 19835 19837 1 180.0000771 15.1670000 2
19834 19833 19835 19836 1 180.0000771 15.1670000 2
19834 19833 19835 19837 1 180.0000771 15.1670000 2
19833 19835 19837 19838 1 180.0000771 15.1670000 2
19833 19835 19837 19839 1 180.0000771 15.1670000 2
19836 19835 19837 19838 1 180.0000771 15.1670000 2
19836 19835 19837 19839 1 180.0000771 15.1670000 2
19833 19837 19835 19836 4 180.0000771 4.6024000 2
19835 19837 19839 19840 1 180.0000771 15.1670000 2
19835 19837 19839 19841 1 180.0000771 15.1670000 2
19838 19837 19839 19840 1 180.0000771 15.1670000 2
19838 19837 19839 19841 1 180.0000771 15.1670000 2
19835 19839 19837 19838 4 180.0000771 4.6024000 2
19832 19839 19841 19842 4 180.0000771 4.6024000 2
19837 19839 19841 19842 1 180.0000771 15.1670000 2
19840 19839 19841 19842 1 180.0000771 15.1670000 2
19832 19841 19839 19837 1 180.0000771 15.1670000 2
19832 19841 19839 19840 1 180.0000771 15.1670000 2
19837 19841 19839 19840 4 180.0000771 4.6024000 2
19843 19844 19845 19846 1 180.0000771 15.1670000 2
19843 19844 19845 19847 1 180.0000771 15.1670000 2
19846 19844 19845 19847 4 180.0000771 4.6024000 2
19843 19844 19853 19845 4 180.0000771 4.6024000 2
19843 19844 19853 19851 1 180.0000771 15.1670000 2
19843 19844 19853 19854 1 180.0000771 15.1670000 2
19845 19844 19853 19851 1 180.0000771 15.1670000 2
19845 19844 19853 19854 1 180.0000771 15.1670000 2
19846 19845 19844 19853 1 180.0000771 15.1670000 2
19847 19845 19844 19853 1 180.0000771 15.1670000 2
19844 19845 19847 19848 1 180.0000771 15.1670000 2
19844 19845 19847 19849 1 180.0000771 15.1670000 2
19846 19845 19847 19848 1 180.0000771 15.1670000 2
19846 19845 19847 19849 1 180.0000771 15.1670000 2
19845 19847 19849 19850 1 180.0000771 15.1670000 2
19845 19847 19849 19851 1 180.0000771 15.1670000 2
19848 19847 19849 19850 1 180.0000771 15.1670000 2
19848 19847 19849 19851 1 180.0000771 15.1670000 2
19845 19849 19847 19848 4 180.0000771 4.6024000 2
19847 19849 19851 19852 1 180.0000771 15.1670000 2
19847 19849 19851 19853 1 180.0000771 15.1670000 2
19850 19849 19851 19852 1 180.0000771 15.1670000 2
19850 19849 19851 19853 1 180.0000771 15.1670000 2
19847 19851 19849 19850 4 180.0000771 4.6024000 2
19844 19851 19853 19854 4 180.0000771 4.6024000 2
19849 19851 19853 19854 1 180.0000771 15.1670000 2
19852 19851 19853 19854 1 180.0000771 15.1670000 2
19844 19853 19851 19849 1 180.0000771 15.1670000 2
19844 19853 19851 19852 1 180.0000771 15.1670000 2
19849 19853 19851 19852 4 180.0000771 4.6024000 2
19855 19856 19857 19858 1 180.0000771 15.1670000 2
19855 19856 19857 19859 1 180.0000771 15.1670000 2
19858 19856 19857 19859 4 180.0000771 4.6024000 2
19855 19856 19865 19857 4 180.0000771 4.6024000 2
19855 19856 19865 19863 1 180.0000771 15.1670000 2
19855 19856 19865 19866 1 180.0000771 15.1670000 2
19857 19856 19865 19863 1 180.0000771 15.1670000 2
19857 19856 19865 19866 1 180.0000771 15.1670000 2
19858 19857 19856 19865 1 180.0000771 15.1670000 2
19859 19857 19856 19865 1 180.0000771 15.1670000 2
19856 19857 19859 19860 1 180.0000771 15.1670000 2
19856 19857 19859 19861 1 180.0000771 15.1670000 2
19858 19857 19859 19860 1 180.0000771 15.1670000 2
19858 19857 19859 19861 1 180.0000771 15.1670000 2
19857 19859 19861 19862 1 180.0000771 15.1670000 2
19857 19859 19861 19863 1 180.0000771 15.1670000 2
19860 19859 19861 19862 1 180.0000771 15.1670000 2
19860 19859 19861 19863 1 180.0000771 15.1670000 2
19857 19861 19859 19860 4 180.0000771 4.6024000 2
19859 19861 19863 19864 1 180.0000771 15.1670000 2
19859 19861 19863 19865 1 180.0000771 15.1670000 2
19862 19861 19863 19864 1 180.0000771 15.1670000 2
19862 19861 19863 19865 1 180.0000771 15.1670000 2
19859 19863 19861 19862 4 180.0000771 4.6024000 2
19856 19863 19865 19866 4 180.0000771 4.6024000 2
19861 19863 19865 19866 1 180.0000771 15.1670000 2
19864 19863 19865 19866 1 180.0000771 15.1670000 2
19856 19865 19863 19861 1 180.0000771 15.1670000 2
19856 19865 19863 19864 1 180.0000771 15.1670000 2
19861 19865 19863 19864 4 180.0000771 4.6024000 2
19867 19868 19869 19870 1 180.0000771 15.1670000 2
19867 19868 19869 19871 1 180.0000771 15.1670000 2
19870 19868 19869 19871 4 180.0000771 4.6024000 2
19867 19868 19877 19869 4 180.0000771 4.6024000 2
19867 19868 19877 19875 1 180.0000771 15.1670000 2
19867 19868 19877 19878 1 180.0000771 15.1670000 2
19869 19868 19877 19875 1 180.0000771 15.1670000 2
19869 19868 19877 19878 1 180.0000771 15.1670000 2
19870 19869 19868 19877 1 180.0000771 15.1670000 2
19871 19869 19868 19877 1 180.0000771 15.1670000 2
19868 19869 19871 19872 1 180.0000771 15.1670000 2
19868 19869 19871 19873 1 180.0000771 15.1670000 2
19870 19869 19871 19872 1 180.0000771 15.1670000 2
19870 19869 19871 19873 1 180.0000771 15.1670000 2
19869 19871 19873 19874 1 180.0000771 15.1670000 2
19869 19871 19873 19875 1 180.0000771 15.1670000 2
19872 19871 19873 19874 1 180.0000771 15.1670000 2
19872 19871 19873 19875 1 180.0000771 15.1670000 2
19869 19873 19871 19872 4 180.0000771 4.6024000 2
19871 19873 19875 19876 1 180.0000771 15.1670000 2
19871 19873 19875 19877 1 180.0000771 15.1670000 2
19874 19873 19875 19876 1 180.0000771 15.1670000 2
19874 19873 19875 19877 1 180.0000771 15.1670000 2
19871 19875 19873 19874 4 180.0000771 4.6024000 2
19868 19875 19877 19878 4 180.0000771 4.6024000 2
19873 19875 19877 19878 1 180.0000771 15.1670000 2
19876 19875 19877 19878 1 180.0000771 15.1670000 2
19868 19877 19875 19873 1 180.0000771 15.1670000 2
19868 19877 19875 19876 1 180.0000771 15.1670000 2
19873 19877 19875 19876 4 180.0000771 4.6024000 2
19879 19880 19881 19882 1 180.0000771 15.1670000 2
19879 19880 19881 19883 1 180.0000771 15.1670000 2
19882 19880 19881 19883 4 180.0000771 4.6024000 2
19879 19880 19889 19881 4 180.0000771 4.6024000 2
19879 19880 19889 19887 1 180.0000771 15.1670000 2
19879 19880 19889 19890 1 180.0000771 15.1670000 2
19881 19880 19889 19887 1 180.0000771 15.1670000 2
19881 19880 19889 19890 1 180.0000771 15.1670000 2
19882 19881 19880 19889 1 180.0000771 15.1670000 2
19883 19881 19880 19889 1 180.0000771 15.1670000 2
19880 19881 19883 19884 1 180.0000771 15.1670000 2
19880 19881 19883 19885 1 180.0000771 15.1670000 2
19882 19881 19883 19884 1 180.0000771 15.1670000 2
19882 19881 19883 19885 1 180.0000771 15.1670000 2
19881 19883 19885 19886 1 180.0000771 15.1670000 2
19881 19883 19885 19887 1 180.0000771 15.1670000 2
19884 19883 19885 19886 1 180.0000771 15.1670000 2
19884 19883 19885 19887 1 180.0000771 15.1670000 2
19881 19885 19883 19884 4 180.0000771 4.6024000 2
19883 19885 19887 19888 1 180.0000771 15.1670000 2
19883 19885 19887 19889 1 180.0000771 15.1670000 2
19886 19885 19887 19888 1 180.0000771 15.1670000 2
19886 19885 19887 19889 1 180.0000771 15.1670000 2
19883 19887 19885 19886 4 180.0000771 4.6024000 2
19880 19887 19889 19890 4 180.0000771 4.6024000 2
19885 19887 19889 19890 1 180.0000771 15.1670000 2
19888 19887 19889 19890 1 180.0000771 15.1670000 2
19880 19889 19887 19885 1 180.0000771 15.1670000 2
19880 19889 19887 19888 1 180.0000771 15.1670000 2
19885 19889 19887 19888 4 180.0000771 4.6024000 2
19891 19892 19893 19894 1 180.0000771 15.1670000 2
19891 19892 19893 19895 1 180.0000771 15.1670000 2
19894 19892 19893 19895 4 180.0000771 4.6024000 2
19891 19892 19901 19893 4 180.0000771 4.6024000 2
19891 19892 19901 19899 1 180.0000771 15.1670000 2
19891 19892 19901 19902 1 180.0000771 15.1670000 2
19893 19892 19901 19899 1 180.0000771 15.1670000 2
19893 19892 19901 19902 1 180.0000771 15.1670000 2
19894 19893 19892 19901 1 180.0000771 15.1670000 2
19895 19893 19892 19901 1 180.0000771 15.1670000 2
19892 19893 19895 19896 1 180.0000771 15.1670000 2
19892 19893 19895 19897 1 180.0000771 15.1670000 2
19894 19893 19895 19896 1 180.0000771 15.1670000 2
19894 19893 19895 19897 1 180.0000771 15.1670000 2
19893 19895 19897 19898 1 180.0000771 15.1670000 2
19893 19895 19897 19899 1 180.0000771 15.1670000 2
19896 19895 19897 19898 1 180.0000771 15.1670000 2
19896 19895 19897 19899 1 180.0000771 15.1670000 2
19893 19897 19895 19896 4 180.0000771 4.6024000 2
19895 19897 19899 19900 1 180.0000771 15.1670000 2
19895 19897 19899 19901 1 180.0000771 15.1670000 2
19898 19897 19899 19900 1 180.0000771 15.1670000 2
19898 19897 19899 19901 1 180.0000771 15.1670000 2
19895 19899 19897 19898 4 180.0000771 4.6024000 2
19892 19899 19901 19902 4 180.0000771 4.6024000 2
19897 19899 19901 19902 1 180.0000771 15.1670000 2
19900 19899 19901 19902 1 180.0000771 15.1670000 2
19892 19901 19899 19897 1 180.0000771 15.1670000 2
19892 19901 19899 19900 1 180.0000771 15.1670000 2
19897 19901 19899 19900 4 180.0000771 4.6024000 2
19903 19904 19905 19906 1 180.0000771 15.1670000 2
19903 19904 19905 19907 1 180.0000771 15.1670000 2
19906 19904 19905 19907 4 180.0000771 4.6024000 2
19903 19904 19913 19905 4 180.0000771 4.6024000 2
19903 19904 19913 19911 1 180.0000771 15.1670000 2
19903 19904 19913 19914 1 180.0000771 15.1670000 2
19905 19904 19913 19911 1 180.0000771 15.1670000 2
19905 19904 19913 19914 1 180.0000771 15.1670000 2
19906 19905 19904 19913 1 180.0000771 15.1670000 2
19907 19905 19904 19913 1 180.0000771 15.1670000 2
19904 19905 19907 19908 1 180.0000771 15.1670000 2
19904 19905 19907 19909 1 180.0000771 15.1670000 2
19906 19905 19907 19908 1 180.0000771 15.1670000 2
19906 19905 19907 19909 1 180.0000771 15.1670000 2
19905 19907 19909 19910 1 180.0000771 15.1670000 2
19905 19907 19909 19911 1 180.0000771 15.1670000 2
19908 19907 19909 19910 1 180.0000771 15.1670000 2
19908 19907 19909 19911 1 180.0000771 15.1670000 2
19905 19909 19907 19908 4 180.0000771 4.6024000 2
19907 19909 19911 19912 1 180.0000771 15.1670000 2
19907 19909 19911 19913 1 180.0000771 15.1670000 2
19910 19909 19911 19912 1 180.0000771 15.1670000 2
19910 19909 19911 19913 1 180.0000771 15.1670000 2
19907 19911 19909 19910 4 180.0000771 4.6024000 2
19904 19911 19913 19914 4 180.0000771 4.6024000 2
19909 19911 19913 19914 1 180.0000771 15.1670000 2
19912 19911 19913 19914 1 180.0000771 15.1670000 2
19904 19913 19911 19909 1 180.0000771 15.1670000 2
19904 19913 19911 19912 1 180.0000771 15.1670000 2
19909 19913 19911 19912 4 180.0000771 4.6024000 2
19915 19916 19917 19918 1 180.0000771 15.1670000 2
19915 19916 19917 19919 1 180.0000771 15.1670000 2
19918 19916 19917 19919 4 180.0000771 4.6024000 2
19915 19916 19925 19917 4 180.0000771 4.6024000 2
19915 19916 19925 19923 1 180.0000771 15.1670000 2
19915 19916 19925 19926 1 180.0000771 15.1670000 2
19917 19916 19925 19923 1 180.0000771 15.1670000 2
19917 19916 19925 19926 1 180.0000771 15.1670000 2
19918 19917 19916 19925 1 180.0000771 15.1670000 2
19919 19917 19916 19925 1 180.0000771 15.1670000 2
19916 19917 19919 19920 1 180.0000771 15.1670000 2
19916 19917 19919 19921 1 180.0000771 15.1670000 2
19918 19917 19919 19920 1 180.0000771 15.1670000 2
19918 19917 19919 19921 1 180.0000771 15.1670000 2
19917 19919 19921 19922 1 180.0000771 15.1670000 2
19917 19919 19921 19923 1 180.0000771 15.1670000 2
19920 19919 19921 19922 1 180.0000771 15.1670000 2
19920 19919 19921 19923 1 180.0000771 15.1670000 2
19917 19921 19919 19920 4 180.0000771 4.6024000 2
19919 19921 19923 19924 1 180.0000771 15.1670000 2
19919 19921 19923 19925 1 180.0000771 15.1670000 2
19922 19921 19923 19924 1 180.0000771 15.1670000 2
19922 19921 19923 19925 1 180.0000771 15.1670000 2
19919 19923 19921 19922 4 180.0000771 4.6024000 2
19916 19923 19925 19926 4 180.0000771 4.6024000 2
19921 19923 19925 19926 1 180.0000771 15.1670000 2
19924 19923 19925 19926 1 180.0000771 15.1670000 2
19916 19925 19923 19921 1 180.0000771 15.1670000 2
19916 19925 19923 19924 1 180.0000771 15.1670000 2
19921 19925 19923 19924 4 180.0000771 4.6024000 2
19927 19928 19929 19930 1 180.0000771 15.1670000 2
19927 19928 19929 19931 1 180.0000771 15.1670000 2
19930 19928 19929 19931 4 180.0000771 4.6024000 2
19927 19928 19937 19929 4 180.0000771 4.6024000 2
19927 19928 19937 19935 1 180.0000771 15.1670000 2
19927 19928 19937 19938 1 180.0000771 15.1670000 2
19929 19928 19937 19935 1 180.0000771 15.1670000 2
19929 19928 19937 19938 1 180.0000771 15.1670000 2
19930 19929 19928 19937 1 180.0000771 15.1670000 2
19931 19929 19928 19937 1 180.0000771 15.1670000 2
19928 19929 19931 19932 1 180.0000771 15.1670000 2
19928 19929 19931 19933 1 180.0000771 15.1670000 2
19930 19929 19931 19932 1 180.0000771 15.1670000 2
19930 19929 19931 19933 1 180.0000771 15.1670000 2
19929 19931 19933 19934 1 180.0000771 15.1670000 2
19929 19931 19933 19935 1 180.0000771 15.1670000 2
19932 19931 19933 19934 1 180.0000771 15.1670000 2
19932 19931 19933 19935 1 180.0000771 15.1670000 2
19929 19933 19931 19932 4 180.0000771 4.6024000 2
19931 19933 19935 19936 1 180.0000771 15.1670000 2
19931 19933 19935 19937 1 180.0000771 15.1670000 2
19934 19933 19935 19936 1 180.0000771 15.1670000 2
19934 19933 19935 19937 1 180.0000771 15.1670000 2
19931 19935 19933 19934 4 180.0000771 4.6024000 2
19928 19935 19937 19938 4 180.0000771 4.6024000 2
19933 19935 19937 19938 1 180.0000771 15.1670000 2
19936 19935 19937 19938 1 180.0000771 15.1670000 2
19928 19937 19935 19933 1 180.0000771 15.1670000 2
19928 19937 19935 19936 1 180.0000771 15.1670000 2
19933 19937 19935 19936 4 180.0000771 4.6024000 2
19939 19940 19941 19942 1 180.0000771 15.1670000 2
19939 19940 19941 19943 1 180.0000771 15.1670000 2
19942 19940 19941 19943 4 180.0000771 4.6024000 2
19939 19940 19949 19941 4 180.0000771 4.6024000 2
19939 19940 19949 19947 1 180.0000771 15.1670000 2
19939 19940 19949 19950 1 180.0000771 15.1670000 2
19941 19940 19949 19947 1 180.0000771 15.1670000 2
19941 19940 19949 19950 1 180.0000771 15.1670000 2
19942 19941 19940 19949 1 180.0000771 15.1670000 2
19943 19941 19940 19949 1 180.0000771 15.1670000 2
19940 19941 19943 19944 1 180.0000771 15.1670000 2
19940 19941 19943 19945 1 180.0000771 15.1670000 2
19942 19941 19943 19944 1 180.0000771 15.1670000 2
19942 19941 19943 19945 1 180.0000771 15.1670000 2
19941 19943 19945 19946 1 180.0000771 15.1670000 2
19941 19943 19945 19947 1 180.0000771 15.1670000 2
19944 19943 19945 19946 1 180.0000771 15.1670000 2
19944 19943 19945 19947 1 180.0000771 15.1670000 2
19941 19945 19943 19944 4 180.0000771 4.6024000 2
19943 19945 19947 19948 1 180.0000771 15.1670000 2
19943 19945 19947 19949 1 180.0000771 15.1670000 2
19946 19945 19947 19948 1 180.0000771 15.1670000 2
19946 19945 19947 19949 1 180.0000771 15.1670000 2
19943 19947 19945 19946 4 180.0000771 4.6024000 2
19940 19947 19949 19950 4 180.0000771 4.6024000 2
19945 19947 19949 19950 1 180.0000771 15.1670000 2
19948 19947 19949 19950 1 180.0000771 15.1670000 2
19940 19949 19947 19945 1 180.0000771 15.1670000 2
19940 19949 19947 19948 1 180.0000771 15.1670000 2
19945 19949 19947 19948 4 180.0000771 4.6024000 2
19951 19952 19953 19954 1 180.0000771 15.1670000 2
19951 19952 19953 19955 1 180.0000771 15.1670000 2
19954 19952 19953 19955 4 180.0000771 4.6024000 2
19951 19952 19961 19953 4 180.0000771 4.6024000 2
19951 19952 19961 19959 1 180.0000771 15.1670000 2
19951 19952 19961 19962 1 180.0000771 15.1670000 2
19953 19952 19961 19959 1 180.0000771 15.1670000 2
19953 19952 19961 19962 1 180.0000771 15.1670000 2
19954 19953 19952 19961 1 180.0000771 15.1670000 2
19955 19953 19952 19961 1 180.0000771 15.1670000 2
19952 19953 19955 19956 1 180.0000771 15.1670000 2
19952 19953 19955 19957 1 180.0000771 15.1670000 2
19954 19953 19955 19956 1 180.0000771 15.1670000 2
19954 19953 19955 19957 1 180.0000771 15.1670000 2
19953 19955 19957 19958 1 180.0000771 15.1670000 2
19953 19955 19957 19959 1 180.0000771 15.1670000 2
19956 19955 19957 19958 1 180.0000771 15.1670000 2
19956 19955 19957 19959 1 180.0000771 15.1670000 2
19953 19957 19955 19956 4 180.0000771 4.6024000 2
19955 19957 19959 19960 1 180.0000771 15.1670000 2
19955 19957 19959 19961 1 180.0000771 15.1670000 2
19958 19957 19959 19960 1 180.0000771 15.1670000 2
19958 19957 19959 19961 1 180.0000771 15.1670000 2
19955 19959 19957 19958 4 180.0000771 4.6024000 2
19952 19959 19961 19962 4 180.0000771 4.6024000 2
19957 19959 19961 19962 1 180.0000771 15.1670000 2
19960 19959 19961 19962 1 180.0000771 15.1670000 2
19952 19961 19959 19957 1 180.0000771 15.1670000 2
19952 19961 19959 19960 1 180.0000771 15.1670000 2
19957 19961 19959 19960 4 180.0000771 4.6024000 2
19963 19964 19965 19966 1 180.0000771 15.1670000 2
19963 19964 19965 19967 1 180.0000771 15.1670000 2
19966 19964 19965 19967 4 180.0000771 4.6024000 2
19963 19964 19973 19965 4 180.0000771 4.6024000 2
19963 19964 19973 19971 1 180.0000771 15.1670000 2
19963 19964 19973 19974 1 180.0000771 15.1670000 2
19965 19964 19973 19971 1 180.0000771 15.1670000 2
19965 19964 19973 19974 1 180.0000771 15.1670000 2
19966 19965 19964 19973 1 180.0000771 15.1670000 2
19967 19965 19964 19973 1 180.0000771 15.1670000 2
19964 19965 19967 19968 1 180.0000771 15.1670000 2
19964 19965 19967 19969 1 180.0000771 15.1670000 2
19966 19965 19967 19968 1 180.0000771 15.1670000 2
19966 19965 19967 19969 1 180.0000771 15.1670000 2
19965 19967 19969 19970 1 180.0000771 15.1670000 2
19965 19967 19969 19971 1 180.0000771 15.1670000 2
19968 19967 19969 19970 1 180.0000771 15.1670000 2
19968 19967 19969 19971 1 180.0000771 15.1670000 2
19965 19969 19967 19968 4 180.0000771 4.6024000 2
19967 19969 19971 19972 1 180.0000771 15.1670000 2
19967 19969 19971 19973 1 180.0000771 15.1670000 2
19970 19969 19971 19972 1 180.0000771 15.1670000 2
19970 19969 19971 19973 1 180.0000771 15.1670000 2
19967 19971 19969 19970 4 180.0000771 4.6024000 2
19964 19971 19973 19974 4 180.0000771 4.6024000 2
19969 19971 19973 19974 1 180.0000771 15.1670000 2
19972 19971 19973 19974 1 180.0000771 15.1670000 2
19964 19973 19971 19969 1 180.0000771 15.1670000 2
19964 19973 19971 19972 1 180.0000771 15.1670000 2
19969 19973 19971 19972 4 180.0000771 4.6024000 2
19975 19976 19977 19978 1 180.0000771 15.1670000 2
19975 19976 19977 19979 1 180.0000771 15.1670000 2
19978 19976 19977 19979 4 180.0000771 4.6024000 2
19975 19976 19985 19977 4 180.0000771 4.6024000 2
19975 19976 19985 19983 1 180.0000771 15.1670000 2
19975 19976 19985 19986 1 180.0000771 15.1670000 2
19977 19976 19985 19983 1 180.0000771 15.1670000 2
19977 19976 19985 19986 1 180.0000771 15.1670000 2
19978 19977 19976 19985 1 180.0000771 15.1670000 2
19979 19977 19976 19985 1 180.0000771 15.1670000 2
19976 19977 19979 19980 1 180.0000771 15.1670000 2
19976 19977 19979 19981 1 180.0000771 15.1670000 2
19978 19977 19979 19980 1 180.0000771 15.1670000 2
19978 19977 19979 19981 1 180.0000771 15.1670000 2
19977 19979 19981 19982 1 180.0000771 15.1670000 2
19977 19979 19981 19983 1 180.0000771 15.1670000 2
19980 19979 19981 19982 1 180.0000771 15.1670000 2
19980 19979 19981 19983 1 180.0000771 15.1670000 2
19977 19981 19979 19980 4 180.0000771 4.6024000 2
19979 19981 19983 19984 1 180.0000771 15.1670000 2
19979 19981 19983 19985 1 180.0000771 15.1670000 2
19982 19981 19983 19984 1 180.0000771 15.1670000 2
19982 19981 19983 19985 1 180.0000771 15.1670000 2
19979 19983 19981 19982 4 180.0000771 4.6024000 2
19976 19983 19985 19986 4 180.0000771 4.6024000 2
19981 19983 19985 19986 1 180.0000771 15.1670000 2
19984 19983 19985 19986 1 180.0000771 15.1670000 2
19976 19985 19983 19981 1 180.0000771 15.1670000 2
19976 19985 19983 19984 1 180.0000771 15.1670000 2
19981 19985 19983 19984 4 180.0000771 4.6024000 2
19987 19988 19989 19990 1 180.0000771 15.1670000 2
19987 19988 19989 19991 1 180.0000771 15.1670000 2
19990 19988 19989 19991 4 180.0000771 4.6024000 2
19987 19988 19997 19989 4 180.0000771 4.6024000 2
19987 19988 19997 19995 1 180.0000771 15.1670000 2
19987 19988 19997 19998 1 180.0000771 15.1670000 2
19989 19988 19997 19995 1 180.0000771 15.1670000 2
19989 19988 19997 19998 1 180.0000771 15.1670000 2
19990 19989 19988 19997 1 180.0000771 15.1670000 2
19991 19989 19988 19997 1 180.0000771 15.1670000 2
19988 19989 19991 19992 1 180.0000771 15.1670000 2
19988 19989 19991 19993 1 180.0000771 15.1670000 2
19990 19989 19991 19992 1 180.0000771 15.1670000 2
19990 19989 19991 19993 1 180.0000771 15.1670000 2
19989 19991 19993 19994 1 180.0000771 15.1670000 2
19989 19991 19993 19995 1 180.0000771 15.1670000 2
19992 19991 19993 19994 1 180.0000771 15.1670000 2
19992 19991 19993 19995 1 180.0000771 15.1670000 2
19989 19993 19991 19992 4 180.0000771 4.6024000 2
19991 19993 19995 19996 1 180.0000771 15.1670000 2
19991 19993 19995 19997 1 180.0000771 15.1670000 2
19994 19993 19995 19996 1 180.0000771 15.1670000 2
19994 19993 19995 19997 1 180.0000771 15.1670000 2
19991 19995 19993 19994 4 180.0000771 4.6024000 2
19988 19995 19997 19998 4 180.0000771 4.6024000 2
19993 19995 19997 19998 1 180.0000771 15.1670000 2
19996 19995 19997 19998 1 180.0000771 15.1670000 2
19988 19997 19995 19993 1 180.0000771 15.1670000 2
19988 19997 19995 19996 1 180.0000771 15.1670000 2
19993 19997 19995 19996 4 180.0000771 4.6024000 2
19999 20000 20001 20002 1 180.0000771 15.1670000 2
19999 20000 20001 20003 1 180.0000771 15.1670000 2
20002 20000 20001 20003 4 180.0000771 4.6024000 2
19999 20000 20009 20001 4 180.0000771 4.6024000 2
19999 20000 20009 20007 1 180.0000771 15.1670000 2
19999 20000 20009 20010 1 180.0000771 15.1670000 2
20001 20000 20009 20007 1 180.0000771 15.1670000 2
20001 20000 20009 20010 1 180.0000771 15.1670000 2
20002 20001 20000 20009 1 180.0000771 15.1670000 2
20003 20001 20000 20009 1 180.0000771 15.1670000 2
20000 20001 20003 20004 1 180.0000771 15.1670000 2
20000 20001 20003 20005 1 180.0000771 15.1670000 2
20002 20001 20003 20004 1 180.0000771 15.1670000 2
20002 20001 20003 20005 1 180.0000771 15.1670000 2
20001 20003 20005 20006 1 180.0000771 15.1670000 2
20001 20003 20005 20007 1 180.0000771 15.1670000 2
20004 20003 20005 20006 1 180.0000771 15.1670000 2
20004 20003 20005 20007 1 180.0000771 15.1670000 2
20001 20005 20003 20004 4 180.0000771 4.6024000 2
20003 20005 20007 20008 1 180.0000771 15.1670000 2
20003 20005 20007 20009 1 180.0000771 15.1670000 2
20006 20005 20007 20008 1 180.0000771 15.1670000 2
20006 20005 20007 20009 1 180.0000771 15.1670000 2
20003 20007 20005 20006 4 180.0000771 4.6024000 2
20000 20007 20009 20010 4 180.0000771 4.6024000 2
20005 20007 20009 20010 1 180.0000771 15.1670000 2
20008 20007 20009 20010 1 180.0000771 15.1670000 2
20000 20009 20007 20005 1 180.0000771 15.1670000 2
20000 20009 20007 20008 1 180.0000771 15.1670000 2
20005 20009 20007 20008 4 180.0000771 4.6024000 2
20011 20012 20013 20014 1 180.0000771 15.1670000 2
20011 20012 20013 20015 1 180.0000771 15.1670000 2
20014 20012 20013 20015 4 180.0000771 4.6024000 2
20011 20012 20021 20013 4 180.0000771 4.6024000 2
20011 20012 20021 20019 1 180.0000771 15.1670000 2
20011 20012 20021 20022 1 180.0000771 15.1670000 2
20013 20012 20021 20019 1 180.0000771 15.1670000 2
20013 20012 20021 20022 1 180.0000771 15.1670000 2
20014 20013 20012 20021 1 180.0000771 15.1670000 2
20015 20013 20012 20021 1 180.0000771 15.1670000 2
20012 20013 20015 20016 1 180.0000771 15.1670000 2
20012 20013 20015 20017 1 180.0000771 15.1670000 2
20014 20013 20015 20016 1 180.0000771 15.1670000 2
20014 20013 20015 20017 1 180.0000771 15.1670000 2
20013 20015 20017 20018 1 180.0000771 15.1670000 2
20013 20015 20017 20019 1 180.0000771 15.1670000 2
20016 20015 20017 20018 1 180.0000771 15.1670000 2
20016 20015 20017 20019 1 180.0000771 15.1670000 2
20013 20017 20015 20016 4 180.0000771 4.6024000 2
20015 20017 20019 20020 1 180.0000771 15.1670000 2
20015 20017 20019 20021 1 180.0000771 15.1670000 2
20018 20017 20019 20020 1 180.0000771 15.1670000 2
20018 20017 20019 20021 1 180.0000771 15.1670000 2
20015 20019 20017 20018 4 180.0000771 4.6024000 2
20012 20019 20021 20022 4 180.0000771 4.6024000 2
20017 20019 20021 20022 1 180.0000771 15.1670000 2
20020 20019 20021 20022 1 180.0000771 15.1670000 2
20012 20021 20019 20017 1 180.0000771 15.1670000 2
20012 20021 20019 20020 1 180.0000771 15.1670000 2
20017 20021 20019 20020 4 180.0000771 4.6024000 2
20023 20024 20025 20026 1 180.0000771 15.1670000 2
20023 20024 20025 20027 1 180.0000771 15.1670000 2
20026 20024 20025 20027 4 180.0000771 4.6024000 2
20023 20024 20033 20025 4 180.0000771 4.6024000 2
20023 20024 20033 20031 1 180.0000771 15.1670000 2
20023 20024 20033 20034 1 180.0000771 15.1670000 2
20025 20024 20033 20031 1 180.0000771 15.1670000 2
20025 20024 20033 20034 1 180.0000771 15.1670000 2
20026 20025 20024 20033 1 180.0000771 15.1670000 2
20027 20025 20024 20033 1 180.0000771 15.1670000 2
20024 20025 20027 20028 1 180.0000771 15.1670000 2
20024 20025 20027 20029 1 180.0000771 15.1670000 2
20026 20025 20027 20028 1 180.0000771 15.1670000 2
20026 20025 20027 20029 1 180.0000771 15.1670000 2
20025 20027 20029 20030 1 180.0000771 15.1670000 2
20025 20027 20029 20031 1 180.0000771 15.1670000 2
20028 20027 20029 20030 1 180.0000771 15.1670000 2
20028 20027 20029 20031 1 180.0000771 15.1670000 2
20025 20029 20027 20028 4 180.0000771 4.6024000 2
20027 20029 20031 20032 1 180.0000771 15.1670000 2
20027 20029 20031 20033 1 180.0000771 15.1670000 2
20030 20029 20031 20032 1 180.0000771 15.1670000 2
20030 20029 20031 20033 1 180.0000771 15.1670000 2
20027 20031 20029 20030 4 180.0000771 4.6024000 2
20024 20031 20033 20034 4 180.0000771 4.6024000 2
20029 20031 20033 20034 1 180.0000771 15.1670000 2
20032 20031 20033 20034 1 180.0000771 15.1670000 2
20024 20033 20031 20029 1 180.0000771 15.1670000 2
20024 20033 20031 20032 1 180.0000771 15.1670000 2
20029 20033 20031 20032 4 180.0000771 4.6024000 2
20035 20036 20037 20038 1 180.0000771 15.1670000 2
20035 20036 20037 20039 1 180.0000771 15.1670000 2
20038 20036 20037 20039 4 180.0000771 4.6024000 2
20035 20036 20045 20037 4 180.0000771 4.6024000 2
20035 20036 20045 20043 1 180.0000771 15.1670000 2
20035 20036 20045 20046 1 180.0000771 15.1670000 2
20037 20036 20045 20043 1 180.0000771 15.1670000 2
20037 20036 20045 20046 1 180.0000771 15.1670000 2
20038 20037 20036 20045 1 180.0000771 15.1670000 2
20039 20037 20036 20045 1 180.0000771 15.1670000 2
20036 20037 20039 20040 1 180.0000771 15.1670000 2
20036 20037 20039 20041 1 180.0000771 15.1670000 2
20038 20037 20039 20040 1 180.0000771 15.1670000 2
20038 20037 20039 20041 1 180.0000771 15.1670000 2
20037 20039 20041 20042 1 180.0000771 15.1670000 2
20037 20039 20041 20043 1 180.0000771 15.1670000 2
20040 20039 20041 20042 1 180.0000771 15.1670000 2
20040 20039 20041 20043 1 180.0000771 15.1670000 2
20037 20041 20039 20040 4 180.0000771 4.6024000 2
20039 20041 20043 20044 1 180.0000771 15.1670000 2
20039 20041 20043 20045 1 180.0000771 15.1670000 2
20042 20041 20043 20044 1 180.0000771 15.1670000 2
20042 20041 20043 20045 1 180.0000771 15.1670000 2
20039 20043 20041 20042 4 180.0000771 4.6024000 2
20036 20043 20045 20046 4 180.0000771 4.6024000 2
20041 20043 20045 20046 1 180.0000771 15.1670000 2
20044 20043 20045 20046 1 180.0000771 15.1670000 2
20036 20045 20043 20041 1 180.0000771 15.1670000 2
20036 20045 20043 20044 1 180.0000771 15.1670000 2
20041 20045 20043 20044 4 180.0000771 4.6024000 2
20047 20048 20049 20050 1 180.0000771 15.1670000 2
20047 20048 20049 20051 1 180.0000771 15.1670000 2
20050 20048 20049 20051 4 180.0000771 4.6024000 2
20047 20048 20057 20049 4 180.0000771 4.6024000 2
20047 20048 20057 20055 1 180.0000771 15.1670000 2
20047 20048 20057 20058 1 180.0000771 15.1670000 2
20049 20048 20057 20055 1 180.0000771 15.1670000 2
20049 20048 20057 20058 1 180.0000771 15.1670000 2
20050 20049 20048 20057 1 180.0000771 15.1670000 2
20051 20049 20048 20057 1 180.0000771 15.1670000 2
20048 20049 20051 20052 1 180.0000771 15.1670000 2
20048 20049 20051 20053 1 180.0000771 15.1670000 2
20050 20049 20051 20052 1 180.0000771 15.1670000 2
20050 20049 20051 20053 1 180.0000771 15.1670000 2
20049 20051 20053 20054 1 180.0000771 15.1670000 2
20049 20051 20053 20055 1 180.0000771 15.1670000 2
20052 20051 20053 20054 1 180.0000771 15.1670000 2
20052 20051 20053 20055 1 180.0000771 15.1670000 2
20049 20053 20051 20052 4 180.0000771 4.6024000 2
20051 20053 20055 20056 1 180.0000771 15.1670000 2
20051 20053 20055 20057 1 180.0000771 15.1670000 2
20054 20053 20055 20056 1 180.0000771 15.1670000 2
20054 20053 20055 20057 1 180.0000771 15.1670000 2
20051 20055 20053 20054 4 180.0000771 4.6024000 2
20048 20055 20057 20058 4 180.0000771 4.6024000 2
20053 20055 20057 20058 1 180.0000771 15.1670000 2
20056 20055 20057 20058 1 180.0000771 15.1670000 2
20048 20057 20055 20053 1 180.0000771 15.1670000 2
20048 20057 20055 20056 1 180.0000771 15.1670000 2
20053 20057 20055 20056 4 180.0000771 4.6024000 2
20059 20060 20061 20062 1 180.0000771 15.1670000 2
20059 20060 20061 20063 1 180.0000771 15.1670000 2
20062 20060 20061 20063 4 180.0000771 4.6024000 2
20059 20060 20069 20061 4 180.0000771 4.6024000 2
20059 20060 20069 20067 1 180.0000771 15.1670000 2
20059 20060 20069 20070 1 180.0000771 15.1670000 2
20061 20060 20069 20067 1 180.0000771 15.1670000 2
20061 20060 20069 20070 1 180.0000771 15.1670000 2
20062 20061 20060 20069 1 180.0000771 15.1670000 2
20063 20061 20060 20069 1 180.0000771 15.1670000 2
20060 20061 20063 20064 1 180.0000771 15.1670000 2
20060 20061 20063 20065 1 180.0000771 15.1670000 2
20062 20061 20063 20064 1 180.0000771 15.1670000 2
20062 20061 20063 20065 1 180.0000771 15.1670000 2
20061 20063 20065 20066 1 180.0000771 15.1670000 2
20061 20063 20065 20067 1 180.0000771 15.1670000 2
20064 20063 20065 20066 1 180.0000771 15.1670000 2
20064 20063 20065 20067 1 180.0000771 15.1670000 2
20061 20065 20063 20064 4 180.0000771 4.6024000 2
20063 20065 20067 20068 1 180.0000771 15.1670000 2
20063 20065 20067 20069 1 180.0000771 15.1670000 2
20066 20065 20067 20068 1 180.0000771 15.1670000 2
20066 20065 20067 20069 1 180.0000771 15.1670000 2
20063 20067 20065 20066 4 180.0000771 4.6024000 2
20060 20067 20069 20070 4 180.0000771 4.6024000 2
20065 20067 20069 20070 1 180.0000771 15.1670000 2
20068 20067 20069 20070 1 180.0000771 15.1670000 2
20060 20069 20067 20065 1 180.0000771 15.1670000 2
20060 20069 20067 20068 1 180.0000771 15.1670000 2
20065 20069 20067 20068 4 180.0000771 4.6024000 2
20071 20072 20073 20074 1 180.0000771 15.1670000 2
20071 20072 20073 20075 1 180.0000771 15.1670000 2
20074 20072 20073 20075 4 180.0000771 4.6024000 2
20071 20072 20081 20073 4 180.0000771 4.6024000 2
20071 20072 20081 20079 1 180.0000771 15.1670000 2
20071 20072 20081 20082 1 180.0000771 15.1670000 2
20073 20072 20081 20079 1 180.0000771 15.1670000 2
20073 20072 20081 20082 1 180.0000771 15.1670000 2
20074 20073 20072 20081 1 180.0000771 15.1670000 2
20075 20073 20072 20081 1 180.0000771 15.1670000 2
20072 20073 20075 20076 1 180.0000771 15.1670000 2
20072 20073 20075 20077 1 180.0000771 15.1670000 2
20074 20073 20075 20076 1 180.0000771 15.1670000 2
20074 20073 20075 20077 1 180.0000771 15.1670000 2
20073 20075 20077 20078 1 180.0000771 15.1670000 2
20073 20075 20077 20079 1 180.0000771 15.1670000 2
20076 20075 20077 20078 1 180.0000771 15.1670000 2
20076 20075 20077 20079 1 180.0000771 15.1670000 2
20073 20077 20075 20076 4 180.0000771 4.6024000 2
20075 20077 20079 20080 1 180.0000771 15.1670000 2
20075 20077 20079 20081 1 180.0000771 15.1670000 2
20078 20077 20079 20080 1 180.0000771 15.1670000 2
20078 20077 20079 20081 1 180.0000771 15.1670000 2
20075 20079 20077 20078 4 180.0000771 4.6024000 2
20072 20079 20081 20082 4 180.0000771 4.6024000 2
20077 20079 20081 20082 1 180.0000771 15.1670000 2
20080 20079 20081 20082 1 180.0000771 15.1670000 2
20072 20081 20079 20077 1 180.0000771 15.1670000 2
20072 20081 20079 20080 1 180.0000771 15.1670000 2
20077 20081 20079 20080 4 180.0000771 4.6024000 2
20083 20084 20085 20086 1 180.0000771 15.1670000 2
20083 20084 20085 20087 1 180.0000771 15.1670000 2
20086 20084 20085 20087 4 180.0000771 4.6024000 2
20083 20084 20093 20085 4 180.0000771 4.6024000 2
20083 20084 20093 20091 1 180.0000771 15.1670000 2
20083 20084 20093 20094 1 180.0000771 15.1670000 2
20085 20084 20093 20091 1 180.0000771 15.1670000 2
20085 20084 20093 20094 1 180.0000771 15.1670000 2
20086 20085 20084 20093 1 180.0000771 15.1670000 2
20087 20085 20084 20093 1 180.0000771 15.1670000 2
20084 20085 20087 20088 1 180.0000771 15.1670000 2
20084 20085 20087 20089 1 180.0000771 15.1670000 2
20086 20085 20087 20088 1 180.0000771 15.1670000 2
20086 20085 20087 20089 1 180.0000771 15.1670000 2
20085 20087 20089 20090 1 180.0000771 15.1670000 2
20085 20087 20089 20091 1 180.0000771 15.1670000 2
20088 20087 20089 20090 1 180.0000771 15.1670000 2
20088 20087 20089 20091 1 180.0000771 15.1670000 2
20085 20089 20087 20088 4 180.0000771 4.6024000 2
20087 20089 20091 20092 1 180.0000771 15.1670000 2
20087 20089 20091 20093 1 180.0000771 15.1670000 2
20090 20089 20091 20092 1 180.0000771 15.1670000 2
20090 20089 20091 20093 1 180.0000771 15.1670000 2
20087 20091 20089 20090 4 180.0000771 4.6024000 2
20084 20091 20093 20094 4 180.0000771 4.6024000 2
20089 20091 20093 20094 1 180.0000771 15.1670000 2
20092 20091 20093 20094 1 180.0000771 15.1670000 2
20084 20093 20091 20089 1 180.0000771 15.1670000 2
20084 20093 20091 20092 1 180.0000771 15.1670000 2
20089 20093 20091 20092 4 180.0000771 4.6024000 2
20095 20096 20097 20098 1 180.0000771 15.1670000 2
20095 20096 20097 20099 1 180.0000771 15.1670000 2
20098 20096 20097 20099 4 180.0000771 4.6024000 2
20095 20096 20105 20097 4 180.0000771 4.6024000 2
20095 20096 20105 20103 1 180.0000771 15.1670000 2
20095 20096 20105 20106 1 180.0000771 15.1670000 2
20097 20096 20105 20103 1 180.0000771 15.1670000 2
20097 20096 20105 20106 1 180.0000771 15.1670000 2
20098 20097 20096 20105 1 180.0000771 15.1670000 2
20099 20097 20096 20105 1 180.0000771 15.1670000 2
20096 20097 20099 20100 1 180.0000771 15.1670000 2
20096 20097 20099 20101 1 180.0000771 15.1670000 2
20098 20097 20099 20100 1 180.0000771 15.1670000 2
20098 20097 20099 20101 1 180.0000771 15.1670000 2
20097 20099 20101 20102 1 180.0000771 15.1670000 2
20097 20099 20101 20103 1 180.0000771 15.1670000 2
20100 20099 20101 20102 1 180.0000771 15.1670000 2
20100 20099 20101 20103 1 180.0000771 15.1670000 2
20097 20101 20099 20100 4 180.0000771 4.6024000 2
20099 20101 20103 20104 1 180.0000771 15.1670000 2
20099 20101 20103 20105 1 180.0000771 15.1670000 2
20102 20101 20103 20104 1 180.0000771 15.1670000 2
20102 20101 20103 20105 1 180.0000771 15.1670000 2
20099 20103 20101 20102 4 180.0000771 4.6024000 2
20096 20103 20105 20106 4 180.0000771 4.6024000 2
20101 20103 20105 20106 1 180.0000771 15.1670000 2
20104 20103 20105 20106 1 180.0000771 15.1670000 2
20096 20105 20103 20101 1 180.0000771 15.1670000 2
20096 20105 20103 20104 1 180.0000771 15.1670000 2
20101 20105 20103 20104 4 180.0000771 4.6024000 2
20107 20108 20109 20110 1 180.0000771 15.1670000 2
20107 20108 20109 20111 1 180.0000771 15.1670000 2
20110 20108 20109 20111 4 180.0000771 4.6024000 2
20107 20108 20117 20109 4 180.0000771 4.6024000 2
20107 20108 20117 20115 1 180.0000771 15.1670000 2
20107 20108 20117 20118 1 180.0000771 15.1670000 2
20109 20108 20117 20115 1 180.0000771 15.1670000 2
20109 20108 20117 20118 1 180.0000771 15.1670000 2
20110 20109 20108 20117 1 180.0000771 15.1670000 2
20111 20109 20108 20117 1 180.0000771 15.1670000 2
20108 20109 20111 20112 1 180.0000771 15.1670000 2
20108 20109 20111 20113 1 180.0000771 15.1670000 2
20110 20109 20111 20112 1 180.0000771 15.1670000 2
20110 20109 20111 20113 1 180.0000771 15.1670000 2
20109 20111 20113 20114 1 180.0000771 15.1670000 2
20109 20111 20113 20115 1 180.0000771 15.1670000 2
20112 20111 20113 20114 1 180.0000771 15.1670000 2
20112 20111 20113 20115 1 180.0000771 15.1670000 2
20109 20113 20111 20112 4 180.0000771 4.6024000 2
20111 20113 20115 20116 1 180.0000771 15.1670000 2
20111 20113 20115 20117 1 180.0000771 15.1670000 2
20114 20113 20115 20116 1 180.0000771 15.1670000 2
20114 20113 20115 20117 1 180.0000771 15.1670000 2
20111 20115 20113 20114 4 180.0000771 4.6024000 2
20108 20115 20117 20118 4 180.0000771 4.6024000 2
20113 20115 20117 20118 1 180.0000771 15.1670000 2
20116 20115 20117 20118 1 180.0000771 15.1670000 2
20108 20117 20115 20113 1 180.0000771 15.1670000 2
20108 20117 20115 20116 1 180.0000771 15.1670000 2
20113 20117 20115 20116 4 180.0000771 4.6024000 2
20119 20120 20121 20122 1 180.0000771 15.1670000 2
20119 20120 20121 20123 1 180.0000771 15.1670000 2
20122 20120 20121 20123 4 180.0000771 4.6024000 2
20119 20120 20129 20121 4 180.0000771 4.6024000 2
20119 20120 20129 20127 1 180.0000771 15.1670000 2
20119 20120 20129 20130 1 180.0000771 15.1670000 2
20121 20120 20129 20127 1 180.0000771 15.1670000 2
20121 20120 20129 20130 1 180.0000771 15.1670000 2
20122 20121 20120 20129 1 180.0000771 15.1670000 2
20123 20121 20120 20129 1 180.0000771 15.1670000 2
20120 20121 20123 20124 1 180.0000771 15.1670000 2
20120 20121 20123 20125 1 180.0000771 15.1670000 2
20122 20121 20123 20124 1 180.0000771 15.1670000 2
20122 20121 20123 20125 1 180.0000771 15.1670000 2
20121 20123 20125 20126 1 180.0000771 15.1670000 2
20121 20123 20125 20127 1 180.0000771 15.1670000 2
20124 20123 20125 20126 1 180.0000771 15.1670000 2
20124 20123 20125 20127 1 180.0000771 15.1670000 2
20121 20125 20123 20124 4 180.0000771 4.6024000 2
20123 20125 20127 20128 1 180.0000771 15.1670000 2
20123 20125 20127 20129 1 180.0000771 15.1670000 2
20126 20125 20127 20128 1 180.0000771 15.1670000 2
20126 20125 20127 20129 1 180.0000771 15.1670000 2
20123 20127 20125 20126 4 180.0000771 4.6024000 2
20120 20127 20129 20130 4 180.0000771 4.6024000 2
20125 20127 20129 20130 1 180.0000771 15.1670000 2
20128 20127 20129 20130 1 180.0000771 15.1670000 2
20120 20129 20127 20125 1 180.0000771 15.1670000 2
20120 20129 20127 20128 1 180.0000771 15.1670000 2
20125 20129 20127 20128 4 180.0000771 4.6024000 2
20131 20132 20133 20134 1 180.0000771 15.1670000 2
20131 20132 20133 20135 1 180.0000771 15.1670000 2
20134 20132 20133 20135 4 180.0000771 4.6024000 2
20131 20132 20141 20133 4 180.0000771 4.6024000 2
20131 20132 20141 20139 1 180.0000771 15.1670000 2
20131 20132 20141 20142 1 180.0000771 15.1670000 2
20133 20132 20141 20139 1 180.0000771 15.1670000 2
20133 20132 20141 20142 1 180.0000771 15.1670000 2
20134 20133 20132 20141 1 180.0000771 15.1670000 2
20135 20133 20132 20141 1 180.0000771 15.1670000 2
20132 20133 20135 20136 1 180.0000771 15.1670000 2
20132 20133 20135 20137 1 180.0000771 15.1670000 2
20134 20133 20135 20136 1 180.0000771 15.1670000 2
20134 20133 20135 20137 1 180.0000771 15.1670000 2
20133 20135 20137 20138 1 180.0000771 15.1670000 2
20133 20135 20137 20139 1 180.0000771 15.1670000 2
20136 20135 20137 20138 1 180.0000771 15.1670000 2
20136 20135 20137 20139 1 180.0000771 15.1670000 2
20133 20137 20135 20136 4 180.0000771 4.6024000 2
20135 20137 20139 20140 1 180.0000771 15.1670000 2
20135 20137 20139 20141 1 180.0000771 15.1670000 2
20138 20137 20139 20140 1 180.0000771 15.1670000 2
20138 20137 20139 20141 1 180.0000771 15.1670000 2
20135 20139 20137 20138 4 180.0000771 4.6024000 2
20132 20139 20141 20142 4 180.0000771 4.6024000 2
20137 20139 20141 20142 1 180.0000771 15.1670000 2
20140 20139 20141 20142 1 180.0000771 15.1670000 2
20132 20141 20139 20137 1 180.0000771 15.1670000 2
20132 20141 20139 20140 1 180.0000771 15.1670000 2
20137 20141 20139 20140 4 180.0000771 4.6024000 2
20143 20144 20145 20146 1 180.0000771 15.1670000 2
20143 20144 20145 20147 1 180.0000771 15.1670000 2
20146 20144 20145 20147 4 180.0000771 4.6024000 2
20143 20144 20153 20145 4 180.0000771 4.6024000 2
20143 20144 20153 20151 1 180.0000771 15.1670000 2
20143 20144 20153 20154 1 180.0000771 15.1670000 2
20145 20144 20153 20151 1 180.0000771 15.1670000 2
20145 20144 20153 20154 1 180.0000771 15.1670000 2
20146 20145 20144 20153 1 180.0000771 15.1670000 2
20147 20145 20144 20153 1 180.0000771 15.1670000 2
20144 20145 20147 20148 1 180.0000771 15.1670000 2
20144 20145 20147 20149 1 180.0000771 15.1670000 2
20146 20145 20147 20148 1 180.0000771 15.1670000 2
20146 20145 20147 20149 1 180.0000771 15.1670000 2
20145 20147 20149 20150 1 180.0000771 15.1670000 2
20145 20147 20149 20151 1 180.0000771 15.1670000 2
20148 20147 20149 20150 1 180.0000771 15.1670000 2
20148 20147 20149 20151 1 180.0000771 15.1670000 2
20145 20149 20147 20148 4 180.0000771 4.6024000 2
20147 20149 20151 20152 1 180.0000771 15.1670000 2
20147 20149 20151 20153 1 180.0000771 15.1670000 2
20150 20149 20151 20152 1 180.0000771 15.1670000 2
20150 20149 20151 20153 1 180.0000771 15.1670000 2
20147 20151 20149 20150 4 180.0000771 4.6024000 2
20144 20151 20153 20154 4 180.0000771 4.6024000 2
20149 20151 20153 20154 1 180.0000771 15.1670000 2
20152 20151 20153 20154 1 180.0000771 15.1670000 2
20144 20153 20151 20149 1 180.0000771 15.1670000 2
20144 20153 20151 20152 1 180.0000771 15.1670000 2
20149 20153 20151 20152 4 180.0000771 4.6024000 2
20155 20156 20157 20158 1 180.0000771 15.1670000 2
20155 20156 20157 20159 1 180.0000771 15.1670000 2
20158 20156 20157 20159 4 180.0000771 4.6024000 2
20155 20156 20165 20157 4 180.0000771 4.6024000 2
20155 20156 20165 20163 1 180.0000771 15.1670000 2
20155 20156 20165 20166 1 180.0000771 15.1670000 2
20157 20156 20165 20163 1 180.0000771 15.1670000 2
20157 20156 20165 20166 1 180.0000771 15.1670000 2
20158 20157 20156 20165 1 180.0000771 15.1670000 2
20159 20157 20156 20165 1 180.0000771 15.1670000 2
20156 20157 20159 20160 1 180.0000771 15.1670000 2
20156 20157 20159 20161 1 180.0000771 15.1670000 2
20158 20157 20159 20160 1 180.0000771 15.1670000 2
20158 20157 20159 20161 1 180.0000771 15.1670000 2
20157 20159 20161 20162 1 180.0000771 15.1670000 2
20157 20159 20161 20163 1 180.0000771 15.1670000 2
20160 20159 20161 20162 1 180.0000771 15.1670000 2
20160 20159 20161 20163 1 180.0000771 15.1670000 2
20157 20161 20159 20160 4 180.0000771 4.6024000 2
20159 20161 20163 20164 1 180.0000771 15.1670000 2
20159 20161 20163 20165 1 180.0000771 15.1670000 2
20162 20161 20163 20164 1 180.0000771 15.1670000 2
20162 20161 20163 20165 1 180.0000771 15.1670000 2
20159 20163 20161 20162 4 180.0000771 4.6024000 2
20156 20163 20165 20166 4 180.0000771 4.6024000 2
20161 20163 20165 20166 1 180.0000771 15.1670000 2
20164 20163 20165 20166 1 180.0000771 15.1670000 2
20156 20165 20163 20161 1 180.0000771 15.1670000 2
20156 20165 20163 20164 1 180.0000771 15.1670000 2
20161 20165 20163 20164 4 180.0000771 4.6024000 2
20167 20168 20169 20170 1 180.0000771 15.1670000 2
20167 20168 20169 20171 1 180.0000771 15.1670000 2
20170 20168 20169 20171 4 180.0000771 4.6024000 2
20167 20168 20177 20169 4 180.0000771 4.6024000 2
20167 20168 20177 20175 1 180.0000771 15.1670000 2
20167 20168 20177 20178 1 180.0000771 15.1670000 2
20169 20168 20177 20175 1 180.0000771 15.1670000 2
20169 20168 20177 20178 1 180.0000771 15.1670000 2
20170 20169 20168 20177 1 180.0000771 15.1670000 2
20171 20169 20168 20177 1 180.0000771 15.1670000 2
20168 20169 20171 20172 1 180.0000771 15.1670000 2
20168 20169 20171 20173 1 180.0000771 15.1670000 2
20170 20169 20171 20172 1 180.0000771 15.1670000 2
20170 20169 20171 20173 1 180.0000771 15.1670000 2
20169 20171 20173 20174 1 180.0000771 15.1670000 2
20169 20171 20173 20175 1 180.0000771 15.1670000 2
20172 20171 20173 20174 1 180.0000771 15.1670000 2
20172 20171 20173 20175 1 180.0000771 15.1670000 2
20169 20173 20171 20172 4 180.0000771 4.6024000 2
20171 20173 20175 20176 1 180.0000771 15.1670000 2
20171 20173 20175 20177 1 180.0000771 15.1670000 2
20174 20173 20175 20176 1 180.0000771 15.1670000 2
20174 20173 20175 20177 1 180.0000771 15.1670000 2
20171 20175 20173 20174 4 180.0000771 4.6024000 2
20168 20175 20177 20178 4 180.0000771 4.6024000 2
20173 20175 20177 20178 1 180.0000771 15.1670000 2
20176 20175 20177 20178 1 180.0000771 15.1670000 2
20168 20177 20175 20173 1 180.0000771 15.1670000 2
20168 20177 20175 20176 1 180.0000771 15.1670000 2
20173 20177 20175 20176 4 180.0000771 4.6024000 2
20179 20180 20181 20182 1 180.0000771 15.1670000 2
20179 20180 20181 20183 1 180.0000771 15.1670000 2
20182 20180 20181 20183 4 180.0000771 4.6024000 2
20179 20180 20189 20181 4 180.0000771 4.6024000 2
20179 20180 20189 20187 1 180.0000771 15.1670000 2
20179 20180 20189 20190 1 180.0000771 15.1670000 2
20181 20180 20189 20187 1 180.0000771 15.1670000 2
20181 20180 20189 20190 1 180.0000771 15.1670000 2
20182 20181 20180 20189 1 180.0000771 15.1670000 2
20183 20181 20180 20189 1 180.0000771 15.1670000 2
20180 20181 20183 20184 1 180.0000771 15.1670000 2
20180 20181 20183 20185 1 180.0000771 15.1670000 2
20182 20181 20183 20184 1 180.0000771 15.1670000 2
20182 20181 20183 20185 1 180.0000771 15.1670000 2
20181 20183 20185 20186 1 180.0000771 15.1670000 2
20181 20183 20185 20187 1 180.0000771 15.1670000 2
20184 20183 20185 20186 1 180.0000771 15.1670000 2
20184 20183 20185 20187 1 180.0000771 15.1670000 2
20181 20185 20183 20184 4 180.0000771 4.6024000 2
20183 20185 20187 20188 1 180.0000771 15.1670000 2
20183 20185 20187 20189 1 180.0000771 15.1670000 2
20186 20185 20187 20188 1 180.0000771 15.1670000 2
20186 20185 20187 20189 1 180.0000771 15.1670000 2
20183 20187 20185 20186 4 180.0000771 4.6024000 2
20180 20187 20189 20190 4 180.0000771 4.6024000 2
20185 20187 20189 20190 1 180.0000771 15.1670000 2
20188 20187 20189 20190 1 180.0000771 15.1670000 2
20180 20189 20187 20185 1 180.0000771 15.1670000 2
20180 20189 20187 20188 1 180.0000771 15.1670000 2
20185 20189 20187 20188 4 180.0000771 4.6024000 2
20191 20192 20193 20194 1 180.0000771 15.1670000 2
20191 20192 20193 20195 1 180.0000771 15.1670000 2
20194 20192 20193 20195 4 180.0000771 4.6024000 2
20191 20192 20201 20193 4 180.0000771 4.6024000 2
20191 20192 20201 20199 1 180.0000771 15.1670000 2
20191 20192 20201 20202 1 180.0000771 15.1670000 2
20193 20192 20201 20199 1 180.0000771 15.1670000 2
20193 20192 20201 20202 1 180.0000771 15.1670000 2
20194 20193 20192 20201 1 180.0000771 15.1670000 2
20195 20193 20192 20201 1 180.0000771 15.1670000 2
20192 20193 20195 20196 1 180.0000771 15.1670000 2
20192 20193 20195 20197 1 180.0000771 15.1670000 2
20194 20193 20195 20196 1 180.0000771 15.1670000 2
20194 20193 20195 20197 1 180.0000771 15.1670000 2
20193 20195 20197 20198 1 180.0000771 15.1670000 2
20193 20195 20197 20199 1 180.0000771 15.1670000 2
20196 20195 20197 20198 1 180.0000771 15.1670000 2
20196 20195 20197 20199 1 180.0000771 15.1670000 2
20193 20197 20195 20196 4 180.0000771 4.6024000 2
20195 20197 20199 20200 1 180.0000771 15.1670000 2
20195 20197 20199 20201 1 180.0000771 15.1670000 2
20198 20197 20199 20200 1 180.0000771 15.1670000 2
20198 20197 20199 20201 1 180.0000771 15.1670000 2
20195 20199 20197 20198 4 180.0000771 4.6024000 2
20192 20199 20201 20202 4 180.0000771 4.6024000 2
20197 20199 20201 20202 1 180.0000771 15.1670000 2
20200 20199 20201 20202 1 180.0000771 15.1670000 2
20192 20201 20199 20197 1 180.0000771 15.1670000 2
20192 20201 20199 20200 1 180.0000771 15.1670000 2
20197 20201 20199 20200 4 180.0000771 4.6024000 2
20203 20204 20205 20206 1 180.0000771 15.1670000 2
20203 20204 20205 20207 1 180.0000771 15.1670000 2
20206 20204 20205 20207 4 180.0000771 4.6024000 2
20203 20204 20213 20205 4 180.0000771 4.6024000 2
20203 20204 20213 20211 1 180.0000771 15.1670000 2
20203 20204 20213 20214 1 180.0000771 15.1670000 2
20205 20204 20213 20211 1 180.0000771 15.1670000 2
20205 20204 20213 20214 1 180.0000771 15.1670000 2
20206 20205 20204 20213 1 180.0000771 15.1670000 2
20207 20205 20204 20213 1 180.0000771 15.1670000 2
20204 20205 20207 20208 1 180.0000771 15.1670000 2
20204 20205 20207 20209 1 180.0000771 15.1670000 2
20206 20205 20207 20208 1 180.0000771 15.1670000 2
20206 20205 20207 20209 1 180.0000771 15.1670000 2
20205 20207 20209 20210 1 180.0000771 15.1670000 2
20205 20207 20209 20211 1 180.0000771 15.1670000 2
20208 20207 20209 20210 1 180.0000771 15.1670000 2
20208 20207 20209 20211 1 180.0000771 15.1670000 2
20205 20209 20207 20208 4 180.0000771 4.6024000 2
20207 20209 20211 20212 1 180.0000771 15.1670000 2
20207 20209 20211 20213 1 180.0000771 15.1670000 2
20210 20209 20211 20212 1 180.0000771 15.1670000 2
20210 20209 20211 20213 1 180.0000771 15.1670000 2
20207 20211 20209 20210 4 180.0000771 4.6024000 2
20204 20211 20213 20214 4 180.0000771 4.6024000 2
20209 20211 20213 20214 1 180.0000771 15.1670000 2
20212 20211 20213 20214 1 180.0000771 15.1670000 2
20204 20213 20211 20209 1 180.0000771 15.1670000 2
20204 20213 20211 20212 1 180.0000771 15.1670000 2
20209 20213 20211 20212 4 180.0000771 4.6024000 2
20215 20216 20217 20218 1 180.0000771 15.1670000 2
20215 20216 20217 20219 1 180.0000771 15.1670000 2
20218 20216 20217 20219 4 180.0000771 4.6024000 2
20215 20216 20225 20217 4 180.0000771 4.6024000 2
20215 20216 20225 20223 1 180.0000771 15.1670000 2
20215 20216 20225 20226 1 180.0000771 15.1670000 2
20217 20216 20225 20223 1 180.0000771 15.1670000 2
20217 20216 20225 20226 1 180.0000771 15.1670000 2
20218 20217 20216 20225 1 180.0000771 15.1670000 2
20219 20217 20216 20225 1 180.0000771 15.1670000 2
20216 20217 20219 20220 1 180.0000771 15.1670000 2
20216 20217 20219 20221 1 180.0000771 15.1670000 2
20218 20217 20219 20220 1 180.0000771 15.1670000 2
20218 20217 20219 20221 1 180.0000771 15.1670000 2
20217 20219 20221 20222 1 180.0000771 15.1670000 2
20217 20219 20221 20223 1 180.0000771 15.1670000 2
20220 20219 20221 20222 1 180.0000771 15.1670000 2
20220 20219 20221 20223 1 180.0000771 15.1670000 2
20217 20221 20219 20220 4 180.0000771 4.6024000 2
20219 20221 20223 20224 1 180.0000771 15.1670000 2
20219 20221 20223 20225 1 180.0000771 15.1670000 2
20222 20221 20223 20224 1 180.0000771 15.1670000 2
20222 20221 20223 20225 1 180.0000771 15.1670000 2
20219 20223 20221 20222 4 180.0000771 4.6024000 2
20216 20223 20225 20226 4 180.0000771 4.6024000 2
20221 20223 20225 20226 1 180.0000771 15.1670000 2
20224 20223 20225 20226 1 180.0000771 15.1670000 2
20216 20225 20223 20221 1 180.0000771 15.1670000 2
20216 20225 20223 20224 1 180.0000771 15.1670000 2
20221 20225 20223 20224 4 180.0000771 4.6024000 2
20227 20228 20229 20230 1 180.0000771 15.1670000 2
20227 20228 20229 20231 1 180.0000771 15.1670000 2
20230 20228 20229 20231 4 180.0000771 4.6024000 2
20227 20228 20237 20229 4 180.0000771 4.6024000 2
20227 20228 20237 20235 1 180.0000771 15.1670000 2
20227 20228 20237 20238 1 180.0000771 15.1670000 2
20229 20228 20237 20235 1 180.0000771 15.1670000 2
20229 20228 20237 20238 1 180.0000771 15.1670000 2
20230 20229 20228 20237 1 180.0000771 15.1670000 2
20231 20229 20228 20237 1 180.0000771 15.1670000 2
20228 20229 20231 20232 1 180.0000771 15.1670000 2
20228 20229 20231 20233 1 180.0000771 15.1670000 2
20230 20229 20231 20232 1 180.0000771 15.1670000 2
20230 20229 20231 20233 1 180.0000771 15.1670000 2
20229 20231 20233 20234 1 180.0000771 15.1670000 2
20229 20231 20233 20235 1 180.0000771 15.1670000 2
20232 20231 20233 20234 1 180.0000771 15.1670000 2
20232 20231 20233 20235 1 180.0000771 15.1670000 2
20229 20233 20231 20232 4 180.0000771 4.6024000 2
20231 20233 20235 20236 1 180.0000771 15.1670000 2
20231 20233 20235 20237 1 180.0000771 15.1670000 2
20234 20233 20235 20236 1 180.0000771 15.1670000 2
20234 20233 20235 20237 1 180.0000771 15.1670000 2
20231 20235 20233 20234 4 180.0000771 4.6024000 2
20228 20235 20237 20238 4 180.0000771 4.6024000 2
20233 20235 20237 20238 1 180.0000771 15.1670000 2
20236 20235 20237 20238 1 180.0000771 15.1670000 2
20228 20237 20235 20233 1 180.0000771 15.1670000 2
20228 20237 20235 20236 1 180.0000771 15.1670000 2
20233 20237 20235 20236 4 180.0000771 4.6024000 2
20239 20240 20241 20242 1 180.0000771 15.1670000 2
20239 20240 20241 20243 1 180.0000771 15.1670000 2
20242 20240 20241 20243 4 180.0000771 4.6024000 2
20239 20240 20249 20241 4 180.0000771 4.6024000 2
20239 20240 20249 20247 1 180.0000771 15.1670000 2
20239 20240 20249 20250 1 180.0000771 15.1670000 2
20241 20240 20249 20247 1 180.0000771 15.1670000 2
20241 20240 20249 20250 1 180.0000771 15.1670000 2
20242 20241 20240 20249 1 180.0000771 15.1670000 2
20243 20241 20240 20249 1 180.0000771 15.1670000 2
20240 20241 20243 20244 1 180.0000771 15.1670000 2
20240 20241 20243 20245 1 180.0000771 15.1670000 2
20242 20241 20243 20244 1 180.0000771 15.1670000 2
20242 20241 20243 20245 1 180.0000771 15.1670000 2
20241 20243 20245 20246 1 180.0000771 15.1670000 2
20241 20243 20245 20247 1 180.0000771 15.1670000 2
20244 20243 20245 20246 1 180.0000771 15.1670000 2
20244 20243 20245 20247 1 180.0000771 15.1670000 2
20241 20245 20243 20244 4 180.0000771 4.6024000 2
20243 20245 20247 20248 1 180.0000771 15.1670000 2
20243 20245 20247 20249 1 180.0000771 15.1670000 2
20246 20245 20247 20248 1 180.0000771 15.1670000 2
20246 20245 20247 20249 1 180.0000771 15.1670000 2
20243 20247 20245 20246 4 180.0000771 4.6024000 2
20240 20247 20249 20250 4 180.0000771 4.6024000 2
20245 20247 20249 20250 1 180.0000771 15.1670000 2
20248 20247 20249 20250 1 180.0000771 15.1670000 2
20240 20249 20247 20245 1 180.0000771 15.1670000 2
20240 20249 20247 20248 1 180.0000771 15.1670000 2
20245 20249 20247 20248 4 180.0000771 4.6024000 2
20251 20252 20253 20254 1 180.0000771 15.1670000 2
20251 20252 20253 20255 1 180.0000771 15.1670000 2
20254 20252 20253 20255 4 180.0000771 4.6024000 2
20251 20252 20261 20253 4 180.0000771 4.6024000 2
20251 20252 20261 20259 1 180.0000771 15.1670000 2
20251 20252 20261 20262 1 180.0000771 15.1670000 2
20253 20252 20261 20259 1 180.0000771 15.1670000 2
20253 20252 20261 20262 1 180.0000771 15.1670000 2
20254 20253 20252 20261 1 180.0000771 15.1670000 2
20255 20253 20252 20261 1 180.0000771 15.1670000 2
20252 20253 20255 20256 1 180.0000771 15.1670000 2
20252 20253 20255 20257 1 180.0000771 15.1670000 2
20254 20253 20255 20256 1 180.0000771 15.1670000 2
20254 20253 20255 20257 1 180.0000771 15.1670000 2
20253 20255 20257 20258 1 180.0000771 15.1670000 2
20253 20255 20257 20259 1 180.0000771 15.1670000 2
20256 20255 20257 20258 1 180.0000771 15.1670000 2
20256 20255 20257 20259 1 180.0000771 15.1670000 2
20253 20257 20255 20256 4 180.0000771 4.6024000 2
20255 20257 20259 20260 1 180.0000771 15.1670000 2
20255 20257 20259 20261 1 180.0000771 15.1670000 2
20258 20257 20259 20260 1 180.0000771 15.1670000 2
20258 20257 20259 20261 1 180.0000771 15.1670000 2
20255 20259 20257 20258 4 180.0000771 4.6024000 2
20252 20259 20261 20262 4 180.0000771 4.6024000 2
20257 20259 20261 20262 1 180.0000771 15.1670000 2
20260 20259 20261 20262 1 180.0000771 15.1670000 2
20252 20261 20259 20257 1 180.0000771 15.1670000 2
20252 20261 20259 20260 1 180.0000771 15.1670000 2
20257 20261 20259 20260 4 180.0000771 4.6024000 2
20263 20264 20265 20266 1 180.0000771 15.1670000 2
20263 20264 20265 20267 1 180.0000771 15.1670000 2
20266 20264 20265 20267 4 180.0000771 4.6024000 2
20263 20264 20273 20265 4 180.0000771 4.6024000 2
20263 20264 20273 20271 1 180.0000771 15.1670000 2
20263 20264 20273 20274 1 180.0000771 15.1670000 2
20265 20264 20273 20271 1 180.0000771 15.1670000 2
20265 20264 20273 20274 1 180.0000771 15.1670000 2
20266 20265 20264 20273 1 180.0000771 15.1670000 2
20267 20265 20264 20273 1 180.0000771 15.1670000 2
20264 20265 20267 20268 1 180.0000771 15.1670000 2
20264 20265 20267 20269 1 180.0000771 15.1670000 2
20266 20265 20267 20268 1 180.0000771 15.1670000 2
20266 20265 20267 20269 1 180.0000771 15.1670000 2
20265 20267 20269 20270 1 180.0000771 15.1670000 2
20265 20267 20269 20271 1 180.0000771 15.1670000 2
20268 20267 20269 20270 1 180.0000771 15.1670000 2
20268 20267 20269 20271 1 180.0000771 15.1670000 2
20265 20269 20267 20268 4 180.0000771 4.6024000 2
20267 20269 20271 20272 1 180.0000771 15.1670000 2
20267 20269 20271 20273 1 180.0000771 15.1670000 2
20270 20269 20271 20272 1 180.0000771 15.1670000 2
20270 20269 20271 20273 1 180.0000771 15.1670000 2
20267 20271 20269 20270 4 180.0000771 4.6024000 2
20264 20271 20273 20274 4 180.0000771 4.6024000 2
20269 20271 20273 20274 1 180.0000771 15.1670000 2
20272 20271 20273 20274 1 180.0000771 15.1670000 2
20264 20273 20271 20269 1 180.0000771 15.1670000 2
20264 20273 20271 20272 1 180.0000771 15.1670000 2
20269 20273 20271 20272 4 180.0000771 4.6024000 2
20275 20276 20277 20278 1 180.0000771 15.1670000 2
20275 20276 20277 20279 1 180.0000771 15.1670000 2
20278 20276 20277 20279 4 180.0000771 4.6024000 2
20275 20276 20285 20277 4 180.0000771 4.6024000 2
20275 20276 20285 20283 1 180.0000771 15.1670000 2
20275 20276 20285 20286 1 180.0000771 15.1670000 2
20277 20276 20285 20283 1 180.0000771 15.1670000 2
20277 20276 20285 20286 1 180.0000771 15.1670000 2
20278 20277 20276 20285 1 180.0000771 15.1670000 2
20279 20277 20276 20285 1 180.0000771 15.1670000 2
20276 20277 20279 20280 1 180.0000771 15.1670000 2
20276 20277 20279 20281 1 180.0000771 15.1670000 2
20278 20277 20279 20280 1 180.0000771 15.1670000 2
20278 20277 20279 20281 1 180.0000771 15.1670000 2
20277 20279 20281 20282 1 180.0000771 15.1670000 2
20277 20279 20281 20283 1 180.0000771 15.1670000 2
20280 20279 20281 20282 1 180.0000771 15.1670000 2
20280 20279 20281 20283 1 180.0000771 15.1670000 2
20277 20281 20279 20280 4 180.0000771 4.6024000 2
20279 20281 20283 20284 1 180.0000771 15.1670000 2
20279 20281 20283 20285 1 180.0000771 15.1670000 2
20282 20281 20283 20284 1 180.0000771 15.1670000 2
20282 20281 20283 20285 1 180.0000771 15.1670000 2
20279 20283 20281 20282 4 180.0000771 4.6024000 2
20276 20283 20285 20286 4 180.0000771 4.6024000 2
20281 20283 20285 20286 1 180.0000771 15.1670000 2
20284 20283 20285 20286 1 180.0000771 15.1670000 2
20276 20285 20283 20281 1 180.0000771 15.1670000 2
20276 20285 20283 20284 1 180.0000771 15.1670000 2
20281 20285 20283 20284 4 180.0000771 4.6024000 2
20287 20288 20289 20290 1 180.0000771 15.1670000 2
20287 20288 20289 20291 1 180.0000771 15.1670000 2
20290 20288 20289 20291 4 180.0000771 4.6024000 2
20287 20288 20297 20289 4 180.0000771 4.6024000 2
20287 20288 20297 20295 1 180.0000771 15.1670000 2
20287 20288 20297 20298 1 180.0000771 15.1670000 2
20289 20288 20297 20295 1 180.0000771 15.1670000 2
20289 20288 20297 20298 1 180.0000771 15.1670000 2
20290 20289 20288 20297 1 180.0000771 15.1670000 2
20291 20289 20288 20297 1 180.0000771 15.1670000 2
20288 20289 20291 20292 1 180.0000771 15.1670000 2
20288 20289 20291 20293 1 180.0000771 15.1670000 2
20290 20289 20291 20292 1 180.0000771 15.1670000 2
20290 20289 20291 20293 1 180.0000771 15.1670000 2
20289 20291 20293 20294 1 180.0000771 15.1670000 2
20289 20291 20293 20295 1 180.0000771 15.1670000 2
20292 20291 20293 20294 1 180.0000771 15.1670000 2
20292 20291 20293 20295 1 180.0000771 15.1670000 2
20289 20293 20291 20292 4 180.0000771 4.6024000 2
20291 20293 20295 20296 1 180.0000771 15.1670000 2
20291 20293 20295 20297 1 180.0000771 15.1670000 2
20294 20293 20295 20296 1 180.0000771 15.1670000 2
20294 20293 20295 20297 1 180.0000771 15.1670000 2
20291 20295 20293 20294 4 180.0000771 4.6024000 2
20288 20295 20297 20298 4 180.0000771 4.6024000 2
20293 20295 20297 20298 1 180.0000771 15.1670000 2
20296 20295 20297 20298 1 180.0000771 15.1670000 2
20288 20297 20295 20293 1 180.0000771 15.1670000 2
20288 20297 20295 20296 1 180.0000771 15.1670000 2
20293 20297 20295 20296 4 180.0000771 4.6024000 2
20299 20300 20301 20302 1 180.0000771 15.1670000 2
20299 20300 20301 20303 1 180.0000771 15.1670000 2
20302 20300 20301 20303 4 180.0000771 4.6024000 2
20299 20300 20309 20301 4 180.0000771 4.6024000 2
20299 20300 20309 20307 1 180.0000771 15.1670000 2
20299 20300 20309 20310 1 180.0000771 15.1670000 2
20301 20300 20309 20307 1 180.0000771 15.1670000 2
20301 20300 20309 20310 1 180.0000771 15.1670000 2
20302 20301 20300 20309 1 180.0000771 15.1670000 2
20303 20301 20300 20309 1 180.0000771 15.1670000 2
20300 20301 20303 20304 1 180.0000771 15.1670000 2
20300 20301 20303 20305 1 180.0000771 15.1670000 2
20302 20301 20303 20304 1 180.0000771 15.1670000 2
20302 20301 20303 20305 1 180.0000771 15.1670000 2
20301 20303 20305 20306 1 180.0000771 15.1670000 2
20301 20303 20305 20307 1 180.0000771 15.1670000 2
20304 20303 20305 20306 1 180.0000771 15.1670000 2
20304 20303 20305 20307 1 180.0000771 15.1670000 2
20301 20305 20303 20304 4 180.0000771 4.6024000 2
20303 20305 20307 20308 1 180.0000771 15.1670000 2
20303 20305 20307 20309 1 180.0000771 15.1670000 2
20306 20305 20307 20308 1 180.0000771 15.1670000 2
20306 20305 20307 20309 1 180.0000771 15.1670000 2
20303 20307 20305 20306 4 180.0000771 4.6024000 2
20300 20307 20309 20310 4 180.0000771 4.6024000 2
20305 20307 20309 20310 1 180.0000771 15.1670000 2
20308 20307 20309 20310 1 180.0000771 15.1670000 2
20300 20309 20307 20305 1 180.0000771 15.1670000 2
20300 20309 20307 20308 1 180.0000771 15.1670000 2
20305 20309 20307 20308 4 180.0000771 4.6024000 2
20311 20312 20313 20314 1 180.0000771 15.1670000 2
20311 20312 20313 20315 1 180.0000771 15.1670000 2
20314 20312 20313 20315 4 180.0000771 4.6024000 2
20311 20312 20321 20313 4 180.0000771 4.6024000 2
20311 20312 20321 20319 1 180.0000771 15.1670000 2
20311 20312 20321 20322 1 180.0000771 15.1670000 2
20313 20312 20321 20319 1 180.0000771 15.1670000 2
20313 20312 20321 20322 1 180.0000771 15.1670000 2
20314 20313 20312 20321 1 180.0000771 15.1670000 2
20315 20313 20312 20321 1 180.0000771 15.1670000 2
20312 20313 20315 20316 1 180.0000771 15.1670000 2
20312 20313 20315 20317 1 180.0000771 15.1670000 2
20314 20313 20315 20316 1 180.0000771 15.1670000 2
20314 20313 20315 20317 1 180.0000771 15.1670000 2
20313 20315 20317 20318 1 180.0000771 15.1670000 2
20313 20315 20317 20319 1 180.0000771 15.1670000 2
20316 20315 20317 20318 1 180.0000771 15.1670000 2
20316 20315 20317 20319 1 180.0000771 15.1670000 2
20313 20317 20315 20316 4 180.0000771 4.6024000 2
20315 20317 20319 20320 1 180.0000771 15.1670000 2
20315 20317 20319 20321 1 180.0000771 15.1670000 2
20318 20317 20319 20320 1 180.0000771 15.1670000 2
20318 20317 20319 20321 1 180.0000771 15.1670000 2
20315 20319 20317 20318 4 180.0000771 4.6024000 2
20312 20319 20321 20322 4 180.0000771 4.6024000 2
20317 20319 20321 20322 1 180.0000771 15.1670000 2
20320 20319 20321 20322 1 180.0000771 15.1670000 2
20312 20321 20319 20317 1 180.0000771 15.1670000 2
20312 20321 20319 20320 1 180.0000771 15.1670000 2
20317 20321 20319 20320 4 180.0000771 4.6024000 2
20323 20324 20325 20326 1 180.0000771 15.1670000 2
20323 20324 20325 20327 1 180.0000771 15.1670000 2
20326 20324 20325 20327 4 180.0000771 4.6024000 2
20323 20324 20333 20325 4 180.0000771 4.6024000 2
20323 20324 20333 20331 1 180.0000771 15.1670000 2
20323 20324 20333 20334 1 180.0000771 15.1670000 2
20325 20324 20333 20331 1 180.0000771 15.1670000 2
20325 20324 20333 20334 1 180.0000771 15.1670000 2
20326 20325 20324 20333 1 180.0000771 15.1670000 2
20327 20325 20324 20333 1 180.0000771 15.1670000 2
20324 20325 20327 20328 1 180.0000771 15.1670000 2
20324 20325 20327 20329 1 180.0000771 15.1670000 2
20326 20325 20327 20328 1 180.0000771 15.1670000 2
20326 20325 20327 20329 1 180.0000771 15.1670000 2
20325 20327 20329 20330 1 180.0000771 15.1670000 2
20325 20327 20329 20331 1 180.0000771 15.1670000 2
20328 20327 20329 20330 1 180.0000771 15.1670000 2
20328 20327 20329 20331 1 180.0000771 15.1670000 2
20325 20329 20327 20328 4 180.0000771 4.6024000 2
20327 20329 20331 20332 1 180.0000771 15.1670000 2
20327 20329 20331 20333 1 180.0000771 15.1670000 2
20330 20329 20331 20332 1 180.0000771 15.1670000 2
20330 20329 20331 20333 1 180.0000771 15.1670000 2
20327 20331 20329 20330 4 180.0000771 4.6024000 2
20324 20331 20333 20334 4 180.0000771 4.6024000 2
20329 20331 20333 20334 1 180.0000771 15.1670000 2
20332 20331 20333 20334 1 180.0000771 15.1670000 2
20324 20333 20331 20329 1 180.0000771 15.1670000 2
20324 20333 20331 20332 1 180.0000771 15.1670000 2
20329 20333 20331 20332 4 180.0000771 4.6024000 2
20335 20336 20337 20338 1 180.0000771 15.1670000 2
20335 20336 20337 20339 1 180.0000771 15.1670000 2
20338 20336 20337 20339 4 180.0000771 4.6024000 2
20335 20336 20345 20337 4 180.0000771 4.6024000 2
20335 20336 20345 20343 1 180.0000771 15.1670000 2
20335 20336 20345 20346 1 180.0000771 15.1670000 2
20337 20336 20345 20343 1 180.0000771 15.1670000 2
20337 20336 20345 20346 1 180.0000771 15.1670000 2
20338 20337 20336 20345 1 180.0000771 15.1670000 2
20339 20337 20336 20345 1 180.0000771 15.1670000 2
20336 20337 20339 20340 1 180.0000771 15.1670000 2
20336 20337 20339 20341 1 180.0000771 15.1670000 2
20338 20337 20339 20340 1 180.0000771 15.1670000 2
20338 20337 20339 20341 1 180.0000771 15.1670000 2
20337 20339 20341 20342 1 180.0000771 15.1670000 2
20337 20339 20341 20343 1 180.0000771 15.1670000 2
20340 20339 20341 20342 1 180.0000771 15.1670000 2
20340 20339 20341 20343 1 180.0000771 15.1670000 2
20337 20341 20339 20340 4 180.0000771 4.6024000 2
20339 20341 20343 20344 1 180.0000771 15.1670000 2
20339 20341 20343 20345 1 180.0000771 15.1670000 2
20342 20341 20343 20344 1 180.0000771 15.1670000 2
20342 20341 20343 20345 1 180.0000771 15.1670000 2
20339 20343 20341 20342 4 180.0000771 4.6024000 2
20336 20343 20345 20346 4 180.0000771 4.6024000 2
20341 20343 20345 20346 1 180.0000771 15.1670000 2
20344 20343 20345 20346 1 180.0000771 15.1670000 2
20336 20345 20343 20341 1 180.0000771 15.1670000 2
20336 20345 20343 20344 1 180.0000771 15.1670000 2
20341 20345 20343 20344 4 180.0000771 4.6024000 2
20347 20348 20349 20350 1 180.0000771 15.1670000 2
20347 20348 20349 20351 1 180.0000771 15.1670000 2
20350 20348 20349 20351 4 180.0000771 4.6024000 2
20347 20348 20357 20349 4 180.0000771 4.6024000 2
20347 20348 20357 20355 1 180.0000771 15.1670000 2
20347 20348 20357 20358 1 180.0000771 15.1670000 2
20349 20348 20357 20355 1 180.0000771 15.1670000 2
20349 20348 20357 20358 1 180.0000771 15.1670000 2
20350 20349 20348 20357 1 180.0000771 15.1670000 2
20351 20349 20348 20357 1 180.0000771 15.1670000 2
20348 20349 20351 20352 1 180.0000771 15.1670000 2
20348 20349 20351 20353 1 180.0000771 15.1670000 2
20350 20349 20351 20352 1 180.0000771 15.1670000 2
20350 20349 20351 20353 1 180.0000771 15.1670000 2
20349 20351 20353 20354 1 180.0000771 15.1670000 2
20349 20351 20353 20355 1 180.0000771 15.1670000 2
20352 20351 20353 20354 1 180.0000771 15.1670000 2
20352 20351 20353 20355 1 180.0000771 15.1670000 2
20349 20353 20351 20352 4 180.0000771 4.6024000 2
20351 20353 20355 20356 1 180.0000771 15.1670000 2
20351 20353 20355 20357 1 180.0000771 15.1670000 2
20354 20353 20355 20356 1 180.0000771 15.1670000 2
20354 20353 20355 20357 1 180.0000771 15.1670000 2
20351 20355 20353 20354 4 180.0000771 4.6024000 2
20348 20355 20357 20358 4 180.0000771 4.6024000 2
20353 20355 20357 20358 1 180.0000771 15.1670000 2
20356 20355 20357 20358 1 180.0000771 15.1670000 2
20348 20357 20355 20353 1 180.0000771 15.1670000 2
20348 20357 20355 20356 1 180.0000771 15.1670000 2
20353 20357 20355 20356 4 180.0000771 4.6024000 2
20359 20360 20361 20362 1 180.0000771 15.1670000 2
20359 20360 20361 20363 1 180.0000771 15.1670000 2
20362 20360 20361 20363 4 180.0000771 4.6024000 2
20359 20360 20369 20361 4 180.0000771 4.6024000 2
20359 20360 20369 20367 1 180.0000771 15.1670000 2
20359 20360 20369 20370 1 180.0000771 15.1670000 2
20361 20360 20369 20367 1 180.0000771 15.1670000 2
20361 20360 20369 20370 1 180.0000771 15.1670000 2
20362 20361 20360 20369 1 180.0000771 15.1670000 2
20363 20361 20360 20369 1 180.0000771 15.1670000 2
20360 20361 20363 20364 1 180.0000771 15.1670000 2
20360 20361 20363 20365 1 180.0000771 15.1670000 2
20362 20361 20363 20364 1 180.0000771 15.1670000 2
20362 20361 20363 20365 1 180.0000771 15.1670000 2
20361 20363 20365 20366 1 180.0000771 15.1670000 2
20361 20363 20365 20367 1 180.0000771 15.1670000 2
20364 20363 20365 20366 1 180.0000771 15.1670000 2
20364 20363 20365 20367 1 180.0000771 15.1670000 2
20361 20365 20363 20364 4 180.0000771 4.6024000 2
20363 20365 20367 20368 1 180.0000771 15.1670000 2
20363 20365 20367 20369 1 180.0000771 15.1670000 2
20366 20365 20367 20368 1 180.0000771 15.1670000 2
20366 20365 20367 20369 1 180.0000771 15.1670000 2
20363 20367 20365 20366 4 180.0000771 4.6024000 2
20360 20367 20369 20370 4 180.0000771 4.6024000 2
20365 20367 20369 20370 1 180.0000771 15.1670000 2
20368 20367 20369 20370 1 180.0000771 15.1670000 2
20360 20369 20367 20365 1 180.0000771 15.1670000 2
20360 20369 20367 20368 1 180.0000771 15.1670000 2
20365 20369 20367 20368 4 180.0000771 4.6024000 2
20371 20372 20373 20374 1 180.0000771 15.1670000 2
20371 20372 20373 20375 1 180.0000771 15.1670000 2
20374 20372 20373 20375 4 180.0000771 4.6024000 2
20371 20372 20381 20373 4 180.0000771 4.6024000 2
20371 20372 20381 20379 1 180.0000771 15.1670000 2
20371 20372 20381 20382 1 180.0000771 15.1670000 2
20373 20372 20381 20379 1 180.0000771 15.1670000 2
20373 20372 20381 20382 1 180.0000771 15.1670000 2
20374 20373 20372 20381 1 180.0000771 15.1670000 2
20375 20373 20372 20381 1 180.0000771 15.1670000 2
20372 20373 20375 20376 1 180.0000771 15.1670000 2
20372 20373 20375 20377 1 180.0000771 15.1670000 2
20374 20373 20375 20376 1 180.0000771 15.1670000 2
20374 20373 20375 20377 1 180.0000771 15.1670000 2
20373 20375 20377 20378 1 180.0000771 15.1670000 2
20373 20375 20377 20379 1 180.0000771 15.1670000 2
20376 20375 20377 20378 1 180.0000771 15.1670000 2
20376 20375 20377 20379 1 180.0000771 15.1670000 2
20373 20377 20375 20376 4 180.0000771 4.6024000 2
20375 20377 20379 20380 1 180.0000771 15.1670000 2
20375 20377 20379 20381 1 180.0000771 15.1670000 2
20378 20377 20379 20380 1 180.0000771 15.1670000 2
20378 20377 20379 20381 1 180.0000771 15.1670000 2
20375 20379 20377 20378 4 180.0000771 4.6024000 2
20372 20379 20381 20382 4 180.0000771 4.6024000 2
20377 20379 20381 20382 1 180.0000771 15.1670000 2
20380 20379 20381 20382 1 180.0000771 15.1670000 2
20372 20381 20379 20377 1 180.0000771 15.1670000 2
20372 20381 20379 20380 1 180.0000771 15.1670000 2
20377 20381 20379 20380 4 180.0000771 4.6024000 2
20383 20384 20385 20386 1 180.0000771 15.1670000 2
20383 20384 20385 20387 1 180.0000771 15.1670000 2
20386 20384 20385 20387 4 180.0000771 4.6024000 2
20383 20384 20393 20385 4 180.0000771 4.6024000 2
20383 20384 20393 20391 1 180.0000771 15.1670000 2
20383 20384 20393 20394 1 180.0000771 15.1670000 2
20385 20384 20393 20391 1 180.0000771 15.1670000 2
20385 20384 20393 20394 1 180.0000771 15.1670000 2
20386 20385 20384 20393 1 180.0000771 15.1670000 2
20387 20385 20384 20393 1 180.0000771 15.1670000 2
20384 20385 20387 20388 1 180.0000771 15.1670000 2
20384 20385 20387 20389 1 180.0000771 15.1670000 2
20386 20385 20387 20388 1 180.0000771 15.1670000 2
20386 20385 20387 20389 1 180.0000771 15.1670000 2
20385 20387 20389 20390 1 180.0000771 15.1670000 2
20385 20387 20389 20391 1 180.0000771 15.1670000 2
20388 20387 20389 20390 1 180.0000771 15.1670000 2
20388 20387 20389 20391 1 180.0000771 15.1670000 2
20385 20389 20387 20388 4 180.0000771 4.6024000 2
20387 20389 20391 20392 1 180.0000771 15.1670000 2
20387 20389 20391 20393 1 180.0000771 15.1670000 2
20390 20389 20391 20392 1 180.0000771 15.1670000 2
20390 20389 20391 20393 1 180.0000771 15.1670000 2
20387 20391 20389 20390 4 180.0000771 4.6024000 2
20384 20391 20393 20394 4 180.0000771 4.6024000 2
20389 20391 20393 20394 1 180.0000771 15.1670000 2
20392 20391 20393 20394 1 180.0000771 15.1670000 2
20384 20393 20391 20389 1 180.0000771 15.1670000 2
20384 20393 20391 20392 1 180.0000771 15.1670000 2
20389 20393 20391 20392 4 180.0000771 4.6024000 2
20395 20396 20397 20398 1 180.0000771 15.1670000 2
20395 20396 20397 20399 1 180.0000771 15.1670000 2
20398 20396 20397 20399 4 180.0000771 4.6024000 2
20395 20396 20405 20397 4 180.0000771 4.6024000 2
20395 20396 20405 20403 1 180.0000771 15.1670000 2
20395 20396 20405 20406 1 180.0000771 15.1670000 2
20397 20396 20405 20403 1 180.0000771 15.1670000 2
20397 20396 20405 20406 1 180.0000771 15.1670000 2
20398 20397 20396 20405 1 180.0000771 15.1670000 2
20399 20397 20396 20405 1 180.0000771 15.1670000 2
20396 20397 20399 20400 1 180.0000771 15.1670000 2
20396 20397 20399 20401 1 180.0000771 15.1670000 2
20398 20397 20399 20400 1 180.0000771 15.1670000 2
20398 20397 20399 20401 1 180.0000771 15.1670000 2
20397 20399 20401 20402 1 180.0000771 15.1670000 2
20397 20399 20401 20403 1 180.0000771 15.1670000 2
20400 20399 20401 20402 1 180.0000771 15.1670000 2
20400 20399 20401 20403 1 180.0000771 15.1670000 2
20397 20401 20399 20400 4 180.0000771 4.6024000 2
20399 20401 20403 20404 1 180.0000771 15.1670000 2
20399 20401 20403 20405 1 180.0000771 15.1670000 2
20402 20401 20403 20404 1 180.0000771 15.1670000 2
20402 20401 20403 20405 1 180.0000771 15.1670000 2
20399 20403 20401 20402 4 180.0000771 4.6024000 2
20396 20403 20405 20406 4 180.0000771 4.6024000 2
20401 20403 20405 20406 1 180.0000771 15.1670000 2
20404 20403 20405 20406 1 180.0000771 15.1670000 2
20396 20405 20403 20401 1 180.0000771 15.1670000 2
20396 20405 20403 20404 1 180.0000771 15.1670000 2
20401 20405 20403 20404 4 180.0000771 4.6024000 2
20407 20408 20409 20410 1 180.0000771 15.1670000 2
20407 20408 20409 20411 1 180.0000771 15.1670000 2
20410 20408 20409 20411 4 180.0000771 4.6024000 2
20407 20408 20417 20409 4 180.0000771 4.6024000 2
20407 20408 20417 20415 1 180.0000771 15.1670000 2
20407 20408 20417 20418 1 180.0000771 15.1670000 2
20409 20408 20417 20415 1 180.0000771 15.1670000 2
20409 20408 20417 20418 1 180.0000771 15.1670000 2
20410 20409 20408 20417 1 180.0000771 15.1670000 2
20411 20409 20408 20417 1 180.0000771 15.1670000 2
20408 20409 20411 20412 1 180.0000771 15.1670000 2
20408 20409 20411 20413 1 180.0000771 15.1670000 2
20410 20409 20411 20412 1 180.0000771 15.1670000 2
20410 20409 20411 20413 1 180.0000771 15.1670000 2
20409 20411 20413 20414 1 180.0000771 15.1670000 2
20409 20411 20413 20415 1 180.0000771 15.1670000 2
20412 20411 20413 20414 1 180.0000771 15.1670000 2
20412 20411 20413 20415 1 180.0000771 15.1670000 2
20409 20413 20411 20412 4 180.0000771 4.6024000 2
20411 20413 20415 20416 1 180.0000771 15.1670000 2
20411 20413 20415 20417 1 180.0000771 15.1670000 2
20414 20413 20415 20416 1 180.0000771 15.1670000 2
20414 20413 20415 20417 1 180.0000771 15.1670000 2
20411 20415 20413 20414 4 180.0000771 4.6024000 2
20408 20415 20417 20418 4 180.0000771 4.6024000 2
20413 20415 20417 20418 1 180.0000771 15.1670000 2
20416 20415 20417 20418 1 180.0000771 15.1670000 2
20408 20417 20415 20413 1 180.0000771 15.1670000 2
20408 20417 20415 20416 1 180.0000771 15.1670000 2
20413 20417 20415 20416 4 180.0000771 4.6024000 2
20419 20420 20421 20422 1 180.0000771 15.1670000 2
20419 20420 20421 20423 1 180.0000771 15.1670000 2
20422 20420 20421 20423 4 180.0000771 4.6024000 2
20419 20420 20429 20421 4 180.0000771 4.6024000 2
20419 20420 20429 20427 1 180.0000771 15.1670000 2
20419 20420 20429 20430 1 180.0000771 15.1670000 2
20421 20420 20429 20427 1 180.0000771 15.1670000 2
20421 20420 20429 20430 1 180.0000771 15.1670000 2
20422 20421 20420 20429 1 180.0000771 15.1670000 2
20423 20421 20420 20429 1 180.0000771 15.1670000 2
20420 20421 20423 20424 1 180.0000771 15.1670000 2
20420 20421 20423 20425 1 180.0000771 15.1670000 2
20422 20421 20423 20424 1 180.0000771 15.1670000 2
20422 20421 20423 20425 1 180.0000771 15.1670000 2
20421 20423 20425 20426 1 180.0000771 15.1670000 2
20421 20423 20425 20427 1 180.0000771 15.1670000 2
20424 20423 20425 20426 1 180.0000771 15.1670000 2
20424 20423 20425 20427 1 180.0000771 15.1670000 2
20421 20425 20423 20424 4 180.0000771 4.6024000 2
20423 20425 20427 20428 1 180.0000771 15.1670000 2
20423 20425 20427 20429 1 180.0000771 15.1670000 2
20426 20425 20427 20428 1 180.0000771 15.1670000 2
20426 20425 20427 20429 1 180.0000771 15.1670000 2
20423 20427 20425 20426 4 180.0000771 4.6024000 2
20420 20427 20429 20430 4 180.0000771 4.6024000 2
20425 20427 20429 20430 1 180.0000771 15.1670000 2
20428 20427 20429 20430 1 180.0000771 15.1670000 2
20420 20429 20427 20425 1 180.0000771 15.1670000 2
20420 20429 20427 20428 1 180.0000771 15.1670000 2
20425 20429 20427 20428 4 180.0000771 4.6024000 2
20431 20432 20433 20434 1 180.0000771 15.1670000 2
20431 20432 20433 20435 1 180.0000771 15.1670000 2
20434 20432 20433 20435 4 180.0000771 4.6024000 2
20431 20432 20441 20433 4 180.0000771 4.6024000 2
20431 20432 20441 20439 1 180.0000771 15.1670000 2
20431 20432 20441 20442 1 180.0000771 15.1670000 2
20433 20432 20441 20439 1 180.0000771 15.1670000 2
20433 20432 20441 20442 1 180.0000771 15.1670000 2
20434 20433 20432 20441 1 180.0000771 15.1670000 2
20435 20433 20432 20441 1 180.0000771 15.1670000 2
20432 20433 20435 20436 1 180.0000771 15.1670000 2
20432 20433 20435 20437 1 180.0000771 15.1670000 2
20434 20433 20435 20436 1 180.0000771 15.1670000 2
20434 20433 20435 20437 1 180.0000771 15.1670000 2
20433 20435 20437 20438 1 180.0000771 15.1670000 2
20433 20435 20437 20439 1 180.0000771 15.1670000 2
20436 20435 20437 20438 1 180.0000771 15.1670000 2
20436 20435 20437 20439 1 180.0000771 15.1670000 2
20433 20437 20435 20436 4 180.0000771 4.6024000 2
20435 20437 20439 20440 1 180.0000771 15.1670000 2
20435 20437 20439 20441 1 180.0000771 15.1670000 2
20438 20437 20439 20440 1 180.0000771 15.1670000 2
20438 20437 20439 20441 1 180.0000771 15.1670000 2
20435 20439 20437 20438 4 180.0000771 4.6024000 2
20432 20439 20441 20442 4 180.0000771 4.6024000 2
20437 20439 20441 20442 1 180.0000771 15.1670000 2
20440 20439 20441 20442 1 180.0000771 15.1670000 2
20432 20441 20439 20437 1 180.0000771 15.1670000 2
20432 20441 20439 20440 1 180.0000771 15.1670000 2
20437 20441 20439 20440 4 180.0000771 4.6024000 2
20443 20444 20445 20446 1 180.0000771 15.1670000 2
20443 20444 20445 20447 1 180.0000771 15.1670000 2
20446 20444 20445 20447 4 180.0000771 4.6024000 2
20443 20444 20453 20445 4 180.0000771 4.6024000 2
20443 20444 20453 20451 1 180.0000771 15.1670000 2
20443 20444 20453 20454 1 180.0000771 15.1670000 2
20445 20444 20453 20451 1 180.0000771 15.1670000 2
20445 20444 20453 20454 1 180.0000771 15.1670000 2
20446 20445 20444 20453 1 180.0000771 15.1670000 2
20447 20445 20444 20453 1 180.0000771 15.1670000 2
20444 20445 20447 20448 1 180.0000771 15.1670000 2
20444 20445 20447 20449 1 180.0000771 15.1670000 2
20446 20445 20447 20448 1 180.0000771 15.1670000 2
20446 20445 20447 20449 1 180.0000771 15.1670000 2
20445 20447 20449 20450 1 180.0000771 15.1670000 2
20445 20447 20449 20451 1 180.0000771 15.1670000 2
20448 20447 20449 20450 1 180.0000771 15.1670000 2
20448 20447 20449 20451 1 180.0000771 15.1670000 2
20445 20449 20447 20448 4 180.0000771 4.6024000 2
20447 20449 20451 20452 1 180.0000771 15.1670000 2
20447 20449 20451 20453 1 180.0000771 15.1670000 2
20450 20449 20451 20452 1 180.0000771 15.1670000 2
20450 20449 20451 20453 1 180.0000771 15.1670000 2
20447 20451 20449 20450 4 180.0000771 4.6024000 2
20444 20451 20453 20454 4 180.0000771 4.6024000 2
20449 20451 20453 20454 1 180.0000771 15.1670000 2
20452 20451 20453 20454 1 180.0000771 15.1670000 2
20444 20453 20451 20449 1 180.0000771 15.1670000 2
20444 20453 20451 20452 1 180.0000771 15.1670000 2
20449 20453 20451 20452 4 180.0000771 4.6024000 2
20455 20456 20457 20458 1 180.0000771 15.1670000 2
20455 20456 20457 20459 1 180.0000771 15.1670000 2
20458 20456 20457 20459 4 180.0000771 4.6024000 2
20455 20456 20465 20457 4 180.0000771 4.6024000 2
20455 20456 20465 20463 1 180.0000771 15.1670000 2
20455 20456 20465 20466 1 180.0000771 15.1670000 2
20457 20456 20465 20463 1 180.0000771 15.1670000 2
20457 20456 20465 20466 1 180.0000771 15.1670000 2
20458 20457 20456 20465 1 180.0000771 15.1670000 2
20459 20457 20456 20465 1 180.0000771 15.1670000 2
20456 20457 20459 20460 1 180.0000771 15.1670000 2
20456 20457 20459 20461 1 180.0000771 15.1670000 2
20458 20457 20459 20460 1 180.0000771 15.1670000 2
20458 20457 20459 20461 1 180.0000771 15.1670000 2
20457 20459 20461 20462 1 180.0000771 15.1670000 2
20457 20459 20461 20463 1 180.0000771 15.1670000 2
20460 20459 20461 20462 1 180.0000771 15.1670000 2
20460 20459 20461 20463 1 180.0000771 15.1670000 2
20457 20461 20459 20460 4 180.0000771 4.6024000 2
20459 20461 20463 20464 1 180.0000771 15.1670000 2
20459 20461 20463 20465 1 180.0000771 15.1670000 2
20462 20461 20463 20464 1 180.0000771 15.1670000 2
20462 20461 20463 20465 1 180.0000771 15.1670000 2
20459 20463 20461 20462 4 180.0000771 4.6024000 2
20456 20463 20465 20466 4 180.0000771 4.6024000 2
20461 20463 20465 20466 1 180.0000771 15.1670000 2
20464 20463 20465 20466 1 180.0000771 15.1670000 2
20456 20465 20463 20461 1 180.0000771 15.1670000 2
20456 20465 20463 20464 1 180.0000771 15.1670000 2
20461 20465 20463 20464 4 180.0000771 4.6024000 2
20467 20468 20469 20470 1 180.0000771 15.1670000 2
20467 20468 20469 20471 1 180.0000771 15.1670000 2
20470 20468 20469 20471 4 180.0000771 4.6024000 2
20467 20468 20477 20469 4 180.0000771 4.6024000 2
20467 20468 20477 20475 1 180.0000771 15.1670000 2
20467 20468 20477 20478 1 180.0000771 15.1670000 2
20469 20468 20477 20475 1 180.0000771 15.1670000 2
20469 20468 20477 20478 1 180.0000771 15.1670000 2
20470 20469 20468 20477 1 180.0000771 15.1670000 2
20471 20469 20468 20477 1 180.0000771 15.1670000 2
20468 20469 20471 20472 1 180.0000771 15.1670000 2
20468 20469 20471 20473 1 180.0000771 15.1670000 2
20470 20469 20471 20472 1 180.0000771 15.1670000 2
20470 20469 20471 20473 1 180.0000771 15.1670000 2
20469 20471 20473 20474 1 180.0000771 15.1670000 2
20469 20471 20473 20475 1 180.0000771 15.1670000 2
20472 20471 20473 20474 1 180.0000771 15.1670000 2
20472 20471 20473 20475 1 180.0000771 15.1670000 2
20469 20473 20471 20472 4 180.0000771 4.6024000 2
20471 20473 20475 20476 1 180.0000771 15.1670000 2
20471 20473 20475 20477 1 180.0000771 15.1670000 2
20474 20473 20475 20476 1 180.0000771 15.1670000 2
20474 20473 20475 20477 1 180.0000771 15.1670000 2
20471 20475 20473 20474 4 180.0000771 4.6024000 2
20468 20475 20477 20478 4 180.0000771 4.6024000 2
20473 20475 20477 20478 1 180.0000771 15.1670000 2
20476 20475 20477 20478 1 180.0000771 15.1670000 2
20468 20477 20475 20473 1 180.0000771 15.1670000 2
20468 20477 20475 20476 1 180.0000771 15.1670000 2
20473 20477 20475 20476 4 180.0000771 4.6024000 2
20479 20480 20481 20482 1 180.0000771 15.1670000 2
20479 20480 20481 20483 1 180.0000771 15.1670000 2
20482 20480 20481 20483 4 180.0000771 4.6024000 2
20479 20480 20489 20481 4 180.0000771 4.6024000 2
20479 20480 20489 20487 1 180.0000771 15.1670000 2
20479 20480 20489 20490 1 180.0000771 15.1670000 2
20481 20480 20489 20487 1 180.0000771 15.1670000 2
20481 20480 20489 20490 1 180.0000771 15.1670000 2
20482 20481 20480 20489 1 180.0000771 15.1670000 2
20483 20481 20480 20489 1 180.0000771 15.1670000 2
20480 20481 20483 20484 1 180.0000771 15.1670000 2
20480 20481 20483 20485 1 180.0000771 15.1670000 2
20482 20481 20483 20484 1 180.0000771 15.1670000 2
20482 20481 20483 20485 1 180.0000771 15.1670000 2
20481 20483 20485 20486 1 180.0000771 15.1670000 2
20481 20483 20485 20487 1 180.0000771 15.1670000 2
20484 20483 20485 20486 1 180.0000771 15.1670000 2
20484 20483 20485 20487 1 180.0000771 15.1670000 2
20481 20485 20483 20484 4 180.0000771 4.6024000 2
20483 20485 20487 20488 1 180.0000771 15.1670000 2
20483 20485 20487 20489 1 180.0000771 15.1670000 2
20486 20485 20487 20488 1 180.0000771 15.1670000 2
20486 20485 20487 20489 1 180.0000771 15.1670000 2
20483 20487 20485 20486 4 180.0000771 4.6024000 2
20480 20487 20489 20490 4 180.0000771 4.6024000 2
20485 20487 20489 20490 1 180.0000771 15.1670000 2
20488 20487 20489 20490 1 180.0000771 15.1670000 2
20480 20489 20487 20485 1 180.0000771 15.1670000 2
20480 20489 20487 20488 1 180.0000771 15.1670000 2
20485 20489 20487 20488 4 180.0000771 4.6024000 2
20491 20492 20493 20494 1 180.0000771 15.1670000 2
20491 20492 20493 20495 1 180.0000771 15.1670000 2
20494 20492 20493 20495 4 180.0000771 4.6024000 2
20491 20492 20501 20493 4 180.0000771 4.6024000 2
20491 20492 20501 20499 1 180.0000771 15.1670000 2
20491 20492 20501 20502 1 180.0000771 15.1670000 2
20493 20492 20501 20499 1 180.0000771 15.1670000 2
20493 20492 20501 20502 1 180.0000771 15.1670000 2
20494 20493 20492 20501 1 180.0000771 15.1670000 2
20495 20493 20492 20501 1 180.0000771 15.1670000 2
20492 20493 20495 20496 1 180.0000771 15.1670000 2
20492 20493 20495 20497 1 180.0000771 15.1670000 2
20494 20493 20495 20496 1 180.0000771 15.1670000 2
20494 20493 20495 20497 1 180.0000771 15.1670000 2
20493 20495 20497 20498 1 180.0000771 15.1670000 2
20493 20495 20497 20499 1 180.0000771 15.1670000 2
20496 20495 20497 20498 1 180.0000771 15.1670000 2
20496 20495 20497 20499 1 180.0000771 15.1670000 2
20493 20497 20495 20496 4 180.0000771 4.6024000 2
20495 20497 20499 20500 1 180.0000771 15.1670000 2
20495 20497 20499 20501 1 180.0000771 15.1670000 2
20498 20497 20499 20500 1 180.0000771 15.1670000 2
20498 20497 20499 20501 1 180.0000771 15.1670000 2
20495 20499 20497 20498 4 180.0000771 4.6024000 2
20492 20499 20501 20502 4 180.0000771 4.6024000 2
20497 20499 20501 20502 1 180.0000771 15.1670000 2
20500 20499 20501 20502 1 180.0000771 15.1670000 2
20492 20501 20499 20497 1 180.0000771 15.1670000 2
20492 20501 20499 20500 1 180.0000771 15.1670000 2
20497 20501 20499 20500 4 180.0000771 4.6024000 2
20503 20504 20505 20506 1 180.0000771 15.1670000 2
20503 20504 20505 20507 1 180.0000771 15.1670000 2
20506 20504 20505 20507 4 180.0000771 4.6024000 2
20503 20504 20513 20505 4 180.0000771 4.6024000 2
20503 20504 20513 20511 1 180.0000771 15.1670000 2
20503 20504 20513 20514 1 180.0000771 15.1670000 2
20505 20504 20513 20511 1 180.0000771 15.1670000 2
20505 20504 20513 20514 1 180.0000771 15.1670000 2
20506 20505 20504 20513 1 180.0000771 15.1670000 2
20507 20505 20504 20513 1 180.0000771 15.1670000 2
20504 20505 20507 20508 1 180.0000771 15.1670000 2
20504 20505 20507 20509 1 180.0000771 15.1670000 2
20506 20505 20507 20508 1 180.0000771 15.1670000 2
20506 20505 20507 20509 1 180.0000771 15.1670000 2
20505 20507 20509 20510 1 180.0000771 15.1670000 2
20505 20507 20509 20511 1 180.0000771 15.1670000 2
20508 20507 20509 20510 1 180.0000771 15.1670000 2
20508 20507 20509 20511 1 180.0000771 15.1670000 2
20505 20509 20507 20508 4 180.0000771 4.6024000 2
20507 20509 20511 20512 1 180.0000771 15.1670000 2
20507 20509 20511 20513 1 180.0000771 15.1670000 2
20510 20509 20511 20512 1 180.0000771 15.1670000 2
20510 20509 20511 20513 1 180.0000771 15.1670000 2
20507 20511 20509 20510 4 180.0000771 4.6024000 2
20504 20511 20513 20514 4 180.0000771 4.6024000 2
20509 20511 20513 20514 1 180.0000771 15.1670000 2
20512 20511 20513 20514 1 180.0000771 15.1670000 2
20504 20513 20511 20509 1 180.0000771 15.1670000 2
20504 20513 20511 20512 1 180.0000771 15.1670000 2
20509 20513 20511 20512 4 180.0000771 4.6024000 2
20515 20516 20517 20518 1 180.0000771 15.1670000 2
20515 20516 20517 20519 1 180.0000771 15.1670000 2
20518 20516 20517 20519 4 180.0000771 4.6024000 2
20515 20516 20525 20517 4 180.0000771 4.6024000 2
20515 20516 20525 20523 1 180.0000771 15.1670000 2
20515 20516 20525 20526 1 180.0000771 15.1670000 2
20517 20516 20525 20523 1 180.0000771 15.1670000 2
20517 20516 20525 20526 1 180.0000771 15.1670000 2
20518 20517 20516 20525 1 180.0000771 15.1670000 2
20519 20517 20516 20525 1 180.0000771 15.1670000 2
20516 20517 20519 20520 1 180.0000771 15.1670000 2
20516 20517 20519 20521 1 180.0000771 15.1670000 2
20518 20517 20519 20520 1 180.0000771 15.1670000 2
20518 20517 20519 20521 1 180.0000771 15.1670000 2
20517 20519 20521 20522 1 180.0000771 15.1670000 2
20517 20519 20521 20523 1 180.0000771 15.1670000 2
20520 20519 20521 20522 1 180.0000771 15.1670000 2
20520 20519 20521 20523 1 180.0000771 15.1670000 2
20517 20521 20519 20520 4 180.0000771 4.6024000 2
20519 20521 20523 20524 1 180.0000771 15.1670000 2
20519 20521 20523 20525 1 180.0000771 15.1670000 2
20522 20521 20523 20524 1 180.0000771 15.1670000 2
20522 20521 20523 20525 1 180.0000771 15.1670000 2
20519 20523 20521 20522 4 180.0000771 4.6024000 2
20516 20523 20525 20526 4 180.0000771 4.6024000 2
20521 20523 20525 20526 1 180.0000771 15.1670000 2
20524 20523 20525 20526 1 180.0000771 15.1670000 2
20516 20525 20523 20521 1 180.0000771 15.1670000 2
20516 20525 20523 20524 1 180.0000771 15.1670000 2
20521 20525 20523 20524 4 180.0000771 4.6024000 2
20527 20528 20529 20530 1 180.0000771 15.1670000 2
20527 20528 20529 20531 1 180.0000771 15.1670000 2
20530 20528 20529 20531 4 180.0000771 4.6024000 2
20527 20528 20537 20529 4 180.0000771 4.6024000 2
20527 20528 20537 20535 1 180.0000771 15.1670000 2
20527 20528 20537 20538 1 180.0000771 15.1670000 2
20529 20528 20537 20535 1 180.0000771 15.1670000 2
20529 20528 20537 20538 1 180.0000771 15.1670000 2
20530 20529 20528 20537 1 180.0000771 15.1670000 2
20531 20529 20528 20537 1 180.0000771 15.1670000 2
20528 20529 20531 20532 1 180.0000771 15.1670000 2
20528 20529 20531 20533 1 180.0000771 15.1670000 2
20530 20529 20531 20532 1 180.0000771 15.1670000 2
20530 20529 20531 20533 1 180.0000771 15.1670000 2
20529 20531 20533 20534 1 180.0000771 15.1670000 2
20529 20531 20533 20535 1 180.0000771 15.1670000 2
20532 20531 20533 20534 1 180.0000771 15.1670000 2
20532 20531 20533 20535 1 180.0000771 15.1670000 2
20529 20533 20531 20532 4 180.0000771 4.6024000 2
20531 20533 20535 20536 1 180.0000771 15.1670000 2
20531 20533 20535 20537 1 180.0000771 15.1670000 2
20534 20533 20535 20536 1 180.0000771 15.1670000 2
20534 20533 20535 20537 1 180.0000771 15.1670000 2
20531 20535 20533 20534 4 180.0000771 4.6024000 2
20528 20535 20537 20538 4 180.0000771 4.6024000 2
20533 20535 20537 20538 1 180.0000771 15.1670000 2
20536 20535 20537 20538 1 180.0000771 15.1670000 2
20528 20537 20535 20533 1 180.0000771 15.1670000 2
20528 20537 20535 20536 1 180.0000771 15.1670000 2
20533 20537 20535 20536 4 180.0000771 4.6024000 2
20539 20540 20541 20542 1 180.0000771 15.1670000 2
20539 20540 20541 20543 1 180.0000771 15.1670000 2
20542 20540 20541 20543 4 180.0000771 4.6024000 2
20539 20540 20549 20541 4 180.0000771 4.6024000 2
20539 20540 20549 20547 1 180.0000771 15.1670000 2
20539 20540 20549 20550 1 180.0000771 15.1670000 2
20541 20540 20549 20547 1 180.0000771 15.1670000 2
20541 20540 20549 20550 1 180.0000771 15.1670000 2
20542 20541 20540 20549 1 180.0000771 15.1670000 2
20543 20541 20540 20549 1 180.0000771 15.1670000 2
20540 20541 20543 20544 1 180.0000771 15.1670000 2
20540 20541 20543 20545 1 180.0000771 15.1670000 2
20542 20541 20543 20544 1 180.0000771 15.1670000 2
20542 20541 20543 20545 1 180.0000771 15.1670000 2
20541 20543 20545 20546 1 180.0000771 15.1670000 2
20541 20543 20545 20547 1 180.0000771 15.1670000 2
20544 20543 20545 20546 1 180.0000771 15.1670000 2
20544 20543 20545 20547 1 180.0000771 15.1670000 2
20541 20545 20543 20544 4 180.0000771 4.6024000 2
20543 20545 20547 20548 1 180.0000771 15.1670000 2
20543 20545 20547 20549 1 180.0000771 15.1670000 2
20546 20545 20547 20548 1 180.0000771 15.1670000 2
20546 20545 20547 20549 1 180.0000771 15.1670000 2
20543 20547 20545 20546 4 180.0000771 4.6024000 2
20540 20547 20549 20550 4 180.0000771 4.6024000 2
20545 20547 20549 20550 1 180.0000771 15.1670000 2
20548 20547 20549 20550 1 180.0000771 15.1670000 2
20540 20549 20547 20545 1 180.0000771 15.1670000 2
20540 20549 20547 20548 1 180.0000771 15.1670000 2
20545 20549 20547 20548 4 180.0000771 4.6024000 2
20551 20552 20553 20554 1 180.0000771 15.1670000 2
20551 20552 20553 20555 1 180.0000771 15.1670000 2
20554 20552 20553 20555 4 180.0000771 4.6024000 2
20551 20552 20561 20553 4 180.0000771 4.6024000 2
20551 20552 20561 20559 1 180.0000771 15.1670000 2
20551 20552 20561 20562 1 180.0000771 15.1670000 2
20553 20552 20561 20559 1 180.0000771 15.1670000 2
20553 20552 20561 20562 1 180.0000771 15.1670000 2
20554 20553 20552 20561 1 180.0000771 15.1670000 2
20555 20553 20552 20561 1 180.0000771 15.1670000 2
20552 20553 20555 20556 1 180.0000771 15.1670000 2
20552 20553 20555 20557 1 180.0000771 15.1670000 2
20554 20553 20555 20556 1 180.0000771 15.1670000 2
20554 20553 20555 20557 1 180.0000771 15.1670000 2
20553 20555 20557 20558 1 180.0000771 15.1670000 2
20553 20555 20557 20559 1 180.0000771 15.1670000 2
20556 20555 20557 20558 1 180.0000771 15.1670000 2
20556 20555 20557 20559 1 180.0000771 15.1670000 2
20553 20557 20555 20556 4 180.0000771 4.6024000 2
20555 20557 20559 20560 1 180.0000771 15.1670000 2
20555 20557 20559 20561 1 180.0000771 15.1670000 2
20558 20557 20559 20560 1 180.0000771 15.1670000 2
20558 20557 20559 20561 1 180.0000771 15.1670000 2
20555 20559 20557 20558 4 180.0000771 4.6024000 2
20552 20559 20561 20562 4 180.0000771 4.6024000 2
20557 20559 20561 20562 1 180.0000771 15.1670000 2
20560 20559 20561 20562 1 180.0000771 15.1670000 2
20552 20561 20559 20557 1 180.0000771 15.1670000 2
20552 20561 20559 20560 1 180.0000771 15.1670000 2
20557 20561 20559 20560 4 180.0000771 4.6024000 2
20563 20564 20565 20566 1 180.0000771 15.1670000 2
20563 20564 20565 20567 1 180.0000771 15.1670000 2
20566 20564 20565 20567 4 180.0000771 4.6024000 2
20563 20564 20573 20565 4 180.0000771 4.6024000 2
20563 20564 20573 20571 1 180.0000771 15.1670000 2
20563 20564 20573 20574 1 180.0000771 15.1670000 2
20565 20564 20573 20571 1 180.0000771 15.1670000 2
20565 20564 20573 20574 1 180.0000771 15.1670000 2
20566 20565 20564 20573 1 180.0000771 15.1670000 2
20567 20565 20564 20573 1 180.0000771 15.1670000 2
20564 20565 20567 20568 1 180.0000771 15.1670000 2
20564 20565 20567 20569 1 180.0000771 15.1670000 2
20566 20565 20567 20568 1 180.0000771 15.1670000 2
20566 20565 20567 20569 1 180.0000771 15.1670000 2
20565 20567 20569 20570 1 180.0000771 15.1670000 2
20565 20567 20569 20571 1 180.0000771 15.1670000 2
20568 20567 20569 20570 1 180.0000771 15.1670000 2
20568 20567 20569 20571 1 180.0000771 15.1670000 2
20565 20569 20567 20568 4 180.0000771 4.6024000 2
20567 20569 20571 20572 1 180.0000771 15.1670000 2
20567 20569 20571 20573 1 180.0000771 15.1670000 2
20570 20569 20571 20572 1 180.0000771 15.1670000 2
20570 20569 20571 20573 1 180.0000771 15.1670000 2
20567 20571 20569 20570 4 180.0000771 4.6024000 2
20564 20571 20573 20574 4 180.0000771 4.6024000 2
20569 20571 20573 20574 1 180.0000771 15.1670000 2
20572 20571 20573 20574 1 180.0000771 15.1670000 2
20564 20573 20571 20569 1 180.0000771 15.1670000 2
20564 20573 20571 20572 1 180.0000771 15.1670000 2
20569 20573 20571 20572 4 180.0000771 4.6024000 2
20575 20576 20577 20578 1 180.0000771 15.1670000 2
20575 20576 20577 20579 1 180.0000771 15.1670000 2
20578 20576 20577 20579 4 180.0000771 4.6024000 2
20575 20576 20585 20577 4 180.0000771 4.6024000 2
20575 20576 20585 20583 1 180.0000771 15.1670000 2
20575 20576 20585 20586 1 180.0000771 15.1670000 2
20577 20576 20585 20583 1 180.0000771 15.1670000 2
20577 20576 20585 20586 1 180.0000771 15.1670000 2
20578 20577 20576 20585 1 180.0000771 15.1670000 2
20579 20577 20576 20585 1 180.0000771 15.1670000 2
20576 20577 20579 20580 1 180.0000771 15.1670000 2
20576 20577 20579 20581 1 180.0000771 15.1670000 2
20578 20577 20579 20580 1 180.0000771 15.1670000 2
20578 20577 20579 20581 1 180.0000771 15.1670000 2
20577 20579 20581 20582 1 180.0000771 15.1670000 2
20577 20579 20581 20583 1 180.0000771 15.1670000 2
20580 20579 20581 20582 1 180.0000771 15.1670000 2
20580 20579 20581 20583 1 180.0000771 15.1670000 2
20577 20581 20579 20580 4 180.0000771 4.6024000 2
20579 20581 20583 20584 1 180.0000771 15.1670000 2
20579 20581 20583 20585 1 180.0000771 15.1670000 2
20582 20581 20583 20584 1 180.0000771 15.1670000 2
20582 20581 20583 20585 1 180.0000771 15.1670000 2
20579 20583 20581 20582 4 180.0000771 4.6024000 2
20576 20583 20585 20586 4 180.0000771 4.6024000 2
20581 20583 20585 20586 1 180.0000771 15.1670000 2
20584 20583 20585 20586 1 180.0000771 15.1670000 2
20576 20585 20583 20581 1 180.0000771 15.1670000 2
20576 20585 20583 20584 1 180.0000771 15.1670000 2
20581 20585 20583 20584 4 180.0000771 4.6024000 2
20587 20588 20589 20590 1 180.0000771 15.1670000 2
20587 20588 20589 20591 1 180.0000771 15.1670000 2
20590 20588 20589 20591 4 180.0000771 4.6024000 2
20587 20588 20597 20589 4 180.0000771 4.6024000 2
20587 20588 20597 20595 1 180.0000771 15.1670000 2
20587 20588 20597 20598 1 180.0000771 15.1670000 2
20589 20588 20597 20595 1 180.0000771 15.1670000 2
20589 20588 20597 20598 1 180.0000771 15.1670000 2
20590 20589 20588 20597 1 180.0000771 15.1670000 2
20591 20589 20588 20597 1 180.0000771 15.1670000 2
20588 20589 20591 20592 1 180.0000771 15.1670000 2
20588 20589 20591 20593 1 180.0000771 15.1670000 2
20590 20589 20591 20592 1 180.0000771 15.1670000 2
20590 20589 20591 20593 1 180.0000771 15.1670000 2
20589 20591 20593 20594 1 180.0000771 15.1670000 2
20589 20591 20593 20595 1 180.0000771 15.1670000 2
20592 20591 20593 20594 1 180.0000771 15.1670000 2
20592 20591 20593 20595 1 180.0000771 15.1670000 2
20589 20593 20591 20592 4 180.0000771 4.6024000 2
20591 20593 20595 20596 1 180.0000771 15.1670000 2
20591 20593 20595 20597 1 180.0000771 15.1670000 2
20594 20593 20595 20596 1 180.0000771 15.1670000 2
20594 20593 20595 20597 1 180.0000771 15.1670000 2
20591 20595 20593 20594 4 180.0000771 4.6024000 2
20588 20595 20597 20598 4 180.0000771 4.6024000 2
20593 20595 20597 20598 1 180.0000771 15.1670000 2
20596 20595 20597 20598 1 180.0000771 15.1670000 2
20588 20597 20595 20593 1 180.0000771 15.1670000 2
20588 20597 20595 20596 1 180.0000771 15.1670000 2
20593 20597 20595 20596 4 180.0000771 4.6024000 2
20599 20600 20601 20602 1 180.0000771 15.1670000 2
20599 20600 20601 20603 1 180.0000771 15.1670000 2
20602 20600 20601 20603 4 180.0000771 4.6024000 2
20599 20600 20609 20601 4 180.0000771 4.6024000 2
20599 20600 20609 20607 1 180.0000771 15.1670000 2
20599 20600 20609 20610 1 180.0000771 15.1670000 2
20601 20600 20609 20607 1 180.0000771 15.1670000 2
20601 20600 20609 20610 1 180.0000771 15.1670000 2
20602 20601 20600 20609 1 180.0000771 15.1670000 2
20603 20601 20600 20609 1 180.0000771 15.1670000 2
20600 20601 20603 20604 1 180.0000771 15.1670000 2
20600 20601 20603 20605 1 180.0000771 15.1670000 2
20602 20601 20603 20604 1 180.0000771 15.1670000 2
20602 20601 20603 20605 1 180.0000771 15.1670000 2
20601 20603 20605 20606 1 180.0000771 15.1670000 2
20601 20603 20605 20607 1 180.0000771 15.1670000 2
20604 20603 20605 20606 1 180.0000771 15.1670000 2
20604 20603 20605 20607 1 180.0000771 15.1670000 2
20601 20605 20603 20604 4 180.0000771 4.6024000 2
20603 20605 20607 20608 1 180.0000771 15.1670000 2
20603 20605 20607 20609 1 180.0000771 15.1670000 2
20606 20605 20607 20608 1 180.0000771 15.1670000 2
20606 20605 20607 20609 1 180.0000771 15.1670000 2
20603 20607 20605 20606 4 180.0000771 4.6024000 2
20600 20607 20609 20610 4 180.0000771 4.6024000 2
20605 20607 20609 20610 1 180.0000771 15.1670000 2
20608 20607 20609 20610 1 180.0000771 15.1670000 2
20600 20609 20607 20605 1 180.0000771 15.1670000 2
20600 20609 20607 20608 1 180.0000771 15.1670000 2
20605 20609 20607 20608 4 180.0000771 4.6024000 2
20611 20612 20613 20614 1 180.0000771 15.1670000 2
20611 20612 20613 20615 1 180.0000771 15.1670000 2
20614 20612 20613 20615 4 180.0000771 4.6024000 2
20611 20612 20621 20613 4 180.0000771 4.6024000 2
20611 20612 20621 20619 1 180.0000771 15.1670000 2
20611 20612 20621 20622 1 180.0000771 15.1670000 2
20613 20612 20621 20619 1 180.0000771 15.1670000 2
20613 20612 20621 20622 1 180.0000771 15.1670000 2
20614 20613 20612 20621 1 180.0000771 15.1670000 2
20615 20613 20612 20621 1 180.0000771 15.1670000 2
20612 20613 20615 20616 1 180.0000771 15.1670000 2
20612 20613 20615 20617 1 180.0000771 15.1670000 2
20614 20613 20615 20616 1 180.0000771 15.1670000 2
20614 20613 20615 20617 1 180.0000771 15.1670000 2
20613 20615 20617 20618 1 180.0000771 15.1670000 2
20613 20615 20617 20619 1 180.0000771 15.1670000 2
20616 20615 20617 20618 1 180.0000771 15.1670000 2
20616 20615 20617 20619 1 180.0000771 15.1670000 2
20613 20617 20615 20616 4 180.0000771 4.6024000 2
20615 20617 20619 20620 1 180.0000771 15.1670000 2
20615 20617 20619 20621 1 180.0000771 15.1670000 2
20618 20617 20619 20620 1 180.0000771 15.1670000 2
20618 20617 20619 20621 1 180.0000771 15.1670000 2
20615 20619 20617 20618 4 180.0000771 4.6024000 2
20612 20619 20621 20622 4 180.0000771 4.6024000 2
20617 20619 20621 20622 1 180.0000771 15.1670000 2
20620 20619 20621 20622 1 180.0000771 15.1670000 2
20612 20621 20619 20617 1 180.0000771 15.1670000 2
20612 20621 20619 20620 1 180.0000771 15.1670000 2
20617 20621 20619 20620 4 180.0000771 4.6024000 2
20623 20624 20625 20626 1 180.0000771 15.1670000 2
20623 20624 20625 20627 1 180.0000771 15.1670000 2
20626 20624 20625 20627 4 180.0000771 4.6024000 2
20623 20624 20633 20625 4 180.0000771 4.6024000 2
20623 20624 20633 20631 1 180.0000771 15.1670000 2
20623 20624 20633 20634 1 180.0000771 15.1670000 2
20625 20624 20633 20631 1 180.0000771 15.1670000 2
20625 20624 20633 20634 1 180.0000771 15.1670000 2
20626 20625 20624 20633 1 180.0000771 15.1670000 2
20627 20625 20624 20633 1 180.0000771 15.1670000 2
20624 20625 20627 20628 1 180.0000771 15.1670000 2
20624 20625 20627 20629 1 180.0000771 15.1670000 2
20626 20625 20627 20628 1 180.0000771 15.1670000 2
20626 20625 20627 20629 1 180.0000771 15.1670000 2
20625 20627 20629 20630 1 180.0000771 15.1670000 2
20625 20627 20629 20631 1 180.0000771 15.1670000 2
20628 20627 20629 20630 1 180.0000771 15.1670000 2
20628 20627 20629 20631 1 180.0000771 15.1670000 2
20625 20629 20627 20628 4 180.0000771 4.6024000 2
20627 20629 20631 20632 1 180.0000771 15.1670000 2
20627 20629 20631 20633 1 180.0000771 15.1670000 2
20630 20629 20631 20632 1 180.0000771 15.1670000 2
20630 20629 20631 20633 1 180.0000771 15.1670000 2
20627 20631 20629 20630 4 180.0000771 4.6024000 2
20624 20631 20633 20634 4 180.0000771 4.6024000 2
20629 20631 20633 20634 1 180.0000771 15.1670000 2
20632 20631 20633 20634 1 180.0000771 15.1670000 2
20624 20633 20631 20629 1 180.0000771 15.1670000 2
20624 20633 20631 20632 1 180.0000771 15.1670000 2
20629 20633 20631 20632 4 180.0000771 4.6024000 2
20635 20636 20637 20638 1 180.0000771 15.1670000 2
20635 20636 20637 20639 1 180.0000771 15.1670000 2
20638 20636 20637 20639 4 180.0000771 4.6024000 2
20635 20636 20645 20637 4 180.0000771 4.6024000 2
20635 20636 20645 20643 1 180.0000771 15.1670000 2
20635 20636 20645 20646 1 180.0000771 15.1670000 2
20637 20636 20645 20643 1 180.0000771 15.1670000 2
20637 20636 20645 20646 1 180.0000771 15.1670000 2
20638 20637 20636 20645 1 180.0000771 15.1670000 2
20639 20637 20636 20645 1 180.0000771 15.1670000 2
20636 20637 20639 20640 1 180.0000771 15.1670000 2
20636 20637 20639 20641 1 180.0000771 15.1670000 2
20638 20637 20639 20640 1 180.0000771 15.1670000 2
20638 20637 20639 20641 1 180.0000771 15.1670000 2
20637 20639 20641 20642 1 180.0000771 15.1670000 2
20637 20639 20641 20643 1 180.0000771 15.1670000 2
20640 20639 20641 20642 1 180.0000771 15.1670000 2
20640 20639 20641 20643 1 180.0000771 15.1670000 2
20637 20641 20639 20640 4 180.0000771 4.6024000 2
20639 20641 20643 20644 1 180.0000771 15.1670000 2
20639 20641 20643 20645 1 180.0000771 15.1670000 2
20642 20641 20643 20644 1 180.0000771 15.1670000 2
20642 20641 20643 20645 1 180.0000771 15.1670000 2
20639 20643 20641 20642 4 180.0000771 4.6024000 2
20636 20643 20645 20646 4 180.0000771 4.6024000 2
20641 20643 20645 20646 1 180.0000771 15.1670000 2
20644 20643 20645 20646 1 180.0000771 15.1670000 2
20636 20645 20643 20641 1 180.0000771 15.1670000 2
20636 20645 20643 20644 1 180.0000771 15.1670000 2
20641 20645 20643 20644 4 180.0000771 4.6024000 2
20647 20648 20649 20650 1 180.0000771 15.1670000 2
20647 20648 20649 20651 1 180.0000771 15.1670000 2
20650 20648 20649 20651 4 180.0000771 4.6024000 2
20647 20648 20657 20649 4 180.0000771 4.6024000 2
20647 20648 20657 20655 1 180.0000771 15.1670000 2
20647 20648 20657 20658 1 180.0000771 15.1670000 2
20649 20648 20657 20655 1 180.0000771 15.1670000 2
20649 20648 20657 20658 1 180.0000771 15.1670000 2
20650 20649 20648 20657 1 180.0000771 15.1670000 2
20651 20649 20648 20657 1 180.0000771 15.1670000 2
20648 20649 20651 20652 1 180.0000771 15.1670000 2
20648 20649 20651 20653 1 180.0000771 15.1670000 2
20650 20649 20651 20652 1 180.0000771 15.1670000 2
20650 20649 20651 20653 1 180.0000771 15.1670000 2
20649 20651 20653 20654 1 180.0000771 15.1670000 2
20649 20651 20653 20655 1 180.0000771 15.1670000 2
20652 20651 20653 20654 1 180.0000771 15.1670000 2
20652 20651 20653 20655 1 180.0000771 15.1670000 2
20649 20653 20651 20652 4 180.0000771 4.6024000 2
20651 20653 20655 20656 1 180.0000771 15.1670000 2
20651 20653 20655 20657 1 180.0000771 15.1670000 2
20654 20653 20655 20656 1 180.0000771 15.1670000 2
20654 20653 20655 20657 1 180.0000771 15.1670000 2
20651 20655 20653 20654 4 180.0000771 4.6024000 2
20648 20655 20657 20658 4 180.0000771 4.6024000 2
20653 20655 20657 20658 1 180.0000771 15.1670000 2
20656 20655 20657 20658 1 180.0000771 15.1670000 2
20648 20657 20655 20653 1 180.0000771 15.1670000 2
20648 20657 20655 20656 1 180.0000771 15.1670000 2
20653 20657 20655 20656 4 180.0000771 4.6024000 2
20659 20660 20661 20662 1 180.0000771 15.1670000 2
20659 20660 20661 20663 1 180.0000771 15.1670000 2
20662 20660 20661 20663 4 180.0000771 4.6024000 2
20659 20660 20669 20661 4 180.0000771 4.6024000 2
20659 20660 20669 20667 1 180.0000771 15.1670000 2
20659 20660 20669 20670 1 180.0000771 15.1670000 2
20661 20660 20669 20667 1 180.0000771 15.1670000 2
20661 20660 20669 20670 1 180.0000771 15.1670000 2
20662 20661 20660 20669 1 180.0000771 15.1670000 2
20663 20661 20660 20669 1 180.0000771 15.1670000 2
20660 20661 20663 20664 1 180.0000771 15.1670000 2
20660 20661 20663 20665 1 180.0000771 15.1670000 2
20662 20661 20663 20664 1 180.0000771 15.1670000 2
20662 20661 20663 20665 1 180.0000771 15.1670000 2
20661 20663 20665 20666 1 180.0000771 15.1670000 2
20661 20663 20665 20667 1 180.0000771 15.1670000 2
20664 20663 20665 20666 1 180.0000771 15.1670000 2
20664 20663 20665 20667 1 180.0000771 15.1670000 2
20661 20665 20663 20664 4 180.0000771 4.6024000 2
20663 20665 20667 20668 1 180.0000771 15.1670000 2
20663 20665 20667 20669 1 180.0000771 15.1670000 2
20666 20665 20667 20668 1 180.0000771 15.1670000 2
20666 20665 20667 20669 1 180.0000771 15.1670000 2
20663 20667 20665 20666 4 180.0000771 4.6024000 2
20660 20667 20669 20670 4 180.0000771 4.6024000 2
20665 20667 20669 20670 1 180.0000771 15.1670000 2
20668 20667 20669 20670 1 180.0000771 15.1670000 2
20660 20669 20667 20665 1 180.0000771 15.1670000 2
20660 20669 20667 20668 1 180.0000771 15.1670000 2
20665 20669 20667 20668 4 180.0000771 4.6024000 2
20671 20672 20673 20674 1 180.0000771 15.1670000 2
20671 20672 20673 20675 1 180.0000771 15.1670000 2
20674 20672 20673 20675 4 180.0000771 4.6024000 2
20671 20672 20681 20673 4 180.0000771 4.6024000 2
20671 20672 20681 20679 1 180.0000771 15.1670000 2
20671 20672 20681 20682 1 180.0000771 15.1670000 2
20673 20672 20681 20679 1 180.0000771 15.1670000 2
20673 20672 20681 20682 1 180.0000771 15.1670000 2
20674 20673 20672 20681 1 180.0000771 15.1670000 2
20675 20673 20672 20681 1 180.0000771 15.1670000 2
20672 20673 20675 20676 1 180.0000771 15.1670000 2
20672 20673 20675 20677 1 180.0000771 15.1670000 2
20674 20673 20675 20676 1 180.0000771 15.1670000 2
20674 20673 20675 20677 1 180.0000771 15.1670000 2
20673 20675 20677 20678 1 180.0000771 15.1670000 2
20673 20675 20677 20679 1 180.0000771 15.1670000 2
20676 20675 20677 20678 1 180.0000771 15.1670000 2
20676 20675 20677 20679 1 180.0000771 15.1670000 2
20673 20677 20675 20676 4 180.0000771 4.6024000 2
20675 20677 20679 20680 1 180.0000771 15.1670000 2
20675 20677 20679 20681 1 180.0000771 15.1670000 2
20678 20677 20679 20680 1 180.0000771 15.1670000 2
20678 20677 20679 20681 1 180.0000771 15.1670000 2
20675 20679 20677 20678 4 180.0000771 4.6024000 2
20672 20679 20681 20682 4 180.0000771 4.6024000 2
20677 20679 20681 20682 1 180.0000771 15.1670000 2
20680 20679 20681 20682 1 180.0000771 15.1670000 2
20672 20681 20679 20677 1 180.0000771 15.1670000 2
20672 20681 20679 20680 1 180.0000771 15.1670000 2
20677 20681 20679 20680 4 180.0000771 4.6024000 2
20683 20684 20685 20686 1 180.0000771 15.1670000 2
20683 20684 20685 20687 1 180.0000771 15.1670000 2
20686 20684 20685 20687 4 180.0000771 4.6024000 2
20683 20684 20693 20685 4 180.0000771 4.6024000 2
20683 20684 20693 20691 1 180.0000771 15.1670000 2
20683 20684 20693 20694 1 180.0000771 15.1670000 2
20685 20684 20693 20691 1 180.0000771 15.1670000 2
20685 20684 20693 20694 1 180.0000771 15.1670000 2
20686 20685 20684 20693 1 180.0000771 15.1670000 2
20687 20685 20684 20693 1 180.0000771 15.1670000 2
20684 20685 20687 20688 1 180.0000771 15.1670000 2
20684 20685 20687 20689 1 180.0000771 15.1670000 2
20686 20685 20687 20688 1 180.0000771 15.1670000 2
20686 20685 20687 20689 1 180.0000771 15.1670000 2
20685 20687 20689 20690 1 180.0000771 15.1670000 2
20685 20687 20689 20691 1 180.0000771 15.1670000 2
20688 20687 20689 20690 1 180.0000771 15.1670000 2
20688 20687 20689 20691 1 180.0000771 15.1670000 2
20685 20689 20687 20688 4 180.0000771 4.6024000 2
20687 20689 20691 20692 1 180.0000771 15.1670000 2
20687 20689 20691 20693 1 180.0000771 15.1670000 2
20690 20689 20691 20692 1 180.0000771 15.1670000 2
20690 20689 20691 20693 1 180.0000771 15.1670000 2
20687 20691 20689 20690 4 180.0000771 4.6024000 2
20684 20691 20693 20694 4 180.0000771 4.6024000 2
20689 20691 20693 20694 1 180.0000771 15.1670000 2
20692 20691 20693 20694 1 180.0000771 15.1670000 2
20684 20693 20691 20689 1 180.0000771 15.1670000 2
20684 20693 20691 20692 1 180.0000771 15.1670000 2
20689 20693 20691 20692 4 180.0000771 4.6024000 2
20695 20696 20697 20698 1 180.0000771 15.1670000 2
20695 20696 20697 20699 1 180.0000771 15.1670000 2
20698 20696 20697 20699 4 180.0000771 4.6024000 2
20695 20696 20705 20697 4 180.0000771 4.6024000 2
20695 20696 20705 20703 1 180.0000771 15.1670000 2
20695 20696 20705 20706 1 180.0000771 15.1670000 2
20697 20696 20705 20703 1 180.0000771 15.1670000 2
20697 20696 20705 20706 1 180.0000771 15.1670000 2
20698 20697 20696 20705 1 180.0000771 15.1670000 2
20699 20697 20696 20705 1 180.0000771 15.1670000 2
20696 20697 20699 20700 1 180.0000771 15.1670000 2
20696 20697 20699 20701 1 180.0000771 15.1670000 2
20698 20697 20699 20700 1 180.0000771 15.1670000 2
20698 20697 20699 20701 1 180.0000771 15.1670000 2
20697 20699 20701 20702 1 180.0000771 15.1670000 2
20697 20699 20701 20703 1 180.0000771 15.1670000 2
20700 20699 20701 20702 1 180.0000771 15.1670000 2
20700 20699 20701 20703 1 180.0000771 15.1670000 2
20697 20701 20699 20700 4 180.0000771 4.6024000 2
20699 20701 20703 20704 1 180.0000771 15.1670000 2
20699 20701 20703 20705 1 180.0000771 15.1670000 2
20702 20701 20703 20704 1 180.0000771 15.1670000 2
20702 20701 20703 20705 1 180.0000771 15.1670000 2
20699 20703 20701 20702 4 180.0000771 4.6024000 2
20696 20703 20705 20706 4 180.0000771 4.6024000 2
20701 20703 20705 20706 1 180.0000771 15.1670000 2
20704 20703 20705 20706 1 180.0000771 15.1670000 2
20696 20705 20703 20701 1 180.0000771 15.1670000 2
20696 20705 20703 20704 1 180.0000771 15.1670000 2
20701 20705 20703 20704 4 180.0000771 4.6024000 2
20707 20708 20709 20710 1 180.0000771 15.1670000 2
20707 20708 20709 20711 1 180.0000771 15.1670000 2
20710 20708 20709 20711 4 180.0000771 4.6024000 2
20707 20708 20717 20709 4 180.0000771 4.6024000 2
20707 20708 20717 20715 1 180.0000771 15.1670000 2
20707 20708 20717 20718 1 180.0000771 15.1670000 2
20709 20708 20717 20715 1 180.0000771 15.1670000 2
20709 20708 20717 20718 1 180.0000771 15.1670000 2
20710 20709 20708 20717 1 180.0000771 15.1670000 2
20711 20709 20708 20717 1 180.0000771 15.1670000 2
20708 20709 20711 20712 1 180.0000771 15.1670000 2
20708 20709 20711 20713 1 180.0000771 15.1670000 2
20710 20709 20711 20712 1 180.0000771 15.1670000 2
20710 20709 20711 20713 1 180.0000771 15.1670000 2
20709 20711 20713 20714 1 180.0000771 15.1670000 2
20709 20711 20713 20715 1 180.0000771 15.1670000 2
20712 20711 20713 20714 1 180.0000771 15.1670000 2
20712 20711 20713 20715 1 180.0000771 15.1670000 2
20709 20713 20711 20712 4 180.0000771 4.6024000 2
20711 20713 20715 20716 1 180.0000771 15.1670000 2
20711 20713 20715 20717 1 180.0000771 15.1670000 2
20714 20713 20715 20716 1 180.0000771 15.1670000 2
20714 20713 20715 20717 1 180.0000771 15.1670000 2
20711 20715 20713 20714 4 180.0000771 4.6024000 2
20708 20715 20717 20718 4 180.0000771 4.6024000 2
20713 20715 20717 20718 1 180.0000771 15.1670000 2
20716 20715 20717 20718 1 180.0000771 15.1670000 2
20708 20717 20715 20713 1 180.0000771 15.1670000 2
20708 20717 20715 20716 1 180.0000771 15.1670000 2
20713 20717 20715 20716 4 180.0000771 4.6024000 2
20719 20720 20721 20722 1 180.0000771 15.1670000 2
20719 20720 20721 20723 1 180.0000771 15.1670000 2
20722 20720 20721 20723 4 180.0000771 4.6024000 2
20719 20720 20729 20721 4 180.0000771 4.6024000 2
20719 20720 20729 20727 1 180.0000771 15.1670000 2
20719 20720 20729 20730 1 180.0000771 15.1670000 2
20721 20720 20729 20727 1 180.0000771 15.1670000 2
20721 20720 20729 20730 1 180.0000771 15.1670000 2
20722 20721 20720 20729 1 180.0000771 15.1670000 2
20723 20721 20720 20729 1 180.0000771 15.1670000 2
20720 20721 20723 20724 1 180.0000771 15.1670000 2
20720 20721 20723 20725 1 180.0000771 15.1670000 2
20722 20721 20723 20724 1 180.0000771 15.1670000 2
20722 20721 20723 20725 1 180.0000771 15.1670000 2
20721 20723 20725 20726 1 180.0000771 15.1670000 2
20721 20723 20725 20727 1 180.0000771 15.1670000 2
20724 20723 20725 20726 1 180.0000771 15.1670000 2
20724 20723 20725 20727 1 180.0000771 15.1670000 2
20721 20725 20723 20724 4 180.0000771 4.6024000 2
20723 20725 20727 20728 1 180.0000771 15.1670000 2
20723 20725 20727 20729 1 180.0000771 15.1670000 2
20726 20725 20727 20728 1 180.0000771 15.1670000 2
20726 20725 20727 20729 1 180.0000771 15.1670000 2
20723 20727 20725 20726 4 180.0000771 4.6024000 2
20720 20727 20729 20730 4 180.0000771 4.6024000 2
20725 20727 20729 20730 1 180.0000771 15.1670000 2
20728 20727 20729 20730 1 180.0000771 15.1670000 2
20720 20729 20727 20725 1 180.0000771 15.1670000 2
20720 20729 20727 20728 1 180.0000771 15.1670000 2
20725 20729 20727 20728 4 180.0000771 4.6024000 2
20731 20732 20733 20734 1 180.0000771 15.1670000 2
20731 20732 20733 20735 1 180.0000771 15.1670000 2
20734 20732 20733 20735 4 180.0000771 4.6024000 2
20731 20732 20741 20733 4 180.0000771 4.6024000 2
20731 20732 20741 20739 1 180.0000771 15.1670000 2
20731 20732 20741 20742 1 180.0000771 15.1670000 2
20733 20732 20741 20739 1 180.0000771 15.1670000 2
20733 20732 20741 20742 1 180.0000771 15.1670000 2
20734 20733 20732 20741 1 180.0000771 15.1670000 2
20735 20733 20732 20741 1 180.0000771 15.1670000 2
20732 20733 20735 20736 1 180.0000771 15.1670000 2
20732 20733 20735 20737 1 180.0000771 15.1670000 2
20734 20733 20735 20736 1 180.0000771 15.1670000 2
20734 20733 20735 20737 1 180.0000771 15.1670000 2
20733 20735 20737 20738 1 180.0000771 15.1670000 2
20733 20735 20737 20739 1 180.0000771 15.1670000 2
20736 20735 20737 20738 1 180.0000771 15.1670000 2
20736 20735 20737 20739 1 180.0000771 15.1670000 2
20733 20737 20735 20736 4 180.0000771 4.6024000 2
20735 20737 20739 20740 1 180.0000771 15.1670000 2
20735 20737 20739 20741 1 180.0000771 15.1670000 2
20738 20737 20739 20740 1 180.0000771 15.1670000 2
20738 20737 20739 20741 1 180.0000771 15.1670000 2
20735 20739 20737 20738 4 180.0000771 4.6024000 2
20732 20739 20741 20742 4 180.0000771 4.6024000 2
20737 20739 20741 20742 1 180.0000771 15.1670000 2
20740 20739 20741 20742 1 180.0000771 15.1670000 2
20732 20741 20739 20737 1 180.0000771 15.1670000 2
20732 20741 20739 20740 1 180.0000771 15.1670000 2
20737 20741 20739 20740 4 180.0000771 4.6024000 2
20743 20744 20745 20746 1 180.0000771 15.1670000 2
20743 20744 20745 20747 1 180.0000771 15.1670000 2
20746 20744 20745 20747 4 180.0000771 4.6024000 2
20743 20744 20753 20745 4 180.0000771 4.6024000 2
20743 20744 20753 20751 1 180.0000771 15.1670000 2
20743 20744 20753 20754 1 180.0000771 15.1670000 2
20745 20744 20753 20751 1 180.0000771 15.1670000 2
20745 20744 20753 20754 1 180.0000771 15.1670000 2
20746 20745 20744 20753 1 180.0000771 15.1670000 2
20747 20745 20744 20753 1 180.0000771 15.1670000 2
20744 20745 20747 20748 1 180.0000771 15.1670000 2
20744 20745 20747 20749 1 180.0000771 15.1670000 2
20746 20745 20747 20748 1 180.0000771 15.1670000 2
20746 20745 20747 20749 1 180.0000771 15.1670000 2
20745 20747 20749 20750 1 180.0000771 15.1670000 2
20745 20747 20749 20751 1 180.0000771 15.1670000 2
20748 20747 20749 20750 1 180.0000771 15.1670000 2
20748 20747 20749 20751 1 180.0000771 15.1670000 2
20745 20749 20747 20748 4 180.0000771 4.6024000 2
20747 20749 20751 20752 1 180.0000771 15.1670000 2
20747 20749 20751 20753 1 180.0000771 15.1670000 2
20750 20749 20751 20752 1 180.0000771 15.1670000 2
20750 20749 20751 20753 1 180.0000771 15.1670000 2
20747 20751 20749 20750 4 180.0000771 4.6024000 2
20744 20751 20753 20754 4 180.0000771 4.6024000 2
20749 20751 20753 20754 1 180.0000771 15.1670000 2
20752 20751 20753 20754 1 180.0000771 15.1670000 2
20744 20753 20751 20749 1 180.0000771 15.1670000 2
20744 20753 20751 20752 1 180.0000771 15.1670000 2
20749 20753 20751 20752 4 180.0000771 4.6024000 2
20755 20756 20757 20758 1 180.0000771 15.1670000 2
20755 20756 20757 20759 1 180.0000771 15.1670000 2
20758 20756 20757 20759 4 180.0000771 4.6024000 2
20755 20756 20765 20757 4 180.0000771 4.6024000 2
20755 20756 20765 20763 1 180.0000771 15.1670000 2
20755 20756 20765 20766 1 180.0000771 15.1670000 2
20757 20756 20765 20763 1 180.0000771 15.1670000 2
20757 20756 20765 20766 1 180.0000771 15.1670000 2
20758 20757 20756 20765 1 180.0000771 15.1670000 2
20759 20757 20756 20765 1 180.0000771 15.1670000 2
20756 20757 20759 20760 1 180.0000771 15.1670000 2
20756 20757 20759 20761 1 180.0000771 15.1670000 2
20758 20757 20759 20760 1 180.0000771 15.1670000 2
20758 20757 20759 20761 1 180.0000771 15.1670000 2
20757 20759 20761 20762 1 180.0000771 15.1670000 2
20757 20759 20761 20763 1 180.0000771 15.1670000 2
20760 20759 20761 20762 1 180.0000771 15.1670000 2
20760 20759 20761 20763 1 180.0000771 15.1670000 2
20757 20761 20759 20760 4 180.0000771 4.6024000 2
20759 20761 20763 20764 1 180.0000771 15.1670000 2
20759 20761 20763 20765 1 180.0000771 15.1670000 2
20762 20761 20763 20764 1 180.0000771 15.1670000 2
20762 20761 20763 20765 1 180.0000771 15.1670000 2
20759 20763 20761 20762 4 180.0000771 4.6024000 2
20756 20763 20765 20766 4 180.0000771 4.6024000 2
20761 20763 20765 20766 1 180.0000771 15.1670000 2
20764 20763 20765 20766 1 180.0000771 15.1670000 2
20756 20765 20763 20761 1 180.0000771 15.1670000 2
20756 20765 20763 20764 1 180.0000771 15.1670000 2
20761 20765 20763 20764 4 180.0000771 4.6024000 2
20767 20768 20769 20770 1 180.0000771 15.1670000 2
20767 20768 20769 20771 1 180.0000771 15.1670000 2
20770 20768 20769 20771 4 180.0000771 4.6024000 2
20767 20768 20777 20769 4 180.0000771 4.6024000 2
20767 20768 20777 20775 1 180.0000771 15.1670000 2
20767 20768 20777 20778 1 180.0000771 15.1670000 2
20769 20768 20777 20775 1 180.0000771 15.1670000 2
20769 20768 20777 20778 1 180.0000771 15.1670000 2
20770 20769 20768 20777 1 180.0000771 15.1670000 2
20771 20769 20768 20777 1 180.0000771 15.1670000 2
20768 20769 20771 20772 1 180.0000771 15.1670000 2
20768 20769 20771 20773 1 180.0000771 15.1670000 2
20770 20769 20771 20772 1 180.0000771 15.1670000 2
20770 20769 20771 20773 1 180.0000771 15.1670000 2
20769 20771 20773 20774 1 180.0000771 15.1670000 2
20769 20771 20773 20775 1 180.0000771 15.1670000 2
20772 20771 20773 20774 1 180.0000771 15.1670000 2
20772 20771 20773 20775 1 180.0000771 15.1670000 2
20769 20773 20771 20772 4 180.0000771 4.6024000 2
20771 20773 20775 20776 1 180.0000771 15.1670000 2
20771 20773 20775 20777 1 180.0000771 15.1670000 2
20774 20773 20775 20776 1 180.0000771 15.1670000 2
20774 20773 20775 20777 1 180.0000771 15.1670000 2
20771 20775 20773 20774 4 180.0000771 4.6024000 2
20768 20775 20777 20778 4 180.0000771 4.6024000 2
20773 20775 20777 20778 1 180.0000771 15.1670000 2
20776 20775 20777 20778 1 180.0000771 15.1670000 2
20768 20777 20775 20773 1 180.0000771 15.1670000 2
20768 20777 20775 20776 1 180.0000771 15.1670000 2
20773 20777 20775 20776 4 180.0000771 4.6024000 2
20779 20780 20781 20782 1 180.0000771 15.1670000 2
20779 20780 20781 20783 1 180.0000771 15.1670000 2
20782 20780 20781 20783 4 180.0000771 4.6024000 2
20779 20780 20789 20781 4 180.0000771 4.6024000 2
20779 20780 20789 20787 1 180.0000771 15.1670000 2
20779 20780 20789 20790 1 180.0000771 15.1670000 2
20781 20780 20789 20787 1 180.0000771 15.1670000 2
20781 20780 20789 20790 1 180.0000771 15.1670000 2
20782 20781 20780 20789 1 180.0000771 15.1670000 2
20783 20781 20780 20789 1 180.0000771 15.1670000 2
20780 20781 20783 20784 1 180.0000771 15.1670000 2
20780 20781 20783 20785 1 180.0000771 15.1670000 2
20782 20781 20783 20784 1 180.0000771 15.1670000 2
20782 20781 20783 20785 1 180.0000771 15.1670000 2
20781 20783 20785 20786 1 180.0000771 15.1670000 2
20781 20783 20785 20787 1 180.0000771 15.1670000 2
20784 20783 20785 20786 1 180.0000771 15.1670000 2
20784 20783 20785 20787 1 180.0000771 15.1670000 2
20781 20785 20783 20784 4 180.0000771 4.6024000 2
20783 20785 20787 20788 1 180.0000771 15.1670000 2
20783 20785 20787 20789 1 180.0000771 15.1670000 2
20786 20785 20787 20788 1 180.0000771 15.1670000 2
20786 20785 20787 20789 1 180.0000771 15.1670000 2
20783 20787 20785 20786 4 180.0000771 4.6024000 2
20780 20787 20789 20790 4 180.0000771 4.6024000 2
20785 20787 20789 20790 1 180.0000771 15.1670000 2
20788 20787 20789 20790 1 180.0000771 15.1670000 2
20780 20789 20787 20785 1 180.0000771 15.1670000 2
20780 20789 20787 20788 1 180.0000771 15.1670000 2
20785 20789 20787 20788 4 180.0000771 4.6024000 2
20791 20792 20793 20794 1 180.0000771 15.1670000 2
20791 20792 20793 20795 1 180.0000771 15.1670000 2
20794 20792 20793 20795 4 180.0000771 4.6024000 2
20791 20792 20801 20793 4 180.0000771 4.6024000 2
20791 20792 20801 20799 1 180.0000771 15.1670000 2
20791 20792 20801 20802 1 180.0000771 15.1670000 2
20793 20792 20801 20799 1 180.0000771 15.1670000 2
20793 20792 20801 20802 1 180.0000771 15.1670000 2
20794 20793 20792 20801 1 180.0000771 15.1670000 2
20795 20793 20792 20801 1 180.0000771 15.1670000 2
20792 20793 20795 20796 1 180.0000771 15.1670000 2
20792 20793 20795 20797 1 180.0000771 15.1670000 2
20794 20793 20795 20796 1 180.0000771 15.1670000 2
20794 20793 20795 20797 1 180.0000771 15.1670000 2
20793 20795 20797 20798 1 180.0000771 15.1670000 2
20793 20795 20797 20799 1 180.0000771 15.1670000 2
20796 20795 20797 20798 1 180.0000771 15.1670000 2
20796 20795 20797 20799 1 180.0000771 15.1670000 2
20793 20797 20795 20796 4 180.0000771 4.6024000 2
20795 20797 20799 20800 1 180.0000771 15.1670000 2
20795 20797 20799 20801 1 180.0000771 15.1670000 2
20798 20797 20799 20800 1 180.0000771 15.1670000 2
20798 20797 20799 20801 1 180.0000771 15.1670000 2
20795 20799 20797 20798 4 180.0000771 4.6024000 2
20792 20799 20801 20802 4 180.0000771 4.6024000 2
20797 20799 20801 20802 1 180.0000771 15.1670000 2
20800 20799 20801 20802 1 180.0000771 15.1670000 2
20792 20801 20799 20797 1 180.0000771 15.1670000 2
20792 20801 20799 20800 1 180.0000771 15.1670000 2
20797 20801 20799 20800 4 180.0000771 4.6024000 2
20803 20804 20805 20806 1 180.0000771 15.1670000 2
20803 20804 20805 20807 1 180.0000771 15.1670000 2
20806 20804 20805 20807 4 180.0000771 4.6024000 2
20803 20804 20813 20805 4 180.0000771 4.6024000 2
20803 20804 20813 20811 1 180.0000771 15.1670000 2
20803 20804 20813 20814 1 180.0000771 15.1670000 2
20805 20804 20813 20811 1 180.0000771 15.1670000 2
20805 20804 20813 20814 1 180.0000771 15.1670000 2
20806 20805 20804 20813 1 180.0000771 15.1670000 2
20807 20805 20804 20813 1 180.0000771 15.1670000 2
20804 20805 20807 20808 1 180.0000771 15.1670000 2
20804 20805 20807 20809 1 180.0000771 15.1670000 2
20806 20805 20807 20808 1 180.0000771 15.1670000 2
20806 20805 20807 20809 1 180.0000771 15.1670000 2
20805 20807 20809 20810 1 180.0000771 15.1670000 2
20805 20807 20809 20811 1 180.0000771 15.1670000 2
20808 20807 20809 20810 1 180.0000771 15.1670000 2
20808 20807 20809 20811 1 180.0000771 15.1670000 2
20805 20809 20807 20808 4 180.0000771 4.6024000 2
20807 20809 20811 20812 1 180.0000771 15.1670000 2
20807 20809 20811 20813 1 180.0000771 15.1670000 2
20810 20809 20811 20812 1 180.0000771 15.1670000 2
20810 20809 20811 20813 1 180.0000771 15.1670000 2
20807 20811 20809 20810 4 180.0000771 4.6024000 2
20804 20811 20813 20814 4 180.0000771 4.6024000 2
20809 20811 20813 20814 1 180.0000771 15.1670000 2
20812 20811 20813 20814 1 180.0000771 15.1670000 2
20804 20813 20811 20809 1 180.0000771 15.1670000 2
20804 20813 20811 20812 1 180.0000771 15.1670000 2
20809 20813 20811 20812 4 180.0000771 4.6024000 2
20815 20816 20817 20818 1 180.0000771 15.1670000 2
20815 20816 20817 20819 1 180.0000771 15.1670000 2
20818 20816 20817 20819 4 180.0000771 4.6024000 2
20815 20816 20825 20817 4 180.0000771 4.6024000 2
20815 20816 20825 20823 1 180.0000771 15.1670000 2
20815 20816 20825 20826 1 180.0000771 15.1670000 2
20817 20816 20825 20823 1 180.0000771 15.1670000 2
20817 20816 20825 20826 1 180.0000771 15.1670000 2
20818 20817 20816 20825 1 180.0000771 15.1670000 2
20819 20817 20816 20825 1 180.0000771 15.1670000 2
20816 20817 20819 20820 1 180.0000771 15.1670000 2
20816 20817 20819 20821 1 180.0000771 15.1670000 2
20818 20817 20819 20820 1 180.0000771 15.1670000 2
20818 20817 20819 20821 1 180.0000771 15.1670000 2
20817 20819 20821 20822 1 180.0000771 15.1670000 2
20817 20819 20821 20823 1 180.0000771 15.1670000 2
20820 20819 20821 20822 1 180.0000771 15.1670000 2
20820 20819 20821 20823 1 180.0000771 15.1670000 2
20817 20821 20819 20820 4 180.0000771 4.6024000 2
20819 20821 20823 20824 1 180.0000771 15.1670000 2
20819 20821 20823 20825 1 180.0000771 15.1670000 2
20822 20821 20823 20824 1 180.0000771 15.1670000 2
20822 20821 20823 20825 1 180.0000771 15.1670000 2
20819 20823 20821 20822 4 180.0000771 4.6024000 2
20816 20823 20825 20826 4 180.0000771 4.6024000 2
20821 20823 20825 20826 1 180.0000771 15.1670000 2
20824 20823 20825 20826 1 180.0000771 15.1670000 2
20816 20825 20823 20821 1 180.0000771 15.1670000 2
20816 20825 20823 20824 1 180.0000771 15.1670000 2
20821 20825 20823 20824 4 180.0000771 4.6024000 2
20827 20828 20829 20830 1 180.0000771 15.1670000 2
20827 20828 20829 20831 1 180.0000771 15.1670000 2
20830 20828 20829 20831 4 180.0000771 4.6024000 2
20827 20828 20837 20829 4 180.0000771 4.6024000 2
20827 20828 20837 20835 1 180.0000771 15.1670000 2
20827 20828 20837 20838 1 180.0000771 15.1670000 2
20829 20828 20837 20835 1 180.0000771 15.1670000 2
20829 20828 20837 20838 1 180.0000771 15.1670000 2
20830 20829 20828 20837 1 180.0000771 15.1670000 2
20831 20829 20828 20837 1 180.0000771 15.1670000 2
20828 20829 20831 20832 1 180.0000771 15.1670000 2
20828 20829 20831 20833 1 180.0000771 15.1670000 2
20830 20829 20831 20832 1 180.0000771 15.1670000 2
20830 20829 20831 20833 1 180.0000771 15.1670000 2
20829 20831 20833 20834 1 180.0000771 15.1670000 2
20829 20831 20833 20835 1 180.0000771 15.1670000 2
20832 20831 20833 20834 1 180.0000771 15.1670000 2
20832 20831 20833 20835 1 180.0000771 15.1670000 2
20829 20833 20831 20832 4 180.0000771 4.6024000 2
20831 20833 20835 20836 1 180.0000771 15.1670000 2
20831 20833 20835 20837 1 180.0000771 15.1670000 2
20834 20833 20835 20836 1 180.0000771 15.1670000 2
20834 20833 20835 20837 1 180.0000771 15.1670000 2
20831 20835 20833 20834 4 180.0000771 4.6024000 2
20828 20835 20837 20838 4 180.0000771 4.6024000 2
20833 20835 20837 20838 1 180.0000771 15.1670000 2
20836 20835 20837 20838 1 180.0000771 15.1670000 2
20828 20837 20835 20833 1 180.0000771 15.1670000 2
20828 20837 20835 20836 1 180.0000771 15.1670000 2
20833 20837 20835 20836 4 180.0000771 4.6024000 2
20839 20840 20841 20842 1 180.0000771 15.1670000 2
20839 20840 20841 20843 1 180.0000771 15.1670000 2
20842 20840 20841 20843 4 180.0000771 4.6024000 2
20839 20840 20849 20841 4 180.0000771 4.6024000 2
20839 20840 20849 20847 1 180.0000771 15.1670000 2
20839 20840 20849 20850 1 180.0000771 15.1670000 2
20841 20840 20849 20847 1 180.0000771 15.1670000 2
20841 20840 20849 20850 1 180.0000771 15.1670000 2
20842 20841 20840 20849 1 180.0000771 15.1670000 2
20843 20841 20840 20849 1 180.0000771 15.1670000 2
20840 20841 20843 20844 1 180.0000771 15.1670000 2
20840 20841 20843 20845 1 180.0000771 15.1670000 2
20842 20841 20843 20844 1 180.0000771 15.1670000 2
20842 20841 20843 20845 1 180.0000771 15.1670000 2
20841 20843 20845 20846 1 180.0000771 15.1670000 2
20841 20843 20845 20847 1 180.0000771 15.1670000 2
20844 20843 20845 20846 1 180.0000771 15.1670000 2
20844 20843 20845 20847 1 180.0000771 15.1670000 2
20841 20845 20843 20844 4 180.0000771 4.6024000 2
20843 20845 20847 20848 1 180.0000771 15.1670000 2
20843 20845 20847 20849 1 180.0000771 15.1670000 2
20846 20845 20847 20848 1 180.0000771 15.1670000 2
20846 20845 20847 20849 1 180.0000771 15.1670000 2
20843 20847 20845 20846 4 180.0000771 4.6024000 2
20840 20847 20849 20850 4 180.0000771 4.6024000 2
20845 20847 20849 20850 1 180.0000771 15.1670000 2
20848 20847 20849 20850 1 180.0000771 15.1670000 2
20840 20849 20847 20845 1 180.0000771 15.1670000 2
20840 20849 20847 20848 1 180.0000771 15.1670000 2
20845 20849 20847 20848 4 180.0000771 4.6024000 2
20851 20852 20853 20854 1 180.0000771 15.1670000 2
20851 20852 20853 20855 1 180.0000771 15.1670000 2
20854 20852 20853 20855 4 180.0000771 4.6024000 2
20851 20852 20861 20853 4 180.0000771 4.6024000 2
20851 20852 20861 20859 1 180.0000771 15.1670000 2
20851 20852 20861 20862 1 180.0000771 15.1670000 2
20853 20852 20861 20859 1 180.0000771 15.1670000 2
20853 20852 20861 20862 1 180.0000771 15.1670000 2
20854 20853 20852 20861 1 180.0000771 15.1670000 2
20855 20853 20852 20861 1 180.0000771 15.1670000 2
20852 20853 20855 20856 1 180.0000771 15.1670000 2
20852 20853 20855 20857 1 180.0000771 15.1670000 2
20854 20853 20855 20856 1 180.0000771 15.1670000 2
20854 20853 20855 20857 1 180.0000771 15.1670000 2
20853 20855 20857 20858 1 180.0000771 15.1670000 2
20853 20855 20857 20859 1 180.0000771 15.1670000 2
20856 20855 20857 20858 1 180.0000771 15.1670000 2
20856 20855 20857 20859 1 180.0000771 15.1670000 2
20853 20857 20855 20856 4 180.0000771 4.6024000 2
20855 20857 20859 20860 1 180.0000771 15.1670000 2
20855 20857 20859 20861 1 180.0000771 15.1670000 2
20858 20857 20859 20860 1 180.0000771 15.1670000 2
20858 20857 20859 20861 1 180.0000771 15.1670000 2
20855 20859 20857 20858 4 180.0000771 4.6024000 2
20852 20859 20861 20862 4 180.0000771 4.6024000 2
20857 20859 20861 20862 1 180.0000771 15.1670000 2
20860 20859 20861 20862 1 180.0000771 15.1670000 2
20852 20861 20859 20857 1 180.0000771 15.1670000 2
20852 20861 20859 20860 1 180.0000771 15.1670000 2
20857 20861 20859 20860 4 180.0000771 4.6024000 2
20863 20864 20865 20866 1 180.0000771 15.1670000 2
20863 20864 20865 20867 1 180.0000771 15.1670000 2
20866 20864 20865 20867 4 180.0000771 4.6024000 2
20863 20864 20873 20865 4 180.0000771 4.6024000 2
20863 20864 20873 20871 1 180.0000771 15.1670000 2
20863 20864 20873 20874 1 180.0000771 15.1670000 2
20865 20864 20873 20871 1 180.0000771 15.1670000 2
20865 20864 20873 20874 1 180.0000771 15.1670000 2
20866 20865 20864 20873 1 180.0000771 15.1670000 2
20867 20865 20864 20873 1 180.0000771 15.1670000 2
20864 20865 20867 20868 1 180.0000771 15.1670000 2
20864 20865 20867 20869 1 180.0000771 15.1670000 2
20866 20865 20867 20868 1 180.0000771 15.1670000 2
20866 20865 20867 20869 1 180.0000771 15.1670000 2
20865 20867 20869 20870 1 180.0000771 15.1670000 2
20865 20867 20869 20871 1 180.0000771 15.1670000 2
20868 20867 20869 20870 1 180.0000771 15.1670000 2
20868 20867 20869 20871 1 180.0000771 15.1670000 2
20865 20869 20867 20868 4 180.0000771 4.6024000 2
20867 20869 20871 20872 1 180.0000771 15.1670000 2
20867 20869 20871 20873 1 180.0000771 15.1670000 2
20870 20869 20871 20872 1 180.0000771 15.1670000 2
20870 20869 20871 20873 1 180.0000771 15.1670000 2
20867 20871 20869 20870 4 180.0000771 4.6024000 2
20864 20871 20873 20874 4 180.0000771 4.6024000 2
20869 20871 20873 20874 1 180.0000771 15.1670000 2
20872 20871 20873 20874 1 180.0000771 15.1670000 2
20864 20873 20871 20869 1 180.0000771 15.1670000 2
20864 20873 20871 20872 1 180.0000771 15.1670000 2
20869 20873 20871 20872 4 180.0000771 4.6024000 2
20875 20876 20877 20878 1 180.0000771 15.1670000 2
20875 20876 20877 20879 1 180.0000771 15.1670000 2
20878 20876 20877 20879 4 180.0000771 4.6024000 2
20875 20876 20885 20877 4 180.0000771 4.6024000 2
20875 20876 20885 20883 1 180.0000771 15.1670000 2
20875 20876 20885 20886 1 180.0000771 15.1670000 2
20877 20876 20885 20883 1 180.0000771 15.1670000 2
20877 20876 20885 20886 1 180.0000771 15.1670000 2
20878 20877 20876 20885 1 180.0000771 15.1670000 2
20879 20877 20876 20885 1 180.0000771 15.1670000 2
20876 20877 20879 20880 1 180.0000771 15.1670000 2
20876 20877 20879 20881 1 180.0000771 15.1670000 2
20878 20877 20879 20880 1 180.0000771 15.1670000 2
20878 20877 20879 20881 1 180.0000771 15.1670000 2
20877 20879 20881 20882 1 180.0000771 15.1670000 2
20877 20879 20881 20883 1 180.0000771 15.1670000 2
20880 20879 20881 20882 1 180.0000771 15.1670000 2
20880 20879 20881 20883 1 180.0000771 15.1670000 2
20877 20881 20879 20880 4 180.0000771 4.6024000 2
20879 20881 20883 20884 1 180.0000771 15.1670000 2
20879 20881 20883 20885 1 180.0000771 15.1670000 2
20882 20881 20883 20884 1 180.0000771 15.1670000 2
20882 20881 20883 20885 1 180.0000771 15.1670000 2
20879 20883 20881 20882 4 180.0000771 4.6024000 2
20876 20883 20885 20886 4 180.0000771 4.6024000 2
20881 20883 20885 20886 1 180.0000771 15.1670000 2
20884 20883 20885 20886 1 180.0000771 15.1670000 2
20876 20885 20883 20881 1 180.0000771 15.1670000 2
20876 20885 20883 20884 1 180.0000771 15.1670000 2
20881 20885 20883 20884 4 180.0000771 4.6024000 2
20887 20888 20889 20890 1 180.0000771 15.1670000 2
20887 20888 20889 20891 1 180.0000771 15.1670000 2
20890 20888 20889 20891 4 180.0000771 4.6024000 2
20887 20888 20897 20889 4 180.0000771 4.6024000 2
20887 20888 20897 20895 1 180.0000771 15.1670000 2
20887 20888 20897 20898 1 180.0000771 15.1670000 2
20889 20888 20897 20895 1 180.0000771 15.1670000 2
20889 20888 20897 20898 1 180.0000771 15.1670000 2
20890 20889 20888 20897 1 180.0000771 15.1670000 2
20891 20889 20888 20897 1 180.0000771 15.1670000 2
20888 20889 20891 20892 1 180.0000771 15.1670000 2
20888 20889 20891 20893 1 180.0000771 15.1670000 2
20890 20889 20891 20892 1 180.0000771 15.1670000 2
20890 20889 20891 20893 1 180.0000771 15.1670000 2
20889 20891 20893 20894 1 180.0000771 15.1670000 2
20889 20891 20893 20895 1 180.0000771 15.1670000 2
20892 20891 20893 20894 1 180.0000771 15.1670000 2
20892 20891 20893 20895 1 180.0000771 15.1670000 2
20889 20893 20891 20892 4 180.0000771 4.6024000 2
20891 20893 20895 20896 1 180.0000771 15.1670000 2
20891 20893 20895 20897 1 180.0000771 15.1670000 2
20894 20893 20895 20896 1 180.0000771 15.1670000 2
20894 20893 20895 20897 1 180.0000771 15.1670000 2
20891 20895 20893 20894 4 180.0000771 4.6024000 2
20888 20895 20897 20898 4 180.0000771 4.6024000 2
20893 20895 20897 20898 1 180.0000771 15.1670000 2
20896 20895 20897 20898 1 180.0000771 15.1670000 2
20888 20897 20895 20893 1 180.0000771 15.1670000 2
20888 20897 20895 20896 1 180.0000771 15.1670000 2
20893 20897 20895 20896 4 180.0000771 4.6024000 2
20899 20900 20901 20902 1 180.0000771 15.1670000 2
20899 20900 20901 20903 1 180.0000771 15.1670000 2
20902 20900 20901 20903 4 180.0000771 4.6024000 2
20899 20900 20909 20901 4 180.0000771 4.6024000 2
20899 20900 20909 20907 1 180.0000771 15.1670000 2
20899 20900 20909 20910 1 180.0000771 15.1670000 2
20901 20900 20909 20907 1 180.0000771 15.1670000 2
20901 20900 20909 20910 1 180.0000771 15.1670000 2
20902 20901 20900 20909 1 180.0000771 15.1670000 2
20903 20901 20900 20909 1 180.0000771 15.1670000 2
20900 20901 20903 20904 1 180.0000771 15.1670000 2
20900 20901 20903 20905 1 180.0000771 15.1670000 2
20902 20901 20903 20904 1 180.0000771 15.1670000 2
20902 20901 20903 20905 1 180.0000771 15.1670000 2
20901 20903 20905 20906 1 180.0000771 15.1670000 2
20901 20903 20905 20907 1 180.0000771 15.1670000 2
20904 20903 20905 20906 1 180.0000771 15.1670000 2
20904 20903 20905 20907 1 180.0000771 15.1670000 2
20901 20905 20903 20904 4 180.0000771 4.6024000 2
20903 20905 20907 20908 1 180.0000771 15.1670000 2
20903 20905 20907 20909 1 180.0000771 15.1670000 2
20906 20905 20907 20908 1 180.0000771 15.1670000 2
20906 20905 20907 20909 1 180.0000771 15.1670000 2
20903 20907 20905 20906 4 180.0000771 4.6024000 2
20900 20907 20909 20910 4 180.0000771 4.6024000 2
20905 20907 20909 20910 1 180.0000771 15.1670000 2
20908 20907 20909 20910 1 180.0000771 15.1670000 2
20900 20909 20907 20905 1 180.0000771 15.1670000 2
20900 20909 20907 20908 1 180.0000771 15.1670000 2
20905 20909 20907 20908 4 180.0000771 4.6024000 2
20911 20912 20913 20914 1 180.0000771 15.1670000 2
20911 20912 20913 20915 1 180.0000771 15.1670000 2
20914 20912 20913 20915 4 180.0000771 4.6024000 2
20911 20912 20921 20913 4 180.0000771 4.6024000 2
20911 20912 20921 20919 1 180.0000771 15.1670000 2
20911 20912 20921 20922 1 180.0000771 15.1670000 2
20913 20912 20921 20919 1 180.0000771 15.1670000 2
20913 20912 20921 20922 1 180.0000771 15.1670000 2
20914 20913 20912 20921 1 180.0000771 15.1670000 2
20915 20913 20912 20921 1 180.0000771 15.1670000 2
20912 20913 20915 20916 1 180.0000771 15.1670000 2
20912 20913 20915 20917 1 180.0000771 15.1670000 2
20914 20913 20915 20916 1 180.0000771 15.1670000 2
20914 20913 20915 20917 1 180.0000771 15.1670000 2
20913 20915 20917 20918 1 180.0000771 15.1670000 2
20913 20915 20917 20919 1 180.0000771 15.1670000 2
20916 20915 20917 20918 1 180.0000771 15.1670000 2
20916 20915 20917 20919 1 180.0000771 15.1670000 2
20913 20917 20915 20916 4 180.0000771 4.6024000 2
20915 20917 20919 20920 1 180.0000771 15.1670000 2
20915 20917 20919 20921 1 180.0000771 15.1670000 2
20918 20917 20919 20920 1 180.0000771 15.1670000 2
20918 20917 20919 20921 1 180.0000771 15.1670000 2
20915 20919 20917 20918 4 180.0000771 4.6024000 2
20912 20919 20921 20922 4 180.0000771 4.6024000 2
20917 20919 20921 20922 1 180.0000771 15.1670000 2
20920 20919 20921 20922 1 180.0000771 15.1670000 2
20912 20921 20919 20917 1 180.0000771 15.1670000 2
20912 20921 20919 20920 1 180.0000771 15.1670000 2
20917 20921 20919 20920 4 180.0000771 4.6024000 2
20923 20924 20925 20926 1 180.0000771 15.1670000 2
20923 20924 20925 20927 1 180.0000771 15.1670000 2
20926 20924 20925 20927 4 180.0000771 4.6024000 2
20923 20924 20933 20925 4 180.0000771 4.6024000 2
20923 20924 20933 20931 1 180.0000771 15.1670000 2
20923 20924 20933 20934 1 180.0000771 15.1670000 2
20925 20924 20933 20931 1 180.0000771 15.1670000 2
20925 20924 20933 20934 1 180.0000771 15.1670000 2
20926 20925 20924 20933 1 180.0000771 15.1670000 2
20927 20925 20924 20933 1 180.0000771 15.1670000 2
20924 20925 20927 20928 1 180.0000771 15.1670000 2
20924 20925 20927 20929 1 180.0000771 15.1670000 2
20926 20925 20927 20928 1 180.0000771 15.1670000 2
20926 20925 20927 20929 1 180.0000771 15.1670000 2
20925 20927 20929 20930 1 180.0000771 15.1670000 2
20925 20927 20929 20931 1 180.0000771 15.1670000 2
20928 20927 20929 20930 1 180.0000771 15.1670000 2
20928 20927 20929 20931 1 180.0000771 15.1670000 2
20925 20929 20927 20928 4 180.0000771 4.6024000 2
20927 20929 20931 20932 1 180.0000771 15.1670000 2
20927 20929 20931 20933 1 180.0000771 15.1670000 2
20930 20929 20931 20932 1 180.0000771 15.1670000 2
20930 20929 20931 20933 1 180.0000771 15.1670000 2
20927 20931 20929 20930 4 180.0000771 4.6024000 2
20924 20931 20933 20934 4 180.0000771 4.6024000 2
20929 20931 20933 20934 1 180.0000771 15.1670000 2
20932 20931 20933 20934 1 180.0000771 15.1670000 2
20924 20933 20931 20929 1 180.0000771 15.1670000 2
20924 20933 20931 20932 1 180.0000771 15.1670000 2
20929 20933 20931 20932 4 180.0000771 4.6024000 2
20935 20936 20937 20938 1 180.0000771 15.1670000 2
20935 20936 20937 20939 1 180.0000771 15.1670000 2
20938 20936 20937 20939 4 180.0000771 4.6024000 2
20935 20936 20945 20937 4 180.0000771 4.6024000 2
20935 20936 20945 20943 1 180.0000771 15.1670000 2
20935 20936 20945 20946 1 180.0000771 15.1670000 2
20937 20936 20945 20943 1 180.0000771 15.1670000 2
20937 20936 20945 20946 1 180.0000771 15.1670000 2
20938 20937 20936 20945 1 180.0000771 15.1670000 2
20939 20937 20936 20945 1 180.0000771 15.1670000 2
20936 20937 20939 20940 1 180.0000771 15.1670000 2
20936 20937 20939 20941 1 180.0000771 15.1670000 2
20938 20937 20939 20940 1 180.0000771 15.1670000 2
20938 20937 20939 20941 1 180.0000771 15.1670000 2
20937 20939 20941 20942 1 180.0000771 15.1670000 2
20937 20939 20941 20943 1 180.0000771 15.1670000 2
20940 20939 20941 20942 1 180.0000771 15.1670000 2
20940 20939 20941 20943 1 180.0000771 15.1670000 2
20937 20941 20939 20940 4 180.0000771 4.6024000 2
20939 20941 20943 20944 1 180.0000771 15.1670000 2
20939 20941 20943 20945 1 180.0000771 15.1670000 2
20942 20941 20943 20944 1 180.0000771 15.1670000 2
20942 20941 20943 20945 1 180.0000771 15.1670000 2
20939 20943 20941 20942 4 180.0000771 4.6024000 2
20936 20943 20945 20946 4 180.0000771 4.6024000 2
20941 20943 20945 20946 1 180.0000771 15.1670000 2
20944 20943 20945 20946 1 180.0000771 15.1670000 2
20936 20945 20943 20941 1 180.0000771 15.1670000 2
20936 20945 20943 20944 1 180.0000771 15.1670000 2
20941 20945 20943 20944 4 180.0000771 4.6024000 2
20947 20948 20949 20950 1 180.0000771 15.1670000 2
20947 20948 20949 20951 1 180.0000771 15.1670000 2
20950 20948 20949 20951 4 180.0000771 4.6024000 2
20947 20948 20957 20949 4 180.0000771 4.6024000 2
20947 20948 20957 20955 1 180.0000771 15.1670000 2
20947 20948 20957 20958 1 180.0000771 15.1670000 2
20949 20948 20957 20955 1 180.0000771 15.1670000 2
20949 20948 20957 20958 1 180.0000771 15.1670000 2
20950 20949 20948 20957 1 180.0000771 15.1670000 2
20951 20949 20948 20957 1 180.0000771 15.1670000 2
20948 20949 20951 20952 1 180.0000771 15.1670000 2
20948 20949 20951 20953 1 180.0000771 15.1670000 2
20950 20949 20951 20952 1 180.0000771 15.1670000 2
20950 20949 20951 20953 1 180.0000771 15.1670000 2
20949 20951 20953 20954 1 180.0000771 15.1670000 2
20949 20951 20953 20955 1 180.0000771 15.1670000 2
20952 20951 20953 20954 1 180.0000771 15.1670000 2
20952 20951 20953 20955 1 180.0000771 15.1670000 2
20949 20953 20951 20952 4 180.0000771 4.6024000 2
20951 20953 20955 20956 1 180.0000771 15.1670000 2
20951 20953 20955 20957 1 180.0000771 15.1670000 2
20954 20953 20955 20956 1 180.0000771 15.1670000 2
20954 20953 20955 20957 1 180.0000771 15.1670000 2
20951 20955 20953 20954 4 180.0000771 4.6024000 2
20948 20955 20957 20958 4 180.0000771 4.6024000 2
20953 20955 20957 20958 1 180.0000771 15.1670000 2
20956 20955 20957 20958 1 180.0000771 15.1670000 2
20948 20957 20955 20953 1 180.0000771 15.1670000 2
20948 20957 20955 20956 1 180.0000771 15.1670000 2
20953 20957 20955 20956 4 180.0000771 4.6024000 2
20959 20960 20961 20962 1 180.0000771 15.1670000 2
20959 20960 20961 20963 1 180.0000771 15.1670000 2
20962 20960 20961 20963 4 180.0000771 4.6024000 2
20959 20960 20969 20961 4 180.0000771 4.6024000 2
20959 20960 20969 20967 1 180.0000771 15.1670000 2
20959 20960 20969 20970 1 180.0000771 15.1670000 2
20961 20960 20969 20967 1 180.0000771 15.1670000 2
20961 20960 20969 20970 1 180.0000771 15.1670000 2
20962 20961 20960 20969 1 180.0000771 15.1670000 2
20963 20961 20960 20969 1 180.0000771 15.1670000 2
20960 20961 20963 20964 1 180.0000771 15.1670000 2
20960 20961 20963 20965 1 180.0000771 15.1670000 2
20962 20961 20963 20964 1 180.0000771 15.1670000 2
20962 20961 20963 20965 1 180.0000771 15.1670000 2
20961 20963 20965 20966 1 180.0000771 15.1670000 2
20961 20963 20965 20967 1 180.0000771 15.1670000 2
20964 20963 20965 20966 1 180.0000771 15.1670000 2
20964 20963 20965 20967 1 180.0000771 15.1670000 2
20961 20965 20963 20964 4 180.0000771 4.6024000 2
20963 20965 20967 20968 1 180.0000771 15.1670000 2
20963 20965 20967 20969 1 180.0000771 15.1670000 2
20966 20965 20967 20968 1 180.0000771 15.1670000 2
20966 20965 20967 20969 1 180.0000771 15.1670000 2
20963 20967 20965 20966 4 180.0000771 4.6024000 2
20960 20967 20969 20970 4 180.0000771 4.6024000 2
20965 20967 20969 20970 1 180.0000771 15.1670000 2
20968 20967 20969 20970 1 180.0000771 15.1670000 2
20960 20969 20967 20965 1 180.0000771 15.1670000 2
20960 20969 20967 20968 1 180.0000771 15.1670000 2
20965 20969 20967 20968 4 180.0000771 4.6024000 2
20971 20972 20973 20974 1 180.0000771 15.1670000 2
20971 20972 20973 20975 1 180.0000771 15.1670000 2
20974 20972 20973 20975 4 180.0000771 4.6024000 2
20971 20972 20981 20973 4 180.0000771 4.6024000 2
20971 20972 20981 20979 1 180.0000771 15.1670000 2
20971 20972 20981 20982 1 180.0000771 15.1670000 2
20973 20972 20981 20979 1 180.0000771 15.1670000 2
20973 20972 20981 20982 1 180.0000771 15.1670000 2
20974 20973 20972 20981 1 180.0000771 15.1670000 2
20975 20973 20972 20981 1 180.0000771 15.1670000 2
20972 20973 20975 20976 1 180.0000771 15.1670000 2
20972 20973 20975 20977 1 180.0000771 15.1670000 2
20974 20973 20975 20976 1 180.0000771 15.1670000 2
20974 20973 20975 20977 1 180.0000771 15.1670000 2
20973 20975 20977 20978 1 180.0000771 15.1670000 2
20973 20975 20977 20979 1 180.0000771 15.1670000 2
20976 20975 20977 20978 1 180.0000771 15.1670000 2
20976 20975 20977 20979 1 180.0000771 15.1670000 2
20973 20977 20975 20976 4 180.0000771 4.6024000 2
20975 20977 20979 20980 1 180.0000771 15.1670000 2
20975 20977 20979 20981 1 180.0000771 15.1670000 2
20978 20977 20979 20980 1 180.0000771 15.1670000 2
20978 20977 20979 20981 1 180.0000771 15.1670000 2
20975 20979 20977 20978 4 180.0000771 4.6024000 2
20972 20979 20981 20982 4 180.0000771 4.6024000 2
20977 20979 20981 20982 1 180.0000771 15.1670000 2
20980 20979 20981 20982 1 180.0000771 15.1670000 2
20972 20981 20979 20977 1 180.0000771 15.1670000 2
20972 20981 20979 20980 1 180.0000771 15.1670000 2
20977 20981 20979 20980 4 180.0000771 4.6024000 2
20983 20984 20985 20986 1 180.0000771 15.1670000 2
20983 20984 20985 20987 1 180.0000771 15.1670000 2
20986 20984 20985 20987 4 180.0000771 4.6024000 2
20983 20984 20993 20985 4 180.0000771 4.6024000 2
20983 20984 20993 20991 1 180.0000771 15.1670000 2
20983 20984 20993 20994 1 180.0000771 15.1670000 2
20985 20984 20993 20991 1 180.0000771 15.1670000 2
20985 20984 20993 20994 1 180.0000771 15.1670000 2
20986 20985 20984 20993 1 180.0000771 15.1670000 2
20987 20985 20984 20993 1 180.0000771 15.1670000 2
20984 20985 20987 20988 1 180.0000771 15.1670000 2
20984 20985 20987 20989 1 180.0000771 15.1670000 2
20986 20985 20987 20988 1 180.0000771 15.1670000 2
20986 20985 20987 20989 1 180.0000771 15.1670000 2
20985 20987 20989 20990 1 180.0000771 15.1670000 2
20985 20987 20989 20991 1 180.0000771 15.1670000 2
20988 20987 20989 20990 1 180.0000771 15.1670000 2
20988 20987 20989 20991 1 180.0000771 15.1670000 2
20985 20989 20987 20988 4 180.0000771 4.6024000 2
20987 20989 20991 20992 1 180.0000771 15.1670000 2
20987 20989 20991 20993 1 180.0000771 15.1670000 2
20990 20989 20991 20992 1 180.0000771 15.1670000 2
20990 20989 20991 20993 1 180.0000771 15.1670000 2
20987 20991 20989 20990 4 180.0000771 4.6024000 2
20984 20991 20993 20994 4 180.0000771 4.6024000 2
20989 20991 20993 20994 1 180.0000771 15.1670000 2
20992 20991 20993 20994 1 180.0000771 15.1670000 2
20984 20993 20991 20989 1 180.0000771 15.1670000 2
20984 20993 20991 20992 1 180.0000771 15.1670000 2
20989 20993 20991 20992 4 180.0000771 4.6024000 2
20995 20996 20997 20998 1 180.0000771 15.1670000 2
20995 20996 20997 20999 1 180.0000771 15.1670000 2
20998 20996 20997 20999 4 180.0000771 4.6024000 2
20995 20996 21005 20997 4 180.0000771 4.6024000 2
20995 20996 21005 21003 1 180.0000771 15.1670000 2
20995 20996 21005 21006 1 180.0000771 15.1670000 2
20997 20996 21005 21003 1 180.0000771 15.1670000 2
20997 20996 21005 21006 1 180.0000771 15.1670000 2
20998 20997 20996 21005 1 180.0000771 15.1670000 2
20999 20997 20996 21005 1 180.0000771 15.1670000 2
20996 20997 20999 21000 1 180.0000771 15.1670000 2
20996 20997 20999 21001 1 180.0000771 15.1670000 2
20998 20997 20999 21000 1 180.0000771 15.1670000 2
20998 20997 20999 21001 1 180.0000771 15.1670000 2
20997 20999 21001 21002 1 180.0000771 15.1670000 2
20997 20999 21001 21003 1 180.0000771 15.1670000 2
21000 20999 21001 21002 1 180.0000771 15.1670000 2
21000 20999 21001 21003 1 180.0000771 15.1670000 2
20997 21001 20999 21000 4 180.0000771 4.6024000 2
20999 21001 21003 21004 1 180.0000771 15.1670000 2
20999 21001 21003 21005 1 180.0000771 15.1670000 2
21002 21001 21003 21004 1 180.0000771 15.1670000 2
21002 21001 21003 21005 1 180.0000771 15.1670000 2
20999 21003 21001 21002 4 180.0000771 4.6024000 2
20996 21003 21005 21006 4 180.0000771 4.6024000 2
21001 21003 21005 21006 1 180.0000771 15.1670000 2
21004 21003 21005 21006 1 180.0000771 15.1670000 2
20996 21005 21003 21001 1 180.0000771 15.1670000 2
20996 21005 21003 21004 1 180.0000771 15.1670000 2
21001 21005 21003 21004 4 180.0000771 4.6024000 2
21007 21008 21009 21010 1 180.0000771 15.1670000 2
21007 21008 21009 21011 1 180.0000771 15.1670000 2
21010 21008 21009 21011 4 180.0000771 4.6024000 2
21007 21008 21017 21009 4 180.0000771 4.6024000 2
21007 21008 21017 21015 1 180.0000771 15.1670000 2
21007 21008 21017 21018 1 180.0000771 15.1670000 2
21009 21008 21017 21015 1 180.0000771 15.1670000 2
21009 21008 21017 21018 1 180.0000771 15.1670000 2
21010 21009 21008 21017 1 180.0000771 15.1670000 2
21011 21009 21008 21017 1 180.0000771 15.1670000 2
21008 21009 21011 21012 1 180.0000771 15.1670000 2
21008 21009 21011 21013 1 180.0000771 15.1670000 2
21010 21009 21011 21012 1 180.0000771 15.1670000 2
21010 21009 21011 21013 1 180.0000771 15.1670000 2
21009 21011 21013 21014 1 180.0000771 15.1670000 2
21009 21011 21013 21015 1 180.0000771 15.1670000 2
21012 21011 21013 21014 1 180.0000771 15.1670000 2
21012 21011 21013 21015 1 180.0000771 15.1670000 2
21009 21013 21011 21012 4 180.0000771 4.6024000 2
21011 21013 21015 21016 1 180.0000771 15.1670000 2
21011 21013 21015 21017 1 180.0000771 15.1670000 2
21014 21013 21015 21016 1 180.0000771 15.1670000 2
21014 21013 21015 21017 1 180.0000771 15.1670000 2
21011 21015 21013 21014 4 180.0000771 4.6024000 2
21008 21015 21017 21018 4 180.0000771 4.6024000 2
21013 21015 21017 21018 1 180.0000771 15.1670000 2
21016 21015 21017 21018 1 180.0000771 15.1670000 2
21008 21017 21015 21013 1 180.0000771 15.1670000 2
21008 21017 21015 21016 1 180.0000771 15.1670000 2
21013 21017 21015 21016 4 180.0000771 4.6024000 2
21019 21020 21021 21022 1 180.0000771 15.1670000 2
21019 21020 21021 21023 1 180.0000771 15.1670000 2
21022 21020 21021 21023 4 180.0000771 4.6024000 2
21019 21020 21029 21021 4 180.0000771 4.6024000 2
21019 21020 21029 21027 1 180.0000771 15.1670000 2
21019 21020 21029 21030 1 180.0000771 15.1670000 2
21021 21020 21029 21027 1 180.0000771 15.1670000 2
21021 21020 21029 21030 1 180.0000771 15.1670000 2
21022 21021 21020 21029 1 180.0000771 15.1670000 2
21023 21021 21020 21029 1 180.0000771 15.1670000 2
21020 21021 21023 21024 1 180.0000771 15.1670000 2
21020 21021 21023 21025 1 180.0000771 15.1670000 2
21022 21021 21023 21024 1 180.0000771 15.1670000 2
21022 21021 21023 21025 1 180.0000771 15.1670000 2
21021 21023 21025 21026 1 180.0000771 15.1670000 2
21021 21023 21025 21027 1 180.0000771 15.1670000 2
21024 21023 21025 21026 1 180.0000771 15.1670000 2
21024 21023 21025 21027 1 180.0000771 15.1670000 2
21021 21025 21023 21024 4 180.0000771 4.6024000 2
21023 21025 21027 21028 1 180.0000771 15.1670000 2
21023 21025 21027 21029 1 180.0000771 15.1670000 2
21026 21025 21027 21028 1 180.0000771 15.1670000 2
21026 21025 21027 21029 1 180.0000771 15.1670000 2
21023 21027 21025 21026 4 180.0000771 4.6024000 2
21020 21027 21029 21030 4 180.0000771 4.6024000 2
21025 21027 21029 21030 1 180.0000771 15.1670000 2
21028 21027 21029 21030 1 180.0000771 15.1670000 2
21020 21029 21027 21025 1 180.0000771 15.1670000 2
21020 21029 21027 21028 1 180.0000771 15.1670000 2
21025 21029 21027 21028 4 180.0000771 4.6024000 2
21031 21032 21033 21034 1 180.0000771 15.1670000 2
21031 21032 21033 21035 1 180.0000771 15.1670000 2
21034 21032 21033 21035 4 180.0000771 4.6024000 2
21031 21032 21041 21033 4 180.0000771 4.6024000 2
21031 21032 21041 21039 1 180.0000771 15.1670000 2
21031 21032 21041 21042 1 180.0000771 15.1670000 2
21033 21032 21041 21039 1 180.0000771 15.1670000 2
21033 21032 21041 21042 1 180.0000771 15.1670000 2
21034 21033 21032 21041 1 180.0000771 15.1670000 2
21035 21033 21032 21041 1 180.0000771 15.1670000 2
21032 21033 21035 21036 1 180.0000771 15.1670000 2
21032 21033 21035 21037 1 180.0000771 15.1670000 2
21034 21033 21035 21036 1 180.0000771 15.1670000 2
21034 21033 21035 21037 1 180.0000771 15.1670000 2
21033 21035 21037 21038 1 180.0000771 15.1670000 2
21033 21035 21037 21039 1 180.0000771 15.1670000 2
21036 21035 21037 21038 1 180.0000771 15.1670000 2
21036 21035 21037 21039 1 180.0000771 15.1670000 2
21033 21037 21035 21036 4 180.0000771 4.6024000 2
21035 21037 21039 21040 1 180.0000771 15.1670000 2
21035 21037 21039 21041 1 180.0000771 15.1670000 2
21038 21037 21039 21040 1 180.0000771 15.1670000 2
21038 21037 21039 21041 1 180.0000771 15.1670000 2
21035 21039 21037 21038 4 180.0000771 4.6024000 2
21032 21039 21041 21042 4 180.0000771 4.6024000 2
21037 21039 21041 21042 1 180.0000771 15.1670000 2
21040 21039 21041 21042 1 180.0000771 15.1670000 2
21032 21041 21039 21037 1 180.0000771 15.1670000 2
21032 21041 21039 21040 1 180.0000771 15.1670000 2
21037 21041 21039 21040 4 180.0000771 4.6024000 2
21043 21044 21045 21046 1 180.0000771 15.1670000 2
21043 21044 21045 21047 1 180.0000771 15.1670000 2
21046 21044 21045 21047 4 180.0000771 4.6024000 2
21043 21044 21053 21045 4 180.0000771 4.6024000 2
21043 21044 21053 21051 1 180.0000771 15.1670000 2
21043 21044 21053 21054 1 180.0000771 15.1670000 2
21045 21044 21053 21051 1 180.0000771 15.1670000 2
21045 21044 21053 21054 1 180.0000771 15.1670000 2
21046 21045 21044 21053 1 180.0000771 15.1670000 2
21047 21045 21044 21053 1 180.0000771 15.1670000 2
21044 21045 21047 21048 1 180.0000771 15.1670000 2
21044 21045 21047 21049 1 180.0000771 15.1670000 2
21046 21045 21047 21048 1 180.0000771 15.1670000 2
21046 21045 21047 21049 1 180.0000771 15.1670000 2
21045 21047 21049 21050 1 180.0000771 15.1670000 2
21045 21047 21049 21051 1 180.0000771 15.1670000 2
21048 21047 21049 21050 1 180.0000771 15.1670000 2
21048 21047 21049 21051 1 180.0000771 15.1670000 2
21045 21049 21047 21048 4 180.0000771 4.6024000 2
21047 21049 21051 21052 1 180.0000771 15.1670000 2
21047 21049 21051 21053 1 180.0000771 15.1670000 2
21050 21049 21051 21052 1 180.0000771 15.1670000 2
21050 21049 21051 21053 1 180.0000771 15.1670000 2
21047 21051 21049 21050 4 180.0000771 4.6024000 2
21044 21051 21053 21054 4 180.0000771 4.6024000 2
21049 21051 21053 21054 1 180.0000771 15.1670000 2
21052 21051 21053 21054 1 180.0000771 15.1670000 2
21044 21053 21051 21049 1 180.0000771 15.1670000 2
21044 21053 21051 21052 1 180.0000771 15.1670000 2
21049 21053 21051 21052 4 180.0000771 4.6024000 2
21055 21056 21057 21058 1 180.0000771 15.1670000 2
21055 21056 21057 21059 1 180.0000771 15.1670000 2
21058 21056 21057 21059 4 180.0000771 4.6024000 2
21055 21056 21065 21057 4 180.0000771 4.6024000 2
21055 21056 21065 21063 1 180.0000771 15.1670000 2
21055 21056 21065 21066 1 180.0000771 15.1670000 2
21057 21056 21065 21063 1 180.0000771 15.1670000 2
21057 21056 21065 21066 1 180.0000771 15.1670000 2
21058 21057 21056 21065 1 180.0000771 15.1670000 2
21059 21057 21056 21065 1 180.0000771 15.1670000 2
21056 21057 21059 21060 1 180.0000771 15.1670000 2
21056 21057 21059 21061 1 180.0000771 15.1670000 2
21058 21057 21059 21060 1 180.0000771 15.1670000 2
21058 21057 21059 21061 1 180.0000771 15.1670000 2
21057 21059 21061 21062 1 180.0000771 15.1670000 2
21057 21059 21061 21063 1 180.0000771 15.1670000 2
21060 21059 21061 21062 1 180.0000771 15.1670000 2
21060 21059 21061 21063 1 180.0000771 15.1670000 2
21057 21061 21059 21060 4 180.0000771 4.6024000 2
21059 21061 21063 21064 1 180.0000771 15.1670000 2
21059 21061 21063 21065 1 180.0000771 15.1670000 2
21062 21061 21063 21064 1 180.0000771 15.1670000 2
21062 21061 21063 21065 1 180.0000771 15.1670000 2
21059 21063 21061 21062 4 180.0000771 4.6024000 2
21056 21063 21065 21066 4 180.0000771 4.6024000 2
21061 21063 21065 21066 1 180.0000771 15.1670000 2
21064 21063 21065 21066 1 180.0000771 15.1670000 2
21056 21065 21063 21061 1 180.0000771 15.1670000 2
21056 21065 21063 21064 1 180.0000771 15.1670000 2
21061 21065 21063 21064 4 180.0000771 4.6024000 2
21067 21068 21069 21070 1 180.0000771 15.1670000 2
21067 21068 21069 21071 1 180.0000771 15.1670000 2
21070 21068 21069 21071 4 180.0000771 4.6024000 2
21067 21068 21077 21069 4 180.0000771 4.6024000 2
21067 21068 21077 21075 1 180.0000771 15.1670000 2
21067 21068 21077 21078 1 180.0000771 15.1670000 2
21069 21068 21077 21075 1 180.0000771 15.1670000 2
21069 21068 21077 21078 1 180.0000771 15.1670000 2
21070 21069 21068 21077 1 180.0000771 15.1670000 2
21071 21069 21068 21077 1 180.0000771 15.1670000 2
21068 21069 21071 21072 1 180.0000771 15.1670000 2
21068 21069 21071 21073 1 180.0000771 15.1670000 2
21070 21069 21071 21072 1 180.0000771 15.1670000 2
21070 21069 21071 21073 1 180.0000771 15.1670000 2
21069 21071 21073 21074 1 180.0000771 15.1670000 2
21069 21071 21073 21075 1 180.0000771 15.1670000 2
21072 21071 21073 21074 1 180.0000771 15.1670000 2
21072 21071 21073 21075 1 180.0000771 15.1670000 2
21069 21073 21071 21072 4 180.0000771 4.6024000 2
21071 21073 21075 21076 1 180.0000771 15.1670000 2
21071 21073 21075 21077 1 180.0000771 15.1670000 2
21074 21073 21075 21076 1 180.0000771 15.1670000 2
21074 21073 21075 21077 1 180.0000771 15.1670000 2
21071 21075 21073 21074 4 180.0000771 4.6024000 2
21068 21075 21077 21078 4 180.0000771 4.6024000 2
21073 21075 21077 21078 1 180.0000771 15.1670000 2
21076 21075 21077 21078 1 180.0000771 15.1670000 2
21068 21077 21075 21073 1 180.0000771 15.1670000 2
21068 21077 21075 21076 1 180.0000771 15.1670000 2
21073 21077 21075 21076 4 180.0000771 4.6024000 2
21079 21080 21081 21082 1 180.0000771 15.1670000 2
21079 21080 21081 21083 1 180.0000771 15.1670000 2
21082 21080 21081 21083 4 180.0000771 4.6024000 2
21079 21080 21089 21081 4 180.0000771 4.6024000 2
21079 21080 21089 21087 1 180.0000771 15.1670000 2
21079 21080 21089 21090 1 180.0000771 15.1670000 2
21081 21080 21089 21087 1 180.0000771 15.1670000 2
21081 21080 21089 21090 1 180.0000771 15.1670000 2
21082 21081 21080 21089 1 180.0000771 15.1670000 2
21083 21081 21080 21089 1 180.0000771 15.1670000 2
21080 21081 21083 21084 1 180.0000771 15.1670000 2
21080 21081 21083 21085 1 180.0000771 15.1670000 2
21082 21081 21083 21084 1 180.0000771 15.1670000 2
21082 21081 21083 21085 1 180.0000771 15.1670000 2
21081 21083 21085 21086 1 180.0000771 15.1670000 2
21081 21083 21085 21087 1 180.0000771 15.1670000 2
21084 21083 21085 21086 1 180.0000771 15.1670000 2
21084 21083 21085 21087 1 180.0000771 15.1670000 2
21081 21085 21083 21084 4 180.0000771 4.6024000 2
21083 21085 21087 21088 1 180.0000771 15.1670000 2
21083 21085 21087 21089 1 180.0000771 15.1670000 2
21086 21085 21087 21088 1 180.0000771 15.1670000 2
21086 21085 21087 21089 1 180.0000771 15.1670000 2
21083 21087 21085 21086 4 180.0000771 4.6024000 2
21080 21087 21089 21090 4 180.0000771 4.6024000 2
21085 21087 21089 21090 1 180.0000771 15.1670000 2
21088 21087 21089 21090 1 180.0000771 15.1670000 2
21080 21089 21087 21085 1 180.0000771 15.1670000 2
21080 21089 21087 21088 1 180.0000771 15.1670000 2
21085 21089 21087 21088 4 180.0000771 4.6024000 2
21091 21092 21093 21094 1 180.0000771 15.1670000 2
21091 21092 21093 21095 1 180.0000771 15.1670000 2
21094 21092 21093 21095 4 180.0000771 4.6024000 2
21091 21092 21101 21093 4 180.0000771 4.6024000 2
21091 21092 21101 21099 1 180.0000771 15.1670000 2
21091 21092 21101 21102 1 180.0000771 15.1670000 2
21093 21092 21101 21099 1 180.0000771 15.1670000 2
21093 21092 21101 21102 1 180.0000771 15.1670000 2
21094 21093 21092 21101 1 180.0000771 15.1670000 2
21095 21093 21092 21101 1 180.0000771 15.1670000 2
21092 21093 21095 21096 1 180.0000771 15.1670000 2
21092 21093 21095 21097 1 180.0000771 15.1670000 2
21094 21093 21095 21096 1 180.0000771 15.1670000 2
21094 21093 21095 21097 1 180.0000771 15.1670000 2
21093 21095 21097 21098 1 180.0000771 15.1670000 2
21093 21095 21097 21099 1 180.0000771 15.1670000 2
21096 21095 21097 21098 1 180.0000771 15.1670000 2
21096 21095 21097 21099 1 180.0000771 15.1670000 2
21093 21097 21095 21096 4 180.0000771 4.6024000 2
21095 21097 21099 21100 1 180.0000771 15.1670000 2
21095 21097 21099 21101 1 180.0000771 15.1670000 2
21098 21097 21099 21100 1 180.0000771 15.1670000 2
21098 21097 21099 21101 1 180.0000771 15.1670000 2
21095 21099 21097 21098 4 180.0000771 4.6024000 2
21092 21099 21101 21102 4 180.0000771 4.6024000 2
21097 21099 21101 21102 1 180.0000771 15.1670000 2
21100 21099 21101 21102 1 180.0000771 15.1670000 2
21092 21101 21099 21097 1 180.0000771 15.1670000 2
21092 21101 21099 21100 1 180.0000771 15.1670000 2
21097 21101 21099 21100 4 180.0000771 4.6024000 2
21103 21104 21105 21106 1 180.0000771 15.1670000 2
21103 21104 21105 21107 1 180.0000771 15.1670000 2
21106 21104 21105 21107 4 180.0000771 4.6024000 2
21103 21104 21113 21105 4 180.0000771 4.6024000 2
21103 21104 21113 21111 1 180.0000771 15.1670000 2
21103 21104 21113 21114 1 180.0000771 15.1670000 2
21105 21104 21113 21111 1 180.0000771 15.1670000 2
21105 21104 21113 21114 1 180.0000771 15.1670000 2
21106 21105 21104 21113 1 180.0000771 15.1670000 2
21107 21105 21104 21113 1 180.0000771 15.1670000 2
21104 21105 21107 21108 1 180.0000771 15.1670000 2
21104 21105 21107 21109 1 180.0000771 15.1670000 2
21106 21105 21107 21108 1 180.0000771 15.1670000 2
21106 21105 21107 21109 1 180.0000771 15.1670000 2
21105 21107 21109 21110 1 180.0000771 15.1670000 2
21105 21107 21109 21111 1 180.0000771 15.1670000 2
21108 21107 21109 21110 1 180.0000771 15.1670000 2
21108 21107 21109 21111 1 180.0000771 15.1670000 2
21105 21109 21107 21108 4 180.0000771 4.6024000 2
21107 21109 21111 21112 1 180.0000771 15.1670000 2
21107 21109 21111 21113 1 180.0000771 15.1670000 2
21110 21109 21111 21112 1 180.0000771 15.1670000 2
21110 21109 21111 21113 1 180.0000771 15.1670000 2
21107 21111 21109 21110 4 180.0000771 4.6024000 2
21104 21111 21113 21114 4 180.0000771 4.6024000 2
21109 21111 21113 21114 1 180.0000771 15.1670000 2
21112 21111 21113 21114 1 180.0000771 15.1670000 2
21104 21113 21111 21109 1 180.0000771 15.1670000 2
21104 21113 21111 21112 1 180.0000771 15.1670000 2
21109 21113 21111 21112 4 180.0000771 4.6024000 2
21115 21116 21117 21118 1 180.0000771 15.1670000 2
21115 21116 21117 21119 1 180.0000771 15.1670000 2
21118 21116 21117 21119 4 180.0000771 4.6024000 2
21115 21116 21125 21117 4 180.0000771 4.6024000 2
21115 21116 21125 21123 1 180.0000771 15.1670000 2
21115 21116 21125 21126 1 180.0000771 15.1670000 2
21117 21116 21125 21123 1 180.0000771 15.1670000 2
21117 21116 21125 21126 1 180.0000771 15.1670000 2
21118 21117 21116 21125 1 180.0000771 15.1670000 2
21119 21117 21116 21125 1 180.0000771 15.1670000 2
21116 21117 21119 21120 1 180.0000771 15.1670000 2
21116 21117 21119 21121 1 180.0000771 15.1670000 2
21118 21117 21119 21120 1 180.0000771 15.1670000 2
21118 21117 21119 21121 1 180.0000771 15.1670000 2
21117 21119 21121 21122 1 180.0000771 15.1670000 2
21117 21119 21121 21123 1 180.0000771 15.1670000 2
21120 21119 21121 21122 1 180.0000771 15.1670000 2
21120 21119 21121 21123 1 180.0000771 15.1670000 2
21117 21121 21119 21120 4 180.0000771 4.6024000 2
21119 21121 21123 21124 1 180.0000771 15.1670000 2
21119 21121 21123 21125 1 180.0000771 15.1670000 2
21122 21121 21123 21124 1 180.0000771 15.1670000 2
21122 21121 21123 21125 1 180.0000771 15.1670000 2
21119 21123 21121 21122 4 180.0000771 4.6024000 2
21116 21123 21125 21126 4 180.0000771 4.6024000 2
21121 21123 21125 21126 1 180.0000771 15.1670000 2
21124 21123 21125 21126 1 180.0000771 15.1670000 2
21116 21125 21123 21121 1 180.0000771 15.1670000 2
21116 21125 21123 21124 1 180.0000771 15.1670000 2
21121 21125 21123 21124 4 180.0000771 4.6024000 2
21127 21128 21129 21130 1 180.0000771 15.1670000 2
21127 21128 21129 21131 1 180.0000771 15.1670000 2
21130 21128 21129 21131 4 180.0000771 4.6024000 2
21127 21128 21137 21129 4 180.0000771 4.6024000 2
21127 21128 21137 21135 1 180.0000771 15.1670000 2
21127 21128 21137 21138 1 180.0000771 15.1670000 2
21129 21128 21137 21135 1 180.0000771 15.1670000 2
21129 21128 21137 21138 1 180.0000771 15.1670000 2
21130 21129 21128 21137 1 180.0000771 15.1670000 2
21131 21129 21128 21137 1 180.0000771 15.1670000 2
21128 21129 21131 21132 1 180.0000771 15.1670000 2
21128 21129 21131 21133 1 180.0000771 15.1670000 2
21130 21129 21131 21132 1 180.0000771 15.1670000 2
21130 21129 21131 21133 1 180.0000771 15.1670000 2
21129 21131 21133 21134 1 180.0000771 15.1670000 2
21129 21131 21133 21135 1 180.0000771 15.1670000 2
21132 21131 21133 21134 1 180.0000771 15.1670000 2
21132 21131 21133 21135 1 180.0000771 15.1670000 2
21129 21133 21131 21132 4 180.0000771 4.6024000 2
21131 21133 21135 21136 1 180.0000771 15.1670000 2
21131 21133 21135 21137 1 180.0000771 15.1670000 2
21134 21133 21135 21136 1 180.0000771 15.1670000 2
21134 21133 21135 21137 1 180.0000771 15.1670000 2
21131 21135 21133 21134 4 180.0000771 4.6024000 2
21128 21135 21137 21138 4 180.0000771 4.6024000 2
21133 21135 21137 21138 1 180.0000771 15.1670000 2
21136 21135 21137 21138 1 180.0000771 15.1670000 2
21128 21137 21135 21133 1 180.0000771 15.1670000 2
21128 21137 21135 21136 1 180.0000771 15.1670000 2
21133 21137 21135 21136 4 180.0000771 4.6024000 2
21139 21140 21141 21142 1 180.0000771 15.1670000 2
21139 21140 21141 21143 1 180.0000771 15.1670000 2
21142 21140 21141 21143 4 180.0000771 4.6024000 2
21139 21140 21149 21141 4 180.0000771 4.6024000 2
21139 21140 21149 21147 1 180.0000771 15.1670000 2
21139 21140 21149 21150 1 180.0000771 15.1670000 2
21141 21140 21149 21147 1 180.0000771 15.1670000 2
21141 21140 21149 21150 1 180.0000771 15.1670000 2
21142 21141 21140 21149 1 180.0000771 15.1670000 2
21143 21141 21140 21149 1 180.0000771 15.1670000 2
21140 21141 21143 21144 1 180.0000771 15.1670000 2
21140 21141 21143 21145 1 180.0000771 15.1670000 2
21142 21141 21143 21144 1 180.0000771 15.1670000 2
21142 21141 21143 21145 1 180.0000771 15.1670000 2
21141 21143 21145 21146 1 180.0000771 15.1670000 2
21141 21143 21145 21147 1 180.0000771 15.1670000 2
21144 21143 21145 21146 1 180.0000771 15.1670000 2
21144 21143 21145 21147 1 180.0000771 15.1670000 2
21141 21145 21143 21144 4 180.0000771 4.6024000 2
21143 21145 21147 21148 1 180.0000771 15.1670000 2
21143 21145 21147 21149 1 180.0000771 15.1670000 2
21146 21145 21147 21148 1 180.0000771 15.1670000 2
21146 21145 21147 21149 1 180.0000771 15.1670000 2
21143 21147 21145 21146 4 180.0000771 4.6024000 2
21140 21147 21149 21150 4 180.0000771 4.6024000 2
21145 21147 21149 21150 1 180.0000771 15.1670000 2
21148 21147 21149 21150 1 180.0000771 15.1670000 2
21140 21149 21147 21145 1 180.0000771 15.1670000 2
21140 21149 21147 21148 1 180.0000771 15.1670000 2
21145 21149 21147 21148 4 180.0000771 4.6024000 2
21151 21152 21153 21154 1 180.0000771 15.1670000 2
21151 21152 21153 21155 1 180.0000771 15.1670000 2
21154 21152 21153 21155 4 180.0000771 4.6024000 2
21151 21152 21161 21153 4 180.0000771 4.6024000 2
21151 21152 21161 21159 1 180.0000771 15.1670000 2
21151 21152 21161 21162 1 180.0000771 15.1670000 2
21153 21152 21161 21159 1 180.0000771 15.1670000 2
21153 21152 21161 21162 1 180.0000771 15.1670000 2
21154 21153 21152 21161 1 180.0000771 15.1670000 2
21155 21153 21152 21161 1 180.0000771 15.1670000 2
21152 21153 21155 21156 1 180.0000771 15.1670000 2
21152 21153 21155 21157 1 180.0000771 15.1670000 2
21154 21153 21155 21156 1 180.0000771 15.1670000 2
21154 21153 21155 21157 1 180.0000771 15.1670000 2
21153 21155 21157 21158 1 180.0000771 15.1670000 2
21153 21155 21157 21159 1 180.0000771 15.1670000 2
21156 21155 21157 21158 1 180.0000771 15.1670000 2
21156 21155 21157 21159 1 180.0000771 15.1670000 2
21153 21157 21155 21156 4 180.0000771 4.6024000 2
21155 21157 21159 21160 1 180.0000771 15.1670000 2
21155 21157 21159 21161 1 180.0000771 15.1670000 2
21158 21157 21159 21160 1 180.0000771 15.1670000 2
21158 21157 21159 21161 1 180.0000771 15.1670000 2
21155 21159 21157 21158 4 180.0000771 4.6024000 2
21152 21159 21161 21162 4 180.0000771 4.6024000 2
21157 21159 21161 21162 1 180.0000771 15.1670000 2
21160 21159 21161 21162 1 180.0000771 15.1670000 2
21152 21161 21159 21157 1 180.0000771 15.1670000 2
21152 21161 21159 21160 1 180.0000771 15.1670000 2
21157 21161 21159 21160 4 180.0000771 4.6024000 2
21163 21164 21165 21166 1 180.0000771 15.1670000 2
21163 21164 21165 21167 1 180.0000771 15.1670000 2
21166 21164 21165 21167 4 180.0000771 4.6024000 2
21163 21164 21173 21165 4 180.0000771 4.6024000 2
21163 21164 21173 21171 1 180.0000771 15.1670000 2
21163 21164 21173 21174 1 180.0000771 15.1670000 2
21165 21164 21173 21171 1 180.0000771 15.1670000 2
21165 21164 21173 21174 1 180.0000771 15.1670000 2
21166 21165 21164 21173 1 180.0000771 15.1670000 2
21167 21165 21164 21173 1 180.0000771 15.1670000 2
21164 21165 21167 21168 1 180.0000771 15.1670000 2
21164 21165 21167 21169 1 180.0000771 15.1670000 2
21166 21165 21167 21168 1 180.0000771 15.1670000 2
21166 21165 21167 21169 1 180.0000771 15.1670000 2
21165 21167 21169 21170 1 180.0000771 15.1670000 2
21165 21167 21169 21171 1 180.0000771 15.1670000 2
21168 21167 21169 21170 1 180.0000771 15.1670000 2
21168 21167 21169 21171 1 180.0000771 15.1670000 2
21165 21169 21167 21168 4 180.0000771 4.6024000 2
21167 21169 21171 21172 1 180.0000771 15.1670000 2
21167 21169 21171 21173 1 180.0000771 15.1670000 2
21170 21169 21171 21172 1 180.0000771 15.1670000 2
21170 21169 21171 21173 1 180.0000771 15.1670000 2
21167 21171 21169 21170 4 180.0000771 4.6024000 2
21164 21171 21173 21174 4 180.0000771 4.6024000 2
21169 21171 21173 21174 1 180.0000771 15.1670000 2
21172 21171 21173 21174 1 180.0000771 15.1670000 2
21164 21173 21171 21169 1 180.0000771 15.1670000 2
21164 21173 21171 21172 1 180.0000771 15.1670000 2
21169 21173 21171 21172 4 180.0000771 4.6024000 2
